Protein in INSANE! Membrane UpperLeaflet>POPC=1.0 LowerLeaflet>POPC=1.0
239272
   85AUC    AUC    1  31.057  13.729   7.503
   86AUC    AUC    2  31.302  13.729   7.351
   87AUC    AUC    3  31.302  13.729   7.654
   88AUC    AUC    4  30.812  13.729   7.351
   89AUC    AUC    5  30.812  13.729   7.654
   90AUC    AUC    6  30.905  13.975   7.503
   91AUC    AUC    7  31.209  13.975   7.503
   92AUC    AUC    8  30.905  13.484   7.503
   93AUC    AUC    9  31.209  13.484   7.503
   94AUC    AUC   10  31.057  13.578   7.748
   95AUC    AUC   11  31.057  13.881   7.748
   96AUC    AUC   12  31.057  13.578   7.257
   97AUC    AUC   13  31.057  13.881   7.257
   98AUC    AUC   14  31.548  13.729   7.199
   99AUC    AUC   15  31.548  13.729   7.503
  100AUC    AUC   16  31.548  13.729   7.806
  101AUC    AUC   17  30.566  13.729   7.199
  102AUC    AUC   18  30.566  13.729   7.503
  103AUC    AUC   19  30.566  13.729   7.806
  104AUC    AUC   20  30.754  14.220   7.503
  105AUC    AUC   21  31.057  14.220   7.503
  106AUC    AUC   22  31.360  14.220   7.503
  107AUC    AUC   23  30.754  13.239   7.503
  108AUC    AUC   24  31.057  13.239   7.503
  109AUC    AUC   25  31.360  13.239   7.503
  110AUC    AUC   26  31.057  13.426   7.993
  111AUC    AUC   27  31.057  13.729   7.993
  112AUC    AUC   28  31.057  14.033   7.993
  113AUC    AUC   29  31.057  13.426   7.012
  114AUC    AUC   30  31.057  13.729   7.012
  115AUC    AUC   31  31.057  14.033   7.012
  116AUC    AUC   32  31.302  13.578   7.900
  117AUC    AUC   33  31.302  13.881   7.900
  118AUC    AUC   34  31.302  13.578   7.106
  119AUC    AUC   35  31.302  13.881   7.106
  120AUC    AUC   36  30.812  13.578   7.900
  121AUC    AUC   37  30.812  13.881   7.900
  122AUC    AUC   38  30.812  13.578   7.106
  123AUC    AUC   39  30.812  13.881   7.106
  124AUC    AUC   40  31.454  13.975   7.351
  125AUC    AUC   41  31.454  13.975   7.654
  126AUC    AUC   42  30.660  13.975   7.351
  127AUC    AUC   43  30.660  13.975   7.654
  128AUC    AUC   44  31.454  13.484   7.351
  129AUC    AUC   45  31.454  13.484   7.654
  130AUC    AUC   46  30.660  13.484   7.351
  131AUC    AUC   47  30.660  13.484   7.654
  132AUC    AUC   48  30.905  14.127   7.748
  133AUC    AUC   49  31.209  14.127   7.748
  134AUC    AUC   50  30.905  13.332   7.748
  135AUC    AUC   51  31.209  13.332   7.748
  136AUC    AUC   52  30.905  14.127   7.257
  137AUC    AUC   53  31.209  14.127   7.257
  138AUC    AUC   54  30.905  13.332   7.257
  139AUC    AUC   55  31.209  13.332   7.257
  140AUSL   AUS   56  31.466  13.729   8.083
  141AUSL   AUS   57  31.322  13.313   8.013
  142AUL    AUL   58  31.548  13.426   8.297
  143THSLK    S   59  31.432  13.126   8.153
  144ETHY    C1   60  31.468  12.727   8.368
  145ETHY    C1   61  31.578  12.297   8.665
  146ETHY    C1   62  31.756  11.933   9.000
  147ETHY    C1   63  31.990  11.637   9.364
  148ETHY    C1   64  32.276  11.420   9.752
  149ETHY    C1   65  32.607  11.287  10.156
  150THSLK    S   66  31.559  13.677   8.324
  151ETHY    C1   67  31.763  13.457   8.665
  152ETHY    C1   68  32.027  13.280   9.094
  153ETHY    C1   69  32.303  13.204   9.535
  154ETHY    C1   70  32.580  13.221   9.980
  155ETHY    C1   71  32.850  13.334  10.419
  156ETHY    C1   72  33.109  13.543  10.845
  157AUSL   AUS   73  31.221  13.578   8.176
  158AUSL   AUS   74  30.893  13.881   8.176
  159AUL    AUL   75  31.057  13.729   8.484
  160THSLK    S   76  31.296  13.523   8.413
  161ETHY    C1   77  31.360  13.243   8.765
  162ETHY    C1   78  31.463  12.988   9.223
  163ETHY    C1   79  31.590  12.829   9.708
  164ETHY    C1   80  31.732  12.760  10.208
  165ETHY    C1   81  31.886  12.788  10.713
  166ETHY    C1   82  32.046  12.912  11.212
  167THSLK    S   83  30.808  13.835   8.428
  168ETHY    C1   84  30.734  13.685   8.850
  169ETHY    C1   85  30.629  13.597   9.367
  170ETHY    C1   86  30.507  13.609   9.878
  171ETHY    C1   87  30.369  13.710  10.373
  172ETHY    C1   88  30.214  13.903  10.840
  173ETHY    C1   89  30.045  14.184  11.268
  174AUSL   AUS   90  31.221  13.881   8.176
  175AUSL   AUS   91  31.567  13.994   7.919
  176AUL    AUL   92  31.548  14.033   8.297
  177THSLK    S   93  31.306  13.937   8.410
  178ETHY    C1   94  31.380  14.218   8.759
  179ETHY    C1   95  31.485  14.473   9.217
  180ETHY    C1   96  31.607  14.632   9.703
  181ETHY    C1   97  31.746  14.701  10.204
  182ETHY    C1   98  31.900  14.674  10.708
  183ETHY    C1   99  32.069  14.550  11.206
  184THSLK    S  100  31.739  14.092   8.080
  185ETHY    C1  101  32.102  14.063   8.350
  186ETHY    C1  102  32.524  14.119   8.673
  187ETHY    C1  103  32.916  14.273   8.989
  188ETHY    C1  104  33.270  14.511   9.293
  189ETHY    C1  105  33.577  14.832   9.580
  190ETHY    C1  106  33.828  15.229   9.844
  191AUSL   AUS  107  31.466  13.729   6.923
  192AUSL   AUS  108  31.322  14.146   6.992
  193AUL    AUL  109  31.548  14.033   6.708
  194THSLK    S  110  31.568  13.677   6.687
  195ETHY    C1  111  31.781  13.457   6.351
  196ETHY    C1  112  32.046  13.280   5.923
  197ETHY    C1  113  32.318  13.204   5.479
  198ETHY    C1  114  32.592  13.221   5.033
  199ETHY    C1  115  32.863  13.334   4.594
  200ETHY    C1  116  33.128  13.543   4.173
  201THSLK    S  117  31.500  14.257   6.829
  202ETHY    C1  118  31.802  14.325   6.497
  203ETHY    C1  119  32.121  14.488   6.100
  204ETHY    C1  120  32.386  14.735   5.719
  205ETHY    C1  121  32.598  15.055   5.362
  206ETHY    C1  122  32.751  15.445   5.039
  207ETHY    C1  123  32.842  15.897   4.759
  208AUSL   AUS  124  31.221  13.578   6.829
  209AUSL   AUS  125  31.567  13.465   7.086
  210AUL    AUL  126  31.548  13.426   6.708
  211THSLK    S  127  31.700  13.273   6.949
  212ETHY    C1  128  31.883  12.906   6.752
  213ETHY    C1  129  32.155  12.534   6.483
  214ETHY    C1  130  32.480  12.245   6.186
  215ETHY    C1  131  32.846  12.038   5.874
  216ETHY    C1  132  33.250  11.919   5.555
  217ETHY    C1  133  33.683  11.894   5.235
  218THSLK    S  134  31.306  13.522   6.596
  219ETHY    C1  135  31.380  13.241   6.246
  220ETHY    C1  136  31.485  12.985   5.788
  221ETHY    C1  137  31.607  12.827   5.302
  222ETHY    C1  138  31.746  12.758   4.801
  223ETHY    C1  139  31.900  12.785   4.297
  224ETHY    C1  140  32.069  12.909   3.799
  225AUSL   AUS  141  31.221  13.881   6.829
  226AUSL   AUS  142  30.893  13.578   6.829
  227AUL    AUL  143  31.057  13.729   6.521
  228THSLK    S  144  30.801  13.522   6.597
  229ETHY    C1  145  30.666  13.244   6.264
  230ETHY    C1  146  30.505  12.991   5.822
  231ETHY    C1  147  30.353  12.834   5.343
  232ETHY    C1  148  30.217  12.765   4.842
  233ETHY    C1  149  30.100  12.791   4.328
  234ETHY    C1  150  30.007  12.910   3.810
  235THSLK    S  151  31.323  13.835   6.583
  236ETHY    C1  152  31.469  13.685   6.179
  237ETHY    C1  153  31.631  13.594   5.678
  238ETHY    C1  154  31.778  13.604   5.173
  239ETHY    C1  155  31.911  13.705   4.677
  240ETHY    C1  156  32.028  13.900   4.200
  241ETHY    C1  157  32.129  14.186   3.754
  242AUSL   AUS  158  30.648  13.729   8.083
  243AUSL   AUS  159  30.792  14.146   8.013
  244AUL    AUL  160  30.566  14.033   8.297
  245THSLK    S  161  30.546  13.677   8.319
  246ETHY    C1  162  30.334  13.457   8.654
  247ETHY    C1  163  30.068  13.280   9.082
  248ETHY    C1  164  29.796  13.204   9.526
  249ETHY    C1  165  29.522  13.221   9.973
  250ETHY    C1  166  29.251  13.334  10.411
  251ETHY    C1  167  28.986  13.543  10.832
  252THSLK    S  168  30.675  14.270   8.202
  253ETHY    C1  169  30.632  14.413   8.632
  254ETHY    C1  170  30.521  14.638   9.104
  255ETHY    C1  171  30.345  14.915   9.515
  256ETHY    C1  172  30.114  15.231   9.863
  257ETHY    C1  173  29.828  15.579  10.138
  258ETHY    C1  174  29.491  15.952  10.334
  259AUSL   AUS  175  30.893  13.578   8.176
  260AUSL   AUS  176  30.547  13.465   7.919
  261AUL    AUL  177  30.566  13.426   8.297
  262THSLK    S  178  30.370  13.302   8.026
  263ETHY    C1  179  29.999  13.045   8.082
  264ETHY    C1  180  29.577  12.757   8.237
  265ETHY    C1  181  29.187  12.502   8.482
  266ETHY    C1  182  28.835  12.285   8.803
  267ETHY    C1  183  28.529  12.114   9.198
  268ETHY    C1  184  28.272  11.993   9.657
  269THSLK    S  185  30.791  13.524   8.406
  270ETHY    C1  186  30.645  13.248   8.736
  271ETHY    C1  187  30.483  12.996   9.178
  272ETHY    C1  188  30.336  12.838   9.658
  273ETHY    C1  189  30.203  12.768  10.160
  274ETHY    C1  190  30.086  12.794  10.674
  275ETHY    C1  191  29.985  12.915  11.190
  276AUSL   AUS  192  30.648  13.729   6.923
  277AUSL   AUS  193  30.792  13.313   6.992
  278AUL    AUL  194  30.566  13.426   6.708
  279THSLK    S  195  30.555  13.677   6.681
  280ETHY    C1  196  30.351  13.457   6.341
  281ETHY    C1  197  30.087  13.280   5.911
  282ETHY    C1  198  29.811  13.204   5.470
  283ETHY    C1  199  29.534  13.221   5.025
  284ETHY    C1  200  29.264  13.334   4.586
  285ETHY    C1  201  29.005  13.543   4.161
  286THSLK    S  202  30.621  13.140   6.878
  287ETHY    C1  203  30.326  12.814   6.760
  288ETHY    C1  204  30.008  12.447   6.538
  289ETHY    C1  205  29.740  12.112   6.233
  290ETHY    C1  206  29.526  11.812   5.861
  291ETHY    C1  207  29.374  11.554   5.426
  292ETHY    C1  208  29.288  11.342   4.937
  293AUSL   AUS  209  30.893  13.881   6.829
  294AUSL   AUS  210  30.547  13.994   7.086
  295AUL    AUL  211  30.566  14.033   6.708
  296THSLK    S  212  30.420  14.121   6.895
  297ETHY    C1  213  30.243  14.202   6.484
  298ETHY    C1  214  29.972  14.342   6.046
  299ETHY    C1  215  29.645  14.530   5.679
  300ETHY    C1  216  29.276  14.759   5.385
  301ETHY    C1  217  28.874  15.026   5.173
  302ETHY    C1  218  28.445  15.328   5.047
  303THSLK    S  219  30.818  13.837   6.576
  304ETHY    C1  220  30.754  13.690   6.150
  305ETHY    C1  221  30.651  13.601   5.634
  306ETHY    C1  222  30.524  13.612   5.123
  307ETHY    C1  223  30.382  13.713   4.629
  308ETHY    C1  224  30.229  13.906   4.162
  309ETHY    C1  225  30.068  14.189   3.732
  310AUSL   AUS  226  31.637  14.138   7.503
  311AUSL   AUS  227  31.567  13.994   7.086
  312AUL    AUL  228  31.851  14.220   7.199
  313THSLK    S  229  31.745  14.093   6.934
  314ETHY    C1  230  32.115  14.066   6.671
  315ETHY    C1  231  32.537  14.122   6.349
  316ETHY    C1  232  32.927  14.276   6.030
  317ETHY    C1  233  33.279  14.513   5.724
  318ETHY    C1  234  33.586  14.834   5.438
  319ETHY    C1  235  33.842  15.233   5.179
  320THSLK    S  236  31.903  14.191   7.508
  321ETHY    C1  237  32.357  14.213   7.513
  322ETHY    C1  238  32.879  14.327   7.514
  323ETHY    C1  239  33.362  14.536   7.511
  324ETHY    C1  240  33.798  14.826   7.510
  325ETHY    C1  241  34.177  15.193   7.510
  326ETHY    C1  242  34.491  15.633   7.514
  327AUSL   AUS  243  31.731  13.893   7.351
  328AUSL   AUS  244  31.731  13.566   7.654
  329AUL    AUL  245  32.039  13.729   7.503
  330THSLK    S  246  31.987  13.932   7.350
  331ETHY    C1  247  32.423  13.824   7.286
  332ETHY    C1  248  32.949  13.786   7.201
  333ETHY    C1  249  33.464  13.850   7.113
  334ETHY    C1  250  33.958  14.004   7.026
  335ETHY    C1  251  34.418  14.249   6.945
  336ETHY    C1  252  34.837  14.581   6.873
  337THSLK    S  253  31.958  13.426   7.663
  338ETHY    C1  254  32.277  13.110   7.728
  339ETHY    C1  255  32.710  12.806   7.807
  340ETHY    C1  256  33.185  12.596   7.887
  341ETHY    C1  257  33.688  12.475   7.971
  342ETHY    C1  258  34.208  12.449   8.058
  343ETHY    C1  259  34.736  12.519   8.147
  344AUSL   AUS  260  31.731  13.893   7.654
  345AUSL   AUS  261  31.473  14.240   7.767
  346AUL    AUL  262  31.851  14.220   7.806
  347THSLK    S  263  31.656  14.354   7.926
  348ETHY    C1  264  32.039  14.472   8.140
  349ETHY    C1  265  32.457  14.695   8.388
  350ETHY    C1  266  32.816  15.000   8.622
  351ETHY    C1  267  33.113  15.373   8.840
  352ETHY    C1  268  33.338  15.807   9.038
  353ETHY    C1  269  33.485  16.295   9.215
  354THSLK    S  270  31.985  13.932   7.665
  355ETHY    C1  271  32.420  13.824   7.740
  356ETHY    C1  272  32.946  13.786   7.826
  357ETHY    C1  273  33.461  13.849   7.910
  358ETHY    C1  274  33.955  14.003   7.993
  359ETHY    C1  275  34.416  14.248   8.075
  360ETHY    C1  276  34.833  14.580   8.155
  361AUSL   AUS  277  30.477  14.138   7.503
  362AUSL   AUS  278  30.547  13.994   7.919
  363AUL    AUL  279  30.263  14.220   7.806
  364THSLK    S  280  30.414  14.113   8.109
  365ETHY    C1  281  30.231  14.185   8.519
  366ETHY    C1  282  29.959  14.325   8.957
  367ETHY    C1  283  29.634  14.516   9.324
  368ETHY    C1  284  29.268  14.747   9.619
  369ETHY    C1  285  28.865  15.014   9.831
  370ETHY    C1  286  28.431  15.310   9.956
  371THSLK    S  287  30.266  14.279   7.508
  372ETHY    C1  288  30.044  14.676   7.513
  373ETHY    C1  289  29.708  15.091   7.514
  374ETHY    C1  290  29.305  15.430   7.511
  375ETHY    C1  291  28.851  15.691   7.510
  376ETHY    C1  292  28.352  15.865   7.510
  377ETHY    C1  293  27.819  15.949   7.514
  378AUSL   AUS  294  30.383  13.893   7.351
  379AUSL   AUS  295  30.641  14.240   7.238
  380AUL    AUL  296  30.263  14.220   7.199
  381THSLK    S  297  30.156  14.008   7.303
  382ETHY    C1  298  29.837  14.208   7.049
  383ETHY    C1  299  29.404  14.414   6.813
  384ETHY    C1  300  28.929  14.580   6.661
  385ETHY    C1  301  28.426  14.709   6.590
  386ETHY    C1  302  27.906  14.799   6.605
  387ETHY    C1  303  27.378  14.847   6.708
  388THSLK    S  304  30.529  14.403   7.060
  389ETHY    C1  305  30.450  14.713   6.737
  390ETHY    C1  306  30.275  15.087   6.397
  391ETHY    C1  307  30.021  15.455   6.120
  392ETHY    C1  308  29.701  15.812   5.909
  393ETHY    C1  309  29.320  16.150   5.770
  394ETHY    C1  310  28.885  16.464   5.709
  395AUSL   AUS  311  30.383  13.893   7.654
  396AUSL   AUS  312  30.383  13.566   7.351
  397AUL    AUL  313  30.075  13.729   7.503
  398THSLK    S  314  30.129  13.493   7.394
  399ETHY    C1  315  29.694  13.475   7.524
  400ETHY    C1  316  29.168  13.415   7.597
  401ETHY    C1  317  28.653  13.311   7.578
  402ETHY    C1  318  28.159  13.168   7.477
  403ETHY    C1  319  27.699  12.985   7.294
  404ETHY    C1  320  27.281  12.765   7.034
  405THSLK    S  321  30.155  13.999   7.707
  406ETHY    C1  322  29.834  14.190   7.966
  407ETHY    C1  323  29.401  14.394   8.202
  408ETHY    C1  324  28.926  14.565   8.352
  409ETHY    C1  325  28.424  14.697   8.422
  410ETHY    C1  326  27.904  14.785   8.407
  411ETHY    C1  327  27.375  14.826   8.308
  412AUSL   AUS  328  31.637  13.320   7.503
  413AUSL   AUS  329  31.567  13.465   7.919
  414AUL    AUL  330  31.851  13.239   7.806
  415THSLK    S  331  31.848  13.179   7.508
  416ETHY    C1  332  32.070  12.783   7.513
  417ETHY    C1  333  32.406  12.368   7.514
  418ETHY    C1  334  32.809  12.029   7.511
  419ETHY    C1  335  33.263  11.768   7.510
  420ETHY    C1  336  33.762  11.594   7.510
  421ETHY    C1  337  34.295  11.510   7.514
  422THSLK    S  338  31.694  13.274   8.064
  423ETHY    C1  339  31.871  12.909   8.270
  424ETHY    C1  340  32.142  12.537   8.540
  425ETHY    C1  341  32.469  12.248   8.834
  426ETHY    C1  342  32.838  12.040   9.142
  427ETHY    C1  343  33.240  11.922   9.462
  428ETHY    C1  344  33.669  11.897   9.789
  429AUSL   AUS  345  31.731  13.566   7.351
  430AUSL   AUS  346  31.473  13.219   7.238
  431AUL    AUL  347  31.851  13.239   7.199
  432THSLK    S  348  31.959  13.426   7.353
  433ETHY    C1  349  32.280  13.109   7.298
  434ETHY    C1  350  32.713  12.806   7.221
  435ETHY    C1  351  33.188  12.596   7.136
  436ETHY    C1  352  33.690  12.475   7.048
  437ETHY    C1  353  34.210  12.448   6.963
  438ETHY    C1  354  34.739  12.519   6.881
  439THSLK    S  355  31.589  13.030   7.108
  440ETHY    C1  356  31.673  12.601   6.984
  441ETHY    C1  357  31.848  12.129   6.803
  442ETHY    C1  358  32.101  11.718   6.593
  443ETHY    C1  359  32.419  11.370   6.366
  444ETHY    C1  360  32.801  11.095   6.126
  445ETHY    C1  361  33.239  10.898   5.880
  446AUSL   AUS  362  30.477  13.320   7.503
  447AUSL   AUS  363  30.547  13.465   7.086
  448AUL    AUL  364  30.263  13.239   7.199
  449THSLK    S  365  30.376  13.294   6.978
  450ETHY    C1  366  30.012  13.029   6.921
  451ETHY    C1  367  29.590  12.739   6.766
  452ETHY    C1  368  29.198  12.487   6.521
  453ETHY    C1  369  28.844  12.274   6.200
  454ETHY    C1  370  28.537  12.101   5.806
  455ETHY    C1  371  28.286  11.974   5.346
  456THSLK    S  372  30.211  13.268   7.508
  457ETHY    C1  373  29.757  13.246   7.513
  458ETHY    C1  374  29.235  13.132   7.514
  459ETHY    C1  375  28.753  12.923   7.511
  460ETHY    C1  376  28.316  12.633   7.510
  461ETHY    C1  377  27.937  12.266   7.510
  462ETHY    C1  378  27.624  11.826   7.514
  463AUSL   AUS  379  30.383  13.566   7.654
  464AUSL   AUS  380  30.641  13.219   7.767
  465AUL    AUL  381  30.263  13.239   7.806
  466THSLK    S  382  30.453  13.079   7.878
  467ETHY    C1  383  30.066  12.842   7.893
  468ETHY    C1  384  29.648  12.522   7.982
  469ETHY    C1  385  29.290  12.173   8.149
  470ETHY    C1  386  28.995  11.809   8.382
  471ETHY    C1  387  28.770  11.438   8.683
  472ETHY    C1  388  28.619  11.067   9.045
  473THSLK    S  389  30.127  13.503   7.616
  474ETHY    C1  390  29.691  13.493   7.491
  475ETHY    C1  391  29.165  13.434   7.419
  476ETHY    C1  392  28.650  13.327   7.436
  477ETHY    C1  393  28.156  13.181   7.535
  478ETHY    C1  394  27.696  12.999   7.718
  479ETHY    C1  395  27.277  12.786   7.983
  480AUSL   AUS  396  31.057  14.309   7.912
  481AUSL   AUS  397  30.641  14.240   7.767
  482AUL    AUL  398  30.754  14.524   7.993
  483THSLK    S  399  30.525  14.396   7.952
  484ETHY    C1  400  30.441  14.698   8.280
  485ETHY    C1  401  30.266  15.071   8.621
  486ETHY    C1  402  30.013  15.442   8.895
  487ETHY    C1  403  29.695  15.801   9.105
  488ETHY    C1  404  29.313  16.139   9.244
  489ETHY    C1  405  28.875  16.447   9.309
  490THSLK    S  406  31.099  14.531   8.035
  491ETHY    C1  407  31.283  14.806   8.347
  492ETHY    C1  408  31.433  15.186   8.691
  493ETHY    C1  409  31.499  15.609   8.998
  494ETHY    C1  410  31.486  16.060   9.264
  495ETHY    C1  411  31.389  16.529   9.485
  496ETHY    C1  412  31.209  17.008   9.656
  497AUSL   AUS  413  30.905  14.403   7.666
  498AUSL   AUS  414  31.209  14.403   7.339
  499AUL    AUL  415  31.057  14.711   7.503
  500THSLK    S  416  30.948  14.647   7.776
  501ETHY    C1  417  31.092  15.041   7.951
  502ETHY    C1  418  31.179  15.535   8.137
  503ETHY    C1  419  31.167  16.036   8.294
  504ETHY    C1  420  31.066  16.534   8.425
  505ETHY    C1  421  30.874  17.015   8.527
  506ETHY    C1  422  30.594  17.470   8.600
  507THSLK    S  423  31.264  14.634   7.243
  508ETHY    C1  424  31.540  14.964   7.096
  509ETHY    C1  425  31.790  15.405   6.927
  510ETHY    C1  426  31.946  15.882   6.771
  511ETHY    C1  427  32.015  16.384   6.635
  512ETHY    C1  428  31.991  16.900   6.525
  513ETHY    C1  429  31.874  17.420   6.443
  514AUSL   AUS  430  31.209  14.403   7.666
  515AUSL   AUS  431  31.322  14.146   8.013
  516AUL    AUL  432  31.360  14.524   7.993
  517THSLK    S  433  31.493  14.254   8.183
  518ETHY    C1  434  31.788  14.319   8.523
  519ETHY    C1  435  32.106  14.481   8.920
  520ETHY    C1  436  32.374  14.730   9.298
  521ETHY    C1  437  32.588  15.052   9.653
  522ETHY    C1  438  32.740  15.440   9.976
  523ETHY    C1  439  32.826  15.890  10.262
  524THSLK    S  440  31.262  14.632   7.772
  525ETHY    C1  441  31.534  14.960   7.929
  526ETHY    C1  442  31.784  15.400   8.100
  527ETHY    C1  443  31.942  15.879   8.251
  528ETHY    C1  444  32.011  16.381   8.383
  529ETHY    C1  445  31.987  16.896   8.494
  530ETHY    C1  446  31.868  17.415   8.585
  531AUSL   AUS  447  31.057  13.149   7.912
  532AUSL   AUS  448  31.473  13.219   7.767
  533AUL    AUL  449  31.360  12.935   7.993
  534THSLK    S  450  31.010  12.899   7.989
  535ETHY    C1  451  30.820  12.503   8.103
  536ETHY    C1  452  30.669  12.025   8.289
  537ETHY    C1  453  30.606  11.560   8.528
  538ETHY    C1  454  30.621  11.118   8.809
  539ETHY    C1  455  30.717  10.711   9.132
  540ETHY    C1  456  30.892  10.348   9.489
  541THSLK    S  457  31.585  13.032   7.907
  542ETHY    C1  458  31.664  12.604   8.040
  543ETHY    C1  459  31.839  12.134   8.222
  544ETHY    C1  460  32.093  11.722   8.428
  545ETHY    C1  461  32.413  11.373   8.652
  546ETHY    C1  462  32.794  11.098   8.893
  547ETHY    C1  463  33.229  10.902   9.147
  548AUSL   AUS  464  30.905  13.056   7.666
  549AUSL   AUS  465  30.792  13.313   8.013
  550AUL    AUL  466  30.754  12.935   7.993
  551THSLK    S  467  30.850  12.820   7.745
  552ETHY    C1  468  30.575  12.461   7.788
  553ETHY    C1  469  30.324  11.996   7.869
  554ETHY    C1  470  30.168  11.506   7.981
  555ETHY    C1  471  30.099  11.007   8.122
  556ETHY    C1  472  30.123  10.507   8.292
  557ETHY    C1  473  30.240  10.019   8.489
  558THSLK    S  474  30.614  13.147   8.129
  559ETHY    C1  475  30.312  12.829   8.248
  560ETHY    C1  476  29.993  12.462   8.471
  561ETHY    C1  477  29.728  12.125   8.776
  562ETHY    C1  478  29.516  11.823   9.147
  563ETHY    C1  479  29.363  11.565   9.582
  564ETHY    C1  480  29.272  11.358  10.072
  565AUSL   AUS  481  31.209  13.056   7.666
  566AUSL   AUS  482  30.905  13.056   7.339
  567AUL    AUL  483  31.057  12.748   7.503
  568THSLK    S  484  30.852  12.817   7.270
  569ETHY    C1  485  30.580  12.455   7.236
  570ETHY    C1  486  30.330  11.990   7.157
  571ETHY    C1  487  30.173  11.501   7.041
  572ETHY    C1  488  30.103  11.002   6.896
  573ETHY    C1  489  30.127  10.503   6.727
  574ETHY    C1  490  30.246  10.012   6.538
  575THSLK    S  491  31.163  12.804   7.749
  576ETHY    C1  492  31.016  12.378   7.811
  577ETHY    C1  493  30.930  11.860   7.906
  578ETHY    C1  494  30.942  11.347   8.025
  579ETHY    C1  495  31.044  10.852   8.165
  580ETHY    C1  496  31.236  10.387   8.325
  581ETHY    C1  497  31.514   9.961   8.504
  582AUSL   AUS  498  31.057  14.309   7.094
  583AUSL   AUS  499  31.473  14.240   7.238
  584AUL    AUL  500  31.360  14.524   7.012
  585THSLK    S  501  31.104  14.536   6.977
  586ETHY    C1  502  31.294  14.815   6.674
  587ETHY    C1  503  31.445  15.196   6.330
  588ETHY    C1  504  31.509  15.616   6.021
  589ETHY    C1  505  31.493  16.066   5.752
  590ETHY    C1  506  31.397  16.536   5.532
  591ETHY    C1  507  31.222  17.019   5.366
  592THSLK    S  508  31.661  14.356   7.089
  593ETHY    C1  509  32.048  14.476   6.883
  594ETHY    C1  510  32.466  14.699   6.637
  595ETHY    C1  511  32.824  15.003   6.400
  596ETHY    C1  512  33.119  15.375   6.178
  597ETHY    C1  513  33.344  15.810   5.981
  598ETHY    C1  514  33.495  16.299   5.811
  599AUSL   AUS  515  30.905  14.403   7.339
  600AUSL   AUS  516  30.792  14.146   6.992
  601AUL    AUL  517  30.754  14.524   7.012
  602THSLK    S  518  30.951  14.650   7.239
  603ETHY    C1  519  31.098  15.047   7.074
  604ETHY    C1  520  31.184  15.541   6.889
  605ETHY    C1  521  31.172  16.042   6.727
  606ETHY    C1  522  31.070  16.538   6.593
  607ETHY    C1  523  30.878  17.019   6.492
  608ETHY    C1  524  30.600  17.477   6.427
  609THSLK    S  525  30.682  14.278   6.805
  610ETHY    C1  526  30.646  14.427   6.377
  611ETHY    C1  527  30.536  14.653   5.906
  612ETHY    C1  528  30.358  14.928   5.494
  613ETHY    C1  529  30.124  15.241   5.145
  614ETHY    C1  530  29.838  15.590   4.870
  615ETHY    C1  531  29.507  15.968   4.675
  616AUSL   AUS  532  31.057  13.149   7.094
  617AUSL   AUS  533  30.641  13.219   7.238
  618AUL    AUL  534  30.754  12.935   7.012
  619THSLK    S  535  30.458  13.071   7.134
  620ETHY    C1  536  30.075  12.827   7.124
  621ETHY    C1  537  29.657  12.506   7.035
  622ETHY    C1  538  29.298  12.160   6.866
  623ETHY    C1  539  29.001  11.799   6.631
  624ETHY    C1  540  28.776  11.427   6.331
  625ETHY    C1  541  28.629  11.050   5.974
  626THSLK    S  542  31.015  12.894   7.024
  627ETHY    C1  543  30.831  12.493   6.917
  628ETHY    C1  544  30.681  12.015   6.732
  629ETHY    C1  545  30.615  11.552   6.491
  630ETHY    C1  546  30.628  11.112   6.206
  631ETHY    C1  547  30.725  10.705   5.885
  632ETHY    C1  548  30.905  10.337   5.533
  633AUSL   AUS  549  31.209  13.056   7.339
  634AUSL   AUS  550  31.322  13.313   6.992
  635AUL    AUL  551  31.360  12.935   7.012
  636THSLK    S  552  31.166  12.802   7.266
  637ETHY    C1  553  31.022  12.374   7.213
  638ETHY    C1  554  30.935  11.855   7.120
  639ETHY    C1  555  30.947  11.343   6.997
  640ETHY    C1  556  31.048  10.849   6.854
  641ETHY    C1  557  31.240  10.384   6.695
  642ETHY    C1  558  31.520   9.956   6.523
  643THSLK    S  559  31.439  13.123   6.859
  644ETHY    C1  560  31.483  12.721   6.651
  645ETHY    C1  561  31.593  12.290   6.355
  646ETHY    C1  562  31.769  11.927   6.017
  647ETHY    C1  563  32.000  11.633   5.651
  648ETHY    C1  564  32.286  11.416   5.264
  649ETHY    C1  565  32.623  11.280   4.865
  650AUC    AUC  566   2.625  -1.234   7.503
  651AUC    AUC  567   2.870  -1.234   7.351
  652AUC    AUC  568   2.870  -1.234   7.654
  653AUC    AUC  569   2.380  -1.234   7.351
  654AUC    AUC  570   2.380  -1.234   7.654
  655AUC    AUC  571   2.473  -0.988   7.503
  656AUC    AUC  572   2.777  -0.988   7.503
  657AUC    AUC  573   2.473  -1.479   7.503
  658AUC    AUC  574   2.777  -1.479   7.503
  659AUC    AUC  575   2.625  -1.385   7.748
  660AUC    AUC  576   2.625  -1.082   7.748
  661AUC    AUC  577   2.625  -1.385   7.257
  662AUC    AUC  578   2.625  -1.082   7.257
  663AUC    AUC  579   3.116  -1.234   7.199
  664AUC    AUC  580   3.116  -1.234   7.503
  665AUC    AUC  581   3.116  -1.234   7.806
  666AUC    AUC  582   2.134  -1.234   7.199
  667AUC    AUC  583   2.134  -1.234   7.503
  668AUC    AUC  584   2.134  -1.234   7.806
  669AUC    AUC  585   2.322  -0.743   7.503
  670AUC    AUC  586   2.625  -0.743   7.503
  671AUC    AUC  587   2.928  -0.743   7.503
  672AUC    AUC  588   2.322  -1.724   7.503
  673AUC    AUC  589   2.625  -1.724   7.503
  674AUC    AUC  590   2.928  -1.724   7.503
  675AUC    AUC  591   2.625  -1.537   7.993
  676AUC    AUC  592   2.625  -1.234   7.993
  677AUC    AUC  593   2.625  -0.930   7.993
  678AUC    AUC  594   2.625  -1.537   7.012
  679AUC    AUC  595   2.625  -1.234   7.012
  680AUC    AUC  596   2.625  -0.930   7.012
  681AUC    AUC  597   2.870  -1.385   7.900
  682AUC    AUC  598   2.870  -1.082   7.900
  683AUC    AUC  599   2.870  -1.385   7.106
  684AUC    AUC  600   2.870  -1.082   7.106
  685AUC    AUC  601   2.380  -1.385   7.900
  686AUC    AUC  602   2.380  -1.082   7.900
  687AUC    AUC  603   2.380  -1.385   7.106
  688AUC    AUC  604   2.380  -1.082   7.106
  689AUC    AUC  605   3.022  -0.988   7.351
  690AUC    AUC  606   3.022  -0.988   7.654
  691AUC    AUC  607   2.228  -0.988   7.351
  692AUC    AUC  608   2.228  -0.988   7.654
  693AUC    AUC  609   3.022  -1.479   7.351
  694AUC    AUC  610   3.022  -1.479   7.654
  695AUC    AUC  611   2.228  -1.479   7.351
  696AUC    AUC  612   2.228  -1.479   7.654
  697AUC    AUC  613   2.473  -0.836   7.748
  698AUC    AUC  614   2.777  -0.836   7.748
  699AUC    AUC  615   2.473  -1.631   7.748
  700AUC    AUC  616   2.777  -1.631   7.748
  701AUC    AUC  617   2.473  -0.836   7.257
  702AUC    AUC  618   2.777  -0.836   7.257
  703AUC    AUC  619   2.473  -1.631   7.257
  704AUC    AUC  620   2.777  -1.631   7.257
  705AUSL   AUS  621   3.034  -1.234   8.083
  706AUSL   AUS  622   2.890  -1.650   8.013
  707AUL    AUL  623   3.116  -1.537   8.297
  708THSLK    S  624   3.000  -1.837   8.153
  709ETHY    C1  625   3.036  -2.236   8.368
  710ETHY    C1  626   3.146  -2.666   8.665
  711ETHY    C1  627   3.324  -3.030   9.000
  712ETHY    C1  628   3.558  -3.326   9.364
  713ETHY    C1  629   3.844  -3.543   9.752
  714ETHY    C1  630   4.175  -3.676  10.156
  715THSLK    S  631   3.127  -1.286   8.324
  716ETHY    C1  632   3.331  -1.506   8.665
  717ETHY    C1  633   3.595  -1.683   9.094
  718ETHY    C1  634   3.871  -1.759   9.535
  719ETHY    C1  635   4.148  -1.742   9.980
  720ETHY    C1  636   4.418  -1.629  10.419
  721ETHY    C1  637   4.677  -1.420  10.845
  722AUSL   AUS  638   2.789  -1.385   8.176
  723AUSL   AUS  639   2.461  -1.082   8.176
  724AUL    AUL  640   2.625  -1.234   8.484
  725THSLK    S  641   2.864  -1.440   8.413
  726ETHY    C1  642   2.928  -1.720   8.765
  727ETHY    C1  643   3.031  -1.975   9.223
  728ETHY    C1  644   3.158  -2.134   9.708
  729ETHY    C1  645   3.300  -2.203  10.208
  730ETHY    C1  646   3.454  -2.175  10.713
  731ETHY    C1  647   3.614  -2.051  11.212
  732THSLK    S  648   2.376  -1.128   8.428
  733ETHY    C1  649   2.302  -1.278   8.850
  734ETHY    C1  650   2.197  -1.366   9.367
  735ETHY    C1  651   2.075  -1.354   9.878
  736ETHY    C1  652   1.937  -1.253  10.373
  737ETHY    C1  653   1.782  -1.060  10.840
  738ETHY    C1  654   1.613  -0.779  11.268
  739AUSL   AUS  655   2.789  -1.082   8.176
  740AUSL   AUS  656   3.135  -0.969   7.919
  741AUL    AUL  657   3.116  -0.930   8.297
  742THSLK    S  658   2.874  -1.026   8.410
  743ETHY    C1  659   2.948  -0.745   8.759
  744ETHY    C1  660   3.053  -0.490   9.217
  745ETHY    C1  661   3.175  -0.331   9.703
  746ETHY    C1  662   3.314  -0.262  10.204
  747ETHY    C1  663   3.468  -0.289  10.708
  748ETHY    C1  664   3.637  -0.413  11.206
  749THSLK    S  665   3.307  -0.871   8.080
  750ETHY    C1  666   3.670  -0.900   8.350
  751ETHY    C1  667   4.092  -0.844   8.673
  752ETHY    C1  668   4.484  -0.690   8.989
  753ETHY    C1  669   4.838  -0.452   9.293
  754ETHY    C1  670   5.145  -0.131   9.580
  755ETHY    C1  671   5.396   0.266   9.844
  756AUSL   AUS  672   3.034  -1.234   6.923
  757AUSL   AUS  673   2.890  -0.817   6.992
  758AUL    AUL  674   3.116  -0.930   6.708
  759THSLK    S  675   3.136  -1.286   6.687
  760ETHY    C1  676   3.349  -1.506   6.351
  761ETHY    C1  677   3.614  -1.683   5.923
  762ETHY    C1  678   3.886  -1.759   5.479
  763ETHY    C1  679   4.160  -1.742   5.033
  764ETHY    C1  680   4.431  -1.629   4.594
  765ETHY    C1  681   4.696  -1.420   4.173
  766THSLK    S  682   3.068  -0.706   6.829
  767ETHY    C1  683   3.370  -0.638   6.497
  768ETHY    C1  684   3.689  -0.475   6.100
  769ETHY    C1  685   3.954  -0.228   5.719
  770ETHY    C1  686   4.166   0.092   5.362
  771ETHY    C1  687   4.319   0.482   5.039
  772ETHY    C1  688   4.410   0.934   4.759
  773AUSL   AUS  689   2.789  -1.385   6.829
  774AUSL   AUS  690   3.135  -1.498   7.086
  775AUL    AUL  691   3.116  -1.537   6.708
  776THSLK    S  692   3.268  -1.690   6.949
  777ETHY    C1  693   3.451  -2.057   6.752
  778ETHY    C1  694   3.723  -2.429   6.483
  779ETHY    C1  695   4.048  -2.718   6.186
  780ETHY    C1  696   4.414  -2.925   5.874
  781ETHY    C1  697   4.818  -3.044   5.555
  782ETHY    C1  698   5.251  -3.069   5.235
  783THSLK    S  699   2.874  -1.441   6.596
  784ETHY    C1  700   2.948  -1.722   6.246
  785ETHY    C1  701   3.053  -1.978   5.788
  786ETHY    C1  702   3.175  -2.136   5.302
  787ETHY    C1  703   3.314  -2.205   4.801
  788ETHY    C1  704   3.468  -2.178   4.297
  789ETHY    C1  705   3.637  -2.054   3.799
  790AUSL   AUS  706   2.789  -1.082   6.829
  791AUSL   AUS  707   2.461  -1.385   6.829
  792AUL    AUL  708   2.625  -1.234   6.521
  793THSLK    S  709   2.369  -1.441   6.597
  794ETHY    C1  710   2.234  -1.719   6.264
  795ETHY    C1  711   2.073  -1.972   5.822
  796ETHY    C1  712   1.921  -2.129   5.343
  797ETHY    C1  713   1.785  -2.198   4.842
  798ETHY    C1  714   1.668  -2.172   4.328
  799ETHY    C1  715   1.575  -2.053   3.810
  800THSLK    S  716   2.891  -1.128   6.583
  801ETHY    C1  717   3.037  -1.278   6.179
  802ETHY    C1  718   3.199  -1.369   5.678
  803ETHY    C1  719   3.346  -1.359   5.173
  804ETHY    C1  720   3.479  -1.258   4.677
  805ETHY    C1  721   3.596  -1.063   4.200
  806ETHY    C1  722   3.697  -0.777   3.754
  807AUSL   AUS  723   2.216  -1.234   8.083
  808AUSL   AUS  724   2.360  -0.817   8.013
  809AUL    AUL  725   2.134  -0.930   8.297
  810THSLK    S  726   2.114  -1.286   8.319
  811ETHY    C1  727   1.902  -1.506   8.654
  812ETHY    C1  728   1.636  -1.683   9.082
  813ETHY    C1  729   1.364  -1.759   9.526
  814ETHY    C1  730   1.090  -1.742   9.973
  815ETHY    C1  731   0.819  -1.629  10.411
  816ETHY    C1  732   0.554  -1.420  10.832
  817THSLK    S  733   2.243  -0.693   8.202
  818ETHY    C1  734   2.200  -0.550   8.632
  819ETHY    C1  735   2.089  -0.325   9.104
  820ETHY    C1  736   1.913  -0.048   9.515
  821ETHY    C1  737   1.682   0.268   9.863
  822ETHY    C1  738   1.396   0.616  10.138
  823ETHY    C1  739   1.059   0.989  10.334
  824AUSL   AUS  740   2.461  -1.385   8.176
  825AUSL   AUS  741   2.115  -1.498   7.919
  826AUL    AUL  742   2.134  -1.537   8.297
  827THSLK    S  743   1.938  -1.661   8.026
  828ETHY    C1  744   1.567  -1.918   8.082
  829ETHY    C1  745   1.145  -2.206   8.237
  830ETHY    C1  746   0.755  -2.461   8.482
  831ETHY    C1  747   0.403  -2.678   8.803
  832ETHY    C1  748   0.097  -2.849   9.198
  833ETHY    C1  749  -0.160  -2.970   9.657
  834THSLK    S  750   2.359  -1.439   8.406
  835ETHY    C1  751   2.213  -1.715   8.736
  836ETHY    C1  752   2.051  -1.967   9.178
  837ETHY    C1  753   1.904  -2.125   9.658
  838ETHY    C1  754   1.771  -2.195  10.160
  839ETHY    C1  755   1.654  -2.169  10.674
  840ETHY    C1  756   1.553  -2.048  11.190
  841AUSL   AUS  757   2.216  -1.234   6.923
  842AUSL   AUS  758   2.360  -1.650   6.992
  843AUL    AUL  759   2.134  -1.537   6.708
  844THSLK    S  760   2.123  -1.286   6.681
  845ETHY    C1  761   1.919  -1.506   6.341
  846ETHY    C1  762   1.655  -1.683   5.911
  847ETHY    C1  763   1.379  -1.759   5.470
  848ETHY    C1  764   1.102  -1.742   5.025
  849ETHY    C1  765   0.832  -1.629   4.586
  850ETHY    C1  766   0.573  -1.420   4.161
  851THSLK    S  767   2.189  -1.823   6.878
  852ETHY    C1  768   1.894  -2.149   6.760
  853ETHY    C1  769   1.576  -2.516   6.538
  854ETHY    C1  770   1.308  -2.851   6.233
  855ETHY    C1  771   1.094  -3.151   5.861
  856ETHY    C1  772   0.942  -3.409   5.426
  857ETHY    C1  773   0.856  -3.621   4.937
  858AUSL   AUS  774   2.461  -1.082   6.829
  859AUSL   AUS  775   2.115  -0.969   7.086
  860AUL    AUL  776   2.134  -0.930   6.708
  861THSLK    S  777   1.988  -0.842   6.895
  862ETHY    C1  778   1.811  -0.761   6.484
  863ETHY    C1  779   1.540  -0.621   6.046
  864ETHY    C1  780   1.213  -0.433   5.679
  865ETHY    C1  781   0.844  -0.204   5.385
  866ETHY    C1  782   0.442   0.063   5.173
  867ETHY    C1  783   0.013   0.365   5.047
  868THSLK    S  784   2.386  -1.126   6.576
  869ETHY    C1  785   2.322  -1.273   6.150
  870ETHY    C1  786   2.219  -1.362   5.634
  871ETHY    C1  787   2.092  -1.351   5.123
  872ETHY    C1  788   1.950  -1.250   4.629
  873ETHY    C1  789   1.797  -1.057   4.162
  874ETHY    C1  790   1.636  -0.774   3.732
  875AUSL   AUS  791   3.205  -0.825   7.503
  876AUSL   AUS  792   3.135  -0.969   7.086
  877AUL    AUL  793   3.419  -0.743   7.199
  878THSLK    S  794   3.313  -0.870   6.934
  879ETHY    C1  795   3.683  -0.897   6.671
  880ETHY    C1  796   4.105  -0.841   6.349
  881ETHY    C1  797   4.495  -0.687   6.030
  882ETHY    C1  798   4.847  -0.450   5.724
  883ETHY    C1  799   5.154  -0.129   5.438
  884ETHY    C1  800   5.410   0.270   5.179
  885THSLK    S  801   3.471  -0.772   7.508
  886ETHY    C1  802   3.925  -0.750   7.513
  887ETHY    C1  803   4.447  -0.636   7.514
  888ETHY    C1  804   4.930  -0.427   7.511
  889ETHY    C1  805   5.366  -0.137   7.510
  890ETHY    C1  806   5.745   0.230   7.510
  891ETHY    C1  807   6.059   0.670   7.514
  892AUSL   AUS  808   3.299  -1.070   7.351
  893AUSL   AUS  809   3.299  -1.397   7.654
  894AUL    AUL  810   3.607  -1.234   7.503
  895THSLK    S  811   3.555  -1.031   7.350
  896ETHY    C1  812   3.991  -1.139   7.286
  897ETHY    C1  813   4.517  -1.177   7.201
  898ETHY    C1  814   5.032  -1.113   7.113
  899ETHY    C1  815   5.526  -0.959   7.026
  900ETHY    C1  816   5.986  -0.714   6.945
  901ETHY    C1  817   6.405  -0.382   6.873
  902THSLK    S  818   3.526  -1.537   7.663
  903ETHY    C1  819   3.845  -1.853   7.728
  904ETHY    C1  820   4.278  -2.157   7.807
  905ETHY    C1  821   4.753  -2.367   7.887
  906ETHY    C1  822   5.256  -2.488   7.971
  907ETHY    C1  823   5.776  -2.514   8.058
  908ETHY    C1  824   6.304  -2.444   8.147
  909AUSL   AUS  825   3.299  -1.070   7.654
  910AUSL   AUS  826   3.041  -0.723   7.767
  911AUL    AUL  827   3.419  -0.743   7.806
  912THSLK    S  828   3.224  -0.609   7.926
  913ETHY    C1  829   3.607  -0.491   8.140
  914ETHY    C1  830   4.025  -0.268   8.388
  915ETHY    C1  831   4.384   0.037   8.622
  916ETHY    C1  832   4.681   0.410   8.840
  917ETHY    C1  833   4.906   0.844   9.038
  918ETHY    C1  834   5.053   1.332   9.215
  919THSLK    S  835   3.553  -1.031   7.665
  920ETHY    C1  836   3.988  -1.139   7.740
  921ETHY    C1  837   4.514  -1.177   7.826
  922ETHY    C1  838   5.029  -1.114   7.910
  923ETHY    C1  839   5.523  -0.960   7.993
  924ETHY    C1  840   5.984  -0.715   8.075
  925ETHY    C1  841   6.401  -0.383   8.155
  926AUSL   AUS  842   2.045  -0.825   7.503
  927AUSL   AUS  843   2.115  -0.969   7.919
  928AUL    AUL  844   1.831  -0.743   7.806
  929THSLK    S  845   1.982  -0.850   8.109
  930ETHY    C1  846   1.799  -0.778   8.519
  931ETHY    C1  847   1.527  -0.638   8.957
  932ETHY    C1  848   1.202  -0.447   9.324
  933ETHY    C1  849   0.836  -0.216   9.619
  934ETHY    C1  850   0.433   0.051   9.831
  935ETHY    C1  851  -0.001   0.347   9.956
  936THSLK    S  852   1.834  -0.684   7.508
  937ETHY    C1  853   1.612  -0.287   7.513
  938ETHY    C1  854   1.276   0.128   7.514
  939ETHY    C1  855   0.873   0.467   7.511
  940ETHY    C1  856   0.419   0.728   7.510
  941ETHY    C1  857  -0.080   0.902   7.510
  942ETHY    C1  858  -0.613   0.986   7.514
  943AUSL   AUS  859   1.951  -1.070   7.351
  944AUSL   AUS  860   2.209  -0.723   7.238
  945AUL    AUL  861   1.831  -0.743   7.199
  946THSLK    S  862   1.724  -0.955   7.303
  947ETHY    C1  863   1.405  -0.755   7.049
  948ETHY    C1  864   0.972  -0.549   6.813
  949ETHY    C1  865   0.497  -0.383   6.661
  950ETHY    C1  866  -0.006  -0.254   6.590
  951ETHY    C1  867  -0.526  -0.164   6.605
  952ETHY    C1  868  -1.054  -0.116   6.708
  953THSLK    S  869   2.097  -0.560   7.060
  954ETHY    C1  870   2.018  -0.250   6.737
  955ETHY    C1  871   1.843   0.124   6.397
  956ETHY    C1  872   1.589   0.492   6.120
  957ETHY    C1  873   1.269   0.849   5.909
  958ETHY    C1  874   0.888   1.187   5.770
  959ETHY    C1  875   0.453   1.501   5.709
  960AUSL   AUS  876   1.951  -1.070   7.654
  961AUSL   AUS  877   1.951  -1.397   7.351
  962AUL    AUL  878   1.643  -1.234   7.503
  963THSLK    S  879   1.697  -1.470   7.394
  964ETHY    C1  880   1.262  -1.488   7.524
  965ETHY    C1  881   0.736  -1.548   7.597
  966ETHY    C1  882   0.221  -1.652   7.578
  967ETHY    C1  883  -0.273  -1.795   7.477
  968ETHY    C1  884  -0.733  -1.978   7.294
  969ETHY    C1  885  -1.151  -2.198   7.034
  970THSLK    S  886   1.723  -0.964   7.707
  971ETHY    C1  887   1.402  -0.773   7.966
  972ETHY    C1  888   0.969  -0.569   8.202
  973ETHY    C1  889   0.494  -0.398   8.352
  974ETHY    C1  890  -0.008  -0.266   8.422
  975ETHY    C1  891  -0.528  -0.178   8.407
  976ETHY    C1  892  -1.057  -0.137   8.308
  977AUSL   AUS  893   3.205  -1.643   7.503
  978AUSL   AUS  894   3.135  -1.498   7.919
  979AUL    AUL  895   3.419  -1.724   7.806
  980THSLK    S  896   3.416  -1.784   7.508
  981ETHY    C1  897   3.638  -2.180   7.513
  982ETHY    C1  898   3.974  -2.595   7.514
  983ETHY    C1  899   4.377  -2.934   7.511
  984ETHY    C1  900   4.831  -3.195   7.510
  985ETHY    C1  901   5.330  -3.369   7.510
  986ETHY    C1  902   5.863  -3.453   7.514
  987THSLK    S  903   3.262  -1.689   8.064
  988ETHY    C1  904   3.439  -2.054   8.270
  989ETHY    C1  905   3.710  -2.426   8.540
  990ETHY    C1  906   4.037  -2.715   8.834
  991ETHY    C1  907   4.406  -2.923   9.142
  992ETHY    C1  908   4.808  -3.041   9.462
  993ETHY    C1  909   5.237  -3.066   9.789
  994AUSL   AUS  910   3.299  -1.397   7.351
  995AUSL   AUS  911   3.041  -1.744   7.238
  996AUL    AUL  912   3.419  -1.724   7.199
  997THSLK    S  913   3.527  -1.537   7.353
  998ETHY    C1  914   3.848  -1.854   7.298
  999ETHY    C1  915   4.281  -2.157   7.221
 1000ETHY    C1  916   4.756  -2.367   7.136
 1001ETHY    C1  917   5.258  -2.488   7.048
 1002ETHY    C1  918   5.778  -2.515   6.963
 1003ETHY    C1  919   6.307  -2.444   6.881
 1004THSLK    S  920   3.157  -1.933   7.108
 1005ETHY    C1  921   3.241  -2.362   6.984
 1006ETHY    C1  922   3.416  -2.834   6.803
 1007ETHY    C1  923   3.669  -3.245   6.593
 1008ETHY    C1  924   3.987  -3.593   6.366
 1009ETHY    C1  925   4.369  -3.868   6.126
 1010ETHY    C1  926   4.807  -4.065   5.880
 1011AUSL   AUS  927   2.045  -1.643   7.503
 1012AUSL   AUS  928   2.115  -1.498   7.086
 1013AUL    AUL  929   1.831  -1.724   7.199
 1014THSLK    S  930   1.944  -1.669   6.978
 1015ETHY    C1  931   1.580  -1.934   6.921
 1016ETHY    C1  932   1.158  -2.224   6.766
 1017ETHY    C1  933   0.766  -2.476   6.521
 1018ETHY    C1  934   0.412  -2.689   6.200
 1019ETHY    C1  935   0.105  -2.862   5.806
 1020ETHY    C1  936  -0.146  -2.989   5.346
 1021THSLK    S  937   1.779  -1.695   7.508
 1022ETHY    C1  938   1.325  -1.717   7.513
 1023ETHY    C1  939   0.803  -1.831   7.514
 1024ETHY    C1  940   0.321  -2.040   7.511
 1025ETHY    C1  941  -0.116  -2.330   7.510
 1026ETHY    C1  942  -0.495  -2.697   7.510
 1027ETHY    C1  943  -0.808  -3.137   7.514
 1028AUSL   AUS  944   1.951  -1.397   7.654
 1029AUSL   AUS  945   2.209  -1.744   7.767
 1030AUL    AUL  946   1.831  -1.724   7.806
 1031THSLK    S  947   2.021  -1.884   7.878
 1032ETHY    C1  948   1.634  -2.121   7.893
 1033ETHY    C1  949   1.216  -2.441   7.982
 1034ETHY    C1  950   0.858  -2.790   8.149
 1035ETHY    C1  951   0.563  -3.154   8.382
 1036ETHY    C1  952   0.338  -3.525   8.683
 1037ETHY    C1  953   0.187  -3.896   9.045
 1038THSLK    S  954   1.695  -1.460   7.616
 1039ETHY    C1  955   1.259  -1.470   7.491
 1040ETHY    C1  956   0.733  -1.529   7.419
 1041ETHY    C1  957   0.218  -1.636   7.436
 1042ETHY    C1  958  -0.276  -1.782   7.535
 1043ETHY    C1  959  -0.736  -1.964   7.718
 1044ETHY    C1  960  -1.155  -2.177   7.983
 1045AUSL   AUS  961   2.625  -0.654   7.912
 1046AUSL   AUS  962   2.209  -0.723   7.767
 1047AUL    AUL  963   2.322  -0.439   7.993
 1048THSLK    S  964   2.093  -0.567   7.952
 1049ETHY    C1  965   2.009  -0.265   8.280
 1050ETHY    C1  966   1.834   0.108   8.621
 1051ETHY    C1  967   1.581   0.479   8.895
 1052ETHY    C1  968   1.263   0.838   9.105
 1053ETHY    C1  969   0.881   1.176   9.244
 1054ETHY    C1  970   0.443   1.484   9.309
 1055THSLK    S  971   2.667  -0.432   8.035
 1056ETHY    C1  972   2.851  -0.157   8.347
 1057ETHY    C1  973   3.001   0.223   8.691
 1058ETHY    C1  974   3.067   0.646   8.998
 1059ETHY    C1  975   3.054   1.097   9.264
 1060ETHY    C1  976   2.957   1.566   9.485
 1061ETHY    C1  977   2.777   2.045   9.656
 1062AUSL   AUS  978   2.473  -0.560   7.666
 1063AUSL   AUS  979   2.777  -0.560   7.339
 1064AUL    AUL  980   2.625  -0.252   7.503
 1065THSLK    S  981   2.516  -0.316   7.776
 1066ETHY    C1  982   2.660   0.078   7.951
 1067ETHY    C1  983   2.747   0.572   8.137
 1068ETHY    C1  984   2.735   1.073   8.294
 1069ETHY    C1  985   2.634   1.571   8.425
 1070ETHY    C1  986   2.442   2.052   8.527
 1071ETHY    C1  987   2.162   2.507   8.600
 1072THSLK    S  988   2.832  -0.329   7.243
 1073ETHY    C1  989   3.108   0.001   7.096
 1074ETHY    C1  990   3.358   0.442   6.927
 1075ETHY    C1  991   3.514   0.919   6.771
 1076ETHY    C1  992   3.583   1.421   6.635
 1077ETHY    C1  993   3.559   1.937   6.525
 1078ETHY    C1  994   3.442   2.457   6.443
 1079AUSL   AUS  995   2.777  -0.560   7.666
 1080AUSL   AUS  996   2.890  -0.817   8.013
 1081AUL    AUL  997   2.928  -0.439   7.993
 1082THSLK    S  998   3.061  -0.709   8.183
 1083ETHY    C1  999   3.356  -0.644   8.523
 1084ETHY    C1 1000   3.674  -0.482   8.920
 1085ETHY    C1 1001   3.942  -0.233   9.298
 1086ETHY    C1 1002   4.156   0.089   9.653
 1087ETHY    C1 1003   4.308   0.477   9.976
 1088ETHY    C1 1004   4.394   0.927  10.262
 1089THSLK    S 1005   2.830  -0.331   7.772
 1090ETHY    C1 1006   3.102  -0.003   7.929
 1091ETHY    C1 1007   3.352   0.437   8.100
 1092ETHY    C1 1008   3.510   0.916   8.251
 1093ETHY    C1 1009   3.579   1.418   8.383
 1094ETHY    C1 1010   3.555   1.933   8.494
 1095ETHY    C1 1011   3.436   2.452   8.585
 1096AUSL   AUS 1012   2.625  -1.814   7.912
 1097AUSL   AUS 1013   3.041  -1.744   7.767
 1098AUL    AUL 1014   2.928  -2.028   7.993
 1099THSLK    S 1015   2.578  -2.064   7.989
 1100ETHY    C1 1016   2.388  -2.460   8.103
 1101ETHY    C1 1017   2.237  -2.938   8.289
 1102ETHY    C1 1018   2.174  -3.403   8.528
 1103ETHY    C1 1019   2.189  -3.845   8.809
 1104ETHY    C1 1020   2.285  -4.252   9.132
 1105ETHY    C1 1021   2.460  -4.615   9.489
 1106THSLK    S 1022   3.153  -1.931   7.907
 1107ETHY    C1 1023   3.232  -2.359   8.040
 1108ETHY    C1 1024   3.407  -2.829   8.222
 1109ETHY    C1 1025   3.661  -3.241   8.428
 1110ETHY    C1 1026   3.981  -3.590   8.652
 1111ETHY    C1 1027   4.362  -3.865   8.893
 1112ETHY    C1 1028   4.797  -4.061   9.147
 1113AUSL   AUS 1029   2.473  -1.907   7.666
 1114AUSL   AUS 1030   2.360  -1.650   8.013
 1115AUL    AUL 1031   2.322  -2.028   7.993
 1116THSLK    S 1032   2.418  -2.143   7.745
 1117ETHY    C1 1033   2.143  -2.502   7.788
 1118ETHY    C1 1034   1.892  -2.967   7.869
 1119ETHY    C1 1035   1.736  -3.457   7.981
 1120ETHY    C1 1036   1.667  -3.956   8.122
 1121ETHY    C1 1037   1.691  -4.456   8.292
 1122ETHY    C1 1038   1.808  -4.944   8.489
 1123THSLK    S 1039   2.182  -1.816   8.129
 1124ETHY    C1 1040   1.880  -2.134   8.248
 1125ETHY    C1 1041   1.561  -2.501   8.471
 1126ETHY    C1 1042   1.296  -2.838   8.776
 1127ETHY    C1 1043   1.084  -3.140   9.147
 1128ETHY    C1 1044   0.931  -3.398   9.582
 1129ETHY    C1 1045   0.840  -3.605  10.072
 1130AUSL   AUS 1046   2.777  -1.907   7.666
 1131AUSL   AUS 1047   2.473  -1.907   7.339
 1132AUL    AUL 1048   2.625  -2.215   7.503
 1133THSLK    S 1049   2.420  -2.146   7.270
 1134ETHY    C1 1050   2.148  -2.508   7.236
 1135ETHY    C1 1051   1.898  -2.973   7.157
 1136ETHY    C1 1052   1.741  -3.462   7.041
 1137ETHY    C1 1053   1.671  -3.961   6.896
 1138ETHY    C1 1054   1.695  -4.460   6.727
 1139ETHY    C1 1055   1.814  -4.951   6.538
 1140THSLK    S 1056   2.731  -2.159   7.749
 1141ETHY    C1 1057   2.584  -2.585   7.811
 1142ETHY    C1 1058   2.498  -3.103   7.906
 1143ETHY    C1 1059   2.510  -3.616   8.025
 1144ETHY    C1 1060   2.612  -4.111   8.165
 1145ETHY    C1 1061   2.804  -4.576   8.325
 1146ETHY    C1 1062   3.082  -5.002   8.504
 1147AUSL   AUS 1063   2.625  -0.654   7.094
 1148AUSL   AUS 1064   3.041  -0.723   7.238
 1149AUL    AUL 1065   2.928  -0.439   7.012
 1150THSLK    S 1066   2.672  -0.427   6.977
 1151ETHY    C1 1067   2.862  -0.148   6.674
 1152ETHY    C1 1068   3.013   0.233   6.330
 1153ETHY    C1 1069   3.077   0.653   6.021
 1154ETHY    C1 1070   3.061   1.103   5.752
 1155ETHY    C1 1071   2.965   1.573   5.532
 1156ETHY    C1 1072   2.790   2.056   5.366
 1157THSLK    S 1073   3.229  -0.607   7.089
 1158ETHY    C1 1074   3.616  -0.487   6.883
 1159ETHY    C1 1075   4.034  -0.264   6.637
 1160ETHY    C1 1076   4.392   0.040   6.400
 1161ETHY    C1 1077   4.687   0.412   6.178
 1162ETHY    C1 1078   4.912   0.847   5.981
 1163ETHY    C1 1079   5.063   1.336   5.811
 1164AUSL   AUS 1080   2.473  -0.560   7.339
 1165AUSL   AUS 1081   2.360  -0.817   6.992
 1166AUL    AUL 1082   2.322  -0.439   7.012
 1167THSLK    S 1083   2.519  -0.313   7.239
 1168ETHY    C1 1084   2.666   0.084   7.074
 1169ETHY    C1 1085   2.752   0.578   6.889
 1170ETHY    C1 1086   2.740   1.079   6.727
 1171ETHY    C1 1087   2.638   1.575   6.593
 1172ETHY    C1 1088   2.446   2.056   6.492
 1173ETHY    C1 1089   2.168   2.514   6.427
 1174THSLK    S 1090   2.250  -0.685   6.805
 1175ETHY    C1 1091   2.214  -0.536   6.377
 1176ETHY    C1 1092   2.104  -0.310   5.906
 1177ETHY    C1 1093   1.926  -0.035   5.494
 1178ETHY    C1 1094   1.692   0.278   5.145
 1179ETHY    C1 1095   1.406   0.627   4.870
 1180ETHY    C1 1096   1.075   1.005   4.675
 1181AUSL   AUS 1097   2.625  -1.814   7.094
 1182AUSL   AUS 1098   2.209  -1.744   7.238
 1183AUL    AUL 1099   2.322  -2.028   7.012
 1184THSLK    S 1100   2.026  -1.892   7.134
 1185ETHY    C1 1101   1.643  -2.136   7.124
 1186ETHY    C1 1102   1.225  -2.457   7.035
 1187ETHY    C1 1103   0.866  -2.803   6.866
 1188ETHY    C1 1104   0.569  -3.164   6.631
 1189ETHY    C1 1105   0.344  -3.536   6.331
 1190ETHY    C1 1106   0.197  -3.913   5.974
 1191THSLK    S 1107   2.583  -2.069   7.024
 1192ETHY    C1 1108   2.399  -2.470   6.917
 1193ETHY    C1 1109   2.249  -2.948   6.732
 1194ETHY    C1 1110   2.183  -3.411   6.491
 1195ETHY    C1 1111   2.196  -3.851   6.206
 1196ETHY    C1 1112   2.293  -4.258   5.885
 1197ETHY    C1 1113   2.473  -4.626   5.533
 1198AUSL   AUS 1114   2.777  -1.907   7.339
 1199AUSL   AUS 1115   2.890  -1.650   6.992
 1200AUL    AUL 1116   2.928  -2.028   7.012
 1201THSLK    S 1117   2.734  -2.161   7.266
 1202ETHY    C1 1118   2.590  -2.589   7.213
 1203ETHY    C1 1119   2.503  -3.108   7.120
 1204ETHY    C1 1120   2.515  -3.620   6.997
 1205ETHY    C1 1121   2.616  -4.114   6.854
 1206ETHY    C1 1122   2.808  -4.579   6.695
 1207ETHY    C1 1123   3.088  -5.007   6.523
 1208THSLK    S 1124   3.007  -1.840   6.859
 1209ETHY    C1 1125   3.051  -2.242   6.651
 1210ETHY    C1 1126   3.161  -2.673   6.355
 1211ETHY    C1 1127   3.337  -3.036   6.017
 1212ETHY    C1 1128   3.568  -3.330   5.651
 1213ETHY    C1 1129   3.854  -3.547   5.264
 1214ETHY    C1 1130   4.191  -3.683   4.865
 1215AUC    AUC 1131  31.586  37.355   7.503
 1216AUC    AUC 1132  31.831  37.355   7.351
 1217AUC    AUC 1133  31.831  37.355   7.654
 1218AUC    AUC 1134  31.341  37.355   7.351
 1219AUC    AUC 1135  31.341  37.355   7.654
 1220AUC    AUC 1136  31.434  37.601   7.503
 1221AUC    AUC 1137  31.738  37.601   7.503
 1222AUC    AUC 1138  31.434  37.110   7.503
 1223AUC    AUC 1139  31.738  37.110   7.503
 1224AUC    AUC 1140  31.586  37.204   7.748
 1225AUC    AUC 1141  31.586  37.507   7.748
 1226AUC    AUC 1142  31.586  37.204   7.257
 1227AUC    AUC 1143  31.586  37.507   7.257
 1228AUC    AUC 1144  32.077  37.355   7.199
 1229AUC    AUC 1145  32.077  37.355   7.503
 1230AUC    AUC 1146  32.077  37.355   7.806
 1231AUC    AUC 1147  31.095  37.355   7.199
 1232AUC    AUC 1148  31.095  37.355   7.503
 1233AUC    AUC 1149  31.095  37.355   7.806
 1234AUC    AUC 1150  31.283  37.846   7.503
 1235AUC    AUC 1151  31.586  37.846   7.503
 1236AUC    AUC 1152  31.889  37.846   7.503
 1237AUC    AUC 1153  31.283  36.865   7.503
 1238AUC    AUC 1154  31.586  36.865   7.503
 1239AUC    AUC 1155  31.889  36.865   7.503
 1240AUC    AUC 1156  31.586  37.052   7.993
 1241AUC    AUC 1157  31.586  37.355   7.993
 1242AUC    AUC 1158  31.586  37.659   7.993
 1243AUC    AUC 1159  31.586  37.052   7.012
 1244AUC    AUC 1160  31.586  37.355   7.012
 1245AUC    AUC 1161  31.586  37.659   7.012
 1246AUC    AUC 1162  31.831  37.204   7.900
 1247AUC    AUC 1163  31.831  37.507   7.900
 1248AUC    AUC 1164  31.831  37.204   7.106
 1249AUC    AUC 1165  31.831  37.507   7.106
 1250AUC    AUC 1166  31.341  37.204   7.900
 1251AUC    AUC 1167  31.341  37.507   7.900
 1252AUC    AUC 1168  31.341  37.204   7.106
 1253AUC    AUC 1169  31.341  37.507   7.106
 1254AUC    AUC 1170  31.983  37.601   7.351
 1255AUC    AUC 1171  31.983  37.601   7.654
 1256AUC    AUC 1172  31.189  37.601   7.351
 1257AUC    AUC 1173  31.189  37.601   7.654
 1258AUC    AUC 1174  31.983  37.110   7.351
 1259AUC    AUC 1175  31.983  37.110   7.654
 1260AUC    AUC 1176  31.189  37.110   7.351
 1261AUC    AUC 1177  31.189  37.110   7.654
 1262AUC    AUC 1178  31.434  37.753   7.748
 1263AUC    AUC 1179  31.738  37.753   7.748
 1264AUC    AUC 1180  31.434  36.958   7.748
 1265AUC    AUC 1181  31.738  36.958   7.748
 1266AUC    AUC 1182  31.434  37.753   7.257
 1267AUC    AUC 1183  31.738  37.753   7.257
 1268AUC    AUC 1184  31.434  36.958   7.257
 1269AUC    AUC 1185  31.738  36.958   7.257
 1270AUSL   AUS 1186  31.995  37.355   8.083
 1271AUSL   AUS 1187  31.851  36.939   8.013
 1272AUL    AUL 1188  32.077  37.052   8.297
 1273THSLK    S 1189  31.961  36.752   8.153
 1274ETHY    C1 1190  31.997  36.353   8.368
 1275ETHY    C1 1191  32.107  35.923   8.665
 1276ETHY    C1 1192  32.285  35.559   9.000
 1277ETHY    C1 1193  32.519  35.263   9.364
 1278ETHY    C1 1194  32.805  35.046   9.752
 1279ETHY    C1 1195  33.136  34.913  10.156
 1280THSLK    S 1196  32.088  37.303   8.324
 1281ETHY    C1 1197  32.292  37.083   8.665
 1282ETHY    C1 1198  32.556  36.906   9.094
 1283ETHY    C1 1199  32.832  36.830   9.535
 1284ETHY    C1 1200  33.109  36.847   9.980
 1285ETHY    C1 1201  33.379  36.960  10.419
 1286ETHY    C1 1202  33.638  37.169  10.845
 1287AUSL   AUS 1203  31.750  37.204   8.176
 1288AUSL   AUS 1204  31.422  37.507   8.176
 1289AUL    AUL 1205  31.586  37.355   8.484
 1290THSLK    S 1206  31.825  37.149   8.413
 1291ETHY    C1 1207  31.889  36.869   8.765
 1292ETHY    C1 1208  31.992  36.614   9.223
 1293ETHY    C1 1209  32.119  36.455   9.708
 1294ETHY    C1 1210  32.261  36.386  10.208
 1295ETHY    C1 1211  32.415  36.414  10.713
 1296ETHY    C1 1212  32.575  36.538  11.212
 1297THSLK    S 1213  31.337  37.461   8.428
 1298ETHY    C1 1214  31.263  37.311   8.850
 1299ETHY    C1 1215  31.158  37.223   9.367
 1300ETHY    C1 1216  31.036  37.235   9.878
 1301ETHY    C1 1217  30.898  37.336  10.373
 1302ETHY    C1 1218  30.743  37.529  10.840
 1303ETHY    C1 1219  30.574  37.810  11.268
 1304AUSL   AUS 1220  31.750  37.507   8.176
 1305AUSL   AUS 1221  32.096  37.620   7.919
 1306AUL    AUL 1222  32.077  37.659   8.297
 1307THSLK    S 1223  31.835  37.563   8.410
 1308ETHY    C1 1224  31.909  37.844   8.759
 1309ETHY    C1 1225  32.014  38.099   9.217
 1310ETHY    C1 1226  32.136  38.258   9.703
 1311ETHY    C1 1227  32.275  38.327  10.204
 1312ETHY    C1 1228  32.429  38.300  10.708
 1313ETHY    C1 1229  32.598  38.176  11.206
 1314THSLK    S 1230  32.268  37.718   8.080
 1315ETHY    C1 1231  32.631  37.689   8.350
 1316ETHY    C1 1232  33.053  37.745   8.673
 1317ETHY    C1 1233  33.445  37.899   8.989
 1318ETHY    C1 1234  33.799  38.137   9.293
 1319ETHY    C1 1235  34.106  38.458   9.580
 1320ETHY    C1 1236  34.357  38.855   9.844
 1321AUSL   AUS 1237  31.995  37.355   6.923
 1322AUSL   AUS 1238  31.851  37.772   6.992
 1323AUL    AUL 1239  32.077  37.659   6.708
 1324THSLK    S 1240  32.097  37.303   6.687
 1325ETHY    C1 1241  32.310  37.083   6.351
 1326ETHY    C1 1242  32.575  36.906   5.923
 1327ETHY    C1 1243  32.847  36.830   5.479
 1328ETHY    C1 1244  33.121  36.847   5.033
 1329ETHY    C1 1245  33.392  36.960   4.594
 1330ETHY    C1 1246  33.657  37.169   4.173
 1331THSLK    S 1247  32.029  37.883   6.829
 1332ETHY    C1 1248  32.331  37.951   6.497
 1333ETHY    C1 1249  32.650  38.114   6.100
 1334ETHY    C1 1250  32.915  38.361   5.719
 1335ETHY    C1 1251  33.127  38.681   5.362
 1336ETHY    C1 1252  33.280  39.071   5.039
 1337ETHY    C1 1253  33.371  39.523   4.759
 1338AUSL   AUS 1254  31.750  37.204   6.829
 1339AUSL   AUS 1255  32.096  37.091   7.086
 1340AUL    AUL 1256  32.077  37.052   6.708
 1341THSLK    S 1257  32.229  36.899   6.949
 1342ETHY    C1 1258  32.412  36.532   6.752
 1343ETHY    C1 1259  32.684  36.160   6.483
 1344ETHY    C1 1260  33.009  35.871   6.186
 1345ETHY    C1 1261  33.375  35.664   5.874
 1346ETHY    C1 1262  33.779  35.545   5.555
 1347ETHY    C1 1263  34.212  35.520   5.235
 1348THSLK    S 1264  31.835  37.148   6.596
 1349ETHY    C1 1265  31.909  36.867   6.246
 1350ETHY    C1 1266  32.014  36.611   5.788
 1351ETHY    C1 1267  32.136  36.453   5.302
 1352ETHY    C1 1268  32.275  36.384   4.801
 1353ETHY    C1 1269  32.429  36.411   4.297
 1354ETHY    C1 1270  32.598  36.535   3.799
 1355AUSL   AUS 1271  31.750  37.507   6.829
 1356AUSL   AUS 1272  31.422  37.204   6.829
 1357AUL    AUL 1273  31.586  37.355   6.521
 1358THSLK    S 1274  31.330  37.148   6.597
 1359ETHY    C1 1275  31.195  36.870   6.264
 1360ETHY    C1 1276  31.034  36.617   5.822
 1361ETHY    C1 1277  30.882  36.460   5.343
 1362ETHY    C1 1278  30.746  36.391   4.842
 1363ETHY    C1 1279  30.629  36.417   4.328
 1364ETHY    C1 1280  30.536  36.536   3.810
 1365THSLK    S 1281  31.852  37.461   6.583
 1366ETHY    C1 1282  31.998  37.311   6.179
 1367ETHY    C1 1283  32.160  37.220   5.678
 1368ETHY    C1 1284  32.307  37.230   5.173
 1369ETHY    C1 1285  32.440  37.331   4.677
 1370ETHY    C1 1286  32.557  37.526   4.200
 1371ETHY    C1 1287  32.658  37.812   3.754
 1372AUSL   AUS 1288  31.177  37.355   8.083
 1373AUSL   AUS 1289  31.321  37.772   8.013
 1374AUL    AUL 1290  31.095  37.659   8.297
 1375THSLK    S 1291  31.075  37.303   8.319
 1376ETHY    C1 1292  30.863  37.083   8.654
 1377ETHY    C1 1293  30.597  36.906   9.082
 1378ETHY    C1 1294  30.325  36.830   9.526
 1379ETHY    C1 1295  30.051  36.847   9.973
 1380ETHY    C1 1296  29.780  36.960  10.411
 1381ETHY    C1 1297  29.515  37.169  10.832
 1382THSLK    S 1298  31.204  37.896   8.202
 1383ETHY    C1 1299  31.161  38.039   8.632
 1384ETHY    C1 1300  31.050  38.264   9.104
 1385ETHY    C1 1301  30.874  38.541   9.515
 1386ETHY    C1 1302  30.643  38.857   9.863
 1387ETHY    C1 1303  30.357  39.205  10.138
 1388ETHY    C1 1304  30.020  39.578  10.334
 1389AUSL   AUS 1305  31.422  37.204   8.176
 1390AUSL   AUS 1306  31.076  37.091   7.919
 1391AUL    AUL 1307  31.095  37.052   8.297
 1392THSLK    S 1308  30.899  36.928   8.026
 1393ETHY    C1 1309  30.528  36.671   8.082
 1394ETHY    C1 1310  30.106  36.383   8.237
 1395ETHY    C1 1311  29.716  36.128   8.482
 1396ETHY    C1 1312  29.364  35.911   8.803
 1397ETHY    C1 1313  29.058  35.740   9.198
 1398ETHY    C1 1314  28.801  35.619   9.657
 1399THSLK    S 1315  31.320  37.150   8.406
 1400ETHY    C1 1316  31.174  36.874   8.736
 1401ETHY    C1 1317  31.012  36.622   9.178
 1402ETHY    C1 1318  30.865  36.464   9.658
 1403ETHY    C1 1319  30.732  36.394  10.160
 1404ETHY    C1 1320  30.615  36.420  10.674
 1405ETHY    C1 1321  30.514  36.541  11.190
 1406AUSL   AUS 1322  31.177  37.355   6.923
 1407AUSL   AUS 1323  31.321  36.939   6.992
 1408AUL    AUL 1324  31.095  37.052   6.708
 1409THSLK    S 1325  31.084  37.303   6.681
 1410ETHY    C1 1326  30.880  37.083   6.341
 1411ETHY    C1 1327  30.616  36.906   5.911
 1412ETHY    C1 1328  30.340  36.830   5.470
 1413ETHY    C1 1329  30.063  36.847   5.025
 1414ETHY    C1 1330  29.793  36.960   4.586
 1415ETHY    C1 1331  29.534  37.169   4.161
 1416THSLK    S 1332  31.150  36.766   6.878
 1417ETHY    C1 1333  30.855  36.440   6.760
 1418ETHY    C1 1334  30.537  36.073   6.538
 1419ETHY    C1 1335  30.269  35.738   6.233
 1420ETHY    C1 1336  30.055  35.438   5.861
 1421ETHY    C1 1337  29.903  35.180   5.426
 1422ETHY    C1 1338  29.817  34.968   4.937
 1423AUSL   AUS 1339  31.422  37.507   6.829
 1424AUSL   AUS 1340  31.076  37.620   7.086
 1425AUL    AUL 1341  31.095  37.659   6.708
 1426THSLK    S 1342  30.949  37.747   6.895
 1427ETHY    C1 1343  30.772  37.828   6.484
 1428ETHY    C1 1344  30.501  37.968   6.046
 1429ETHY    C1 1345  30.174  38.156   5.679
 1430ETHY    C1 1346  29.805  38.385   5.385
 1431ETHY    C1 1347  29.403  38.652   5.173
 1432ETHY    C1 1348  28.974  38.954   5.047
 1433THSLK    S 1349  31.347  37.463   6.576
 1434ETHY    C1 1350  31.283  37.316   6.150
 1435ETHY    C1 1351  31.180  37.227   5.634
 1436ETHY    C1 1352  31.053  37.238   5.123
 1437ETHY    C1 1353  30.911  37.339   4.629
 1438ETHY    C1 1354  30.758  37.532   4.162
 1439ETHY    C1 1355  30.597  37.815   3.732
 1440AUSL   AUS 1356  32.166  37.764   7.503
 1441AUSL   AUS 1357  32.096  37.620   7.086
 1442AUL    AUL 1358  32.380  37.846   7.199
 1443THSLK    S 1359  32.274  37.719   6.934
 1444ETHY    C1 1360  32.644  37.692   6.671
 1445ETHY    C1 1361  33.066  37.748   6.349
 1446ETHY    C1 1362  33.456  37.902   6.030
 1447ETHY    C1 1363  33.808  38.139   5.724
 1448ETHY    C1 1364  34.115  38.460   5.438
 1449ETHY    C1 1365  34.371  38.859   5.179
 1450THSLK    S 1366  32.432  37.817   7.508
 1451ETHY    C1 1367  32.886  37.839   7.513
 1452ETHY    C1 1368  33.408  37.953   7.514
 1453ETHY    C1 1369  33.891  38.162   7.511
 1454ETHY    C1 1370  34.327  38.452   7.510
 1455ETHY    C1 1371  34.706  38.819   7.510
 1456ETHY    C1 1372  35.020  39.259   7.514
 1457AUSL   AUS 1373  32.260  37.519   7.351
 1458AUSL   AUS 1374  32.260  37.192   7.654
 1459AUL    AUL 1375  32.568  37.355   7.503
 1460THSLK    S 1376  32.516  37.558   7.350
 1461ETHY    C1 1377  32.952  37.450   7.286
 1462ETHY    C1 1378  33.478  37.412   7.201
 1463ETHY    C1 1379  33.993  37.476   7.113
 1464ETHY    C1 1380  34.487  37.630   7.026
 1465ETHY    C1 1381  34.947  37.875   6.945
 1466ETHY    C1 1382  35.366  38.207   6.873
 1467THSLK    S 1383  32.487  37.052   7.663
 1468ETHY    C1 1384  32.806  36.736   7.728
 1469ETHY    C1 1385  33.239  36.432   7.807
 1470ETHY    C1 1386  33.714  36.222   7.887
 1471ETHY    C1 1387  34.217  36.101   7.971
 1472ETHY    C1 1388  34.737  36.075   8.058
 1473ETHY    C1 1389  35.265  36.145   8.147
 1474AUSL   AUS 1390  32.260  37.519   7.654
 1475AUSL   AUS 1391  32.002  37.866   7.767
 1476AUL    AUL 1392  32.380  37.846   7.806
 1477THSLK    S 1393  32.185  37.980   7.926
 1478ETHY    C1 1394  32.568  38.098   8.140
 1479ETHY    C1 1395  32.986  38.321   8.388
 1480ETHY    C1 1396  33.345  38.626   8.622
 1481ETHY    C1 1397  33.642  38.999   8.840
 1482ETHY    C1 1398  33.867  39.433   9.038
 1483ETHY    C1 1399  34.014  39.921   9.215
 1484THSLK    S 1400  32.514  37.558   7.665
 1485ETHY    C1 1401  32.949  37.450   7.740
 1486ETHY    C1 1402  33.475  37.412   7.826
 1487ETHY    C1 1403  33.990  37.475   7.910
 1488ETHY    C1 1404  34.484  37.629   7.993
 1489ETHY    C1 1405  34.945  37.874   8.075
 1490ETHY    C1 1406  35.362  38.206   8.155
 1491AUSL   AUS 1407  31.006  37.764   7.503
 1492AUSL   AUS 1408  31.076  37.620   7.919
 1493AUL    AUL 1409  30.792  37.846   7.806
 1494THSLK    S 1410  30.943  37.739   8.109
 1495ETHY    C1 1411  30.760  37.811   8.519
 1496ETHY    C1 1412  30.488  37.951   8.957
 1497ETHY    C1 1413  30.163  38.142   9.324
 1498ETHY    C1 1414  29.797  38.373   9.619
 1499ETHY    C1 1415  29.394  38.640   9.831
 1500ETHY    C1 1416  28.960  38.936   9.956
 1501THSLK    S 1417  30.795  37.905   7.508
 1502ETHY    C1 1418  30.573  38.302   7.513
 1503ETHY    C1 1419  30.237  38.717   7.514
 1504ETHY    C1 1420  29.834  39.056   7.511
 1505ETHY    C1 1421  29.380  39.317   7.510
 1506ETHY    C1 1422  28.881  39.491   7.510
 1507ETHY    C1 1423  28.348  39.575   7.514
 1508AUSL   AUS 1424  30.912  37.519   7.351
 1509AUSL   AUS 1425  31.170  37.866   7.238
 1510AUL    AUL 1426  30.792  37.846   7.199
 1511THSLK    S 1427  30.685  37.634   7.303
 1512ETHY    C1 1428  30.366  37.834   7.049
 1513ETHY    C1 1429  29.933  38.040   6.813
 1514ETHY    C1 1430  29.458  38.206   6.661
 1515ETHY    C1 1431  28.955  38.335   6.590
 1516ETHY    C1 1432  28.435  38.425   6.605
 1517ETHY    C1 1433  27.907  38.473   6.708
 1518THSLK    S 1434  31.058  38.029   7.060
 1519ETHY    C1 1435  30.979  38.339   6.737
 1520ETHY    C1 1436  30.804  38.713   6.397
 1521ETHY    C1 1437  30.550  39.081   6.120
 1522ETHY    C1 1438  30.230  39.438   5.909
 1523ETHY    C1 1439  29.849  39.776   5.770
 1524ETHY    C1 1440  29.414  40.090   5.709
 1525AUSL   AUS 1441  30.912  37.519   7.654
 1526AUSL   AUS 1442  30.912  37.192   7.351
 1527AUL    AUL 1443  30.604  37.355   7.503
 1528THSLK    S 1444  30.658  37.119   7.394
 1529ETHY    C1 1445  30.223  37.101   7.524
 1530ETHY    C1 1446  29.697  37.041   7.597
 1531ETHY    C1 1447  29.182  36.937   7.578
 1532ETHY    C1 1448  28.688  36.794   7.477
 1533ETHY    C1 1449  28.228  36.611   7.294
 1534ETHY    C1 1450  27.810  36.391   7.034
 1535THSLK    S 1451  30.684  37.625   7.707
 1536ETHY    C1 1452  30.363  37.816   7.966
 1537ETHY    C1 1453  29.930  38.020   8.202
 1538ETHY    C1 1454  29.455  38.191   8.352
 1539ETHY    C1 1455  28.953  38.323   8.422
 1540ETHY    C1 1456  28.433  38.411   8.407
 1541ETHY    C1 1457  27.904  38.452   8.308
 1542AUSL   AUS 1458  32.166  36.946   7.503
 1543AUSL   AUS 1459  32.096  37.091   7.919
 1544AUL    AUL 1460  32.380  36.865   7.806
 1545THSLK    S 1461  32.377  36.805   7.508
 1546ETHY    C1 1462  32.599  36.409   7.513
 1547ETHY    C1 1463  32.935  35.994   7.514
 1548ETHY    C1 1464  33.338  35.655   7.511
 1549ETHY    C1 1465  33.792  35.394   7.510
 1550ETHY    C1 1466  34.291  35.220   7.510
 1551ETHY    C1 1467  34.824  35.136   7.514
 1552THSLK    S 1468  32.223  36.900   8.064
 1553ETHY    C1 1469  32.400  36.535   8.270
 1554ETHY    C1 1470  32.671  36.163   8.540
 1555ETHY    C1 1471  32.998  35.874   8.834
 1556ETHY    C1 1472  33.367  35.666   9.142
 1557ETHY    C1 1473  33.769  35.548   9.462
 1558ETHY    C1 1474  34.198  35.523   9.789
 1559AUSL   AUS 1475  32.260  37.192   7.351
 1560AUSL   AUS 1476  32.002  36.845   7.238
 1561AUL    AUL 1477  32.380  36.865   7.199
 1562THSLK    S 1478  32.488  37.052   7.353
 1563ETHY    C1 1479  32.809  36.735   7.298
 1564ETHY    C1 1480  33.242  36.432   7.221
 1565ETHY    C1 1481  33.717  36.222   7.136
 1566ETHY    C1 1482  34.219  36.101   7.048
 1567ETHY    C1 1483  34.739  36.074   6.963
 1568ETHY    C1 1484  35.268  36.145   6.881
 1569THSLK    S 1485  32.118  36.656   7.108
 1570ETHY    C1 1486  32.202  36.227   6.984
 1571ETHY    C1 1487  32.377  35.755   6.803
 1572ETHY    C1 1488  32.630  35.344   6.593
 1573ETHY    C1 1489  32.948  34.996   6.366
 1574ETHY    C1 1490  33.330  34.721   6.126
 1575ETHY    C1 1491  33.768  34.524   5.880
 1576AUSL   AUS 1492  31.006  36.946   7.503
 1577AUSL   AUS 1493  31.076  37.091   7.086
 1578AUL    AUL 1494  30.792  36.865   7.199
 1579THSLK    S 1495  30.905  36.920   6.978
 1580ETHY    C1 1496  30.541  36.655   6.921
 1581ETHY    C1 1497  30.119  36.365   6.766
 1582ETHY    C1 1498  29.727  36.113   6.521
 1583ETHY    C1 1499  29.373  35.900   6.200
 1584ETHY    C1 1500  29.066  35.727   5.806
 1585ETHY    C1 1501  28.815  35.600   5.346
 1586THSLK    S 1502  30.740  36.894   7.508
 1587ETHY    C1 1503  30.286  36.872   7.513
 1588ETHY    C1 1504  29.764  36.758   7.514
 1589ETHY    C1 1505  29.282  36.549   7.511
 1590ETHY    C1 1506  28.845  36.259   7.510
 1591ETHY    C1 1507  28.466  35.892   7.510
 1592ETHY    C1 1508  28.153  35.452   7.514
 1593AUSL   AUS 1509  30.912  37.192   7.654
 1594AUSL   AUS 1510  31.170  36.845   7.767
 1595AUL    AUL 1511  30.792  36.865   7.806
 1596THSLK    S 1512  30.982  36.705   7.878
 1597ETHY    C1 1513  30.595  36.468   7.893
 1598ETHY    C1 1514  30.177  36.148   7.982
 1599ETHY    C1 1515  29.819  35.799   8.149
 1600ETHY    C1 1516  29.524  35.435   8.382
 1601ETHY    C1 1517  29.299  35.064   8.683
 1602ETHY    C1 1518  29.148  34.693   9.045
 1603THSLK    S 1519  30.656  37.129   7.616
 1604ETHY    C1 1520  30.220  37.119   7.491
 1605ETHY    C1 1521  29.694  37.060   7.419
 1606ETHY    C1 1522  29.179  36.953   7.436
 1607ETHY    C1 1523  28.685  36.807   7.535
 1608ETHY    C1 1524  28.225  36.625   7.718
 1609ETHY    C1 1525  27.806  36.412   7.983
 1610AUSL   AUS 1526  31.586  37.935   7.912
 1611AUSL   AUS 1527  31.170  37.866   7.767
 1612AUL    AUL 1528  31.283  38.150   7.993
 1613THSLK    S 1529  31.054  38.022   7.952
 1614ETHY    C1 1530  30.970  38.324   8.280
 1615ETHY    C1 1531  30.795  38.697   8.621
 1616ETHY    C1 1532  30.542  39.068   8.895
 1617ETHY    C1 1533  30.224  39.427   9.105
 1618ETHY    C1 1534  29.842  39.765   9.244
 1619ETHY    C1 1535  29.404  40.073   9.309
 1620THSLK    S 1536  31.628  38.157   8.035
 1621ETHY    C1 1537  31.812  38.432   8.347
 1622ETHY    C1 1538  31.962  38.812   8.691
 1623ETHY    C1 1539  32.028  39.235   8.998
 1624ETHY    C1 1540  32.015  39.686   9.264
 1625ETHY    C1 1541  31.918  40.155   9.485
 1626ETHY    C1 1542  31.738  40.634   9.656
 1627AUSL   AUS 1543  31.434  38.029   7.666
 1628AUSL   AUS 1544  31.738  38.029   7.339
 1629AUL    AUL 1545  31.586  38.337   7.503
 1630THSLK    S 1546  31.477  38.273   7.776
 1631ETHY    C1 1547  31.621  38.667   7.951
 1632ETHY    C1 1548  31.708  39.161   8.137
 1633ETHY    C1 1549  31.696  39.662   8.294
 1634ETHY    C1 1550  31.595  40.160   8.425
 1635ETHY    C1 1551  31.403  40.641   8.527
 1636ETHY    C1 1552  31.123  41.096   8.600
 1637THSLK    S 1553  31.793  38.260   7.243
 1638ETHY    C1 1554  32.069  38.590   7.096
 1639ETHY    C1 1555  32.319  39.031   6.927
 1640ETHY    C1 1556  32.475  39.508   6.771
 1641ETHY    C1 1557  32.544  40.010   6.635
 1642ETHY    C1 1558  32.520  40.526   6.525
 1643ETHY    C1 1559  32.403  41.046   6.443
 1644AUSL   AUS 1560  31.738  38.029   7.666
 1645AUSL   AUS 1561  31.851  37.772   8.013
 1646AUL    AUL 1562  31.889  38.150   7.993
 1647THSLK    S 1563  32.022  37.880   8.183
 1648ETHY    C1 1564  32.317  37.945   8.523
 1649ETHY    C1 1565  32.635  38.107   8.920
 1650ETHY    C1 1566  32.903  38.356   9.298
 1651ETHY    C1 1567  33.117  38.678   9.653
 1652ETHY    C1 1568  33.269  39.066   9.976
 1653ETHY    C1 1569  33.355  39.516  10.262
 1654THSLK    S 1570  31.791  38.258   7.772
 1655ETHY    C1 1571  32.063  38.586   7.929
 1656ETHY    C1 1572  32.313  39.026   8.100
 1657ETHY    C1 1573  32.471  39.505   8.251
 1658ETHY    C1 1574  32.540  40.007   8.383
 1659ETHY    C1 1575  32.516  40.522   8.494
 1660ETHY    C1 1576  32.397  41.041   8.585
 1661AUSL   AUS 1577  31.586  36.775   7.912
 1662AUSL   AUS 1578  32.002  36.845   7.767
 1663AUL    AUL 1579  31.889  36.561   7.993
 1664THSLK    S 1580  31.539  36.525   7.989
 1665ETHY    C1 1581  31.349  36.129   8.103
 1666ETHY    C1 1582  31.198  35.651   8.289
 1667ETHY    C1 1583  31.135  35.186   8.528
 1668ETHY    C1 1584  31.150  34.744   8.809
 1669ETHY    C1 1585  31.246  34.337   9.132
 1670ETHY    C1 1586  31.421  33.974   9.489
 1671THSLK    S 1587  32.114  36.658   7.907
 1672ETHY    C1 1588  32.193  36.230   8.040
 1673ETHY    C1 1589  32.368  35.760   8.222
 1674ETHY    C1 1590  32.622  35.348   8.428
 1675ETHY    C1 1591  32.942  34.999   8.652
 1676ETHY    C1 1592  33.323  34.724   8.893
 1677ETHY    C1 1593  33.758  34.528   9.147
 1678AUSL   AUS 1594  31.434  36.682   7.666
 1679AUSL   AUS 1595  31.321  36.939   8.013
 1680AUL    AUL 1596  31.283  36.561   7.993
 1681THSLK    S 1597  31.379  36.446   7.745
 1682ETHY    C1 1598  31.104  36.087   7.788
 1683ETHY    C1 1599  30.853  35.622   7.869
 1684ETHY    C1 1600  30.697  35.132   7.981
 1685ETHY    C1 1601  30.628  34.633   8.122
 1686ETHY    C1 1602  30.652  34.133   8.292
 1687ETHY    C1 1603  30.769  33.645   8.489
 1688THSLK    S 1604  31.143  36.773   8.129
 1689ETHY    C1 1605  30.841  36.455   8.248
 1690ETHY    C1 1606  30.522  36.088   8.471
 1691ETHY    C1 1607  30.257  35.751   8.776
 1692ETHY    C1 1608  30.045  35.449   9.147
 1693ETHY    C1 1609  29.892  35.191   9.582
 1694ETHY    C1 1610  29.801  34.984  10.072
 1695AUSL   AUS 1611  31.738  36.682   7.666
 1696AUSL   AUS 1612  31.434  36.682   7.339
 1697AUL    AUL 1613  31.586  36.374   7.503
 1698THSLK    S 1614  31.381  36.443   7.270
 1699ETHY    C1 1615  31.109  36.081   7.236
 1700ETHY    C1 1616  30.859  35.616   7.157
 1701ETHY    C1 1617  30.702  35.127   7.041
 1702ETHY    C1 1618  30.632  34.628   6.896
 1703ETHY    C1 1619  30.656  34.129   6.727
 1704ETHY    C1 1620  30.775  33.638   6.538
 1705THSLK    S 1621  31.692  36.430   7.749
 1706ETHY    C1 1622  31.545  36.004   7.811
 1707ETHY    C1 1623  31.459  35.486   7.906
 1708ETHY    C1 1624  31.471  34.973   8.025
 1709ETHY    C1 1625  31.573  34.478   8.165
 1710ETHY    C1 1626  31.765  34.013   8.325
 1711ETHY    C1 1627  32.043  33.587   8.504
 1712AUSL   AUS 1628  31.586  37.935   7.094
 1713AUSL   AUS 1629  32.002  37.866   7.238
 1714AUL    AUL 1630  31.889  38.150   7.012
 1715THSLK    S 1631  31.633  38.162   6.977
 1716ETHY    C1 1632  31.823  38.441   6.674
 1717ETHY    C1 1633  31.974  38.822   6.330
 1718ETHY    C1 1634  32.038  39.242   6.021
 1719ETHY    C1 1635  32.022  39.692   5.752
 1720ETHY    C1 1636  31.926  40.162   5.532
 1721ETHY    C1 1637  31.751  40.645   5.366
 1722THSLK    S 1638  32.190  37.982   7.089
 1723ETHY    C1 1639  32.577  38.102   6.883
 1724ETHY    C1 1640  32.995  38.325   6.637
 1725ETHY    C1 1641  33.353  38.629   6.400
 1726ETHY    C1 1642  33.648  39.001   6.178
 1727ETHY    C1 1643  33.873  39.436   5.981
 1728ETHY    C1 1644  34.024  39.925   5.811
 1729AUSL   AUS 1645  31.434  38.029   7.339
 1730AUSL   AUS 1646  31.321  37.772   6.992
 1731AUL    AUL 1647  31.283  38.150   7.012
 1732THSLK    S 1648  31.480  38.276   7.239
 1733ETHY    C1 1649  31.627  38.673   7.074
 1734ETHY    C1 1650  31.713  39.167   6.889
 1735ETHY    C1 1651  31.701  39.668   6.727
 1736ETHY    C1 1652  31.599  40.164   6.593
 1737ETHY    C1 1653  31.407  40.645   6.492
 1738ETHY    C1 1654  31.129  41.103   6.427
 1739THSLK    S 1655  31.211  37.904   6.805
 1740ETHY    C1 1656  31.175  38.053   6.377
 1741ETHY    C1 1657  31.065  38.279   5.906
 1742ETHY    C1 1658  30.887  38.554   5.494
 1743ETHY    C1 1659  30.653  38.867   5.145
 1744ETHY    C1 1660  30.367  39.216   4.870
 1745ETHY    C1 1661  30.036  39.594   4.675
 1746AUSL   AUS 1662  31.586  36.775   7.094
 1747AUSL   AUS 1663  31.170  36.845   7.238
 1748AUL    AUL 1664  31.283  36.561   7.012
 1749THSLK    S 1665  30.987  36.697   7.134
 1750ETHY    C1 1666  30.604  36.453   7.124
 1751ETHY    C1 1667  30.186  36.132   7.035
 1752ETHY    C1 1668  29.827  35.786   6.866
 1753ETHY    C1 1669  29.530  35.425   6.631
 1754ETHY    C1 1670  29.305  35.053   6.331
 1755ETHY    C1 1671  29.158  34.676   5.974
 1756THSLK    S 1672  31.544  36.520   7.024
 1757ETHY    C1 1673  31.360  36.119   6.917
 1758ETHY    C1 1674  31.210  35.641   6.732
 1759ETHY    C1 1675  31.144  35.178   6.491
 1760ETHY    C1 1676  31.157  34.738   6.206
 1761ETHY    C1 1677  31.254  34.331   5.885
 1762ETHY    C1 1678  31.434  33.963   5.533
 1763AUSL   AUS 1679  31.738  36.682   7.339
 1764AUSL   AUS 1680  31.851  36.939   6.992
 1765AUL    AUL 1681  31.889  36.561   7.012
 1766THSLK    S 1682  31.695  36.428   7.266
 1767ETHY    C1 1683  31.551  36.000   7.213
 1768ETHY    C1 1684  31.464  35.481   7.120
 1769ETHY    C1 1685  31.476  34.969   6.997
 1770ETHY    C1 1686  31.577  34.475   6.854
 1771ETHY    C1 1687  31.769  34.010   6.695
 1772ETHY    C1 1688  32.049  33.582   6.523
 1773THSLK    S 1689  31.968  36.749   6.859
 1774ETHY    C1 1690  32.012  36.347   6.651
 1775ETHY    C1 1691  32.122  35.916   6.355
 1776ETHY    C1 1692  32.298  35.553   6.017
 1777ETHY    C1 1693  32.529  35.259   5.651
 1778ETHY    C1 1694  32.815  35.042   5.264
 1779ETHY    C1 1695  33.152  34.906   4.865
 1780AUC    AUC 1696  39.376   6.272   7.503
 1781AUC    AUC 1697  39.621   6.272   7.351
 1782AUC    AUC 1698  39.621   6.272   7.654
 1783AUC    AUC 1699  39.131   6.272   7.351
 1784AUC    AUC 1700  39.131   6.272   7.654
 1785AUC    AUC 1701  39.224   6.518   7.503
 1786AUC    AUC 1702  39.528   6.518   7.503
 1787AUC    AUC 1703  39.224   6.027   7.503
 1788AUC    AUC 1704  39.528   6.027   7.503
 1789AUC    AUC 1705  39.376   6.121   7.748
 1790AUC    AUC 1706  39.376   6.424   7.748
 1791AUC    AUC 1707  39.376   6.121   7.257
 1792AUC    AUC 1708  39.376   6.424   7.257
 1793AUC    AUC 1709  39.867   6.272   7.199
 1794AUC    AUC 1710  39.867   6.272   7.503
 1795AUC    AUC 1711  39.867   6.272   7.806
 1796AUC    AUC 1712  38.885   6.272   7.199
 1797AUC    AUC 1713  38.885   6.272   7.503
 1798AUC    AUC 1714  38.885   6.272   7.806
 1799AUC    AUC 1715  39.073   6.763   7.503
 1800AUC    AUC 1716  39.376   6.763   7.503
 1801AUC    AUC 1717  39.679   6.763   7.503
 1802AUC    AUC 1718  39.073   5.782   7.503
 1803AUC    AUC 1719  39.376   5.782   7.503
 1804AUC    AUC 1720  39.679   5.782   7.503
 1805AUC    AUC 1721  39.376   5.969   7.993
 1806AUC    AUC 1722  39.376   6.272   7.993
 1807AUC    AUC 1723  39.376   6.576   7.993
 1808AUC    AUC 1724  39.376   5.969   7.012
 1809AUC    AUC 1725  39.376   6.272   7.012
 1810AUC    AUC 1726  39.376   6.576   7.012
 1811AUC    AUC 1727  39.621   6.121   7.900
 1812AUC    AUC 1728  39.621   6.424   7.900
 1813AUC    AUC 1729  39.621   6.121   7.106
 1814AUC    AUC 1730  39.621   6.424   7.106
 1815AUC    AUC 1731  39.131   6.121   7.900
 1816AUC    AUC 1732  39.131   6.424   7.900
 1817AUC    AUC 1733  39.131   6.121   7.106
 1818AUC    AUC 1734  39.131   6.424   7.106
 1819AUC    AUC 1735  39.773   6.518   7.351
 1820AUC    AUC 1736  39.773   6.518   7.654
 1821AUC    AUC 1737  38.979   6.518   7.351
 1822AUC    AUC 1738  38.979   6.518   7.654
 1823AUC    AUC 1739  39.773   6.027   7.351
 1824AUC    AUC 1740  39.773   6.027   7.654
 1825AUC    AUC 1741  38.979   6.027   7.351
 1826AUC    AUC 1742  38.979   6.027   7.654
 1827AUC    AUC 1743  39.224   6.670   7.748
 1828AUC    AUC 1744  39.528   6.670   7.748
 1829AUC    AUC 1745  39.224   5.875   7.748
 1830AUC    AUC 1746  39.528   5.875   7.748
 1831AUC    AUC 1747  39.224   6.670   7.257
 1832AUC    AUC 1748  39.528   6.670   7.257
 1833AUC    AUC 1749  39.224   5.875   7.257
 1834AUC    AUC 1750  39.528   5.875   7.257
 1835AUSL   AUS 1751  39.785   6.272   8.083
 1836AUSL   AUS 1752  39.641   5.856   8.013
 1837AUL    AUL 1753  39.867   5.969   8.297
 1838THSLK    S 1754  39.751   5.669   8.153
 1839ETHY    C1 1755  39.787   5.270   8.368
 1840ETHY    C1 1756  39.897   4.840   8.665
 1841ETHY    C1 1757  40.075   4.476   9.000
 1842ETHY    C1 1758  40.309   4.180   9.364
 1843ETHY    C1 1759  40.595   3.963   9.752
 1844ETHY    C1 1760  40.926   3.830  10.156
 1845THSLK    S 1761  39.878   6.220   8.324
 1846ETHY    C1 1762  40.082   6.000   8.665
 1847ETHY    C1 1763  40.346   5.823   9.094
 1848ETHY    C1 1764  40.622   5.747   9.535
 1849ETHY    C1 1765  40.899   5.764   9.980
 1850ETHY    C1 1766  41.169   5.877  10.419
 1851ETHY    C1 1767  41.428   6.086  10.845
 1852AUSL   AUS 1768  39.540   6.121   8.176
 1853AUSL   AUS 1769  39.212   6.424   8.176
 1854AUL    AUL 1770  39.376   6.272   8.484
 1855THSLK    S 1771  39.615   6.066   8.413
 1856ETHY    C1 1772  39.679   5.786   8.765
 1857ETHY    C1 1773  39.782   5.531   9.223
 1858ETHY    C1 1774  39.909   5.372   9.708
 1859ETHY    C1 1775  40.051   5.303  10.208
 1860ETHY    C1 1776  40.205   5.331  10.713
 1861ETHY    C1 1777  40.365   5.455  11.212
 1862THSLK    S 1778  39.127   6.378   8.428
 1863ETHY    C1 1779  39.053   6.228   8.850
 1864ETHY    C1 1780  38.948   6.140   9.367
 1865ETHY    C1 1781  38.826   6.152   9.878
 1866ETHY    C1 1782  38.688   6.253  10.373
 1867ETHY    C1 1783  38.533   6.446  10.840
 1868ETHY    C1 1784  38.364   6.727  11.268
 1869AUSL   AUS 1785  39.540   6.424   8.176
 1870AUSL   AUS 1786  39.886   6.537   7.919
 1871AUL    AUL 1787  39.867   6.576   8.297
 1872THSLK    S 1788  39.625   6.480   8.410
 1873ETHY    C1 1789  39.699   6.761   8.759
 1874ETHY    C1 1790  39.804   7.016   9.217
 1875ETHY    C1 1791  39.926   7.175   9.703
 1876ETHY    C1 1792  40.065   7.244  10.204
 1877ETHY    C1 1793  40.219   7.217  10.708
 1878ETHY    C1 1794  40.388   7.093  11.206
 1879THSLK    S 1795  40.058   6.635   8.080
 1880ETHY    C1 1796  40.421   6.606   8.350
 1881ETHY    C1 1797  40.843   6.662   8.673
 1882ETHY    C1 1798  41.235   6.816   8.989
 1883ETHY    C1 1799  41.589   7.054   9.293
 1884ETHY    C1 1800  41.896   7.375   9.580
 1885ETHY    C1 1801  42.147   7.772   9.844
 1886AUSL   AUS 1802  39.785   6.272   6.923
 1887AUSL   AUS 1803  39.641   6.689   6.992
 1888AUL    AUL 1804  39.867   6.576   6.708
 1889THSLK    S 1805  39.887   6.220   6.687
 1890ETHY    C1 1806  40.100   6.000   6.351
 1891ETHY    C1 1807  40.365   5.823   5.923
 1892ETHY    C1 1808  40.637   5.747   5.479
 1893ETHY    C1 1809  40.911   5.764   5.033
 1894ETHY    C1 1810  41.182   5.877   4.594
 1895ETHY    C1 1811  41.447   6.086   4.173
 1896THSLK    S 1812  39.819   6.800   6.829
 1897ETHY    C1 1813  40.121   6.868   6.497
 1898ETHY    C1 1814  40.440   7.031   6.100
 1899ETHY    C1 1815  40.705   7.278   5.719
 1900ETHY    C1 1816  40.917   7.598   5.362
 1901ETHY    C1 1817  41.070   7.988   5.039
 1902ETHY    C1 1818  41.161   8.440   4.759
 1903AUSL   AUS 1819  39.540   6.121   6.829
 1904AUSL   AUS 1820  39.886   6.008   7.086
 1905AUL    AUL 1821  39.867   5.969   6.708
 1906THSLK    S 1822  40.019   5.816   6.949
 1907ETHY    C1 1823  40.202   5.449   6.752
 1908ETHY    C1 1824  40.474   5.077   6.483
 1909ETHY    C1 1825  40.799   4.788   6.186
 1910ETHY    C1 1826  41.165   4.581   5.874
 1911ETHY    C1 1827  41.569   4.462   5.555
 1912ETHY    C1 1828  42.002   4.437   5.235
 1913THSLK    S 1829  39.625   6.065   6.596
 1914ETHY    C1 1830  39.699   5.784   6.246
 1915ETHY    C1 1831  39.804   5.528   5.788
 1916ETHY    C1 1832  39.926   5.370   5.302
 1917ETHY    C1 1833  40.065   5.301   4.801
 1918ETHY    C1 1834  40.219   5.328   4.297
 1919ETHY    C1 1835  40.388   5.452   3.799
 1920AUSL   AUS 1836  39.540   6.424   6.829
 1921AUSL   AUS 1837  39.212   6.121   6.829
 1922AUL    AUL 1838  39.376   6.272   6.521
 1923THSLK    S 1839  39.120   6.065   6.597
 1924ETHY    C1 1840  38.985   5.787   6.264
 1925ETHY    C1 1841  38.824   5.534   5.822
 1926ETHY    C1 1842  38.672   5.377   5.343
 1927ETHY    C1 1843  38.536   5.308   4.842
 1928ETHY    C1 1844  38.419   5.334   4.328
 1929ETHY    C1 1845  38.326   5.453   3.810
 1930THSLK    S 1846  39.642   6.378   6.583
 1931ETHY    C1 1847  39.788   6.228   6.179
 1932ETHY    C1 1848  39.950   6.137   5.678
 1933ETHY    C1 1849  40.097   6.147   5.173
 1934ETHY    C1 1850  40.230   6.248   4.677
 1935ETHY    C1 1851  40.347   6.443   4.200
 1936ETHY    C1 1852  40.448   6.729   3.754
 1937AUSL   AUS 1853  38.967   6.272   8.083
 1938AUSL   AUS 1854  39.111   6.689   8.013
 1939AUL    AUL 1855  38.885   6.576   8.297
 1940THSLK    S 1856  38.865   6.220   8.319
 1941ETHY    C1 1857  38.653   6.000   8.654
 1942ETHY    C1 1858  38.387   5.823   9.082
 1943ETHY    C1 1859  38.115   5.747   9.526
 1944ETHY    C1 1860  37.841   5.764   9.973
 1945ETHY    C1 1861  37.570   5.877  10.411
 1946ETHY    C1 1862  37.305   6.086  10.832
 1947THSLK    S 1863  38.994   6.813   8.202
 1948ETHY    C1 1864  38.951   6.956   8.632
 1949ETHY    C1 1865  38.840   7.181   9.104
 1950ETHY    C1 1866  38.664   7.458   9.515
 1951ETHY    C1 1867  38.433   7.774   9.863
 1952ETHY    C1 1868  38.147   8.122  10.138
 1953ETHY    C1 1869  37.810   8.495  10.334
 1954AUSL   AUS 1870  39.212   6.121   8.176
 1955AUSL   AUS 1871  38.866   6.008   7.919
 1956AUL    AUL 1872  38.885   5.969   8.297
 1957THSLK    S 1873  38.689   5.845   8.026
 1958ETHY    C1 1874  38.318   5.588   8.082
 1959ETHY    C1 1875  37.896   5.300   8.237
 1960ETHY    C1 1876  37.506   5.045   8.482
 1961ETHY    C1 1877  37.154   4.828   8.803
 1962ETHY    C1 1878  36.848   4.657   9.198
 1963ETHY    C1 1879  36.591   4.536   9.657
 1964THSLK    S 1880  39.110   6.067   8.406
 1965ETHY    C1 1881  38.964   5.791   8.736
 1966ETHY    C1 1882  38.802   5.539   9.178
 1967ETHY    C1 1883  38.655   5.381   9.658
 1968ETHY    C1 1884  38.522   5.311  10.160
 1969ETHY    C1 1885  38.405   5.337  10.674
 1970ETHY    C1 1886  38.304   5.458  11.190
 1971AUSL   AUS 1887  38.967   6.272   6.923
 1972AUSL   AUS 1888  39.111   5.856   6.992
 1973AUL    AUL 1889  38.885   5.969   6.708
 1974THSLK    S 1890  38.874   6.220   6.681
 1975ETHY    C1 1891  38.670   6.000   6.341
 1976ETHY    C1 1892  38.406   5.823   5.911
 1977ETHY    C1 1893  38.130   5.747   5.470
 1978ETHY    C1 1894  37.853   5.764   5.025
 1979ETHY    C1 1895  37.583   5.877   4.586
 1980ETHY    C1 1896  37.324   6.086   4.161
 1981THSLK    S 1897  38.940   5.683   6.878
 1982ETHY    C1 1898  38.645   5.357   6.760
 1983ETHY    C1 1899  38.327   4.990   6.538
 1984ETHY    C1 1900  38.059   4.655   6.233
 1985ETHY    C1 1901  37.845   4.355   5.861
 1986ETHY    C1 1902  37.693   4.097   5.426
 1987ETHY    C1 1903  37.607   3.885   4.937
 1988AUSL   AUS 1904  39.212   6.424   6.829
 1989AUSL   AUS 1905  38.866   6.537   7.086
 1990AUL    AUL 1906  38.885   6.576   6.708
 1991THSLK    S 1907  38.739   6.664   6.895
 1992ETHY    C1 1908  38.562   6.745   6.484
 1993ETHY    C1 1909  38.291   6.885   6.046
 1994ETHY    C1 1910  37.964   7.073   5.679
 1995ETHY    C1 1911  37.595   7.302   5.385
 1996ETHY    C1 1912  37.193   7.569   5.173
 1997ETHY    C1 1913  36.764   7.871   5.047
 1998THSLK    S 1914  39.137   6.380   6.576
 1999ETHY    C1 1915  39.073   6.233   6.150
 2000ETHY    C1 1916  38.970   6.144   5.634
 2001ETHY    C1 1917  38.843   6.155   5.123
 2002ETHY    C1 1918  38.701   6.256   4.629
 2003ETHY    C1 1919  38.548   6.449   4.162
 2004ETHY    C1 1920  38.387   6.732   3.732
 2005AUSL   AUS 1921  39.956   6.681   7.503
 2006AUSL   AUS 1922  39.886   6.537   7.086
 2007AUL    AUL 1923  40.170   6.763   7.199
 2008THSLK    S 1924  40.064   6.636   6.934
 2009ETHY    C1 1925  40.434   6.609   6.671
 2010ETHY    C1 1926  40.856   6.665   6.349
 2011ETHY    C1 1927  41.246   6.819   6.030
 2012ETHY    C1 1928  41.598   7.056   5.724
 2013ETHY    C1 1929  41.905   7.377   5.438
 2014ETHY    C1 1930  42.161   7.776   5.179
 2015THSLK    S 1931  40.222   6.734   7.508
 2016ETHY    C1 1932  40.676   6.756   7.513
 2017ETHY    C1 1933  41.198   6.870   7.514
 2018ETHY    C1 1934  41.681   7.079   7.511
 2019ETHY    C1 1935  42.117   7.369   7.510
 2020ETHY    C1 1936  42.496   7.736   7.510
 2021ETHY    C1 1937  42.810   8.176   7.514
 2022AUSL   AUS 1938  40.050   6.436   7.351
 2023AUSL   AUS 1939  40.050   6.109   7.654
 2024AUL    AUL 1940  40.358   6.272   7.503
 2025THSLK    S 1941  40.306   6.475   7.350
 2026ETHY    C1 1942  40.742   6.367   7.286
 2027ETHY    C1 1943  41.268   6.329   7.201
 2028ETHY    C1 1944  41.783   6.393   7.113
 2029ETHY    C1 1945  42.277   6.547   7.026
 2030ETHY    C1 1946  42.737   6.792   6.945
 2031ETHY    C1 1947  43.156   7.124   6.873
 2032THSLK    S 1948  40.277   5.969   7.663
 2033ETHY    C1 1949  40.596   5.653   7.728
 2034ETHY    C1 1950  41.029   5.349   7.807
 2035ETHY    C1 1951  41.504   5.139   7.887
 2036ETHY    C1 1952  42.007   5.018   7.971
 2037ETHY    C1 1953  42.527   4.992   8.058
 2038ETHY    C1 1954  43.055   5.062   8.147
 2039AUSL   AUS 1955  40.050   6.436   7.654
 2040AUSL   AUS 1956  39.792   6.783   7.767
 2041AUL    AUL 1957  40.170   6.763   7.806
 2042THSLK    S 1958  39.975   6.897   7.926
 2043ETHY    C1 1959  40.358   7.015   8.140
 2044ETHY    C1 1960  40.776   7.238   8.388
 2045ETHY    C1 1961  41.135   7.543   8.622
 2046ETHY    C1 1962  41.432   7.916   8.840
 2047ETHY    C1 1963  41.657   8.350   9.038
 2048ETHY    C1 1964  41.804   8.838   9.215
 2049THSLK    S 1965  40.304   6.475   7.665
 2050ETHY    C1 1966  40.739   6.367   7.740
 2051ETHY    C1 1967  41.265   6.329   7.826
 2052ETHY    C1 1968  41.780   6.392   7.910
 2053ETHY    C1 1969  42.274   6.546   7.993
 2054ETHY    C1 1970  42.735   6.791   8.075
 2055ETHY    C1 1971  43.152   7.123   8.155
 2056AUSL   AUS 1972  38.796   6.681   7.503
 2057AUSL   AUS 1973  38.866   6.537   7.919
 2058AUL    AUL 1974  38.582   6.763   7.806
 2059THSLK    S 1975  38.733   6.656   8.109
 2060ETHY    C1 1976  38.550   6.728   8.519
 2061ETHY    C1 1977  38.278   6.868   8.957
 2062ETHY    C1 1978  37.953   7.059   9.324
 2063ETHY    C1 1979  37.587   7.290   9.619
 2064ETHY    C1 1980  37.184   7.557   9.831
 2065ETHY    C1 1981  36.750   7.853   9.956
 2066THSLK    S 1982  38.585   6.822   7.508
 2067ETHY    C1 1983  38.363   7.219   7.513
 2068ETHY    C1 1984  38.027   7.634   7.514
 2069ETHY    C1 1985  37.624   7.973   7.511
 2070ETHY    C1 1986  37.170   8.234   7.510
 2071ETHY    C1 1987  36.671   8.408   7.510
 2072ETHY    C1 1988  36.138   8.492   7.514
 2073AUSL   AUS 1989  38.702   6.436   7.351
 2074AUSL   AUS 1990  38.960   6.783   7.238
 2075AUL    AUL 1991  38.582   6.763   7.199
 2076THSLK    S 1992  38.475   6.551   7.303
 2077ETHY    C1 1993  38.156   6.751   7.049
 2078ETHY    C1 1994  37.723   6.957   6.813
 2079ETHY    C1 1995  37.248   7.123   6.661
 2080ETHY    C1 1996  36.745   7.252   6.590
 2081ETHY    C1 1997  36.225   7.342   6.605
 2082ETHY    C1 1998  35.697   7.390   6.708
 2083THSLK    S 1999  38.848   6.946   7.060
 2084ETHY    C1 2000  38.769   7.256   6.737
 2085ETHY    C1 2001  38.594   7.630   6.397
 2086ETHY    C1 2002  38.340   7.998   6.120
 2087ETHY    C1 2003  38.020   8.355   5.909
 2088ETHY    C1 2004  37.639   8.693   5.770
 2089ETHY    C1 2005  37.204   9.007   5.709
 2090AUSL   AUS 2006  38.702   6.436   7.654
 2091AUSL   AUS 2007  38.702   6.109   7.351
 2092AUL    AUL 2008  38.394   6.272   7.503
 2093THSLK    S 2009  38.448   6.036   7.394
 2094ETHY    C1 2010  38.013   6.018   7.524
 2095ETHY    C1 2011  37.487   5.958   7.597
 2096ETHY    C1 2012  36.972   5.854   7.578
 2097ETHY    C1 2013  36.478   5.711   7.477
 2098ETHY    C1 2014  36.018   5.528   7.294
 2099ETHY    C1 2015  35.600   5.308   7.034
 2100THSLK    S 2016  38.474   6.542   7.707
 2101ETHY    C1 2017  38.153   6.733   7.966
 2102ETHY    C1 2018  37.720   6.937   8.202
 2103ETHY    C1 2019  37.245   7.108   8.352
 2104ETHY    C1 2020  36.743   7.240   8.422
 2105ETHY    C1 2021  36.223   7.328   8.407
 2106ETHY    C1 2022  35.694   7.369   8.308
 2107AUSL   AUS 2023  39.956   5.863   7.503
 2108AUSL   AUS 2024  39.886   6.008   7.919
 2109AUL    AUL 2025  40.170   5.782   7.806
 2110THSLK    S 2026  40.167   5.722   7.508
 2111ETHY    C1 2027  40.389   5.326   7.513
 2112ETHY    C1 2028  40.725   4.911   7.514
 2113ETHY    C1 2029  41.128   4.572   7.511
 2114ETHY    C1 2030  41.582   4.311   7.510
 2115ETHY    C1 2031  42.081   4.137   7.510
 2116ETHY    C1 2032  42.614   4.053   7.514
 2117THSLK    S 2033  40.013   5.817   8.064
 2118ETHY    C1 2034  40.190   5.452   8.270
 2119ETHY    C1 2035  40.461   5.080   8.540
 2120ETHY    C1 2036  40.788   4.791   8.834
 2121ETHY    C1 2037  41.157   4.583   9.142
 2122ETHY    C1 2038  41.559   4.465   9.462
 2123ETHY    C1 2039  41.988   4.440   9.789
 2124AUSL   AUS 2040  40.050   6.109   7.351
 2125AUSL   AUS 2041  39.792   5.762   7.238
 2126AUL    AUL 2042  40.170   5.782   7.199
 2127THSLK    S 2043  40.278   5.969   7.353
 2128ETHY    C1 2044  40.599   5.652   7.298
 2129ETHY    C1 2045  41.032   5.349   7.221
 2130ETHY    C1 2046  41.507   5.139   7.136
 2131ETHY    C1 2047  42.009   5.018   7.048
 2132ETHY    C1 2048  42.529   4.991   6.963
 2133ETHY    C1 2049  43.058   5.062   6.881
 2134THSLK    S 2050  39.908   5.573   7.108
 2135ETHY    C1 2051  39.992   5.144   6.984
 2136ETHY    C1 2052  40.167   4.672   6.803
 2137ETHY    C1 2053  40.420   4.261   6.593
 2138ETHY    C1 2054  40.738   3.913   6.366
 2139ETHY    C1 2055  41.120   3.638   6.126
 2140ETHY    C1 2056  41.558   3.441   5.880
 2141AUSL   AUS 2057  38.796   5.863   7.503
 2142AUSL   AUS 2058  38.866   6.008   7.086
 2143AUL    AUL 2059  38.582   5.782   7.199
 2144THSLK    S 2060  38.695   5.837   6.978
 2145ETHY    C1 2061  38.331   5.572   6.921
 2146ETHY    C1 2062  37.909   5.282   6.766
 2147ETHY    C1 2063  37.517   5.030   6.521
 2148ETHY    C1 2064  37.163   4.817   6.200
 2149ETHY    C1 2065  36.856   4.644   5.806
 2150ETHY    C1 2066  36.605   4.517   5.346
 2151THSLK    S 2067  38.530   5.811   7.508
 2152ETHY    C1 2068  38.076   5.789   7.513
 2153ETHY    C1 2069  37.554   5.675   7.514
 2154ETHY    C1 2070  37.072   5.466   7.511
 2155ETHY    C1 2071  36.635   5.176   7.510
 2156ETHY    C1 2072  36.256   4.809   7.510
 2157ETHY    C1 2073  35.943   4.369   7.514
 2158AUSL   AUS 2074  38.702   6.109   7.654
 2159AUSL   AUS 2075  38.960   5.762   7.767
 2160AUL    AUL 2076  38.582   5.782   7.806
 2161THSLK    S 2077  38.772   5.622   7.878
 2162ETHY    C1 2078  38.385   5.385   7.893
 2163ETHY    C1 2079  37.967   5.065   7.982
 2164ETHY    C1 2080  37.609   4.716   8.149
 2165ETHY    C1 2081  37.314   4.352   8.382
 2166ETHY    C1 2082  37.089   3.981   8.683
 2167ETHY    C1 2083  36.938   3.610   9.045
 2168THSLK    S 2084  38.446   6.046   7.616
 2169ETHY    C1 2085  38.010   6.036   7.491
 2170ETHY    C1 2086  37.484   5.977   7.419
 2171ETHY    C1 2087  36.969   5.870   7.436
 2172ETHY    C1 2088  36.475   5.724   7.535
 2173ETHY    C1 2089  36.015   5.542   7.718
 2174ETHY    C1 2090  35.596   5.329   7.983
 2175AUSL   AUS 2091  39.376   6.852   7.912
 2176AUSL   AUS 2092  38.960   6.783   7.767
 2177AUL    AUL 2093  39.073   7.067   7.993
 2178THSLK    S 2094  38.844   6.939   7.952
 2179ETHY    C1 2095  38.760   7.241   8.280
 2180ETHY    C1 2096  38.585   7.614   8.621
 2181ETHY    C1 2097  38.332   7.985   8.895
 2182ETHY    C1 2098  38.014   8.344   9.105
 2183ETHY    C1 2099  37.632   8.682   9.244
 2184ETHY    C1 2100  37.194   8.990   9.309
 2185THSLK    S 2101  39.418   7.074   8.035
 2186ETHY    C1 2102  39.602   7.349   8.347
 2187ETHY    C1 2103  39.752   7.729   8.691
 2188ETHY    C1 2104  39.818   8.152   8.998
 2189ETHY    C1 2105  39.805   8.603   9.264
 2190ETHY    C1 2106  39.708   9.072   9.485
 2191ETHY    C1 2107  39.528   9.551   9.656
 2192AUSL   AUS 2108  39.224   6.946   7.666
 2193AUSL   AUS 2109  39.528   6.946   7.339
 2194AUL    AUL 2110  39.376   7.254   7.503
 2195THSLK    S 2111  39.267   7.190   7.776
 2196ETHY    C1 2112  39.411   7.584   7.951
 2197ETHY    C1 2113  39.498   8.078   8.137
 2198ETHY    C1 2114  39.486   8.579   8.294
 2199ETHY    C1 2115  39.385   9.077   8.425
 2200ETHY    C1 2116  39.193   9.558   8.527
 2201ETHY    C1 2117  38.913  10.013   8.600
 2202THSLK    S 2118  39.583   7.177   7.243
 2203ETHY    C1 2119  39.859   7.507   7.096
 2204ETHY    C1 2120  40.109   7.948   6.927
 2205ETHY    C1 2121  40.265   8.425   6.771
 2206ETHY    C1 2122  40.334   8.927   6.635
 2207ETHY    C1 2123  40.310   9.443   6.525
 2208ETHY    C1 2124  40.193   9.963   6.443
 2209AUSL   AUS 2125  39.528   6.946   7.666
 2210AUSL   AUS 2126  39.641   6.689   8.013
 2211AUL    AUL 2127  39.679   7.067   7.993
 2212THSLK    S 2128  39.812   6.797   8.183
 2213ETHY    C1 2129  40.107   6.862   8.523
 2214ETHY    C1 2130  40.425   7.024   8.920
 2215ETHY    C1 2131  40.693   7.273   9.298
 2216ETHY    C1 2132  40.907   7.595   9.653
 2217ETHY    C1 2133  41.059   7.983   9.976
 2218ETHY    C1 2134  41.145   8.433  10.262
 2219THSLK    S 2135  39.581   7.175   7.772
 2220ETHY    C1 2136  39.853   7.503   7.929
 2221ETHY    C1 2137  40.103   7.943   8.100
 2222ETHY    C1 2138  40.261   8.422   8.251
 2223ETHY    C1 2139  40.330   8.924   8.383
 2224ETHY    C1 2140  40.306   9.439   8.494
 2225ETHY    C1 2141  40.187   9.958   8.585
 2226AUSL   AUS 2142  39.376   5.692   7.912
 2227AUSL   AUS 2143  39.792   5.762   7.767
 2228AUL    AUL 2144  39.679   5.478   7.993
 2229THSLK    S 2145  39.329   5.442   7.989
 2230ETHY    C1 2146  39.139   5.046   8.103
 2231ETHY    C1 2147  38.988   4.568   8.289
 2232ETHY    C1 2148  38.925   4.103   8.528
 2233ETHY    C1 2149  38.940   3.661   8.809
 2234ETHY    C1 2150  39.036   3.254   9.132
 2235ETHY    C1 2151  39.211   2.891   9.489
 2236THSLK    S 2152  39.904   5.575   7.907
 2237ETHY    C1 2153  39.983   5.147   8.040
 2238ETHY    C1 2154  40.158   4.677   8.222
 2239ETHY    C1 2155  40.412   4.265   8.428
 2240ETHY    C1 2156  40.732   3.916   8.652
 2241ETHY    C1 2157  41.113   3.641   8.893
 2242ETHY    C1 2158  41.548   3.445   9.147
 2243AUSL   AUS 2159  39.224   5.599   7.666
 2244AUSL   AUS 2160  39.111   5.856   8.013
 2245AUL    AUL 2161  39.073   5.478   7.993
 2246THSLK    S 2162  39.169   5.363   7.745
 2247ETHY    C1 2163  38.894   5.004   7.788
 2248ETHY    C1 2164  38.643   4.539   7.869
 2249ETHY    C1 2165  38.487   4.049   7.981
 2250ETHY    C1 2166  38.418   3.550   8.122
 2251ETHY    C1 2167  38.442   3.050   8.292
 2252ETHY    C1 2168  38.559   2.562   8.489
 2253THSLK    S 2169  38.933   5.690   8.129
 2254ETHY    C1 2170  38.631   5.372   8.248
 2255ETHY    C1 2171  38.312   5.005   8.471
 2256ETHY    C1 2172  38.047   4.668   8.776
 2257ETHY    C1 2173  37.835   4.366   9.147
 2258ETHY    C1 2174  37.682   4.108   9.582
 2259ETHY    C1 2175  37.591   3.901  10.072
 2260AUSL   AUS 2176  39.528   5.599   7.666
 2261AUSL   AUS 2177  39.224   5.599   7.339
 2262AUL    AUL 2178  39.376   5.291   7.503
 2263THSLK    S 2179  39.171   5.360   7.270
 2264ETHY    C1 2180  38.899   4.998   7.236
 2265ETHY    C1 2181  38.649   4.533   7.157
 2266ETHY    C1 2182  38.492   4.044   7.041
 2267ETHY    C1 2183  38.422   3.545   6.896
 2268ETHY    C1 2184  38.446   3.046   6.727
 2269ETHY    C1 2185  38.565   2.555   6.538
 2270THSLK    S 2186  39.482   5.347   7.749
 2271ETHY    C1 2187  39.335   4.921   7.811
 2272ETHY    C1 2188  39.249   4.403   7.906
 2273ETHY    C1 2189  39.261   3.890   8.025
 2274ETHY    C1 2190  39.363   3.395   8.165
 2275ETHY    C1 2191  39.555   2.930   8.325
 2276ETHY    C1 2192  39.833   2.504   8.504
 2277AUSL   AUS 2193  39.376   6.852   7.094
 2278AUSL   AUS 2194  39.792   6.783   7.238
 2279AUL    AUL 2195  39.679   7.067   7.012
 2280THSLK    S 2196  39.423   7.079   6.977
 2281ETHY    C1 2197  39.613   7.358   6.674
 2282ETHY    C1 2198  39.764   7.739   6.330
 2283ETHY    C1 2199  39.828   8.159   6.021
 2284ETHY    C1 2200  39.812   8.609   5.752
 2285ETHY    C1 2201  39.716   9.079   5.532
 2286ETHY    C1 2202  39.541   9.562   5.366
 2287THSLK    S 2203  39.980   6.899   7.089
 2288ETHY    C1 2204  40.367   7.019   6.883
 2289ETHY    C1 2205  40.785   7.242   6.637
 2290ETHY    C1 2206  41.143   7.546   6.400
 2291ETHY    C1 2207  41.438   7.918   6.178
 2292ETHY    C1 2208  41.663   8.353   5.981
 2293ETHY    C1 2209  41.814   8.842   5.811
 2294AUSL   AUS 2210  39.224   6.946   7.339
 2295AUSL   AUS 2211  39.111   6.689   6.992
 2296AUL    AUL 2212  39.073   7.067   7.012
 2297THSLK    S 2213  39.270   7.193   7.239
 2298ETHY    C1 2214  39.417   7.590   7.074
 2299ETHY    C1 2215  39.503   8.084   6.889
 2300ETHY    C1 2216  39.491   8.585   6.727
 2301ETHY    C1 2217  39.389   9.081   6.593
 2302ETHY    C1 2218  39.197   9.562   6.492
 2303ETHY    C1 2219  38.919  10.020   6.427
 2304THSLK    S 2220  39.001   6.821   6.805
 2305ETHY    C1 2221  38.965   6.970   6.377
 2306ETHY    C1 2222  38.855   7.196   5.906
 2307ETHY    C1 2223  38.677   7.471   5.494
 2308ETHY    C1 2224  38.443   7.784   5.145
 2309ETHY    C1 2225  38.157   8.133   4.870
 2310ETHY    C1 2226  37.826   8.511   4.675
 2311AUSL   AUS 2227  39.376   5.692   7.094
 2312AUSL   AUS 2228  38.960   5.762   7.238
 2313AUL    AUL 2229  39.073   5.478   7.012
 2314THSLK    S 2230  38.777   5.614   7.134
 2315ETHY    C1 2231  38.394   5.370   7.124
 2316ETHY    C1 2232  37.976   5.049   7.035
 2317ETHY    C1 2233  37.617   4.703   6.866
 2318ETHY    C1 2234  37.320   4.342   6.631
 2319ETHY    C1 2235  37.095   3.970   6.331
 2320ETHY    C1 2236  36.948   3.593   5.974
 2321THSLK    S 2237  39.334   5.437   7.024
 2322ETHY    C1 2238  39.150   5.036   6.917
 2323ETHY    C1 2239  39.000   4.558   6.732
 2324ETHY    C1 2240  38.934   4.095   6.491
 2325ETHY    C1 2241  38.947   3.655   6.206
 2326ETHY    C1 2242  39.044   3.248   5.885
 2327ETHY    C1 2243  39.224   2.880   5.533
 2328AUSL   AUS 2244  39.528   5.599   7.339
 2329AUSL   AUS 2245  39.641   5.856   6.992
 2330AUL    AUL 2246  39.679   5.478   7.012
 2331THSLK    S 2247  39.485   5.345   7.266
 2332ETHY    C1 2248  39.341   4.917   7.213
 2333ETHY    C1 2249  39.254   4.398   7.120
 2334ETHY    C1 2250  39.266   3.886   6.997
 2335ETHY    C1 2251  39.367   3.392   6.854
 2336ETHY    C1 2252  39.559   2.927   6.695
 2337ETHY    C1 2253  39.839   2.499   6.523
 2338THSLK    S 2254  39.758   5.666   6.859
 2339ETHY    C1 2255  39.802   5.264   6.651
 2340ETHY    C1 2256  39.912   4.833   6.355
 2341ETHY    C1 2257  40.088   4.470   6.017
 2342ETHY    C1 2258  40.319   4.176   5.651
 2343ETHY    C1 2259  40.605   3.959   5.264
 2344ETHY    C1 2260  40.942   3.823   4.865
 2345AUC    AUC 2261   8.182  15.607   7.503
 2346AUC    AUC 2262   8.427  15.607   7.351
 2347AUC    AUC 2263   8.427  15.607   7.654
 2348AUC    AUC 2264   7.937  15.607   7.351
 2349AUC    AUC 2265   7.937  15.607   7.654
 2350AUC    AUC 2266   8.030  15.853   7.503
 2351AUC    AUC 2267   8.334  15.853   7.503
 2352AUC    AUC 2268   8.030  15.362   7.503
 2353AUC    AUC 2269   8.334  15.362   7.503
 2354AUC    AUC 2270   8.182  15.456   7.748
 2355AUC    AUC 2271   8.182  15.759   7.748
 2356AUC    AUC 2272   8.182  15.456   7.257
 2357AUC    AUC 2273   8.182  15.759   7.257
 2358AUC    AUC 2274   8.673  15.607   7.199
 2359AUC    AUC 2275   8.673  15.607   7.503
 2360AUC    AUC 2276   8.673  15.607   7.806
 2361AUC    AUC 2277   7.691  15.607   7.199
 2362AUC    AUC 2278   7.691  15.607   7.503
 2363AUC    AUC 2279   7.691  15.607   7.806
 2364AUC    AUC 2280   7.879  16.098   7.503
 2365AUC    AUC 2281   8.182  16.098   7.503
 2366AUC    AUC 2282   8.485  16.098   7.503
 2367AUC    AUC 2283   7.879  15.117   7.503
 2368AUC    AUC 2284   8.182  15.117   7.503
 2369AUC    AUC 2285   8.485  15.117   7.503
 2370AUC    AUC 2286   8.182  15.304   7.993
 2371AUC    AUC 2287   8.182  15.607   7.993
 2372AUC    AUC 2288   8.182  15.911   7.993
 2373AUC    AUC 2289   8.182  15.304   7.012
 2374AUC    AUC 2290   8.182  15.607   7.012
 2375AUC    AUC 2291   8.182  15.911   7.012
 2376AUC    AUC 2292   8.427  15.456   7.900
 2377AUC    AUC 2293   8.427  15.759   7.900
 2378AUC    AUC 2294   8.427  15.456   7.106
 2379AUC    AUC 2295   8.427  15.759   7.106
 2380AUC    AUC 2296   7.937  15.456   7.900
 2381AUC    AUC 2297   7.937  15.759   7.900
 2382AUC    AUC 2298   7.937  15.456   7.106
 2383AUC    AUC 2299   7.937  15.759   7.106
 2384AUC    AUC 2300   8.579  15.853   7.351
 2385AUC    AUC 2301   8.579  15.853   7.654
 2386AUC    AUC 2302   7.785  15.853   7.351
 2387AUC    AUC 2303   7.785  15.853   7.654
 2388AUC    AUC 2304   8.579  15.362   7.351
 2389AUC    AUC 2305   8.579  15.362   7.654
 2390AUC    AUC 2306   7.785  15.362   7.351
 2391AUC    AUC 2307   7.785  15.362   7.654
 2392AUC    AUC 2308   8.030  16.005   7.748
 2393AUC    AUC 2309   8.334  16.005   7.748
 2394AUC    AUC 2310   8.030  15.210   7.748
 2395AUC    AUC 2311   8.334  15.210   7.748
 2396AUC    AUC 2312   8.030  16.005   7.257
 2397AUC    AUC 2313   8.334  16.005   7.257
 2398AUC    AUC 2314   8.030  15.210   7.257
 2399AUC    AUC 2315   8.334  15.210   7.257
 2400AUSL   AUS 2316   8.591  15.607   8.083
 2401AUSL   AUS 2317   8.447  15.191   8.013
 2402AUL    AUL 2318   8.673  15.304   8.297
 2403THSLK    S 2319   8.557  15.004   8.153
 2404ETHY    C1 2320   8.593  14.605   8.368
 2405ETHY    C1 2321   8.703  14.175   8.665
 2406ETHY    C1 2322   8.881  13.811   9.000
 2407ETHY    C1 2323   9.115  13.515   9.364
 2408ETHY    C1 2324   9.401  13.298   9.752
 2409ETHY    C1 2325   9.732  13.165  10.156
 2410THSLK    S 2326   8.684  15.555   8.324
 2411ETHY    C1 2327   8.888  15.335   8.665
 2412ETHY    C1 2328   9.152  15.158   9.094
 2413ETHY    C1 2329   9.428  15.082   9.535
 2414ETHY    C1 2330   9.705  15.099   9.980
 2415ETHY    C1 2331   9.975  15.212  10.419
 2416ETHY    C1 2332  10.234  15.421  10.845
 2417AUSL   AUS 2333   8.346  15.456   8.176
 2418AUSL   AUS 2334   8.018  15.759   8.176
 2419AUL    AUL 2335   8.182  15.607   8.484
 2420THSLK    S 2336   8.421  15.401   8.413
 2421ETHY    C1 2337   8.485  15.121   8.765
 2422ETHY    C1 2338   8.588  14.866   9.223
 2423ETHY    C1 2339   8.715  14.707   9.708
 2424ETHY    C1 2340   8.857  14.638  10.208
 2425ETHY    C1 2341   9.011  14.666  10.713
 2426ETHY    C1 2342   9.171  14.790  11.212
 2427THSLK    S 2343   7.933  15.713   8.428
 2428ETHY    C1 2344   7.859  15.563   8.850
 2429ETHY    C1 2345   7.754  15.475   9.367
 2430ETHY    C1 2346   7.632  15.487   9.878
 2431ETHY    C1 2347   7.494  15.588  10.373
 2432ETHY    C1 2348   7.339  15.781  10.840
 2433ETHY    C1 2349   7.170  16.062  11.268
 2434AUSL   AUS 2350   8.346  15.759   8.176
 2435AUSL   AUS 2351   8.692  15.872   7.919
 2436AUL    AUL 2352   8.673  15.911   8.297
 2437THSLK    S 2353   8.431  15.815   8.410
 2438ETHY    C1 2354   8.505  16.096   8.759
 2439ETHY    C1 2355   8.610  16.351   9.217
 2440ETHY    C1 2356   8.732  16.510   9.703
 2441ETHY    C1 2357   8.871  16.579  10.204
 2442ETHY    C1 2358   9.025  16.552  10.708
 2443ETHY    C1 2359   9.194  16.428  11.206
 2444THSLK    S 2360   8.864  15.970   8.080
 2445ETHY    C1 2361   9.227  15.941   8.350
 2446ETHY    C1 2362   9.649  15.997   8.673
 2447ETHY    C1 2363  10.041  16.151   8.989
 2448ETHY    C1 2364  10.395  16.389   9.293
 2449ETHY    C1 2365  10.702  16.710   9.580
 2450ETHY    C1 2366  10.953  17.107   9.844
 2451AUSL   AUS 2367   8.591  15.607   6.923
 2452AUSL   AUS 2368   8.447  16.024   6.992
 2453AUL    AUL 2369   8.673  15.911   6.708
 2454THSLK    S 2370   8.693  15.555   6.687
 2455ETHY    C1 2371   8.906  15.335   6.351
 2456ETHY    C1 2372   9.171  15.158   5.923
 2457ETHY    C1 2373   9.443  15.082   5.479
 2458ETHY    C1 2374   9.717  15.099   5.033
 2459ETHY    C1 2375   9.988  15.212   4.594
 2460ETHY    C1 2376  10.253  15.421   4.173
 2461THSLK    S 2377   8.625  16.135   6.829
 2462ETHY    C1 2378   8.927  16.203   6.497
 2463ETHY    C1 2379   9.246  16.366   6.100
 2464ETHY    C1 2380   9.511  16.613   5.719
 2465ETHY    C1 2381   9.723  16.933   5.362
 2466ETHY    C1 2382   9.876  17.323   5.039
 2467ETHY    C1 2383   9.967  17.775   4.759
 2468AUSL   AUS 2384   8.346  15.456   6.829
 2469AUSL   AUS 2385   8.692  15.343   7.086
 2470AUL    AUL 2386   8.673  15.304   6.708
 2471THSLK    S 2387   8.825  15.151   6.949
 2472ETHY    C1 2388   9.008  14.784   6.752
 2473ETHY    C1 2389   9.280  14.412   6.483
 2474ETHY    C1 2390   9.605  14.123   6.186
 2475ETHY    C1 2391   9.971  13.916   5.874
 2476ETHY    C1 2392  10.375  13.797   5.555
 2477ETHY    C1 2393  10.808  13.772   5.235
 2478THSLK    S 2394   8.431  15.400   6.596
 2479ETHY    C1 2395   8.505  15.119   6.246
 2480ETHY    C1 2396   8.610  14.863   5.788
 2481ETHY    C1 2397   8.732  14.705   5.302
 2482ETHY    C1 2398   8.871  14.636   4.801
 2483ETHY    C1 2399   9.025  14.663   4.297
 2484ETHY    C1 2400   9.194  14.787   3.799
 2485AUSL   AUS 2401   8.346  15.759   6.829
 2486AUSL   AUS 2402   8.018  15.456   6.829
 2487AUL    AUL 2403   8.182  15.607   6.521
 2488THSLK    S 2404   7.926  15.400   6.597
 2489ETHY    C1 2405   7.791  15.122   6.264
 2490ETHY    C1 2406   7.630  14.869   5.822
 2491ETHY    C1 2407   7.478  14.712   5.343
 2492ETHY    C1 2408   7.342  14.643   4.842
 2493ETHY    C1 2409   7.225  14.669   4.328
 2494ETHY    C1 2410   7.132  14.788   3.810
 2495THSLK    S 2411   8.448  15.713   6.583
 2496ETHY    C1 2412   8.594  15.563   6.179
 2497ETHY    C1 2413   8.756  15.472   5.678
 2498ETHY    C1 2414   8.903  15.482   5.173
 2499ETHY    C1 2415   9.036  15.583   4.677
 2500ETHY    C1 2416   9.153  15.778   4.200
 2501ETHY    C1 2417   9.254  16.064   3.754
 2502AUSL   AUS 2418   7.773  15.607   8.083
 2503AUSL   AUS 2419   7.917  16.024   8.013
 2504AUL    AUL 2420   7.691  15.911   8.297
 2505THSLK    S 2421   7.671  15.555   8.319
 2506ETHY    C1 2422   7.459  15.335   8.654
 2507ETHY    C1 2423   7.193  15.158   9.082
 2508ETHY    C1 2424   6.921  15.082   9.526
 2509ETHY    C1 2425   6.647  15.099   9.973
 2510ETHY    C1 2426   6.376  15.212  10.411
 2511ETHY    C1 2427   6.111  15.421  10.832
 2512THSLK    S 2428   7.800  16.148   8.202
 2513ETHY    C1 2429   7.757  16.291   8.632
 2514ETHY    C1 2430   7.646  16.516   9.104
 2515ETHY    C1 2431   7.470  16.793   9.515
 2516ETHY    C1 2432   7.239  17.109   9.863
 2517ETHY    C1 2433   6.953  17.457  10.138
 2518ETHY    C1 2434   6.616  17.830  10.334
 2519AUSL   AUS 2435   8.018  15.456   8.176
 2520AUSL   AUS 2436   7.672  15.343   7.919
 2521AUL    AUL 2437   7.691  15.304   8.297
 2522THSLK    S 2438   7.495  15.180   8.026
 2523ETHY    C1 2439   7.124  14.923   8.082
 2524ETHY    C1 2440   6.702  14.635   8.237
 2525ETHY    C1 2441   6.312  14.380   8.482
 2526ETHY    C1 2442   5.960  14.163   8.803
 2527ETHY    C1 2443   5.654  13.992   9.198
 2528ETHY    C1 2444   5.397  13.871   9.657
 2529THSLK    S 2445   7.916  15.402   8.406
 2530ETHY    C1 2446   7.770  15.126   8.736
 2531ETHY    C1 2447   7.608  14.874   9.178
 2532ETHY    C1 2448   7.461  14.716   9.658
 2533ETHY    C1 2449   7.328  14.646  10.160
 2534ETHY    C1 2450   7.211  14.672  10.674
 2535ETHY    C1 2451   7.110  14.793  11.190
 2536AUSL   AUS 2452   7.773  15.607   6.923
 2537AUSL   AUS 2453   7.917  15.191   6.992
 2538AUL    AUL 2454   7.691  15.304   6.708
 2539THSLK    S 2455   7.680  15.555   6.681
 2540ETHY    C1 2456   7.476  15.335   6.341
 2541ETHY    C1 2457   7.212  15.158   5.911
 2542ETHY    C1 2458   6.936  15.082   5.470
 2543ETHY    C1 2459   6.659  15.099   5.025
 2544ETHY    C1 2460   6.389  15.212   4.586
 2545ETHY    C1 2461   6.130  15.421   4.161
 2546THSLK    S 2462   7.746  15.018   6.878
 2547ETHY    C1 2463   7.451  14.692   6.760
 2548ETHY    C1 2464   7.133  14.325   6.538
 2549ETHY    C1 2465   6.865  13.990   6.233
 2550ETHY    C1 2466   6.651  13.690   5.861
 2551ETHY    C1 2467   6.499  13.432   5.426
 2552ETHY    C1 2468   6.413  13.220   4.937
 2553AUSL   AUS 2469   8.018  15.759   6.829
 2554AUSL   AUS 2470   7.672  15.872   7.086
 2555AUL    AUL 2471   7.691  15.911   6.708
 2556THSLK    S 2472   7.545  15.999   6.895
 2557ETHY    C1 2473   7.368  16.080   6.484
 2558ETHY    C1 2474   7.097  16.220   6.046
 2559ETHY    C1 2475   6.770  16.408   5.679
 2560ETHY    C1 2476   6.401  16.637   5.385
 2561ETHY    C1 2477   5.999  16.904   5.173
 2562ETHY    C1 2478   5.570  17.206   5.047
 2563THSLK    S 2479   7.943  15.715   6.576
 2564ETHY    C1 2480   7.879  15.568   6.150
 2565ETHY    C1 2481   7.776  15.479   5.634
 2566ETHY    C1 2482   7.649  15.490   5.123
 2567ETHY    C1 2483   7.507  15.591   4.629
 2568ETHY    C1 2484   7.354  15.784   4.162
 2569ETHY    C1 2485   7.193  16.067   3.732
 2570AUSL   AUS 2486   8.762  16.016   7.503
 2571AUSL   AUS 2487   8.692  15.872   7.086
 2572AUL    AUL 2488   8.976  16.098   7.199
 2573THSLK    S 2489   8.870  15.971   6.934
 2574ETHY    C1 2490   9.240  15.944   6.671
 2575ETHY    C1 2491   9.662  16.000   6.349
 2576ETHY    C1 2492  10.052  16.154   6.030
 2577ETHY    C1 2493  10.404  16.391   5.724
 2578ETHY    C1 2494  10.711  16.712   5.438
 2579ETHY    C1 2495  10.967  17.111   5.179
 2580THSLK    S 2496   9.028  16.069   7.508
 2581ETHY    C1 2497   9.482  16.091   7.513
 2582ETHY    C1 2498  10.004  16.205   7.514
 2583ETHY    C1 2499  10.487  16.414   7.511
 2584ETHY    C1 2500  10.923  16.704   7.510
 2585ETHY    C1 2501  11.302  17.071   7.510
 2586ETHY    C1 2502  11.616  17.511   7.514
 2587AUSL   AUS 2503   8.856  15.771   7.351
 2588AUSL   AUS 2504   8.856  15.444   7.654
 2589AUL    AUL 2505   9.164  15.607   7.503
 2590THSLK    S 2506   9.112  15.810   7.350
 2591ETHY    C1 2507   9.548  15.702   7.286
 2592ETHY    C1 2508  10.074  15.664   7.201
 2593ETHY    C1 2509  10.589  15.728   7.113
 2594ETHY    C1 2510  11.083  15.882   7.026
 2595ETHY    C1 2511  11.543  16.127   6.945
 2596ETHY    C1 2512  11.962  16.459   6.873
 2597THSLK    S 2513   9.083  15.304   7.663
 2598ETHY    C1 2514   9.402  14.988   7.728
 2599ETHY    C1 2515   9.835  14.684   7.807
 2600ETHY    C1 2516  10.310  14.474   7.887
 2601ETHY    C1 2517  10.813  14.353   7.971
 2602ETHY    C1 2518  11.333  14.327   8.058
 2603ETHY    C1 2519  11.861  14.397   8.147
 2604AUSL   AUS 2520   8.856  15.771   7.654
 2605AUSL   AUS 2521   8.598  16.118   7.767
 2606AUL    AUL 2522   8.976  16.098   7.806
 2607THSLK    S 2523   8.781  16.232   7.926
 2608ETHY    C1 2524   9.164  16.350   8.140
 2609ETHY    C1 2525   9.582  16.573   8.388
 2610ETHY    C1 2526   9.941  16.878   8.622
 2611ETHY    C1 2527  10.238  17.251   8.840
 2612ETHY    C1 2528  10.463  17.685   9.038
 2613ETHY    C1 2529  10.610  18.173   9.215
 2614THSLK    S 2530   9.110  15.810   7.665
 2615ETHY    C1 2531   9.545  15.702   7.740
 2616ETHY    C1 2532  10.071  15.664   7.826
 2617ETHY    C1 2533  10.586  15.727   7.910
 2618ETHY    C1 2534  11.080  15.881   7.993
 2619ETHY    C1 2535  11.541  16.126   8.075
 2620ETHY    C1 2536  11.958  16.458   8.155
 2621AUSL   AUS 2537   7.602  16.016   7.503
 2622AUSL   AUS 2538   7.672  15.872   7.919
 2623AUL    AUL 2539   7.388  16.098   7.806
 2624THSLK    S 2540   7.539  15.991   8.109
 2625ETHY    C1 2541   7.356  16.063   8.519
 2626ETHY    C1 2542   7.084  16.203   8.957
 2627ETHY    C1 2543   6.759  16.394   9.324
 2628ETHY    C1 2544   6.393  16.625   9.619
 2629ETHY    C1 2545   5.990  16.892   9.831
 2630ETHY    C1 2546   5.556  17.188   9.956
 2631THSLK    S 2547   7.391  16.157   7.508
 2632ETHY    C1 2548   7.169  16.554   7.513
 2633ETHY    C1 2549   6.833  16.969   7.514
 2634ETHY    C1 2550   6.430  17.308   7.511
 2635ETHY    C1 2551   5.976  17.569   7.510
 2636ETHY    C1 2552   5.477  17.743   7.510
 2637ETHY    C1 2553   4.944  17.827   7.514
 2638AUSL   AUS 2554   7.508  15.771   7.351
 2639AUSL   AUS 2555   7.766  16.118   7.238
 2640AUL    AUL 2556   7.388  16.098   7.199
 2641THSLK    S 2557   7.281  15.886   7.303
 2642ETHY    C1 2558   6.962  16.086   7.049
 2643ETHY    C1 2559   6.529  16.292   6.813
 2644ETHY    C1 2560   6.054  16.458   6.661
 2645ETHY    C1 2561   5.551  16.587   6.590
 2646ETHY    C1 2562   5.031  16.677   6.605
 2647ETHY    C1 2563   4.503  16.725   6.708
 2648THSLK    S 2564   7.654  16.281   7.060
 2649ETHY    C1 2565   7.575  16.591   6.737
 2650ETHY    C1 2566   7.400  16.965   6.397
 2651ETHY    C1 2567   7.146  17.333   6.120
 2652ETHY    C1 2568   6.826  17.690   5.909
 2653ETHY    C1 2569   6.445  18.028   5.770
 2654ETHY    C1 2570   6.010  18.342   5.709
 2655AUSL   AUS 2571   7.508  15.771   7.654
 2656AUSL   AUS 2572   7.508  15.444   7.351
 2657AUL    AUL 2573   7.200  15.607   7.503
 2658THSLK    S 2574   7.254  15.371   7.394
 2659ETHY    C1 2575   6.819  15.353   7.524
 2660ETHY    C1 2576   6.293  15.293   7.597
 2661ETHY    C1 2577   5.778  15.189   7.578
 2662ETHY    C1 2578   5.284  15.046   7.477
 2663ETHY    C1 2579   4.824  14.863   7.294
 2664ETHY    C1 2580   4.406  14.643   7.034
 2665THSLK    S 2581   7.280  15.877   7.707
 2666ETHY    C1 2582   6.959  16.068   7.966
 2667ETHY    C1 2583   6.526  16.272   8.202
 2668ETHY    C1 2584   6.051  16.443   8.352
 2669ETHY    C1 2585   5.549  16.575   8.422
 2670ETHY    C1 2586   5.029  16.663   8.407
 2671ETHY    C1 2587   4.500  16.704   8.308
 2672AUSL   AUS 2588   8.762  15.198   7.503
 2673AUSL   AUS 2589   8.692  15.343   7.919
 2674AUL    AUL 2590   8.976  15.117   7.806
 2675THSLK    S 2591   8.973  15.057   7.508
 2676ETHY    C1 2592   9.195  14.661   7.513
 2677ETHY    C1 2593   9.531  14.246   7.514
 2678ETHY    C1 2594   9.934  13.907   7.511
 2679ETHY    C1 2595  10.388  13.646   7.510
 2680ETHY    C1 2596  10.887  13.472   7.510
 2681ETHY    C1 2597  11.420  13.388   7.514
 2682THSLK    S 2598   8.819  15.152   8.064
 2683ETHY    C1 2599   8.996  14.787   8.270
 2684ETHY    C1 2600   9.267  14.415   8.540
 2685ETHY    C1 2601   9.594  14.126   8.834
 2686ETHY    C1 2602   9.963  13.918   9.142
 2687ETHY    C1 2603  10.365  13.800   9.462
 2688ETHY    C1 2604  10.794  13.775   9.789
 2689AUSL   AUS 2605   8.856  15.444   7.351
 2690AUSL   AUS 2606   8.598  15.097   7.238
 2691AUL    AUL 2607   8.976  15.117   7.199
 2692THSLK    S 2608   9.084  15.304   7.353
 2693ETHY    C1 2609   9.405  14.987   7.298
 2694ETHY    C1 2610   9.838  14.684   7.221
 2695ETHY    C1 2611  10.313  14.474   7.136
 2696ETHY    C1 2612  10.815  14.353   7.048
 2697ETHY    C1 2613  11.335  14.326   6.963
 2698ETHY    C1 2614  11.864  14.397   6.881
 2699THSLK    S 2615   8.714  14.908   7.108
 2700ETHY    C1 2616   8.798  14.479   6.984
 2701ETHY    C1 2617   8.973  14.007   6.803
 2702ETHY    C1 2618   9.226  13.596   6.593
 2703ETHY    C1 2619   9.544  13.248   6.366
 2704ETHY    C1 2620   9.926  12.973   6.126
 2705ETHY    C1 2621  10.364  12.776   5.880
 2706AUSL   AUS 2622   7.602  15.198   7.503
 2707AUSL   AUS 2623   7.672  15.343   7.086
 2708AUL    AUL 2624   7.388  15.117   7.199
 2709THSLK    S 2625   7.501  15.172   6.978
 2710ETHY    C1 2626   7.137  14.907   6.921
 2711ETHY    C1 2627   6.715  14.617   6.766
 2712ETHY    C1 2628   6.323  14.365   6.521
 2713ETHY    C1 2629   5.969  14.152   6.200
 2714ETHY    C1 2630   5.662  13.979   5.806
 2715ETHY    C1 2631   5.411  13.852   5.346
 2716THSLK    S 2632   7.336  15.146   7.508
 2717ETHY    C1 2633   6.882  15.124   7.513
 2718ETHY    C1 2634   6.360  15.010   7.514
 2719ETHY    C1 2635   5.878  14.801   7.511
 2720ETHY    C1 2636   5.441  14.511   7.510
 2721ETHY    C1 2637   5.062  14.144   7.510
 2722ETHY    C1 2638   4.749  13.704   7.514
 2723AUSL   AUS 2639   7.508  15.444   7.654
 2724AUSL   AUS 2640   7.766  15.097   7.767
 2725AUL    AUL 2641   7.388  15.117   7.806
 2726THSLK    S 2642   7.578  14.957   7.878
 2727ETHY    C1 2643   7.191  14.720   7.893
 2728ETHY    C1 2644   6.773  14.400   7.982
 2729ETHY    C1 2645   6.415  14.051   8.149
 2730ETHY    C1 2646   6.120  13.687   8.382
 2731ETHY    C1 2647   5.895  13.316   8.683
 2732ETHY    C1 2648   5.744  12.945   9.045
 2733THSLK    S 2649   7.252  15.381   7.616
 2734ETHY    C1 2650   6.816  15.371   7.491
 2735ETHY    C1 2651   6.290  15.312   7.419
 2736ETHY    C1 2652   5.775  15.205   7.436
 2737ETHY    C1 2653   5.281  15.059   7.535
 2738ETHY    C1 2654   4.821  14.877   7.718
 2739ETHY    C1 2655   4.402  14.664   7.983
 2740AUSL   AUS 2656   8.182  16.187   7.912
 2741AUSL   AUS 2657   7.766  16.118   7.767
 2742AUL    AUL 2658   7.879  16.402   7.993
 2743THSLK    S 2659   7.650  16.274   7.952
 2744ETHY    C1 2660   7.566  16.576   8.280
 2745ETHY    C1 2661   7.391  16.949   8.621
 2746ETHY    C1 2662   7.138  17.320   8.895
 2747ETHY    C1 2663   6.820  17.679   9.105
 2748ETHY    C1 2664   6.438  18.017   9.244
 2749ETHY    C1 2665   6.000  18.325   9.309
 2750THSLK    S 2666   8.224  16.409   8.035
 2751ETHY    C1 2667   8.408  16.684   8.347
 2752ETHY    C1 2668   8.558  17.064   8.691
 2753ETHY    C1 2669   8.624  17.487   8.998
 2754ETHY    C1 2670   8.611  17.938   9.264
 2755ETHY    C1 2671   8.514  18.407   9.485
 2756ETHY    C1 2672   8.334  18.886   9.656
 2757AUSL   AUS 2673   8.030  16.281   7.666
 2758AUSL   AUS 2674   8.334  16.281   7.339
 2759AUL    AUL 2675   8.182  16.589   7.503
 2760THSLK    S 2676   8.073  16.525   7.776
 2761ETHY    C1 2677   8.217  16.919   7.951
 2762ETHY    C1 2678   8.304  17.413   8.137
 2763ETHY    C1 2679   8.292  17.914   8.294
 2764ETHY    C1 2680   8.191  18.412   8.425
 2765ETHY    C1 2681   7.999  18.893   8.527
 2766ETHY    C1 2682   7.719  19.348   8.600
 2767THSLK    S 2683   8.389  16.512   7.243
 2768ETHY    C1 2684   8.665  16.842   7.096
 2769ETHY    C1 2685   8.915  17.283   6.927
 2770ETHY    C1 2686   9.071  17.760   6.771
 2771ETHY    C1 2687   9.140  18.262   6.635
 2772ETHY    C1 2688   9.116  18.778   6.525
 2773ETHY    C1 2689   8.999  19.298   6.443
 2774AUSL   AUS 2690   8.334  16.281   7.666
 2775AUSL   AUS 2691   8.447  16.024   8.013
 2776AUL    AUL 2692   8.485  16.402   7.993
 2777THSLK    S 2693   8.618  16.132   8.183
 2778ETHY    C1 2694   8.913  16.197   8.523
 2779ETHY    C1 2695   9.231  16.359   8.920
 2780ETHY    C1 2696   9.499  16.608   9.298
 2781ETHY    C1 2697   9.713  16.930   9.653
 2782ETHY    C1 2698   9.865  17.318   9.976
 2783ETHY    C1 2699   9.951  17.768  10.262
 2784THSLK    S 2700   8.387  16.510   7.772
 2785ETHY    C1 2701   8.659  16.838   7.929
 2786ETHY    C1 2702   8.909  17.278   8.100
 2787ETHY    C1 2703   9.067  17.757   8.251
 2788ETHY    C1 2704   9.136  18.259   8.383
 2789ETHY    C1 2705   9.112  18.774   8.494
 2790ETHY    C1 2706   8.993  19.293   8.585
 2791AUSL   AUS 2707   8.182  15.027   7.912
 2792AUSL   AUS 2708   8.598  15.097   7.767
 2793AUL    AUL 2709   8.485  14.813   7.993
 2794THSLK    S 2710   8.135  14.777   7.989
 2795ETHY    C1 2711   7.945  14.381   8.103
 2796ETHY    C1 2712   7.794  13.903   8.289
 2797ETHY    C1 2713   7.731  13.438   8.528
 2798ETHY    C1 2714   7.746  12.996   8.809
 2799ETHY    C1 2715   7.842  12.589   9.132
 2800ETHY    C1 2716   8.017  12.226   9.489
 2801THSLK    S 2717   8.710  14.910   7.907
 2802ETHY    C1 2718   8.789  14.482   8.040
 2803ETHY    C1 2719   8.964  14.012   8.222
 2804ETHY    C1 2720   9.218  13.600   8.428
 2805ETHY    C1 2721   9.538  13.251   8.652
 2806ETHY    C1 2722   9.919  12.976   8.893
 2807ETHY    C1 2723  10.354  12.780   9.147
 2808AUSL   AUS 2724   8.030  14.934   7.666
 2809AUSL   AUS 2725   7.917  15.191   8.013
 2810AUL    AUL 2726   7.879  14.813   7.993
 2811THSLK    S 2727   7.975  14.698   7.745
 2812ETHY    C1 2728   7.700  14.339   7.788
 2813ETHY    C1 2729   7.449  13.874   7.869
 2814ETHY    C1 2730   7.293  13.384   7.981
 2815ETHY    C1 2731   7.224  12.885   8.122
 2816ETHY    C1 2732   7.248  12.385   8.292
 2817ETHY    C1 2733   7.365  11.897   8.489
 2818THSLK    S 2734   7.739  15.025   8.129
 2819ETHY    C1 2735   7.437  14.707   8.248
 2820ETHY    C1 2736   7.118  14.340   8.471
 2821ETHY    C1 2737   6.853  14.003   8.776
 2822ETHY    C1 2738   6.641  13.701   9.147
 2823ETHY    C1 2739   6.488  13.443   9.582
 2824ETHY    C1 2740   6.397  13.236  10.072
 2825AUSL   AUS 2741   8.334  14.934   7.666
 2826AUSL   AUS 2742   8.030  14.934   7.339
 2827AUL    AUL 2743   8.182  14.626   7.503
 2828THSLK    S 2744   7.977  14.695   7.270
 2829ETHY    C1 2745   7.705  14.333   7.236
 2830ETHY    C1 2746   7.455  13.868   7.157
 2831ETHY    C1 2747   7.298  13.379   7.041
 2832ETHY    C1 2748   7.228  12.880   6.896
 2833ETHY    C1 2749   7.252  12.381   6.727
 2834ETHY    C1 2750   7.371  11.890   6.538
 2835THSLK    S 2751   8.288  14.682   7.749
 2836ETHY    C1 2752   8.141  14.256   7.811
 2837ETHY    C1 2753   8.055  13.738   7.906
 2838ETHY    C1 2754   8.067  13.225   8.025
 2839ETHY    C1 2755   8.169  12.730   8.165
 2840ETHY    C1 2756   8.361  12.265   8.325
 2841ETHY    C1 2757   8.639  11.839   8.504
 2842AUSL   AUS 2758   8.182  16.187   7.094
 2843AUSL   AUS 2759   8.598  16.118   7.238
 2844AUL    AUL 2760   8.485  16.402   7.012
 2845THSLK    S 2761   8.229  16.414   6.977
 2846ETHY    C1 2762   8.419  16.693   6.674
 2847ETHY    C1 2763   8.570  17.074   6.330
 2848ETHY    C1 2764   8.634  17.494   6.021
 2849ETHY    C1 2765   8.618  17.944   5.752
 2850ETHY    C1 2766   8.522  18.414   5.532
 2851ETHY    C1 2767   8.347  18.897   5.366
 2852THSLK    S 2768   8.786  16.234   7.089
 2853ETHY    C1 2769   9.173  16.354   6.883
 2854ETHY    C1 2770   9.591  16.577   6.637
 2855ETHY    C1 2771   9.949  16.881   6.400
 2856ETHY    C1 2772  10.244  17.253   6.178
 2857ETHY    C1 2773  10.469  17.688   5.981
 2858ETHY    C1 2774  10.620  18.177   5.811
 2859AUSL   AUS 2775   8.030  16.281   7.339
 2860AUSL   AUS 2776   7.917  16.024   6.992
 2861AUL    AUL 2777   7.879  16.402   7.012
 2862THSLK    S 2778   8.076  16.528   7.239
 2863ETHY    C1 2779   8.223  16.925   7.074
 2864ETHY    C1 2780   8.309  17.419   6.889
 2865ETHY    C1 2781   8.297  17.920   6.727
 2866ETHY    C1 2782   8.195  18.416   6.593
 2867ETHY    C1 2783   8.003  18.897   6.492
 2868ETHY    C1 2784   7.725  19.355   6.427
 2869THSLK    S 2785   7.807  16.156   6.805
 2870ETHY    C1 2786   7.771  16.305   6.377
 2871ETHY    C1 2787   7.661  16.531   5.906
 2872ETHY    C1 2788   7.483  16.806   5.494
 2873ETHY    C1 2789   7.249  17.119   5.145
 2874ETHY    C1 2790   6.963  17.468   4.870
 2875ETHY    C1 2791   6.632  17.846   4.675
 2876AUSL   AUS 2792   8.182  15.027   7.094
 2877AUSL   AUS 2793   7.766  15.097   7.238
 2878AUL    AUL 2794   7.879  14.813   7.012
 2879THSLK    S 2795   7.583  14.949   7.134
 2880ETHY    C1 2796   7.200  14.705   7.124
 2881ETHY    C1 2797   6.782  14.384   7.035
 2882ETHY    C1 2798   6.423  14.038   6.866
 2883ETHY    C1 2799   6.126  13.677   6.631
 2884ETHY    C1 2800   5.901  13.305   6.331
 2885ETHY    C1 2801   5.754  12.928   5.974
 2886THSLK    S 2802   8.140  14.772   7.024
 2887ETHY    C1 2803   7.956  14.371   6.917
 2888ETHY    C1 2804   7.806  13.893   6.732
 2889ETHY    C1 2805   7.740  13.430   6.491
 2890ETHY    C1 2806   7.753  12.990   6.206
 2891ETHY    C1 2807   7.850  12.583   5.885
 2892ETHY    C1 2808   8.030  12.215   5.533
 2893AUSL   AUS 2809   8.334  14.934   7.339
 2894AUSL   AUS 2810   8.447  15.191   6.992
 2895AUL    AUL 2811   8.485  14.813   7.012
 2896THSLK    S 2812   8.291  14.680   7.266
 2897ETHY    C1 2813   8.147  14.252   7.213
 2898ETHY    C1 2814   8.060  13.733   7.120
 2899ETHY    C1 2815   8.072  13.221   6.997
 2900ETHY    C1 2816   8.173  12.727   6.854
 2901ETHY    C1 2817   8.365  12.262   6.695
 2902ETHY    C1 2818   8.645  11.834   6.523
 2903THSLK    S 2819   8.564  15.001   6.859
 2904ETHY    C1 2820   8.608  14.599   6.651
 2905ETHY    C1 2821   8.718  14.168   6.355
 2906ETHY    C1 2822   8.894  13.805   6.017
 2907ETHY    C1 2823   9.125  13.511   5.651
 2908ETHY    C1 2824   9.411  13.294   5.264
 2909ETHY    C1 2825   9.748  13.158   4.865
 2910AUC    AUC 2826  12.042  33.110   7.503
 2911AUC    AUC 2827  12.287  33.110   7.351
 2912AUC    AUC 2828  12.287  33.110   7.654
 2913AUC    AUC 2829  11.797  33.110   7.351
 2914AUC    AUC 2830  11.797  33.110   7.654
 2915AUC    AUC 2831  11.890  33.356   7.503
 2916AUC    AUC 2832  12.194  33.356   7.503
 2917AUC    AUC 2833  11.890  32.865   7.503
 2918AUC    AUC 2834  12.194  32.865   7.503
 2919AUC    AUC 2835  12.042  32.959   7.748
 2920AUC    AUC 2836  12.042  33.262   7.748
 2921AUC    AUC 2837  12.042  32.959   7.257
 2922AUC    AUC 2838  12.042  33.262   7.257
 2923AUC    AUC 2839  12.533  33.110   7.199
 2924AUC    AUC 2840  12.533  33.110   7.503
 2925AUC    AUC 2841  12.533  33.110   7.806
 2926AUC    AUC 2842  11.551  33.110   7.199
 2927AUC    AUC 2843  11.551  33.110   7.503
 2928AUC    AUC 2844  11.551  33.110   7.806
 2929AUC    AUC 2845  11.739  33.601   7.503
 2930AUC    AUC 2846  12.042  33.601   7.503
 2931AUC    AUC 2847  12.345  33.601   7.503
 2932AUC    AUC 2848  11.739  32.620   7.503
 2933AUC    AUC 2849  12.042  32.620   7.503
 2934AUC    AUC 2850  12.345  32.620   7.503
 2935AUC    AUC 2851  12.042  32.807   7.993
 2936AUC    AUC 2852  12.042  33.110   7.993
 2937AUC    AUC 2853  12.042  33.414   7.993
 2938AUC    AUC 2854  12.042  32.807   7.012
 2939AUC    AUC 2855  12.042  33.110   7.012
 2940AUC    AUC 2856  12.042  33.414   7.012
 2941AUC    AUC 2857  12.287  32.959   7.900
 2942AUC    AUC 2858  12.287  33.262   7.900
 2943AUC    AUC 2859  12.287  32.959   7.106
 2944AUC    AUC 2860  12.287  33.262   7.106
 2945AUC    AUC 2861  11.797  32.959   7.900
 2946AUC    AUC 2862  11.797  33.262   7.900
 2947AUC    AUC 2863  11.797  32.959   7.106
 2948AUC    AUC 2864  11.797  33.262   7.106
 2949AUC    AUC 2865  12.439  33.356   7.351
 2950AUC    AUC 2866  12.439  33.356   7.654
 2951AUC    AUC 2867  11.645  33.356   7.351
 2952AUC    AUC 2868  11.645  33.356   7.654
 2953AUC    AUC 2869  12.439  32.865   7.351
 2954AUC    AUC 2870  12.439  32.865   7.654
 2955AUC    AUC 2871  11.645  32.865   7.351
 2956AUC    AUC 2872  11.645  32.865   7.654
 2957AUC    AUC 2873  11.890  33.508   7.748
 2958AUC    AUC 2874  12.194  33.508   7.748
 2959AUC    AUC 2875  11.890  32.713   7.748
 2960AUC    AUC 2876  12.194  32.713   7.748
 2961AUC    AUC 2877  11.890  33.508   7.257
 2962AUC    AUC 2878  12.194  33.508   7.257
 2963AUC    AUC 2879  11.890  32.713   7.257
 2964AUC    AUC 2880  12.194  32.713   7.257
 2965AUSL   AUS 2881  12.451  33.110   8.083
 2966AUSL   AUS 2882  12.307  32.694   8.013
 2967AUL    AUL 2883  12.533  32.807   8.297
 2968THSLK    S 2884  12.417  32.507   8.153
 2969ETHY    C1 2885  12.453  32.108   8.368
 2970ETHY    C1 2886  12.563  31.678   8.665
 2971ETHY    C1 2887  12.741  31.314   9.000
 2972ETHY    C1 2888  12.975  31.018   9.364
 2973ETHY    C1 2889  13.261  30.801   9.752
 2974ETHY    C1 2890  13.592  30.668  10.156
 2975THSLK    S 2891  12.544  33.058   8.324
 2976ETHY    C1 2892  12.748  32.838   8.665
 2977ETHY    C1 2893  13.012  32.661   9.094
 2978ETHY    C1 2894  13.288  32.585   9.535
 2979ETHY    C1 2895  13.565  32.602   9.980
 2980ETHY    C1 2896  13.835  32.715  10.419
 2981ETHY    C1 2897  14.094  32.924  10.845
 2982AUSL   AUS 2898  12.206  32.959   8.176
 2983AUSL   AUS 2899  11.878  33.262   8.176
 2984AUL    AUL 2900  12.042  33.110   8.484
 2985THSLK    S 2901  12.281  32.904   8.413
 2986ETHY    C1 2902  12.345  32.624   8.765
 2987ETHY    C1 2903  12.448  32.369   9.223
 2988ETHY    C1 2904  12.575  32.210   9.708
 2989ETHY    C1 2905  12.717  32.141  10.208
 2990ETHY    C1 2906  12.871  32.169  10.713
 2991ETHY    C1 2907  13.031  32.293  11.212
 2992THSLK    S 2908  11.793  33.216   8.428
 2993ETHY    C1 2909  11.719  33.066   8.850
 2994ETHY    C1 2910  11.614  32.978   9.367
 2995ETHY    C1 2911  11.492  32.990   9.878
 2996ETHY    C1 2912  11.354  33.091  10.373
 2997ETHY    C1 2913  11.199  33.284  10.840
 2998ETHY    C1 2914  11.030  33.565  11.268
 2999AUSL   AUS 2915  12.206  33.262   8.176
 3000AUSL   AUS 2916  12.552  33.375   7.919
 3001AUL    AUL 2917  12.533  33.414   8.297
 3002THSLK    S 2918  12.291  33.318   8.410
 3003ETHY    C1 2919  12.365  33.599   8.759
 3004ETHY    C1 2920  12.470  33.854   9.217
 3005ETHY    C1 2921  12.592  34.013   9.703
 3006ETHY    C1 2922  12.731  34.082  10.204
 3007ETHY    C1 2923  12.885  34.055  10.708
 3008ETHY    C1 2924  13.054  33.931  11.206
 3009THSLK    S 2925  12.724  33.473   8.080
 3010ETHY    C1 2926  13.087  33.444   8.350
 3011ETHY    C1 2927  13.509  33.500   8.673
 3012ETHY    C1 2928  13.901  33.654   8.989
 3013ETHY    C1 2929  14.255  33.892   9.293
 3014ETHY    C1 2930  14.562  34.213   9.580
 3015ETHY    C1 2931  14.813  34.610   9.844
 3016AUSL   AUS 2932  12.451  33.110   6.923
 3017AUSL   AUS 2933  12.307  33.527   6.992
 3018AUL    AUL 2934  12.533  33.414   6.708
 3019THSLK    S 2935  12.553  33.058   6.687
 3020ETHY    C1 2936  12.766  32.838   6.351
 3021ETHY    C1 2937  13.031  32.661   5.923
 3022ETHY    C1 2938  13.303  32.585   5.479
 3023ETHY    C1 2939  13.577  32.602   5.033
 3024ETHY    C1 2940  13.848  32.715   4.594
 3025ETHY    C1 2941  14.113  32.924   4.173
 3026THSLK    S 2942  12.485  33.638   6.829
 3027ETHY    C1 2943  12.787  33.706   6.497
 3028ETHY    C1 2944  13.106  33.869   6.100
 3029ETHY    C1 2945  13.371  34.116   5.719
 3030ETHY    C1 2946  13.583  34.436   5.362
 3031ETHY    C1 2947  13.736  34.826   5.039
 3032ETHY    C1 2948  13.827  35.278   4.759
 3033AUSL   AUS 2949  12.206  32.959   6.829
 3034AUSL   AUS 2950  12.552  32.846   7.086
 3035AUL    AUL 2951  12.533  32.807   6.708
 3036THSLK    S 2952  12.685  32.654   6.949
 3037ETHY    C1 2953  12.868  32.287   6.752
 3038ETHY    C1 2954  13.140  31.915   6.483
 3039ETHY    C1 2955  13.465  31.626   6.186
 3040ETHY    C1 2956  13.831  31.419   5.874
 3041ETHY    C1 2957  14.235  31.300   5.555
 3042ETHY    C1 2958  14.668  31.275   5.235
 3043THSLK    S 2959  12.291  32.903   6.596
 3044ETHY    C1 2960  12.365  32.622   6.246
 3045ETHY    C1 2961  12.470  32.366   5.788
 3046ETHY    C1 2962  12.592  32.208   5.302
 3047ETHY    C1 2963  12.731  32.139   4.801
 3048ETHY    C1 2964  12.885  32.166   4.297
 3049ETHY    C1 2965  13.054  32.290   3.799
 3050AUSL   AUS 2966  12.206  33.262   6.829
 3051AUSL   AUS 2967  11.878  32.959   6.829
 3052AUL    AUL 2968  12.042  33.110   6.521
 3053THSLK    S 2969  11.786  32.903   6.597
 3054ETHY    C1 2970  11.651  32.625   6.264
 3055ETHY    C1 2971  11.490  32.372   5.822
 3056ETHY    C1 2972  11.338  32.215   5.343
 3057ETHY    C1 2973  11.202  32.146   4.842
 3058ETHY    C1 2974  11.085  32.172   4.328
 3059ETHY    C1 2975  10.992  32.291   3.810
 3060THSLK    S 2976  12.308  33.216   6.583
 3061ETHY    C1 2977  12.454  33.066   6.179
 3062ETHY    C1 2978  12.616  32.975   5.678
 3063ETHY    C1 2979  12.763  32.985   5.173
 3064ETHY    C1 2980  12.896  33.086   4.677
 3065ETHY    C1 2981  13.013  33.281   4.200
 3066ETHY    C1 2982  13.114  33.567   3.754
 3067AUSL   AUS 2983  11.633  33.110   8.083
 3068AUSL   AUS 2984  11.777  33.527   8.013
 3069AUL    AUL 2985  11.551  33.414   8.297
 3070THSLK    S 2986  11.531  33.058   8.319
 3071ETHY    C1 2987  11.319  32.838   8.654
 3072ETHY    C1 2988  11.053  32.661   9.082
 3073ETHY    C1 2989  10.781  32.585   9.526
 3074ETHY    C1 2990  10.507  32.602   9.973
 3075ETHY    C1 2991  10.236  32.715  10.411
 3076ETHY    C1 2992   9.971  32.924  10.832
 3077THSLK    S 2993  11.660  33.651   8.202
 3078ETHY    C1 2994  11.617  33.794   8.632
 3079ETHY    C1 2995  11.506  34.019   9.104
 3080ETHY    C1 2996  11.330  34.296   9.515
 3081ETHY    C1 2997  11.099  34.612   9.863
 3082ETHY    C1 2998  10.813  34.960  10.138
 3083ETHY    C1 2999  10.476  35.333  10.334
 3084AUSL   AUS 3000  11.878  32.959   8.176
 3085AUSL   AUS 3001  11.532  32.846   7.919
 3086AUL    AUL 3002  11.551  32.807   8.297
 3087THSLK    S 3003  11.355  32.683   8.026
 3088ETHY    C1 3004  10.984  32.426   8.082
 3089ETHY    C1 3005  10.562  32.138   8.237
 3090ETHY    C1 3006  10.172  31.883   8.482
 3091ETHY    C1 3007   9.820  31.666   8.803
 3092ETHY    C1 3008   9.514  31.495   9.198
 3093ETHY    C1 3009   9.257  31.374   9.657
 3094THSLK    S 3010  11.776  32.905   8.406
 3095ETHY    C1 3011  11.630  32.629   8.736
 3096ETHY    C1 3012  11.468  32.377   9.178
 3097ETHY    C1 3013  11.321  32.219   9.658
 3098ETHY    C1 3014  11.188  32.149  10.160
 3099ETHY    C1 3015  11.071  32.175  10.674
 3100ETHY    C1 3016  10.970  32.296  11.190
 3101AUSL   AUS 3017  11.633  33.110   6.923
 3102AUSL   AUS 3018  11.777  32.694   6.992
 3103AUL    AUL 3019  11.551  32.807   6.708
 3104THSLK    S 3020  11.540  33.058   6.681
 3105ETHY    C1 3021  11.336  32.838   6.341
 3106ETHY    C1 3022  11.072  32.661   5.911
 3107ETHY    C1 3023  10.796  32.585   5.470
 3108ETHY    C1 3024  10.519  32.602   5.025
 3109ETHY    C1 3025  10.249  32.715   4.586
 3110ETHY    C1 3026   9.990  32.924   4.161
 3111THSLK    S 3027  11.606  32.521   6.878
 3112ETHY    C1 3028  11.311  32.195   6.760
 3113ETHY    C1 3029  10.993  31.828   6.538
 3114ETHY    C1 3030  10.725  31.493   6.233
 3115ETHY    C1 3031  10.511  31.193   5.861
 3116ETHY    C1 3032  10.359  30.935   5.426
 3117ETHY    C1 3033  10.273  30.723   4.937
 3118AUSL   AUS 3034  11.878  33.262   6.829
 3119AUSL   AUS 3035  11.532  33.375   7.086
 3120AUL    AUL 3036  11.551  33.414   6.708
 3121THSLK    S 3037  11.405  33.502   6.895
 3122ETHY    C1 3038  11.228  33.583   6.484
 3123ETHY    C1 3039  10.957  33.723   6.046
 3124ETHY    C1 3040  10.630  33.911   5.679
 3125ETHY    C1 3041  10.261  34.140   5.385
 3126ETHY    C1 3042   9.859  34.407   5.173
 3127ETHY    C1 3043   9.430  34.709   5.047
 3128THSLK    S 3044  11.803  33.218   6.576
 3129ETHY    C1 3045  11.739  33.071   6.150
 3130ETHY    C1 3046  11.636  32.982   5.634
 3131ETHY    C1 3047  11.509  32.993   5.123
 3132ETHY    C1 3048  11.367  33.094   4.629
 3133ETHY    C1 3049  11.214  33.287   4.162
 3134ETHY    C1 3050  11.053  33.570   3.732
 3135AUSL   AUS 3051  12.622  33.519   7.503
 3136AUSL   AUS 3052  12.552  33.375   7.086
 3137AUL    AUL 3053  12.836  33.601   7.199
 3138THSLK    S 3054  12.730  33.474   6.934
 3139ETHY    C1 3055  13.100  33.447   6.671
 3140ETHY    C1 3056  13.522  33.503   6.349
 3141ETHY    C1 3057  13.912  33.657   6.030
 3142ETHY    C1 3058  14.264  33.894   5.724
 3143ETHY    C1 3059  14.571  34.215   5.438
 3144ETHY    C1 3060  14.827  34.614   5.179
 3145THSLK    S 3061  12.888  33.572   7.508
 3146ETHY    C1 3062  13.342  33.594   7.513
 3147ETHY    C1 3063  13.864  33.708   7.514
 3148ETHY    C1 3064  14.347  33.917   7.511
 3149ETHY    C1 3065  14.783  34.207   7.510
 3150ETHY    C1 3066  15.162  34.574   7.510
 3151ETHY    C1 3067  15.476  35.014   7.514
 3152AUSL   AUS 3068  12.716  33.274   7.351
 3153AUSL   AUS 3069  12.716  32.947   7.654
 3154AUL    AUL 3070  13.024  33.110   7.503
 3155THSLK    S 3071  12.972  33.313   7.350
 3156ETHY    C1 3072  13.408  33.205   7.286
 3157ETHY    C1 3073  13.934  33.167   7.201
 3158ETHY    C1 3074  14.449  33.231   7.113
 3159ETHY    C1 3075  14.943  33.385   7.026
 3160ETHY    C1 3076  15.403  33.630   6.945
 3161ETHY    C1 3077  15.822  33.962   6.873
 3162THSLK    S 3078  12.943  32.807   7.663
 3163ETHY    C1 3079  13.262  32.491   7.728
 3164ETHY    C1 3080  13.695  32.187   7.807
 3165ETHY    C1 3081  14.170  31.977   7.887
 3166ETHY    C1 3082  14.673  31.856   7.971
 3167ETHY    C1 3083  15.193  31.830   8.058
 3168ETHY    C1 3084  15.721  31.900   8.147
 3169AUSL   AUS 3085  12.716  33.274   7.654
 3170AUSL   AUS 3086  12.458  33.621   7.767
 3171AUL    AUL 3087  12.836  33.601   7.806
 3172THSLK    S 3088  12.641  33.735   7.926
 3173ETHY    C1 3089  13.024  33.853   8.140
 3174ETHY    C1 3090  13.442  34.076   8.388
 3175ETHY    C1 3091  13.801  34.381   8.622
 3176ETHY    C1 3092  14.098  34.754   8.840
 3177ETHY    C1 3093  14.323  35.188   9.038
 3178ETHY    C1 3094  14.470  35.676   9.215
 3179THSLK    S 3095  12.970  33.313   7.665
 3180ETHY    C1 3096  13.405  33.205   7.740
 3181ETHY    C1 3097  13.931  33.167   7.826
 3182ETHY    C1 3098  14.446  33.230   7.910
 3183ETHY    C1 3099  14.940  33.384   7.993
 3184ETHY    C1 3100  15.401  33.629   8.075
 3185ETHY    C1 3101  15.818  33.961   8.155
 3186AUSL   AUS 3102  11.462  33.519   7.503
 3187AUSL   AUS 3103  11.532  33.375   7.919
 3188AUL    AUL 3104  11.248  33.601   7.806
 3189THSLK    S 3105  11.399  33.494   8.109
 3190ETHY    C1 3106  11.216  33.566   8.519
 3191ETHY    C1 3107  10.944  33.706   8.957
 3192ETHY    C1 3108  10.619  33.897   9.324
 3193ETHY    C1 3109  10.253  34.128   9.619
 3194ETHY    C1 3110   9.850  34.395   9.831
 3195ETHY    C1 3111   9.416  34.691   9.956
 3196THSLK    S 3112  11.251  33.660   7.508
 3197ETHY    C1 3113  11.029  34.057   7.513
 3198ETHY    C1 3114  10.693  34.472   7.514
 3199ETHY    C1 3115  10.290  34.811   7.511
 3200ETHY    C1 3116   9.836  35.072   7.510
 3201ETHY    C1 3117   9.337  35.246   7.510
 3202ETHY    C1 3118   8.804  35.330   7.514
 3203AUSL   AUS 3119  11.368  33.274   7.351
 3204AUSL   AUS 3120  11.626  33.621   7.238
 3205AUL    AUL 3121  11.248  33.601   7.199
 3206THSLK    S 3122  11.141  33.389   7.303
 3207ETHY    C1 3123  10.822  33.589   7.049
 3208ETHY    C1 3124  10.389  33.795   6.813
 3209ETHY    C1 3125   9.914  33.961   6.661
 3210ETHY    C1 3126   9.411  34.090   6.590
 3211ETHY    C1 3127   8.891  34.180   6.605
 3212ETHY    C1 3128   8.363  34.228   6.708
 3213THSLK    S 3129  11.514  33.784   7.060
 3214ETHY    C1 3130  11.435  34.094   6.737
 3215ETHY    C1 3131  11.260  34.468   6.397
 3216ETHY    C1 3132  11.006  34.836   6.120
 3217ETHY    C1 3133  10.686  35.193   5.909
 3218ETHY    C1 3134  10.305  35.531   5.770
 3219ETHY    C1 3135   9.870  35.845   5.709
 3220AUSL   AUS 3136  11.368  33.274   7.654
 3221AUSL   AUS 3137  11.368  32.947   7.351
 3222AUL    AUL 3138  11.060  33.110   7.503
 3223THSLK    S 3139  11.114  32.874   7.394
 3224ETHY    C1 3140  10.679  32.856   7.524
 3225ETHY    C1 3141  10.153  32.796   7.597
 3226ETHY    C1 3142   9.638  32.692   7.578
 3227ETHY    C1 3143   9.144  32.549   7.477
 3228ETHY    C1 3144   8.684  32.366   7.294
 3229ETHY    C1 3145   8.266  32.146   7.034
 3230THSLK    S 3146  11.140  33.380   7.707
 3231ETHY    C1 3147  10.819  33.571   7.966
 3232ETHY    C1 3148  10.386  33.775   8.202
 3233ETHY    C1 3149   9.911  33.946   8.352
 3234ETHY    C1 3150   9.409  34.078   8.422
 3235ETHY    C1 3151   8.889  34.166   8.407
 3236ETHY    C1 3152   8.360  34.207   8.308
 3237AUSL   AUS 3153  12.622  32.701   7.503
 3238AUSL   AUS 3154  12.552  32.846   7.919
 3239AUL    AUL 3155  12.836  32.620   7.806
 3240THSLK    S 3156  12.833  32.560   7.508
 3241ETHY    C1 3157  13.055  32.164   7.513
 3242ETHY    C1 3158  13.391  31.749   7.514
 3243ETHY    C1 3159  13.794  31.410   7.511
 3244ETHY    C1 3160  14.248  31.149   7.510
 3245ETHY    C1 3161  14.747  30.975   7.510
 3246ETHY    C1 3162  15.280  30.891   7.514
 3247THSLK    S 3163  12.679  32.655   8.064
 3248ETHY    C1 3164  12.856  32.290   8.270
 3249ETHY    C1 3165  13.127  31.918   8.540
 3250ETHY    C1 3166  13.454  31.629   8.834
 3251ETHY    C1 3167  13.823  31.421   9.142
 3252ETHY    C1 3168  14.225  31.303   9.462
 3253ETHY    C1 3169  14.654  31.278   9.789
 3254AUSL   AUS 3170  12.716  32.947   7.351
 3255AUSL   AUS 3171  12.458  32.600   7.238
 3256AUL    AUL 3172  12.836  32.620   7.199
 3257THSLK    S 3173  12.944  32.807   7.353
 3258ETHY    C1 3174  13.265  32.490   7.298
 3259ETHY    C1 3175  13.698  32.187   7.221
 3260ETHY    C1 3176  14.173  31.977   7.136
 3261ETHY    C1 3177  14.675  31.856   7.048
 3262ETHY    C1 3178  15.195  31.829   6.963
 3263ETHY    C1 3179  15.724  31.900   6.881
 3264THSLK    S 3180  12.574  32.411   7.108
 3265ETHY    C1 3181  12.658  31.982   6.984
 3266ETHY    C1 3182  12.833  31.510   6.803
 3267ETHY    C1 3183  13.086  31.099   6.593
 3268ETHY    C1 3184  13.404  30.751   6.366
 3269ETHY    C1 3185  13.786  30.476   6.126
 3270ETHY    C1 3186  14.224  30.279   5.880
 3271AUSL   AUS 3187  11.462  32.701   7.503
 3272AUSL   AUS 3188  11.532  32.846   7.086
 3273AUL    AUL 3189  11.248  32.620   7.199
 3274THSLK    S 3190  11.361  32.675   6.978
 3275ETHY    C1 3191  10.997  32.410   6.921
 3276ETHY    C1 3192  10.575  32.120   6.766
 3277ETHY    C1 3193  10.183  31.868   6.521
 3278ETHY    C1 3194   9.829  31.655   6.200
 3279ETHY    C1 3195   9.522  31.482   5.806
 3280ETHY    C1 3196   9.271  31.355   5.346
 3281THSLK    S 3197  11.196  32.649   7.508
 3282ETHY    C1 3198  10.742  32.627   7.513
 3283ETHY    C1 3199  10.220  32.513   7.514
 3284ETHY    C1 3200   9.738  32.304   7.511
 3285ETHY    C1 3201   9.301  32.014   7.510
 3286ETHY    C1 3202   8.922  31.647   7.510
 3287ETHY    C1 3203   8.609  31.207   7.514
 3288AUSL   AUS 3204  11.368  32.947   7.654
 3289AUSL   AUS 3205  11.626  32.600   7.767
 3290AUL    AUL 3206  11.248  32.620   7.806
 3291THSLK    S 3207  11.438  32.460   7.878
 3292ETHY    C1 3208  11.051  32.223   7.893
 3293ETHY    C1 3209  10.633  31.903   7.982
 3294ETHY    C1 3210  10.275  31.554   8.149
 3295ETHY    C1 3211   9.980  31.190   8.382
 3296ETHY    C1 3212   9.755  30.819   8.683
 3297ETHY    C1 3213   9.604  30.448   9.045
 3298THSLK    S 3214  11.112  32.884   7.616
 3299ETHY    C1 3215  10.676  32.874   7.491
 3300ETHY    C1 3216  10.150  32.815   7.419
 3301ETHY    C1 3217   9.635  32.708   7.436
 3302ETHY    C1 3218   9.141  32.562   7.535
 3303ETHY    C1 3219   8.681  32.380   7.718
 3304ETHY    C1 3220   8.262  32.167   7.983
 3305AUSL   AUS 3221  12.042  33.690   7.912
 3306AUSL   AUS 3222  11.626  33.621   7.767
 3307AUL    AUL 3223  11.739  33.905   7.993
 3308THSLK    S 3224  11.510  33.777   7.952
 3309ETHY    C1 3225  11.426  34.079   8.280
 3310ETHY    C1 3226  11.251  34.452   8.621
 3311ETHY    C1 3227  10.998  34.823   8.895
 3312ETHY    C1 3228  10.680  35.182   9.105
 3313ETHY    C1 3229  10.298  35.520   9.244
 3314ETHY    C1 3230   9.860  35.828   9.309
 3315THSLK    S 3231  12.084  33.912   8.035
 3316ETHY    C1 3232  12.268  34.187   8.347
 3317ETHY    C1 3233  12.418  34.567   8.691
 3318ETHY    C1 3234  12.484  34.990   8.998
 3319ETHY    C1 3235  12.471  35.441   9.264
 3320ETHY    C1 3236  12.374  35.910   9.485
 3321ETHY    C1 3237  12.194  36.389   9.656
 3322AUSL   AUS 3238  11.890  33.784   7.666
 3323AUSL   AUS 3239  12.194  33.784   7.339
 3324AUL    AUL 3240  12.042  34.092   7.503
 3325THSLK    S 3241  11.933  34.028   7.776
 3326ETHY    C1 3242  12.077  34.422   7.951
 3327ETHY    C1 3243  12.164  34.916   8.137
 3328ETHY    C1 3244  12.152  35.417   8.294
 3329ETHY    C1 3245  12.051  35.915   8.425
 3330ETHY    C1 3246  11.859  36.396   8.527
 3331ETHY    C1 3247  11.579  36.851   8.600
 3332THSLK    S 3248  12.249  34.015   7.243
 3333ETHY    C1 3249  12.525  34.345   7.096
 3334ETHY    C1 3250  12.775  34.786   6.927
 3335ETHY    C1 3251  12.931  35.263   6.771
 3336ETHY    C1 3252  13.000  35.765   6.635
 3337ETHY    C1 3253  12.976  36.281   6.525
 3338ETHY    C1 3254  12.859  36.801   6.443
 3339AUSL   AUS 3255  12.194  33.784   7.666
 3340AUSL   AUS 3256  12.307  33.527   8.013
 3341AUL    AUL 3257  12.345  33.905   7.993
 3342THSLK    S 3258  12.478  33.635   8.183
 3343ETHY    C1 3259  12.773  33.700   8.523
 3344ETHY    C1 3260  13.091  33.862   8.920
 3345ETHY    C1 3261  13.359  34.111   9.298
 3346ETHY    C1 3262  13.573  34.433   9.653
 3347ETHY    C1 3263  13.725  34.821   9.976
 3348ETHY    C1 3264  13.811  35.271  10.262
 3349THSLK    S 3265  12.247  34.013   7.772
 3350ETHY    C1 3266  12.519  34.341   7.929
 3351ETHY    C1 3267  12.769  34.781   8.100
 3352ETHY    C1 3268  12.927  35.260   8.251
 3353ETHY    C1 3269  12.996  35.762   8.383
 3354ETHY    C1 3270  12.972  36.277   8.494
 3355ETHY    C1 3271  12.853  36.796   8.585
 3356AUSL   AUS 3272  12.042  32.530   7.912
 3357AUSL   AUS 3273  12.458  32.600   7.767
 3358AUL    AUL 3274  12.345  32.316   7.993
 3359THSLK    S 3275  11.995  32.280   7.989
 3360ETHY    C1 3276  11.805  31.884   8.103
 3361ETHY    C1 3277  11.654  31.406   8.289
 3362ETHY    C1 3278  11.591  30.941   8.528
 3363ETHY    C1 3279  11.606  30.499   8.809
 3364ETHY    C1 3280  11.702  30.092   9.132
 3365ETHY    C1 3281  11.877  29.729   9.489
 3366THSLK    S 3282  12.570  32.413   7.907
 3367ETHY    C1 3283  12.649  31.985   8.040
 3368ETHY    C1 3284  12.824  31.515   8.222
 3369ETHY    C1 3285  13.078  31.103   8.428
 3370ETHY    C1 3286  13.398  30.754   8.652
 3371ETHY    C1 3287  13.779  30.479   8.893
 3372ETHY    C1 3288  14.214  30.283   9.147
 3373AUSL   AUS 3289  11.890  32.437   7.666
 3374AUSL   AUS 3290  11.777  32.694   8.013
 3375AUL    AUL 3291  11.739  32.316   7.993
 3376THSLK    S 3292  11.835  32.201   7.745
 3377ETHY    C1 3293  11.560  31.842   7.788
 3378ETHY    C1 3294  11.309  31.377   7.869
 3379ETHY    C1 3295  11.153  30.887   7.981
 3380ETHY    C1 3296  11.084  30.388   8.122
 3381ETHY    C1 3297  11.108  29.888   8.292
 3382ETHY    C1 3298  11.225  29.400   8.489
 3383THSLK    S 3299  11.599  32.528   8.129
 3384ETHY    C1 3300  11.297  32.210   8.248
 3385ETHY    C1 3301  10.978  31.843   8.471
 3386ETHY    C1 3302  10.713  31.506   8.776
 3387ETHY    C1 3303  10.501  31.204   9.147
 3388ETHY    C1 3304  10.348  30.946   9.582
 3389ETHY    C1 3305  10.257  30.739  10.072
 3390AUSL   AUS 3306  12.194  32.437   7.666
 3391AUSL   AUS 3307  11.890  32.437   7.339
 3392AUL    AUL 3308  12.042  32.129   7.503
 3393THSLK    S 3309  11.837  32.198   7.270
 3394ETHY    C1 3310  11.565  31.836   7.236
 3395ETHY    C1 3311  11.315  31.371   7.157
 3396ETHY    C1 3312  11.158  30.882   7.041
 3397ETHY    C1 3313  11.088  30.383   6.896
 3398ETHY    C1 3314  11.112  29.884   6.727
 3399ETHY    C1 3315  11.231  29.393   6.538
 3400THSLK    S 3316  12.148  32.185   7.749
 3401ETHY    C1 3317  12.001  31.759   7.811
 3402ETHY    C1 3318  11.915  31.241   7.906
 3403ETHY    C1 3319  11.927  30.728   8.025
 3404ETHY    C1 3320  12.029  30.233   8.165
 3405ETHY    C1 3321  12.221  29.768   8.325
 3406ETHY    C1 3322  12.499  29.342   8.504
 3407AUSL   AUS 3323  12.042  33.690   7.094
 3408AUSL   AUS 3324  12.458  33.621   7.238
 3409AUL    AUL 3325  12.345  33.905   7.012
 3410THSLK    S 3326  12.089  33.917   6.977
 3411ETHY    C1 3327  12.279  34.196   6.674
 3412ETHY    C1 3328  12.430  34.577   6.330
 3413ETHY    C1 3329  12.494  34.997   6.021
 3414ETHY    C1 3330  12.478  35.447   5.752
 3415ETHY    C1 3331  12.382  35.917   5.532
 3416ETHY    C1 3332  12.207  36.400   5.366
 3417THSLK    S 3333  12.646  33.737   7.089
 3418ETHY    C1 3334  13.033  33.857   6.883
 3419ETHY    C1 3335  13.451  34.080   6.637
 3420ETHY    C1 3336  13.809  34.384   6.400
 3421ETHY    C1 3337  14.104  34.756   6.178
 3422ETHY    C1 3338  14.329  35.191   5.981
 3423ETHY    C1 3339  14.480  35.680   5.811
 3424AUSL   AUS 3340  11.890  33.784   7.339
 3425AUSL   AUS 3341  11.777  33.527   6.992
 3426AUL    AUL 3342  11.739  33.905   7.012
 3427THSLK    S 3343  11.936  34.031   7.239
 3428ETHY    C1 3344  12.083  34.428   7.074
 3429ETHY    C1 3345  12.169  34.922   6.889
 3430ETHY    C1 3346  12.157  35.423   6.727
 3431ETHY    C1 3347  12.055  35.919   6.593
 3432ETHY    C1 3348  11.863  36.400   6.492
 3433ETHY    C1 3349  11.585  36.858   6.427
 3434THSLK    S 3350  11.667  33.659   6.805
 3435ETHY    C1 3351  11.631  33.808   6.377
 3436ETHY    C1 3352  11.521  34.034   5.906
 3437ETHY    C1 3353  11.343  34.309   5.494
 3438ETHY    C1 3354  11.109  34.622   5.145
 3439ETHY    C1 3355  10.823  34.971   4.870
 3440ETHY    C1 3356  10.492  35.349   4.675
 3441AUSL   AUS 3357  12.042  32.530   7.094
 3442AUSL   AUS 3358  11.626  32.600   7.238
 3443AUL    AUL 3359  11.739  32.316   7.012
 3444THSLK    S 3360  11.443  32.452   7.134
 3445ETHY    C1 3361  11.060  32.208   7.124
 3446ETHY    C1 3362  10.642  31.887   7.035
 3447ETHY    C1 3363  10.283  31.541   6.866
 3448ETHY    C1 3364   9.986  31.180   6.631
 3449ETHY    C1 3365   9.761  30.808   6.331
 3450ETHY    C1 3366   9.614  30.431   5.974
 3451THSLK    S 3367  12.000  32.275   7.024
 3452ETHY    C1 3368  11.816  31.874   6.917
 3453ETHY    C1 3369  11.666  31.396   6.732
 3454ETHY    C1 3370  11.600  30.933   6.491
 3455ETHY    C1 3371  11.613  30.493   6.206
 3456ETHY    C1 3372  11.710  30.086   5.885
 3457ETHY    C1 3373  11.890  29.718   5.533
 3458AUSL   AUS 3374  12.194  32.437   7.339
 3459AUSL   AUS 3375  12.307  32.694   6.992
 3460AUL    AUL 3376  12.345  32.316   7.012
 3461THSLK    S 3377  12.151  32.183   7.266
 3462ETHY    C1 3378  12.007  31.755   7.213
 3463ETHY    C1 3379  11.920  31.236   7.120
 3464ETHY    C1 3380  11.932  30.724   6.997
 3465ETHY    C1 3381  12.033  30.230   6.854
 3466ETHY    C1 3382  12.225  29.765   6.695
 3467ETHY    C1 3383  12.505  29.337   6.523
 3468THSLK    S 3384  12.424  32.504   6.859
 3469ETHY    C1 3385  12.468  32.102   6.651
 3470ETHY    C1 3386  12.578  31.671   6.355
 3471ETHY    C1 3387  12.754  31.308   6.017
 3472ETHY    C1 3388  12.985  31.014   5.651
 3473ETHY    C1 3389  13.271  30.797   5.264
 3474ETHY    C1 3390  13.608  30.661   4.865
 3475AUC    AUC 3391  -0.954  19.957   7.503
 3476AUC    AUC 3392  -0.709  19.957   7.351
 3477AUC    AUC 3393  -0.709  19.957   7.654
 3478AUC    AUC 3394  -1.199  19.957   7.351
 3479AUC    AUC 3395  -1.199  19.957   7.654
 3480AUC    AUC 3396  -1.106  20.203   7.503
 3481AUC    AUC 3397  -0.802  20.203   7.503
 3482AUC    AUC 3398  -1.106  19.712   7.503
 3483AUC    AUC 3399  -0.802  19.712   7.503
 3484AUC    AUC 3400  -0.954  19.806   7.748
 3485AUC    AUC 3401  -0.954  20.109   7.748
 3486AUC    AUC 3402  -0.954  19.806   7.257
 3487AUC    AUC 3403  -0.954  20.109   7.257
 3488AUC    AUC 3404  -0.463  19.957   7.199
 3489AUC    AUC 3405  -0.463  19.957   7.503
 3490AUC    AUC 3406  -0.463  19.957   7.806
 3491AUC    AUC 3407  -1.445  19.957   7.199
 3492AUC    AUC 3408  -1.445  19.957   7.503
 3493AUC    AUC 3409  -1.445  19.957   7.806
 3494AUC    AUC 3410  -1.257  20.448   7.503
 3495AUC    AUC 3411  -0.954  20.448   7.503
 3496AUC    AUC 3412  -0.651  20.448   7.503
 3497AUC    AUC 3413  -1.257  19.467   7.503
 3498AUC    AUC 3414  -0.954  19.467   7.503
 3499AUC    AUC 3415  -0.651  19.467   7.503
 3500AUC    AUC 3416  -0.954  19.654   7.993
 3501AUC    AUC 3417  -0.954  19.957   7.993
 3502AUC    AUC 3418  -0.954  20.261   7.993
 3503AUC    AUC 3419  -0.954  19.654   7.012
 3504AUC    AUC 3420  -0.954  19.957   7.012
 3505AUC    AUC 3421  -0.954  20.261   7.012
 3506AUC    AUC 3422  -0.709  19.806   7.900
 3507AUC    AUC 3423  -0.709  20.109   7.900
 3508AUC    AUC 3424  -0.709  19.806   7.106
 3509AUC    AUC 3425  -0.709  20.109   7.106
 3510AUC    AUC 3426  -1.199  19.806   7.900
 3511AUC    AUC 3427  -1.199  20.109   7.900
 3512AUC    AUC 3428  -1.199  19.806   7.106
 3513AUC    AUC 3429  -1.199  20.109   7.106
 3514AUC    AUC 3430  -0.557  20.203   7.351
 3515AUC    AUC 3431  -0.557  20.203   7.654
 3516AUC    AUC 3432  -1.351  20.203   7.351
 3517AUC    AUC 3433  -1.351  20.203   7.654
 3518AUC    AUC 3434  -0.557  19.712   7.351
 3519AUC    AUC 3435  -0.557  19.712   7.654
 3520AUC    AUC 3436  -1.351  19.712   7.351
 3521AUC    AUC 3437  -1.351  19.712   7.654
 3522AUC    AUC 3438  -1.106  20.355   7.748
 3523AUC    AUC 3439  -0.802  20.355   7.748
 3524AUC    AUC 3440  -1.106  19.560   7.748
 3525AUC    AUC 3441  -0.802  19.560   7.748
 3526AUC    AUC 3442  -1.106  20.355   7.257
 3527AUC    AUC 3443  -0.802  20.355   7.257
 3528AUC    AUC 3444  -1.106  19.560   7.257
 3529AUC    AUC 3445  -0.802  19.560   7.257
 3530AUSL   AUS 3446  -0.545  19.957   8.083
 3531AUSL   AUS 3447  -0.689  19.541   8.013
 3532AUL    AUL 3448  -0.463  19.654   8.297
 3533THSLK    S 3449  -0.579  19.354   8.153
 3534ETHY    C1 3450  -0.543  18.955   8.368
 3535ETHY    C1 3451  -0.433  18.525   8.665
 3536ETHY    C1 3452  -0.255  18.161   9.000
 3537ETHY    C1 3453  -0.021  17.865   9.364
 3538ETHY    C1 3454   0.265  17.648   9.752
 3539ETHY    C1 3455   0.596  17.515  10.156
 3540THSLK    S 3456  -0.452  19.905   8.324
 3541ETHY    C1 3457  -0.248  19.685   8.665
 3542ETHY    C1 3458   0.016  19.508   9.094
 3543ETHY    C1 3459   0.292  19.432   9.535
 3544ETHY    C1 3460   0.569  19.449   9.980
 3545ETHY    C1 3461   0.839  19.562  10.419
 3546ETHY    C1 3462   1.098  19.771  10.845
 3547AUSL   AUS 3463  -0.790  19.806   8.176
 3548AUSL   AUS 3464  -1.118  20.109   8.176
 3549AUL    AUL 3465  -0.954  19.957   8.484
 3550THSLK    S 3466  -0.715  19.751   8.413
 3551ETHY    C1 3467  -0.651  19.471   8.765
 3552ETHY    C1 3468  -0.548  19.216   9.223
 3553ETHY    C1 3469  -0.421  19.057   9.708
 3554ETHY    C1 3470  -0.279  18.988  10.208
 3555ETHY    C1 3471  -0.125  19.016  10.713
 3556ETHY    C1 3472   0.035  19.140  11.212
 3557THSLK    S 3473  -1.203  20.063   8.428
 3558ETHY    C1 3474  -1.277  19.913   8.850
 3559ETHY    C1 3475  -1.382  19.825   9.367
 3560ETHY    C1 3476  -1.504  19.837   9.878
 3561ETHY    C1 3477  -1.642  19.938  10.373
 3562ETHY    C1 3478  -1.797  20.131  10.840
 3563ETHY    C1 3479  -1.966  20.412  11.268
 3564AUSL   AUS 3480  -0.790  20.109   8.176
 3565AUSL   AUS 3481  -0.444  20.222   7.919
 3566AUL    AUL 3482  -0.463  20.261   8.297
 3567THSLK    S 3483  -0.705  20.165   8.410
 3568ETHY    C1 3484  -0.631  20.446   8.759
 3569ETHY    C1 3485  -0.526  20.701   9.217
 3570ETHY    C1 3486  -0.404  20.860   9.703
 3571ETHY    C1 3487  -0.265  20.929  10.204
 3572ETHY    C1 3488  -0.111  20.902  10.708
 3573ETHY    C1 3489   0.058  20.778  11.206
 3574THSLK    S 3490  -0.272  20.320   8.080
 3575ETHY    C1 3491   0.091  20.291   8.350
 3576ETHY    C1 3492   0.513  20.347   8.673
 3577ETHY    C1 3493   0.905  20.501   8.989
 3578ETHY    C1 3494   1.259  20.739   9.293
 3579ETHY    C1 3495   1.566  21.060   9.580
 3580ETHY    C1 3496   1.817  21.457   9.844
 3581AUSL   AUS 3497  -0.545  19.957   6.923
 3582AUSL   AUS 3498  -0.689  20.374   6.992
 3583AUL    AUL 3499  -0.463  20.261   6.708
 3584THSLK    S 3500  -0.443  19.905   6.687
 3585ETHY    C1 3501  -0.230  19.685   6.351
 3586ETHY    C1 3502   0.035  19.508   5.923
 3587ETHY    C1 3503   0.307  19.432   5.479
 3588ETHY    C1 3504   0.581  19.449   5.033
 3589ETHY    C1 3505   0.852  19.562   4.594
 3590ETHY    C1 3506   1.117  19.771   4.173
 3591THSLK    S 3507  -0.511  20.485   6.829
 3592ETHY    C1 3508  -0.209  20.553   6.497
 3593ETHY    C1 3509   0.110  20.716   6.100
 3594ETHY    C1 3510   0.375  20.963   5.719
 3595ETHY    C1 3511   0.587  21.283   5.362
 3596ETHY    C1 3512   0.740  21.673   5.039
 3597ETHY    C1 3513   0.831  22.125   4.759
 3598AUSL   AUS 3514  -0.790  19.806   6.829
 3599AUSL   AUS 3515  -0.444  19.693   7.086
 3600AUL    AUL 3516  -0.463  19.654   6.708
 3601THSLK    S 3517  -0.311  19.501   6.949
 3602ETHY    C1 3518  -0.128  19.134   6.752
 3603ETHY    C1 3519   0.144  18.762   6.483
 3604ETHY    C1 3520   0.469  18.473   6.186
 3605ETHY    C1 3521   0.835  18.266   5.874
 3606ETHY    C1 3522   1.239  18.147   5.555
 3607ETHY    C1 3523   1.672  18.122   5.235
 3608THSLK    S 3524  -0.705  19.750   6.596
 3609ETHY    C1 3525  -0.631  19.469   6.246
 3610ETHY    C1 3526  -0.526  19.213   5.788
 3611ETHY    C1 3527  -0.404  19.055   5.302
 3612ETHY    C1 3528  -0.265  18.986   4.801
 3613ETHY    C1 3529  -0.111  19.013   4.297
 3614ETHY    C1 3530   0.058  19.137   3.799
 3615AUSL   AUS 3531  -0.790  20.109   6.829
 3616AUSL   AUS 3532  -1.118  19.806   6.829
 3617AUL    AUL 3533  -0.954  19.957   6.521
 3618THSLK    S 3534  -1.210  19.750   6.597
 3619ETHY    C1 3535  -1.345  19.472   6.264
 3620ETHY    C1 3536  -1.506  19.219   5.822
 3621ETHY    C1 3537  -1.658  19.062   5.343
 3622ETHY    C1 3538  -1.794  18.993   4.842
 3623ETHY    C1 3539  -1.911  19.019   4.328
 3624ETHY    C1 3540  -2.004  19.138   3.810
 3625THSLK    S 3541  -0.688  20.063   6.583
 3626ETHY    C1 3542  -0.542  19.913   6.179
 3627ETHY    C1 3543  -0.380  19.822   5.678
 3628ETHY    C1 3544  -0.233  19.832   5.173
 3629ETHY    C1 3545  -0.100  19.933   4.677
 3630ETHY    C1 3546   0.017  20.128   4.200
 3631ETHY    C1 3547   0.118  20.414   3.754
 3632AUSL   AUS 3548  -1.363  19.957   8.083
 3633AUSL   AUS 3549  -1.219  20.374   8.013
 3634AUL    AUL 3550  -1.445  20.261   8.297
 3635THSLK    S 3551  -1.465  19.905   8.319
 3636ETHY    C1 3552  -1.677  19.685   8.654
 3637ETHY    C1 3553  -1.943  19.508   9.082
 3638ETHY    C1 3554  -2.215  19.432   9.526
 3639ETHY    C1 3555  -2.489  19.449   9.973
 3640ETHY    C1 3556  -2.760  19.562  10.411
 3641ETHY    C1 3557  -3.025  19.771  10.832
 3642THSLK    S 3558  -1.336  20.498   8.202
 3643ETHY    C1 3559  -1.379  20.641   8.632
 3644ETHY    C1 3560  -1.490  20.866   9.104
 3645ETHY    C1 3561  -1.666  21.143   9.515
 3646ETHY    C1 3562  -1.897  21.459   9.863
 3647ETHY    C1 3563  -2.183  21.807  10.138
 3648ETHY    C1 3564  -2.520  22.180  10.334
 3649AUSL   AUS 3565  -1.118  19.806   8.176
 3650AUSL   AUS 3566  -1.464  19.693   7.919
 3651AUL    AUL 3567  -1.445  19.654   8.297
 3652THSLK    S 3568  -1.641  19.530   8.026
 3653ETHY    C1 3569  -2.012  19.273   8.082
 3654ETHY    C1 3570  -2.434  18.985   8.237
 3655ETHY    C1 3571  -2.824  18.730   8.482
 3656ETHY    C1 3572  -3.176  18.513   8.803
 3657ETHY    C1 3573  -3.482  18.342   9.198
 3658ETHY    C1 3574  -3.739  18.221   9.657
 3659THSLK    S 3575  -1.220  19.752   8.406
 3660ETHY    C1 3576  -1.366  19.476   8.736
 3661ETHY    C1 3577  -1.528  19.224   9.178
 3662ETHY    C1 3578  -1.675  19.066   9.658
 3663ETHY    C1 3579  -1.808  18.996  10.160
 3664ETHY    C1 3580  -1.925  19.022  10.674
 3665ETHY    C1 3581  -2.026  19.143  11.190
 3666AUSL   AUS 3582  -1.363  19.957   6.923
 3667AUSL   AUS 3583  -1.219  19.541   6.992
 3668AUL    AUL 3584  -1.445  19.654   6.708
 3669THSLK    S 3585  -1.456  19.905   6.681
 3670ETHY    C1 3586  -1.660  19.685   6.341
 3671ETHY    C1 3587  -1.924  19.508   5.911
 3672ETHY    C1 3588  -2.200  19.432   5.470
 3673ETHY    C1 3589  -2.477  19.449   5.025
 3674ETHY    C1 3590  -2.747  19.562   4.586
 3675ETHY    C1 3591  -3.006  19.771   4.161
 3676THSLK    S 3592  -1.390  19.368   6.878
 3677ETHY    C1 3593  -1.685  19.042   6.760
 3678ETHY    C1 3594  -2.003  18.675   6.538
 3679ETHY    C1 3595  -2.271  18.340   6.233
 3680ETHY    C1 3596  -2.485  18.040   5.861
 3681ETHY    C1 3597  -2.637  17.782   5.426
 3682ETHY    C1 3598  -2.723  17.570   4.937
 3683AUSL   AUS 3599  -1.118  20.109   6.829
 3684AUSL   AUS 3600  -1.464  20.222   7.086
 3685AUL    AUL 3601  -1.445  20.261   6.708
 3686THSLK    S 3602  -1.591  20.349   6.895
 3687ETHY    C1 3603  -1.768  20.430   6.484
 3688ETHY    C1 3604  -2.039  20.570   6.046
 3689ETHY    C1 3605  -2.366  20.758   5.679
 3690ETHY    C1 3606  -2.735  20.987   5.385
 3691ETHY    C1 3607  -3.137  21.254   5.173
 3692ETHY    C1 3608  -3.566  21.556   5.047
 3693THSLK    S 3609  -1.193  20.065   6.576
 3694ETHY    C1 3610  -1.257  19.918   6.150
 3695ETHY    C1 3611  -1.360  19.829   5.634
 3696ETHY    C1 3612  -1.487  19.840   5.123
 3697ETHY    C1 3613  -1.629  19.941   4.629
 3698ETHY    C1 3614  -1.782  20.134   4.162
 3699ETHY    C1 3615  -1.943  20.417   3.732
 3700AUSL   AUS 3616  -0.374  20.366   7.503
 3701AUSL   AUS 3617  -0.444  20.222   7.086
 3702AUL    AUL 3618  -0.160  20.448   7.199
 3703THSLK    S 3619  -0.266  20.321   6.934
 3704ETHY    C1 3620   0.104  20.294   6.671
 3705ETHY    C1 3621   0.526  20.350   6.349
 3706ETHY    C1 3622   0.916  20.504   6.030
 3707ETHY    C1 3623   1.268  20.741   5.724
 3708ETHY    C1 3624   1.575  21.062   5.438
 3709ETHY    C1 3625   1.831  21.461   5.179
 3710THSLK    S 3626  -0.108  20.419   7.508
 3711ETHY    C1 3627   0.346  20.441   7.513
 3712ETHY    C1 3628   0.868  20.555   7.514
 3713ETHY    C1 3629   1.351  20.764   7.511
 3714ETHY    C1 3630   1.787  21.054   7.510
 3715ETHY    C1 3631   2.166  21.421   7.510
 3716ETHY    C1 3632   2.480  21.861   7.514
 3717AUSL   AUS 3633  -0.280  20.121   7.351
 3718AUSL   AUS 3634  -0.280  19.794   7.654
 3719AUL    AUL 3635   0.028  19.957   7.503
 3720THSLK    S 3636  -0.024  20.160   7.350
 3721ETHY    C1 3637   0.412  20.052   7.286
 3722ETHY    C1 3638   0.938  20.014   7.201
 3723ETHY    C1 3639   1.453  20.078   7.113
 3724ETHY    C1 3640   1.947  20.232   7.026
 3725ETHY    C1 3641   2.407  20.477   6.945
 3726ETHY    C1 3642   2.826  20.809   6.873
 3727THSLK    S 3643  -0.053  19.654   7.663
 3728ETHY    C1 3644   0.266  19.338   7.728
 3729ETHY    C1 3645   0.699  19.034   7.807
 3730ETHY    C1 3646   1.174  18.824   7.887
 3731ETHY    C1 3647   1.677  18.703   7.971
 3732ETHY    C1 3648   2.197  18.677   8.058
 3733ETHY    C1 3649   2.725  18.747   8.147
 3734AUSL   AUS 3650  -0.280  20.121   7.654
 3735AUSL   AUS 3651  -0.538  20.468   7.767
 3736AUL    AUL 3652  -0.160  20.448   7.806
 3737THSLK    S 3653  -0.355  20.582   7.926
 3738ETHY    C1 3654   0.028  20.700   8.140
 3739ETHY    C1 3655   0.446  20.923   8.388
 3740ETHY    C1 3656   0.805  21.228   8.622
 3741ETHY    C1 3657   1.102  21.601   8.840
 3742ETHY    C1 3658   1.327  22.035   9.038
 3743ETHY    C1 3659   1.474  22.523   9.215
 3744THSLK    S 3660  -0.026  20.160   7.665
 3745ETHY    C1 3661   0.409  20.052   7.740
 3746ETHY    C1 3662   0.935  20.014   7.826
 3747ETHY    C1 3663   1.450  20.077   7.910
 3748ETHY    C1 3664   1.944  20.231   7.993
 3749ETHY    C1 3665   2.405  20.476   8.075
 3750ETHY    C1 3666   2.822  20.808   8.155
 3751AUSL   AUS 3667  -1.534  20.366   7.503
 3752AUSL   AUS 3668  -1.464  20.222   7.919
 3753AUL    AUL 3669  -1.748  20.448   7.806
 3754THSLK    S 3670  -1.597  20.341   8.109
 3755ETHY    C1 3671  -1.780  20.413   8.519
 3756ETHY    C1 3672  -2.052  20.553   8.957
 3757ETHY    C1 3673  -2.377  20.744   9.324
 3758ETHY    C1 3674  -2.743  20.975   9.619
 3759ETHY    C1 3675  -3.146  21.242   9.831
 3760ETHY    C1 3676  -3.580  21.538   9.956
 3761THSLK    S 3677  -1.745  20.507   7.508
 3762ETHY    C1 3678  -1.967  20.904   7.513
 3763ETHY    C1 3679  -2.303  21.319   7.514
 3764ETHY    C1 3680  -2.706  21.658   7.511
 3765ETHY    C1 3681  -3.160  21.919   7.510
 3766ETHY    C1 3682  -3.659  22.093   7.510
 3767ETHY    C1 3683  -4.192  22.177   7.514
 3768AUSL   AUS 3684  -1.628  20.121   7.351
 3769AUSL   AUS 3685  -1.370  20.468   7.238
 3770AUL    AUL 3686  -1.748  20.448   7.199
 3771THSLK    S 3687  -1.855  20.236   7.303
 3772ETHY    C1 3688  -2.174  20.436   7.049
 3773ETHY    C1 3689  -2.607  20.642   6.813
 3774ETHY    C1 3690  -3.082  20.808   6.661
 3775ETHY    C1 3691  -3.585  20.937   6.590
 3776ETHY    C1 3692  -4.105  21.027   6.605
 3777ETHY    C1 3693  -4.633  21.075   6.708
 3778THSLK    S 3694  -1.482  20.631   7.060
 3779ETHY    C1 3695  -1.561  20.941   6.737
 3780ETHY    C1 3696  -1.736  21.315   6.397
 3781ETHY    C1 3697  -1.990  21.683   6.120
 3782ETHY    C1 3698  -2.310  22.040   5.909
 3783ETHY    C1 3699  -2.691  22.378   5.770
 3784ETHY    C1 3700  -3.126  22.692   5.709
 3785AUSL   AUS 3701  -1.628  20.121   7.654
 3786AUSL   AUS 3702  -1.628  19.794   7.351
 3787AUL    AUL 3703  -1.936  19.957   7.503
 3788THSLK    S 3704  -1.882  19.721   7.394
 3789ETHY    C1 3705  -2.317  19.703   7.524
 3790ETHY    C1 3706  -2.843  19.643   7.597
 3791ETHY    C1 3707  -3.358  19.539   7.578
 3792ETHY    C1 3708  -3.852  19.396   7.477
 3793ETHY    C1 3709  -4.312  19.213   7.294
 3794ETHY    C1 3710  -4.730  18.993   7.034
 3795THSLK    S 3711  -1.856  20.227   7.707
 3796ETHY    C1 3712  -2.177  20.418   7.966
 3797ETHY    C1 3713  -2.610  20.622   8.202
 3798ETHY    C1 3714  -3.085  20.793   8.352
 3799ETHY    C1 3715  -3.587  20.925   8.422
 3800ETHY    C1 3716  -4.107  21.013   8.407
 3801ETHY    C1 3717  -4.636  21.054   8.308
 3802AUSL   AUS 3718  -0.374  19.548   7.503
 3803AUSL   AUS 3719  -0.444  19.693   7.919
 3804AUL    AUL 3720  -0.160  19.467   7.806
 3805THSLK    S 3721  -0.163  19.407   7.508
 3806ETHY    C1 3722   0.059  19.011   7.513
 3807ETHY    C1 3723   0.395  18.596   7.514
 3808ETHY    C1 3724   0.798  18.257   7.511
 3809ETHY    C1 3725   1.252  17.996   7.510
 3810ETHY    C1 3726   1.751  17.822   7.510
 3811ETHY    C1 3727   2.284  17.738   7.514
 3812THSLK    S 3728  -0.317  19.502   8.064
 3813ETHY    C1 3729  -0.140  19.137   8.270
 3814ETHY    C1 3730   0.131  18.765   8.540
 3815ETHY    C1 3731   0.458  18.476   8.834
 3816ETHY    C1 3732   0.827  18.268   9.142
 3817ETHY    C1 3733   1.229  18.150   9.462
 3818ETHY    C1 3734   1.658  18.125   9.789
 3819AUSL   AUS 3735  -0.280  19.794   7.351
 3820AUSL   AUS 3736  -0.538  19.447   7.238
 3821AUL    AUL 3737  -0.160  19.467   7.199
 3822THSLK    S 3738  -0.052  19.654   7.353
 3823ETHY    C1 3739   0.269  19.337   7.298
 3824ETHY    C1 3740   0.702  19.034   7.221
 3825ETHY    C1 3741   1.177  18.824   7.136
 3826ETHY    C1 3742   1.679  18.703   7.048
 3827ETHY    C1 3743   2.199  18.676   6.963
 3828ETHY    C1 3744   2.728  18.747   6.881
 3829THSLK    S 3745  -0.422  19.258   7.108
 3830ETHY    C1 3746  -0.338  18.829   6.984
 3831ETHY    C1 3747  -0.163  18.357   6.803
 3832ETHY    C1 3748   0.090  17.946   6.593
 3833ETHY    C1 3749   0.408  17.598   6.366
 3834ETHY    C1 3750   0.790  17.323   6.126
 3835ETHY    C1 3751   1.228  17.126   5.880
 3836AUSL   AUS 3752  -1.534  19.548   7.503
 3837AUSL   AUS 3753  -1.464  19.693   7.086
 3838AUL    AUL 3754  -1.748  19.467   7.199
 3839THSLK    S 3755  -1.635  19.522   6.978
 3840ETHY    C1 3756  -1.999  19.257   6.921
 3841ETHY    C1 3757  -2.421  18.967   6.766
 3842ETHY    C1 3758  -2.813  18.715   6.521
 3843ETHY    C1 3759  -3.167  18.502   6.200
 3844ETHY    C1 3760  -3.474  18.329   5.806
 3845ETHY    C1 3761  -3.725  18.202   5.346
 3846THSLK    S 3762  -1.800  19.496   7.508
 3847ETHY    C1 3763  -2.254  19.474   7.513
 3848ETHY    C1 3764  -2.776  19.360   7.514
 3849ETHY    C1 3765  -3.258  19.151   7.511
 3850ETHY    C1 3766  -3.695  18.861   7.510
 3851ETHY    C1 3767  -4.074  18.494   7.510
 3852ETHY    C1 3768  -4.387  18.054   7.514
 3853AUSL   AUS 3769  -1.628  19.794   7.654
 3854AUSL   AUS 3770  -1.370  19.447   7.767
 3855AUL    AUL 3771  -1.748  19.467   7.806
 3856THSLK    S 3772  -1.558  19.307   7.878
 3857ETHY    C1 3773  -1.945  19.070   7.893
 3858ETHY    C1 3774  -2.363  18.750   7.982
 3859ETHY    C1 3775  -2.721  18.401   8.149
 3860ETHY    C1 3776  -3.016  18.037   8.382
 3861ETHY    C1 3777  -3.241  17.666   8.683
 3862ETHY    C1 3778  -3.392  17.295   9.045
 3863THSLK    S 3779  -1.884  19.731   7.616
 3864ETHY    C1 3780  -2.320  19.721   7.491
 3865ETHY    C1 3781  -2.846  19.662   7.419
 3866ETHY    C1 3782  -3.361  19.555   7.436
 3867ETHY    C1 3783  -3.855  19.409   7.535
 3868ETHY    C1 3784  -4.315  19.227   7.718
 3869ETHY    C1 3785  -4.734  19.014   7.983
 3870AUSL   AUS 3786  -0.954  20.537   7.912
 3871AUSL   AUS 3787  -1.370  20.468   7.767
 3872AUL    AUL 3788  -1.257  20.752   7.993
 3873THSLK    S 3789  -1.486  20.624   7.952
 3874ETHY    C1 3790  -1.570  20.926   8.280
 3875ETHY    C1 3791  -1.745  21.299   8.621
 3876ETHY    C1 3792  -1.998  21.670   8.895
 3877ETHY    C1 3793  -2.316  22.029   9.105
 3878ETHY    C1 3794  -2.698  22.367   9.244
 3879ETHY    C1 3795  -3.136  22.675   9.309
 3880THSLK    S 3796  -0.912  20.759   8.035
 3881ETHY    C1 3797  -0.728  21.034   8.347
 3882ETHY    C1 3798  -0.578  21.414   8.691
 3883ETHY    C1 3799  -0.512  21.837   8.998
 3884ETHY    C1 3800  -0.525  22.288   9.264
 3885ETHY    C1 3801  -0.622  22.757   9.485
 3886ETHY    C1 3802  -0.802  23.236   9.656
 3887AUSL   AUS 3803  -1.106  20.631   7.666
 3888AUSL   AUS 3804  -0.802  20.631   7.339
 3889AUL    AUL 3805  -0.954  20.939   7.503
 3890THSLK    S 3806  -1.063  20.875   7.776
 3891ETHY    C1 3807  -0.919  21.269   7.951
 3892ETHY    C1 3808  -0.832  21.763   8.137
 3893ETHY    C1 3809  -0.844  22.264   8.294
 3894ETHY    C1 3810  -0.945  22.762   8.425
 3895ETHY    C1 3811  -1.137  23.243   8.527
 3896ETHY    C1 3812  -1.417  23.698   8.600
 3897THSLK    S 3813  -0.747  20.862   7.243
 3898ETHY    C1 3814  -0.471  21.192   7.096
 3899ETHY    C1 3815  -0.221  21.633   6.927
 3900ETHY    C1 3816  -0.065  22.110   6.771
 3901ETHY    C1 3817   0.004  22.612   6.635
 3902ETHY    C1 3818  -0.020  23.128   6.525
 3903ETHY    C1 3819  -0.137  23.648   6.443
 3904AUSL   AUS 3820  -0.802  20.631   7.666
 3905AUSL   AUS 3821  -0.689  20.374   8.013
 3906AUL    AUL 3822  -0.651  20.752   7.993
 3907THSLK    S 3823  -0.518  20.482   8.183
 3908ETHY    C1 3824  -0.223  20.547   8.523
 3909ETHY    C1 3825   0.095  20.709   8.920
 3910ETHY    C1 3826   0.363  20.958   9.298
 3911ETHY    C1 3827   0.577  21.280   9.653
 3912ETHY    C1 3828   0.729  21.668   9.976
 3913ETHY    C1 3829   0.815  22.118  10.262
 3914THSLK    S 3830  -0.749  20.860   7.772
 3915ETHY    C1 3831  -0.477  21.188   7.929
 3916ETHY    C1 3832  -0.227  21.628   8.100
 3917ETHY    C1 3833  -0.069  22.107   8.251
 3918ETHY    C1 3834   0.000  22.609   8.383
 3919ETHY    C1 3835  -0.024  23.124   8.494
 3920ETHY    C1 3836  -0.143  23.643   8.585
 3921AUSL   AUS 3837  -0.954  19.377   7.912
 3922AUSL   AUS 3838  -0.538  19.447   7.767
 3923AUL    AUL 3839  -0.651  19.163   7.993
 3924THSLK    S 3840  -1.001  19.127   7.989
 3925ETHY    C1 3841  -1.191  18.731   8.103
 3926ETHY    C1 3842  -1.342  18.253   8.289
 3927ETHY    C1 3843  -1.405  17.788   8.528
 3928ETHY    C1 3844  -1.390  17.346   8.809
 3929ETHY    C1 3845  -1.294  16.939   9.132
 3930ETHY    C1 3846  -1.119  16.576   9.489
 3931THSLK    S 3847  -0.426  19.260   7.907
 3932ETHY    C1 3848  -0.347  18.832   8.040
 3933ETHY    C1 3849  -0.172  18.362   8.222
 3934ETHY    C1 3850   0.082  17.950   8.428
 3935ETHY    C1 3851   0.402  17.601   8.652
 3936ETHY    C1 3852   0.783  17.326   8.893
 3937ETHY    C1 3853   1.218  17.130   9.147
 3938AUSL   AUS 3854  -1.106  19.284   7.666
 3939AUSL   AUS 3855  -1.219  19.541   8.013
 3940AUL    AUL 3856  -1.257  19.163   7.993
 3941THSLK    S 3857  -1.161  19.048   7.745
 3942ETHY    C1 3858  -1.436  18.689   7.788
 3943ETHY    C1 3859  -1.687  18.224   7.869
 3944ETHY    C1 3860  -1.843  17.734   7.981
 3945ETHY    C1 3861  -1.912  17.235   8.122
 3946ETHY    C1 3862  -1.888  16.735   8.292
 3947ETHY    C1 3863  -1.771  16.247   8.489
 3948THSLK    S 3864  -1.397  19.375   8.129
 3949ETHY    C1 3865  -1.699  19.057   8.248
 3950ETHY    C1 3866  -2.018  18.690   8.471
 3951ETHY    C1 3867  -2.283  18.353   8.776
 3952ETHY    C1 3868  -2.495  18.051   9.147
 3953ETHY    C1 3869  -2.648  17.793   9.582
 3954ETHY    C1 3870  -2.739  17.586  10.072
 3955AUSL   AUS 3871  -0.802  19.284   7.666
 3956AUSL   AUS 3872  -1.106  19.284   7.339
 3957AUL    AUL 3873  -0.954  18.976   7.503
 3958THSLK    S 3874  -1.159  19.045   7.270
 3959ETHY    C1 3875  -1.431  18.683   7.236
 3960ETHY    C1 3876  -1.681  18.218   7.157
 3961ETHY    C1 3877  -1.838  17.729   7.041
 3962ETHY    C1 3878  -1.908  17.230   6.896
 3963ETHY    C1 3879  -1.884  16.731   6.727
 3964ETHY    C1 3880  -1.765  16.240   6.538
 3965THSLK    S 3881  -0.848  19.032   7.749
 3966ETHY    C1 3882  -0.995  18.606   7.811
 3967ETHY    C1 3883  -1.081  18.088   7.906
 3968ETHY    C1 3884  -1.069  17.575   8.025
 3969ETHY    C1 3885  -0.967  17.080   8.165
 3970ETHY    C1 3886  -0.775  16.615   8.325
 3971ETHY    C1 3887  -0.497  16.189   8.504
 3972AUSL   AUS 3888  -0.954  20.537   7.094
 3973AUSL   AUS 3889  -0.538  20.468   7.238
 3974AUL    AUL 3890  -0.651  20.752   7.012
 3975THSLK    S 3891  -0.907  20.764   6.977
 3976ETHY    C1 3892  -0.717  21.043   6.674
 3977ETHY    C1 3893  -0.566  21.424   6.330
 3978ETHY    C1 3894  -0.502  21.844   6.021
 3979ETHY    C1 3895  -0.518  22.294   5.752
 3980ETHY    C1 3896  -0.614  22.764   5.532
 3981ETHY    C1 3897  -0.789  23.247   5.366
 3982THSLK    S 3898  -0.350  20.584   7.089
 3983ETHY    C1 3899   0.037  20.704   6.883
 3984ETHY    C1 3900   0.455  20.927   6.637
 3985ETHY    C1 3901   0.813  21.231   6.400
 3986ETHY    C1 3902   1.108  21.603   6.178
 3987ETHY    C1 3903   1.333  22.038   5.981
 3988ETHY    C1 3904   1.484  22.527   5.811
 3989AUSL   AUS 3905  -1.106  20.631   7.339
 3990AUSL   AUS 3906  -1.219  20.374   6.992
 3991AUL    AUL 3907  -1.257  20.752   7.012
 3992THSLK    S 3908  -1.060  20.878   7.239
 3993ETHY    C1 3909  -0.913  21.275   7.074
 3994ETHY    C1 3910  -0.827  21.769   6.889
 3995ETHY    C1 3911  -0.839  22.270   6.727
 3996ETHY    C1 3912  -0.941  22.766   6.593
 3997ETHY    C1 3913  -1.133  23.247   6.492
 3998ETHY    C1 3914  -1.411  23.705   6.427
 3999THSLK    S 3915  -1.329  20.506   6.805
 4000ETHY    C1 3916  -1.365  20.655   6.377
 4001ETHY    C1 3917  -1.475  20.881   5.906
 4002ETHY    C1 3918  -1.653  21.156   5.494
 4003ETHY    C1 3919  -1.887  21.469   5.145
 4004ETHY    C1 3920  -2.173  21.818   4.870
 4005ETHY    C1 3921  -2.504  22.196   4.675
 4006AUSL   AUS 3922  -0.954  19.377   7.094
 4007AUSL   AUS 3923  -1.370  19.447   7.238
 4008AUL    AUL 3924  -1.257  19.163   7.012
 4009THSLK    S 3925  -1.553  19.299   7.134
 4010ETHY    C1 3926  -1.936  19.055   7.124
 4011ETHY    C1 3927  -2.354  18.734   7.035
 4012ETHY    C1 3928  -2.713  18.388   6.866
 4013ETHY    C1 3929  -3.010  18.027   6.631
 4014ETHY    C1 3930  -3.235  17.655   6.331
 4015ETHY    C1 3931  -3.382  17.278   5.974
 4016THSLK    S 3932  -0.996  19.122   7.024
 4017ETHY    C1 3933  -1.180  18.721   6.917
 4018ETHY    C1 3934  -1.330  18.243   6.732
 4019ETHY    C1 3935  -1.396  17.780   6.491
 4020ETHY    C1 3936  -1.383  17.340   6.206
 4021ETHY    C1 3937  -1.286  16.933   5.885
 4022ETHY    C1 3938  -1.106  16.565   5.533
 4023AUSL   AUS 3939  -0.802  19.284   7.339
 4024AUSL   AUS 3940  -0.689  19.541   6.992
 4025AUL    AUL 3941  -0.651  19.163   7.012
 4026THSLK    S 3942  -0.845  19.030   7.266
 4027ETHY    C1 3943  -0.989  18.602   7.213
 4028ETHY    C1 3944  -1.076  18.083   7.120
 4029ETHY    C1 3945  -1.064  17.571   6.997
 4030ETHY    C1 3946  -0.963  17.077   6.854
 4031ETHY    C1 3947  -0.771  16.612   6.695
 4032ETHY    C1 3948  -0.491  16.184   6.523
 4033THSLK    S 3949  -0.572  19.351   6.859
 4034ETHY    C1 3950  -0.528  18.949   6.651
 4035ETHY    C1 3951  -0.418  18.518   6.355
 4036ETHY    C1 3952  -0.242  18.155   6.017
 4037ETHY    C1 3953  -0.011  17.861   5.651
 4038ETHY    C1 3954   0.275  17.644   5.264
 4039ETHY    C1 3955   0.612  17.508   4.865
 4040AUC    AUC 3956  23.839  46.292   7.503
 4041AUC    AUC 3957  24.084  46.292   7.351
 4042AUC    AUC 3958  24.084  46.292   7.654
 4043AUC    AUC 3959  23.594  46.292   7.351
 4044AUC    AUC 3960  23.594  46.292   7.654
 4045AUC    AUC 3961  23.687  46.538   7.503
 4046AUC    AUC 3962  23.991  46.538   7.503
 4047AUC    AUC 3963  23.687  46.047   7.503
 4048AUC    AUC 3964  23.991  46.047   7.503
 4049AUC    AUC 3965  23.839  46.141   7.748
 4050AUC    AUC 3966  23.839  46.444   7.748
 4051AUC    AUC 3967  23.839  46.141   7.257
 4052AUC    AUC 3968  23.839  46.444   7.257
 4053AUC    AUC 3969  24.330  46.292   7.199
 4054AUC    AUC 3970  24.330  46.292   7.503
 4055AUC    AUC 3971  24.330  46.292   7.806
 4056AUC    AUC 3972  23.348  46.292   7.199
 4057AUC    AUC 3973  23.348  46.292   7.503
 4058AUC    AUC 3974  23.348  46.292   7.806
 4059AUC    AUC 3975  23.536  46.783   7.503
 4060AUC    AUC 3976  23.839  46.783   7.503
 4061AUC    AUC 3977  24.142  46.783   7.503
 4062AUC    AUC 3978  23.536  45.802   7.503
 4063AUC    AUC 3979  23.839  45.802   7.503
 4064AUC    AUC 3980  24.142  45.802   7.503
 4065AUC    AUC 3981  23.839  45.989   7.993
 4066AUC    AUC 3982  23.839  46.292   7.993
 4067AUC    AUC 3983  23.839  46.596   7.993
 4068AUC    AUC 3984  23.839  45.989   7.012
 4069AUC    AUC 3985  23.839  46.292   7.012
 4070AUC    AUC 3986  23.839  46.596   7.012
 4071AUC    AUC 3987  24.084  46.141   7.900
 4072AUC    AUC 3988  24.084  46.444   7.900
 4073AUC    AUC 3989  24.084  46.141   7.106
 4074AUC    AUC 3990  24.084  46.444   7.106
 4075AUC    AUC 3991  23.594  46.141   7.900
 4076AUC    AUC 3992  23.594  46.444   7.900
 4077AUC    AUC 3993  23.594  46.141   7.106
 4078AUC    AUC 3994  23.594  46.444   7.106
 4079AUC    AUC 3995  24.236  46.538   7.351
 4080AUC    AUC 3996  24.236  46.538   7.654
 4081AUC    AUC 3997  23.442  46.538   7.351
 4082AUC    AUC 3998  23.442  46.538   7.654
 4083AUC    AUC 3999  24.236  46.047   7.351
 4084AUC    AUC 4000  24.236  46.047   7.654
 4085AUC    AUC 4001  23.442  46.047   7.351
 4086AUC    AUC 4002  23.442  46.047   7.654
 4087AUC    AUC 4003  23.687  46.690   7.748
 4088AUC    AUC 4004  23.991  46.690   7.748
 4089AUC    AUC 4005  23.687  45.895   7.748
 4090AUC    AUC 4006  23.991  45.895   7.748
 4091AUC    AUC 4007  23.687  46.690   7.257
 4092AUC    AUC 4008  23.991  46.690   7.257
 4093AUC    AUC 4009  23.687  45.895   7.257
 4094AUC    AUC 4010  23.991  45.895   7.257
 4095AUSL   AUS 4011  24.248  46.292   8.083
 4096AUSL   AUS 4012  24.104  45.876   8.013
 4097AUL    AUL 4013  24.330  45.989   8.297
 4098THSLK    S 4014  24.214  45.689   8.153
 4099ETHY    C1 4015  24.250  45.290   8.368
 4100ETHY    C1 4016  24.360  44.860   8.665
 4101ETHY    C1 4017  24.538  44.496   9.000
 4102ETHY    C1 4018  24.772  44.200   9.364
 4103ETHY    C1 4019  25.058  43.983   9.752
 4104ETHY    C1 4020  25.389  43.850  10.156
 4105THSLK    S 4021  24.341  46.240   8.324
 4106ETHY    C1 4022  24.545  46.020   8.665
 4107ETHY    C1 4023  24.809  45.843   9.094
 4108ETHY    C1 4024  25.085  45.767   9.535
 4109ETHY    C1 4025  25.362  45.784   9.980
 4110ETHY    C1 4026  25.632  45.897  10.419
 4111ETHY    C1 4027  25.891  46.106  10.845
 4112AUSL   AUS 4028  24.003  46.141   8.176
 4113AUSL   AUS 4029  23.675  46.444   8.176
 4114AUL    AUL 4030  23.839  46.292   8.484
 4115THSLK    S 4031  24.078  46.086   8.413
 4116ETHY    C1 4032  24.142  45.806   8.765
 4117ETHY    C1 4033  24.245  45.551   9.223
 4118ETHY    C1 4034  24.372  45.392   9.708
 4119ETHY    C1 4035  24.514  45.323  10.208
 4120ETHY    C1 4036  24.668  45.351  10.713
 4121ETHY    C1 4037  24.828  45.475  11.212
 4122THSLK    S 4038  23.590  46.398   8.428
 4123ETHY    C1 4039  23.516  46.248   8.850
 4124ETHY    C1 4040  23.411  46.160   9.367
 4125ETHY    C1 4041  23.289  46.172   9.878
 4126ETHY    C1 4042  23.151  46.273  10.373
 4127ETHY    C1 4043  22.996  46.466  10.840
 4128ETHY    C1 4044  22.827  46.747  11.268
 4129AUSL   AUS 4045  24.003  46.444   8.176
 4130AUSL   AUS 4046  24.349  46.557   7.919
 4131AUL    AUL 4047  24.330  46.596   8.297
 4132THSLK    S 4048  24.088  46.500   8.410
 4133ETHY    C1 4049  24.162  46.781   8.759
 4134ETHY    C1 4050  24.267  47.036   9.217
 4135ETHY    C1 4051  24.389  47.195   9.703
 4136ETHY    C1 4052  24.528  47.264  10.204
 4137ETHY    C1 4053  24.682  47.237  10.708
 4138ETHY    C1 4054  24.851  47.113  11.206
 4139THSLK    S 4055  24.521  46.655   8.080
 4140ETHY    C1 4056  24.884  46.626   8.350
 4141ETHY    C1 4057  25.306  46.682   8.673
 4142ETHY    C1 4058  25.698  46.836   8.989
 4143ETHY    C1 4059  26.052  47.074   9.293
 4144ETHY    C1 4060  26.359  47.395   9.580
 4145ETHY    C1 4061  26.610  47.792   9.844
 4146AUSL   AUS 4062  24.248  46.292   6.923
 4147AUSL   AUS 4063  24.104  46.709   6.992
 4148AUL    AUL 4064  24.330  46.596   6.708
 4149THSLK    S 4065  24.350  46.240   6.687
 4150ETHY    C1 4066  24.563  46.020   6.351
 4151ETHY    C1 4067  24.828  45.843   5.923
 4152ETHY    C1 4068  25.100  45.767   5.479
 4153ETHY    C1 4069  25.374  45.784   5.033
 4154ETHY    C1 4070  25.645  45.897   4.594
 4155ETHY    C1 4071  25.910  46.106   4.173
 4156THSLK    S 4072  24.282  46.820   6.829
 4157ETHY    C1 4073  24.584  46.888   6.497
 4158ETHY    C1 4074  24.903  47.051   6.100
 4159ETHY    C1 4075  25.168  47.298   5.719
 4160ETHY    C1 4076  25.380  47.618   5.362
 4161ETHY    C1 4077  25.533  48.008   5.039
 4162ETHY    C1 4078  25.624  48.460   4.759
 4163AUSL   AUS 4079  24.003  46.141   6.829
 4164AUSL   AUS 4080  24.349  46.028   7.086
 4165AUL    AUL 4081  24.330  45.989   6.708
 4166THSLK    S 4082  24.482  45.836   6.949
 4167ETHY    C1 4083  24.665  45.469   6.752
 4168ETHY    C1 4084  24.937  45.097   6.483
 4169ETHY    C1 4085  25.262  44.808   6.186
 4170ETHY    C1 4086  25.628  44.601   5.874
 4171ETHY    C1 4087  26.032  44.482   5.555
 4172ETHY    C1 4088  26.465  44.457   5.235
 4173THSLK    S 4089  24.088  46.085   6.596
 4174ETHY    C1 4090  24.162  45.804   6.246
 4175ETHY    C1 4091  24.267  45.548   5.788
 4176ETHY    C1 4092  24.389  45.390   5.302
 4177ETHY    C1 4093  24.528  45.321   4.801
 4178ETHY    C1 4094  24.682  45.348   4.297
 4179ETHY    C1 4095  24.851  45.472   3.799
 4180AUSL   AUS 4096  24.003  46.444   6.829
 4181AUSL   AUS 4097  23.675  46.141   6.829
 4182AUL    AUL 4098  23.839  46.292   6.521
 4183THSLK    S 4099  23.583  46.085   6.597
 4184ETHY    C1 4100  23.448  45.807   6.264
 4185ETHY    C1 4101  23.287  45.554   5.822
 4186ETHY    C1 4102  23.135  45.397   5.343
 4187ETHY    C1 4103  22.999  45.328   4.842
 4188ETHY    C1 4104  22.882  45.354   4.328
 4189ETHY    C1 4105  22.789  45.473   3.810
 4190THSLK    S 4106  24.105  46.398   6.583
 4191ETHY    C1 4107  24.251  46.248   6.179
 4192ETHY    C1 4108  24.413  46.157   5.678
 4193ETHY    C1 4109  24.560  46.167   5.173
 4194ETHY    C1 4110  24.693  46.268   4.677
 4195ETHY    C1 4111  24.810  46.463   4.200
 4196ETHY    C1 4112  24.911  46.749   3.754
 4197AUSL   AUS 4113  23.430  46.292   8.083
 4198AUSL   AUS 4114  23.574  46.709   8.013
 4199AUL    AUL 4115  23.348  46.596   8.297
 4200THSLK    S 4116  23.328  46.240   8.319
 4201ETHY    C1 4117  23.116  46.020   8.654
 4202ETHY    C1 4118  22.850  45.843   9.082
 4203ETHY    C1 4119  22.578  45.767   9.526
 4204ETHY    C1 4120  22.304  45.784   9.973
 4205ETHY    C1 4121  22.033  45.897  10.411
 4206ETHY    C1 4122  21.768  46.106  10.832
 4207THSLK    S 4123  23.457  46.833   8.202
 4208ETHY    C1 4124  23.414  46.976   8.632
 4209ETHY    C1 4125  23.303  47.201   9.104
 4210ETHY    C1 4126  23.127  47.478   9.515
 4211ETHY    C1 4127  22.896  47.794   9.863
 4212ETHY    C1 4128  22.610  48.142  10.138
 4213ETHY    C1 4129  22.273  48.515  10.334
 4214AUSL   AUS 4130  23.675  46.141   8.176
 4215AUSL   AUS 4131  23.329  46.028   7.919
 4216AUL    AUL 4132  23.348  45.989   8.297
 4217THSLK    S 4133  23.152  45.865   8.026
 4218ETHY    C1 4134  22.781  45.608   8.082
 4219ETHY    C1 4135  22.359  45.320   8.237
 4220ETHY    C1 4136  21.969  45.065   8.482
 4221ETHY    C1 4137  21.617  44.848   8.803
 4222ETHY    C1 4138  21.311  44.677   9.198
 4223ETHY    C1 4139  21.054  44.556   9.657
 4224THSLK    S 4140  23.573  46.087   8.406
 4225ETHY    C1 4141  23.427  45.811   8.736
 4226ETHY    C1 4142  23.265  45.559   9.178
 4227ETHY    C1 4143  23.118  45.401   9.658
 4228ETHY    C1 4144  22.985  45.331  10.160
 4229ETHY    C1 4145  22.868  45.357  10.674
 4230ETHY    C1 4146  22.767  45.478  11.190
 4231AUSL   AUS 4147  23.430  46.292   6.923
 4232AUSL   AUS 4148  23.574  45.876   6.992
 4233AUL    AUL 4149  23.348  45.989   6.708
 4234THSLK    S 4150  23.337  46.240   6.681
 4235ETHY    C1 4151  23.133  46.020   6.341
 4236ETHY    C1 4152  22.869  45.843   5.911
 4237ETHY    C1 4153  22.593  45.767   5.470
 4238ETHY    C1 4154  22.316  45.784   5.025
 4239ETHY    C1 4155  22.046  45.897   4.586
 4240ETHY    C1 4156  21.787  46.106   4.161
 4241THSLK    S 4157  23.403  45.703   6.878
 4242ETHY    C1 4158  23.108  45.377   6.760
 4243ETHY    C1 4159  22.790  45.010   6.538
 4244ETHY    C1 4160  22.522  44.675   6.233
 4245ETHY    C1 4161  22.308  44.375   5.861
 4246ETHY    C1 4162  22.156  44.117   5.426
 4247ETHY    C1 4163  22.070  43.905   4.937
 4248AUSL   AUS 4164  23.675  46.444   6.829
 4249AUSL   AUS 4165  23.329  46.557   7.086
 4250AUL    AUL 4166  23.348  46.596   6.708
 4251THSLK    S 4167  23.202  46.684   6.895
 4252ETHY    C1 4168  23.025  46.765   6.484
 4253ETHY    C1 4169  22.754  46.905   6.046
 4254ETHY    C1 4170  22.427  47.093   5.679
 4255ETHY    C1 4171  22.058  47.322   5.385
 4256ETHY    C1 4172  21.656  47.589   5.173
 4257ETHY    C1 4173  21.227  47.891   5.047
 4258THSLK    S 4174  23.600  46.400   6.576
 4259ETHY    C1 4175  23.536  46.253   6.150
 4260ETHY    C1 4176  23.433  46.164   5.634
 4261ETHY    C1 4177  23.306  46.175   5.123
 4262ETHY    C1 4178  23.164  46.276   4.629
 4263ETHY    C1 4179  23.011  46.469   4.162
 4264ETHY    C1 4180  22.850  46.752   3.732
 4265AUSL   AUS 4181  24.419  46.701   7.503
 4266AUSL   AUS 4182  24.349  46.557   7.086
 4267AUL    AUL 4183  24.633  46.783   7.199
 4268THSLK    S 4184  24.527  46.656   6.934
 4269ETHY    C1 4185  24.897  46.629   6.671
 4270ETHY    C1 4186  25.319  46.685   6.349
 4271ETHY    C1 4187  25.709  46.839   6.030
 4272ETHY    C1 4188  26.061  47.076   5.724
 4273ETHY    C1 4189  26.368  47.397   5.438
 4274ETHY    C1 4190  26.624  47.796   5.179
 4275THSLK    S 4191  24.685  46.754   7.508
 4276ETHY    C1 4192  25.139  46.776   7.513
 4277ETHY    C1 4193  25.661  46.890   7.514
 4278ETHY    C1 4194  26.144  47.099   7.511
 4279ETHY    C1 4195  26.580  47.389   7.510
 4280ETHY    C1 4196  26.959  47.756   7.510
 4281ETHY    C1 4197  27.273  48.196   7.514
 4282AUSL   AUS 4198  24.513  46.456   7.351
 4283AUSL   AUS 4199  24.513  46.129   7.654
 4284AUL    AUL 4200  24.821  46.292   7.503
 4285THSLK    S 4201  24.769  46.495   7.350
 4286ETHY    C1 4202  25.205  46.387   7.286
 4287ETHY    C1 4203  25.731  46.349   7.201
 4288ETHY    C1 4204  26.246  46.413   7.113
 4289ETHY    C1 4205  26.740  46.567   7.026
 4290ETHY    C1 4206  27.200  46.812   6.945
 4291ETHY    C1 4207  27.619  47.144   6.873
 4292THSLK    S 4208  24.740  45.989   7.663
 4293ETHY    C1 4209  25.059  45.673   7.728
 4294ETHY    C1 4210  25.492  45.369   7.807
 4295ETHY    C1 4211  25.967  45.159   7.887
 4296ETHY    C1 4212  26.470  45.038   7.971
 4297ETHY    C1 4213  26.990  45.012   8.058
 4298ETHY    C1 4214  27.518  45.082   8.147
 4299AUSL   AUS 4215  24.513  46.456   7.654
 4300AUSL   AUS 4216  24.255  46.803   7.767
 4301AUL    AUL 4217  24.633  46.783   7.806
 4302THSLK    S 4218  24.438  46.917   7.926
 4303ETHY    C1 4219  24.821  47.035   8.140
 4304ETHY    C1 4220  25.239  47.258   8.388
 4305ETHY    C1 4221  25.598  47.563   8.622
 4306ETHY    C1 4222  25.895  47.936   8.840
 4307ETHY    C1 4223  26.120  48.370   9.038
 4308ETHY    C1 4224  26.267  48.858   9.215
 4309THSLK    S 4225  24.767  46.495   7.665
 4310ETHY    C1 4226  25.202  46.387   7.740
 4311ETHY    C1 4227  25.728  46.349   7.826
 4312ETHY    C1 4228  26.243  46.412   7.910
 4313ETHY    C1 4229  26.737  46.566   7.993
 4314ETHY    C1 4230  27.198  46.811   8.075
 4315ETHY    C1 4231  27.615  47.143   8.155
 4316AUSL   AUS 4232  23.259  46.701   7.503
 4317AUSL   AUS 4233  23.329  46.557   7.919
 4318AUL    AUL 4234  23.045  46.783   7.806
 4319THSLK    S 4235  23.196  46.676   8.109
 4320ETHY    C1 4236  23.013  46.748   8.519
 4321ETHY    C1 4237  22.741  46.888   8.957
 4322ETHY    C1 4238  22.416  47.079   9.324
 4323ETHY    C1 4239  22.050  47.310   9.619
 4324ETHY    C1 4240  21.647  47.577   9.831
 4325ETHY    C1 4241  21.213  47.873   9.956
 4326THSLK    S 4242  23.048  46.842   7.508
 4327ETHY    C1 4243  22.826  47.239   7.513
 4328ETHY    C1 4244  22.490  47.654   7.514
 4329ETHY    C1 4245  22.087  47.993   7.511
 4330ETHY    C1 4246  21.633  48.254   7.510
 4331ETHY    C1 4247  21.134  48.428   7.510
 4332ETHY    C1 4248  20.601  48.512   7.514
 4333AUSL   AUS 4249  23.165  46.456   7.351
 4334AUSL   AUS 4250  23.423  46.803   7.238
 4335AUL    AUL 4251  23.045  46.783   7.199
 4336THSLK    S 4252  22.938  46.571   7.303
 4337ETHY    C1 4253  22.619  46.771   7.049
 4338ETHY    C1 4254  22.186  46.977   6.813
 4339ETHY    C1 4255  21.711  47.143   6.661
 4340ETHY    C1 4256  21.208  47.272   6.590
 4341ETHY    C1 4257  20.688  47.362   6.605
 4342ETHY    C1 4258  20.160  47.410   6.708
 4343THSLK    S 4259  23.311  46.966   7.060
 4344ETHY    C1 4260  23.232  47.276   6.737
 4345ETHY    C1 4261  23.057  47.650   6.397
 4346ETHY    C1 4262  22.803  48.018   6.120
 4347ETHY    C1 4263  22.483  48.375   5.909
 4348ETHY    C1 4264  22.102  48.713   5.770
 4349ETHY    C1 4265  21.667  49.027   5.709
 4350AUSL   AUS 4266  23.165  46.456   7.654
 4351AUSL   AUS 4267  23.165  46.129   7.351
 4352AUL    AUL 4268  22.857  46.292   7.503
 4353THSLK    S 4269  22.911  46.056   7.394
 4354ETHY    C1 4270  22.476  46.038   7.524
 4355ETHY    C1 4271  21.950  45.978   7.597
 4356ETHY    C1 4272  21.435  45.874   7.578
 4357ETHY    C1 4273  20.941  45.731   7.477
 4358ETHY    C1 4274  20.481  45.548   7.294
 4359ETHY    C1 4275  20.063  45.328   7.034
 4360THSLK    S 4276  22.937  46.562   7.707
 4361ETHY    C1 4277  22.616  46.753   7.966
 4362ETHY    C1 4278  22.183  46.957   8.202
 4363ETHY    C1 4279  21.708  47.128   8.352
 4364ETHY    C1 4280  21.206  47.260   8.422
 4365ETHY    C1 4281  20.686  47.348   8.407
 4366ETHY    C1 4282  20.157  47.389   8.308
 4367AUSL   AUS 4283  24.419  45.883   7.503
 4368AUSL   AUS 4284  24.349  46.028   7.919
 4369AUL    AUL 4285  24.633  45.802   7.806
 4370THSLK    S 4286  24.630  45.742   7.508
 4371ETHY    C1 4287  24.852  45.346   7.513
 4372ETHY    C1 4288  25.188  44.931   7.514
 4373ETHY    C1 4289  25.591  44.592   7.511
 4374ETHY    C1 4290  26.045  44.331   7.510
 4375ETHY    C1 4291  26.544  44.157   7.510
 4376ETHY    C1 4292  27.077  44.073   7.514
 4377THSLK    S 4293  24.476  45.837   8.064
 4378ETHY    C1 4294  24.653  45.472   8.270
 4379ETHY    C1 4295  24.924  45.100   8.540
 4380ETHY    C1 4296  25.251  44.811   8.834
 4381ETHY    C1 4297  25.620  44.603   9.142
 4382ETHY    C1 4298  26.022  44.485   9.462
 4383ETHY    C1 4299  26.451  44.460   9.789
 4384AUSL   AUS 4300  24.513  46.129   7.351
 4385AUSL   AUS 4301  24.255  45.782   7.238
 4386AUL    AUL 4302  24.633  45.802   7.199
 4387THSLK    S 4303  24.741  45.989   7.353
 4388ETHY    C1 4304  25.062  45.672   7.298
 4389ETHY    C1 4305  25.495  45.369   7.221
 4390ETHY    C1 4306  25.970  45.159   7.136
 4391ETHY    C1 4307  26.472  45.038   7.048
 4392ETHY    C1 4308  26.992  45.011   6.963
 4393ETHY    C1 4309  27.521  45.082   6.881
 4394THSLK    S 4310  24.371  45.593   7.108
 4395ETHY    C1 4311  24.455  45.164   6.984
 4396ETHY    C1 4312  24.630  44.692   6.803
 4397ETHY    C1 4313  24.883  44.281   6.593
 4398ETHY    C1 4314  25.201  43.933   6.366
 4399ETHY    C1 4315  25.583  43.658   6.126
 4400ETHY    C1 4316  26.021  43.461   5.880
 4401AUSL   AUS 4317  23.259  45.883   7.503
 4402AUSL   AUS 4318  23.329  46.028   7.086
 4403AUL    AUL 4319  23.045  45.802   7.199
 4404THSLK    S 4320  23.158  45.857   6.978
 4405ETHY    C1 4321  22.794  45.592   6.921
 4406ETHY    C1 4322  22.372  45.302   6.766
 4407ETHY    C1 4323  21.980  45.050   6.521
 4408ETHY    C1 4324  21.626  44.837   6.200
 4409ETHY    C1 4325  21.319  44.664   5.806
 4410ETHY    C1 4326  21.068  44.537   5.346
 4411THSLK    S 4327  22.993  45.831   7.508
 4412ETHY    C1 4328  22.539  45.809   7.513
 4413ETHY    C1 4329  22.017  45.695   7.514
 4414ETHY    C1 4330  21.535  45.486   7.511
 4415ETHY    C1 4331  21.098  45.196   7.510
 4416ETHY    C1 4332  20.719  44.829   7.510
 4417ETHY    C1 4333  20.406  44.389   7.514
 4418AUSL   AUS 4334  23.165  46.129   7.654
 4419AUSL   AUS 4335  23.423  45.782   7.767
 4420AUL    AUL 4336  23.045  45.802   7.806
 4421THSLK    S 4337  23.235  45.642   7.878
 4422ETHY    C1 4338  22.848  45.405   7.893
 4423ETHY    C1 4339  22.430  45.085   7.982
 4424ETHY    C1 4340  22.072  44.736   8.149
 4425ETHY    C1 4341  21.777  44.372   8.382
 4426ETHY    C1 4342  21.552  44.001   8.683
 4427ETHY    C1 4343  21.401  43.630   9.045
 4428THSLK    S 4344  22.909  46.066   7.616
 4429ETHY    C1 4345  22.473  46.056   7.491
 4430ETHY    C1 4346  21.947  45.997   7.419
 4431ETHY    C1 4347  21.432  45.890   7.436
 4432ETHY    C1 4348  20.938  45.744   7.535
 4433ETHY    C1 4349  20.478  45.562   7.718
 4434ETHY    C1 4350  20.059  45.349   7.983
 4435AUSL   AUS 4351  23.839  46.872   7.912
 4436AUSL   AUS 4352  23.423  46.803   7.767
 4437AUL    AUL 4353  23.536  47.087   7.993
 4438THSLK    S 4354  23.307  46.959   7.952
 4439ETHY    C1 4355  23.223  47.261   8.280
 4440ETHY    C1 4356  23.048  47.634   8.621
 4441ETHY    C1 4357  22.795  48.005   8.895
 4442ETHY    C1 4358  22.477  48.364   9.105
 4443ETHY    C1 4359  22.095  48.702   9.244
 4444ETHY    C1 4360  21.657  49.010   9.309
 4445THSLK    S 4361  23.881  47.094   8.035
 4446ETHY    C1 4362  24.065  47.369   8.347
 4447ETHY    C1 4363  24.215  47.749   8.691
 4448ETHY    C1 4364  24.281  48.172   8.998
 4449ETHY    C1 4365  24.268  48.623   9.264
 4450ETHY    C1 4366  24.171  49.092   9.485
 4451ETHY    C1 4367  23.991  49.571   9.656
 4452AUSL   AUS 4368  23.687  46.966   7.666
 4453AUSL   AUS 4369  23.991  46.966   7.339
 4454AUL    AUL 4370  23.839  47.274   7.503
 4455THSLK    S 4371  23.730  47.210   7.776
 4456ETHY    C1 4372  23.874  47.604   7.951
 4457ETHY    C1 4373  23.961  48.098   8.137
 4458ETHY    C1 4374  23.949  48.599   8.294
 4459ETHY    C1 4375  23.848  49.097   8.425
 4460ETHY    C1 4376  23.656  49.578   8.527
 4461ETHY    C1 4377  23.376  50.033   8.600
 4462THSLK    S 4378  24.046  47.197   7.243
 4463ETHY    C1 4379  24.322  47.527   7.096
 4464ETHY    C1 4380  24.572  47.968   6.927
 4465ETHY    C1 4381  24.728  48.445   6.771
 4466ETHY    C1 4382  24.797  48.947   6.635
 4467ETHY    C1 4383  24.773  49.463   6.525
 4468ETHY    C1 4384  24.656  49.983   6.443
 4469AUSL   AUS 4385  23.991  46.966   7.666
 4470AUSL   AUS 4386  24.104  46.709   8.013
 4471AUL    AUL 4387  24.142  47.087   7.993
 4472THSLK    S 4388  24.275  46.817   8.183
 4473ETHY    C1 4389  24.570  46.882   8.523
 4474ETHY    C1 4390  24.888  47.044   8.920
 4475ETHY    C1 4391  25.156  47.293   9.298
 4476ETHY    C1 4392  25.370  47.615   9.653
 4477ETHY    C1 4393  25.522  48.003   9.976
 4478ETHY    C1 4394  25.608  48.453  10.262
 4479THSLK    S 4395  24.044  47.195   7.772
 4480ETHY    C1 4396  24.316  47.523   7.929
 4481ETHY    C1 4397  24.566  47.963   8.100
 4482ETHY    C1 4398  24.724  48.442   8.251
 4483ETHY    C1 4399  24.793  48.944   8.383
 4484ETHY    C1 4400  24.769  49.459   8.494
 4485ETHY    C1 4401  24.650  49.978   8.585
 4486AUSL   AUS 4402  23.839  45.712   7.912
 4487AUSL   AUS 4403  24.255  45.782   7.767
 4488AUL    AUL 4404  24.142  45.498   7.993
 4489THSLK    S 4405  23.792  45.462   7.989
 4490ETHY    C1 4406  23.602  45.066   8.103
 4491ETHY    C1 4407  23.451  44.588   8.289
 4492ETHY    C1 4408  23.388  44.123   8.528
 4493ETHY    C1 4409  23.403  43.681   8.809
 4494ETHY    C1 4410  23.499  43.274   9.132
 4495ETHY    C1 4411  23.674  42.911   9.489
 4496THSLK    S 4412  24.367  45.595   7.907
 4497ETHY    C1 4413  24.446  45.167   8.040
 4498ETHY    C1 4414  24.621  44.697   8.222
 4499ETHY    C1 4415  24.875  44.285   8.428
 4500ETHY    C1 4416  25.195  43.936   8.652
 4501ETHY    C1 4417  25.576  43.661   8.893
 4502ETHY    C1 4418  26.011  43.465   9.147
 4503AUSL   AUS 4419  23.687  45.619   7.666
 4504AUSL   AUS 4420  23.574  45.876   8.013
 4505AUL    AUL 4421  23.536  45.498   7.993
 4506THSLK    S 4422  23.632  45.383   7.745
 4507ETHY    C1 4423  23.357  45.024   7.788
 4508ETHY    C1 4424  23.106  44.559   7.869
 4509ETHY    C1 4425  22.950  44.069   7.981
 4510ETHY    C1 4426  22.881  43.570   8.122
 4511ETHY    C1 4427  22.905  43.070   8.292
 4512ETHY    C1 4428  23.022  42.582   8.489
 4513THSLK    S 4429  23.396  45.710   8.129
 4514ETHY    C1 4430  23.094  45.392   8.248
 4515ETHY    C1 4431  22.775  45.025   8.471
 4516ETHY    C1 4432  22.510  44.688   8.776
 4517ETHY    C1 4433  22.298  44.386   9.147
 4518ETHY    C1 4434  22.145  44.128   9.582
 4519ETHY    C1 4435  22.054  43.921  10.072
 4520AUSL   AUS 4436  23.991  45.619   7.666
 4521AUSL   AUS 4437  23.687  45.619   7.339
 4522AUL    AUL 4438  23.839  45.311   7.503
 4523THSLK    S 4439  23.634  45.380   7.270
 4524ETHY    C1 4440  23.362  45.018   7.236
 4525ETHY    C1 4441  23.112  44.553   7.157
 4526ETHY    C1 4442  22.955  44.064   7.041
 4527ETHY    C1 4443  22.885  43.565   6.896
 4528ETHY    C1 4444  22.909  43.066   6.727
 4529ETHY    C1 4445  23.028  42.575   6.538
 4530THSLK    S 4446  23.945  45.367   7.749
 4531ETHY    C1 4447  23.798  44.941   7.811
 4532ETHY    C1 4448  23.712  44.423   7.906
 4533ETHY    C1 4449  23.724  43.910   8.025
 4534ETHY    C1 4450  23.826  43.415   8.165
 4535ETHY    C1 4451  24.018  42.950   8.325
 4536ETHY    C1 4452  24.296  42.524   8.504
 4537AUSL   AUS 4453  23.839  46.872   7.094
 4538AUSL   AUS 4454  24.255  46.803   7.238
 4539AUL    AUL 4455  24.142  47.087   7.012
 4540THSLK    S 4456  23.886  47.099   6.977
 4541ETHY    C1 4457  24.076  47.378   6.674
 4542ETHY    C1 4458  24.227  47.759   6.330
 4543ETHY    C1 4459  24.291  48.179   6.021
 4544ETHY    C1 4460  24.275  48.629   5.752
 4545ETHY    C1 4461  24.179  49.099   5.532
 4546ETHY    C1 4462  24.004  49.582   5.366
 4547THSLK    S 4463  24.443  46.919   7.089
 4548ETHY    C1 4464  24.830  47.039   6.883
 4549ETHY    C1 4465  25.248  47.262   6.637
 4550ETHY    C1 4466  25.606  47.566   6.400
 4551ETHY    C1 4467  25.901  47.938   6.178
 4552ETHY    C1 4468  26.126  48.373   5.981
 4553ETHY    C1 4469  26.277  48.862   5.811
 4554AUSL   AUS 4470  23.687  46.966   7.339
 4555AUSL   AUS 4471  23.574  46.709   6.992
 4556AUL    AUL 4472  23.536  47.087   7.012
 4557THSLK    S 4473  23.733  47.213   7.239
 4558ETHY    C1 4474  23.880  47.610   7.074
 4559ETHY    C1 4475  23.966  48.104   6.889
 4560ETHY    C1 4476  23.954  48.605   6.727
 4561ETHY    C1 4477  23.852  49.101   6.593
 4562ETHY    C1 4478  23.660  49.582   6.492
 4563ETHY    C1 4479  23.382  50.040   6.427
 4564THSLK    S 4480  23.464  46.841   6.805
 4565ETHY    C1 4481  23.428  46.990   6.377
 4566ETHY    C1 4482  23.318  47.216   5.906
 4567ETHY    C1 4483  23.140  47.491   5.494
 4568ETHY    C1 4484  22.906  47.804   5.145
 4569ETHY    C1 4485  22.620  48.153   4.870
 4570ETHY    C1 4486  22.289  48.531   4.675
 4571AUSL   AUS 4487  23.839  45.712   7.094
 4572AUSL   AUS 4488  23.423  45.782   7.238
 4573AUL    AUL 4489  23.536  45.498   7.012
 4574THSLK    S 4490  23.240  45.634   7.134
 4575ETHY    C1 4491  22.857  45.390   7.124
 4576ETHY    C1 4492  22.439  45.069   7.035
 4577ETHY    C1 4493  22.080  44.723   6.866
 4578ETHY    C1 4494  21.783  44.362   6.631
 4579ETHY    C1 4495  21.558  43.990   6.331
 4580ETHY    C1 4496  21.411  43.613   5.974
 4581THSLK    S 4497  23.797  45.457   7.024
 4582ETHY    C1 4498  23.613  45.056   6.917
 4583ETHY    C1 4499  23.463  44.578   6.732
 4584ETHY    C1 4500  23.397  44.115   6.491
 4585ETHY    C1 4501  23.410  43.675   6.206
 4586ETHY    C1 4502  23.507  43.268   5.885
 4587ETHY    C1 4503  23.687  42.900   5.533
 4588AUSL   AUS 4504  23.991  45.619   7.339
 4589AUSL   AUS 4505  24.104  45.876   6.992
 4590AUL    AUL 4506  24.142  45.498   7.012
 4591THSLK    S 4507  23.948  45.365   7.266
 4592ETHY    C1 4508  23.804  44.937   7.213
 4593ETHY    C1 4509  23.717  44.418   7.120
 4594ETHY    C1 4510  23.729  43.906   6.997
 4595ETHY    C1 4511  23.830  43.412   6.854
 4596ETHY    C1 4512  24.022  42.947   6.695
 4597ETHY    C1 4513  24.302  42.519   6.523
 4598THSLK    S 4514  24.221  45.686   6.859
 4599ETHY    C1 4515  24.265  45.284   6.651
 4600ETHY    C1 4516  24.375  44.853   6.355
 4601ETHY    C1 4517  24.551  44.490   6.017
 4602ETHY    C1 4518  24.782  44.196   5.651
 4603ETHY    C1 4519  25.068  43.979   5.264
 4604ETHY    C1 4520  25.405  43.843   4.865
 4605AUC    AUC 4521  46.503  27.585   7.503
 4606AUC    AUC 4522  46.748  27.585   7.351
 4607AUC    AUC 4523  46.748  27.585   7.654
 4608AUC    AUC 4524  46.258  27.585   7.351
 4609AUC    AUC 4525  46.258  27.585   7.654
 4610AUC    AUC 4526  46.351  27.831   7.503
 4611AUC    AUC 4527  46.655  27.831   7.503
 4612AUC    AUC 4528  46.351  27.340   7.503
 4613AUC    AUC 4529  46.655  27.340   7.503
 4614AUC    AUC 4530  46.503  27.434   7.748
 4615AUC    AUC 4531  46.503  27.737   7.748
 4616AUC    AUC 4532  46.503  27.434   7.257
 4617AUC    AUC 4533  46.503  27.737   7.257
 4618AUC    AUC 4534  46.994  27.585   7.199
 4619AUC    AUC 4535  46.994  27.585   7.503
 4620AUC    AUC 4536  46.994  27.585   7.806
 4621AUC    AUC 4537  46.012  27.585   7.199
 4622AUC    AUC 4538  46.012  27.585   7.503
 4623AUC    AUC 4539  46.012  27.585   7.806
 4624AUC    AUC 4540  46.200  28.076   7.503
 4625AUC    AUC 4541  46.503  28.076   7.503
 4626AUC    AUC 4542  46.806  28.076   7.503
 4627AUC    AUC 4543  46.200  27.095   7.503
 4628AUC    AUC 4544  46.503  27.095   7.503
 4629AUC    AUC 4545  46.806  27.095   7.503
 4630AUC    AUC 4546  46.503  27.282   7.993
 4631AUC    AUC 4547  46.503  27.585   7.993
 4632AUC    AUC 4548  46.503  27.889   7.993
 4633AUC    AUC 4549  46.503  27.282   7.012
 4634AUC    AUC 4550  46.503  27.585   7.012
 4635AUC    AUC 4551  46.503  27.889   7.012
 4636AUC    AUC 4552  46.748  27.434   7.900
 4637AUC    AUC 4553  46.748  27.737   7.900
 4638AUC    AUC 4554  46.748  27.434   7.106
 4639AUC    AUC 4555  46.748  27.737   7.106
 4640AUC    AUC 4556  46.258  27.434   7.900
 4641AUC    AUC 4557  46.258  27.737   7.900
 4642AUC    AUC 4558  46.258  27.434   7.106
 4643AUC    AUC 4559  46.258  27.737   7.106
 4644AUC    AUC 4560  46.900  27.831   7.351
 4645AUC    AUC 4561  46.900  27.831   7.654
 4646AUC    AUC 4562  46.106  27.831   7.351
 4647AUC    AUC 4563  46.106  27.831   7.654
 4648AUC    AUC 4564  46.900  27.340   7.351
 4649AUC    AUC 4565  46.900  27.340   7.654
 4650AUC    AUC 4566  46.106  27.340   7.351
 4651AUC    AUC 4567  46.106  27.340   7.654
 4652AUC    AUC 4568  46.351  27.983   7.748
 4653AUC    AUC 4569  46.655  27.983   7.748
 4654AUC    AUC 4570  46.351  27.188   7.748
 4655AUC    AUC 4571  46.655  27.188   7.748
 4656AUC    AUC 4572  46.351  27.983   7.257
 4657AUC    AUC 4573  46.655  27.983   7.257
 4658AUC    AUC 4574  46.351  27.188   7.257
 4659AUC    AUC 4575  46.655  27.188   7.257
 4660AUSL   AUS 4576  46.912  27.585   8.083
 4661AUSL   AUS 4577  46.768  27.169   8.013
 4662AUL    AUL 4578  46.994  27.282   8.297
 4663THSLK    S 4579  46.878  26.982   8.153
 4664ETHY    C1 4580  46.914  26.583   8.368
 4665ETHY    C1 4581  47.024  26.153   8.665
 4666ETHY    C1 4582  47.202  25.789   9.000
 4667ETHY    C1 4583  47.436  25.493   9.364
 4668ETHY    C1 4584  47.722  25.276   9.752
 4669ETHY    C1 4585  48.053  25.143  10.156
 4670THSLK    S 4586  47.005  27.533   8.324
 4671ETHY    C1 4587  47.209  27.313   8.665
 4672ETHY    C1 4588  47.473  27.136   9.094
 4673ETHY    C1 4589  47.749  27.060   9.535
 4674ETHY    C1 4590  48.026  27.077   9.980
 4675ETHY    C1 4591  48.296  27.190  10.419
 4676ETHY    C1 4592  48.555  27.399  10.845
 4677AUSL   AUS 4593  46.667  27.434   8.176
 4678AUSL   AUS 4594  46.339  27.737   8.176
 4679AUL    AUL 4595  46.503  27.585   8.484
 4680THSLK    S 4596  46.742  27.379   8.413
 4681ETHY    C1 4597  46.806  27.099   8.765
 4682ETHY    C1 4598  46.909  26.844   9.223
 4683ETHY    C1 4599  47.036  26.685   9.708
 4684ETHY    C1 4600  47.178  26.616  10.208
 4685ETHY    C1 4601  47.332  26.644  10.713
 4686ETHY    C1 4602  47.492  26.768  11.212
 4687THSLK    S 4603  46.254  27.691   8.428
 4688ETHY    C1 4604  46.180  27.541   8.850
 4689ETHY    C1 4605  46.075  27.453   9.367
 4690ETHY    C1 4606  45.953  27.465   9.878
 4691ETHY    C1 4607  45.815  27.566  10.373
 4692ETHY    C1 4608  45.660  27.759  10.840
 4693ETHY    C1 4609  45.491  28.040  11.268
 4694AUSL   AUS 4610  46.667  27.737   8.176
 4695AUSL   AUS 4611  47.013  27.850   7.919
 4696AUL    AUL 4612  46.994  27.889   8.297
 4697THSLK    S 4613  46.752  27.793   8.410
 4698ETHY    C1 4614  46.826  28.074   8.759
 4699ETHY    C1 4615  46.931  28.329   9.217
 4700ETHY    C1 4616  47.053  28.488   9.703
 4701ETHY    C1 4617  47.192  28.557  10.204
 4702ETHY    C1 4618  47.346  28.530  10.708
 4703ETHY    C1 4619  47.515  28.406  11.206
 4704THSLK    S 4620  47.185  27.948   8.080
 4705ETHY    C1 4621  47.548  27.919   8.350
 4706ETHY    C1 4622  47.970  27.975   8.673
 4707ETHY    C1 4623  48.362  28.129   8.989
 4708ETHY    C1 4624  48.716  28.367   9.293
 4709ETHY    C1 4625  49.023  28.688   9.580
 4710ETHY    C1 4626  49.274  29.085   9.844
 4711AUSL   AUS 4627  46.912  27.585   6.923
 4712AUSL   AUS 4628  46.768  28.002   6.992
 4713AUL    AUL 4629  46.994  27.889   6.708
 4714THSLK    S 4630  47.014  27.533   6.687
 4715ETHY    C1 4631  47.227  27.313   6.351
 4716ETHY    C1 4632  47.492  27.136   5.923
 4717ETHY    C1 4633  47.764  27.060   5.479
 4718ETHY    C1 4634  48.038  27.077   5.033
 4719ETHY    C1 4635  48.309  27.190   4.594
 4720ETHY    C1 4636  48.574  27.399   4.173
 4721THSLK    S 4637  46.946  28.113   6.829
 4722ETHY    C1 4638  47.248  28.181   6.497
 4723ETHY    C1 4639  47.567  28.344   6.100
 4724ETHY    C1 4640  47.832  28.591   5.719
 4725ETHY    C1 4641  48.044  28.911   5.362
 4726ETHY    C1 4642  48.197  29.301   5.039
 4727ETHY    C1 4643  48.288  29.753   4.759
 4728AUSL   AUS 4644  46.667  27.434   6.829
 4729AUSL   AUS 4645  47.013  27.321   7.086
 4730AUL    AUL 4646  46.994  27.282   6.708
 4731THSLK    S 4647  47.146  27.129   6.949
 4732ETHY    C1 4648  47.329  26.762   6.752
 4733ETHY    C1 4649  47.601  26.390   6.483
 4734ETHY    C1 4650  47.926  26.101   6.186
 4735ETHY    C1 4651  48.292  25.894   5.874
 4736ETHY    C1 4652  48.696  25.775   5.555
 4737ETHY    C1 4653  49.129  25.750   5.235
 4738THSLK    S 4654  46.752  27.378   6.596
 4739ETHY    C1 4655  46.826  27.097   6.246
 4740ETHY    C1 4656  46.931  26.841   5.788
 4741ETHY    C1 4657  47.053  26.683   5.302
 4742ETHY    C1 4658  47.192  26.614   4.801
 4743ETHY    C1 4659  47.346  26.641   4.297
 4744ETHY    C1 4660  47.515  26.765   3.799
 4745AUSL   AUS 4661  46.667  27.737   6.829
 4746AUSL   AUS 4662  46.339  27.434   6.829
 4747AUL    AUL 4663  46.503  27.585   6.521
 4748THSLK    S 4664  46.247  27.378   6.597
 4749ETHY    C1 4665  46.112  27.100   6.264
 4750ETHY    C1 4666  45.951  26.847   5.822
 4751ETHY    C1 4667  45.799  26.690   5.343
 4752ETHY    C1 4668  45.663  26.621   4.842
 4753ETHY    C1 4669  45.546  26.647   4.328
 4754ETHY    C1 4670  45.453  26.766   3.810
 4755THSLK    S 4671  46.769  27.691   6.583
 4756ETHY    C1 4672  46.915  27.541   6.179
 4757ETHY    C1 4673  47.077  27.450   5.678
 4758ETHY    C1 4674  47.224  27.460   5.173
 4759ETHY    C1 4675  47.357  27.561   4.677
 4760ETHY    C1 4676  47.474  27.756   4.200
 4761ETHY    C1 4677  47.575  28.042   3.754
 4762AUSL   AUS 4678  46.094  27.585   8.083
 4763AUSL   AUS 4679  46.238  28.002   8.013
 4764AUL    AUL 4680  46.012  27.889   8.297
 4765THSLK    S 4681  45.992  27.533   8.319
 4766ETHY    C1 4682  45.780  27.313   8.654
 4767ETHY    C1 4683  45.514  27.136   9.082
 4768ETHY    C1 4684  45.242  27.060   9.526
 4769ETHY    C1 4685  44.968  27.077   9.973
 4770ETHY    C1 4686  44.697  27.190  10.411
 4771ETHY    C1 4687  44.432  27.399  10.832
 4772THSLK    S 4688  46.121  28.126   8.202
 4773ETHY    C1 4689  46.078  28.269   8.632
 4774ETHY    C1 4690  45.967  28.494   9.104
 4775ETHY    C1 4691  45.791  28.771   9.515
 4776ETHY    C1 4692  45.560  29.087   9.863
 4777ETHY    C1 4693  45.274  29.435  10.138
 4778ETHY    C1 4694  44.937  29.808  10.334
 4779AUSL   AUS 4695  46.339  27.434   8.176
 4780AUSL   AUS 4696  45.993  27.321   7.919
 4781AUL    AUL 4697  46.012  27.282   8.297
 4782THSLK    S 4698  45.816  27.158   8.026
 4783ETHY    C1 4699  45.445  26.901   8.082
 4784ETHY    C1 4700  45.023  26.613   8.237
 4785ETHY    C1 4701  44.633  26.358   8.482
 4786ETHY    C1 4702  44.281  26.141   8.803
 4787ETHY    C1 4703  43.975  25.970   9.198
 4788ETHY    C1 4704  43.718  25.849   9.657
 4789THSLK    S 4705  46.237  27.380   8.406
 4790ETHY    C1 4706  46.091  27.104   8.736
 4791ETHY    C1 4707  45.929  26.852   9.178
 4792ETHY    C1 4708  45.782  26.694   9.658
 4793ETHY    C1 4709  45.649  26.624  10.160
 4794ETHY    C1 4710  45.532  26.650  10.674
 4795ETHY    C1 4711  45.431  26.771  11.190
 4796AUSL   AUS 4712  46.094  27.585   6.923
 4797AUSL   AUS 4713  46.238  27.169   6.992
 4798AUL    AUL 4714  46.012  27.282   6.708
 4799THSLK    S 4715  46.001  27.533   6.681
 4800ETHY    C1 4716  45.797  27.313   6.341
 4801ETHY    C1 4717  45.533  27.136   5.911
 4802ETHY    C1 4718  45.257  27.060   5.470
 4803ETHY    C1 4719  44.980  27.077   5.025
 4804ETHY    C1 4720  44.710  27.190   4.586
 4805ETHY    C1 4721  44.451  27.399   4.161
 4806THSLK    S 4722  46.067  26.996   6.878
 4807ETHY    C1 4723  45.772  26.670   6.760
 4808ETHY    C1 4724  45.454  26.303   6.538
 4809ETHY    C1 4725  45.186  25.968   6.233
 4810ETHY    C1 4726  44.972  25.668   5.861
 4811ETHY    C1 4727  44.820  25.410   5.426
 4812ETHY    C1 4728  44.734  25.198   4.937
 4813AUSL   AUS 4729  46.339  27.737   6.829
 4814AUSL   AUS 4730  45.993  27.850   7.086
 4815AUL    AUL 4731  46.012  27.889   6.708
 4816THSLK    S 4732  45.866  27.977   6.895
 4817ETHY    C1 4733  45.689  28.058   6.484
 4818ETHY    C1 4734  45.418  28.198   6.046
 4819ETHY    C1 4735  45.091  28.386   5.679
 4820ETHY    C1 4736  44.722  28.615   5.385
 4821ETHY    C1 4737  44.320  28.882   5.173
 4822ETHY    C1 4738  43.891  29.184   5.047
 4823THSLK    S 4739  46.264  27.693   6.576
 4824ETHY    C1 4740  46.200  27.546   6.150
 4825ETHY    C1 4741  46.097  27.457   5.634
 4826ETHY    C1 4742  45.970  27.468   5.123
 4827ETHY    C1 4743  45.828  27.569   4.629
 4828ETHY    C1 4744  45.675  27.762   4.162
 4829ETHY    C1 4745  45.514  28.045   3.732
 4830AUSL   AUS 4746  47.083  27.994   7.503
 4831AUSL   AUS 4747  47.013  27.850   7.086
 4832AUL    AUL 4748  47.297  28.076   7.199
 4833THSLK    S 4749  47.191  27.949   6.934
 4834ETHY    C1 4750  47.561  27.922   6.671
 4835ETHY    C1 4751  47.983  27.978   6.349
 4836ETHY    C1 4752  48.373  28.132   6.030
 4837ETHY    C1 4753  48.725  28.369   5.724
 4838ETHY    C1 4754  49.032  28.690   5.438
 4839ETHY    C1 4755  49.288  29.089   5.179
 4840THSLK    S 4756  47.349  28.047   7.508
 4841ETHY    C1 4757  47.803  28.069   7.513
 4842ETHY    C1 4758  48.325  28.183   7.514
 4843ETHY    C1 4759  48.808  28.392   7.511
 4844ETHY    C1 4760  49.244  28.682   7.510
 4845ETHY    C1 4761  49.623  29.049   7.510
 4846ETHY    C1 4762  49.937  29.489   7.514
 4847AUSL   AUS 4763  47.177  27.749   7.351
 4848AUSL   AUS 4764  47.177  27.422   7.654
 4849AUL    AUL 4765  47.485  27.585   7.503
 4850THSLK    S 4766  47.433  27.788   7.350
 4851ETHY    C1 4767  47.869  27.680   7.286
 4852ETHY    C1 4768  48.395  27.642   7.201
 4853ETHY    C1 4769  48.910  27.706   7.113
 4854ETHY    C1 4770  49.404  27.860   7.026
 4855ETHY    C1 4771  49.864  28.105   6.945
 4856ETHY    C1 4772  50.283  28.437   6.873
 4857THSLK    S 4773  47.404  27.282   7.663
 4858ETHY    C1 4774  47.723  26.966   7.728
 4859ETHY    C1 4775  48.156  26.662   7.807
 4860ETHY    C1 4776  48.631  26.452   7.887
 4861ETHY    C1 4777  49.134  26.331   7.971
 4862ETHY    C1 4778  49.654  26.305   8.058
 4863ETHY    C1 4779  50.182  26.375   8.147
 4864AUSL   AUS 4780  47.177  27.749   7.654
 4865AUSL   AUS 4781  46.919  28.096   7.767
 4866AUL    AUL 4782  47.297  28.076   7.806
 4867THSLK    S 4783  47.102  28.210   7.926
 4868ETHY    C1 4784  47.485  28.328   8.140
 4869ETHY    C1 4785  47.903  28.551   8.388
 4870ETHY    C1 4786  48.262  28.856   8.622
 4871ETHY    C1 4787  48.559  29.229   8.840
 4872ETHY    C1 4788  48.784  29.663   9.038
 4873ETHY    C1 4789  48.931  30.151   9.215
 4874THSLK    S 4790  47.431  27.788   7.665
 4875ETHY    C1 4791  47.866  27.680   7.740
 4876ETHY    C1 4792  48.392  27.642   7.826
 4877ETHY    C1 4793  48.907  27.705   7.910
 4878ETHY    C1 4794  49.401  27.859   7.993
 4879ETHY    C1 4795  49.862  28.104   8.075
 4880ETHY    C1 4796  50.279  28.436   8.155
 4881AUSL   AUS 4797  45.923  27.994   7.503
 4882AUSL   AUS 4798  45.993  27.850   7.919
 4883AUL    AUL 4799  45.709  28.076   7.806
 4884THSLK    S 4800  45.860  27.969   8.109
 4885ETHY    C1 4801  45.677  28.041   8.519
 4886ETHY    C1 4802  45.405  28.181   8.957
 4887ETHY    C1 4803  45.080  28.372   9.324
 4888ETHY    C1 4804  44.714  28.603   9.619
 4889ETHY    C1 4805  44.311  28.870   9.831
 4890ETHY    C1 4806  43.877  29.166   9.956
 4891THSLK    S 4807  45.712  28.135   7.508
 4892ETHY    C1 4808  45.490  28.532   7.513
 4893ETHY    C1 4809  45.154  28.947   7.514
 4894ETHY    C1 4810  44.751  29.286   7.511
 4895ETHY    C1 4811  44.297  29.547   7.510
 4896ETHY    C1 4812  43.798  29.721   7.510
 4897ETHY    C1 4813  43.265  29.805   7.514
 4898AUSL   AUS 4814  45.829  27.749   7.351
 4899AUSL   AUS 4815  46.087  28.096   7.238
 4900AUL    AUL 4816  45.709  28.076   7.199
 4901THSLK    S 4817  45.602  27.864   7.303
 4902ETHY    C1 4818  45.283  28.064   7.049
 4903ETHY    C1 4819  44.850  28.270   6.813
 4904ETHY    C1 4820  44.375  28.436   6.661
 4905ETHY    C1 4821  43.872  28.565   6.590
 4906ETHY    C1 4822  43.352  28.655   6.605
 4907ETHY    C1 4823  42.824  28.703   6.708
 4908THSLK    S 4824  45.975  28.259   7.060
 4909ETHY    C1 4825  45.896  28.569   6.737
 4910ETHY    C1 4826  45.721  28.943   6.397
 4911ETHY    C1 4827  45.467  29.311   6.120
 4912ETHY    C1 4828  45.147  29.668   5.909
 4913ETHY    C1 4829  44.766  30.006   5.770
 4914ETHY    C1 4830  44.331  30.320   5.709
 4915AUSL   AUS 4831  45.829  27.749   7.654
 4916AUSL   AUS 4832  45.829  27.422   7.351
 4917AUL    AUL 4833  45.521  27.585   7.503
 4918THSLK    S 4834  45.575  27.349   7.394
 4919ETHY    C1 4835  45.140  27.331   7.524
 4920ETHY    C1 4836  44.614  27.271   7.597
 4921ETHY    C1 4837  44.099  27.167   7.578
 4922ETHY    C1 4838  43.605  27.024   7.477
 4923ETHY    C1 4839  43.145  26.841   7.294
 4924ETHY    C1 4840  42.727  26.621   7.034
 4925THSLK    S 4841  45.601  27.855   7.707
 4926ETHY    C1 4842  45.280  28.046   7.966
 4927ETHY    C1 4843  44.847  28.250   8.202
 4928ETHY    C1 4844  44.372  28.421   8.352
 4929ETHY    C1 4845  43.870  28.553   8.422
 4930ETHY    C1 4846  43.350  28.641   8.407
 4931ETHY    C1 4847  42.821  28.682   8.308
 4932AUSL   AUS 4848  47.083  27.176   7.503
 4933AUSL   AUS 4849  47.013  27.321   7.919
 4934AUL    AUL 4850  47.297  27.095   7.806
 4935THSLK    S 4851  47.294  27.035   7.508
 4936ETHY    C1 4852  47.516  26.639   7.513
 4937ETHY    C1 4853  47.852  26.224   7.514
 4938ETHY    C1 4854  48.255  25.885   7.511
 4939ETHY    C1 4855  48.709  25.624   7.510
 4940ETHY    C1 4856  49.208  25.450   7.510
 4941ETHY    C1 4857  49.741  25.366   7.514
 4942THSLK    S 4858  47.140  27.130   8.064
 4943ETHY    C1 4859  47.317  26.765   8.270
 4944ETHY    C1 4860  47.588  26.393   8.540
 4945ETHY    C1 4861  47.915  26.104   8.834
 4946ETHY    C1 4862  48.284  25.896   9.142
 4947ETHY    C1 4863  48.686  25.778   9.462
 4948ETHY    C1 4864  49.115  25.753   9.789
 4949AUSL   AUS 4865  47.177  27.422   7.351
 4950AUSL   AUS 4866  46.919  27.075   7.238
 4951AUL    AUL 4867  47.297  27.095   7.199
 4952THSLK    S 4868  47.405  27.282   7.353
 4953ETHY    C1 4869  47.726  26.965   7.298
 4954ETHY    C1 4870  48.159  26.662   7.221
 4955ETHY    C1 4871  48.634  26.452   7.136
 4956ETHY    C1 4872  49.136  26.331   7.048
 4957ETHY    C1 4873  49.656  26.304   6.963
 4958ETHY    C1 4874  50.185  26.375   6.881
 4959THSLK    S 4875  47.035  26.886   7.108
 4960ETHY    C1 4876  47.119  26.457   6.984
 4961ETHY    C1 4877  47.294  25.985   6.803
 4962ETHY    C1 4878  47.547  25.574   6.593
 4963ETHY    C1 4879  47.865  25.226   6.366
 4964ETHY    C1 4880  48.247  24.951   6.126
 4965ETHY    C1 4881  48.685  24.754   5.880
 4966AUSL   AUS 4882  45.923  27.176   7.503
 4967AUSL   AUS 4883  45.993  27.321   7.086
 4968AUL    AUL 4884  45.709  27.095   7.199
 4969THSLK    S 4885  45.822  27.150   6.978
 4970ETHY    C1 4886  45.458  26.885   6.921
 4971ETHY    C1 4887  45.036  26.595   6.766
 4972ETHY    C1 4888  44.644  26.343   6.521
 4973ETHY    C1 4889  44.290  26.130   6.200
 4974ETHY    C1 4890  43.983  25.957   5.806
 4975ETHY    C1 4891  43.732  25.830   5.346
 4976THSLK    S 4892  45.657  27.124   7.508
 4977ETHY    C1 4893  45.203  27.102   7.513
 4978ETHY    C1 4894  44.681  26.988   7.514
 4979ETHY    C1 4895  44.199  26.779   7.511
 4980ETHY    C1 4896  43.762  26.489   7.510
 4981ETHY    C1 4897  43.383  26.122   7.510
 4982ETHY    C1 4898  43.070  25.682   7.514
 4983AUSL   AUS 4899  45.829  27.422   7.654
 4984AUSL   AUS 4900  46.087  27.075   7.767
 4985AUL    AUL 4901  45.709  27.095   7.806
 4986THSLK    S 4902  45.899  26.935   7.878
 4987ETHY    C1 4903  45.512  26.698   7.893
 4988ETHY    C1 4904  45.094  26.378   7.982
 4989ETHY    C1 4905  44.736  26.029   8.149
 4990ETHY    C1 4906  44.441  25.665   8.382
 4991ETHY    C1 4907  44.216  25.294   8.683
 4992ETHY    C1 4908  44.065  24.923   9.045
 4993THSLK    S 4909  45.573  27.359   7.616
 4994ETHY    C1 4910  45.137  27.349   7.491
 4995ETHY    C1 4911  44.611  27.290   7.419
 4996ETHY    C1 4912  44.096  27.183   7.436
 4997ETHY    C1 4913  43.602  27.037   7.535
 4998ETHY    C1 4914  43.142  26.855   7.718
 4999ETHY    C1 4915  42.723  26.642   7.983
 5000AUSL   AUS 4916  46.503  28.165   7.912
 5001AUSL   AUS 4917  46.087  28.096   7.767
 5002AUL    AUL 4918  46.200  28.380   7.993
 5003THSLK    S 4919  45.971  28.252   7.952
 5004ETHY    C1 4920  45.887  28.554   8.280
 5005ETHY    C1 4921  45.712  28.927   8.621
 5006ETHY    C1 4922  45.459  29.298   8.895
 5007ETHY    C1 4923  45.141  29.657   9.105
 5008ETHY    C1 4924  44.759  29.995   9.244
 5009ETHY    C1 4925  44.321  30.303   9.309
 5010THSLK    S 4926  46.545  28.387   8.035
 5011ETHY    C1 4927  46.729  28.662   8.347
 5012ETHY    C1 4928  46.879  29.042   8.691
 5013ETHY    C1 4929  46.945  29.465   8.998
 5014ETHY    C1 4930  46.932  29.916   9.264
 5015ETHY    C1 4931  46.835  30.385   9.485
 5016ETHY    C1 4932  46.655  30.864   9.656
 5017AUSL   AUS 4933  46.351  28.259   7.666
 5018AUSL   AUS 4934  46.655  28.259   7.339
 5019AUL    AUL 4935  46.503  28.567   7.503
 5020THSLK    S 4936  46.394  28.503   7.776
 5021ETHY    C1 4937  46.538  28.897   7.951
 5022ETHY    C1 4938  46.625  29.391   8.137
 5023ETHY    C1 4939  46.613  29.892   8.294
 5024ETHY    C1 4940  46.512  30.390   8.425
 5025ETHY    C1 4941  46.320  30.871   8.527
 5026ETHY    C1 4942  46.040  31.326   8.600
 5027THSLK    S 4943  46.710  28.490   7.243
 5028ETHY    C1 4944  46.986  28.820   7.096
 5029ETHY    C1 4945  47.236  29.261   6.927
 5030ETHY    C1 4946  47.392  29.738   6.771
 5031ETHY    C1 4947  47.461  30.240   6.635
 5032ETHY    C1 4948  47.437  30.756   6.525
 5033ETHY    C1 4949  47.320  31.276   6.443
 5034AUSL   AUS 4950  46.655  28.259   7.666
 5035AUSL   AUS 4951  46.768  28.002   8.013
 5036AUL    AUL 4952  46.806  28.380   7.993
 5037THSLK    S 4953  46.939  28.110   8.183
 5038ETHY    C1 4954  47.234  28.175   8.523
 5039ETHY    C1 4955  47.552  28.337   8.920
 5040ETHY    C1 4956  47.820  28.586   9.298
 5041ETHY    C1 4957  48.034  28.908   9.653
 5042ETHY    C1 4958  48.186  29.296   9.976
 5043ETHY    C1 4959  48.272  29.746  10.262
 5044THSLK    S 4960  46.708  28.488   7.772
 5045ETHY    C1 4961  46.980  28.816   7.929
 5046ETHY    C1 4962  47.230  29.256   8.100
 5047ETHY    C1 4963  47.388  29.735   8.251
 5048ETHY    C1 4964  47.457  30.237   8.383
 5049ETHY    C1 4965  47.433  30.752   8.494
 5050ETHY    C1 4966  47.314  31.271   8.585
 5051AUSL   AUS 4967  46.503  27.005   7.912
 5052AUSL   AUS 4968  46.919  27.075   7.767
 5053AUL    AUL 4969  46.806  26.791   7.993
 5054THSLK    S 4970  46.456  26.755   7.989
 5055ETHY    C1 4971  46.266  26.359   8.103
 5056ETHY    C1 4972  46.115  25.881   8.289
 5057ETHY    C1 4973  46.052  25.416   8.528
 5058ETHY    C1 4974  46.067  24.974   8.809
 5059ETHY    C1 4975  46.163  24.567   9.132
 5060ETHY    C1 4976  46.338  24.204   9.489
 5061THSLK    S 4977  47.031  26.888   7.907
 5062ETHY    C1 4978  47.110  26.460   8.040
 5063ETHY    C1 4979  47.285  25.990   8.222
 5064ETHY    C1 4980  47.539  25.578   8.428
 5065ETHY    C1 4981  47.859  25.229   8.652
 5066ETHY    C1 4982  48.240  24.954   8.893
 5067ETHY    C1 4983  48.675  24.758   9.147
 5068AUSL   AUS 4984  46.351  26.912   7.666
 5069AUSL   AUS 4985  46.238  27.169   8.013
 5070AUL    AUL 4986  46.200  26.791   7.993
 5071THSLK    S 4987  46.296  26.676   7.745
 5072ETHY    C1 4988  46.021  26.317   7.788
 5073ETHY    C1 4989  45.770  25.852   7.869
 5074ETHY    C1 4990  45.614  25.362   7.981
 5075ETHY    C1 4991  45.545  24.863   8.122
 5076ETHY    C1 4992  45.569  24.363   8.292
 5077ETHY    C1 4993  45.686  23.875   8.489
 5078THSLK    S 4994  46.060  27.003   8.129
 5079ETHY    C1 4995  45.758  26.685   8.248
 5080ETHY    C1 4996  45.439  26.318   8.471
 5081ETHY    C1 4997  45.174  25.981   8.776
 5082ETHY    C1 4998  44.962  25.679   9.147
 5083ETHY    C1 4999  44.809  25.421   9.582
 5084ETHY    C1 5000  44.718  25.214  10.072
 5085AUSL   AUS 5001  46.655  26.912   7.666
 5086AUSL   AUS 5002  46.351  26.912   7.339
 5087AUL    AUL 5003  46.503  26.604   7.503
 5088THSLK    S 5004  46.298  26.673   7.270
 5089ETHY    C1 5005  46.026  26.311   7.236
 5090ETHY    C1 5006  45.776  25.846   7.157
 5091ETHY    C1 5007  45.619  25.357   7.041
 5092ETHY    C1 5008  45.549  24.858   6.896
 5093ETHY    C1 5009  45.573  24.359   6.727
 5094ETHY    C1 5010  45.692  23.868   6.538
 5095THSLK    S 5011  46.609  26.660   7.749
 5096ETHY    C1 5012  46.462  26.234   7.811
 5097ETHY    C1 5013  46.376  25.716   7.906
 5098ETHY    C1 5014  46.388  25.203   8.025
 5099ETHY    C1 5015  46.490  24.708   8.165
 5100ETHY    C1 5016  46.682  24.243   8.325
 5101ETHY    C1 5017  46.960  23.817   8.504
 5102AUSL   AUS 5018  46.503  28.165   7.094
 5103AUSL   AUS 5019  46.919  28.096   7.238
 5104AUL    AUL 5020  46.806  28.380   7.012
 5105THSLK    S 5021  46.550  28.392   6.977
 5106ETHY    C1 5022  46.740  28.671   6.674
 5107ETHY    C1 5023  46.891  29.052   6.330
 5108ETHY    C1 5024  46.955  29.472   6.021
 5109ETHY    C1 5025  46.939  29.922   5.752
 5110ETHY    C1 5026  46.843  30.392   5.532
 5111ETHY    C1 5027  46.668  30.875   5.366
 5112THSLK    S 5028  47.107  28.212   7.089
 5113ETHY    C1 5029  47.494  28.332   6.883
 5114ETHY    C1 5030  47.912  28.555   6.637
 5115ETHY    C1 5031  48.270  28.859   6.400
 5116ETHY    C1 5032  48.565  29.231   6.178
 5117ETHY    C1 5033  48.790  29.666   5.981
 5118ETHY    C1 5034  48.941  30.155   5.811
 5119AUSL   AUS 5035  46.351  28.259   7.339
 5120AUSL   AUS 5036  46.238  28.002   6.992
 5121AUL    AUL 5037  46.200  28.380   7.012
 5122THSLK    S 5038  46.397  28.506   7.239
 5123ETHY    C1 5039  46.544  28.903   7.074
 5124ETHY    C1 5040  46.630  29.397   6.889
 5125ETHY    C1 5041  46.618  29.898   6.727
 5126ETHY    C1 5042  46.516  30.394   6.593
 5127ETHY    C1 5043  46.324  30.875   6.492
 5128ETHY    C1 5044  46.046  31.333   6.427
 5129THSLK    S 5045  46.128  28.134   6.805
 5130ETHY    C1 5046  46.092  28.283   6.377
 5131ETHY    C1 5047  45.982  28.509   5.906
 5132ETHY    C1 5048  45.804  28.784   5.494
 5133ETHY    C1 5049  45.570  29.097   5.145
 5134ETHY    C1 5050  45.284  29.446   4.870
 5135ETHY    C1 5051  44.953  29.824   4.675
 5136AUSL   AUS 5052  46.503  27.005   7.094
 5137AUSL   AUS 5053  46.087  27.075   7.238
 5138AUL    AUL 5054  46.200  26.791   7.012
 5139THSLK    S 5055  45.904  26.927   7.134
 5140ETHY    C1 5056  45.521  26.683   7.124
 5141ETHY    C1 5057  45.103  26.362   7.035
 5142ETHY    C1 5058  44.744  26.016   6.866
 5143ETHY    C1 5059  44.447  25.655   6.631
 5144ETHY    C1 5060  44.222  25.283   6.331
 5145ETHY    C1 5061  44.075  24.906   5.974
 5146THSLK    S 5062  46.461  26.750   7.024
 5147ETHY    C1 5063  46.277  26.349   6.917
 5148ETHY    C1 5064  46.127  25.871   6.732
 5149ETHY    C1 5065  46.061  25.408   6.491
 5150ETHY    C1 5066  46.074  24.968   6.206
 5151ETHY    C1 5067  46.171  24.561   5.885
 5152ETHY    C1 5068  46.351  24.193   5.533
 5153AUSL   AUS 5069  46.655  26.912   7.339
 5154AUSL   AUS 5070  46.768  27.169   6.992
 5155AUL    AUL 5071  46.806  26.791   7.012
 5156THSLK    S 5072  46.612  26.658   7.266
 5157ETHY    C1 5073  46.468  26.230   7.213
 5158ETHY    C1 5074  46.381  25.711   7.120
 5159ETHY    C1 5075  46.393  25.199   6.997
 5160ETHY    C1 5076  46.494  24.705   6.854
 5161ETHY    C1 5077  46.686  24.240   6.695
 5162ETHY    C1 5078  46.966  23.812   6.523
 5163THSLK    S 5079  46.885  26.979   6.859
 5164ETHY    C1 5080  46.929  26.577   6.651
 5165ETHY    C1 5081  47.039  26.146   6.355
 5166ETHY    C1 5082  47.215  25.783   6.017
 5167ETHY    C1 5083  47.446  25.489   5.651
 5168ETHY    C1 5084  47.732  25.272   5.264
 5169ETHY    C1 5085  48.069  25.136   4.865
 5170AUC    AUC 5086  30.753  27.408   7.503
 5171AUC    AUC 5087  30.998  27.408   7.351
 5172AUC    AUC 5088  30.998  27.408   7.654
 5173AUC    AUC 5089  30.508  27.408   7.351
 5174AUC    AUC 5090  30.508  27.408   7.654
 5175AUC    AUC 5091  30.601  27.654   7.503
 5176AUC    AUC 5092  30.905  27.654   7.503
 5177AUC    AUC 5093  30.601  27.163   7.503
 5178AUC    AUC 5094  30.905  27.163   7.503
 5179AUC    AUC 5095  30.753  27.257   7.748
 5180AUC    AUC 5096  30.753  27.560   7.748
 5181AUC    AUC 5097  30.753  27.257   7.257
 5182AUC    AUC 5098  30.753  27.560   7.257
 5183AUC    AUC 5099  31.244  27.408   7.199
 5184AUC    AUC 5100  31.244  27.408   7.503
 5185AUC    AUC 5101  31.244  27.408   7.806
 5186AUC    AUC 5102  30.262  27.408   7.199
 5187AUC    AUC 5103  30.262  27.408   7.503
 5188AUC    AUC 5104  30.262  27.408   7.806
 5189AUC    AUC 5105  30.450  27.899   7.503
 5190AUC    AUC 5106  30.753  27.899   7.503
 5191AUC    AUC 5107  31.056  27.899   7.503
 5192AUC    AUC 5108  30.450  26.918   7.503
 5193AUC    AUC 5109  30.753  26.918   7.503
 5194AUC    AUC 5110  31.056  26.918   7.503
 5195AUC    AUC 5111  30.753  27.105   7.993
 5196AUC    AUC 5112  30.753  27.408   7.993
 5197AUC    AUC 5113  30.753  27.712   7.993
 5198AUC    AUC 5114  30.753  27.105   7.012
 5199AUC    AUC 5115  30.753  27.408   7.012
 5200AUC    AUC 5116  30.753  27.712   7.012
 5201AUC    AUC 5117  30.998  27.257   7.900
 5202AUC    AUC 5118  30.998  27.560   7.900
 5203AUC    AUC 5119  30.998  27.257   7.106
 5204AUC    AUC 5120  30.998  27.560   7.106
 5205AUC    AUC 5121  30.508  27.257   7.900
 5206AUC    AUC 5122  30.508  27.560   7.900
 5207AUC    AUC 5123  30.508  27.257   7.106
 5208AUC    AUC 5124  30.508  27.560   7.106
 5209AUC    AUC 5125  31.150  27.654   7.351
 5210AUC    AUC 5126  31.150  27.654   7.654
 5211AUC    AUC 5127  30.356  27.654   7.351
 5212AUC    AUC 5128  30.356  27.654   7.654
 5213AUC    AUC 5129  31.150  27.163   7.351
 5214AUC    AUC 5130  31.150  27.163   7.654
 5215AUC    AUC 5131  30.356  27.163   7.351
 5216AUC    AUC 5132  30.356  27.163   7.654
 5217AUC    AUC 5133  30.601  27.806   7.748
 5218AUC    AUC 5134  30.905  27.806   7.748
 5219AUC    AUC 5135  30.601  27.011   7.748
 5220AUC    AUC 5136  30.905  27.011   7.748
 5221AUC    AUC 5137  30.601  27.806   7.257
 5222AUC    AUC 5138  30.905  27.806   7.257
 5223AUC    AUC 5139  30.601  27.011   7.257
 5224AUC    AUC 5140  30.905  27.011   7.257
 5225AUSL   AUS 5141  31.162  27.408   8.083
 5226AUSL   AUS 5142  31.018  26.992   8.013
 5227AUL    AUL 5143  31.244  27.105   8.297
 5228THSLK    S 5144  31.128  26.805   8.153
 5229ETHY    C1 5145  31.164  26.406   8.368
 5230ETHY    C1 5146  31.274  25.976   8.665
 5231ETHY    C1 5147  31.452  25.612   9.000
 5232ETHY    C1 5148  31.686  25.316   9.364
 5233ETHY    C1 5149  31.972  25.099   9.752
 5234ETHY    C1 5150  32.303  24.966  10.156
 5235THSLK    S 5151  31.255  27.356   8.324
 5236ETHY    C1 5152  31.459  27.136   8.665
 5237ETHY    C1 5153  31.723  26.959   9.094
 5238ETHY    C1 5154  31.999  26.883   9.535
 5239ETHY    C1 5155  32.276  26.900   9.980
 5240ETHY    C1 5156  32.546  27.013  10.419
 5241ETHY    C1 5157  32.805  27.222  10.845
 5242AUSL   AUS 5158  30.917  27.257   8.176
 5243AUSL   AUS 5159  30.589  27.560   8.176
 5244AUL    AUL 5160  30.753  27.408   8.484
 5245THSLK    S 5161  30.992  27.202   8.413
 5246ETHY    C1 5162  31.056  26.922   8.765
 5247ETHY    C1 5163  31.159  26.667   9.223
 5248ETHY    C1 5164  31.286  26.508   9.708
 5249ETHY    C1 5165  31.428  26.439  10.208
 5250ETHY    C1 5166  31.582  26.467  10.713
 5251ETHY    C1 5167  31.742  26.591  11.212
 5252THSLK    S 5168  30.504  27.514   8.428
 5253ETHY    C1 5169  30.430  27.364   8.850
 5254ETHY    C1 5170  30.325  27.276   9.367
 5255ETHY    C1 5171  30.203  27.288   9.878
 5256ETHY    C1 5172  30.065  27.389  10.373
 5257ETHY    C1 5173  29.910  27.582  10.840
 5258ETHY    C1 5174  29.741  27.863  11.268
 5259AUSL   AUS 5175  30.917  27.560   8.176
 5260AUSL   AUS 5176  31.263  27.673   7.919
 5261AUL    AUL 5177  31.244  27.712   8.297
 5262THSLK    S 5178  31.002  27.616   8.410
 5263ETHY    C1 5179  31.076  27.897   8.759
 5264ETHY    C1 5180  31.181  28.152   9.217
 5265ETHY    C1 5181  31.303  28.311   9.703
 5266ETHY    C1 5182  31.442  28.380  10.204
 5267ETHY    C1 5183  31.596  28.353  10.708
 5268ETHY    C1 5184  31.765  28.229  11.206
 5269THSLK    S 5185  31.435  27.771   8.080
 5270ETHY    C1 5186  31.798  27.742   8.350
 5271ETHY    C1 5187  32.220  27.798   8.673
 5272ETHY    C1 5188  32.612  27.952   8.989
 5273ETHY    C1 5189  32.966  28.190   9.293
 5274ETHY    C1 5190  33.273  28.511   9.580
 5275ETHY    C1 5191  33.524  28.908   9.844
 5276AUSL   AUS 5192  31.162  27.408   6.923
 5277AUSL   AUS 5193  31.018  27.825   6.992
 5278AUL    AUL 5194  31.244  27.712   6.708
 5279THSLK    S 5195  31.264  27.356   6.687
 5280ETHY    C1 5196  31.477  27.136   6.351
 5281ETHY    C1 5197  31.742  26.959   5.923
 5282ETHY    C1 5198  32.014  26.883   5.479
 5283ETHY    C1 5199  32.288  26.900   5.033
 5284ETHY    C1 5200  32.559  27.013   4.594
 5285ETHY    C1 5201  32.824  27.222   4.173
 5286THSLK    S 5202  31.196  27.936   6.829
 5287ETHY    C1 5203  31.498  28.004   6.497
 5288ETHY    C1 5204  31.817  28.167   6.100
 5289ETHY    C1 5205  32.082  28.414   5.719
 5290ETHY    C1 5206  32.294  28.734   5.362
 5291ETHY    C1 5207  32.447  29.124   5.039
 5292ETHY    C1 5208  32.538  29.576   4.759
 5293AUSL   AUS 5209  30.917  27.257   6.829
 5294AUSL   AUS 5210  31.263  27.144   7.086
 5295AUL    AUL 5211  31.244  27.105   6.708
 5296THSLK    S 5212  31.396  26.952   6.949
 5297ETHY    C1 5213  31.579  26.585   6.752
 5298ETHY    C1 5214  31.851  26.213   6.483
 5299ETHY    C1 5215  32.176  25.924   6.186
 5300ETHY    C1 5216  32.542  25.717   5.874
 5301ETHY    C1 5217  32.946  25.598   5.555
 5302ETHY    C1 5218  33.379  25.573   5.235
 5303THSLK    S 5219  31.002  27.201   6.596
 5304ETHY    C1 5220  31.076  26.920   6.246
 5305ETHY    C1 5221  31.181  26.664   5.788
 5306ETHY    C1 5222  31.303  26.506   5.302
 5307ETHY    C1 5223  31.442  26.437   4.801
 5308ETHY    C1 5224  31.596  26.464   4.297
 5309ETHY    C1 5225  31.765  26.588   3.799
 5310AUSL   AUS 5226  30.917  27.560   6.829
 5311AUSL   AUS 5227  30.589  27.257   6.829
 5312AUL    AUL 5228  30.753  27.408   6.521
 5313THSLK    S 5229  30.497  27.201   6.597
 5314ETHY    C1 5230  30.362  26.923   6.264
 5315ETHY    C1 5231  30.201  26.670   5.822
 5316ETHY    C1 5232  30.049  26.513   5.343
 5317ETHY    C1 5233  29.913  26.444   4.842
 5318ETHY    C1 5234  29.796  26.470   4.328
 5319ETHY    C1 5235  29.703  26.589   3.810
 5320THSLK    S 5236  31.019  27.514   6.583
 5321ETHY    C1 5237  31.165  27.364   6.179
 5322ETHY    C1 5238  31.327  27.273   5.678
 5323ETHY    C1 5239  31.474  27.283   5.173
 5324ETHY    C1 5240  31.607  27.384   4.677
 5325ETHY    C1 5241  31.724  27.579   4.200
 5326ETHY    C1 5242  31.825  27.865   3.754
 5327AUSL   AUS 5243  30.344  27.408   8.083
 5328AUSL   AUS 5244  30.488  27.825   8.013
 5329AUL    AUL 5245  30.262  27.712   8.297
 5330THSLK    S 5246  30.242  27.356   8.319
 5331ETHY    C1 5247  30.030  27.136   8.654
 5332ETHY    C1 5248  29.764  26.959   9.082
 5333ETHY    C1 5249  29.492  26.883   9.526
 5334ETHY    C1 5250  29.218  26.900   9.973
 5335ETHY    C1 5251  28.947  27.013  10.411
 5336ETHY    C1 5252  28.682  27.222  10.832
 5337THSLK    S 5253  30.371  27.949   8.202
 5338ETHY    C1 5254  30.328  28.092   8.632
 5339ETHY    C1 5255  30.217  28.317   9.104
 5340ETHY    C1 5256  30.041  28.594   9.515
 5341ETHY    C1 5257  29.810  28.910   9.863
 5342ETHY    C1 5258  29.524  29.258  10.138
 5343ETHY    C1 5259  29.187  29.631  10.334
 5344AUSL   AUS 5260  30.589  27.257   8.176
 5345AUSL   AUS 5261  30.243  27.144   7.919
 5346AUL    AUL 5262  30.262  27.105   8.297
 5347THSLK    S 5263  30.066  26.981   8.026
 5348ETHY    C1 5264  29.695  26.724   8.082
 5349ETHY    C1 5265  29.273  26.436   8.237
 5350ETHY    C1 5266  28.883  26.181   8.482
 5351ETHY    C1 5267  28.531  25.964   8.803
 5352ETHY    C1 5268  28.225  25.793   9.198
 5353ETHY    C1 5269  27.968  25.672   9.657
 5354THSLK    S 5270  30.487  27.203   8.406
 5355ETHY    C1 5271  30.341  26.927   8.736
 5356ETHY    C1 5272  30.179  26.675   9.178
 5357ETHY    C1 5273  30.032  26.517   9.658
 5358ETHY    C1 5274  29.899  26.447  10.160
 5359ETHY    C1 5275  29.782  26.473  10.674
 5360ETHY    C1 5276  29.681  26.594  11.190
 5361AUSL   AUS 5277  30.344  27.408   6.923
 5362AUSL   AUS 5278  30.488  26.992   6.992
 5363AUL    AUL 5279  30.262  27.105   6.708
 5364THSLK    S 5280  30.251  27.356   6.681
 5365ETHY    C1 5281  30.047  27.136   6.341
 5366ETHY    C1 5282  29.783  26.959   5.911
 5367ETHY    C1 5283  29.507  26.883   5.470
 5368ETHY    C1 5284  29.230  26.900   5.025
 5369ETHY    C1 5285  28.960  27.013   4.586
 5370ETHY    C1 5286  28.701  27.222   4.161
 5371THSLK    S 5287  30.317  26.819   6.878
 5372ETHY    C1 5288  30.022  26.493   6.760
 5373ETHY    C1 5289  29.704  26.126   6.538
 5374ETHY    C1 5290  29.436  25.791   6.233
 5375ETHY    C1 5291  29.222  25.491   5.861
 5376ETHY    C1 5292  29.070  25.233   5.426
 5377ETHY    C1 5293  28.984  25.021   4.937
 5378AUSL   AUS 5294  30.589  27.560   6.829
 5379AUSL   AUS 5295  30.243  27.673   7.086
 5380AUL    AUL 5296  30.262  27.712   6.708
 5381THSLK    S 5297  30.116  27.800   6.895
 5382ETHY    C1 5298  29.939  27.881   6.484
 5383ETHY    C1 5299  29.668  28.021   6.046
 5384ETHY    C1 5300  29.341  28.209   5.679
 5385ETHY    C1 5301  28.972  28.438   5.385
 5386ETHY    C1 5302  28.570  28.705   5.173
 5387ETHY    C1 5303  28.141  29.007   5.047
 5388THSLK    S 5304  30.514  27.516   6.576
 5389ETHY    C1 5305  30.450  27.369   6.150
 5390ETHY    C1 5306  30.347  27.280   5.634
 5391ETHY    C1 5307  30.220  27.291   5.123
 5392ETHY    C1 5308  30.078  27.392   4.629
 5393ETHY    C1 5309  29.925  27.585   4.162
 5394ETHY    C1 5310  29.764  27.868   3.732
 5395AUSL   AUS 5311  31.333  27.817   7.503
 5396AUSL   AUS 5312  31.263  27.673   7.086
 5397AUL    AUL 5313  31.547  27.899   7.199
 5398THSLK    S 5314  31.441  27.772   6.934
 5399ETHY    C1 5315  31.811  27.745   6.671
 5400ETHY    C1 5316  32.233  27.801   6.349
 5401ETHY    C1 5317  32.623  27.955   6.030
 5402ETHY    C1 5318  32.975  28.192   5.724
 5403ETHY    C1 5319  33.282  28.513   5.438
 5404ETHY    C1 5320  33.538  28.912   5.179
 5405THSLK    S 5321  31.599  27.870   7.508
 5406ETHY    C1 5322  32.053  27.892   7.513
 5407ETHY    C1 5323  32.575  28.006   7.514
 5408ETHY    C1 5324  33.058  28.215   7.511
 5409ETHY    C1 5325  33.494  28.505   7.510
 5410ETHY    C1 5326  33.873  28.872   7.510
 5411ETHY    C1 5327  34.187  29.312   7.514
 5412AUSL   AUS 5328  31.427  27.572   7.351
 5413AUSL   AUS 5329  31.427  27.245   7.654
 5414AUL    AUL 5330  31.735  27.408   7.503
 5415THSLK    S 5331  31.683  27.611   7.350
 5416ETHY    C1 5332  32.119  27.503   7.286
 5417ETHY    C1 5333  32.645  27.465   7.201
 5418ETHY    C1 5334  33.160  27.529   7.113
 5419ETHY    C1 5335  33.654  27.683   7.026
 5420ETHY    C1 5336  34.114  27.928   6.945
 5421ETHY    C1 5337  34.533  28.260   6.873
 5422THSLK    S 5338  31.654  27.105   7.663
 5423ETHY    C1 5339  31.973  26.789   7.728
 5424ETHY    C1 5340  32.406  26.485   7.807
 5425ETHY    C1 5341  32.881  26.275   7.887
 5426ETHY    C1 5342  33.384  26.154   7.971
 5427ETHY    C1 5343  33.904  26.128   8.058
 5428ETHY    C1 5344  34.432  26.198   8.147
 5429AUSL   AUS 5345  31.427  27.572   7.654
 5430AUSL   AUS 5346  31.169  27.919   7.767
 5431AUL    AUL 5347  31.547  27.899   7.806
 5432THSLK    S 5348  31.352  28.033   7.926
 5433ETHY    C1 5349  31.735  28.151   8.140
 5434ETHY    C1 5350  32.153  28.374   8.388
 5435ETHY    C1 5351  32.512  28.679   8.622
 5436ETHY    C1 5352  32.809  29.052   8.840
 5437ETHY    C1 5353  33.034  29.486   9.038
 5438ETHY    C1 5354  33.181  29.974   9.215
 5439THSLK    S 5355  31.681  27.611   7.665
 5440ETHY    C1 5356  32.116  27.503   7.740
 5441ETHY    C1 5357  32.642  27.465   7.826
 5442ETHY    C1 5358  33.157  27.528   7.910
 5443ETHY    C1 5359  33.651  27.682   7.993
 5444ETHY    C1 5360  34.112  27.927   8.075
 5445ETHY    C1 5361  34.529  28.259   8.155
 5446AUSL   AUS 5362  30.173  27.817   7.503
 5447AUSL   AUS 5363  30.243  27.673   7.919
 5448AUL    AUL 5364  29.959  27.899   7.806
 5449THSLK    S 5365  30.110  27.792   8.109
 5450ETHY    C1 5366  29.927  27.864   8.519
 5451ETHY    C1 5367  29.655  28.004   8.957
 5452ETHY    C1 5368  29.330  28.195   9.324
 5453ETHY    C1 5369  28.964  28.426   9.619
 5454ETHY    C1 5370  28.561  28.693   9.831
 5455ETHY    C1 5371  28.127  28.989   9.956
 5456THSLK    S 5372  29.962  27.958   7.508
 5457ETHY    C1 5373  29.740  28.355   7.513
 5458ETHY    C1 5374  29.404  28.770   7.514
 5459ETHY    C1 5375  29.001  29.109   7.511
 5460ETHY    C1 5376  28.547  29.370   7.510
 5461ETHY    C1 5377  28.048  29.544   7.510
 5462ETHY    C1 5378  27.515  29.628   7.514
 5463AUSL   AUS 5379  30.079  27.572   7.351
 5464AUSL   AUS 5380  30.337  27.919   7.238
 5465AUL    AUL 5381  29.959  27.899   7.199
 5466THSLK    S 5382  29.852  27.687   7.303
 5467ETHY    C1 5383  29.533  27.887   7.049
 5468ETHY    C1 5384  29.100  28.093   6.813
 5469ETHY    C1 5385  28.625  28.259   6.661
 5470ETHY    C1 5386  28.122  28.388   6.590
 5471ETHY    C1 5387  27.602  28.478   6.605
 5472ETHY    C1 5388  27.074  28.526   6.708
 5473THSLK    S 5389  30.225  28.082   7.060
 5474ETHY    C1 5390  30.146  28.392   6.737
 5475ETHY    C1 5391  29.971  28.766   6.397
 5476ETHY    C1 5392  29.717  29.134   6.120
 5477ETHY    C1 5393  29.397  29.491   5.909
 5478ETHY    C1 5394  29.016  29.829   5.770
 5479ETHY    C1 5395  28.581  30.143   5.709
 5480AUSL   AUS 5396  30.079  27.572   7.654
 5481AUSL   AUS 5397  30.079  27.245   7.351
 5482AUL    AUL 5398  29.771  27.408   7.503
 5483THSLK    S 5399  29.825  27.172   7.394
 5484ETHY    C1 5400  29.390  27.154   7.524
 5485ETHY    C1 5401  28.864  27.094   7.597
 5486ETHY    C1 5402  28.349  26.990   7.578
 5487ETHY    C1 5403  27.855  26.847   7.477
 5488ETHY    C1 5404  27.395  26.664   7.294
 5489ETHY    C1 5405  26.977  26.444   7.034
 5490THSLK    S 5406  29.851  27.678   7.707
 5491ETHY    C1 5407  29.530  27.869   7.966
 5492ETHY    C1 5408  29.097  28.073   8.202
 5493ETHY    C1 5409  28.622  28.244   8.352
 5494ETHY    C1 5410  28.120  28.376   8.422
 5495ETHY    C1 5411  27.600  28.464   8.407
 5496ETHY    C1 5412  27.071  28.505   8.308
 5497AUSL   AUS 5413  31.333  26.999   7.503
 5498AUSL   AUS 5414  31.263  27.144   7.919
 5499AUL    AUL 5415  31.547  26.918   7.806
 5500THSLK    S 5416  31.544  26.858   7.508
 5501ETHY    C1 5417  31.766  26.462   7.513
 5502ETHY    C1 5418  32.102  26.047   7.514
 5503ETHY    C1 5419  32.505  25.708   7.511
 5504ETHY    C1 5420  32.959  25.447   7.510
 5505ETHY    C1 5421  33.458  25.273   7.510
 5506ETHY    C1 5422  33.991  25.189   7.514
 5507THSLK    S 5423  31.390  26.953   8.064
 5508ETHY    C1 5424  31.567  26.588   8.270
 5509ETHY    C1 5425  31.838  26.216   8.540
 5510ETHY    C1 5426  32.165  25.927   8.834
 5511ETHY    C1 5427  32.534  25.719   9.142
 5512ETHY    C1 5428  32.936  25.601   9.462
 5513ETHY    C1 5429  33.365  25.576   9.789
 5514AUSL   AUS 5430  31.427  27.245   7.351
 5515AUSL   AUS 5431  31.169  26.898   7.238
 5516AUL    AUL 5432  31.547  26.918   7.199
 5517THSLK    S 5433  31.655  27.105   7.353
 5518ETHY    C1 5434  31.976  26.788   7.298
 5519ETHY    C1 5435  32.409  26.485   7.221
 5520ETHY    C1 5436  32.884  26.275   7.136
 5521ETHY    C1 5437  33.386  26.154   7.048
 5522ETHY    C1 5438  33.906  26.127   6.963
 5523ETHY    C1 5439  34.435  26.198   6.881
 5524THSLK    S 5440  31.285  26.709   7.108
 5525ETHY    C1 5441  31.369  26.280   6.984
 5526ETHY    C1 5442  31.544  25.808   6.803
 5527ETHY    C1 5443  31.797  25.397   6.593
 5528ETHY    C1 5444  32.115  25.049   6.366
 5529ETHY    C1 5445  32.497  24.774   6.126
 5530ETHY    C1 5446  32.935  24.577   5.880
 5531AUSL   AUS 5447  30.173  26.999   7.503
 5532AUSL   AUS 5448  30.243  27.144   7.086
 5533AUL    AUL 5449  29.959  26.918   7.199
 5534THSLK    S 5450  30.072  26.973   6.978
 5535ETHY    C1 5451  29.708  26.708   6.921
 5536ETHY    C1 5452  29.286  26.418   6.766
 5537ETHY    C1 5453  28.894  26.166   6.521
 5538ETHY    C1 5454  28.540  25.953   6.200
 5539ETHY    C1 5455  28.233  25.780   5.806
 5540ETHY    C1 5456  27.982  25.653   5.346
 5541THSLK    S 5457  29.907  26.947   7.508
 5542ETHY    C1 5458  29.453  26.925   7.513
 5543ETHY    C1 5459  28.931  26.811   7.514
 5544ETHY    C1 5460  28.449  26.602   7.511
 5545ETHY    C1 5461  28.012  26.312   7.510
 5546ETHY    C1 5462  27.633  25.945   7.510
 5547ETHY    C1 5463  27.320  25.505   7.514
 5548AUSL   AUS 5464  30.079  27.245   7.654
 5549AUSL   AUS 5465  30.337  26.898   7.767
 5550AUL    AUL 5466  29.959  26.918   7.806
 5551THSLK    S 5467  30.149  26.758   7.878
 5552ETHY    C1 5468  29.762  26.521   7.893
 5553ETHY    C1 5469  29.344  26.201   7.982
 5554ETHY    C1 5470  28.986  25.852   8.149
 5555ETHY    C1 5471  28.691  25.488   8.382
 5556ETHY    C1 5472  28.466  25.117   8.683
 5557ETHY    C1 5473  28.315  24.746   9.045
 5558THSLK    S 5474  29.823  27.182   7.616
 5559ETHY    C1 5475  29.387  27.172   7.491
 5560ETHY    C1 5476  28.861  27.113   7.419
 5561ETHY    C1 5477  28.346  27.006   7.436
 5562ETHY    C1 5478  27.852  26.860   7.535
 5563ETHY    C1 5479  27.392  26.678   7.718
 5564ETHY    C1 5480  26.973  26.465   7.983
 5565AUSL   AUS 5481  30.753  27.988   7.912
 5566AUSL   AUS 5482  30.337  27.919   7.767
 5567AUL    AUL 5483  30.450  28.203   7.993
 5568THSLK    S 5484  30.221  28.075   7.952
 5569ETHY    C1 5485  30.137  28.377   8.280
 5570ETHY    C1 5486  29.962  28.750   8.621
 5571ETHY    C1 5487  29.709  29.121   8.895
 5572ETHY    C1 5488  29.391  29.480   9.105
 5573ETHY    C1 5489  29.009  29.818   9.244
 5574ETHY    C1 5490  28.571  30.126   9.309
 5575THSLK    S 5491  30.795  28.210   8.035
 5576ETHY    C1 5492  30.979  28.485   8.347
 5577ETHY    C1 5493  31.129  28.865   8.691
 5578ETHY    C1 5494  31.195  29.288   8.998
 5579ETHY    C1 5495  31.182  29.739   9.264
 5580ETHY    C1 5496  31.085  30.208   9.485
 5581ETHY    C1 5497  30.905  30.687   9.656
 5582AUSL   AUS 5498  30.601  28.082   7.666
 5583AUSL   AUS 5499  30.905  28.082   7.339
 5584AUL    AUL 5500  30.753  28.390   7.503
 5585THSLK    S 5501  30.644  28.326   7.776
 5586ETHY    C1 5502  30.788  28.720   7.951
 5587ETHY    C1 5503  30.875  29.214   8.137
 5588ETHY    C1 5504  30.863  29.715   8.294
 5589ETHY    C1 5505  30.762  30.213   8.425
 5590ETHY    C1 5506  30.570  30.694   8.527
 5591ETHY    C1 5507  30.290  31.149   8.600
 5592THSLK    S 5508  30.960  28.313   7.243
 5593ETHY    C1 5509  31.236  28.643   7.096
 5594ETHY    C1 5510  31.486  29.084   6.927
 5595ETHY    C1 5511  31.642  29.561   6.771
 5596ETHY    C1 5512  31.711  30.063   6.635
 5597ETHY    C1 5513  31.687  30.579   6.525
 5598ETHY    C1 5514  31.570  31.099   6.443
 5599AUSL   AUS 5515  30.905  28.082   7.666
 5600AUSL   AUS 5516  31.018  27.825   8.013
 5601AUL    AUL 5517  31.056  28.203   7.993
 5602THSLK    S 5518  31.189  27.933   8.183
 5603ETHY    C1 5519  31.484  27.998   8.523
 5604ETHY    C1 5520  31.802  28.160   8.920
 5605ETHY    C1 5521  32.070  28.409   9.298
 5606ETHY    C1 5522  32.284  28.731   9.653
 5607ETHY    C1 5523  32.436  29.119   9.976
 5608ETHY    C1 5524  32.522  29.569  10.262
 5609THSLK    S 5525  30.958  28.311   7.772
 5610ETHY    C1 5526  31.230  28.639   7.929
 5611ETHY    C1 5527  31.480  29.079   8.100
 5612ETHY    C1 5528  31.638  29.558   8.251
 5613ETHY    C1 5529  31.707  30.060   8.383
 5614ETHY    C1 5530  31.683  30.575   8.494
 5615ETHY    C1 5531  31.564  31.094   8.585
 5616AUSL   AUS 5532  30.753  26.828   7.912
 5617AUSL   AUS 5533  31.169  26.898   7.767
 5618AUL    AUL 5534  31.056  26.614   7.993
 5619THSLK    S 5535  30.706  26.578   7.989
 5620ETHY    C1 5536  30.516  26.182   8.103
 5621ETHY    C1 5537  30.365  25.704   8.289
 5622ETHY    C1 5538  30.302  25.239   8.528
 5623ETHY    C1 5539  30.317  24.797   8.809
 5624ETHY    C1 5540  30.413  24.390   9.132
 5625ETHY    C1 5541  30.588  24.027   9.489
 5626THSLK    S 5542  31.281  26.711   7.907
 5627ETHY    C1 5543  31.360  26.283   8.040
 5628ETHY    C1 5544  31.535  25.813   8.222
 5629ETHY    C1 5545  31.789  25.401   8.428
 5630ETHY    C1 5546  32.109  25.052   8.652
 5631ETHY    C1 5547  32.490  24.777   8.893
 5632ETHY    C1 5548  32.925  24.581   9.147
 5633AUSL   AUS 5549  30.601  26.735   7.666
 5634AUSL   AUS 5550  30.488  26.992   8.013
 5635AUL    AUL 5551  30.450  26.614   7.993
 5636THSLK    S 5552  30.546  26.499   7.745
 5637ETHY    C1 5553  30.271  26.140   7.788
 5638ETHY    C1 5554  30.020  25.675   7.869
 5639ETHY    C1 5555  29.864  25.185   7.981
 5640ETHY    C1 5556  29.795  24.686   8.122
 5641ETHY    C1 5557  29.819  24.186   8.292
 5642ETHY    C1 5558  29.936  23.698   8.489
 5643THSLK    S 5559  30.310  26.826   8.129
 5644ETHY    C1 5560  30.008  26.508   8.248
 5645ETHY    C1 5561  29.689  26.141   8.471
 5646ETHY    C1 5562  29.424  25.804   8.776
 5647ETHY    C1 5563  29.212  25.502   9.147
 5648ETHY    C1 5564  29.059  25.244   9.582
 5649ETHY    C1 5565  28.968  25.037  10.072
 5650AUSL   AUS 5566  30.905  26.735   7.666
 5651AUSL   AUS 5567  30.601  26.735   7.339
 5652AUL    AUL 5568  30.753  26.427   7.503
 5653THSLK    S 5569  30.548  26.496   7.270
 5654ETHY    C1 5570  30.276  26.134   7.236
 5655ETHY    C1 5571  30.026  25.669   7.157
 5656ETHY    C1 5572  29.869  25.180   7.041
 5657ETHY    C1 5573  29.799  24.681   6.896
 5658ETHY    C1 5574  29.823  24.182   6.727
 5659ETHY    C1 5575  29.942  23.691   6.538
 5660THSLK    S 5576  30.859  26.483   7.749
 5661ETHY    C1 5577  30.712  26.057   7.811
 5662ETHY    C1 5578  30.626  25.539   7.906
 5663ETHY    C1 5579  30.638  25.026   8.025
 5664ETHY    C1 5580  30.740  24.531   8.165
 5665ETHY    C1 5581  30.932  24.066   8.325
 5666ETHY    C1 5582  31.210  23.640   8.504
 5667AUSL   AUS 5583  30.753  27.988   7.094
 5668AUSL   AUS 5584  31.169  27.919   7.238
 5669AUL    AUL 5585  31.056  28.203   7.012
 5670THSLK    S 5586  30.800  28.215   6.977
 5671ETHY    C1 5587  30.990  28.494   6.674
 5672ETHY    C1 5588  31.141  28.875   6.330
 5673ETHY    C1 5589  31.205  29.295   6.021
 5674ETHY    C1 5590  31.189  29.745   5.752
 5675ETHY    C1 5591  31.093  30.215   5.532
 5676ETHY    C1 5592  30.918  30.698   5.366
 5677THSLK    S 5593  31.357  28.035   7.089
 5678ETHY    C1 5594  31.744  28.155   6.883
 5679ETHY    C1 5595  32.162  28.378   6.637
 5680ETHY    C1 5596  32.520  28.682   6.400
 5681ETHY    C1 5597  32.815  29.054   6.178
 5682ETHY    C1 5598  33.040  29.489   5.981
 5683ETHY    C1 5599  33.191  29.978   5.811
 5684AUSL   AUS 5600  30.601  28.082   7.339
 5685AUSL   AUS 5601  30.488  27.825   6.992
 5686AUL    AUL 5602  30.450  28.203   7.012
 5687THSLK    S 5603  30.647  28.329   7.239
 5688ETHY    C1 5604  30.794  28.726   7.074
 5689ETHY    C1 5605  30.880  29.220   6.889
 5690ETHY    C1 5606  30.868  29.721   6.727
 5691ETHY    C1 5607  30.766  30.217   6.593
 5692ETHY    C1 5608  30.574  30.698   6.492
 5693ETHY    C1 5609  30.296  31.156   6.427
 5694THSLK    S 5610  30.378  27.957   6.805
 5695ETHY    C1 5611  30.342  28.106   6.377
 5696ETHY    C1 5612  30.232  28.332   5.906
 5697ETHY    C1 5613  30.054  28.607   5.494
 5698ETHY    C1 5614  29.820  28.920   5.145
 5699ETHY    C1 5615  29.534  29.269   4.870
 5700ETHY    C1 5616  29.203  29.647   4.675
 5701AUSL   AUS 5617  30.753  26.828   7.094
 5702AUSL   AUS 5618  30.337  26.898   7.238
 5703AUL    AUL 5619  30.450  26.614   7.012
 5704THSLK    S 5620  30.154  26.750   7.134
 5705ETHY    C1 5621  29.771  26.506   7.124
 5706ETHY    C1 5622  29.353  26.185   7.035
 5707ETHY    C1 5623  28.994  25.839   6.866
 5708ETHY    C1 5624  28.697  25.478   6.631
 5709ETHY    C1 5625  28.472  25.106   6.331
 5710ETHY    C1 5626  28.325  24.729   5.974
 5711THSLK    S 5627  30.711  26.573   7.024
 5712ETHY    C1 5628  30.527  26.172   6.917
 5713ETHY    C1 5629  30.377  25.694   6.732
 5714ETHY    C1 5630  30.311  25.231   6.491
 5715ETHY    C1 5631  30.324  24.791   6.206
 5716ETHY    C1 5632  30.421  24.384   5.885
 5717ETHY    C1 5633  30.601  24.016   5.533
 5718AUSL   AUS 5634  30.905  26.735   7.339
 5719AUSL   AUS 5635  31.018  26.992   6.992
 5720AUL    AUL 5636  31.056  26.614   7.012
 5721THSLK    S 5637  30.862  26.481   7.266
 5722ETHY    C1 5638  30.718  26.053   7.213
 5723ETHY    C1 5639  30.631  25.534   7.120
 5724ETHY    C1 5640  30.643  25.022   6.997
 5725ETHY    C1 5641  30.744  24.528   6.854
 5726ETHY    C1 5642  30.936  24.063   6.695
 5727ETHY    C1 5643  31.216  23.635   6.523
 5728THSLK    S 5644  31.135  26.802   6.859
 5729ETHY    C1 5645  31.179  26.400   6.651
 5730ETHY    C1 5646  31.289  25.969   6.355
 5731ETHY    C1 5647  31.465  25.606   6.017
 5732ETHY    C1 5648  31.696  25.312   5.651
 5733ETHY    C1 5649  31.982  25.095   5.264
 5734ETHY    C1 5650  32.319  24.959   4.865
 5735POPC   NC3 5651  22.955  29.110   9.455
 5735POPC   PO4 5652  22.937  29.185   9.155
 5735POPC   GL1 5653  22.912  29.108   8.855
 5735POPC   GL2 5654  22.871  29.247   8.855
 5735POPC   C1A 5655  22.960  29.109   8.555
 5735POPC   D2A 5656  22.924  29.148   8.255
 5735POPC   C3A 5657  22.901  29.167   7.955
 5735POPC   C4A 5658  22.946  29.120   7.655
 5735POPC   C1B 5659  22.757  29.309   8.555
 5735POPC   C2B 5660  22.782  29.358   8.255
 5735POPC   C3B 5661  22.798  29.389   7.955
 5735POPC   C4B 5662  22.792  29.372   7.655
 5736POPC   NC3 5663  29.875  22.947   9.455
 5736POPC   PO4 5664  29.897  22.972   9.155
 5736POPC   GL1 5665  29.897  22.924   8.855
 5736POPC   GL2 5666  29.806  22.946   8.855
 5736POPC   C1A 5667  29.892  22.905   8.555
 5736POPC   D2A 5668  29.886  22.951   8.255
 5736POPC   C3A 5669  29.927  22.911   7.955
 5736POPC   C4A 5670  29.886  22.902   7.655
 5736POPC   C1B 5671  29.640  22.863   8.555
 5736POPC   C2B 5672  29.647  22.939   8.255
 5736POPC   C3B 5673  29.690  22.862   7.955
 5736POPC   C4B 5674  29.684  22.889   7.655
 5737POPC   NC3 5675  36.141  26.012   9.455
 5737POPC   PO4 5676  36.121  26.059   9.155
 5737POPC   GL1 5677  36.136  26.039   8.855
 5737POPC   GL2 5678  36.036  26.144   8.855
 5737POPC   C1A 5679  36.158  26.009   8.555
 5737POPC   D2A 5680  36.170  26.038   8.255
 5737POPC   C3A 5681  36.176  26.075   7.955
 5737POPC   C4A 5682  36.122  26.049   7.655
 5737POPC   C1B 5683  35.998  26.275   8.555
 5737POPC   C2B 5684  36.038  26.227   8.255
 5737POPC   C3B 5685  35.954  26.296   7.955
 5737POPC   C4B 5686  35.991  26.235   7.655
 5738POPC   NC3 5687  33.837  21.388   9.455
 5738POPC   PO4 5688  33.819  21.386   9.155
 5738POPC   GL1 5689  33.787  21.344   8.855
 5738POPC   GL2 5690  33.883  21.288   8.855
 5738POPC   C1A 5691  33.796  21.355   8.555
 5738POPC   D2A 5692  33.839  21.369   8.255
 5738POPC   C3A 5693  33.825  21.356   7.955
 5738POPC   C4A 5694  33.820  21.412   7.655
 5738POPC   C1B 5695  34.010  21.269   8.555
 5738POPC   C2B 5696  34.040  21.296   8.255
 5738POPC   C3B 5697  34.066  21.337   7.955
 5738POPC   C4B 5698  34.028  21.283   7.655
 5739POPC   NC3 5699  39.224   1.182   9.455
 5739POPC   PO4 5700  39.205   1.196   9.155
 5739POPC   GL1 5701  39.181   1.244   8.855
 5739POPC   GL2 5702  39.119   1.232   8.855
 5739POPC   C1A 5703  39.224   1.164   8.555
 5739POPC   D2A 5704  39.204   1.218   8.255
 5739POPC   C3A 5705  39.211   1.184   7.955
 5739POPC   C4A 5706  39.227   1.232   7.655
 5739POPC   C1B 5707  38.989   1.317   8.555
 5739POPC   C2B 5708  39.018   1.315   8.255
 5739POPC   C3B 5709  38.990   1.257   7.955
 5739POPC   C4B 5710  38.958   1.281   7.655
 5740POPC   NC3 5711   5.055  39.267   9.455
 5740POPC   PO4 5712   5.065  39.221   9.155
 5740POPC   GL1 5713   5.070  39.201   8.855
 5740POPC   GL2 5714   5.231  39.230   8.855
 5740POPC   C1A 5715   5.089  39.216   8.555
 5740POPC   D2A 5716   5.087  39.249   8.255
 5740POPC   C3A 5717   5.076  39.278   7.955
 5740POPC   C4A 5718   5.061  39.205   7.655
 5740POPC   C1B 5719   5.324  39.179   8.555
 5740POPC   C2B 5720   5.306  39.164   8.255
 5740POPC   C3B 5721   5.294  39.139   7.955
 5740POPC   C4B 5722   5.371  39.164   7.655
 5741POPC   NC3 5723  27.626   4.361   9.455
 5741POPC   PO4 5724  27.624   4.367   9.155
 5741POPC   GL1 5725  27.605   4.274   8.855
 5741POPC   GL2 5726  27.655   4.379   8.855
 5741POPC   C1A 5727  27.614   4.332   8.555
 5741POPC   D2A 5728  27.634   4.344   8.255
 5741POPC   C3A 5729  27.620   4.328   7.955
 5741POPC   C4A 5730  27.566   4.332   7.655
 5741POPC   C1B 5731  27.750   4.535   8.555
 5741POPC   C2B 5732  27.759   4.570   8.255
 5741POPC   C3B 5733  27.699   4.520   7.955
 5741POPC   C4B 5734  27.709   4.490   7.655
 5742POPC   NC3 5735  24.460  41.543   9.455
 5742POPC   PO4 5736  24.496  41.520   9.155
 5742POPC   GL1 5737  24.539  41.512   8.855
 5742POPC   GL2 5738  24.618  41.513   8.855
 5742POPC   C1A 5739  24.444  41.542   8.555
 5742POPC   D2A 5740  24.525  41.533   8.255
 5742POPC   C3A 5741  24.511  41.570   7.955
 5742POPC   C4A 5742  24.506  41.593   7.655
 5742POPC   C1B 5743  24.745  41.520   8.555
 5742POPC   C2B 5744  24.781  41.546   8.255
 5742POPC   C3B 5745  24.709  41.547   7.955
 5742POPC   C4B 5746  24.769  41.480   7.655
 5743POPC   NC3 5747   7.406  27.553   9.455
 5743POPC   PO4 5748   7.456  27.632   9.155
 5743POPC   GL1 5749   7.445  27.557   8.855
 5743POPC   GL2 5750   7.407  27.533   8.855
 5743POPC   C1A 5751   7.387  27.588   8.555
 5743POPC   D2A 5752   7.381  27.611   8.255
 5743POPC   C3A 5753   7.401  27.607   7.955
 5743POPC   C4A 5754   7.381  27.617   7.655
 5743POPC   C1B 5755   7.309  27.407   8.555
 5743POPC   C2B 5756   7.267  27.344   8.255
 5743POPC   C3B 5757   7.325  27.352   7.955
 5743POPC   C4B 5758   7.322  27.374   7.655
 5744POPC   NC3 5759   4.353   6.608   9.455
 5744POPC   PO4 5760   4.315   6.664   9.155
 5744POPC   GL1 5761   4.344   6.646   8.855
 5744POPC   GL2 5762   4.450   6.609   8.855
 5744POPC   C1A 5763   4.366   6.651   8.555
 5744POPC   D2A 5764   4.319   6.647   8.255
 5744POPC   C3A 5765   4.339   6.617   7.955
 5744POPC   C4A 5766   4.365   6.666   7.655
 5744POPC   C1B 5767   4.581   6.583   8.555
 5744POPC   C2B 5768   4.539   6.605   8.255
 5744POPC   C3B 5769   4.521   6.577   7.955
 5744POPC   C4B 5770   4.591   6.602   7.655
 5745POPC   NC3 5771  41.574  25.242   9.455
 5745POPC   PO4 5772  41.586  25.217   9.155
 5745POPC   GL1 5773  41.532  25.232   8.855
 5745POPC   GL2 5774  41.552  25.107   8.855
 5745POPC   C1A 5775  41.605  25.289   8.555
 5745POPC   D2A 5776  41.528  25.235   8.255
 5745POPC   C3A 5777  41.585  25.284   7.955
 5745POPC   C4A 5778  41.536  25.241   7.655
 5745POPC   C1B 5779  41.663  25.060   8.555
 5745POPC   C2B 5780  41.584  25.028   8.255
 5745POPC   C3B 5781  41.639  24.978   7.955
 5745POPC   C4B 5782  41.651  24.998   7.655
 5746POPC   NC3 5783   7.391  34.587   9.455
 5746POPC   PO4 5784   7.460  34.603   9.155
 5746POPC   GL1 5785   7.462  34.611   8.855
 5746POPC   GL2 5786   7.288  34.481   8.855
 5746POPC   C1A 5787   7.460  34.611   8.555
 5746POPC   D2A 5788   7.442  34.597   8.255
 5746POPC   C3A 5789   7.466  34.552   7.955
 5746POPC   C4A 5790   7.463  34.616   7.655
 5746POPC   C1B 5791   7.252  34.378   8.555
 5746POPC   C2B 5792   7.269  34.436   8.255
 5746POPC   C3B 5793   7.247  34.356   7.955
 5746POPC   C4B 5794   7.215  34.438   7.655
 5747POPC   NC3 5795  12.063  42.381   9.455
 5747POPC   PO4 5796  12.114  42.304   9.155
 5747POPC   GL1 5797  12.034  42.319   8.855
 5747POPC   GL2 5798  11.937  42.301   8.855
 5747POPC   C1A 5799  12.094  42.305   8.555
 5747POPC   D2A 5800  12.074  42.370   8.255
 5747POPC   C3A 5801  12.088  42.315   7.955
 5747POPC   C4A 5802  12.099  42.375   7.655
 5747POPC   C1B 5803  11.807  42.320   8.555
 5747POPC   C2B 5804  11.836  42.310   8.255
 5747POPC   C3B 5805  11.799  42.346   7.955
 5747POPC   C4B 5806  11.802  42.321   7.655
 5748POPC   NC3 5807   0.472  15.142   9.455
 5748POPC   PO4 5808   0.410  15.160   9.155
 5748POPC   GL1 5809   0.437  15.200   8.855
 5748POPC   GL2 5810   0.287  15.301   8.855
 5748POPC   C1A 5811   0.480  15.144   8.555
 5748POPC   D2A 5812   0.401  15.133   8.255
 5748POPC   C3A 5813   0.430  15.155   7.955
 5748POPC   C4A 5814   0.393  15.176   7.655
 5748POPC   C1B 5815   0.226  15.334   8.555
 5748POPC   C2B 5816   0.257  15.285   8.255
 5748POPC   C3B 5817   0.200  15.345   7.955
 5748POPC   C4B 5818   0.228  15.322   7.655
 5749POPC   NC3 5819  17.531  22.166   9.455
 5749POPC   PO4 5820  17.468  22.128   9.155
 5749POPC   GL1 5821  17.526  22.121   8.855
 5749POPC   GL2 5822  17.626  22.124   8.855
 5749POPC   C1A 5823  17.512  22.154   8.555
 5749POPC   D2A 5824  17.489  22.120   8.255
 5749POPC   C3A 5825  17.462  22.157   7.955
 5749POPC   C4A 5826  17.532  22.193   7.655
 5749POPC   C1B 5827  17.778  22.138   8.555
 5749POPC   C2B 5828  17.785  22.097   8.255
 5749POPC   C3B 5829  17.780  22.048   7.955
 5749POPC   C4B 5830  17.779  22.094   7.655
 5750POPC   NC3 5831  16.004  26.800   9.455
 5750POPC   PO4 5832  15.974  26.840   9.155
 5750POPC   GL1 5833  15.957  26.775   8.855
 5750POPC   GL2 5834  15.886  26.892   8.855
 5750POPC   C1A 5835  15.932  26.780   8.555
 5750POPC   D2A 5836  15.944  26.769   8.255
 5750POPC   C3A 5837  15.992  26.809   7.955
 5750POPC   C4A 5838  15.909  26.816   7.655
 5750POPC   C1B 5839  15.882  27.007   8.555
 5750POPC   C2B 5840  15.856  27.049   8.255
 5750POPC   C3B 5841  15.814  26.997   7.955
 5750POPC   C4B 5842  15.815  27.081   7.655
 5751POPC   NC3 5843  40.764  23.726   9.455
 5751POPC   PO4 5844  40.824  23.737   9.155
 5751POPC   GL1 5845  40.827  23.670   8.855
 5751POPC   GL2 5846  40.795  23.884   8.855
 5751POPC   C1A 5847  40.758  23.756   8.555
 5751POPC   D2A 5848  40.788  23.759   8.255
 5751POPC   C3A 5849  40.766  23.672   7.955
 5751POPC   C4A 5850  40.742  23.719   7.655
 5751POPC   C1B 5851  40.834  23.925   8.555
 5751POPC   C2B 5852  40.891  23.917   8.255
 5751POPC   C3B 5853  40.850  23.940   7.955
 5751POPC   C4B 5854  40.863  23.996   7.655
 5752POPC   NC3 5855   2.750  37.718   9.455
 5752POPC   PO4 5856   2.811  37.684   9.155
 5752POPC   GL1 5857   2.792  37.637   8.855
 5752POPC   GL2 5858   2.877  37.663   8.855
 5752POPC   C1A 5859   2.784  37.700   8.555
 5752POPC   D2A 5860   2.749  37.685   8.255
 5752POPC   C3A 5861   2.799  37.654   7.955
 5752POPC   C4A 5862   2.779  37.715   7.655
 5752POPC   C1B 5863   2.979  37.664   8.555
 5752POPC   C2B 5864   3.046  37.720   8.255
 5752POPC   C3B 5865   2.969  37.704   7.955
 5752POPC   C4B 5866   2.979  37.693   7.655
 5753POPC   NC3 5867  35.335  25.250   9.455
 5753POPC   PO4 5868  35.318  25.293   9.155
 5753POPC   GL1 5869  35.369  25.248   8.855
 5753POPC   GL2 5870  35.404  25.105   8.855
 5753POPC   C1A 5871  35.304  25.242   8.555
 5753POPC   D2A 5872  35.377  25.256   8.255
 5753POPC   C3A 5873  35.352  25.261   7.955
 5753POPC   C4A 5874  35.396  25.220   7.655
 5753POPC   C1B 5875  35.425  25.052   8.555
 5753POPC   C2B 5876  35.420  25.059   8.255
 5753POPC   C3B 5877  35.477  25.021   7.955
 5753POPC   C4B 5878  35.466  25.041   7.655
 5754POPC   NC3 5879  34.616   9.011   9.455
 5754POPC   PO4 5880  34.564   8.954   9.155
 5754POPC   GL1 5881  34.614   8.975   8.855
 5754POPC   GL2 5882  34.621   8.810   8.855
 5754POPC   C1A 5883  34.565   9.021   8.555
 5754POPC   D2A 5884  34.605   8.948   8.255
 5754POPC   C3A 5885  34.531   8.981   7.955
 5754POPC   C4A 5886  34.560   8.980   7.655
 5754POPC   C1B 5887  34.601   8.748   8.555
 5754POPC   C2B 5888  34.596   8.738   8.255
 5754POPC   C3B 5889  34.572   8.714   7.955
 5754POPC   C4B 5890  34.551   8.770   7.655
 5755POPC   NC3 5891  44.694   5.863   9.455
 5755POPC   PO4 5892  44.667   5.843   9.155
 5755POPC   GL1 5893  44.687   5.897   8.855
 5755POPC   GL2 5894  44.569   5.944   8.855
 5755POPC   C1A 5895  44.707   5.890   8.555
 5755POPC   D2A 5896  44.701   5.904   8.255
 5755POPC   C3A 5897  44.662   5.849   7.955
 5755POPC   C4A 5898  44.676   5.870   7.655
 5755POPC   C1B 5899  44.426   5.947   8.555
 5755POPC   C2B 5900  44.415   5.915   8.255
 5755POPC   C3B 5901  44.416   5.928   7.955
 5755POPC   C4B 5902  44.473   5.895   7.655
 5756POPC   NC3 5903  26.806  12.038   9.455
 5756POPC   PO4 5904  26.823  12.071   9.155
 5756POPC   GL1 5905  26.806  12.087   8.855
 5756POPC   GL2 5906  26.785  11.948   8.855
 5756POPC   C1A 5907  26.771  12.115   8.555
 5756POPC   D2A 5908  26.785  12.086   8.255
 5756POPC   C3A 5909  26.859  12.090   7.955
 5756POPC   C4A 5910  26.769  12.050   7.655
 5756POPC   C1B 5911  26.712  11.898   8.555
 5756POPC   C2B 5912  26.686  11.874   8.255
 5756POPC   C3B 5913  26.696  11.826   7.955
 5756POPC   C4B 5914  26.710  11.841   7.655
 5757POPC   NC3 5915  15.137   2.753   9.455
 5757POPC   PO4 5916  15.182   2.789   9.155
 5757POPC   GL1 5917  15.175   2.722   8.855
 5757POPC   GL2 5918  15.105   2.786   8.855
 5757POPC   C1A 5919  15.164   2.782   8.555
 5757POPC   D2A 5920  15.140   2.803   8.255
 5757POPC   C3A 5921  15.151   2.790   7.955
 5757POPC   C4A 5922  15.154   2.789   7.655
 5757POPC   C1B 5923  14.897   2.798   8.555
 5757POPC   C2B 5924  14.990   2.840   8.255
 5757POPC   C3B 5925  14.903   2.872   7.955
 5757POPC   C4B 5926  14.896   2.839   7.655
 5758POPC   NC3 5927  39.275  12.859   9.455
 5758POPC   PO4 5928  39.240  12.868   9.155
 5758POPC   GL1 5929  39.186  12.902   8.855
 5758POPC   GL2 5930  39.060  12.888   8.855
 5758POPC   C1A 5931  39.190  12.839   8.555
 5758POPC   D2A 5932  39.267  12.864   8.255
 5758POPC   C3A 5933  39.230  12.841   7.955
 5758POPC   C4A 5934  39.198  12.866   7.655
 5758POPC   C1B 5935  38.935  12.827   8.555
 5758POPC   C2B 5936  38.966  12.899   8.255
 5758POPC   C3B 5937  38.964  12.882   7.955
 5758POPC   C4B 5938  38.940  12.815   7.655
 5759POPC   NC3 5939  30.710   7.372   9.455
 5759POPC   PO4 5940  30.682   7.385   9.155
 5759POPC   GL1 5941  30.682   7.457   8.855
 5759POPC   GL2 5942  30.779   7.408   8.855
 5759POPC   C1A 5943  30.727   7.440   8.555
 5759POPC   D2A 5944  30.677   7.408   8.255
 5759POPC   C3A 5945  30.671   7.444   7.955
 5759POPC   C4A 5946  30.679   7.447   7.655
 5759POPC   C1B 5947  30.986   7.426   8.555
 5759POPC   C2B 5948  30.980   7.486   8.255
 5759POPC   C3B 5949  30.927   7.485   7.955
 5759POPC   C4B 5950  30.942   7.433   7.655
 5760POPC   NC3 5951  30.708  44.712   9.455
 5760POPC   PO4 5952  30.715  44.634   9.155
 5760POPC   GL1 5953  30.663  44.700   8.855
 5760POPC   GL2 5954  30.680  44.809   8.855
 5760POPC   C1A 5955  30.728  44.632   8.555
 5760POPC   D2A 5956  30.729  44.667   8.255
 5760POPC   C3A 5957  30.720  44.635   7.955
 5760POPC   C4A 5958  30.738  44.634   7.655
 5760POPC   C1B 5959  30.552  44.933   8.555
 5760POPC   C2B 5960  30.553  44.864   8.255
 5760POPC   C3B 5961  30.621  44.938   7.955
 5760POPC   C4B 5962  30.639  44.917   7.655
 5761POPC   NC3 5963  26.789  39.959   9.455
 5761POPC   PO4 5964  26.770  40.026   9.155
 5761POPC   GL1 5965  26.862  39.979   8.855
 5761POPC   GL2 5966  26.679  40.091   8.855
 5761POPC   C1A 5967  26.843  40.002   8.555
 5761POPC   D2A 5968  26.811  40.004   8.255
 5761POPC   C3A 5969  26.863  39.982   7.955
 5761POPC   C4A 5970  26.776  40.011   7.655
 5761POPC   C1B 5971  26.603  40.136   8.555
 5761POPC   C2B 5972  26.619  40.151   8.255
 5761POPC   C3B 5973  26.590  40.167   7.955
 5761POPC   C4B 5974  26.650  40.217   7.655
 5762POPC   NC3 5975  25.305   9.769   9.455
 5762POPC   PO4 5976  25.235   9.739   9.155
 5762POPC   GL1 5977  25.289   9.781   8.855
 5762POPC   GL2 5978  25.209   9.846   8.855
 5762POPC   C1A 5979  25.286   9.780   8.555
 5762POPC   D2A 5980  25.262   9.754   8.255
 5762POPC   C3A 5981  25.265   9.719   7.955
 5762POPC   C4A 5982  25.300   9.722   7.655
 5762POPC   C1B 5983  25.053   9.932   8.555
 5762POPC   C2B 5984  25.054   9.899   8.255
 5762POPC   C3B 5985  25.146   9.891   7.955
 5762POPC   C4B 5986  25.098   9.886   7.655
 5763POPC   NC3 5987   6.661  19.854   9.455
 5763POPC   PO4 5988   6.641  19.836   9.155
 5763POPC   GL1 5989   6.676  19.837   8.855
 5763POPC   GL2 5990   6.601  19.782   8.855
 5763POPC   C1A 5991   6.642  19.866   8.555
 5763POPC   D2A 5992   6.612  19.804   8.255
 5763POPC   C3A 5993   6.692  19.802   7.955
 5763POPC   C4A 5994   6.676  19.798   7.655
 5763POPC   C1B 5995   6.475  19.700   8.555
 5763POPC   C2B 5996   6.475  19.689   8.255
 5763POPC   C3B 5997   6.455  19.664   7.955
 5763POPC   C4B 5998   6.420  19.672   7.655
 5764POPC   NC3 5999  35.386  43.866   9.455
 5764POPC   PO4 6000  35.337  43.866   9.155
 5764POPC   GL1 6001  35.339  43.889   8.855
 5764POPC   GL2 6002  35.208  43.941   8.855
 5764POPC   C1A 6003  35.332  43.857   8.555
 5764POPC   D2A 6004  35.344  43.837   8.255
 5764POPC   C3A 6005  35.316  43.850   7.955
 5764POPC   C4A 6006  35.356  43.852   7.655
 5764POPC   C1B 6007  35.071  43.996   8.555
 5764POPC   C2B 6008  35.135  43.990   8.255
 5764POPC   C3B 6009  35.158  44.007   7.955
 5764POPC   C4B 6010  35.158  43.948   7.655
 5765POPC   NC3 6011   1.234  29.895   9.455
 5765POPC   PO4 6012   1.166  29.954   9.155
 5765POPC   GL1 6013   1.170  29.908   8.855
 5765POPC   GL2 6014   1.137  29.869   8.855
 5765POPC   C1A 6015   1.256  29.895   8.555
 5765POPC   D2A 6016   1.220  29.948   8.255
 5765POPC   C3A 6017   1.213  29.874   7.955
 5765POPC   C4A 6018   1.243  29.872   7.655
 5765POPC   C1B 6019   1.057  29.722   8.555
 5765POPC   C2B 6020   1.045  29.738   8.255
 5765POPC   C3B 6021   1.064  29.782   7.955
 5765POPC   C4B 6022   1.049  29.735   7.655
 5766POPC   NC3 6023   9.765  26.028   9.455
 5766POPC   PO4 6024   9.722  26.062   9.155
 5766POPC   GL1 6025   9.777  26.064   8.855
 5766POPC   GL2 6026   9.592  26.086   8.855
 5766POPC   C1A 6027   9.786  25.998   8.555
 5766POPC   D2A 6028   9.706  26.054   8.255
 5766POPC   C3A 6029   9.742  26.066   7.955
 5766POPC   C4A 6030   9.730  26.023   7.655
 5766POPC   C1B 6031   9.528  26.203   8.555
 5766POPC   C2B 6032   9.560  26.150   8.255
 5766POPC   C3B 6033   9.520  26.174   7.955
 5766POPC   C4B 6034   9.534  26.177   7.655
 5767POPC   NC3 6035   8.220   1.216   9.455
 5767POPC   PO4 6036   8.193   1.253   9.155
 5767POPC   GL1 6037   8.234   1.212   8.855
 5767POPC   GL2 6038   8.269   1.335   8.855
 5767POPC   C1A 6039   8.187   1.247   8.555
 5767POPC   D2A 6040   8.238   1.200   8.255
 5767POPC   C3A 6041   8.244   1.181   7.955
 5767POPC   C4A 6042   8.212   1.178   7.655
 5767POPC   C1B 6043   8.348   1.430   8.555
 5767POPC   C2B 6044   8.332   1.425   8.255
 5767POPC   C3B 6045   8.290   1.388   7.955
 5767POPC   C4B 6046   8.343   1.400   7.655
 5768POPC   NC3 6047   5.883   9.700   9.455
 5768POPC   PO4 6048   5.902   9.773   9.155
 5768POPC   GL1 6049   5.897   9.771   8.855
 5768POPC   GL2 6050   5.990   9.666   8.855
 5768POPC   C1A 6051   5.822   9.713   8.555
 5768POPC   D2A 6052   5.844   9.701   8.255
 5768POPC   C3A 6053   5.896   9.767   7.955
 5768POPC   C4A 6054   5.822   9.790   7.655
 5768POPC   C1B 6055   6.036   9.563   8.555
 5768POPC   C2B 6056   5.977   9.509   8.255
 5768POPC   C3B 6057   6.038   9.513   7.955
 5768POPC   C4B 6058   6.031   9.586   7.655
 5769POPC   NC3 6059  36.171  31.469   9.455
 5769POPC   PO4 6060  36.097  31.489   9.155
 5769POPC   GL1 6061  36.135  31.452   8.855
 5769POPC   GL2 6062  36.058  31.373   8.855
 5769POPC   C1A 6063  36.103  31.491   8.555
 5769POPC   D2A 6064  36.101  31.497   8.255
 5769POPC   C3A 6065  36.172  31.434   7.955
 5769POPC   C4A 6066  36.098  31.503   7.655
 5769POPC   C1B 6067  35.876  31.336   8.555
 5769POPC   C2B 6068  35.867  31.319   8.255
 5769POPC   C3B 6069  35.884  31.339   7.955
 5769POPC   C4B 6070  35.867  31.396   7.655
 5770POPC   NC3 6071  28.361  39.211   9.455
 5770POPC   PO4 6072  28.347  39.272   9.155
 5770POPC   GL1 6073  28.325  39.200   8.855
 5770POPC   GL2 6074  28.465  39.316   8.855
 5770POPC   C1A 6075  28.329  39.182   8.555
 5770POPC   D2A 6076  28.391  39.278   8.255
 5770POPC   C3A 6077  28.405  39.239   7.955
 5770POPC   C4A 6078  28.362  39.260   7.655
 5770POPC   C1B 6079  28.586  39.291   8.555
 5770POPC   C2B 6080  28.656  39.271   8.255
 5770POPC   C3B 6081  28.647  39.309   7.955
 5770POPC   C4B 6082  28.589  39.304   7.655
 5771POPC   NC3 6083  27.602  42.352   9.455
 5771POPC   PO4 6084  27.588  42.301   9.155
 5771POPC   GL1 6085  27.613  42.291   8.855
 5771POPC   GL2 6086  27.732  42.432   8.855
 5771POPC   C1A 6087  27.630  42.319   8.555
 5771POPC   D2A 6088  27.615  42.286   8.255
 5771POPC   C3A 6089  27.557  42.384   7.955
 5771POPC   C4A 6090  27.544  42.354   7.655
 5771POPC   C1B 6091  27.765  42.469   8.555
 5771POPC   C2B 6092  27.732  42.530   8.255
 5771POPC   C3B 6093  27.765  42.552   7.955
 5771POPC   C4B 6094  27.758  42.503   7.655
 5772POPC   NC3 6095  12.802   4.268   9.455
 5772POPC   PO4 6096  12.900   4.326   9.155
 5772POPC   GL1 6097  12.858   4.320   8.855
 5772POPC   GL2 6098  12.849   4.463   8.855
 5772POPC   C1A 6099  12.814   4.283   8.555
 5772POPC   D2A 6100  12.886   4.321   8.255
 5772POPC   C3A 6101  12.867   4.315   7.955
 5772POPC   C4A 6102  12.804   4.304   7.655
 5772POPC   C1B 6103  12.812   4.507   8.555
 5772POPC   C2B 6104  12.738   4.543   8.255
 5772POPC   C3B 6105  12.816   4.519   7.955
 5772POPC   C4B 6106  12.819   4.543   7.655
 5773POPC   NC3 6107  12.837  17.479   9.455
 5773POPC   PO4 6108  12.814  17.548   9.155
 5773POPC   GL1 6109  12.850  17.534   8.855
 5773POPC   GL2 6110  12.885  17.636   8.855
 5773POPC   C1A 6111  12.825  17.507   8.555
 5773POPC   D2A 6112  12.827  17.495   8.255
 5773POPC   C3A 6113  12.835  17.515   7.955
 5773POPC   C4A 6114  12.830  17.493   7.655
 5773POPC   C1B 6115  12.886  17.762   8.555
 5773POPC   C2B 6116  12.882  17.727   8.255
 5773POPC   C3B 6117  12.828  17.710   7.955
 5773POPC   C4B 6118  12.877  17.786   7.655
 5774POPC   NC3 6119  10.489  11.261   9.455
 5774POPC   PO4 6120  10.528  11.319   9.155
 5774POPC   GL1 6121  10.511  11.276   8.855
 5774POPC   GL2 6122  10.488  11.128   8.855
 5774POPC   C1A 6123  10.504  11.326   8.555
 5774POPC   D2A 6124  10.530  11.270   8.255
 5774POPC   C3A 6125  10.500  11.285   7.955
 5774POPC   C4A 6126  10.537  11.296   7.655
 5774POPC   C1B 6127  10.565  11.037   8.555
 5774POPC   C2B 6128  10.574  11.085   8.255
 5774POPC   C3B 6129  10.533  11.063   7.955
 5774POPC   C4B 6130  10.598  11.077   7.655
 5775POPC   NC3 6131  30.742  42.327   9.455
 5775POPC   PO4 6132  30.723  42.321   9.155
 5775POPC   GL1 6133  30.680  42.381   8.855
 5775POPC   GL2 6134  30.727  42.200   8.855
 5775POPC   C1A 6135  30.656  42.352   8.555
 5775POPC   D2A 6136  30.669  42.295   8.255
 5775POPC   C3A 6137  30.667  42.291   7.955
 5775POPC   C4A 6138  30.670  42.339   7.655
 5775POPC   C1B 6139  30.772  42.095   8.555
 5775POPC   C2B 6140  30.703  42.052   8.255
 5775POPC   C3B 6141  30.706  42.116   7.955
 5775POPC   C4B 6142  30.704  42.060   7.655
 5776POPC   NC3 6143  22.116  16.737   9.455
 5776POPC   PO4 6144  22.185  16.698   9.155
 5776POPC   GL1 6145  22.165  16.719   8.855
 5776POPC   GL2 6146  22.234  16.676   8.855
 5776POPC   C1A 6147  22.117  16.683   8.555
 5776POPC   D2A 6148  22.202  16.719   8.255
 5776POPC   C3A 6149  22.184  16.761   7.955
 5776POPC   C4A 6150  22.168  16.775   7.655
 5776POPC   C1B 6151  22.336  16.622   8.555
 5776POPC   C2B 6152  22.357  16.584   8.255
 5776POPC   C3B 6153  22.386  16.605   7.955
 5776POPC   C4B 6154  22.388  16.637   7.655
 5777POPC   NC3 6155  26.842  43.128   9.455
 5777POPC   PO4 6156  26.784  43.158   9.155
 5777POPC   GL1 6157  26.776  43.099   8.855
 5777POPC   GL2 6158  26.930  43.073   8.855
 5777POPC   C1A 6159  26.854  43.084   8.555
 5777POPC   D2A 6160  26.833  43.079   8.255
 5777POPC   C3A 6161  26.779  43.109   7.955
 5777POPC   C4A 6162  26.843  43.112   7.655
 5777POPC   C1B 6163  27.039  42.996   8.555
 5777POPC   C2B 6164  27.034  42.962   8.255
 5777POPC   C3B 6165  26.985  42.992   7.955
 5777POPC   C4B 6166  27.015  42.919   7.655
 5778POPC   NC3 6167   9.748   8.946   9.455
 5778POPC   PO4 6168   9.737   8.943   9.155
 5778POPC   GL1 6169   9.759   8.942   8.855
 5778POPC   GL2 6170   9.666   9.109   8.855
 5778POPC   C1A 6171   9.698   8.996   8.555
 5778POPC   D2A 6172   9.774   8.986   8.255
 5778POPC   C3A 6173   9.754   8.926   7.955
 5778POPC   C4A 6174   9.791   8.992   7.655
 5778POPC   C1B 6175   9.567   9.120   8.555
 5778POPC   C2B 6176   9.587   9.141   8.255
 5778POPC   C3B 6177   9.578   9.165   7.955
 5778POPC   C4B 6178   9.588   9.124   7.655
 5779POPC   NC3 6179  38.450  20.588   9.455
 5779POPC   PO4 6180  38.470  20.637   9.155
 5779POPC   GL1 6181  38.415  20.610   8.855
 5779POPC   GL2 6182  38.384  20.518   8.855
 5779POPC   C1A 6183  38.461  20.653   8.555
 5779POPC   D2A 6184  38.489  20.602   8.255
 5779POPC   C3A 6185  38.475  20.590   7.955
 5779POPC   C4A 6186  38.445  20.650   7.655
 5779POPC   C1B 6187  38.258  20.476   8.555
 5779POPC   C2B 6188  38.217  20.407   8.255
 5779POPC   C3B 6189  38.267  20.460   7.955
 5779POPC   C4B 6190  38.225  20.479   7.655
 5780POPC   NC3 6191   9.002  36.081   9.455
 5780POPC   PO4 6192   9.003  36.156   9.155
 5780POPC   GL1 6193   8.991  36.115   8.855
 5780POPC   GL2 6194   8.842  36.120   8.855
 5780POPC   C1A 6195   9.004  36.142   8.555
 5780POPC   D2A 6196   8.975  36.144   8.255
 5780POPC   C3A 6197   8.981  36.114   7.955
 5780POPC   C4A 6198   8.940  36.092   7.655
 5780POPC   C1B 6199   8.747  36.072   8.555
 5780POPC   C2B 6200   8.723  36.086   8.255
 5780POPC   C3B 6201   8.721  36.093   7.955
 5780POPC   C4B 6202   8.762  36.099   7.655
 5781POPC   NC3 6203  44.659   8.161   9.455
 5781POPC   PO4 6204  44.625   8.220   9.155
 5781POPC   GL1 6205  44.677   8.187   8.855
 5781POPC   GL2 6206  44.611   8.098   8.855
 5781POPC   C1A 6207  44.678   8.154   8.555
 5781POPC   D2A 6208  44.702   8.234   8.255
 5781POPC   C3A 6209  44.665   8.209   7.955
 5781POPC   C4A 6210  44.634   8.196   7.655
 5781POPC   C1B 6211  44.619   7.904   8.555
 5781POPC   C2B 6212  44.565   7.974   8.255
 5781POPC   C3B 6213  44.605   7.905   7.955
 5781POPC   C4B 6214  44.615   7.934   7.655
 5782POPC   NC3 6215  42.359  15.152   9.455
 5782POPC   PO4 6216  42.305  15.203   9.155
 5782POPC   GL1 6217  42.342  15.177   8.855
 5782POPC   GL2 6218  42.398  15.212   8.855
 5782POPC   C1A 6219  42.322  15.160   8.555
 5782POPC   D2A 6220  42.296  15.229   8.255
 5782POPC   C3A 6221  42.382  15.186   7.955
 5782POPC   C4A 6222  42.315  15.223   7.655
 5782POPC   C1B 6223  42.580  15.276   8.555
 5782POPC   C2B 6224  42.545  15.333   8.255
 5782POPC   C3B 6225  42.548  15.325   7.955
 5782POPC   C4B 6226  42.499  15.333   7.655
 5783POPC   NC3 6227  15.983  22.960   9.455
 5783POPC   PO4 6228  15.910  22.966   9.155
 5783POPC   GL1 6229  15.939  22.974   8.855
 5783POPC   GL2 6230  16.110  22.995   8.855
 5783POPC   C1A 6231  15.941  22.969   8.555
 5783POPC   D2A 6232  15.924  22.939   8.255
 5783POPC   C3A 6233  15.942  22.929   7.955
 5783POPC   C4A 6234  15.985  22.971   7.655
 5783POPC   C1B 6235  16.167  22.979   8.555
 5783POPC   C2B 6236  16.220  23.023   8.255
 5783POPC   C3B 6237  16.202  22.974   7.955
 5783POPC   C4B 6238  16.246  23.017   7.655
 5784POPC   NC3 6239  40.820  15.131   9.455
 5784POPC   PO4 6240  40.775  15.194   9.155
 5784POPC   GL1 6241  40.827  15.199   8.855
 5784POPC   GL2 6242  40.803  15.062   8.855
 5784POPC   C1A 6243  40.752  15.212   8.555
 5784POPC   D2A 6244  40.791  15.146   8.255
 5784POPC   C3A 6245  40.750  15.175   7.955
 5784POPC   C4A 6246  40.748  15.198   7.655
 5784POPC   C1B 6247  40.869  14.955   8.555
 5784POPC   C2B 6248  40.894  14.938   8.255
 5784POPC   C3B 6249  40.862  14.931   7.955
 5784POPC   C4B 6250  40.878  14.932   7.655
 5785POPC   NC3 6251  13.637  36.920   9.455
 5785POPC   PO4 6252  13.640  36.887   9.155
 5785POPC   GL1 6253  13.662  36.884   8.855
 5785POPC   GL2 6254  13.685  36.774   8.855
 5785POPC   C1A 6255  13.630  36.857   8.555
 5785POPC   D2A 6256  13.586  36.914   8.255
 5785POPC   C3A 6257  13.644  36.909   7.955
 5785POPC   C4A 6258  13.627  36.901   7.655
 5785POPC   C1B 6259  13.828  36.770   8.555
 5785POPC   C2B 6260  13.837  36.744   8.255
 5785POPC   C3B 6261  13.795  36.722   7.955
 5785POPC   C4B 6262  13.818  36.742   7.655
 5786POPC   NC3 6263  41.564  10.507   9.455
 5786POPC   PO4 6264  41.609  10.493   9.155
 5786POPC   GL1 6265  41.568  10.574   8.855
 5786POPC   GL2 6266  41.433  10.621   8.855
 5786POPC   C1A 6267  41.513  10.480   8.555
 5786POPC   D2A 6268  41.540  10.524   8.255
 5786POPC   C3A 6269  41.608  10.475   7.955
 5786POPC   C4A 6270  41.541  10.522   7.655
 5786POPC   C1B 6271  41.381  10.722   8.555
 5786POPC   C2B 6272  41.320  10.711   8.255
 5786POPC   C3B 6273  41.356  10.678   7.955
 5786POPC   C4B 6274  41.339  10.668   7.655
 5787POPC   NC3 6275  38.413  33.765   9.455
 5787POPC   PO4 6276  38.480  33.816   9.155
 5787POPC   GL1 6277  38.413  33.755   8.855
 5787POPC   GL2 6278  38.526  33.936   8.855
 5787POPC   C1A 6279  38.439  33.758   8.555
 5787POPC   D2A 6280  38.477  33.849   8.255
 5787POPC   C3A 6281  38.454  33.805   7.955
 5787POPC   C4A 6282  38.483  33.755   7.655
 5787POPC   C1B 6283  38.560  34.067   8.555
 5787POPC   C2B 6284  38.525  34.045   8.255
 5787POPC   C3B 6285  38.518  33.991   7.955
 5787POPC   C4B 6286  38.475  34.081   7.655
 5788POPC   NC3 6287  39.249  32.205   9.455
 5788POPC   PO4 6288  39.246  32.208   9.155
 5788POPC   GL1 6289  39.207  32.231   8.855
 5788POPC   GL2 6290  39.138  32.272   8.855
 5788POPC   C1A 6291  39.279  32.252   8.555
 5788POPC   D2A 6292  39.245  32.259   8.255
 5788POPC   C3A 6293  39.197  32.223   7.955
 5788POPC   C4A 6294  39.225  32.292   7.655
 5788POPC   C1B 6295  38.978  32.225   8.555
 5788POPC   C2B 6296  38.960  32.185   8.255
 5788POPC   C3B 6297  39.006  32.199   7.955
 5788POPC   C4B 6298  38.982  32.190   7.655
 5789POPC   NC3 6299  12.076   8.210   9.455
 5789POPC   PO4 6300  12.027   8.182   9.155
 5789POPC   GL1 6301  12.084   8.216   8.855
 5789POPC   GL2 6302  11.986   8.310   8.855
 5789POPC   C1A 6303  12.084   8.222   8.555
 5789POPC   D2A 6304  12.068   8.214   8.255
 5789POPC   C3A 6305  12.083   8.189   7.955
 5789POPC   C4A 6306  12.085   8.152   7.655
 5789POPC   C1B 6307  11.904   8.364   8.555
 5789POPC   C2B 6308  11.826   8.304   8.255
 5789POPC   C3B 6309  11.889   8.334   7.955
 5789POPC   C4B 6310  11.914   8.370   7.655
 5790POPC   NC3 6311  26.785  30.721   9.455
 5790POPC   PO4 6312  26.810  30.705   9.155
 5790POPC   GL1 6313  26.862  30.666   8.855
 5790POPC   GL2 6314  26.945  30.675   8.855
 5790POPC   C1A 6315  26.802  30.730   8.555
 5790POPC   D2A 6316  26.789  30.668   8.255
 5790POPC   C3A 6317  26.866  30.658   7.955
 5790POPC   C4A 6318  26.823  30.721   7.655
 5790POPC   C1B 6319  27.012  30.642   8.555
 5790POPC   C2B 6320  27.093  30.637   8.255
 5790POPC   C3B 6321  27.107  30.668   7.955
 5790POPC   C4B 6322  27.089  30.657   7.655
 5791POPC   NC3 6323  12.095  27.607   9.455
 5791POPC   PO4 6324  12.028  27.547   9.155
 5791POPC   GL1 6325  12.081  27.591   8.855
 5791POPC   GL2 6326  12.194  27.526   8.855
 5791POPC   C1A 6327  12.099  27.578   8.555
 5791POPC   D2A 6328  12.091  27.565   8.255
 5791POPC   C3A 6329  12.064  27.586   7.955
 5791POPC   C4A 6330  12.046  27.571   7.655
 5791POPC   C1B 6331  12.309  27.531   8.555
 5791POPC   C2B 6332  12.318  27.495   8.255
 5791POPC   C3B 6333  12.286  27.527   7.955
 5791POPC   C4B 6334  12.301  27.505   7.655
 5792POPC   NC3 6335  44.670  16.002   9.455
 5792POPC   PO4 6336  44.650  15.972   9.155
 5792POPC   GL1 6337  44.648  15.953   8.855
 5792POPC   GL2 6338  44.736  15.855   8.855
 5792POPC   C1A 6339  44.677  15.939   8.555
 5792POPC   D2A 6340  44.638  15.994   8.255
 5792POPC   C3A 6341  44.652  15.912   7.955
 5792POPC   C4A 6342  44.676  15.987   7.655
 5792POPC   C1B 6343  44.854  15.833   8.555
 5792POPC   C2B 6344  44.861  15.850   8.255
 5792POPC   C3B 6345  44.824  15.783   7.955
 5792POPC   C4B 6346  44.888  15.790   7.655
 5793POPC   NC3 6347  32.980  19.812   9.455
 5793POPC   PO4 6348  33.071  19.789   9.155
 5793POPC   GL1 6349  33.015  19.878   8.855
 5793POPC   GL2 6350  32.922  19.866   8.855
 5793POPC   C1A 6351  33.002  19.832   8.555
 5793POPC   D2A 6352  33.021  19.787   8.255
 5793POPC   C3A 6353  33.063  19.809   7.955
 5793POPC   C4A 6354  33.027  19.833   7.655
 5793POPC   C1B 6355  32.795  19.984   8.555
 5793POPC   C2B 6356  32.805  20.033   8.255
 5793POPC   C3B 6357  32.791  19.981   7.955
 5793POPC   C4B 6358  32.784  20.034   7.655
 5794POPC   NC3 6359   8.202   7.437   9.455
 5794POPC   PO4 6360   8.240   7.386   9.155
 5794POPC   GL1 6361   8.200   7.384   8.855
 5794POPC   GL2 6362   8.186   7.517   8.855
 5794POPC   C1A 6363   8.240   7.437   8.555
 5794POPC   D2A 6364   8.221   7.372   8.255
 5794POPC   C3A 6365   8.230   7.397   7.955
 5794POPC   C4A 6366   8.243   7.411   7.655
 5794POPC   C1B 6367   8.054   7.674   8.555
 5794POPC   C2B 6368   8.078   7.650   8.255
 5794POPC   C3B 6369   8.064   7.684   7.955
 5794POPC   C4B 6370   8.109   7.623   7.655
 5795POPC   NC3 6371  32.975   3.519   9.455
 5795POPC   PO4 6372  33.065   3.554   9.155
 5795POPC   GL1 6373  33.057   3.534   8.855
 5795POPC   GL2 6374  32.971   3.466   8.855
 5795POPC   C1A 6375  33.015   3.507   8.555
 5795POPC   D2A 6376  33.032   3.509   8.255
 5795POPC   C3A 6377  33.005   3.535   7.955
 5795POPC   C4A 6378  32.981   3.561   7.655
 5795POPC   C1B 6379  32.940   3.274   8.555
 5795POPC   C2B 6380  32.992   3.319   8.255
 5795POPC   C3B 6381  32.995   3.301   7.955
 5795POPC   C4B 6382  32.946   3.256   7.655
 5796POPC   NC3 6383  44.690  37.665   9.455
 5796POPC   PO4 6384  44.647  37.701   9.155
 5796POPC   GL1 6385  44.644  37.632   8.855
 5796POPC   GL2 6386  44.581  37.626   8.855
 5796POPC   C1A 6387  44.617  37.638   8.555
 5796POPC   D2A 6388  44.675  37.702   8.255
 5796POPC   C3A 6389  44.667  37.714   7.955
 5796POPC   C4A 6390  44.669  37.721   7.655
 5796POPC   C1B 6391  44.495  37.495   8.555
 5796POPC   C2B 6392  44.410  37.537   8.255
 5796POPC   C3B 6393  44.461  37.563   7.955
 5796POPC   C4B 6394  44.467  37.550   7.655
 5797POPC   NC3 6395  22.979   9.742   9.455
 5797POPC   PO4 6396  22.916   9.797   9.155
 5797POPC   GL1 6397  22.975   9.741   8.855
 5797POPC   GL2 6398  23.069   9.802   8.855
 5797POPC   C1A 6399  22.969   9.720   8.555
 5797POPC   D2A 6400  22.983   9.716   8.255
 5797POPC   C3A 6401  22.930   9.739   7.955
 5797POPC   C4A 6402  22.951   9.788   7.655
 5797POPC   C1B 6403  23.184   9.801   8.555
 5797POPC   C2B 6404  23.129   9.809   8.255
 5797POPC   C3B 6405  23.210   9.861   7.955
 5797POPC   C4B 6406  23.199   9.821   7.655
 5798POPC   NC3 6407  15.992  40.818   9.455
 5798POPC   PO4 6408  15.943  40.777   9.155
 5798POPC   GL1 6409  15.931  40.818   8.855
 5798POPC   GL2 6410  15.881  40.726   8.855
 5798POPC   C1A 6411  15.911  40.742   8.555
 5798POPC   D2A 6412  15.916  40.809   8.255
 5798POPC   C3A 6413  15.999  40.775   7.955
 5798POPC   C4A 6414  16.000  40.799   7.655
 5798POPC   C1B 6415  15.686  40.770   8.555
 5798POPC   C2B 6416  15.671  40.695   8.255
 5798POPC   C3B 6417  15.754  40.699   7.955
 5798POPC   C4B 6418  15.741  40.732   7.655
 5799POPC   NC3 6419   8.955   6.595   9.455
 5799POPC   PO4 6420   9.002   6.693   9.155
 5799POPC   GL1 6421   8.929   6.615   8.855
 5799POPC   GL2 6422   9.016   6.575   8.855
 5799POPC   C1A 6423   8.985   6.665   8.555
 5799POPC   D2A 6424   8.965   6.679   8.255
 5799POPC   C3A 6425   8.951   6.613   7.955
 5799POPC   C4A 6426   9.007   6.688   7.655
 5799POPC   C1B 6427   9.098   6.450   8.555
 5799POPC   C2B 6428   9.109   6.409   8.255
 5799POPC   C3B 6429   9.139   6.417   7.955
 5799POPC   C4B 6430   9.137   6.422   7.655
 5800POPC   NC3 6431  43.859  23.676   9.455
 5800POPC   PO4 6432  43.897  23.761   9.155
 5800POPC   GL1 6433  43.836  23.717   8.855
 5800POPC   GL2 6434  43.996  23.784   8.855
 5800POPC   C1A 6435  43.863  23.705   8.555
 5800POPC   D2A 6436  43.861  23.735   8.255
 5800POPC   C3A 6437  43.895  23.675   7.955
 5800POPC   C4A 6438  43.857  23.668   7.655
 5800POPC   C1B 6439  44.057  23.817   8.555
 5800POPC   C2B 6440  44.099  23.813   8.255
 5800POPC   C3B 6441  44.125  23.841   7.955
 5800POPC   C4B 6442  44.067  23.819   7.655
 5801POPC   NC3 6443  30.651  43.069   9.455
 5801POPC   PO4 6444  30.742  43.113   9.155
 5801POPC   GL1 6445  30.718  43.074   8.855
 5801POPC   GL2 6446  30.624  42.987   8.855
 5801POPC   C1A 6447  30.709  43.142   8.555
 5801POPC   D2A 6448  30.707  43.118   8.255
 5801POPC   C3A 6449  30.684  43.096   7.955
 5801POPC   C4A 6450  30.695  43.102   7.655
 5801POPC   C1B 6451  30.678  42.875   8.555
 5801POPC   C2B 6452  30.652  42.841   8.255
 5801POPC   C3B 6453  30.604  42.872   7.955
 5801POPC   C4B 6454  30.595  42.818   7.655
 5802POPC   NC3 6455  26.849   8.932   9.455
 5802POPC   PO4 6456  26.778   9.002   9.155
 5802POPC   GL1 6457  26.864   8.963   8.855
 5802POPC   GL2 6458  26.956   9.022   8.855
 5802POPC   C1A 6459  26.821   9.009   8.555
 5802POPC   D2A 6460  26.812   9.018   8.255
 5802POPC   C3A 6461  26.801   8.953   7.955
 5802POPC   C4A 6462  26.800   8.929   7.655
 5802POPC   C1B 6463  27.085   9.033   8.555
 5802POPC   C2B 6464  27.103   9.027   8.255
 5802POPC   C3B 6465  27.028   9.039   7.955
 5802POPC   C4B 6466  27.060   9.081   7.655
 5803POPC   NC3 6467   7.390  40.818   9.455
 5803POPC   PO4 6468   7.390  40.830   9.155
 5803POPC   GL1 6469   7.417  40.765   8.855
 5803POPC   GL2 6470   7.326  40.848   8.855
 5803POPC   C1A 6471   7.421  40.807   8.555
 5803POPC   D2A 6472   7.437  40.793   8.255
 5803POPC   C3A 6473   7.428  40.831   7.955
 5803POPC   C4A 6474   7.444  40.820   7.655
 5803POPC   C1B 6475   7.227  40.886   8.555
 5803POPC   C2B 6476   7.228  40.868   8.255
 5803POPC   C3B 6477   7.139  40.796   7.955
 5803POPC   C4B 6478   7.144  40.798   7.655
 5804POPC   NC3 6479   8.184  37.713   9.455
 5804POPC   PO4 6480   8.230  37.658   9.155
 5804POPC   GL1 6481   8.186  37.666   8.855
 5804POPC   GL2 6482   8.247  37.583   8.855
 5804POPC   C1A 6483   8.194  37.640   8.555
 5804POPC   D2A 6484   8.229  37.660   8.255
 5804POPC   C3A 6485   8.179  37.645   7.955
 5804POPC   C4A 6486   8.238  37.689   7.655
 5804POPC   C1B 6487   8.257  37.416   8.555
 5804POPC   C2B 6488   8.239  37.441   8.255
 5804POPC   C3B 6489   8.198  37.443   7.955
 5804POPC   C4B 6490   8.294  37.472   7.655
 5805POPC   NC3 6491   0.391  36.930   9.455
 5805POPC   PO4 6492   0.422  36.864   9.155
 5805POPC   GL1 6493   0.481  36.869   8.855
 5805POPC   GL2 6494   0.479  37.009   8.855
 5805POPC   C1A 6495   0.431  36.911   8.555
 5805POPC   D2A 6496   0.480  36.887   8.255
 5805POPC   C3A 6497   0.410  36.897   7.955
 5805POPC   C4A 6498   0.395  36.902   7.655
 5805POPC   C1B 6499   0.581  37.049   8.555
 5805POPC   C2B 6500   0.605  37.064   8.255
 5805POPC   C3B 6501   0.582  37.124   7.955
 5805POPC   C4B 6502   0.574  37.111   7.655
 5806POPC   NC3 6503  10.540  29.132   9.455
 5806POPC   PO4 6504  10.538  29.136   9.155
 5806POPC   GL1 6505  10.512  29.097   8.855
 5806POPC   GL2 6506  10.550  29.288   8.855
 5806POPC   C1A 6507  10.557  29.139   8.555
 5806POPC   D2A 6508  10.570  29.137   8.255
 5806POPC   C3A 6509  10.518  29.155   7.955
 5806POPC   C4A 6510  10.564  29.159   7.655
 5806POPC   C1B 6511  10.556  29.410   8.555
 5806POPC   C2B 6512  10.565  29.420   8.255
 5806POPC   C3B 6513  10.608  29.412   7.955
 5806POPC   C4B 6514  10.593  29.381   7.655
 5807POPC   NC3 6515  22.174  37.670   9.455
 5807POPC   PO4 6516  22.164  37.698   9.155
 5807POPC   GL1 6517  22.173  37.683   8.855
 5807POPC   GL2 6518  22.177  37.596   8.855
 5807POPC   C1A 6519  22.191  37.667   8.555
 5807POPC   D2A 6520  22.207  37.702   8.255
 5807POPC   C3A 6521  22.184  37.711   7.955
 5807POPC   C4A 6522  22.188  37.678   7.655
 5807POPC   C1B 6523  22.156  37.475   8.555
 5807POPC   C2B 6524  22.184  37.396   8.255
 5807POPC   C3B 6525  22.154  37.425   7.955
 5807POPC   C4B 6526  22.176  37.432   7.655
 5808POPC   NC3 6527  24.531   7.400   9.455
 5808POPC   PO4 6528  24.481   7.414   9.155
 5808POPC   GL1 6529  24.503   7.380   8.855
 5808POPC   GL2 6530  24.438   7.495   8.855
 5808POPC   C1A 6531  24.458   7.412   8.555
 5808POPC   D2A 6532  24.459   7.470   8.255
 5808POPC   C3A 6533  24.441   7.431   7.955
 5808POPC   C4A 6534  24.525   7.410   7.655
 5808POPC   C1B 6535  24.326   7.556   8.555
 5808POPC   C2B 6536  24.319   7.587   8.255
 5808POPC   C3B 6537  24.307   7.623   7.955
 5808POPC   C4B 6538  24.254   7.535   7.655
 5809POPC   NC3 6539  26.795  29.113   9.455
 5809POPC   PO4 6540  26.827  29.165   9.155
 5809POPC   GL1 6541  26.825  29.125   8.855
 5809POPC   GL2 6542  26.733  29.255   8.855
 5809POPC   C1A 6543  26.804  29.170   8.555
 5809POPC   D2A 6544  26.832  29.187   8.255
 5809POPC   C3A 6545  26.768  29.191   7.955
 5809POPC   C4A 6546  26.806  29.181   7.655
 5809POPC   C1B 6547  26.632  29.307   8.555
 5809POPC   C2B 6548  26.603  29.285   8.255
 5809POPC   C3B 6549  26.672  29.327   7.955
 5809POPC   C4B 6550  26.662  29.358   7.655
 5810POPC   NC3 6551  15.912  41.557   9.455
 5810POPC   PO4 6552  15.987  41.564   9.155
 5810POPC   GL1 6553  15.942  41.545   8.855
 5810POPC   GL2 6554  15.888  41.592   8.855
 5810POPC   C1A 6555  15.948  41.596   8.555
 5810POPC   D2A 6556  15.992  41.517   8.255
 5810POPC   C3A 6557  15.982  41.570   7.955
 5810POPC   C4A 6558  15.991  41.541   7.655
 5810POPC   C1B 6559  15.706  41.648   8.555
 5810POPC   C2B 6560  15.711  41.671   8.255
 5810POPC   C3B 6561  15.775  41.668   7.955
 5810POPC   C4B 6562  15.766  41.701   7.655
 5811POPC   NC3 6563  44.668  14.431   9.455
 5811POPC   PO4 6564  44.682  14.412   9.155
 5811POPC   GL1 6565  44.661  14.432   8.855
 5811POPC   GL2 6566  44.526  14.406   8.855
 5811POPC   C1A 6567  44.679  14.410   8.555
 5811POPC   D2A 6568  44.664  14.425   8.255
 5811POPC   C3A 6569  44.631  14.415   7.955
 5811POPC   C4A 6570  44.637  14.362   7.655
 5811POPC   C1B 6571  44.410  14.361   8.555
 5811POPC   C2B 6572  44.462  14.335   8.255
 5811POPC   C3B 6573  44.401  14.316   7.955
 5811POPC   C4B 6574  44.451  14.352   7.655
 5812POPC   NC3 6575  11.329  26.021   9.455
 5812POPC   PO4 6576  11.309  26.079   9.155
 5812POPC   GL1 6577  11.252  26.069   8.855
 5812POPC   GL2 6578  11.470  26.009   8.855
 5812POPC   C1A 6579  11.292  26.014   8.555
 5812POPC   D2A 6580  11.273  26.030   8.255
 5812POPC   C3A 6581  11.253  26.075   7.955
 5812POPC   C4A 6582  11.321  26.067   7.655
 5812POPC   C1B 6583  11.590  26.041   8.555
 5812POPC   C2B 6584  11.551  26.046   8.255
 5812POPC   C3B 6585  11.566  26.015   7.955
 5812POPC   C4B 6586  11.594  26.081   7.655
 5813POPC   NC3 6587  26.053  31.515   9.455
 5813POPC   PO4 6588  26.034  31.447   9.155
 5813POPC   GL1 6589  26.054  31.489   8.855
 5813POPC   GL2 6590  26.140  31.399   8.855
 5813POPC   C1A 6591  26.024  31.512   8.555
 5813POPC   D2A 6592  25.997  31.466   8.255
 5813POPC   C3A 6593  26.012  31.459   7.955
 5813POPC   C4A 6594  26.077  31.464   7.655
 5813POPC   C1B 6595  26.288  31.309   8.555
 5813POPC   C2B 6596  26.267  31.321   8.255
 5813POPC   C3B 6597  26.197  31.370   7.955
 5813POPC   C4B 6598  26.261  31.319   7.655
 5814POPC   NC3 6599  35.401  19.021   9.455
 5814POPC   PO4 6600  35.319  19.046   9.155
 5814POPC   GL1 6601  35.325  19.022   8.855
 5814POPC   GL2 6602  35.373  19.151   8.855
 5814POPC   C1A 6603  35.401  19.049   8.555
 5814POPC   D2A 6604  35.310  19.023   8.255
 5814POPC   C3A 6605  35.349  19.072   7.955
 5814POPC   C4A 6606  35.377  19.086   7.655
 5814POPC   C1B 6607  35.443  19.257   8.555
 5814POPC   C2B 6608  35.468  19.315   8.255
 5814POPC   C3B 6609  35.434  19.301   7.955
 5814POPC   C4B 6610  35.467  19.265   7.655
 5815POPC   NC3 6611  15.165  10.511   9.455
 5815POPC   PO4 6612  15.209  10.531   9.155
 5815POPC   GL1 6613  15.172  10.533   8.855
 5815POPC   GL2 6614  15.068  10.527   8.855
 5815POPC   C1A 6615  15.137  10.477   8.555
 5815POPC   D2A 6616  15.163  10.490   8.255
 5815POPC   C3A 6617  15.133  10.536   7.955
 5815POPC   C4A 6618  15.140  10.553   7.655
 5815POPC   C1B 6619  14.894  10.555   8.555
 5815POPC   C2B 6620  14.960  10.518   8.255
 5815POPC   C3B 6621  14.892  10.547   7.955
 5815POPC   C4B 6622  14.974  10.509   7.655
 5816POPC   NC3 6623  37.682  25.232   9.455
 5816POPC   PO4 6624  37.705  25.225   9.155
 5816POPC   GL1 6625  37.640  25.217   8.855
 5816POPC   GL2 6626  37.636  25.092   8.855
 5816POPC   C1A 6627  37.728  25.235   8.555
 5816POPC   D2A 6628  37.660  25.222   8.255
 5816POPC   C3A 6629  37.650  25.231   7.955
 5816POPC   C4A 6630  37.634  25.260   7.655
 5816POPC   C1B 6631  37.657  25.061   8.555
 5816POPC   C2B 6632  37.657  25.029   8.255
 5816POPC   C3B 6633  37.653  25.022   7.955
 5816POPC   C4B 6634  37.641  25.039   7.655
 5817POPC   NC3 6635  39.239  11.296   9.455
 5817POPC   PO4 6636  39.223  11.348   9.155
 5817POPC   GL1 6637  39.221  11.318   8.855
 5817POPC   GL2 6638  39.273  11.387   8.855
 5817POPC   C1A 6639  39.252  11.279   8.555
 5817POPC   D2A 6640  39.274  11.307   8.255
 5817POPC   C3A 6641  39.242  11.335   7.955
 5817POPC   C4A 6642  39.213  11.268   7.655
 5817POPC   C1B 6643  39.333  11.553   8.555
 5817POPC   C2B 6644  39.409  11.508   8.255
 5817POPC   C3B 6645  39.328  11.484   7.955
 5817POPC   C4B 6646  39.364  11.553   7.655
 5818POPC   NC3 6647  30.658  20.629   9.455
 5818POPC   PO4 6648  30.741  20.606   9.155
 5818POPC   GL1 6649  30.729  20.655   8.855
 5818POPC   GL2 6650  30.805  20.582   8.855
 5818POPC   C1A 6651  30.648  20.642   8.555
 5818POPC   D2A 6652  30.653  20.561   8.255
 5818POPC   C3A 6653  30.734  20.583   7.955
 5818POPC   C4A 6654  30.655  20.623   7.655
 5818POPC   C1B 6655  30.909  20.671   8.555
 5818POPC   C2B 6656  30.924  20.670   8.255
 5818POPC   C3B 6657  30.948  20.635   7.955
 5818POPC   C4B 6658  30.964  20.614   7.655
 5819POPC   NC3 6659  19.056  30.652   9.455
 5819POPC   PO4 6660  19.060  30.678   9.155
 5819POPC   GL1 6661  19.108  30.735   8.855
 5819POPC   GL2 6662  19.119  30.569   8.855
 5819POPC   C1A 6663  19.096  30.726   8.555
 5819POPC   D2A 6664  19.012  30.735   8.255
 5819POPC   C3A 6665  19.025  30.738   7.955
 5819POPC   C4A 6666  19.104  30.718   7.655
 5819POPC   C1B 6667  19.117  30.445   8.555
 5819POPC   C2B 6668  19.077  30.417   8.255
 5819POPC   C3B 6669  19.098  30.458   7.955
 5819POPC   C4B 6670  19.115  30.479   7.655
 5820POPC   NC3 6671  14.413  40.817   9.455
 5820POPC   PO4 6672  14.410  40.748   9.155
 5820POPC   GL1 6673  14.417  40.828   8.855
 5820POPC   GL2 6674  14.541  40.896   8.855
 5820POPC   C1A 6675  14.429  40.747   8.555
 5820POPC   D2A 6676  14.449  40.787   8.255
 5820POPC   C3A 6677  14.355  40.814   7.955
 5820POPC   C4A 6678  14.421  40.766   7.655
 5820POPC   C1B 6679  14.593  40.951   8.555
 5820POPC   C2B 6680  14.564  40.954   8.255
 5820POPC   C3B 6681  14.582  40.935   7.955
 5820POPC   C4B 6682  14.565  40.965   7.655
 5821POPC   NC3 6683  10.526  41.512   9.455
 5821POPC   PO4 6684  10.543  41.533   9.155
 5821POPC   GL1 6685  10.534  41.575   8.855
 5821POPC   GL2 6686  10.437  41.524   8.855
 5821POPC   C1A 6687  10.521  41.565   8.555
 5821POPC   D2A 6688  10.483  41.532   8.255
 5821POPC   C3A 6689  10.504  41.552   7.955
 5821POPC   C4A 6690  10.560  41.519   7.655
 5821POPC   C1B 6691  10.312  41.545   8.555
 5821POPC   C2B 6692  10.277  41.555   8.255
 5821POPC   C3B 6693  10.241  41.527   7.955
 5821POPC   C4B 6694  10.226  41.533   7.655
 5822POPC   NC3 6695  19.039  25.245   9.455
 5822POPC   PO4 6696  19.079  25.237   9.155
 5822POPC   GL1 6697  19.024  25.239   8.855
 5822POPC   GL2 6698  19.026  25.189   8.855
 5822POPC   C1A 6699  19.082  25.310   8.555
 5822POPC   D2A 6700  19.101  25.282   8.255
 5822POPC   C3A 6701  19.090  25.293   7.955
 5822POPC   C4A 6702  19.071  25.254   7.655
 5822POPC   C1B 6703  19.054  25.011   8.555
 5822POPC   C2B 6704  19.142  25.054   8.255
 5822POPC   C3B 6705  19.115  24.990   7.955
 5822POPC   C4B 6706  19.045  25.023   7.655
 5823POPC   NC3 6707  26.787  38.436   9.455
 5823POPC   PO4 6708  26.819  38.409   9.155
 5823POPC   GL1 6709  26.844  38.448   8.855
 5823POPC   GL2 6710  26.716  38.572   8.855
 5823POPC   C1A 6711  26.793  38.420   8.555
 5823POPC   D2A 6712  26.820  38.460   8.255
 5823POPC   C3A 6713  26.799  38.427   7.955
 5823POPC   C4A 6714  26.770  38.464   7.655
 5823POPC   C1B 6715  26.573  38.546   8.555
 5823POPC   C2B 6716  26.598  38.570   8.255
 5823POPC   C3B 6717  26.603  38.598   7.955
 5823POPC   C4B 6718  26.624  38.571   7.655
 5824POPC   NC3 6719  19.067  33.776   9.455
 5824POPC   PO4 6720  19.015  33.751   9.155
 5824POPC   GL1 6721  19.074  33.799   8.855
 5824POPC   GL2 6722  18.985  33.704   8.855
 5824POPC   C1A 6723  19.022  33.810   8.555
 5824POPC   D2A 6724  19.099  33.819   8.255
 5824POPC   C3A 6725  19.011  33.828   7.955
 5824POPC   C4A 6726  19.062  33.808   7.655
 5824POPC   C1B 6727  18.959  33.594   8.555
 5824POPC   C2B 6728  18.963  33.539   8.255
 5824POPC   C3B 6729  19.034  33.528   7.955
 5824POPC   C4B 6730  18.998  33.585   7.655
 5825POPC   NC3 6731  32.219   0.453   9.455
 5825POPC   PO4 6732  32.257   0.443   9.155
 5825POPC   GL1 6733  32.199   0.442   8.855
 5825POPC   GL2 6734  32.108   0.331   8.855
 5825POPC   C1A 6735  32.220   0.409   8.555
 5825POPC   D2A 6736  32.251   0.390   8.255
 5825POPC   C3A 6737  32.260   0.479   7.955
 5825POPC   C4A 6738  32.217   0.429   7.655
 5825POPC   C1B 6739  32.018   0.305   8.555
 5825POPC   C2B 6740  32.090   0.261   8.255
 5825POPC   C3B 6741  32.100   0.231   7.955
 5825POPC   C4B 6742  32.093   0.241   7.655
 5826POPC   NC3 6743   9.753   9.758   9.455
 5826POPC   PO4 6744   9.770   9.721   9.155
 5826POPC   GL1 6745   9.710   9.705   8.855
 5826POPC   GL2 6746   9.795   9.645   8.855
 5826POPC   C1A 6747   9.787   9.751   8.555
 5826POPC   D2A 6748   9.749   9.729   8.255
 5826POPC   C3A 6749   9.751   9.792   7.955
 5826POPC   C4A 6750   9.782   9.744   7.655
 5826POPC   C1B 6751   9.827   9.512   8.555
 5826POPC   C2B 6752   9.856   9.518   8.255
 5826POPC   C3B 6753   9.798   9.505   7.955
 5826POPC   C4B 6754   9.848   9.480   7.655
 5827POPC   NC3 6755   6.636  34.531   9.455
 5827POPC   PO4 6756   6.650  34.564   9.155
 5827POPC   GL1 6757   6.646  34.578   8.855
 5827POPC   GL2 6758   6.493  34.597   8.855
 5827POPC   C1A 6759   6.642  34.555   8.555
 5827POPC   D2A 6760   6.624  34.555   8.255
 5827POPC   C3A 6761   6.639  34.601   7.955
 5827POPC   C4A 6762   6.645  34.588   7.655
 5827POPC   C1B 6763   6.413  34.566   8.555
 5827POPC   C2B 6764   6.419  34.601   8.255
 5827POPC   C3B 6765   6.416  34.602   7.955
 5827POPC   C4B 6766   6.409  34.581   7.655
 5828POPC   NC3 6767  39.190  35.386   9.455
 5828POPC   PO4 6768  39.237  35.342   9.155
 5828POPC   GL1 6769  39.239  35.306   8.855
 5828POPC   GL2 6770  39.252  35.446   8.855
 5828POPC   C1A 6771  39.219  35.367   8.555
 5828POPC   D2A 6772  39.253  35.303   8.255
 5828POPC   C3A 6773  39.183  35.395   7.955
 5828POPC   C4A 6774  39.203  35.311   7.655
 5828POPC   C1B 6775  39.397  35.556   8.555
 5828POPC   C2B 6776  39.312  35.547   8.255
 5828POPC   C3B 6777  39.319  35.557   7.955
 5828POPC   C4B 6778  39.368  35.597   7.655
 5829POPC   NC3 6779   2.754  16.760   9.455
 5829POPC   PO4 6780   2.789  16.738   9.155
 5829POPC   GL1 6781   2.743  16.693   8.855
 5829POPC   GL2 6782   2.844  16.789   8.855
 5829POPC   C1A 6783   2.781  16.686   8.555
 5829POPC   D2A 6784   2.798  16.717   8.255
 5829POPC   C3A 6785   2.734  16.686   7.955
 5829POPC   C4A 6786   2.748  16.728   7.655
 5829POPC   C1B 6787   2.903  16.905   8.555
 5829POPC   C2B 6788   2.874  16.891   8.255
 5829POPC   C3B 6789   2.941  16.902   7.955
 5829POPC   C4B 6790   2.950  16.891   7.655
 5830POPC   NC3 6791  18.266  12.030   9.455
 5830POPC   PO4 6792  18.276  12.118   9.155
 5830POPC   GL1 6793  18.270  12.044   8.855
 5830POPC   GL2 6794  18.150  12.103   8.855
 5830POPC   C1A 6795  18.257  12.026   8.555
 5830POPC   D2A 6796  18.283  12.118   8.255
 5830POPC   C3A 6797  18.294  12.076   7.955
 5830POPC   C4A 6798  18.315  12.093   7.655
 5830POPC   C1B 6799  18.027  12.133   8.555
 5830POPC   C2B 6800  18.023  12.098   8.255
 5830POPC   C3B 6801  18.083  12.186   7.955
 5830POPC   C4B 6802  18.007  12.099   7.655
 5831POPC   NC3 6803  44.700   7.469   9.455
 5831POPC   PO4 6804  44.642   7.456   9.155
 5831POPC   GL1 6805  44.633   7.429   8.855
 5831POPC   GL2 6806  44.667   7.313   8.855
 5831POPC   C1A 6807  44.677   7.459   8.555
 5831POPC   D2A 6808  44.694   7.456   8.255
 5831POPC   C3A 6809  44.674   7.415   7.955
 5831POPC   C4A 6810  44.636   7.390   7.655
 5831POPC   C1B 6811  44.557   7.169   8.555
 5831POPC   C2B 6812  44.642   7.185   8.255
 5831POPC   C3B 6813  44.622   7.171   7.955
 5831POPC   C4B 6814  44.617   7.132   7.655
 5832POPC   NC3 6815  33.777  43.114   9.455
 5832POPC   PO4 6816  33.801  43.082   9.155
 5832POPC   GL1 6817  33.837  43.120   8.855
 5832POPC   GL2 6818  33.927  43.201   8.855
 5832POPC   C1A 6819  33.818  43.160   8.555
 5832POPC   D2A 6820  33.831  43.143   8.255
 5832POPC   C3A 6821  33.800  43.131   7.955
 5832POPC   C4A 6822  33.826  43.143   7.655
 5832POPC   C1B 6823  33.975  43.336   8.555
 5832POPC   C2B 6824  33.916  43.290   8.255
 5832POPC   C3B 6825  33.982  43.262   7.955
 5832POPC   C4B 6826  33.950  43.304   7.655
 5833POPC   NC3 6827  13.677  12.893   9.455
 5833POPC   PO4 6828  13.614  12.814   9.155
 5833POPC   GL1 6829  13.619  12.886   8.855
 5833POPC   GL2 6830  13.648  12.767   8.855
 5833POPC   C1A 6831  13.671  12.849   8.555
 5833POPC   D2A 6832  13.652  12.888   8.255
 5833POPC   C3A 6833  13.583  12.830   7.955
 5833POPC   C4A 6834  13.586  12.811   7.655
 5833POPC   C1B 6835  13.723  12.631   8.555
 5833POPC   C2B 6836  13.696  12.629   8.255
 5833POPC   C3B 6837  13.734  12.596   7.955
 5833POPC   C4B 6838  13.664  12.657   7.655
 5834POPC   NC3 6839  36.164  23.705   9.455
 5834POPC   PO4 6840  36.154  23.749   9.155
 5834POPC   GL1 6841  36.118  23.700   8.855
 5834POPC   GL2 6842  36.273  23.786   8.855
 5834POPC   C1A 6843  36.120  23.682   8.555
 5834POPC   D2A 6844  36.145  23.694   8.255
 5834POPC   C3A 6845  36.081  23.703   7.955
 5834POPC   C4A 6846  36.147  23.734   7.655
 5834POPC   C1B 6847  36.357  23.724   8.555
 5834POPC   C2B 6848  36.336  23.728   8.255
 5834POPC   C3B 6849  36.409  23.782   7.955
 5834POPC   C4B 6850  36.367  23.767   7.655
 5835POPC   NC3 6851  20.593  41.564   9.455
 5835POPC   PO4 6852  20.564  41.604   9.155
 5835POPC   GL1 6853  20.650  41.514   8.855
 5835POPC   GL2 6854  20.642  41.469   8.855
 5835POPC   C1A 6855  20.582  41.581   8.555
 5835POPC   D2A 6856  20.594  41.559   8.255
 5835POPC   C3A 6857  20.574  41.537   7.955
 5835POPC   C4A 6858  20.592  41.548   7.655
 5835POPC   C1B 6859  20.725  41.371   8.555
 5835POPC   C2B 6860  20.763  41.313   8.255
 5835POPC   C3B 6861  20.725  41.380   7.955
 5835POPC   C4B 6862  20.696  41.372   7.655
 5836POPC   NC3 6863   3.575  33.048   9.455
 5836POPC   PO4 6864   3.563  32.988   9.155
 5836POPC   GL1 6865   3.555  33.062   8.855
 5836POPC   GL2 6866   3.617  33.086   8.855
 5836POPC   C1A 6867   3.524  33.007   8.555
 5836POPC   D2A 6868   3.559  33.066   8.255
 5836POPC   C3A 6869   3.590  33.006   7.955
 5836POPC   C4A 6870   3.493  32.980   7.655
 5836POPC   C1B 6871   3.649  33.263   8.555
 5836POPC   C2B 6872   3.671  33.266   8.255
 5836POPC   C3B 6873   3.648  33.231   7.955
 5836POPC   C4B 6874   3.705  33.235   7.655
 5837POPC   NC3 6875   9.787  12.038   9.455
 5837POPC   PO4 6876   9.722  12.058   9.155
 5837POPC   GL1 6877   9.712  12.032   8.855
 5837POPC   GL2 6878   9.650  12.178   8.855
 5837POPC   C1A 6879   9.788  12.031   8.555
 5837POPC   D2A 6880   9.727  12.031   8.255
 5837POPC   C3A 6881   9.746  12.110   7.955
 5837POPC   C4A 6882   9.756  12.090   7.655
 5837POPC   C1B 6883   9.648  12.288   8.555
 5837POPC   C2B 6884   9.664  12.305   8.255
 5837POPC   C3B 6885   9.594  12.292   7.955
 5837POPC   C4B 6886   9.617  12.330   7.655
 5838POPC   NC3 6887  18.309  42.327   9.455
 5838POPC   PO4 6888  18.278  42.297   9.155
 5838POPC   GL1 6889  18.254  42.327   8.855
 5838POPC   GL2 6890  18.362  42.239   8.855
 5838POPC   C1A 6891  18.278  42.314   8.555
 5838POPC   D2A 6892  18.254  42.314   8.255
 5838POPC   C3A 6893  18.314  42.302   7.955
 5838POPC   C4A 6894  18.247  42.351   7.655
 5838POPC   C1B 6895  18.354  42.133   8.555
 5838POPC   C2B 6896  18.397  42.088   8.255
 5838POPC   C3B 6897  18.389  42.049   7.955
 5838POPC   C4B 6898  18.331  42.101   7.655
 5839POPC   NC3 6899  23.716  23.710   9.455
 5839POPC   PO4 6900  23.753  23.665   9.155
 5839POPC   GL1 6901  23.737  23.712   8.855
 5839POPC   GL2 6902  23.645  23.598   8.855
 5839POPC   C1A 6903  23.715  23.671   8.555
 5839POPC   D2A 6904  23.755  23.749   8.255
 5839POPC   C3A 6905  23.686  23.673   7.955
 5839POPC   C4A 6906  23.691  23.666   7.655
 5839POPC   C1B 6907  23.576  23.488   8.555
 5839POPC   C2B 6908  23.571  23.497   8.255
 5839POPC   C3B 6909  23.535  23.482   7.955
 5839POPC   C4B 6910  23.539  23.514   7.655
 5840POPC   NC3 6911   3.548  38.453   9.455
 5840POPC   PO4 6912   3.517  38.489   9.155
 5840POPC   GL1 6913   3.529  38.474   8.855
 5840POPC   GL2 6914   3.444  38.531   8.855
 5840POPC   C1A 6915   3.552  38.464   8.555
 5840POPC   D2A 6916   3.498  38.474   8.255
 5840POPC   C3A 6917   3.580  38.417   7.955
 5840POPC   C4A 6918   3.494  38.419   7.655
 5840POPC   C1B 6919   3.346  38.610   8.555
 5840POPC   C2B 6920   3.425  38.601   8.255
 5840POPC   C3B 6921   3.405  38.635   7.955
 5840POPC   C4B 6922   3.363  38.616   7.655
 5841POPC   NC3 6923  43.901  36.105   9.455
 5841POPC   PO4 6924  43.885  36.085   9.155
 5841POPC   GL1 6925  43.850  36.143   8.855
 5841POPC   GL2 6926  43.826  36.279   8.855
 5841POPC   C1A 6927  43.905  36.175   8.555
 5841POPC   D2A 6928  43.884  36.086   8.255
 5841POPC   C3A 6929  43.931  36.148   7.955
 5841POPC   C4A 6930  43.918  36.138   7.655
 5841POPC   C1B 6931  43.786  36.326   8.555
 5841POPC   C2B 6932  43.787  36.371   8.255
 5841POPC   C3B 6933  43.812  36.370   7.955
 5841POPC   C4B 6934  43.825  36.344   7.655
 5842POPC   NC3 6935   3.523  31.443   9.455
 5842POPC   PO4 6936   3.588  31.476   9.155
 5842POPC   GL1 6937   3.534  31.469   8.855
 5842POPC   GL2 6938   3.537  31.623   8.855
 5842POPC   C1A 6939   3.524  31.487   8.555
 5842POPC   D2A 6940   3.536  31.499   8.255
 5842POPC   C3A 6941   3.566  31.501   7.955
 5842POPC   C4A 6942   3.587  31.454   7.655
 5842POPC   C1B 6943   3.489  31.734   8.555
 5842POPC   C2B 6944   3.448  31.716   8.255
 5842POPC   C3B 6945   3.447  31.675   7.955
 5842POPC   C4B 6946   3.448  31.674   7.655
 5843POPC   NC3 6947   9.753  29.127   9.455
 5843POPC   PO4 6948   9.780  29.183   9.155
 5843POPC   GL1 6949   9.719  29.126   8.855
 5843POPC   GL2 6950   9.833  29.133   8.855
 5843POPC   C1A 6951   9.736  29.133   8.555
 5843POPC   D2A 6952   9.720  29.153   8.255
 5843POPC   C3A 6953   9.759  29.163   7.955
 5843POPC   C4A 6954   9.711  29.195   7.655
 5843POPC   C1B 6955   9.975  29.160   8.555
 5843POPC   C2B 6956  10.036  29.169   8.255
 5843POPC   C3B 6957   9.956  29.145   7.955
 5843POPC   C4B 6958  10.047  29.124   7.655
 5844POPC   NC3 6959   7.433  43.933   9.455
 5844POPC   PO4 6960   7.461  43.890   9.155
 5844POPC   GL1 6961   7.377  43.914   8.855
 5844POPC   GL2 6962   7.532  43.828   8.855
 5844POPC   C1A 6963   7.446  43.914   8.555
 5844POPC   D2A 6964   7.421  43.874   8.255
 5844POPC   C3A 6965   7.453  43.895   7.955
 5844POPC   C4A 6966   7.449  43.885   7.655
 5844POPC   C1B 6967   7.584  43.718   8.555
 5844POPC   C2B 6968   7.641  43.767   8.255
 5844POPC   C3B 6969   7.586  43.771   7.955
 5844POPC   C4B 6970   7.616  43.766   7.655
 5845POPC   NC3 6971   9.732   4.298   9.455
 5845POPC   PO4 6972   9.772   4.290   9.155
 5845POPC   GL1 6973   9.733   4.325   8.855
 5845POPC   GL2 6974   9.699   4.465   8.855
 5845POPC   C1A 6975   9.701   4.342   8.555
 5845POPC   D2A 6976   9.763   4.300   8.255
 5845POPC   C3A 6977   9.760   4.335   7.955
 5845POPC   C4A 6978   9.739   4.365   7.655
 5845POPC   C1B 6979   9.642   4.554   8.555
 5845POPC   C2B 6980   9.690   4.594   8.255
 5845POPC   C3B 6981   9.620   4.513   7.955
 5845POPC   C4B 6982   9.701   4.579   7.655
 5846POPC   NC3 6983  11.293   1.221   9.455
 5846POPC   PO4 6984  11.274   1.264   9.155
 5846POPC   GL1 6985  11.323   1.196   8.855
 5846POPC   GL2 6986  11.399   1.143   8.855
 5846POPC   C1A 6987  11.344   1.219   8.555
 5846POPC   D2A 6988  11.272   1.200   8.255
 5846POPC   C3A 6989  11.305   1.230   7.955
 5846POPC   C4A 6990  11.308   1.222   7.655
 5846POPC   C1B 6991  11.567   1.120   8.555
 5846POPC   C2B 6992  11.521   1.122   8.255
 5846POPC   C3B 6993  11.581   1.095   7.955
 5846POPC   C4B 6994  11.519   1.152   7.655
 5847POPC   NC3 6995  36.933  34.539   9.455
 5847POPC   PO4 6996  36.930  34.590   9.155
 5847POPC   GL1 6997  36.904  34.575   8.855
 5847POPC   GL2 6998  36.826  34.519   8.855
 5847POPC   C1A 6999  36.877  34.577   8.555
 5847POPC   D2A 7000  36.909  34.558   8.255
 5847POPC   C3A 7001  36.927  34.619   7.955
 5847POPC   C4A 7002  36.942  34.602   7.655
 5847POPC   C1B 7003  36.677  34.538   8.555
 5847POPC   C2B 7004  36.628  34.493   8.255
 5847POPC   C3B 7005  36.683  34.467   7.955
 5847POPC   C4B 7006  36.643  34.478   7.655
 5848POPC   NC3 7007  17.466  43.886   9.455
 5848POPC   PO4 7008  17.459  43.843   9.155
 5848POPC   GL1 7009  17.537  43.908   8.855
 5848POPC   GL2 7010  17.393  43.873   8.855
 5848POPC   C1A 7011  17.514  43.843   8.555
 5848POPC   D2A 7012  17.486  43.897   8.255
 5848POPC   C3A 7013  17.466  43.848   7.955
 5848POPC   C4A 7014  17.550  43.924   7.655
 5848POPC   C1B 7015  17.284  43.758   8.555
 5848POPC   C2B 7016  17.316  43.836   8.255
 5848POPC   C3B 7017  17.323  43.741   7.955
 5848POPC   C4B 7018  17.322  43.810   7.655
 5849POPC   NC3 7019  43.069  32.251   9.455
 5849POPC   PO4 7020  43.121  32.278   9.155
 5849POPC   GL1 7021  43.091  32.222   8.855
 5849POPC   GL2 7022  43.186  32.261   8.855
 5849POPC   C1A 7023  43.085  32.268   8.555
 5849POPC   D2A 7024  43.092  32.202   8.255
 5849POPC   C3A 7025  43.131  32.252   7.955
 5849POPC   C4A 7026  43.082  32.231   7.655
 5849POPC   C1B 7027  43.314  32.215   8.555
 5849POPC   C2B 7028  43.394  32.173   8.255
 5849POPC   C3B 7029  43.384  32.226   7.955
 5849POPC   C4B 7030  43.404  32.183   7.655
 5850POPC   NC3 7031  26.817  25.278   9.455
 5850POPC   PO4 7032  26.815  25.224   9.155
 5850POPC   GL1 7033  26.782  25.221   8.855
 5850POPC   GL2 7034  26.803  25.154   8.855
 5850POPC   C1A 7035  26.847  25.280   8.555
 5850POPC   D2A 7036  26.822  25.224   8.255
 5850POPC   C3A 7037  26.828  25.228   7.955
 5850POPC   C4A 7038  26.836  25.301   7.655
 5850POPC   C1B 7039  26.728  25.033   8.555
 5850POPC   C2B 7040  26.697  25.041   8.255
 5850POPC   C3B 7041  26.778  25.026   7.955
 5850POPC   C4B 7042  26.785  25.033   7.655
 5851POPC   NC3 7043  12.118  22.889   9.455
 5851POPC   PO4 7044  12.101  22.972   9.155
 5851POPC   GL1 7045  12.034  22.934   8.855
 5851POPC   GL2 7046  12.151  22.993   8.855
 5851POPC   C1A 7047  12.036  22.921   8.555
 5851POPC   D2A 7048  12.074  22.960   8.255
 5851POPC   C3A 7049  12.052  22.975   7.955
 5851POPC   C4A 7050  12.108  22.953   7.655
 5851POPC   C1B 7051  12.348  22.963   8.555
 5851POPC   C2B 7052  12.296  23.024   8.255
 5851POPC   C3B 7053  12.274  22.947   7.955
 5851POPC   C4B 7054  12.334  23.001   7.655
 5852POPC   NC3 7055  21.425  12.047   9.455
 5852POPC   PO4 7056  21.401  12.078   9.155
 5852POPC   GL1 7057  21.408  12.070   8.855
 5852POPC   GL2 7058  21.442  12.020   8.855
 5852POPC   C1A 7059  21.349  12.059   8.555
 5852POPC   D2A 7060  21.400  12.027   8.255
 5852POPC   C3A 7061  21.365  12.053   7.955
 5852POPC   C4A 7062  21.398  12.043   7.655
 5852POPC   C1B 7063  21.597  11.957   8.555
 5852POPC   C2B 7064  21.577  11.887   8.255
 5852POPC   C3B 7065  21.557  11.937   7.955
 5852POPC   C4B 7066  21.622  11.923   7.655
 5853POPC   NC3 7067   4.321  20.657   9.455
 5853POPC   PO4 7068   4.290  20.595   9.155
 5853POPC   GL1 7069   4.340  20.565   8.855
 5853POPC   GL2 7070   4.435  20.642   8.855
 5853POPC   C1A 7071   4.313  20.569   8.555
 5853POPC   D2A 7072   4.345  20.565   8.255
 5853POPC   C3A 7073   4.310  20.589   7.955
 5853POPC   C4A 7074   4.275  20.645   7.655
 5853POPC   C1B 7075   4.526  20.635   8.555
 5853POPC   C2B 7076   4.598  20.610   8.255
 5853POPC   C3B 7077   4.603  20.608   7.955
 5853POPC   C4B 7078   4.536  20.678   7.655
 5854POPC   NC3 7079  16.719  40.773   9.455
 5854POPC   PO4 7080  16.763  40.743   9.155
 5854POPC   GL1 7081  16.738  40.756   8.855
 5854POPC   GL2 7082  16.890  40.816   8.855
 5854POPC   C1A 7083  16.727  40.793   8.555
 5854POPC   D2A 7084  16.780  40.797   8.255
 5854POPC   C3A 7085  16.762  40.739   7.955
 5854POPC   C4A 7086  16.733  40.788   7.655
 5854POPC   C1B 7087  16.948  40.818   8.555
 5854POPC   C2B 7088  16.960  40.787   8.255
 5854POPC   C3B 7089  16.979  40.853   7.955
 5854POPC   C4B 7090  16.935  40.800   7.655
 5855POPC   NC3 7091  36.907  36.118   9.455
 5855POPC   PO4 7092  36.900  36.085   9.155
 5855POPC   GL1 7093  36.895  36.160   8.855
 5855POPC   GL2 7094  36.910  36.007   8.855
 5855POPC   C1A 7095  36.907  36.127   8.555
 5855POPC   D2A 7096  36.911  36.128   8.255
 5855POPC   C3A 7097  36.884  36.078   7.955
 5855POPC   C4A 7098  36.953  36.087   7.655
 5855POPC   C1B 7099  36.811  35.849   8.555
 5855POPC   C2B 7100  36.885  35.844   8.255
 5855POPC   C3B 7101  36.888  35.934   7.955
 5855POPC   C4B 7102  36.859  35.918   7.655
 5856POPC   NC3 7103  36.878  25.237   9.455
 5856POPC   PO4 7104  36.856  25.269   9.155
 5856POPC   GL1 7105  36.934  25.248   8.855
 5856POPC   GL2 7106  36.829  25.244   8.855
 5856POPC   C1A 7107  36.888  25.228   8.555
 5856POPC   D2A 7108  36.939  25.271   8.255
 5856POPC   C3A 7109  36.864  25.288   7.955
 5856POPC   C4A 7110  36.857  25.217   7.655
 5856POPC   C1B 7111  36.694  25.204   8.555
 5856POPC   C2B 7112  36.696  25.163   8.255
 5856POPC   C3B 7113  36.693  25.138   7.955
 5856POPC   C4B 7114  36.699  25.182   7.655
 5857POPC   NC3 7115  40.050  19.875   9.455
 5857POPC   PO4 7116  40.009  19.879   9.155
 5857POPC   GL1 7117  39.998  19.821   8.855
 5857POPC   GL2 7118  39.883  19.841   8.855
 5857POPC   C1A 7119  40.027  19.845   8.555
 5857POPC   D2A 7120  40.045  19.792   8.255
 5857POPC   C3A 7121  40.047  19.817   7.955
 5857POPC   C4A 7122  39.997  19.838   7.655
 5857POPC   C1B 7123  39.794  19.740   8.555
 5857POPC   C2B 7124  39.742  19.764   8.255
 5857POPC   C3B 7125  39.794  19.819   7.955
 5857POPC   C4B 7126  39.796  19.758   7.655
 5858POPC   NC3 7127  40.036  21.386   9.455
 5858POPC   PO4 7128  40.034  21.355   9.155
 5858POPC   GL1 7129  40.012  21.428   8.855
 5858POPC   GL2 7130  40.116  21.512   8.855
 5858POPC   C1A 7131  40.012  21.382   8.555
 5858POPC   D2A 7132  39.984  21.405   8.255
 5858POPC   C3A 7133  40.042  21.409   7.955
 5858POPC   C4A 7134  39.996  21.424   7.655
 5858POPC   C1B 7135  40.210  21.531   8.555
 5858POPC   C2B 7136  40.130  21.531   8.255
 5858POPC   C3B 7137  40.129  21.566   7.955
 5858POPC   C4B 7138  40.200  21.627   7.655
 5859POPC   NC3 7139  10.531   5.117   9.455
 5859POPC   PO4 7140  10.483   5.043   9.155
 5859POPC   GL1 7141  10.486   5.132   8.855
 5859POPC   GL2 7142  10.583   4.979   8.855
 5859POPC   C1A 7143  10.563   5.086   8.555
 5859POPC   D2A 7144  10.554   5.110   8.255
 5859POPC   C3A 7145  10.506   5.065   7.955
 5859POPC   C4A 7146  10.481   5.101   7.655
 5859POPC   C1B 7147  10.667   4.903   8.555
 5859POPC   C2B 7148  10.605   4.867   8.255
 5859POPC   C3B 7149  10.654   4.909   7.955
 5859POPC   C4B 7150  10.615   4.911   7.655
 5860POPC   NC3 7151  20.580  33.805   9.455
 5860POPC   PO4 7152  20.588  33.786   9.155
 5860POPC   GL1 7153  20.597  33.774   8.855
 5860POPC   GL2 7154  20.693  33.852   8.855
 5860POPC   C1A 7155  20.583  33.811   8.555
 5860POPC   D2A 7156  20.601  33.836   8.255
 5860POPC   C3A 7157  20.609  33.769   7.955
 5860POPC   C4A 7158  20.634  33.763   7.655
 5860POPC   C1B 7159  20.752  33.951   8.555
 5860POPC   C2B 7160  20.773  33.983   8.255
 5860POPC   C3B 7161  20.795  33.998   7.955
 5860POPC   C4B 7162  20.804  33.933   7.655
 5861POPC   NC3 7163  20.584  35.306   9.455
 5861POPC   PO4 7164  20.566  35.370   9.155
 5861POPC   GL1 7165  20.580  35.390   8.855
 5861POPC   GL2 7166  20.652  35.510   8.855
 5861POPC   C1A 7167  20.651  35.321   8.555
 5861POPC   D2A 7168  20.593  35.329   8.255
 5861POPC   C3A 7169  20.566  35.375   7.955
 5861POPC   C4A 7170  20.628  35.383   7.655
 5861POPC   C1B 7171  20.648  35.575   8.555
 5861POPC   C2B 7172  20.701  35.588   8.255
 5861POPC   C3B 7173  20.688  35.558   7.955
 5861POPC   C4B 7174  20.637  35.613   7.655
 5862POPC   NC3 7175  19.840  43.115   9.455
 5862POPC   PO4 7176  19.843  43.075   9.155
 5862POPC   GL1 7177  19.797  43.092   8.855
 5862POPC   GL2 7178  19.700  43.237   8.855
 5862POPC   C1A 7179  19.833  43.101   8.555
 5862POPC   D2A 7180  19.796  43.082   8.255
 5862POPC   C3A 7181  19.866  43.143   7.955
 5862POPC   C4A 7182  19.791  43.108   7.655
 5862POPC   C1B 7183  19.663  43.328   8.555
 5862POPC   C2B 7184  19.664  43.306   8.255
 5862POPC   C3B 7185  19.700  43.301   7.955
 5862POPC   C4B 7186  19.615  43.286   7.655
 5863POPC   NC3 7187   4.328  22.161   9.455
 5863POPC   PO4 7188   4.320  22.113   9.155
 5863POPC   GL1 7189   4.342  22.176   8.855
 5863POPC   GL2 7190   4.168  22.238   8.855
 5863POPC   C1A 7191   4.328  22.186   8.555
 5863POPC   D2A 7192   4.353  22.156   8.255
 5863POPC   C3A 7193   4.290  22.116   7.955
 5863POPC   C4A 7194   4.337  22.133   7.655
 5863POPC   C1B 7195   4.136  22.269   8.555
 5863POPC   C2B 7196   4.158  22.336   8.255
 5863POPC   C3B 7197   4.117  22.278   7.955
 5863POPC   C4B 7198   4.095  22.302   7.655
 5864POPC   NC3 7199   3.561  34.612   9.455
 5864POPC   PO4 7200   3.525  34.593   9.155
 5864POPC   GL1 7201   3.568  34.533   8.855
 5864POPC   GL2 7202   3.480  34.476   8.855
 5864POPC   C1A 7203   3.571  34.570   8.555
 5864POPC   D2A 7204   3.514  34.622   8.255
 5864POPC   C3A 7205   3.575  34.579   7.955
 5864POPC   C4A 7206   3.575  34.556   7.655
 5864POPC   C1B 7207   3.401  34.372   8.555
 5864POPC   C2B 7208   3.463  34.314   8.255
 5864POPC   C3B 7209   3.399  34.363   7.955
 5864POPC   C4B 7210   3.437  34.382   7.655
 5865POPC   NC3 7211  25.306   4.288   9.455
 5865POPC   PO4 7212  25.247   4.329   9.155
 5865POPC   GL1 7213  25.272   4.332   8.855
 5865POPC   GL2 7214  25.228   4.469   8.855
 5865POPC   C1A 7215  25.311   4.271   8.555
 5865POPC   D2A 7216  25.255   4.348   8.255
 5865POPC   C3A 7217  25.245   4.303   7.955
 5865POPC   C4A 7218  25.280   4.351   7.655
 5865POPC   C1B 7219  25.140   4.519   8.555
 5865POPC   C2B 7220  25.161   4.581   8.255
 5865POPC   C3B 7221  25.184   4.557   7.955
 5865POPC   C4B 7222  25.095   4.517   7.655
 5866POPC   NC3 7223  36.084   6.651   9.455
 5866POPC   PO4 7224  36.171   6.678   9.155
 5866POPC   GL1 7225  36.170   6.624   8.855
 5866POPC   GL2 7226  36.053   6.506   8.855
 5866POPC   C1A 7227  36.113   6.613   8.555
 5866POPC   D2A 7228  36.143   6.658   8.255
 5866POPC   C3A 7229  36.097   6.625   7.955
 5866POPC   C4A 7230  36.108   6.684   7.655
 5866POPC   C1B 7231  35.957   6.436   8.555
 5866POPC   C2B 7232  36.000   6.459   8.255
 5866POPC   C3B 7233  36.008   6.462   7.955
 5866POPC   C4B 7234  36.036   6.453   7.655
 5867POPC   NC3 7235  36.906  33.026   9.455
 5867POPC   PO4 7236  36.936  32.993   9.155
 5867POPC   GL1 7237  36.891  33.058   8.855
 5867POPC   GL2 7238  36.900  32.874   8.855
 5867POPC   C1A 7239  36.902  33.053   8.555
 5867POPC   D2A 7240  36.858  33.073   8.255
 5867POPC   C3A 7241  36.940  32.988   7.955
 5867POPC   C4A 7242  36.928  33.030   7.655
 5867POPC   C1B 7243  36.914  32.793   8.555
 5867POPC   C2B 7244  36.915  32.743   8.255
 5867POPC   C3B 7245  36.870  32.786   7.955
 5867POPC   C4B 7246  36.913  32.756   7.655
 5868POPC   NC3 7247  12.058  11.337   9.455
 5868POPC   PO4 7248  12.094  11.263   9.155
 5868POPC   GL1 7249  12.049  11.348   8.855
 5868POPC   GL2 7250  12.176  11.365   8.855
 5868POPC   C1A 7251  12.096  11.287   8.555
 5868POPC   D2A 7252  12.109  11.321   8.255
 5868POPC   C3A 7253  12.123  11.285   7.955
 5868POPC   C4A 7254  12.072  11.321   7.655
 5868POPC   C1B 7255  12.283  11.496   8.555
 5868POPC   C2B 7256  12.242  11.475   8.255
 5868POPC   C3B 7257  12.238  11.464   7.955
 5868POPC   C4B 7258  12.264  11.466   7.655
 5869POPC   NC3 7259   6.638  35.396   9.455
 5869POPC   PO4 7260   6.640  35.365   9.155
 5869POPC   GL1 7261   6.623  35.380   8.855
 5869POPC   GL2 7262   6.720  35.368   8.855
 5869POPC   C1A 7263   6.689  35.319   8.555
 5869POPC   D2A 7264   6.627  35.319   8.255
 5869POPC   C3A 7265   6.652  35.365   7.955
 5869POPC   C4A 7266   6.656  35.396   7.655
 5869POPC   C1B 7267   6.918  35.284   8.555
 5869POPC   C2B 7268   6.846  35.357   8.255
 5869POPC   C3B 7269   6.908  35.294   7.955
 5869POPC   C4B 7270   6.923  35.289   7.655
 5870POPC   NC3 7271   6.666  40.802   9.455
 5870POPC   PO4 7272   6.596  40.795   9.155
 5870POPC   GL1 7273   6.599  40.829   8.855
 5870POPC   GL2 7274   6.753  40.705   8.855
 5870POPC   C1A 7275   6.652  40.827   8.555
 5870POPC   D2A 7276   6.636  40.766   8.255
 5870POPC   C3A 7277   6.630  40.760   7.955
 5870POPC   C4A 7278   6.689  40.813   7.655
 5870POPC   C1B 7279   6.848  40.658   8.555
 5870POPC   C2B 7280   6.891  40.605   8.255
 5870POPC   C3B 7281   6.867  40.684   7.955
 5870POPC   C4B 7282   6.816  40.692   7.655
 5871POPC   NC3 7283  27.553   7.380   9.455
 5871POPC   PO4 7284  27.624   7.402   9.155
 5871POPC   GL1 7285  27.551   7.445   8.855
 5871POPC   GL2 7286  27.528   7.548   8.855
 5871POPC   C1A 7287  27.605   7.388   8.555
 5871POPC   D2A 7288  27.620   7.414   8.255
 5871POPC   C3A 7289  27.570   7.471   7.955
 5871POPC   C4A 7290  27.554   7.444   7.655
 5871POPC   C1B 7291  27.517   7.661   8.555
 5871POPC   C2B 7292  27.530   7.623   8.255
 5871POPC   C3B 7293  27.488   7.644   7.955
 5871POPC   C4B 7294  27.473   7.640   7.655
 5872POPC   NC3 7295  39.223  18.267   9.455
 5872POPC   PO4 7296  39.191  18.244   9.155
 5872POPC   GL1 7297  39.204  18.284   8.855
 5872POPC   GL2 7298  39.135  18.362   8.855
 5872POPC   C1A 7299  39.227  18.310   8.555
 5872POPC   D2A 7300  39.193  18.302   8.255
 5872POPC   C3A 7301  39.269  18.323   7.955
 5872POPC   C4A 7302  39.230  18.330   7.655
 5872POPC   C1B 7303  39.010  18.422   8.555
 5872POPC   C2B 7304  39.067  18.499   8.255
 5872POPC   C3B 7305  39.043  18.484   7.955
 5872POPC   C4B 7306  39.089  18.491   7.655
 5873POPC   NC3 7307  36.931  11.316   9.455
 5873POPC   PO4 7308  36.913  11.275   9.155
 5873POPC   GL1 7309  36.927  11.350   8.855
 5873POPC   GL2 7310  36.801  11.266   8.855
 5873POPC   C1A 7311  36.862  11.347   8.555
 5873POPC   D2A 7312  36.901  11.251   8.255
 5873POPC   C3A 7313  36.885  11.307   7.955
 5873POPC   C4A 7314  36.898  11.320   7.655
 5873POPC   C1B 7315  36.698  11.193   8.555
 5873POPC   C2B 7316  36.658  11.200   8.255
 5873POPC   C3B 7317  36.694  11.215   7.955
 5873POPC   C4B 7318  36.687  11.224   7.655
 5874POPC   NC3 7319  33.065  40.825   9.455
 5874POPC   PO4 7320  33.042  40.816   9.155
 5874POPC   GL1 7321  33.061  40.773   8.855
 5874POPC   GL2 7322  33.058  40.883   8.855
 5874POPC   C1A 7323  33.041  40.748   8.555
 5874POPC   D2A 7324  33.061  40.825   8.255
 5874POPC   C3A 7325  33.067  40.821   7.955
 5874POPC   C4A 7326  33.019  40.741   7.655
 5874POPC   C1B 7327  33.130  40.974   8.555
 5874POPC   C2B 7328  33.165  41.035   8.255
 5874POPC   C3B 7329  33.129  40.958   7.955
 5874POPC   C4B 7330  33.134  40.953   7.655
 5875POPC   NC3 7331  19.072   5.130   9.455
 5875POPC   PO4 7332  19.088   5.116   9.155
 5875POPC   GL1 7333  19.095   5.090   8.855
 5875POPC   GL2 7334  19.136   5.186   8.855
 5875POPC   C1A 7335  19.066   5.137   8.555
 5875POPC   D2A 7336  19.011   5.047   8.255
 5875POPC   C3A 7337  19.072   5.051   7.955
 5875POPC   C4A 7338  19.062   5.135   7.655
 5875POPC   C1B 7339  19.096   5.347   8.555
 5875POPC   C2B 7340  19.097   5.318   8.255
 5875POPC   C3B 7341  19.115   5.369   7.955
 5875POPC   C4B 7342  19.145   5.359   7.655
 5876POPC   NC3 7343  40.018  22.166   9.455
 5876POPC   PO4 7344  40.053  22.119   9.155
 5876POPC   GL1 7345  40.035  22.149   8.855
 5876POPC   GL2 7346  40.028  22.027   8.855
 5876POPC   C1A 7347  39.968  22.201   8.555
 5876POPC   D2A 7348  40.046  22.123   8.255
 5876POPC   C3A 7349  40.028  22.113   7.955
 5876POPC   C4A 7350  40.055  22.195   7.655
 5876POPC   C1B 7351  39.914  21.909   8.555
 5876POPC   C2B 7352  39.921  21.888   8.255
 5876POPC   C3B 7353  39.909  21.885   7.955
 5876POPC   C4B 7354  39.947  21.886   7.655
 5877POPC   NC3 7355   2.746  35.335   9.455
 5877POPC   PO4 7356   2.792  35.400   9.155
 5877POPC   GL1 7357   2.790  35.375   8.855
 5877POPC   GL2 7358   2.803  35.441   8.855
 5877POPC   C1A 7359   2.764  35.319   8.555
 5877POPC   D2A 7360   2.733  35.307   8.255
 5877POPC   C3A 7361   2.802  35.341   7.955
 5877POPC   C4A 7362   2.810  35.384   7.655
 5877POPC   C1B 7363   2.914  35.507   8.555
 5877POPC   C2B 7364   2.937  35.541   8.255
 5877POPC   C3B 7365   2.896  35.519   7.955
 5877POPC   C4B 7366   2.961  35.536   7.655
 5878POPC   NC3 7367  22.128  19.099   9.455
 5878POPC   PO4 7368  22.121  19.074   9.155
 5878POPC   GL1 7369  22.154  19.085   8.855
 5878POPC   GL2 7370  22.072  19.088   8.855
 5878POPC   C1A 7371  22.161  19.010   8.555
 5878POPC   D2A 7372  22.190  19.078   8.255
 5878POPC   C3A 7373  22.123  19.013   7.955
 5878POPC   C4A 7374  22.176  19.101   7.655
 5878POPC   C1B 7375  21.913  19.146   8.555
 5878POPC   C2B 7376  21.950  19.144   8.255
 5878POPC   C3B 7377  21.887  19.193   7.955
 5878POPC   C4B 7378  21.887  19.166   7.655
 5879POPC   NC3 7379  41.542   1.940   9.455
 5879POPC   PO4 7380  41.523   1.970   9.155
 5879POPC   GL1 7381  41.518   1.990   8.855
 5879POPC   GL2 7382  41.541   1.854   8.855
 5879POPC   C1A 7383  41.538   1.978   8.555
 5879POPC   D2A 7384  41.592   1.982   8.255
 5879POPC   C3A 7385  41.509   1.997   7.955
 5879POPC   C4A 7386  41.574   1.955   7.655
 5879POPC   C1B 7387  41.601   1.705   8.555
 5879POPC   C2B 7388  41.612   1.728   8.255
 5879POPC   C3B 7389  41.555   1.746   7.955
 5879POPC   C4B 7390  41.594   1.738   7.655
 5880POPC   NC3 7391  20.610  26.860   9.455
 5880POPC   PO4 7392  20.601  26.808   9.155
 5880POPC   GL1 7393  20.645  26.798   8.855
 5880POPC   GL2 7394  20.598  26.974   8.855
 5880POPC   C1A 7395  20.578  26.818   8.555
 5880POPC   D2A 7396  20.651  26.818   8.255
 5880POPC   C3A 7397  20.620  26.847   7.955
 5880POPC   C4A 7398  20.641  26.855   7.655
 5880POPC   C1B 7399  20.496  27.023   8.555
 5880POPC   C2B 7400  20.458  27.029   8.255
 5880POPC   C3B 7401  20.515  27.003   7.955
 5880POPC   C4B 7402  20.456  27.079   7.655
 5881POPC   NC3 7403  34.543   2.734   9.455
 5881POPC   PO4 7404  34.588   2.722   9.155
 5881POPC   GL1 7405  34.615   2.756   8.855
 5881POPC   GL2 7406  34.518   2.910   8.855
 5881POPC   C1A 7407  34.613   2.790   8.555
 5881POPC   D2A 7408  34.598   2.730   8.255
 5881POPC   C3A 7409  34.543   2.783   7.955
 5881POPC   C4A 7410  34.589   2.741   7.655
 5881POPC   C1B 7411  34.505   3.015   8.555
 5881POPC   C2B 7412  34.504   2.946   8.255
 5881POPC   C3B 7413  34.464   2.985   7.955
 5881POPC   C4B 7414  34.467   3.014   7.655
 5882POPC   NC3 7415  15.207  18.323   9.455
 5882POPC   PO4 7416  15.226  18.317   9.155
 5882POPC   GL1 7417  15.170  18.303   8.855
 5882POPC   GL2 7418  15.177  18.380   8.855
 5882POPC   C1A 7419  15.160  18.315   8.555
 5882POPC   D2A 7420  15.194  18.289   8.255
 5882POPC   C3A 7421  15.160  18.290   7.955
 5882POPC   C4A 7422  15.159  18.325   7.655
 5882POPC   C1B 7423  15.087  18.467   8.555
 5882POPC   C2B 7424  15.093  18.474   8.255
 5882POPC   C3B 7425  15.123  18.534   7.955
 5882POPC   C4B 7426  15.104  18.468   7.655
 5883POPC   NC3 7427   2.760  18.264   9.455
 5883POPC   PO4 7428   2.740  18.302   9.155
 5883POPC   GL1 7429   2.786  18.245   8.855
 5883POPC   GL2 7430   2.837  18.336   8.855
 5883POPC   C1A 7431   2.774  18.278   8.555
 5883POPC   D2A 7432   2.728  18.260   8.255
 5883POPC   C3A 7433   2.809  18.300   7.955
 5883POPC   C4A 7434   2.780  18.233   7.655
 5883POPC   C1B 7435   2.951  18.505   8.555
 5883POPC   C2B 7436   2.933  18.433   8.255
 5883POPC   C3B 7437   2.876  18.507   7.955
 5883POPC   C4B 7438   2.887  18.474   7.655
 5884POPC   NC3 7439  40.749  41.559   9.455
 5884POPC   PO4 7440  40.816  41.527   9.155
 5884POPC   GL1 7441  40.749  41.561   8.855
 5884POPC   GL2 7442  40.940  41.607   8.855
 5884POPC   C1A 7443  40.827  41.607   8.555
 5884POPC   D2A 7444  40.771  41.608   8.255
 5884POPC   C3A 7445  40.744  41.509   7.955
 5884POPC   C4A 7446  40.778  41.574   7.655
 5884POPC   C1B 7447  41.046  41.643   8.555
 5884POPC   C2B 7448  41.002  41.594   8.255
 5884POPC   C3B 7449  41.028  41.629   7.955
 5884POPC   C4B 7450  40.998  41.577   7.655
 5885POPC   NC3 7451  43.931   1.259   9.455
 5885POPC   PO4 7452  43.916   1.164   9.155
 5885POPC   GL1 7453  43.868   1.223   8.855
 5885POPC   GL2 7454  43.809   1.144   8.855
 5885POPC   C1A 7455  43.851   1.261   8.555
 5885POPC   D2A 7456  43.885   1.180   8.255
 5885POPC   C3A 7457  43.930   1.244   7.955
 5885POPC   C4A 7458  43.890   1.189   7.655
 5885POPC   C1B 7459  43.691   1.107   8.555
 5885POPC   C2B 7460  43.669   1.131   8.255
 5885POPC   C3B 7461  43.669   1.097   7.955
 5885POPC   C4B 7462  43.679   1.132   7.655
 5886POPC   NC3 7463   6.607   6.677   9.455
 5886POPC   PO4 7464   6.616   6.676   9.155
 5886POPC   GL1 7465   6.657   6.644   8.855
 5886POPC   GL2 7466   6.549   6.706   8.855
 5886POPC   C1A 7467   6.601   6.680   8.555
 5886POPC   D2A 7468   6.682   6.624   8.255
 5886POPC   C3A 7469   6.687   6.672   7.955
 5886POPC   C4A 7470   6.650   6.635   7.655
 5886POPC   C1B 7471   6.463   6.799   8.555
 5886POPC   C2B 7472   6.413   6.776   8.255
 5886POPC   C3B 7473   6.424   6.798   7.955
 5886POPC   C4B 7474   6.484   6.800   7.655
 5887POPC   NC3 7475  23.675   8.216   9.455
 5887POPC   PO4 7476  23.700   8.197   9.155
 5887POPC   GL1 7477  23.759   8.187   8.855
 5887POPC   GL2 7478  23.685   8.076   8.855
 5887POPC   C1A 7479  23.724   8.184   8.555
 5887POPC   D2A 7480  23.729   8.177   8.255
 5887POPC   C3A 7481  23.713   8.189   7.955
 5887POPC   C4A 7482  23.730   8.155   7.655
 5887POPC   C1B 7483  23.756   7.955   8.555
 5887POPC   C2B 7484  23.713   7.962   8.255
 5887POPC   C3B 7485  23.736   7.976   7.955
 5887POPC   C4B 7486  23.738   7.976   7.655
 5888POPC   NC3 7487  26.789   1.260   9.455
 5888POPC   PO4 7488  26.849   1.194   9.155
 5888POPC   GL1 7489  26.821   1.176   8.855
 5888POPC   GL2 7490  26.866   1.104   8.855
 5888POPC   C1A 7491  26.838   1.234   8.555
 5888POPC   D2A 7492  26.866   1.173   8.255
 5888POPC   C3A 7493  26.801   1.236   7.955
 5888POPC   C4A 7494  26.831   1.228   7.655
 5888POPC   C1B 7495  26.876   0.962   8.555
 5888POPC   C2B 7496  26.934   1.025   8.255
 5888POPC   C3B 7497  26.880   0.933   7.955
 5888POPC   C4B 7498  26.909   0.999   7.655
 5889POPC   NC3 7499  19.836   5.838   9.455
 5889POPC   PO4 7500  19.847   5.823   9.155
 5889POPC   GL1 7501  19.793   5.866   8.855
 5889POPC   GL2 7502  19.752   5.982   8.855
 5889POPC   C1A 7503  19.815   5.903   8.555
 5889POPC   D2A 7504  19.826   5.850   8.255
 5889POPC   C3A 7505  19.794   5.857   7.955
 5889POPC   C4A 7506  19.863   5.874   7.655
 5889POPC   C1B 7507  19.665   6.080   8.555
 5889POPC   C2B 7508  19.677   6.048   8.255
 5889POPC   C3B 7509  19.645   6.029   7.955
 5889POPC   C4B 7510  19.662   6.069   7.655
 5890POPC   NC3 7511  36.909   6.665   9.455
 5890POPC   PO4 7512  36.858   6.647   9.155
 5890POPC   GL1 7513  36.935   6.692   8.855
 5890POPC   GL2 7514  36.962   6.733   8.855
 5890POPC   C1A 7515  36.869   6.619   8.555
 5890POPC   D2A 7516  36.940   6.626   8.255
 5890POPC   C3A 7517  36.888   6.612   7.955
 5890POPC   C4A 7518  36.934   6.652   7.655
 5890POPC   C1B 7519  36.946   6.887   8.555
 5890POPC   C2B 7520  36.946   6.915   8.255
 5890POPC   C3B 7521  36.936   6.832   7.955
 5890POPC   C4B 7522  36.992   6.924   7.655
 5891POPC   NC3 7523   8.174  43.136   9.455
 5891POPC   PO4 7524   8.195  43.098   9.155
 5891POPC   GL1 7525   8.205  43.069   8.855
 5891POPC   GL2 7526   8.271  43.196   8.855
 5891POPC   C1A 7527   8.210  43.110   8.555
 5891POPC   D2A 7528   8.177  43.112   8.255
 5891POPC   C3A 7529   8.216  43.117   7.955
 5891POPC   C4A 7530   8.149  43.108   7.655
 5891POPC   C1B 7531   8.250  43.368   8.555
 5891POPC   C2B 7532   8.296  43.324   8.255
 5891POPC   C3B 7533   8.332  43.342   7.955
 5891POPC   C4B 7534   8.289  43.353   7.655
 5892POPC   NC3 7535  12.896   1.184   9.455
 5892POPC   PO4 7536  12.834   1.253   9.155
 5892POPC   GL1 7537  12.823   1.176   8.855
 5892POPC   GL2 7538  12.869   1.098   8.855
 5892POPC   C1A 7539  12.841   1.253   8.555
 5892POPC   D2A 7540  12.891   1.197   8.255
 5892POPC   C3A 7541  12.853   1.262   7.955
 5892POPC   C4A 7542  12.847   1.207   7.655
 5892POPC   C1B 7543  12.963   0.949   8.555
 5892POPC   C2B 7544  12.969   0.974   8.255
 5892POPC   C3B 7545  12.970   0.975   7.955
 5892POPC   C4B 7546  12.955   0.975   7.655
 5893POPC   NC3 7547  22.176  27.599   9.455
 5893POPC   PO4 7548  22.212  27.550   9.155
 5893POPC   GL1 7549  22.167  27.587   8.855
 5893POPC   GL2 7550  22.150  27.740   8.855
 5893POPC   C1A 7551  22.117  27.572   8.555
 5893POPC   D2A 7552  22.115  27.615   8.255
 5893POPC   C3A 7553  22.123  27.558   7.955
 5893POPC   C4A 7554  22.189  27.591   7.655
 5893POPC   C1B 7555  22.049  27.805   8.555
 5893POPC   C2B 7556  22.045  27.846   8.255
 5893POPC   C3B 7557  22.108  27.880   7.955
 5893POPC   C4B 7558  22.118  27.848   7.655
 5894POPC   NC3 7559  33.792  32.990   9.455
 5894POPC   PO4 7560  33.766  33.007   9.155
 5894POPC   GL1 7561  33.833  33.051   8.855
 5894POPC   GL2 7562  33.903  32.920   8.855
 5894POPC   C1A 7563  33.835  33.012   8.555
 5894POPC   D2A 7564  33.790  33.006   8.255
 5894POPC   C3A 7565  33.819  32.989   7.955
 5894POPC   C4A 7566  33.760  32.994   7.655
 5894POPC   C1B 7567  33.998  32.889   8.555
 5894POPC   C2B 7568  33.954  32.800   8.255
 5894POPC   C3B 7569  34.000  32.857   7.955
 5894POPC   C4B 7570  34.003  32.864   7.655
 5895POPC   NC3 7571   0.438   5.903   9.455
 5895POPC   PO4 7572   0.474   5.902   9.155
 5895POPC   GL1 7573   0.415   5.912   8.855
 5895POPC   GL2 7574   0.381   5.940   8.855
 5895POPC   C1A 7575   0.399   5.912   8.555
 5895POPC   D2A 7576   0.467   5.839   8.255
 5895POPC   C3A 7577   0.473   5.850   7.955
 5895POPC   C4A 7578   0.393   5.909   7.655
 5895POPC   C1B 7579   0.356   6.118   8.555
 5895POPC   C2B 7580   0.328   6.061   8.255
 5895POPC   C3B 7581   0.326   6.085   7.955
 5895POPC   C4B 7582   0.264   6.056   7.655
 5896POPC   NC3 7583  39.959  17.499   9.455
 5896POPC   PO4 7584  40.033  17.523   9.155
 5896POPC   GL1 7585  39.967  17.505   8.855
 5896POPC   GL2 7586  40.067  17.649   8.855
 5896POPC   C1A 7587  40.045  17.463   8.555
 5896POPC   D2A 7588  40.027  17.489   8.255
 5896POPC   C3A 7589  40.008  17.547   7.955
 5896POPC   C4A 7590  39.980  17.466   7.655
 5896POPC   C1B 7591  40.036  17.782   8.555
 5896POPC   C2B 7592  40.078  17.709   8.255
 5896POPC   C3B 7593  40.107  17.708   7.955
 5896POPC   C4B 7594  40.114  17.742   7.655
 5897POPC   NC3 7595   5.872  33.810   9.455
 5897POPC   PO4 7596   5.871  33.780   9.155
 5897POPC   GL1 7597   5.863  33.815   8.855
 5897POPC   GL2 7598   5.746  33.887   8.855
 5897POPC   C1A 7599   5.850  33.843   8.555
 5897POPC   D2A 7600   5.864  33.768   8.255
 5897POPC   C3A 7601   5.892  33.825   7.955
 5897POPC   C4A 7602   5.860  33.788   7.655
 5897POPC   C1B 7603   5.692  33.883   8.555
 5897POPC   C2B 7604   5.688  33.979   8.255
 5897POPC   C3B 7605   5.668  33.958   7.955
 5897POPC   C4B 7606   5.659  33.912   7.655
 5898POPC   NC3 7607  28.362  32.209   9.455
 5898POPC   PO4 7608  28.349  32.251   9.155
 5898POPC   GL1 7609  28.360  32.204   8.855
 5898POPC   GL2 7610  28.264  32.182   8.855
 5898POPC   C1A 7611  28.406  32.225   8.555
 5898POPC   D2A 7612  28.400  32.237   8.255
 5898POPC   C3A 7613  28.412  32.242   7.955
 5898POPC   C4A 7614  28.338  32.262   7.655
 5898POPC   C1B 7615  28.201  32.121   8.555
 5898POPC   C2B 7616  28.174  32.125   8.255
 5898POPC   C3B 7617  28.113  32.167   7.955
 5898POPC   C4B 7618  28.140  32.139   7.655
 5899POPC   NC3 7619  19.060  40.806   9.455
 5899POPC   PO4 7620  19.106  40.779   9.155
 5899POPC   GL1 7621  19.086  40.831   8.855
 5899POPC   GL2 7622  18.942  40.878   8.855
 5899POPC   C1A 7623  19.021  40.812   8.555
 5899POPC   D2A 7624  19.100  40.792   8.255
 5899POPC   C3A 7625  19.043  40.788   7.955
 5899POPC   C4A 7626  19.027  40.829   7.655
 5899POPC   C1B 7627  18.846  40.997   8.555
 5899POPC   C2B 7628  18.851  40.920   8.255
 5899POPC   C3B 7629  18.901  40.942   7.955
 5899POPC   C4B 7630  18.861  40.989   7.655
 5900POPC   NC3 7631  40.026  44.642   9.455
 5900POPC   PO4 7632  39.989  44.710   9.155
 5900POPC   GL1 7633  40.017  44.638   8.855
 5900POPC   GL2 7634  40.069  44.718   8.855
 5900POPC   C1A 7635  39.963  44.627   8.555
 5900POPC   D2A 7636  40.029  44.699   8.255
 5900POPC   C3A 7637  40.031  44.702   7.955
 5900POPC   C4A 7638  40.043  44.621   7.655
 5900POPC   C1B 7639  40.170  44.803   8.555
 5900POPC   C2B 7640  40.177  44.876   8.255
 5900POPC   C3B 7641  40.215  44.862   7.955
 5900POPC   C4B 7642  40.149  44.802   7.655
 5901POPC   NC3 7643  11.336   5.825   9.455
 5901POPC   PO4 7644  11.323   5.866   9.155
 5901POPC   GL1 7645  11.270   5.850   8.855
 5901POPC   GL2 7646  11.225   5.780   8.855
 5901POPC   C1A 7647  11.251   5.874   8.555
 5901POPC   D2A 7648  11.274   5.833   8.255
 5901POPC   C3A 7649  11.302   5.911   7.955
 5901POPC   C4A 7650  11.326   5.857   7.655
 5901POPC   C1B 7651  11.130   5.641   8.555
 5901POPC   C2B 7652  11.214   5.638   8.255
 5901POPC   C3B 7653  11.140   5.678   7.955
 5901POPC   C4B 7654  11.132   5.654   7.655
 5902POPC   NC3 7655  42.318  39.207   9.455
 5902POPC   PO4 7656  42.320  39.247   9.155
 5902POPC   GL1 7657  42.326  39.215   8.855
 5902POPC   GL2 7658  42.329  39.326   8.855
 5902POPC   C1A 7659  42.338  39.217   8.555
 5902POPC   D2A 7660  42.286  39.216   8.255
 5902POPC   C3A 7661  42.317  39.271   7.955
 5902POPC   C4A 7662  42.379  39.241   7.655
 5902POPC   C1B 7663  42.414  39.471   8.555
 5902POPC   C2B 7664  42.397  39.461   8.255
 5902POPC   C3B 7665  42.382  39.479   7.955
 5902POPC   C4B 7666  42.449  39.468   7.655
 5903POPC   NC3 7667  27.558  10.558   9.455
 5903POPC   PO4 7668  27.609  10.499   9.155
 5903POPC   GL1 7669  27.562  10.484   8.855
 5903POPC   GL2 7670  27.704  10.459   8.855
 5903POPC   C1A 7671  27.640  10.562   8.555
 5903POPC   D2A 7672  27.635  10.554   8.255
 5903POPC   C3A 7673  27.622  10.547   7.955
 5903POPC   C4A 7674  27.566  10.540   7.655
 5903POPC   C1B 7675  27.817  10.461   8.555
 5903POPC   C2B 7676  27.771  10.401   8.255
 5903POPC   C3B 7677  27.798  10.387   7.955
 5903POPC   C4B 7678  27.806  10.399   7.655
 5904POPC   NC3 7679  32.991  17.462   9.455
 5904POPC   PO4 7680  33.012  17.466   9.155
 5904POPC   GL1 7681  33.059  17.483   8.855
 5904POPC   GL2 7682  32.934  17.502   8.855
 5904POPC   C1A 7683  33.048  17.494   8.555
 5904POPC   D2A 7684  32.987  17.466   8.255
 5904POPC   C3A 7685  33.071  17.514   7.955
 5904POPC   C4A 7686  32.988  17.526   7.655
 5904POPC   C1B 7687  32.743  17.497   8.555
 5904POPC   C2B 7688  32.781  17.496   8.255
 5904POPC   C3B 7689  32.747  17.463   7.955
 5904POPC   C4B 7690  32.763  17.488   7.655
 5905POPC   NC3 7691  22.930  24.522   9.455
 5905POPC   PO4 7692  22.976  24.516   9.155
 5905POPC   GL1 7693  22.900  24.511   8.855
 5905POPC   GL2 7694  22.817  24.426   8.855
 5905POPC   C1A 7695  22.902  24.462   8.555
 5905POPC   D2A 7696  22.934  24.522   8.255
 5905POPC   C3A 7697  22.979  24.443   7.955
 5905POPC   C4A 7698  22.967  24.473   7.655
 5905POPC   C1B 7699  22.654  24.416   8.555
 5905POPC   C2B 7700  22.658  24.404   8.255
 5905POPC   C3B 7701  22.734  24.478   7.955
 5905POPC   C4B 7702  22.656  24.456   7.655
 5906POPC   NC3 7703  43.895  13.654   9.455
 5906POPC   PO4 7704  43.881  13.613   9.155
 5906POPC   GL1 7705  43.923  13.609   8.855
 5906POPC   GL2 7706  43.889  13.767   8.855
 5906POPC   C1A 7707  43.923  13.590   8.555
 5906POPC   D2A 7708  43.931  13.596   8.255
 5906POPC   C3A 7709  43.930  13.592   7.955
 5906POPC   C4A 7710  43.898  13.614   7.655
 5906POPC   C1B 7711  44.032  13.841   8.555
 5906POPC   C2B 7712  43.994  13.876   8.255
 5906POPC   C3B 7713  43.983  13.904   7.955
 5906POPC   C4B 7714  43.956  13.846   7.655
 5907POPC   NC3 7715  29.930   8.182   9.455
 5907POPC   PO4 7716  29.886   8.169   9.155
 5907POPC   GL1 7717  29.872   8.213   8.855
 5907POPC   GL2 7718  29.950   8.358   8.855
 5907POPC   C1A 7719  29.965   8.223   8.555
 5907POPC   D2A 7720  29.910   8.169   8.255
 5907POPC   C3A 7721  29.939   8.168   7.955
 5907POPC   C4A 7722  29.903   8.168   7.655
 5907POPC   C1B 7723  29.958   8.473   8.555
 5907POPC   C2B 7724  30.002   8.479   8.255
 5907POPC   C3B 7725  29.919   8.426   7.955
 5907POPC   C4B 7726  29.945   8.472   7.655
 5908POPC   NC3 7727  13.605  18.260   9.455
 5908POPC   PO4 7728  13.594  18.303   9.155
 5908POPC   GL1 7729  13.641  18.314   8.855
 5908POPC   GL2 7730  13.593  18.158   8.855
 5908POPC   C1A 7731  13.585  18.255   8.555
 5908POPC   D2A 7732  13.637  18.234   8.255
 5908POPC   C3A 7733  13.670  18.281   7.955
 5908POPC   C4A 7734  13.623  18.310   7.655
 5908POPC   C1B 7735  13.509  18.041   8.555
 5908POPC   C2B 7736  13.428  18.034   8.255
 5908POPC   C3B 7737  13.511  18.039   7.955
 5908POPC   C4B 7738  13.437  18.062   7.655
 5909POPC   NC3 7739  44.703  10.518   9.455
 5909POPC   PO4 7740  44.629  10.548   9.155
 5909POPC   GL1 7741  44.695  10.568   8.855
 5909POPC   GL2 7742  44.739  10.378   8.855
 5909POPC   C1A 7743  44.641  10.562   8.555
 5909POPC   D2A 7744  44.672  10.492   8.255
 5909POPC   C3A 7745  44.686  10.496   7.955
 5909POPC   C4A 7746  44.644  10.486   7.655
 5909POPC   C1B 7747  44.833  10.297   8.555
 5909POPC   C2B 7748  44.760  10.359   8.255
 5909POPC   C3B 7749  44.781  10.273   7.955
 5909POPC   C4B 7750  44.769  10.285   7.655
 5910POPC   NC3 7751  15.960   8.961   9.455
 5910POPC   PO4 7752  15.913   8.952   9.155
 5910POPC   GL1 7753  15.982   8.963   8.855
 5910POPC   GL2 7754  16.062   8.926   8.855
 5910POPC   C1A 7755  15.961   8.948   8.555
 5910POPC   D2A 7756  15.979   8.990   8.255
 5910POPC   C3A 7757  15.973   9.017   7.955
 5910POPC   C4A 7758  15.935   9.006   7.655
 5910POPC   C1B 7759  16.166   8.815   8.555
 5910POPC   C2B 7760  16.167   8.753   8.255
 5910POPC   C3B 7761  16.157   8.808   7.955
 5910POPC   C4B 7762  16.137   8.814   7.655
 5911POPC   NC3 7763  42.308  42.368   9.455
 5911POPC   PO4 7764  42.367  42.362   9.155
 5911POPC   GL1 7765  42.370  42.301   8.855
 5911POPC   GL2 7766  42.300  42.246   8.855
 5911POPC   C1A 7767  42.378  42.326   8.555
 5911POPC   D2A 7768  42.381  42.375   8.255
 5911POPC   C3A 7769  42.344  42.309   7.955
 5911POPC   C4A 7770  42.332  42.323   7.655
 5911POPC   C1B 7771  42.137  42.106   8.555
 5911POPC   C2B 7772  42.192  42.178   8.255
 5911POPC   C3B 7773  42.224  42.116   7.955
 5911POPC   C4B 7774  42.175  42.111   7.655
 5912POPC   NC3 7775  18.239   6.641   9.455
 5912POPC   PO4 7776  18.292   6.601   9.155
 5912POPC   GL1 7777  18.267   6.669   8.855
 5912POPC   GL2 7778  18.358   6.726   8.855
 5912POPC   C1A 7779  18.302   6.632   8.555
 5912POPC   D2A 7780  18.246   6.658   8.255
 5912POPC   C3A 7781  18.295   6.598   7.955
 5912POPC   C4A 7782  18.310   6.647   7.655
 5912POPC   C1B 7783  18.495   6.751   8.555
 5912POPC   C2B 7784  18.489   6.783   8.255
 5912POPC   C3B 7785  18.532   6.801   7.955
 5912POPC   C4B 7786  18.482   6.825   7.655
 5913POPC   NC3 7787  35.387  14.384   9.455
 5913POPC   PO4 7788  35.360  14.387   9.155
 5913POPC   GL1 7789  35.366  14.397   8.855
 5913POPC   GL2 7790  35.439  14.339   8.855
 5913POPC   C1A 7791  35.324  14.382   8.555
 5913POPC   D2A 7792  35.384  14.433   8.255
 5913POPC   C3A 7793  35.379  14.420   7.955
 5913POPC   C4A 7794  35.312  14.433   7.655
 5913POPC   C1B 7795  35.546  14.315   8.555
 5913POPC   C2B 7796  35.549  14.318   8.255
 5913POPC   C3B 7797  35.634  14.347   7.955
 5913POPC   C4B 7798  35.593  14.315   7.655
 5914POPC   NC3 7799   1.172   4.365   9.455
 5914POPC   PO4 7800   1.233   4.359   9.155
 5914POPC   GL1 7801   1.169   4.366   8.855
 5914POPC   GL2 7802   1.277   4.251   8.855
 5914POPC   C1A 7803   1.261   4.301   8.555
 5914POPC   D2A 7804   1.177   4.270   8.255
 5914POPC   C3A 7805   1.186   4.290   7.955
 5914POPC   C4A 7806   1.169   4.272   7.655
 5914POPC   C1B 7807   1.406   4.106   8.555
 5914POPC   C2B 7808   1.319   4.092   8.255
 5914POPC   C3B 7809   1.386   4.114   7.955
 5914POPC   C4B 7810   1.411   4.121   7.655
 5915POPC   NC3 7811  25.280  15.935   9.455
 5915POPC   PO4 7812  25.229  15.980   9.155
 5915POPC   GL1 7813  25.286  15.978   8.855
 5915POPC   GL2 7814  25.372  15.920   8.855
 5915POPC   C1A 7815  25.296  15.991   8.555
 5915POPC   D2A 7816  25.278  15.935   8.255
 5915POPC   C3A 7817  25.257  15.995   7.955
 5915POPC   C4A 7818  25.275  15.918   7.655
 5915POPC   C1B 7819  25.440  15.791   8.555
 5915POPC   C2B 7820  25.463  15.835   8.255
 5915POPC   C3B 7821  25.484  15.807   7.955
 5915POPC   C4B 7822  25.456  15.830   7.655
 5916POPC   NC3 7823  13.596  15.957   9.455
 5916POPC   PO4 7824  13.677  15.946   9.155
 5916POPC   GL1 7825  13.626  15.907   8.855
 5916POPC   GL2 7826  13.672  15.905   8.855
 5916POPC   C1A 7827  13.647  15.918   8.555
 5916POPC   D2A 7828  13.623  15.930   8.255
 5916POPC   C3A 7829  13.609  15.993   7.955
 5916POPC   C4A 7830  13.597  16.000   7.655
 5916POPC   C1B 7831  13.841  15.736   8.555
 5916POPC   C2B 7832  13.772  15.835   8.255
 5916POPC   C3B 7833  13.822  15.763   7.955
 5916POPC   C4B 7834  13.782  15.743   7.655
 5917POPC   NC3 7835   2.000  15.956   9.455
 5917POPC   PO4 7836   2.023  15.931   9.155
 5917POPC   GL1 7837   1.997  15.969   8.855
 5917POPC   GL2 7838   1.909  16.002   8.855
 5917POPC   C1A 7839   2.013  15.968   8.555
 5917POPC   D2A 7840   1.976  15.907   8.255
 5917POPC   C3A 7841   2.016  15.979   7.955
 5917POPC   C4A 7842   2.029  15.943   7.655
 5917POPC   C1B 7843   1.785  16.130   8.555
 5917POPC   C2B 7844   1.843  16.089   8.255
 5917POPC   C3B 7845   1.805  16.118   7.955
 5917POPC   C4B 7846   1.779  16.088   7.655
 5918POPC   NC3 7847  33.004  44.640   9.455
 5918POPC   PO4 7848  32.999  44.665   9.155
 5918POPC   GL1 7849  32.997  44.653   8.855
 5918POPC   GL2 7850  33.146  44.737   8.855
 5918POPC   C1A 7851  33.022  44.682   8.555
 5918POPC   D2A 7852  33.067  44.694   8.255
 5918POPC   C3A 7853  33.073  44.643   7.955
 5918POPC   C4A 7854  33.019  44.618   7.655
 5918POPC   C1B 7855  33.268  44.771   8.555
 5918POPC   C2B 7856  33.192  44.764   8.255
 5918POPC   C3B 7857  33.212  44.829   7.955
 5918POPC   C4B 7858  33.255  44.853   7.655
 5919POPC   NC3 7859  39.223  15.212   9.455
 5919POPC   PO4 7860  39.254  15.138   9.155
 5919POPC   GL1 7861  39.275  15.175   8.855
 5919POPC   GL2 7862  39.156  15.305   8.855
 5919POPC   C1A 7863  39.263  15.138   8.555
 5919POPC   D2A 7864  39.224  15.196   8.255
 5919POPC   C3A 7865  39.222  15.198   7.955
 5919POPC   C4A 7866  39.202  15.172   7.655
 5919POPC   C1B 7867  39.100  15.361   8.555
 5919POPC   C2B 7868  39.071  15.408   8.255
 5919POPC   C3B 7869  39.084  15.415   7.955
 5919POPC   C4B 7870  39.029  15.379   7.655
 5920POPC   NC3 7871  25.255  39.242   9.455
 5920POPC   PO4 7872  25.305  39.275   9.155
 5920POPC   GL1 7873  25.260  39.243   8.855
 5920POPC   GL2 7874  25.345  39.368   8.855
 5920POPC   C1A 7875  25.251  39.248   8.555
 5920POPC   D2A 7876  25.290  39.262   8.255
 5920POPC   C3A 7877  25.244  39.234   7.955
 5920POPC   C4A 7878  25.258  39.183   7.655
 5920POPC   C1B 7879  25.397  39.458   8.555
 5920POPC   C2B 7880  25.441  39.425   8.255
 5920POPC   C3B 7881  25.416  39.489   7.955
 5920POPC   C4B 7882  25.448  39.427   7.655
 5921POPC   NC3 7883   9.729  37.670   9.455
 5921POPC   PO4 7884   9.721  37.721   9.155
 5921POPC   GL1 7885   9.745  37.663   8.855
 5921POPC   GL2 7886   9.584  37.769   8.855
 5921POPC   C1A 7887   9.715  37.690   8.555
 5921POPC   D2A 7888   9.712  37.666   8.255
 5921POPC   C3A 7889   9.765  37.708   7.955
 5921POPC   C4A 7890   9.733  37.710   7.655
 5921POPC   C1B 7891   9.547  37.783   8.555
 5921POPC   C2B 7892   9.522  37.731   8.255
 5921POPC   C3B 7893   9.472  37.727   7.955
 5921POPC   C4B 7894   9.514  37.749   7.655
 5922POPC   NC3 7895  17.482   8.199   9.455
 5922POPC   PO4 7896  17.482   8.242   9.155
 5922POPC   GL1 7897  17.544   8.191   8.855
 5922POPC   GL2 7898  17.586   8.257   8.855
 5922POPC   C1A 7899  17.516   8.197   8.555
 5922POPC   D2A 7900  17.552   8.208   8.255
 5922POPC   C3A 7901  17.472   8.211   7.955
 5922POPC   C4A 7902  17.512   8.198   7.655
 5922POPC   C1B 7903  17.637   8.393   8.555
 5922POPC   C2B 7904  17.644   8.382   8.255
 5922POPC   C3B 7905  17.629   8.353   7.955
 5922POPC   C4B 7906  17.670   8.366   7.655
 5923POPC   NC3 7907  22.969  36.095   9.455
 5923POPC   PO4 7908  22.912  36.172   9.155
 5923POPC   GL1 7909  22.910  36.173   8.855
 5923POPC   GL2 7910  22.864  36.258   8.855
 5923POPC   C1A 7911  22.937  36.170   8.555
 5923POPC   D2A 7912  22.917  36.144   8.255
 5923POPC   C3A 7913  22.965  36.163   7.955
 5923POPC   C4A 7914  22.913  36.127   7.655
 5923POPC   C1B 7915  22.766  36.376   8.555
 5923POPC   C2B 7916  22.798  36.327   8.255
 5923POPC   C3B 7917  22.766  36.345   7.955
 5923POPC   C4B 7918  22.778  36.346   7.655
 5924POPC   NC3 7919   8.934   5.130   9.455
 5924POPC   PO4 7920   8.968   5.121   9.155
 5924POPC   GL1 7921   8.925   5.116   8.855
 5924POPC   GL2 7922   9.014   5.004   8.855
 5924POPC   C1A 7923   8.985   5.061   8.555
 5924POPC   D2A 7924   8.923   5.052   8.255
 5924POPC   C3A 7925   8.956   5.086   7.955
 5924POPC   C4A 7926   8.971   5.135   7.655
 5924POPC   C1B 7927   9.007   4.819   8.555
 5924POPC   C2B 7928   9.068   4.806   8.255
 5924POPC   C3B 7929   8.999   4.865   7.955
 5924POPC   C4B 7930   9.012   4.877   7.655
 5925POPC   NC3 7931  22.204  26.792   9.455
 5925POPC   PO4 7932  22.135  26.797   9.155
 5925POPC   GL1 7933  22.139  26.823   8.855
 5925POPC   GL2 7934  22.097  26.922   8.855
 5925POPC   C1A 7935  22.121  26.787   8.555
 5925POPC   D2A 7936  22.143  26.797   8.255
 5925POPC   C3A 7937  22.170  26.817   7.955
 5925POPC   C4A 7938  22.146  26.861   7.655
 5925POPC   C1B 7939  22.022  27.020   8.555
 5925POPC   C2B 7940  22.066  27.055   8.255
 5925POPC   C3B 7941  21.998  27.050   7.955
 5925POPC   C4B 7942  21.991  27.064   7.655
 5926POPC   NC3 7943  15.215  42.293   9.455
 5926POPC   PO4 7944  15.204  42.315   9.155
 5926POPC   GL1 7945  15.219  42.341   8.855
 5926POPC   GL2 7946  15.268  42.225   8.855
 5926POPC   C1A 7947  15.165  42.370   8.555
 5926POPC   D2A 7948  15.207  42.354   8.255
 5926POPC   C3A 7949  15.151  42.321   7.955
 5926POPC   C4A 7950  15.190  42.336   7.655
 5926POPC   C1B 7951  15.322  42.155   8.555
 5926POPC   C2B 7952  15.343  42.161   8.255
 5926POPC   C3B 7953  15.285  42.086   7.955
 5926POPC   C4B 7954  15.276  42.155   7.655
 5927POPC   NC3 7955  44.704   8.982   9.455
 5927POPC   PO4 7956  44.638   9.004   9.155
 5927POPC   GL1 7957  44.643   8.967   8.855
 5927POPC   GL2 7958  44.611   9.070   8.855
 5927POPC   C1A 7959  44.688   8.969   8.555
 5927POPC   D2A 7960  44.673   8.999   8.255
 5927POPC   C3A 7961  44.693   8.969   7.955
 5927POPC   C4A 7962  44.663   8.948   7.655
 5927POPC   C1B 7963  44.476   9.161   8.555
 5927POPC   C2B 7964  44.460   9.151   8.255
 5927POPC   C3B 7965  44.467   9.148   7.955
 5927POPC   C4B 7966  44.432   9.082   7.655
 5928POPC   NC3 7967   1.185   9.750   9.455
 5928POPC   PO4 7968   1.186   9.766   9.155
 5928POPC   GL1 7969   1.185   9.778   8.855
 5928POPC   GL2 7970   1.065   9.634   8.855
 5928POPC   C1A 7971   1.213   9.703   8.555
 5928POPC   D2A 7972   1.180   9.796   8.255
 5928POPC   C3A 7973   1.165   9.760   7.955
 5928POPC   C4A 7974   1.255   9.774   7.655
 5928POPC   C1B 7975   0.981   9.613   8.555
 5928POPC   C2B 7976   0.998   9.575   8.255
 5928POPC   C3B 7977   0.973   9.637   7.955
 5928POPC   C4B 7978   1.049   9.566   7.655
 5929POPC   NC3 7979  12.032  36.927   9.455
 5929POPC   PO4 7980  12.103  36.872   9.155
 5929POPC   GL1 7981  12.118  36.913   8.855
 5929POPC   GL2 7982  12.235  36.981   8.855
 5929POPC   C1A 7983  12.098  36.912   8.555
 5929POPC   D2A 7984  12.046  36.921   8.255
 5929POPC   C3A 7985  12.066  36.924   7.955
 5929POPC   C4A 7986  12.112  36.938   7.655
 5929POPC   C1B 7987  12.301  36.960   8.555
 5929POPC   C2B 7988  12.303  37.015   8.255
 5929POPC   C3B 7989  12.277  36.983   7.955
 5929POPC   C4B 7990  12.322  37.003   7.655
 5930POPC   NC3 7991   4.346  32.216   9.455
 5930POPC   PO4 7992   4.351  32.227   9.155
 5930POPC   GL1 7993   4.303  32.272   8.855
 5930POPC   GL2 7994   4.279  32.174   8.855
 5930POPC   C1A 7995   4.289  32.207   8.555
 5930POPC   D2A 7996   4.338  32.279   8.255
 5930POPC   C3A 7997   4.361  32.264   7.955
 5930POPC   C4A 7998   4.331  32.216   7.655
 5930POPC   C1B 7999   4.118  32.049   8.555
 5930POPC   C2B 8000   4.142  32.013   8.255
 5930POPC   C3B 8001   4.155  32.090   7.955
 5930POPC   C4B 8002   4.136  32.049   7.655
 5931POPC   NC3 8003  34.568  36.859   9.455
 5931POPC   PO4 8004  34.585  36.883   9.155
 5931POPC   GL1 8005  34.607  36.933   8.855
 5931POPC   GL2 8006  34.481  36.996   8.855
 5931POPC   C1A 8007  34.572  36.888   8.555
 5931POPC   D2A 8008  34.565  36.905   8.255
 5931POPC   C3A 8009  34.531  36.953   7.955
 5931POPC   C4A 8010  34.542  36.869   7.655
 5931POPC   C1B 8011  34.384  37.041   8.555
 5931POPC   C2B 8012  34.337  37.094   8.255
 5931POPC   C3B 8013  34.359  37.105   7.955
 5931POPC   C4B 8014  34.406  37.083   7.655
 5932POPC   NC3 8015  37.672  21.423   9.455
 5932POPC   PO4 8016  37.704  21.381   9.155
 5932POPC   GL1 8017  37.688  21.358   8.855
 5932POPC   GL2 8018  37.782  21.437   8.855
 5932POPC   C1A 8019  37.718  21.366   8.555
 5932POPC   D2A 8020  37.662  21.351   8.255
 5932POPC   C3A 8021  37.710  21.378   7.955
 5932POPC   C4A 8022  37.686  21.396   7.655
 5932POPC   C1B 8023  37.925  21.452   8.555
 5932POPC   C2B 8024  37.921  21.528   8.255
 5932POPC   C3B 8025  37.874  21.493   7.955
 5932POPC   C4B 8026  37.951  21.532   7.655
 5933POPC   NC3 8027  25.309  27.592   9.455
 5933POPC   PO4 8028  25.294  27.626   9.155
 5933POPC   GL1 8029  25.271  27.611   8.855
 5933POPC   GL2 8030  25.239  27.471   8.855
 5933POPC   C1A 8031  25.229  27.598   8.555
 5933POPC   D2A 8032  25.217  27.614   8.255
 5933POPC   C3A 8033  25.217  27.553   7.955
 5933POPC   C4A 8034  25.225  27.574   7.655
 5933POPC   C1B 8035  25.242  27.373   8.555
 5933POPC   C2B 8036  25.176  27.399   8.255
 5933POPC   C3B 8037  25.231  27.349   7.955
 5933POPC   C4B 8038  25.170  27.385   7.655
 5934POPC   NC3 8039  25.217  28.319   9.455
 5934POPC   PO4 8040  25.232  28.375   9.155
 5934POPC   GL1 8041  25.256  28.417   8.855
 5934POPC   GL2 8042  25.190  28.438   8.855
 5934POPC   C1A 8043  25.229  28.415   8.555
 5934POPC   D2A 8044  25.244  28.323   8.255
 5934POPC   C3A 8045  25.270  28.363   7.955
 5934POPC   C4A 8046  25.306  28.346   7.655
 5934POPC   C1B 8047  25.116  28.588   8.555
 5934POPC   C2B 8048  25.088  28.590   8.255
 5934POPC   C3B 8049  25.115  28.551   7.955
 5934POPC   C4B 8050  25.143  28.619   7.655
 5935POPC   NC3 8051  34.612  17.545   9.455
 5935POPC   PO4 8052  34.534  17.507   9.155
 5935POPC   GL1 8053  34.542  17.544   8.855
 5935POPC   GL2 8054  34.586  17.618   8.855
 5935POPC   C1A 8055  34.600  17.503   8.555
 5935POPC   D2A 8056  34.560  17.512   8.255
 5935POPC   C3A 8057  34.578  17.480   7.955
 5935POPC   C4A 8058  34.548  17.494   7.655
 5935POPC   C1B 8059  34.652  17.721   8.555
 5935POPC   C2B 8060  34.639  17.738   8.255
 5935POPC   C3B 8061  34.611  17.780   7.955
 5935POPC   C4B 8062  34.639  17.789   7.655
 5936POPC   NC3 8063  22.199  10.560   9.455
 5936POPC   PO4 8064  22.176  10.517   9.155
 5936POPC   GL1 8065  22.127  10.505   8.855
 5936POPC   GL2 8066  22.290  10.503   8.855
 5936POPC   C1A 8067  22.212  10.495   8.555
 5936POPC   D2A 8068  22.211  10.562   8.255
 5936POPC   C3A 8069  22.127  10.554   7.955
 5936POPC   C4A 8070  22.148  10.520   7.655
 5936POPC   C1B 8071  22.439  10.437   8.555
 5936POPC   C2B 8072  22.447  10.404   8.255
 5936POPC   C3B 8073  22.434  10.435   7.955
 5936POPC   C4B 8074  22.358  10.500   7.655
 5937POPC   NC3 8075  32.208  20.619   9.455
 5937POPC   PO4 8076  32.234  20.610   9.155
 5937POPC   GL1 8077  32.253  20.596   8.855
 5937POPC   GL2 8078  32.397  20.633   8.855
 5937POPC   C1A 8079  32.223  20.643   8.555
 5937POPC   D2A 8080  32.271  20.560   8.255
 5937POPC   C3A 8081  32.227  20.638   7.955
 5937POPC   C4A 8082  32.198  20.629   7.655
 5937POPC   C1B 8083  32.465  20.780   8.555
 5937POPC   C2B 8084  32.411  20.705   8.255
 5937POPC   C3B 8085  32.407  20.717   7.955
 5937POPC   C4B 8086  32.489  20.715   7.655
 5938POPC   NC3 8087  12.079  20.645   9.455
 5938POPC   PO4 8088  12.053  20.583   9.155
 5938POPC   GL1 8089  12.062  20.609   8.855
 5938POPC   GL2 8090  12.112  20.534   8.855
 5938POPC   C1A 8091  12.052  20.645   8.555
 5938POPC   D2A 8092  12.122  20.636   8.255
 5938POPC   C3A 8093  12.035  20.594   7.955
 5938POPC   C4A 8094  12.087  20.660   7.655
 5938POPC   C1B 8095  12.129  20.365   8.555
 5938POPC   C2B 8096  12.143  20.340   8.255
 5938POPC   C3B 8097  12.085  20.382   7.955
 5938POPC   C4B 8098  12.180  20.394   7.655
 5939POPC   NC3 8099  24.479  11.295   9.455
 5939POPC   PO4 8100  24.505  11.326   9.155
 5939POPC   GL1 8101  24.442  11.314   8.855
 5939POPC   GL2 8102  24.647  11.349   8.855
 5939POPC   C1A 8103  24.538  11.277   8.555
 5939POPC   D2A 8104  24.502  11.258   8.255
 5939POPC   C3A 8105  24.498  11.327   7.955
 5939POPC   C4A 8106  24.529  11.346   7.655
 5939POPC   C1B 8107  24.741  11.328   8.555
 5939POPC   C2B 8108  24.719  11.279   8.255
 5939POPC   C3B 8109  24.701  11.359   7.955
 5939POPC   C4B 8110  24.698  11.321   7.655
 5940POPC   NC3 8111   9.752  27.578   9.455
 5940POPC   PO4 8112   9.792  27.566   9.155
 5940POPC   GL1 8113   9.768  27.611   8.855
 5940POPC   GL2 8114   9.866  27.592   8.855
 5940POPC   C1A 8115   9.738  27.558   8.555
 5940POPC   D2A 8116   9.774  27.610   8.255
 5940POPC   C3A 8117   9.743  27.564   7.955
 5940POPC   C4A 8118   9.786  27.629   7.655
 5940POPC   C1B 8119  10.024  27.609   8.555
 5940POPC   C2B 8120   9.977  27.647   8.255
 5940POPC   C3B 8121  10.021  27.690   7.955
 5940POPC   C4B 8122   9.952  27.609   7.655
 5941POPC   NC3 8123  12.824   6.625   9.455
 5941POPC   PO4 8124  12.845   6.609   9.155
 5941POPC   GL1 8125  12.840   6.634   8.855
 5941POPC   GL2 8126  12.986   6.696   8.855
 5941POPC   C1A 8127  12.816   6.653   8.555
 5941POPC   D2A 8128  12.888   6.608   8.255
 5941POPC   C3A 8129  12.864   6.662   7.955
 5941POPC   C4A 8130  12.814   6.600   7.655
 5941POPC   C1B 8131  13.059   6.651   8.555
 5941POPC   C2B 8132  13.109   6.670   8.255
 5941POPC   C3B 8133  13.056   6.702   7.955
 5941POPC   C4B 8134  13.141   6.649   7.655
 5942POPC   NC3 8135   3.586  37.693   9.455
 5942POPC   PO4 8136   3.554  37.646   9.155
 5942POPC   GL1 8137   3.516  37.687   8.855
 5942POPC   GL2 8138   3.546  37.754   8.855
 5942POPC   C1A 8139   3.503  37.644   8.555
 5942POPC   D2A 8140   3.524  37.728   8.255
 5942POPC   C3A 8141   3.584  37.693   7.955
 5942POPC   C4A 8142   3.569  37.668   7.655
 5942POPC   C1B 8143   3.441  37.923   8.555
 5942POPC   C2B 8144   3.474  37.949   8.255
 5942POPC   C3B 8145   3.423  37.882   7.955
 5942POPC   C4B 8146   3.490  37.962   7.655
 5943POPC   NC3 8147  37.650  44.655   9.455
 5943POPC   PO4 8148  37.699  44.656   9.155
 5943POPC   GL1 8149  37.638  44.687   8.855
 5943POPC   GL2 8150  37.781  44.806   8.855
 5943POPC   C1A 8151  37.638  44.692   8.555
 5943POPC   D2A 8152  37.689  44.702   8.255
 5943POPC   C3A 8153  37.652  44.678   7.955
 5943POPC   C4A 8154  37.650  44.708   7.655
 5943POPC   C1B 8155  37.748  44.868   8.555
 5943POPC   C2B 8156  37.740  44.874   8.255
 5943POPC   C3B 8157  37.816  44.839   7.955
 5943POPC   C4B 8158  37.826  44.878   7.655
 5944POPC   NC3 8159  15.953   2.752   9.455
 5944POPC   PO4 8160  15.964   2.766   9.155
 5944POPC   GL1 8161  15.933   2.744   8.855
 5944POPC   GL2 8162  16.033   2.841   8.855
 5944POPC   C1A 8163  15.909   2.777   8.555
 5944POPC   D2A 8164  15.980   2.720   8.255
 5944POPC   C3A 8165  15.980   2.752   7.955
 5944POPC   C4A 8166  15.965   2.745   7.655
 5944POPC   C1B 8167  16.210   2.866   8.555
 5944POPC   C2B 8168  16.222   2.890   8.255
 5944POPC   C3B 8169  16.172   2.880   7.955
 5944POPC   C4B 8170  16.142   2.834   7.655
 5945POPC   NC3 8171  31.472   2.037   9.455
 5945POPC   PO4 8172  31.438   2.029   9.155
 5945POPC   GL1 8173  31.460   2.005   8.855
 5945POPC   GL2 8174  31.558   2.082   8.855
 5945POPC   C1A 8175  31.486   1.943   8.555
 5945POPC   D2A 8176  31.489   2.012   8.255
 5945POPC   C3A 8177  31.459   1.974   7.955
 5945POPC   C4A 8178  31.522   2.029   7.655
 5945POPC   C1B 8179  31.546   2.220   8.555
 5945POPC   C2B 8180  31.551   2.212   8.255
 5945POPC   C3B 8181  31.528   2.249   7.955
 5945POPC   C4B 8182  31.532   2.189   7.655
 5946POPC   NC3 8183   7.386  37.683   9.455
 5946POPC   PO4 8184   7.464  37.720   9.155
 5946POPC   GL1 8185   7.431  37.670   8.855
 5946POPC   GL2 8186   7.381  37.531   8.855
 5946POPC   C1A 8187   7.393  37.646   8.555
 5946POPC   D2A 8188   7.384  37.708   8.255
 5946POPC   C3A 8189   7.383  37.637   7.955
 5946POPC   C4A 8190   7.444  37.680   7.655
 5946POPC   C1B 8191   7.289  37.474   8.555
 5946POPC   C2B 8192   7.303  37.481   8.255
 5946POPC   C3B 8193   7.267  37.520   7.955
 5946POPC   C4B 8194   7.257  37.502   7.655
 5947POPC   NC3 8195  23.720  32.253   9.455
 5947POPC   PO4 8196  23.672  32.198   9.155
 5947POPC   GL1 8197  23.729  32.200   8.855
 5947POPC   GL2 8198  23.737  32.117   8.855
 5947POPC   C1A 8199  23.730  32.244   8.555
 5947POPC   D2A 8200  23.691  32.205   8.255
 5947POPC   C3A 8201  23.764  32.251   7.955
 5947POPC   C4A 8202  23.764  32.253   7.655
 5947POPC   C1B 8203  23.791  32.007   8.555
 5947POPC   C2B 8204  23.800  32.038   8.255
 5947POPC   C3B 8205  23.789  31.997   7.955
 5947POPC   C4B 8206  23.778  31.978   7.655
 5948POPC   NC3 8207  38.470  36.150   9.455
 5948POPC   PO4 8208  38.442  36.081   9.155
 5948POPC   GL1 8209  38.471  36.083   8.855
 5948POPC   GL2 8210  38.378  36.169   8.855
 5948POPC   C1A 8211  38.491  36.104   8.555
 5948POPC   D2A 8212  38.489  36.084   8.255
 5948POPC   C3A 8213  38.473  36.083   7.955
 5948POPC   C4A 8214  38.406  36.163   7.655
 5948POPC   C1B 8215  38.277  36.237   8.555
 5948POPC   C2B 8216  38.278  36.234   8.255
 5948POPC   C3B 8217  38.258  36.292   7.955
 5948POPC   C4B 8218  38.247  36.247   7.655
 5949POPC   NC3 8219  32.986  20.647   9.455
 5949POPC   PO4 8220  33.020  20.647   9.155
 5949POPC   GL1 8221  33.041  20.607   8.855
 5949POPC   GL2 8222  33.159  20.663   8.855
 5949POPC   C1A 8223  32.977  20.644   8.555
 5949POPC   D2A 8224  33.016  20.598   8.255
 5949POPC   C3A 8225  33.014  20.649   7.955
 5949POPC   C4A 8226  32.989  20.567   7.655
 5949POPC   C1B 8227  33.268  20.694   8.555
 5949POPC   C2B 8228  33.306  20.660   8.255
 5949POPC   C3B 8229  33.258  20.718   7.955
 5949POPC   C4B 8230  33.244  20.671   7.655
 5950POPC   NC3 8231  22.132  19.812   9.455
 5950POPC   PO4 8232  22.129  19.872   9.155
 5950POPC   GL1 8233  22.161  19.792   8.855
 5950POPC   GL2 8234  22.024  19.865   8.855
 5950POPC   C1A 8235  22.167  19.849   8.555
 5950POPC   D2A 8236  22.190  19.796   8.255
 5950POPC   C3A 8237  22.114  19.833   7.955
 5950POPC   C4A 8238  22.170  19.835   7.655
 5950POPC   C1B 8239  21.931  19.915   8.555
 5950POPC   C2B 8240  21.931  19.946   8.255
 5950POPC   C3B 8241  21.924  19.929   7.955
 5950POPC   C4B 8242  21.918  19.896   7.655
 5951POPC   NC3 8243  23.741  26.067   9.455
 5951POPC   PO4 8244  23.760  26.058   9.155
 5951POPC   GL1 8245  23.723  26.016   8.855
 5951POPC   GL2 8246  23.792  26.027   8.855
 5951POPC   C1A 8247  23.679  26.090   8.555
 5951POPC   D2A 8248  23.711  26.018   8.255
 5951POPC   C3A 8249  23.741  25.994   7.955
 5951POPC   C4A 8250  23.720  26.062   7.655
 5951POPC   C1B 8251  23.915  25.986   8.555
 5951POPC   C2B 8252  24.012  26.004   8.255
 5951POPC   C3B 8253  23.943  26.067   7.955
 5951POPC   C4B 8254  24.005  25.998   7.655
 5952POPC   NC3 8255   8.196   2.027   9.455
 5952POPC   PO4 8256   8.175   1.943   9.155
 5952POPC   GL1 8257   8.201   1.951   8.855
 5952POPC   GL2 8258   8.088   1.888   8.855
 5952POPC   C1A 8259   8.152   2.007   8.555
 5952POPC   D2A 8260   8.165   1.966   8.255
 5952POPC   C3A 8261   8.196   1.976   7.955
 5952POPC   C4A 8262   8.194   2.034   7.655
 5952POPC   C1B 8263   8.106   1.801   8.555
 5952POPC   C2B 8264   8.023   1.795   8.255
 5952POPC   C3B 8265   8.052   1.819   7.955
 5952POPC   C4B 8266   8.094   1.776   7.655
 5953POPC   NC3 8267  21.416   7.403   9.455
 5953POPC   PO4 8268  21.345   7.432   9.155
 5953POPC   GL1 8269  21.435   7.420   8.855
 5953POPC   GL2 8270  21.307   7.252   8.855
 5953POPC   C1A 8271  21.395   7.446   8.555
 5953POPC   D2A 8272  21.359   7.412   8.255
 5953POPC   C3A 8273  21.359   7.390   7.955
 5953POPC   C4A 8274  21.393   7.411   7.655
 5953POPC   C1B 8275  21.300   7.169   8.555
 5953POPC   C2B 8276  21.271   7.163   8.255
 5953POPC   C3B 8277  21.357   7.141   7.955
 5953POPC   C4B 8278  21.341   7.144   7.655
 5954POPC   NC3 8279  15.907  11.314   9.455
 5954POPC   PO4 8280  15.982  11.271   9.155
 5954POPC   GL1 8281  15.927  11.298   8.855
 5954POPC   GL2 8282  15.966  11.211   8.855
 5954POPC   C1A 8283  15.939  11.326   8.555
 5954POPC   D2A 8284  15.964  11.288   8.255
 5954POPC   C3A 8285  15.928  11.267   7.955
 5954POPC   C4A 8286  15.907  11.271   7.655
 5954POPC   C1B 8287  15.974  11.011   8.555
 5954POPC   C2B 8288  15.970  11.093   8.255
 5954POPC   C3B 8289  16.004  11.053   7.955
 5954POPC   C4B 8290  16.019  11.019   7.655
 5955POPC   NC3 8291  19.835  41.533   9.455
 5955POPC   PO4 8292  19.791  41.577   9.155
 5955POPC   GL1 8293  19.880  41.600   8.855
 5955POPC   GL2 8294  19.733  41.607   8.855
 5955POPC   C1A 8295  19.873  41.588   8.555
 5955POPC   D2A 8296  19.801  41.513   8.255
 5955POPC   C3A 8297  19.827  41.527   7.955
 5955POPC   C4A 8298  19.866  41.577   7.655
 5955POPC   C1B 8299  19.650  41.686   8.555
 5955POPC   C2B 8300  19.593  41.642   8.255
 5955POPC   C3B 8301  19.631  41.674   7.955
 5955POPC   C4B 8302  19.658  41.673   7.655
 5956POPC   NC3 8303  39.225  33.020   9.455
 5956POPC   PO4 8304  39.224  33.023   9.155
 5956POPC   GL1 8305  39.212  33.054   8.855
 5956POPC   GL2 8306  39.181  33.133   8.855
 5956POPC   C1A 8307  39.213  32.991   8.555
 5956POPC   D2A 8308  39.279  32.996   8.255
 5956POPC   C3A 8309  39.198  32.981   7.955
 5956POPC   C4A 8310  39.264  32.992   7.655
 5956POPC   C1B 8311  39.035  33.222   8.555
 5956POPC   C2B 8312  39.007  33.203   8.255
 5956POPC   C3B 8313  39.025  33.195   7.955
 5956POPC   C4B 8314  39.088  33.209   7.655
 5957POPC   NC3 8315   8.942  29.893   9.455
 5957POPC   PO4 8316   9.001  29.873   9.155
 5957POPC   GL1 8317   8.935  29.930   8.855
 5957POPC   GL2 8318   8.972  29.840   8.855
 5957POPC   C1A 8319   8.989  29.899   8.555
 5957POPC   D2A 8320   9.007  29.945   8.255
 5957POPC   C3A 8321   8.966  29.910   7.955
 5957POPC   C4A 8322   8.962  29.940   7.655
 5957POPC   C1B 8323   8.918  29.667   8.555
 5957POPC   C2B 8324   8.904  29.627   8.255
 5957POPC   C3B 8325   8.930  29.663   7.955
 5957POPC   C4B 8326   8.968  29.673   7.655
 5958POPC   NC3 8327  25.270   5.901   9.455
 5958POPC   PO4 8328  25.257   5.847   9.155
 5958POPC   GL1 8329  25.243   5.913   8.855
 5958POPC   GL2 8330  25.321   5.769   8.855
 5958POPC   C1A 8331  25.262   5.907   8.555
 5958POPC   D2A 8332  25.300   5.895   8.255
 5958POPC   C3A 8333  25.314   5.888   7.955
 5958POPC   C4A 8334  25.293   5.826   7.655
 5958POPC   C1B 8335  25.477   5.682   8.555
 5958POPC   C2B 8336  25.452   5.664   8.255
 5958POPC   C3B 8337  25.460   5.649   7.955
 5958POPC   C4B 8338  25.465   5.708   7.655
 5959POPC   NC3 8339  26.821   6.641   9.455
 5959POPC   PO4 8340  26.840   6.692   9.155
 5959POPC   GL1 8341  26.803   6.649   8.855
 5959POPC   GL2 8342  26.875   6.505   8.855
 5959POPC   C1A 8343  26.841   6.655   8.555
 5959POPC   D2A 8344  26.826   6.654   8.255
 5959POPC   C3A 8345  26.824   6.689   7.955
 5959POPC   C4A 8346  26.832   6.610   7.655
 5959POPC   C1B 8347  26.839   6.380   8.555
 5959POPC   C2B 8348  26.843   6.415   8.255
 5959POPC   C3B 8349  26.881   6.349   7.955
 5959POPC   C4B 8350  26.902   6.424   7.655
 5960POPC   NC3 8351  36.106  15.164   9.455
 5960POPC   PO4 8352  36.129  15.180   9.155
 5960POPC   GL1 8353  36.114  15.226   8.855
 5960POPC   GL2 8354  36.109  15.094   8.855
 5960POPC   C1A 8355  36.095  15.174   8.555
 5960POPC   D2A 8356  36.123  15.217   8.255
 5960POPC   C3A 8357  36.079  15.174   7.955
 5960POPC   C4A 8358  36.175  15.221   7.655
 5960POPC   C1B 8359  36.055  14.958   8.555
 5960POPC   C2B 8360  36.110  14.979   8.255
 5960POPC   C3B 8361  36.035  14.985   7.955
 5960POPC   C4B 8362  36.029  14.886   7.655
 5961POPC   NC3 8363  11.297  10.493   9.455
 5961POPC   PO4 8364  11.316  10.502   9.155
 5961POPC   GL1 8365  11.267  10.476   8.855
 5961POPC   GL2 8366  11.165  10.543   8.855
 5961POPC   C1A 8367  11.342  10.542   8.555
 5961POPC   D2A 8368  11.268  10.537   8.255
 5961POPC   C3A 8369  11.331  10.507   7.955
 5961POPC   C4A 8370  11.347  10.569   7.655
 5961POPC   C1B 8371  11.074  10.471   8.555
 5961POPC   C2B 8372  11.051  10.530   8.255
 5961POPC   C3B 8373  11.040  10.465   7.955
 5961POPC   C4B 8374  11.019  10.527   7.655
 5962POPC   NC3 8375   7.459  29.877   9.455
 5962POPC   PO4 8376   7.388  29.950   9.155
 5962POPC   GL1 8377   7.393  29.969   8.855
 5962POPC   GL2 8378   7.480  30.072   8.855
 5962POPC   C1A 8379   7.400  29.970   8.555
 5962POPC   D2A 8380   7.422  29.899   8.255
 5962POPC   C3A 8381   7.417  29.911   7.955
 5962POPC   C4A 8382   7.408  29.904   7.655
 5962POPC   C1B 8383   7.549  30.134   8.555
 5962POPC   C2B 8384   7.568  30.149   8.255
 5962POPC   C3B 8385   7.522  30.177   7.955
 5962POPC   C4B 8386   7.503  30.138   7.655
 5963POPC   NC3 8387   2.772   2.735   9.455
 5963POPC   PO4 8388   2.749   2.752   9.155
 5963POPC   GL1 8389   2.770   2.780   8.855
 5963POPC   GL2 8390   2.818   2.897   8.855
 5963POPC   C1A 8391   2.757   2.770   8.555
 5963POPC   D2A 8392   2.799   2.767   8.255
 5963POPC   C3A 8393   2.768   2.758   7.955
 5963POPC   C4A 8394   2.740   2.718   7.655
 5963POPC   C1B 8395   2.927   2.941   8.555
 5963POPC   C2B 8396   2.911   2.929   8.255
 5963POPC   C3B 8397   2.909   2.994   7.955
 5963POPC   C4B 8398   2.878   2.965   7.655
 5964POPC   NC3 8399  22.986   3.525   9.455
 5964POPC   PO4 8400  22.891   3.532   9.155
 5964POPC   GL1 8401  22.912   3.591   8.855
 5964POPC   GL2 8402  22.837   3.662   8.855
 5964POPC   C1A 8403  22.939   3.531   8.555
 5964POPC   D2A 8404  22.984   3.583   8.255
 5964POPC   C3A 8405  22.947   3.546   7.955
 5964POPC   C4A 8406  22.949   3.514   7.655
 5964POPC   C1B 8407  22.826   3.719   8.555
 5964POPC   C2B 8408  22.820   3.715   8.255
 5964POPC   C3B 8409  22.775   3.767   7.955
 5964POPC   C4B 8410  22.774   3.783   7.655
 5965POPC   NC3 8411  31.522  17.527   9.455
 5965POPC   PO4 8412  31.479  17.469   9.155
 5965POPC   GL1 8413  31.490  17.534   8.855
 5965POPC   GL2 8414  31.449  17.639   8.855
 5965POPC   C1A 8415  31.447  17.520   8.555
 5965POPC   D2A 8416  31.428  17.477   8.255
 5965POPC   C3A 8417  31.519  17.472   7.955
 5965POPC   C4A 8418  31.505  17.545   7.655
 5965POPC   C1B 8419  31.515  17.737   8.555
 5965POPC   C2B 8420  31.521  17.735   8.255
 5965POPC   C3B 8421  31.572  17.710   7.955
 5965POPC   C4B 8422  31.529  17.767   7.655
 5966POPC   NC3 8423  31.427   8.935   9.455
 5966POPC   PO4 8424  31.512   8.976   9.155
 5966POPC   GL1 8425  31.511   8.953   8.855
 5966POPC   GL2 8426  31.342   9.046   8.855
 5966POPC   C1A 8427  31.470   8.992   8.555
 5966POPC   D2A 8428  31.511   9.016   8.255
 5966POPC   C3A 8429  31.490   8.959   7.955
 5966POPC   C4A 8430  31.511   8.923   7.655
 5966POPC   C1B 8431  31.226   9.026   8.555
 5966POPC   C2B 8432  31.197   9.063   8.255
 5966POPC   C3B 8433  31.266   9.046   7.955
 5966POPC   C4B 8434  31.208   9.057   7.655
 5967POPC   NC3 8435  28.350   1.994   9.455
 5967POPC   PO4 8436  28.354   1.951   9.155
 5967POPC   GL1 8437  28.391   1.946   8.855
 5967POPC   GL2 8438  28.494   1.891   8.855
 5967POPC   C1A 8439  28.364   1.940   8.555
 5967POPC   D2A 8440  28.349   1.993   8.255
 5967POPC   C3A 8441  28.348   1.944   7.955
 5967POPC   C4A 8442  28.401   1.942   7.655
 5967POPC   C1B 8443  28.580   1.776   8.555
 5967POPC   C2B 8444  28.553   1.783   8.255
 5967POPC   C3B 8445  28.556   1.779   7.955
 5967POPC   C4B 8446  28.553   1.830   7.655
 5968POPC   NC3 8447  19.095  39.183   9.455
 5968POPC   PO4 8448  19.044  39.189   9.155
 5968POPC   GL1 8449  19.099  39.184   8.855
 5968POPC   GL2 8450  19.153  39.288   8.855
 5968POPC   C1A 8451  19.094  39.239   8.555
 5968POPC   D2A 8452  19.103  39.271   8.255
 5968POPC   C3A 8453  19.106  39.214   7.955
 5968POPC   C4A 8454  19.099  39.187   7.655
 5968POPC   C1B 8455  19.266  39.239   8.555
 5968POPC   C2B 8456  19.317  39.306   8.255
 5968POPC   C3B 8457  19.335  39.327   7.955
 5968POPC   C4B 8458  19.319  39.280   7.655
 5969POPC   NC3 8459  37.642  15.962   9.455
 5969POPC   PO4 8460  37.694  15.981   9.155
 5969POPC   GL1 8461  37.682  15.962   8.855
 5969POPC   GL2 8462  37.803  15.908   8.855
 5969POPC   C1A 8463  37.631  15.975   8.555
 5969POPC   D2A 8464  37.717  15.948   8.255
 5969POPC   C3A 8465  37.675  15.993   7.955
 5969POPC   C4A 8466  37.656  15.961   7.655
 5969POPC   C1B 8467  37.810  15.734   8.555
 5969POPC   C2B 8468  37.819  15.727   8.255
 5969POPC   C3B 8469  37.855  15.822   7.955
 5969POPC   C4B 8470  37.827  15.787   7.655
 5970POPC   NC3 8471  42.304  30.712   9.455
 5970POPC   PO4 8472  42.330  30.675   9.155
 5970POPC   GL1 8473  42.371  30.705   8.855
 5970POPC   GL2 8474  42.165  30.731   8.855
 5970POPC   C1A 8475  42.287  30.714   8.555
 5970POPC   D2A 8476  42.328  30.694   8.255
 5970POPC   C3A 8477  42.301  30.724   7.955
 5970POPC   C4A 8478  42.357  30.659   7.655
 5970POPC   C1B 8479  42.130  30.794   8.555
 5970POPC   C2B 8480  42.056  30.799   8.255
 5970POPC   C3B 8481  42.094  30.790   7.955
 5970POPC   C4B 8482  42.134  30.734   7.655
 5971POPC   NC3 8483  12.834  19.011   9.455
 5971POPC   PO4 8484  12.864  19.016   9.155
 5971POPC   GL1 8485  12.844  19.016   8.855
 5971POPC   GL2 8486  12.905  18.976   8.855
 5971POPC   C1A 8487  12.861  19.065   8.555
 5971POPC   D2A 8488  12.835  19.095   8.255
 5971POPC   C3A 8489  12.896  19.085   7.955
 5971POPC   C4A 8490  12.809  19.089   7.655
 5971POPC   C1B 8491  12.992  18.894   8.555
 5971POPC   C2B 8492  13.052  18.885   8.255
 5971POPC   C3B 8493  13.015  18.889   7.955
 5971POPC   C4B 8494  13.080  18.835   7.655
 5972POPC   NC3 8495  19.060  14.395   9.455
 5972POPC   PO4 8496  19.013  14.393   9.155
 5972POPC   GL1 8497  19.097  14.405   8.855
 5972POPC   GL2 8498  18.970  14.420   8.855
 5972POPC   C1A 8499  19.088  14.444   8.555
 5972POPC   D2A 8500  19.016  14.430   8.255
 5972POPC   C3A 8501  19.041  14.412   7.955
 5972POPC   C4A 8502  19.027  14.431   7.655
 5972POPC   C1B 8503  18.825  14.453   8.555
 5972POPC   C2B 8504  18.856  14.485   8.255
 5972POPC   C3B 8505  18.833  14.494   7.955
 5972POPC   C4B 8506  18.782  14.545   7.655
 5973POPC   NC3 8507   6.597  12.804   9.455
 5973POPC   PO4 8508   6.644  12.813   9.155
 5973POPC   GL1 8509   6.668  12.873   8.855
 5973POPC   GL2 8510   6.719  12.708   8.855
 5973POPC   C1A 8511   6.638  12.895   8.555
 5973POPC   D2A 8512   6.656  12.874   8.255
 5973POPC   C3A 8513   6.627  12.827   7.955
 5973POPC   C4A 8514   6.613  12.821   7.655
 5973POPC   C1B 8515   6.741  12.636   8.555
 5973POPC   C2B 8516   6.772  12.596   8.255
 5973POPC   C3B 8517   6.762  12.578   7.955
 5973POPC   C4B 8518   6.702  12.581   7.655
 5974POPC   NC3 8519  26.808  22.896   9.455
 5974POPC   PO4 8520  26.781  22.904   9.155
 5974POPC   GL1 8521  26.835  22.892   8.855
 5974POPC   GL2 8522  26.861  22.784   8.855
 5974POPC   C1A 8523  26.834  22.914   8.555
 5974POPC   D2A 8524  26.812  22.931   8.255
 5974POPC   C3A 8525  26.798  22.911   7.955
 5974POPC   C4A 8526  26.812  22.988   7.655
 5974POPC   C1B 8527  26.821  22.638   8.555
 5974POPC   C2B 8528  26.832  22.700   8.255
 5974POPC   C3B 8529  26.855  22.639   7.955
 5974POPC   C4B 8530  26.845  22.698   7.655
 5975POPC   NC3 8531   8.220  23.755   9.455
 5975POPC   PO4 8532   8.153  23.679   9.155
 5975POPC   GL1 8533   8.244  23.702   8.855
 5975POPC   GL2 8534   8.195  23.638   8.855
 5975POPC   C1A 8535   8.211  23.744   8.555
 5975POPC   D2A 8536   8.222  23.671   8.255
 5975POPC   C3A 8537   8.230  23.679   7.955
 5975POPC   C4A 8538   8.216  23.689   7.655
 5975POPC   C1B 8539   8.188  23.457   8.555
 5975POPC   C2B 8540   8.142  23.483   8.255
 5975POPC   C3B 8541   8.114  23.437   7.955
 5975POPC   C4B 8542   8.119  23.511   7.655
 5976POPC   NC3 8543  39.274  19.825   9.455
 5976POPC   PO4 8544  39.204  19.794   9.155
 5976POPC   GL1 8545  39.280  19.804   8.855
 5976POPC   GL2 8546  39.208  19.727   8.855
 5976POPC   C1A 8547  39.251  19.881   8.555
 5976POPC   D2A 8548  39.253  19.856   8.255
 5976POPC   C3A 8549  39.241  19.807   7.955
 5976POPC   C4A 8550  39.247  19.842   7.655
 5976POPC   C1B 8551  39.212  19.589   8.555
 5976POPC   C2B 8552  39.186  19.562   8.255
 5976POPC   C3B 8553  39.160  19.540   7.955
 5976POPC   C4B 8554  39.243  19.584   7.655
 5977POPC   NC3 8555  25.310  19.788   9.455
 5977POPC   PO4 8556  25.288  19.809   9.155
 5977POPC   GL1 8557  25.278  19.837   8.855
 5977POPC   GL2 8558  25.224  19.686   8.855
 5977POPC   C1A 8559  25.279  19.843   8.555
 5977POPC   D2A 8560  25.227  19.835   8.255
 5977POPC   C3A 8561  25.231  19.875   7.955
 5977POPC   C4A 8562  25.238  19.786   7.655
 5977POPC   C1B 8563  25.118  19.602   8.555
 5977POPC   C2B 8564  25.182  19.600   8.255
 5977POPC   C3B 8565  25.118  19.631   7.955
 5977POPC   C4B 8566  25.197  19.612   7.655
 5978POPC   NC3 8567  15.139  12.885   9.455
 5978POPC   PO4 8568  15.207  12.843   9.155
 5978POPC   GL1 8569  15.181  12.871   8.855
 5978POPC   GL2 8570  15.125  12.758   8.855
 5978POPC   C1A 8571  15.193  12.824   8.555
 5978POPC   D2A 8572  15.144  12.859   8.255
 5978POPC   C3A 8573  15.190  12.856   7.955
 5978POPC   C4A 8574  15.148  12.854   7.655
 5978POPC   C1B 8575  15.071  12.578   8.555
 5978POPC   C2B 8576  15.131  12.622   8.255
 5978POPC   C3B 8577  15.128  12.590   7.955
 5978POPC   C4B 8578  15.083  12.609   7.655
 5979POPC   NC3 8579   8.969  26.081   9.455
 5979POPC   PO4 8580   9.001  26.047   9.155
 5979POPC   GL1 8581   8.955  26.024   8.855
 5979POPC   GL2 8582   8.913  26.179   8.855
 5979POPC   C1A 8583   8.970  26.088   8.555
 5979POPC   D2A 8584   8.980  26.058   8.255
 5979POPC   C3A 8585   8.967  26.033   7.955
 5979POPC   C4A 8586   9.008  26.009   7.655
 5979POPC   C1B 8587   8.770  26.176   8.555
 5979POPC   C2B 8588   8.829  26.240   8.255
 5979POPC   C3B 8589   8.833  26.182   7.955
 5979POPC   C4B 8590   8.787  26.269   7.655
 5980POPC   NC3 8591   4.309  40.803   9.455
 5980POPC   PO4 8592   4.292  40.782   9.155
 5980POPC   GL1 8593   4.287  40.822   8.855
 5980POPC   GL2 8594   4.369  40.916   8.855
 5980POPC   C1A 8595   4.356  40.814   8.555
 5980POPC   D2A 8596   4.367  40.766   8.255
 5980POPC   C3A 8597   4.352  40.747   7.955
 5980POPC   C4A 8598   4.291  40.767   7.655
 5980POPC   C1B 8599   4.368  40.978   8.555
 5980POPC   C2B 8600   4.442  41.064   8.255
 5980POPC   C3B 8601   4.374  41.054   7.955
 5980POPC   C4B 8602   4.360  41.049   7.655
 5981POPC   NC3 8603  23.749  41.555   9.455
 5981POPC   PO4 8604  23.746  41.584   9.155
 5981POPC   GL1 8605  23.736  41.516   8.855
 5981POPC   GL2 8606  23.627  41.636   8.855
 5981POPC   C1A 8607  23.750  41.518   8.555
 5981POPC   D2A 8608  23.676  41.594   8.255
 5981POPC   C3A 8609  23.749  41.595   7.955
 5981POPC   C4A 8610  23.741  41.565   7.655
 5981POPC   C1B 8611  23.639  41.791   8.555
 5981POPC   C2B 8612  23.608  41.803   8.255
 5981POPC   C3B 8613  23.632  41.762   7.955
 5981POPC   C4B 8614  23.613  41.809   7.655
 5982POPC   NC3 8615   8.996  29.132   9.455
 5982POPC   PO4 8616   8.993  29.141   9.155
 5982POPC   GL1 8617   8.997  29.115   8.855
 5982POPC   GL2 8618   8.833  29.085   8.855
 5982POPC   C1A 8619   8.929  29.135   8.555
 5982POPC   D2A 8620   8.963  29.132   8.255
 5982POPC   C3A 8621   8.957  29.120   7.955
 5982POPC   C4A 8622   9.017  29.117   7.655
 5982POPC   C1B 8623   8.810  28.956   8.555
 5982POPC   C2B 8624   8.771  29.016   8.255
 5982POPC   C3B 8625   8.795  29.036   7.955
 5982POPC   C4B 8626   8.765  29.024   7.655
 5983POPC   NC3 8627  23.710  27.613   9.455
 5983POPC   PO4 8628  23.735  27.565   9.155
 5983POPC   GL1 8629  23.665  27.626   8.855
 5983POPC   GL2 8630  23.846  27.591   8.855
 5983POPC   C1A 8631  23.693  27.546   8.555
 5983POPC   D2A 8632  23.745  27.602   8.255
 5983POPC   C3A 8633  23.687  27.616   7.955
 5983POPC   C4A 8634  23.710  27.609   7.655
 5983POPC   C1B 8635  23.937  27.577   8.555
 5983POPC   C2B 8636  23.962  27.569   8.255
 5983POPC   C3B 8637  23.974  27.641   7.955
 5983POPC   C4B 8638  23.981  27.605   7.655
 5984POPC   NC3 8639  37.658  12.893   9.455
 5984POPC   PO4 8640  37.639  12.853   9.155
 5984POPC   GL1 8641  37.662  12.889   8.855
 5984POPC   GL2 8642  37.729  12.943   8.855
 5984POPC   C1A 8643  37.723  12.871   8.555
 5984POPC   D2A 8644  37.652  12.872   8.255
 5984POPC   C3A 8645  37.638  12.832   7.955
 5984POPC   C4A 8646  37.654  12.844   7.655
 5984POPC   C1B 8647  37.869  13.019   8.555
 5984POPC   C2B 8648  37.856  13.084   8.255
 5984POPC   C3B 8649  37.794  13.031   7.955
 5984POPC   C4B 8650  37.836  13.090   7.655
 5985POPC   NC3 8651  23.688  36.097   9.455
 5985POPC   PO4 8652  23.701  36.130   9.155
 5985POPC   GL1 8653  23.727  36.152   8.855
 5985POPC   GL2 8654  23.681  36.253   8.855
 5985POPC   C1A 8655  23.686  36.162   8.555
 5985POPC   D2A 8656  23.696  36.094   8.255
 5985POPC   C3A 8657  23.679  36.106   7.955
 5985POPC   C4A 8658  23.677  36.109   7.655
 5985POPC   C1B 8659  23.577  36.386   8.555
 5985POPC   C2B 8660  23.567  36.362   8.255
 5985POPC   C3B 8661  23.605  36.379   7.955
 5985POPC   C4B 8662  23.609  36.337   7.655
 5986POPC   NC3 8663  10.483  10.551   9.455
 5986POPC   PO4 8664  10.491  10.564   9.155
 5986POPC   GL1 8665  10.504  10.569   8.855
 5986POPC   GL2 8666  10.573  10.599   8.855
 5986POPC   C1A 8667  10.497  10.482   8.555
 5986POPC   D2A 8668  10.548  10.499   8.255
 5986POPC   C3A 8669  10.516  10.550   7.955
 5986POPC   C4A 8670  10.550  10.510   7.655
 5986POPC   C1B 8671  10.596  10.806   8.555
 5986POPC   C2B 8672  10.605  10.731   8.255
 5986POPC   C3B 8673  10.518  10.782   7.955
 5986POPC   C4B 8674  10.589  10.766   7.655
 5987POPC   NC3 8675  40.770  33.831   9.455
 5987POPC   PO4 8676  40.824  33.786   9.155
 5987POPC   GL1 8677  40.765  33.795   8.855
 5987POPC   GL2 8678  40.868  33.907   8.855
 5987POPC   C1A 8679  40.813  33.817   8.555
 5987POPC   D2A 8680  40.736  33.847   8.255
 5987POPC   C3A 8681  40.818  33.819   7.955
 5987POPC   C4A 8682  40.770  33.817   7.655
 5987POPC   C1B 8683  40.873  33.991   8.555
 5987POPC   C2B 8684  40.918  34.018   8.255
 5987POPC   C3B 8685  40.937  34.002   7.955
 5987POPC   C4B 8686  40.915  33.988   7.655
 5988POPC   NC3 8687  35.305  42.330   9.455
 5988POPC   PO4 8688  35.401  42.294   9.155
 5988POPC   GL1 8689  35.389  42.317   8.855
 5988POPC   GL2 8690  35.319  42.418   8.855
 5988POPC   C1A 8691  35.379  42.306   8.555
 5988POPC   D2A 8692  35.341  42.339   8.255
 5988POPC   C3A 8693  35.305  42.366   7.955
 5988POPC   C4A 8694  35.344  42.292   7.655
 5988POPC   C1B 8695  35.353  42.593   8.555
 5988POPC   C2B 8696  35.377  42.613   8.255
 5988POPC   C3B 8697  35.359  42.625   7.955
 5988POPC   C4B 8698  35.383  42.584   7.655
 5989POPC   NC3 8699  38.470   1.181   9.455
 5989POPC   PO4 8700  38.449   1.164   9.155
 5989POPC   GL1 8701  38.457   1.174   8.855
 5989POPC   GL2 8702  38.496   1.276   8.855
 5989POPC   C1A 8703  38.437   1.211   8.555
 5989POPC   D2A 8704  38.429   1.179   8.255
 5989POPC   C3A 8705  38.436   1.177   7.955
 5989POPC   C4A 8706  38.481   1.239   7.655
 5989POPC   C1B 8707  38.627   1.381   8.555
 5989POPC   C2B 8708  38.580   1.393   8.255
 5989POPC   C3B 8709  38.593   1.380   7.955
 5989POPC   C4B 8710  38.553   1.391   7.655
 5990POPC   NC3 8711  39.253  40.039   9.455
 5990POPC   PO4 8712  39.203  40.044   9.155
 5990POPC   GL1 8713  39.231  40.024   8.855
 5990POPC   GL2 8714  39.312  40.133   8.855
 5990POPC   C1A 8715  39.251  40.009   8.555
 5990POPC   D2A 8716  39.241  39.992   8.255
 5990POPC   C3A 8717  39.260  39.993   7.955
 5990POPC   C4A 8718  39.233  40.036   7.655
 5990POPC   C1B 8719  39.438  40.204   8.555
 5990POPC   C2B 8720  39.383  40.177   8.255
 5990POPC   C3B 8721  39.371  40.180   7.955
 5990POPC   C4B 8722  39.388  40.149   7.655
 5991POPC   NC3 8723  36.860  26.051   9.455
 5991POPC   PO4 8724  36.893  26.004   9.155
 5991POPC   GL1 8725  36.885  26.013   8.855
 5991POPC   GL2 8726  36.833  25.932   8.855
 5991POPC   C1A 8727  36.887  26.014   8.555
 5991POPC   D2A 8728  36.953  26.044   8.255
 5991POPC   C3A 8729  36.886  26.003   7.955
 5991POPC   C4A 8730  36.936  26.082   7.655
 5991POPC   C1B 8731  36.707  25.858   8.555
 5991POPC   C2B 8732  36.660  25.910   8.255
 5991POPC   C3B 8733  36.725  25.914   7.955
 5991POPC   C4B 8734  36.690  25.877   7.655
 5992POPC   NC3 8735  22.185   5.829   9.455
 5992POPC   PO4 8736  22.166   5.831   9.155
 5992POPC   GL1 8737  22.185   5.828   8.855
 5992POPC   GL2 8738  22.290   5.830   8.855
 5992POPC   C1A 8739  22.138   5.847   8.555
 5992POPC   D2A 8740  22.197   5.850   8.255
 5992POPC   C3A 8741  22.148   5.880   7.955
 5992POPC   C4A 8742  22.151   5.904   7.655
 5992POPC   C1B 8743  22.418   5.804   8.555
 5992POPC   C2B 8744  22.442   5.878   8.255
 5992POPC   C3B 8745  22.374   5.838   7.955
 5992POPC   C4B 8746  22.365   5.815   7.655
 5993POPC   NC3 8747  34.588   5.065   9.455
 5993POPC   PO4 8748  34.542   5.138   9.155
 5993POPC   GL1 8749  34.614   5.120   8.855
 5993POPC   GL2 8750  34.558   5.201   8.855
 5993POPC   C1A 8751  34.569   5.094   8.555
 5993POPC   D2A 8752  34.578   5.105   8.255
 5993POPC   C3A 8753  34.527   5.110   7.955
 5993POPC   C4A 8754  34.542   5.092   7.655
 5993POPC   C1B 8755  34.541   5.366   8.555
 5993POPC   C2B 8756  34.507   5.353   8.255
 5993POPC   C3B 8757  34.496   5.304   7.955
 5993POPC   C4B 8758  34.538   5.288   7.655
 5994POPC   NC3 8759   4.267  33.751   9.455
 5994POPC   PO4 8760   4.269  33.753   9.155
 5994POPC   GL1 8761   4.270  33.819   8.855
 5994POPC   GL2 8762   4.437  33.810   8.855
 5994POPC   C1A 8763   4.268  33.823   8.555
 5994POPC   D2A 8764   4.351  33.838   8.255
 5994POPC   C3A 8765   4.278  33.752   7.955
 5994POPC   C4A 8766   4.280  33.792   7.655
 5994POPC   C1B 8767   4.534  33.795   8.555
 5994POPC   C2B 8768   4.559  33.774   8.255
 5994POPC   C3B 8769   4.560  33.776   7.955
 5994POPC   C4B 8770   4.598  33.772   7.655
 5995POPC   NC3 8771  33.787  33.765   9.455
 5995POPC   PO4 8772  33.844  33.797   9.155
 5995POPC   GL1 8773  33.824  33.768   8.855
 5995POPC   GL2 8774  33.754  33.660   8.855
 5995POPC   C1A 8775  33.775  33.828   8.555
 5995POPC   D2A 8776  33.805  33.773   8.255
 5995POPC   C3A 8777  33.833  33.785   7.955
 5995POPC   C4A 8778  33.802  33.818   7.655
 5995POPC   C1B 8779  33.613  33.558   8.555
 5995POPC   C2B 8780  33.663  33.588   8.255
 5995POPC   C3B 8781  33.633  33.641   7.955
 5995POPC   C4B 8782  33.700  33.599   7.655
 5996POPC   NC3 8783  21.360  38.443   9.455
 5996POPC   PO4 8784  21.379  38.425   9.155
 5996POPC   GL1 8785  21.417  38.445   8.855
 5996POPC   GL2 8786  21.426  38.533   8.855
 5996POPC   C1A 8787  21.350  38.491   8.555
 5996POPC   D2A 8788  21.432  38.445   8.255
 5996POPC   C3A 8789  21.349  38.462   7.955
 5996POPC   C4A 8790  21.357  38.436   7.655
 5996POPC   C1B 8791  21.392  38.708   8.555
 5996POPC   C2B 8792  21.363  38.750   8.255
 5996POPC   C3B 8793  21.334  38.719   7.955
 5996POPC   C4B 8794  21.358  38.667   7.655
 5997POPC   NC3 8795   4.276   2.739   9.455
 5997POPC   PO4 8796   4.280   2.725   9.155
 5997POPC   GL1 8797   4.335   2.792   8.855
 5997POPC   GL2 8798   4.474   2.804   8.855
 5997POPC   C1A 8799   4.339   2.810   8.555
 5997POPC   D2A 8800   4.357   2.762   8.255
 5997POPC   C3A 8801   4.363   2.717   7.955
 5997POPC   C4A 8802   4.307   2.761   7.655
 5997POPC   C1B 8803   4.570   2.741   8.555
 5997POPC   C2B 8804   4.559   2.792   8.255
 5997POPC   C3B 8805   4.592   2.835   7.955
 5997POPC   C4B 8806   4.557   2.747   7.655
 5998POPC   NC3 8807  21.377  34.586   9.455
 5998POPC   PO4 8808  21.413  34.614   9.155
 5998POPC   GL1 8809  21.355  34.621   8.855
 5998POPC   GL2 8810  21.307  34.439   8.855
 5998POPC   C1A 8811  21.409  34.617   8.555
 5998POPC   D2A 8812  21.338  34.623   8.255
 5998POPC   C3A 8813  21.376  34.618   7.955
 5998POPC   C4A 8814  21.366  34.569   7.655
 5998POPC   C1B 8815  21.255  34.319   8.555
 5998POPC   C2B 8816  21.243  34.357   8.255
 5998POPC   C3B 8817  21.218  34.335   7.955
 5998POPC   C4B 8818  21.309  34.406   7.655
 5999POPC   NC3 8819  34.596   6.667   9.455
 5999POPC   PO4 8820  34.620   6.663   9.155
 5999POPC   GL1 8821  34.623   6.598   8.855
 5999POPC   GL2 8822  34.560   6.546   8.855
 5999POPC   C1A 8823  34.596   6.624   8.555
 5999POPC   D2A 8824  34.614   6.628   8.255
 5999POPC   C3A 8825  34.546   6.635   7.955
 5999POPC   C4A 8826  34.577   6.640   7.655
 5999POPC   C1B 8827  34.591   6.435   8.555
 5999POPC   C2B 8828  34.535   6.346   8.255
 5999POPC   C3B 8829  34.573   6.382   7.955
 5999POPC   C4B 8830  34.607   6.395   7.655
 6000POPC   NC3 8831   5.897   5.060   9.455
 6000POPC   PO4 8832   5.837   5.052   9.155
 6000POPC   GL1 8833   5.901   5.104   8.855
 6000POPC   GL2 8834   5.945   5.004   8.855
 6000POPC   C1A 8835   5.904   5.077   8.555
 6000POPC   D2A 8836   5.857   5.104   8.255
 6000POPC   C3A 8837   5.909   5.043   7.955
 6000POPC   C4A 8838   5.911   5.091   7.655
 6000POPC   C1B 8839   6.096   4.987   8.555
 6000POPC   C2B 8840   6.099   4.895   8.255
 6000POPC   C3B 8841   6.059   4.987   7.955
 6000POPC   C4B 8842   6.021   4.906   7.655
 6001POPC   NC3 8843  29.897  42.330   9.455
 6001POPC   PO4 8844  29.876  42.291   9.155
 6001POPC   GL1 8845  29.901  42.326   8.855
 6001POPC   GL2 8846  29.933  42.425   8.855
 6001POPC   C1A 8847  29.885  42.306   8.555
 6001POPC   D2A 8848  29.886  42.292   8.255
 6001POPC   C3A 8849  29.893  42.287   7.955
 6001POPC   C4A 8850  29.957  42.331   7.655
 6001POPC   C1B 8851  29.854  42.602   8.555
 6001POPC   C2B 8852  29.843  42.580   8.255
 6001POPC   C3B 8853  29.867  42.627   7.955
 6001POPC   C4B 8854  29.860  42.619   7.655
 6002POPC   NC3 8855  38.503  35.361   9.455
 6002POPC   PO4 8856  38.486  35.390   9.155
 6002POPC   GL1 8857  38.465  35.377   8.855
 6002POPC   GL2 8858  38.298  35.325   8.855
 6002POPC   C1A 8859  38.437  35.303   8.555
 6002POPC   D2A 8860  38.470  35.367   8.255
 6002POPC   C3A 8861  38.407  35.361   7.955
 6002POPC   C4A 8862  38.477  35.336   7.655
 6002POPC   C1B 8863  38.168  35.383   8.555
 6002POPC   C2B 8864  38.207  35.391   8.255
 6002POPC   C3B 8865  38.247  35.393   7.955
 6002POPC   C4B 8866  38.238  35.304   7.655
 6003POPC   NC3 8867   8.947  24.475   9.455
 6003POPC   PO4 8868   9.014  24.527   9.155
 6003POPC   GL1 8869   8.942  24.459   8.855
 6003POPC   GL2 8870   8.879  24.441   8.855
 6003POPC   C1A 8871   8.933  24.520   8.555
 6003POPC   D2A 8872   8.965  24.485   8.255
 6003POPC   C3A 8873   8.928  24.522   7.955
 6003POPC   C4A 8874   8.976  24.462   7.655
 6003POPC   C1B 8875   8.810  24.330   8.555
 6003POPC   C2B 8876   8.772  24.372   8.255
 6003POPC   C3B 8877   8.718  24.394   7.955
 6003POPC   C4B 8878   8.773  24.328   7.655
 6004POPC   NC3 8879  16.741  15.158   9.455
 6004POPC   PO4 8880  16.777  15.209   9.155
 6004POPC   GL1 8881  16.739  15.173   8.855
 6004POPC   GL2 8882  16.782  15.062   8.855
 6004POPC   C1A 8883  16.729  15.219   8.555
 6004POPC   D2A 8884  16.758  15.139   8.255
 6004POPC   C3A 8885  16.727  15.176   7.955
 6004POPC   C4A 8886  16.761  15.191   7.655
 6004POPC   C1B 8887  16.899  15.010   8.555
 6004POPC   C2B 8888  16.942  14.947   8.255
 6004POPC   C3B 8889  16.915  15.015   7.955
 6004POPC   C4B 8890  16.890  14.972   7.655
 6005POPC   NC3 8891  29.943  34.603   9.455
 6005POPC   PO4 8892  29.959  34.616   9.155
 6005POPC   GL1 8893  29.895  34.597   8.855
 6005POPC   GL2 8894  29.901  34.455   8.855
 6005POPC   C1A 8895  29.879  34.592   8.555
 6005POPC   D2A 8896  29.873  34.576   8.255
 6005POPC   C3A 8897  29.916  34.535   7.955
 6005POPC   C4A 8898  29.887  34.584   7.655
 6005POPC   C1B 8899  29.835  34.314   8.555
 6005POPC   C2B 8900  29.836  34.341   8.255
 6005POPC   C3B 8901  29.817  34.305   7.955
 6005POPC   C4B 8902  29.836  34.309   7.655
 6006POPC   NC3 8903  12.885  11.273   9.455
 6006POPC   PO4 8904  12.868  11.291   9.155
 6006POPC   GL1 8905  12.878  11.261   8.855
 6006POPC   GL2 8906  12.937  11.244   8.855
 6006POPC   C1A 8907  12.827  11.328   8.555
 6006POPC   D2A 8908  12.811  11.349   8.255
 6006POPC   C3A 8909  12.865  11.281   7.955
 6006POPC   C4A 8910  12.869  11.275   7.655
 6006POPC   C1B 8911  13.103  11.204   8.555
 6006POPC   C2B 8912  13.079  11.172   8.255
 6006POPC   C3B 8913  13.057  11.233   7.955
 6006POPC   C4B 8914  13.042  11.169   7.655
 6007POPC   NC3 8915  10.504  40.017   9.455
 6007POPC   PO4 8916  10.557  39.992   9.155
 6007POPC   GL1 8917  10.536  39.973   8.855
 6007POPC   GL2 8918  10.570  39.903   8.855
 6007POPC   C1A 8919  10.554  40.051   8.555
 6007POPC   D2A 8920  10.478  39.980   8.255
 6007POPC   C3A 8921  10.509  39.987   7.955
 6007POPC   C4A 8922  10.505  40.004   7.655
 6007POPC   C1B 8923  10.583  39.788   8.555
 6007POPC   C2B 8924  10.585  39.739   8.255
 6007POPC   C3B 8925  10.579  39.784   7.955
 6007POPC   C4B 8926  10.539  39.770   7.655
 6008POPC   NC3 8927   8.925   9.771   9.455
 6008POPC   PO4 8928   8.960   9.710   9.155
 6008POPC   GL1 8929   9.006   9.729   8.855
 6008POPC   GL2 8930   8.895   9.702   8.855
 6008POPC   C1A 8931   8.925   9.737   8.555
 6008POPC   D2A 8932   8.946   9.786   8.255
 6008POPC   C3A 8933   8.940   9.761   7.955
 6008POPC   C4A 8934   8.954   9.733   7.655
 6008POPC   C1B 8935   8.751   9.651   8.555
 6008POPC   C2B 8936   8.706   9.740   8.255
 6008POPC   C3B 8937   8.736   9.660   7.955
 6008POPC   C4B 8938   8.773   9.684   7.655
 6009POPC   NC3 8939  21.359  42.333   9.455
 6009POPC   PO4 8940  21.406  42.342   9.155
 6009POPC   GL1 8941  21.366  42.303   8.855
 6009POPC   GL2 8942  21.345  42.388   8.855
 6009POPC   C1A 8943  21.367  42.382   8.555
 6009POPC   D2A 8944  21.344  42.335   8.255
 6009POPC   C3A 8945  21.403  42.345   7.955
 6009POPC   C4A 8946  21.434  42.348   7.655
 6009POPC   C1B 8947  21.269  42.518   8.555
 6009POPC   C2B 8948  21.225  42.548   8.255
 6009POPC   C3B 8949  21.195  42.536   7.955
 6009POPC   C4B 8950  21.244  42.555   7.655
 6010POPC   NC3 8951   5.087  35.314   9.455
 6010POPC   PO4 8952   5.062  35.401   9.155
 6010POPC   GL1 8953   5.083  35.396   8.855
 6010POPC   GL2 8954   5.233  35.259   8.855
 6010POPC   C1A 8955   5.131  35.310   8.555
 6010POPC   D2A 8956   5.109  35.345   8.255
 6010POPC   C3A 8957   5.127  35.381   7.955
 6010POPC   C4A 8958   5.130  35.377   7.655
 6010POPC   C1B 8959   5.368  35.287   8.555
 6010POPC   C2B 8960   5.344  35.273   8.255
 6010POPC   C3B 8961   5.343  35.245   7.955
 6010POPC   C4B 8962   5.356  35.282   7.655
 6011POPC   NC3 8963  22.199  22.169   9.455
 6011POPC   PO4 8964  22.209  22.129   9.155
 6011POPC   GL1 8965  22.136  22.191   8.855
 6011POPC   GL2 8966  22.027  22.050   8.855
 6011POPC   C1A 8967  22.176  22.119   8.555
 6011POPC   D2A 8968  22.178  22.141   8.255
 6011POPC   C3A 8969  22.134  22.137   7.955
 6011POPC   C4A 8970  22.150  22.201   7.655
 6011POPC   C1B 8971  21.930  22.063   8.555
 6011POPC   C2B 8972  21.979  21.998   8.255
 6011POPC   C3B 8973  21.951  22.043   7.955
 6011POPC   C4B 8974  21.989  22.065   7.655
 6012POPC   NC3 8975  36.933  12.901   9.455
 6012POPC   PO4 8976  36.901  12.843   9.155
 6012POPC   GL1 8977  36.911  12.815   8.855
 6012POPC   GL2 8978  37.061  12.819   8.855
 6012POPC   C1A 8979  36.938  12.813   8.555
 6012POPC   D2A 8980  36.931  12.839   8.255
 6012POPC   C3A 8981  36.917  12.810   7.955
 6012POPC   C4A 8982  36.952  12.830   7.655
 6012POPC   C1B 8983  37.168  12.880   8.555
 6012POPC   C2B 8984  37.117  12.912   8.255
 6012POPC   C3B 8985  37.130  12.825   7.955
 6012POPC   C4B 8986  37.108  12.860   7.655
 6013POPC   NC3 8987  43.102  36.117   9.455
 6013POPC   PO4 8988  43.089  36.135   9.155
 6013POPC   GL1 8989  43.072  36.097   8.855
 6013POPC   GL2 8990  42.953  36.123   8.855
 6013POPC   C1A 8991  43.152  36.140   8.555
 6013POPC   D2A 8992  43.083  36.164   8.255
 6013POPC   C3A 8993  43.110  36.177   7.955
 6013POPC   C4A 8994  43.125  36.114   7.655
 6013POPC   C1B 8995  42.859  36.173   8.555
 6013POPC   C2B 8996  42.896  36.213   8.255
 6013POPC   C3B 8997  42.865  36.159   7.955
 6013POPC   C4B 8998  42.880  36.192   7.655
 6014POPC   NC3 8999   1.958   1.207   9.455
 6014POPC   PO4 9000   2.014   1.244   9.155
 6014POPC   GL1 9001   1.952   1.238   8.855
 6014POPC   GL2 9002   1.977   1.290   8.855
 6014POPC   C1A 9003   1.965   1.244   8.555
 6014POPC   D2A 9004   1.992   1.223   8.255
 6014POPC   C3A 9005   1.992   1.179   7.955
 6014POPC   C4A 9006   1.999   1.204   7.655
 6014POPC   C1B 9007   2.014   1.459   8.555
 6014POPC   C2B 9008   1.969   1.485   8.255
 6014POPC   C3B 9009   1.988   1.474   7.955
 6014POPC   C4B 9010   2.007   1.468   7.655
 6015POPC   NC3 9011  30.735  22.961   9.455
 6015POPC   PO4 9012  30.715  22.927   9.155
 6015POPC   GL1 9013  30.734  22.924   8.855
 6015POPC   GL2 9014  30.713  22.869   8.855
 6015POPC   C1A 9015  30.731  22.925   8.555
 6015POPC   D2A 9016  30.675  22.962   8.255
 6015POPC   C3A 9017  30.665  22.942   7.955
 6015POPC   C4A 9018  30.710  22.898   7.655
 6015POPC   C1B 9019  30.783  22.757   8.555
 6015POPC   C2B 9020  30.857  22.676   8.255
 6015POPC   C3B 9021  30.835  22.760   7.955
 6015POPC   C4B 9022  30.862  22.702   7.655
 6016POPC   NC3 9023  35.389  15.216   9.455
 6016POPC   PO4 9024  35.373  15.133   9.155
 6016POPC   GL1 9025  35.360  15.229   8.855
 6016POPC   GL2 9026  35.390  15.325   8.855
 6016POPC   C1A 9027  35.361  15.136   8.555
 6016POPC   D2A 9028  35.305  15.225   8.255
 6016POPC   C3A 9029  35.344  15.202   7.955
 6016POPC   C4A 9030  35.349  15.145   7.655
 6016POPC   C1B 9031  35.450  15.412   8.555
 6016POPC   C2B 9032  35.476  15.427   8.255
 6016POPC   C3B 9033  35.449  15.391   7.955
 6016POPC   C4B 9034  35.438  15.408   7.655
 6017POPC   NC3 9035  44.682  38.413   9.455
 6017POPC   PO4 9036  44.635  38.442   9.155
 6017POPC   GL1 9037  44.667  38.418   8.855
 6017POPC   GL2 9038  44.554  38.443   8.855
 6017POPC   C1A 9039  44.614  38.499   8.555
 6017POPC   D2A 9040  44.678  38.413   8.255
 6017POPC   C3A 9041  44.640  38.422   7.955
 6017POPC   C4A 9042  44.647  38.438   7.655
 6017POPC   C1B 9043  44.463  38.443   8.555
 6017POPC   C2B 9044  44.377  38.447   8.255
 6017POPC   C3B 9045  44.420  38.374   7.955
 6017POPC   C4B 9046  44.430  38.405   7.655
 6018POPC   NC3 9047  25.223  10.557   9.455
 6018POPC   PO4 9048  25.275  10.535   9.155
 6018POPC   GL1 9049  25.309  10.552   8.855
 6018POPC   GL2 9050  25.184  10.585   8.855
 6018POPC   C1A 9051  25.294  10.525   8.555
 6018POPC   D2A 9052  25.302  10.563   8.255
 6018POPC   C3A 9053  25.249  10.554   7.955
 6018POPC   C4A 9054  25.251  10.489   7.655
 6018POPC   C1B 9055  25.183  10.761   8.555
 6018POPC   C2B 9056  25.192  10.696   8.255
 6018POPC   C3B 9057  25.095  10.699   7.955
 6018POPC   C4B 9058  25.173  10.734   7.655
 6019POPC   NC3 9059  12.843  42.317   9.455
 6019POPC   PO4 9060  12.809  42.338   9.155
 6019POPC   GL1 9061  12.845  42.318   8.855
 6019POPC   GL2 9062  12.725  42.387   8.855
 6019POPC   C1A 9063  12.846  42.383   8.555
 6019POPC   D2A 9064  12.841  42.379   8.255
 6019POPC   C3A 9065  12.861  42.308   7.955
 6019POPC   C4A 9066  12.897  42.338   7.655
 6019POPC   C1B 9067  12.640  42.523   8.555
 6019POPC   C2B 9068  12.692  42.561   8.255
 6019POPC   C3B 9069  12.680  42.562   7.955
 6019POPC   C4B 9070  12.672  42.559   7.655
 6020POPC   NC3 9071  40.745   1.227   9.455
 6020POPC   PO4 9072  40.806   1.209   9.155
 6020POPC   GL1 9073  40.829   1.226   8.855
 6020POPC   GL2 9074  40.702   1.339   8.855
 6020POPC   C1A 9075  40.832   1.253   8.555
 6020POPC   D2A 9076  40.744   1.168   8.255
 6020POPC   C3A 9077  40.805   1.210   7.955
 6020POPC   C4A 9078  40.809   1.232   7.655
 6020POPC   C1B 9079  40.597   1.443   8.555
 6020POPC   C2B 9080  40.631   1.424   8.255
 6020POPC   C3B 9081  40.619   1.374   7.955
 6020POPC   C4B 9082  40.593   1.377   7.655
 6021POPC   NC3 9083  33.062   0.468   9.455
 6021POPC   PO4 9084  33.000   0.414   9.155
 6021POPC   GL1 9085  33.053   0.436   8.855
 6021POPC   GL2 9086  33.134   0.432   8.855
 6021POPC   C1A 9087  33.013   0.392   8.555
 6021POPC   D2A 9088  33.054   0.419   8.255
 6021POPC   C3A 9089  33.008   0.432   7.955
 6021POPC   C4A 9090  32.994   0.445   7.655
 6021POPC   C1B 9091  33.310   0.537   8.555
 6021POPC   C2B 9092  33.251   0.550   8.255
 6021POPC   C3B 9093  33.255   0.462   7.955
 6021POPC   C4B 9094  33.275   0.529   7.655
 6022POPC   NC3 9095  11.299  12.109   9.455
 6022POPC   PO4 9096  11.306  12.038   9.155
 6022POPC   GL1 9097  11.305  12.057   8.855
 6022POPC   GL2 9098  11.149  12.172   8.855
 6022POPC   C1A 9099  11.344  12.055   8.555
 6022POPC   D2A 9100  11.314  12.035   8.255
 6022POPC   C3A 9101  11.325  12.028   7.955
 6022POPC   C4A 9102  11.286  12.125   7.655
 6022POPC   C1B 9103  11.084  12.160   8.555
 6022POPC   C2B 9104  11.113  12.217   8.255
 6022POPC   C3B 9105  11.113  12.157   7.955
 6022POPC   C4B 9106  11.098  12.154   7.655
 6023POPC   NC3 9107  31.423  19.861   9.455
 6023POPC   PO4 9108  31.468  19.824   9.155
 6023POPC   GL1 9109  31.522  19.828   8.855
 6023POPC   GL2 9110  31.515  19.916   8.855
 6023POPC   C1A 9111  31.440  19.814   8.555
 6023POPC   D2A 9112  31.431  19.856   8.255
 6023POPC   C3A 9113  31.428  19.788   7.955
 6023POPC   C4A 9114  31.432  19.798   7.655
 6023POPC   C1B 9115  31.540  20.065   8.555
 6023POPC   C2B 9116  31.505  20.046   8.255
 6023POPC   C3B 9117  31.505  20.050   7.955
 6023POPC   C4B 9118  31.506  20.103   7.655
 6024POPC   NC3 9119   8.966  22.113   9.455
 6024POPC   PO4 9120   8.994  22.117   9.155
 6024POPC   GL1 9121   8.932  22.203   8.855
 6024POPC   GL2 9122   9.071  22.285   8.855
 6024POPC   C1A 9123   8.968  22.197   8.555
 6024POPC   D2A 9124   8.980  22.152   8.255
 6024POPC   C3A 9125   8.938  22.140   7.955
 6024POPC   C4A 9126   8.952  22.125   7.655
 6024POPC   C1B 9127   9.086  22.318   8.555
 6024POPC   C2B 9128   9.102  22.393   8.255
 6024POPC   C3B 9129   9.137  22.364   7.955
 6024POPC   C4B 9130   9.160  22.411   7.655
 6025POPC   NC3 9131  23.704   6.615   9.455
 6025POPC   PO4 9132  23.742   6.627   9.155
 6025POPC   GL1 9133  23.702   6.666   8.855
 6025POPC   GL2 9134  23.741   6.750   8.855
 6025POPC   C1A 9135  23.682   6.651   8.555
 6025POPC   D2A 9136  23.694   6.672   8.255
 6025POPC   C3A 9137  23.685   6.603   7.955
 6025POPC   C4A 9138  23.714   6.663   7.655
 6025POPC   C1B 9139  23.738   6.902   8.555
 6025POPC   C2B 9140  23.702   6.846   8.255
 6025POPC   C3B 9141  23.651   6.864   7.955
 6025POPC   C4B 9142  23.671   6.902   7.655
 6026POPC   NC3 9143   5.069   4.281   9.455
 6026POPC   PO4 9144   5.074   4.313   9.155
 6026POPC   GL1 9145   5.047   4.332   8.855
 6026POPC   GL2 9146   4.982   4.231   8.855
 6026POPC   C1A 9147   5.100   4.328   8.555
 6026POPC   D2A 9148   5.047   4.364   8.255
 6026POPC   C3A 9149   5.091   4.348   7.955
 6026POPC   C4A 9150   5.094   4.359   7.655
 6026POPC   C1B 9151   4.862   4.262   8.555
 6026POPC   C2B 9152   4.900   4.192   8.255
 6026POPC   C3B 9153   4.833   4.212   7.955
 6026POPC   C4B 9154   4.823   4.212   7.655
 6027POPC   NC3 9155  20.621  36.157   9.455
 6027POPC   PO4 9156  20.625  36.104   9.155
 6027POPC   GL1 9157  20.632  36.153   8.855
 6027POPC   GL2 9158  20.557  36.018   8.855
 6027POPC   C1A 9159  20.630  36.172   8.555
 6027POPC   D2A 9160  20.583  36.108   8.255
 6027POPC   C3A 9161  20.567  36.117   7.955
 6027POPC   C4A 9162  20.641  36.090   7.655
 6027POPC   C1B 9163  20.474  35.934   8.555
 6027POPC   C2B 9164  20.510  35.916   8.255
 6027POPC   C3B 9165  20.541  35.866   7.955
 6027POPC   C4B 9166  20.485  35.876   7.655
 6028POPC   NC3 9167  38.492  25.279   9.455
 6028POPC   PO4 9168  38.422  25.226   9.155
 6028POPC   GL1 9169  38.505  25.238   8.855
 6028POPC   GL2 9170  38.385  25.168   8.855
 6028POPC   C1A 9171  38.418  25.307   8.555
 6028POPC   D2A 9172  38.458  25.281   8.255
 6028POPC   C3A 9173  38.502  25.250   7.955
 6028POPC   C4A 9174  38.422  25.277   7.655
 6028POPC   C1B 9175  38.378  25.015   8.555
 6028POPC   C2B 9176  38.349  25.016   8.255
 6028POPC   C3B 9177  38.357  25.054   7.955
 6028POPC   C4B 9178  38.399  24.993   7.655
 6029POPC   NC3 9179  10.564  25.243   9.455
 6029POPC   PO4 9180  10.483  25.238   9.155
 6029POPC   GL1 9181  10.547  25.286   8.855
 6029POPC   GL2 9182  10.383  25.314   8.855
 6029POPC   C1A 9183  10.548  25.286   8.555
 6029POPC   D2A 9184  10.499  25.304   8.255
 6029POPC   C3A 9185  10.557  25.223   7.955
 6029POPC   C4A 9186  10.502  25.278   7.655
 6029POPC   C1B 9187  10.370  25.455   8.555
 6029POPC   C2B 9188  10.364  25.412   8.255
 6029POPC   C3B 9189  10.306  25.368   7.955
 6029POPC   C4B 9190  10.312  25.460   7.655
 6030POPC   NC3 9191  40.751  13.621   9.455
 6030POPC   PO4 9192  40.824  13.660   9.155
 6030POPC   GL1 9193  40.743  13.665   8.855
 6030POPC   GL2 9194  40.771  13.464   8.855
 6030POPC   C1A 9195  40.764  13.660   8.555
 6030POPC   D2A 9196  40.768  13.594   8.255
 6030POPC   C3A 9197  40.744  13.636   7.955
 6030POPC   C4A 9198  40.825  13.623   7.655
 6030POPC   C1B 9199  40.807  13.368   8.555
 6030POPC   C2B 9200  40.835  13.426   8.255
 6030POPC   C3B 9201  40.786  13.345   7.955
 6030POPC   C4B 9202  40.757  13.341   7.655
 6031POPC   NC3 9203  26.000  39.221   9.455
 6031POPC   PO4 9204  26.021  39.232   9.155
 6031POPC   GL1 9205  26.028  39.253   8.855
 6031POPC   GL2 9206  25.884  39.233   8.855
 6031POPC   C1A 9207  26.077  39.252   8.555
 6031POPC   D2A 9208  26.052  39.190   8.255
 6031POPC   C3A 9209  26.008  39.228   7.955
 6031POPC   C4A 9210  26.086  39.201   7.655
 6031POPC   C1B 9211  25.801  39.301   8.555
 6031POPC   C2B 9212  25.773  39.318   8.255
 6031POPC   C3B 9213  25.801  39.344   7.955
 6031POPC   C4B 9214  25.854  39.273   7.655
 6032POPC   NC3 9215  17.495   1.211   9.455
 6032POPC   PO4 9216  17.529   1.250   9.155
 6032POPC   GL1 9217  17.514   1.233   8.855
 6032POPC   GL2 9218  17.394   1.252   8.855
 6032POPC   C1A 9219  17.489   1.221   8.555
 6032POPC   D2A 9220  17.498   1.226   8.255
 6032POPC   C3A 9221  17.526   1.228   7.955
 6032POPC   C4A 9222  17.517   1.255   7.655
 6032POPC   C1B 9223  17.296   1.314   8.555
 6032POPC   C2B 9224  17.290   1.226   8.255
 6032POPC   C3B 9225  17.267   1.238   7.955
 6032POPC   C4B 9226  17.303   1.309   7.655
 6033POPC   NC3 9227  39.241  22.981   9.455
 6033POPC   PO4 9228  39.228  22.913   9.155
 6033POPC   GL1 9229  39.205  22.943   8.855
 6033POPC   GL2 9230  39.376  23.007   8.855
 6033POPC   C1A 9231  39.187  22.909   8.555
 6033POPC   D2A 9232  39.242  22.986   8.255
 6033POPC   C3A 9233  39.195  22.920   7.955
 6033POPC   C4A 9234  39.193  22.935   7.655
 6033POPC   C1B 9235  39.445  23.089   8.555
 6033POPC   C2B 9236  39.479  23.048   8.255
 6033POPC   C3B 9237  39.496  23.019   7.955
 6033POPC   C4B 9238  39.457  23.090   7.655
 6034POPC   NC3 9239   5.048  29.187   9.455
 6034POPC   PO4 9240   5.120  29.136   9.155
 6034POPC   GL1 9241   5.092  29.115   8.855
 6034POPC   GL2 9242   5.005  29.025   8.855
 6034POPC   C1A 9243   5.047  29.125   8.555
 6034POPC   D2A 9244   5.079  29.162   8.255
 6034POPC   C3A 9245   5.106  29.154   7.955
 6034POPC   C4A 9246   5.056  29.112   7.655
 6034POPC   C1B 9247   5.016  28.882   8.555
 6034POPC   C2B 9248   4.959  28.918   8.255
 6034POPC   C3B 9249   4.975  28.934   7.955
 6034POPC   C4B 9250   4.949  28.940   7.655
 6035POPC   NC3 9251  37.716  38.466   9.455
 6035POPC   PO4 9252  37.718  38.475   9.155
 6035POPC   GL1 9253  37.637  38.458   8.855
 6035POPC   GL2 9254  37.796  38.446   8.855
 6035POPC   C1A 9255  37.636  38.428   8.555
 6035POPC   D2A 9256  37.726  38.433   8.255
 6035POPC   C3A 9257  37.650  38.505   7.955
 6035POPC   C4A 9258  37.633  38.487   7.655
 6035POPC   C1B 9259  37.946  38.368   8.555
 6035POPC   C2B 9260  37.927  38.421   8.255
 6035POPC   C3B 9261  37.874  38.358   7.955
 6035POPC   C4B 9262  37.935  38.392   7.655
 6036POPC   NC3 9263   8.160  36.124   9.455
 6036POPC   PO4 9264   8.204  36.109   9.155
 6036POPC   GL1 9265   8.243  36.086   8.855
 6036POPC   GL2 9266   8.283  36.000   8.855
 6036POPC   C1A 9267   8.163  36.128   8.555
 6036POPC   D2A 9268   8.192  36.150   8.255
 6036POPC   C3A 9269   8.238  36.127   7.955
 6036POPC   C4A 9270   8.148  36.130   7.655
 6036POPC   C1B 9271   8.354  35.926   8.555
 6036POPC   C2B 9272   8.402  35.973   8.255
 6036POPC   C3B 9273   8.321  35.955   7.955
 6036POPC   C4B 9274   8.412  35.933   7.655
 6037POPC   NC3 9275  33.819  36.916   9.455
 6037POPC   PO4 9276  33.808  36.868   9.155
 6037POPC   GL1 9277  33.814  36.923   8.855
 6037POPC   GL2 9278  33.836  36.818   8.855
 6037POPC   C1A 9279  33.754  36.929   8.555
 6037POPC   D2A 9280  33.759  36.916   8.255
 6037POPC   C3A 9281  33.771  36.904   7.955
 6037POPC   C4A 9282  33.834  36.928   7.655
 6037POPC   C1B 9283  33.866  36.643   8.555
 6037POPC   C2B 9284  33.826  36.661   8.255
 6037POPC   C3B 9285  33.826  36.621   7.955
 6037POPC   C4B 9286  33.804  36.620   7.655
 6038POPC   NC3 9287  19.789  21.349   9.455
 6038POPC   PO4 9288  19.832  21.426   9.155
 6038POPC   GL1 9289  19.793  21.397   8.855
 6038POPC   GL2 9290  19.913  21.514   8.855
 6038POPC   C1A 9291  19.800  21.367   8.555
 6038POPC   D2A 9292  19.864  21.417   8.255
 6038POPC   C3A 9293  19.866  21.415   7.955
 6038POPC   C4A 9294  19.865  21.370   7.655
 6038POPC   C1B 9295  19.930  21.594   8.555
 6038POPC   C2B 9296  19.978  21.590   8.255
 6038POPC   C3B 9297  19.932  21.607   7.955
 6038POPC   C4B 9298  19.978  21.564   7.655
 6039POPC   NC3 9299  40.000  42.354   9.455
 6039POPC   PO4 9300  40.006  42.314   9.155
 6039POPC   GL1 9301  40.036  42.368   8.855
 6039POPC   GL2 9302  39.939  42.313   8.855
 6039POPC   C1A 9303  39.998  42.293   8.555
 6039POPC   D2A 9304  40.003  42.365   8.255
 6039POPC   C3A 9305  39.997  42.346   7.955
 6039POPC   C4A 9306  40.037  42.312   7.655
 6039POPC   C1B 9307  39.784  42.247   8.555
 6039POPC   C2B 9308  39.793  42.258   8.255
 6039POPC   C3B 9309  39.811  42.186   7.955
 6039POPC   C4B 9310  39.782  42.188   7.655
 6040POPC   NC3 9311  17.472  15.215   9.455
 6040POPC   PO4 9312  17.471  15.175   9.155
 6040POPC   GL1 9313  17.460  15.185   8.855
 6040POPC   GL2 9314  17.362  15.289   8.855
 6040POPC   C1A 9315  17.523  15.140   8.555
 6040POPC   D2A 9316  17.507  15.146   8.255
 6040POPC   C3A 9317  17.473  15.135   7.955
 6040POPC   C4A 9318  17.552  15.206   7.655
 6040POPC   C1B 9319  17.302  15.338   8.555
 6040POPC   C2B 9320  17.287  15.322   8.255
 6040POPC   C3B 9321  17.283  15.383   7.955
 6040POPC   C4B 9322  17.364  15.316   7.655
 6041POPC   NC3 9323  12.818  27.569   9.455
 6041POPC   PO4 9324  12.841  27.619   9.155
 6041POPC   GL1 9325  12.812  27.552   8.855
 6041POPC   GL2 9326  12.921  27.595   8.855
 6041POPC   C1A 9327  12.892  27.612   8.555
 6041POPC   D2A 9328  12.893  27.608   8.255
 6041POPC   C3A 9329  12.841  27.555   7.955
 6041POPC   C4A 9330  12.843  27.588   7.655
 6041POPC   C1B 9331  13.039  27.541   8.555
 6041POPC   C2B 9332  13.089  27.544   8.255
 6041POPC   C3B 9333  13.118  27.503   7.955
 6041POPC   C4B 9334  13.059  27.534   7.655
 6042POPC   NC3 9335  33.761  20.599   9.455
 6042POPC   PO4 9336  33.840  20.592   9.155
 6042POPC   GL1 9337  33.846  20.622   8.855
 6042POPC   GL2 9338  33.734  20.715   8.855
 6042POPC   C1A 9339  33.779  20.627   8.555
 6042POPC   D2A 9340  33.760  20.597   8.255
 6042POPC   C3A 9341  33.756  20.581   7.955
 6042POPC   C4A 9342  33.765  20.582   7.655
 6042POPC   C1B 9343  33.583  20.693   8.555
 6042POPC   C2B 9344  33.547  20.707   8.255
 6042POPC   C3B 9345  33.594  20.704   7.955
 6042POPC   C4B 9346  33.610  20.741   7.655
 6043POPC   NC3 9347   7.462  39.980   9.455
 6043POPC   PO4 9348   7.422  39.971   9.155
 6043POPC   GL1 9349   7.384  39.993   8.855
 6043POPC   GL2 9350   7.483  40.065   8.855
 6043POPC   C1A 9351   7.452  39.965   8.555
 6043POPC   D2A 9352   7.455  39.972   8.255
 6043POPC   C3A 9353   7.417  40.024   7.955
 6043POPC   C4A 9354   7.395  40.006   7.655
 6043POPC   C1B 9355   7.619  40.217   8.555
 6043POPC   C2B 9356   7.605  40.169   8.255
 6043POPC   C3B 9357   7.583  40.148   7.955
 6043POPC   C4B 9358   7.597  40.186   7.655
 6044POPC   NC3 9359  29.874  20.623   9.455
 6044POPC   PO4 9360  29.946  20.633   9.155
 6044POPC   GL1 9361  29.923  20.586   8.855
 6044POPC   GL2 9362  29.963  20.486   8.855
 6044POPC   C1A 9363  29.871  20.565   8.555
 6044POPC   D2A 9364  29.894  20.635   8.255
 6044POPC   C3A 9365  29.883  20.647   7.955
 6044POPC   C4A 9366  29.953  20.610   7.655
 6044POPC   C1B 9367  29.929  20.374   8.555
 6044POPC   C2B 9368  29.922  20.321   8.255
 6044POPC   C3B 9369  30.003  20.331   7.955
 6044POPC   C4B 9370  29.935  20.322   7.655
 6045POPC   NC3 9371   7.402  22.139   9.455
 6045POPC   PO4 9372   7.462  22.152   9.155
 6045POPC   GL1 9373   7.424  22.143   8.855
 6045POPC   GL2 9374   7.277  22.080   8.855
 6045POPC   C1A 9375   7.405  22.128   8.555
 6045POPC   D2A 9376   7.452  22.138   8.255
 6045POPC   C3A 9377   7.395  22.146   7.955
 6045POPC   C4A 9378   7.414  22.125   7.655
 6045POPC   C1B 9379   7.219  22.072   8.555
 6045POPC   C2B 9380   7.211  22.003   8.255
 6045POPC   C3B 9381   7.193  22.073   7.955
 6045POPC   C4B 9382   7.184  22.014   7.655
 6046POPC   NC3 9383  17.549   2.004   9.455
 6046POPC   PO4 9384  17.462   1.974   9.155
 6046POPC   GL1 9385  17.505   1.976   8.855
 6046POPC   GL2 9386  17.433   2.031   8.855
 6046POPC   C1A 9387  17.525   1.996   8.555
 6046POPC   D2A 9388  17.504   1.953   8.255
 6046POPC   C3A 9389  17.527   2.012   7.955
 6046POPC   C4A 9390  17.466   1.971   7.655
 6046POPC   C1B 9391  17.294   2.084   8.555
 6046POPC   C2B 9392  17.334   2.110   8.255
 6046POPC   C3B 9393  17.324   2.081   7.955
 6046POPC   C4B 9394  17.276   2.172   7.655
 6047POPC   NC3 9395  39.993  24.512   9.455
 6047POPC   PO4 9396  39.983  24.478   9.155
 6047POPC   GL1 9397  40.002  24.507   8.855
 6047POPC   GL2 9398  40.024  24.654   8.855
 6047POPC   C1A 9399  40.012  24.473   8.555
 6047POPC   D2A 9400  39.998  24.505   8.255
 6047POPC   C3A 9401  40.000  24.495   7.955
 6047POPC   C4A 9402  40.049  24.520   7.655
 6047POPC   C1B 9403  40.076  24.714   8.555
 6047POPC   C2B 9404  40.024  24.786   8.255
 6047POPC   C3B 9405  40.049  24.780   7.955
 6047POPC   C4B 9406  40.073  24.710   7.655
 6048POPC   NC3 9407  27.584  31.472   9.455
 6048POPC   PO4 9408  27.557  31.483   9.155
 6048POPC   GL1 9409  27.568  31.457   8.855
 6048POPC   GL2 9410  27.529  31.609   8.855
 6048POPC   C1A 9411  27.584  31.456   8.555
 6048POPC   D2A 9412  27.642  31.517   8.255
 6048POPC   C3A 9413  27.635  31.506   7.955
 6048POPC   C4A 9414  27.617  31.433   7.655
 6048POPC   C1B 9415  27.442  31.682   8.555
 6048POPC   C2B 9416  27.459  31.625   8.255
 6048POPC   C3B 9417  27.420  31.633   7.955
 6048POPC   C4B 9418  27.390  31.690   7.655
 6049POPC   NC3 9419  26.060  18.279   9.455
 6049POPC   PO4 9420  26.040  18.280   9.155
 6049POPC   GL1 9421  26.067  18.290   8.855
 6049POPC   GL2 9422  25.954  18.393   8.855
 6049POPC   C1A 9423  26.002  18.254   8.555
 6049POPC   D2A 9424  26.065  18.278   8.255
 6049POPC   C3A 9425  26.001  18.238   7.955
 6049POPC   C4A 9426  26.034  18.324   7.655
 6049POPC   C1B 9427  25.807  18.388   8.555
 6049POPC   C2B 9428  25.843  18.450   8.255
 6049POPC   C3B 9429  25.790  18.384   7.955
 6049POPC   C4B 9430  25.866  18.453   7.655
 6050POPC   NC3 9431  29.955  19.873   9.455
 6050POPC   PO4 9432  29.923  19.811   9.155
 6050POPC   GL1 9433  29.939  19.788   8.855
 6050POPC   GL2 9434  29.787  19.797   8.855
 6050POPC   C1A 9435  29.949  19.807   8.555
 6050POPC   D2A 9436  29.939  19.859   8.255
 6050POPC   C3A 9437  29.927  19.842   7.955
 6050POPC   C4A 9438  29.966  19.849   7.655
 6050POPC   C1B 9439  29.744  19.658   8.555
 6050POPC   C2B 9440  29.754  19.646   8.255
 6050POPC   C3B 9441  29.758  19.687   7.955
 6050POPC   C4B 9442  29.741  19.690   7.655
 6051POPC   NC3 9443   5.079  12.843   9.455
 6051POPC   PO4 9444   5.073  12.854   9.155
 6051POPC   GL1 9445   5.069  12.805   8.855
 6051POPC   GL2 9446   5.174  12.914   8.855
 6051POPC   C1A 9447   5.083  12.883   8.555
 6051POPC   D2A 9448   5.084  12.856   8.255
 6051POPC   C3A 9449   5.131  12.834   7.955
 6051POPC   C4A 9450   5.097  12.813   7.655
 6051POPC   C1B 9451   5.246  13.009   8.555
 6051POPC   C2B 9452   5.324  13.055   8.255
 6051POPC   C3B 9453   5.291  13.022   7.955
 6051POPC   C4B 9454   5.299  12.977   7.655
 6052POPC   NC3 9455  38.459   9.020   9.455
 6052POPC   PO4 9456  38.448   9.019   9.155
 6052POPC   GL1 9457  38.415   9.000   8.855
 6052POPC   GL2 9458  38.586   8.895   8.855
 6052POPC   C1A 9459  38.412   8.934   8.555
 6052POPC   D2A 9460  38.484   8.979   8.255
 6052POPC   C3A 9461  38.431   9.004   7.955
 6052POPC   C4A 9462  38.470   8.977   7.655
 6052POPC   C1B 9463  38.733   8.873   8.555
 6052POPC   C2B 9464  38.648   8.880   8.255
 6052POPC   C3B 9465  38.694   8.854   7.955
 6052POPC   C4B 9466  38.695   8.925   7.655
 6053POPC   NC3 9467  11.297   3.582   9.455
 6053POPC   PO4 9468  11.264   3.528   9.155
 6053POPC   GL1 9469  11.350   3.557   8.855
 6053POPC   GL2 9470  11.220   3.599   8.855
 6053POPC   C1A 9471  11.273   3.494   8.555
 6053POPC   D2A 9472  11.270   3.550   8.255
 6053POPC   C3A 9473  11.316   3.545   7.955
 6053POPC   C4A 9474  11.251   3.578   7.655
 6053POPC   C1B 9475  11.112   3.744   8.555
 6053POPC   C2B 9476  11.125   3.724   8.255
 6053POPC   C3B 9477  11.106   3.724   7.955
 6053POPC   C4B 9478  11.098   3.763   7.655
 6054POPC   NC3 9479  17.537  12.067   9.455
 6054POPC   PO4 9480  17.506  12.060   9.155
 6054POPC   GL1 9481  17.511  12.108   8.855
 6054POPC   GL2 9482  17.509  12.177   8.855
 6054POPC   C1A 9483  17.478  12.070   8.555
 6054POPC   D2A 9484  17.540  12.119   8.255
 6054POPC   C3A 9485  17.480  12.105   7.955
 6054POPC   C4A 9486  17.468  12.125   7.655
 6054POPC   C1B 9487  17.546  12.301   8.555
 6054POPC   C2B 9488  17.524  12.289   8.255
 6054POPC   C3B 9489  17.607  12.338   7.955
 6054POPC   C4B 9490  17.579  12.303   7.655
 6055POPC   NC3 9491  19.022  16.749   9.455
 6055POPC   PO4 9492  19.086  16.740   9.155
 6055POPC   GL1 9493  19.064  16.702   8.855
 6055POPC   GL2 9494  19.170  16.778   8.855
 6055POPC   C1A 9495  19.018  16.756   8.555
 6055POPC   D2A 9496  19.091  16.781   8.255
 6055POPC   C3A 9497  19.045  16.695   7.955
 6055POPC   C4A 9498  19.065  16.715   7.655
 6055POPC   C1B 9499  19.221  16.916   8.555
 6055POPC   C2B 9500  19.286  16.899   8.255
 6055POPC   C3B 9501  19.251  16.878   7.955
 6055POPC   C4B 9502  19.297  16.867   7.655
 6056POPC   NC3 9503   6.631  28.392   9.455
 6056POPC   PO4 9504   6.651  28.321   9.155
 6056POPC   GL1 9505   6.600  28.336   8.855
 6056POPC   GL2 9506   6.670  28.463   8.855
 6056POPC   C1A 9507   6.636  28.371   8.555
 6056POPC   D2A 9508   6.662  28.358   8.255
 6056POPC   C3A 9509   6.662  28.419   7.955
 6056POPC   C4A 9510   6.665  28.393   7.655
 6056POPC   C1B 9511   6.801  28.576   8.555
 6056POPC   C2B 9512   6.815  28.538   8.255
 6056POPC   C3B 9513   6.814  28.566   7.955
 6056POPC   C4B 9514   6.760  28.565   7.655
 6057POPC   NC3 9515   4.342   5.135   9.455
 6057POPC   PO4 9516   4.324   5.061   9.155
 6057POPC   GL1 9517   4.329   5.133   8.855
 6057POPC   GL2 9518   4.227   5.046   8.855
 6057POPC   C1A 9519   4.285   5.089   8.555
 6057POPC   D2A 9520   4.299   5.050   8.255
 6057POPC   C3A 9521   4.304   5.081   7.955
 6057POPC   C4A 9522   4.308   5.117   7.655
 6057POPC   C1B 9523   4.103   4.972   8.555
 6057POPC   C2B 9524   4.152   4.920   8.255
 6057POPC   C3B 9525   4.099   4.908   7.955
 6057POPC   C4B 9526   4.065   4.987   7.655
 6058POPC   NC3 9527  31.471  42.293   9.455
 6058POPC   PO4 9528  31.469  42.284   9.155
 6058POPC   GL1 9529  31.466  42.294   8.855
 6058POPC   GL2 9530  31.514  42.415   8.855
 6058POPC   C1A 9531  31.464  42.344   8.555
 6058POPC   D2A 9532  31.437  42.304   8.255
 6058POPC   C3A 9533  31.427  42.318   7.955
 6058POPC   C4A 9534  31.509  42.367   7.655
 6058POPC   C1B 9535  31.468  42.560   8.555
 6058POPC   C2B 9536  31.504  42.536   8.255
 6058POPC   C3B 9537  31.437  42.564   7.955
 6058POPC   C4B 9538  31.483  42.573   7.655
 6059POPC   NC3 9539  35.351  10.503   9.455
 6059POPC   PO4 9540  35.338  10.519   9.155
 6059POPC   GL1 9541  35.307  10.566   8.855
 6059POPC   GL2 9542  35.460  10.519   8.855
 6059POPC   C1A 9543  35.364  10.539   8.555
 6059POPC   D2A 9544  35.374  10.541   8.255
 6059POPC   C3A 9545  35.310  10.525   7.955
 6059POPC   C4A 9546  35.307  10.534   7.655
 6059POPC   C1B 9547  35.590  10.611   8.555
 6059POPC   C2B 9548  35.547  10.636   8.255
 6059POPC   C3B 9549  35.638  10.563   7.955
 6059POPC   C4B 9550  35.576  10.648   7.655
 6060POPC   NC3 9551  44.663  33.821   9.455
 6060POPC   PO4 9552  44.691  33.849   9.155
 6060POPC   GL1 9553  44.692  33.756   8.855
 6060POPC   GL2 9554  44.684  33.670   8.855
 6060POPC   C1A 9555  44.696  33.825   8.555
 6060POPC   D2A 9556  44.634  33.807   8.255
 6060POPC   C3A 9557  44.711  33.810   7.955
 6060POPC   C4A 9558  44.637  33.790   7.655
 6060POPC   C1B 9559  44.696  33.541   8.555
 6060POPC   C2B 9560  44.716  33.603   8.255
 6060POPC   C3B 9561  44.716  33.595   7.955
 6060POPC   C4B 9562  44.736  33.564   7.655
 6061POPC   NC3 9563  24.458   5.864   9.455
 6061POPC   PO4 9564  24.516   5.909   9.155
 6061POPC   GL1 9565  24.485   5.863   8.855
 6061POPC   GL2 9566  24.393   5.946   8.855
 6061POPC   C1A 9567  24.487   5.885   8.555
 6061POPC   D2A 9568  24.491   5.879   8.255
 6061POPC   C3A 9569  24.466   5.857   7.955
 6061POPC   C4A 9570  24.526   5.857   7.655
 6061POPC   C1B 9571  24.253   5.987   8.555
 6061POPC   C2B 9572  24.238   5.976   8.255
 6061POPC   C3B 9573  24.283   6.060   7.955
 6061POPC   C4B 9574  24.293   6.003   7.655
 6062POPC   NC3 9575  41.548  19.876   9.455
 6062POPC   PO4 9576  41.542  19.827   9.155
 6062POPC   GL1 9577  41.607  19.878   8.855
 6062POPC   GL2 9578  41.487  19.885   8.855
 6062POPC   C1A 9579  41.521  19.789   8.555
 6062POPC   D2A 9580  41.577  19.840   8.255
 6062POPC   C3A 9581  41.543  19.804   7.955
 6062POPC   C4A 9582  41.527  19.796   7.655
 6062POPC   C1B 9583  41.270  19.864   8.555
 6062POPC   C2B 9584  41.322  19.941   8.255
 6062POPC   C3B 9585  41.350  19.855   7.955
 6062POPC   C4B 9586  41.327  19.867   7.655
 6063POPC   NC3 9587  28.333  40.817   9.455
 6063POPC   PO4 9588  28.366  40.785   9.155
 6063POPC   GL1 9589  28.340  40.800   8.855
 6063POPC   GL2 9590  28.441  40.678   8.855
 6063POPC   C1A 9591  28.392  40.793   8.555
 6063POPC   D2A 9592  28.386  40.741   8.255
 6063POPC   C3A 9593  28.324  40.816   7.955
 6063POPC   C4A 9594  28.324  40.823   7.655
 6063POPC   C1B 9595  28.531  40.577   8.555
 6063POPC   C2B 9596  28.572  40.572   8.255
 6063POPC   C3B 9597  28.492  40.628   7.955
 6063POPC   C4B 9598  28.572  40.598   7.655
 6064POPC   NC3 9599  33.787   2.733   9.455
 6064POPC   PO4 9600  33.778   2.811   9.155
 6064POPC   GL1 9601  33.793   2.782   8.855
 6064POPC   GL2 9602  33.935   2.746   8.855
 6064POPC   C1A 9603  33.849   2.738   8.555
 6064POPC   D2A 9604  33.776   2.753   8.255
 6064POPC   C3A 9605  33.830   2.754   7.955
 6064POPC   C4A 9606  33.784   2.760   7.655
 6064POPC   C1B 9607  34.026   2.716   8.555
 6064POPC   C2B 9608  34.037   2.749   8.255
 6064POPC   C3B 9609  34.047   2.724   7.955
 6064POPC   C4B 9610  34.075   2.714   7.655
 6065POPC   NC3 9611  12.816  39.190   9.455
 6065POPC   PO4 9612  12.852  39.217   9.155
 6065POPC   GL1 9613  12.877  39.239   8.855
 6065POPC   GL2 9614  12.976  39.319   8.855
 6065POPC   C1A 9615  12.870  39.243   8.555
 6065POPC   D2A 9616  12.879  39.194   8.255
 6065POPC   C3A 9617  12.827  39.256   7.955
 6065POPC   C4A 9618  12.895  39.200   7.655
 6065POPC   C1B 9619  13.013  39.429   8.555
 6065POPC   C2B 9620  12.987  39.382   8.255
 6065POPC   C3B 9621  13.034  39.429   7.955
 6065POPC   C4B 9622  13.025  39.458   7.655
 6066POPC   NC3 9623  12.817  43.129   9.455
 6066POPC   PO4 9624  12.810  43.062   9.155
 6066POPC   GL1 9625  12.900  43.110   8.855
 6066POPC   GL2 9626  12.947  43.139   8.855
 6066POPC   C1A 9627  12.868  43.140   8.555
 6066POPC   D2A 9628  12.814  43.069   8.255
 6066POPC   C3A 9629  12.825  43.134   7.955
 6066POPC   C4A 9630  12.859  43.114   7.655
 6066POPC   C1B 9631  13.080  43.186   8.555
 6066POPC   C2B 9632  13.053  43.221   8.255
 6066POPC   C3B 9633  13.102  43.191   7.955
 6066POPC   C4B 9634  13.069  43.225   7.655
 6067POPC   NC3 9635  42.357  14.404   9.455
 6067POPC   PO4 9636  42.315  14.391   9.155
 6067POPC   GL1 9637  42.338  14.447   8.855
 6067POPC   GL2 9638  42.411  14.272   8.855
 6067POPC   C1A 9639  42.317  14.448   8.555
 6067POPC   D2A 9640  42.367  14.378   8.255
 6067POPC   C3A 9641  42.355  14.412   7.955
 6067POPC   C4A 9642  42.297  14.403   7.655
 6067POPC   C1B 9643  42.470  14.176   8.555
 6067POPC   C2B 9644  42.490  14.197   8.255
 6067POPC   C3B 9645  42.465  14.249   7.955
 6067POPC   C4B 9646  42.478  14.188   7.655
 6068POPC   NC3 9647  40.816  14.360   9.455
 6068POPC   PO4 9648  40.735  14.434   9.155
 6068POPC   GL1 9649  40.800  14.450   8.855
 6068POPC   GL2 9650  40.826  14.321   8.855
 6068POPC   C1A 9651  40.830  14.412   8.555
 6068POPC   D2A 9652  40.733  14.423   8.255
 6068POPC   C3A 9653  40.738  14.365   7.955
 6068POPC   C4A 9654  40.754  14.405   7.655
 6068POPC   C1B 9655  40.890  14.132   8.555
 6068POPC   C2B 9656  40.916  14.132   8.255
 6068POPC   C3B 9657  40.899  14.148   7.955
 6068POPC   C4B 9658  40.898  14.218   7.655
 6069POPC   NC3 9659  15.228   9.743   9.455
 6069POPC   PO4 9660  15.173   9.755   9.155
 6069POPC   GL1 9661  15.227   9.758   8.855
 6069POPC   GL2 9662  15.302   9.833   8.855
 6069POPC   C1A 9663  15.134   9.718   8.555
 6069POPC   D2A 9664  15.131   9.721   8.255
 6069POPC   C3A 9665  15.156   9.781   7.955
 6069POPC   C4A 9666  15.216   9.707   7.655
 6069POPC   C1B 9667  15.361   9.844   8.555
 6069POPC   C2B 9668  15.371   9.889   8.255
 6069POPC   C3B 9669  15.446   9.898   7.955
 6069POPC   C4B 9670  15.414   9.806   7.655
 6070POPC   NC3 9671  15.132  39.973   9.455
 6070POPC   PO4 9672  15.178  40.035   9.155
 6070POPC   GL1 9673  15.152  40.048   8.855
 6070POPC   GL2 9674  15.198  39.919   8.855
 6070POPC   C1A 9675  15.137  40.017   8.555
 6070POPC   D2A 9676  15.157  39.962   8.255
 6070POPC   C3A 9677  15.178  40.004   7.955
 6070POPC   C4A 9678  15.216  40.010   7.655
 6070POPC   C1B 9679  15.145  39.790   8.555
 6070POPC   C2B 9680  15.185  39.758   8.255
 6070POPC   C3B 9681  15.200  39.730   7.955
 6070POPC   C4B 9682  15.183  39.713   7.655
 6071POPC   NC3 9683  29.173   8.949   9.455
 6071POPC   PO4 9684  29.150   9.015   9.155
 6071POPC   GL1 9685  29.192   8.965   8.855
 6071POPC   GL2 9686  29.269   9.075   8.855
 6071POPC   C1A 9687  29.174   8.981   8.555
 6071POPC   D2A 9688  29.153   8.990   8.255
 6071POPC   C3A 9689  29.147   8.965   7.955
 6071POPC   C4A 9690  29.146   8.940   7.655
 6071POPC   C1B 9691  29.287   9.165   8.555
 6071POPC   C2B 9692  29.357   9.122   8.255
 6071POPC   C3B 9693  29.278   9.124   7.955
 6071POPC   C4B 9694  29.305   9.120   7.655
 6072POPC   NC3 9695   0.390  13.670   9.455
 6072POPC   PO4 9696   0.461  13.591   9.155
 6072POPC   GL1 9697   0.406  13.626   8.855
 6072POPC   GL2 9698   0.600  13.639   8.855
 6072POPC   C1A 9699   0.421  13.644   8.555
 6072POPC   D2A 9700   0.462  13.608   8.255
 6072POPC   C3A 9701   0.442  13.644   7.955
 6072POPC   C4A 9702   0.425  13.591   7.655
 6072POPC   C1B 9703   0.726  13.655   8.555
 6072POPC   C2B 9704   0.736  13.608   8.255
 6072POPC   C3B 9705   0.683  13.669   7.955
 6072POPC   C4B 9706   0.645  13.593   7.655
 6073POPC   NC3 9707  25.299  40.019   9.455
 6073POPC   PO4 9708  25.229  40.051   9.155
 6073POPC   GL1 9709  25.255  39.990   8.855
 6073POPC   GL2 9710  25.182  40.092   8.855
 6073POPC   C1A 9711  25.282  40.032   8.555
 6073POPC   D2A 9712  25.295  39.993   8.255
 6073POPC   C3A 9713  25.258  40.041   7.955
 6073POPC   C4A 9714  25.253  40.010   7.655
 6073POPC   C1B 9715  25.217  40.225   8.555
 6073POPC   C2B 9716  25.214  40.193   8.255
 6073POPC   C3B 9717  25.159  40.217   7.955
 6073POPC   C4B 9718  25.194  40.238   7.655
 6074POPC   NC3 9719   8.183  31.458   9.455
 6074POPC   PO4 9720   8.199  31.466   9.155
 6074POPC   GL1 9721   8.206  31.510   8.855
 6074POPC   GL2 9722   8.297  31.493   8.855
 6074POPC   C1A 9723   8.214  31.488   8.555
 6074POPC   D2A 9724   8.207  31.471   8.255
 6074POPC   C3A 9725   8.167  31.494   7.955
 6074POPC   C4A 9726   8.241  31.427   7.655
 6074POPC   C1B 9727   8.405  31.594   8.555
 6074POPC   C2B 9728   8.373  31.618   8.255
 6074POPC   C3B 9729   8.413  31.645   7.955
 6074POPC   C4B 9730   8.446  31.584   7.655
 6075POPC   NC3 9731  33.001   2.770   9.455
 6075POPC   PO4 9732  33.034   2.759   9.155
 6075POPC   GL1 9733  33.034   2.813   8.855
 6075POPC   GL2 9734  32.991   2.864   8.855
 6075POPC   C1A 9735  33.064   2.728   8.555
 6075POPC   D2A 9736  32.999   2.779   8.255
 6075POPC   C3A 9737  33.044   2.752   7.955
 6075POPC   C4A 9738  33.064   2.744   7.655
 6075POPC   C1B 9739  32.900   2.963   8.555
 6075POPC   C2B 9740  32.970   2.974   8.255
 6075POPC   C3B 9741  32.940   3.003   7.955
 6075POPC   C4B 9742  32.928   3.042   7.655
 6076POPC   NC3 9743  30.676   6.598   9.455
 6076POPC   PO4 9744  30.745   6.656   9.155
 6076POPC   GL1 9745  30.664   6.671   8.855
 6076POPC   GL2 9746  30.723   6.525   8.855
 6076POPC   C1A 9747  30.687   6.601   8.555
 6076POPC   D2A 9748  30.656   6.605   8.255
 6076POPC   C3A 9749  30.738   6.681   7.955
 6076POPC   C4A 9750  30.650   6.679   7.655
 6076POPC   C1B 9751  30.782   6.406   8.555
 6076POPC   C2B 9752  30.767   6.376   8.255
 6076POPC   C3B 9753  30.808   6.425   7.955
 6076POPC   C4B 9754  30.807   6.434   7.655
 6077POPC   NC3 9755   5.910   1.988   9.455
 6077POPC   PO4 9756   5.918   2.022   9.155
 6077POPC   GL1 9757   5.893   2.023   8.855
 6077POPC   GL2 9758   5.764   2.028   8.855
 6077POPC   C1A 9759   5.908   2.022   8.555
 6077POPC   D2A 9760   5.855   2.039   8.255
 6077POPC   C3A 9761   5.893   2.026   7.955
 6077POPC   C4A 9762   5.877   1.992   7.655
 6077POPC   C1B 9763   5.636   2.105   8.555
 6077POPC   C2B 9764   5.636   2.041   8.255
 6077POPC   C3B 9765   5.617   2.078   7.955
 6077POPC   C4B 9766   5.660   2.090   7.655
 6078POPC   NC3 9767  32.263  32.269   9.455
 6078POPC   PO4 9768  32.232  32.202   9.155
 6078POPC   GL1 9769  32.293  32.298   8.855
 6078POPC   GL2 9770  32.275  32.130   8.855
 6078POPC   C1A 9771  32.259  32.200   8.555
 6078POPC   D2A 9772  32.298  32.241   8.255
 6078POPC   C3A 9773  32.274  32.282   7.955
 6078POPC   C4A 9774  32.235  32.214   7.655
 6078POPC   C1B 9775  32.190  32.023   8.555
 6078POPC   C2B 9776  32.274  32.027   8.255
 6078POPC   C3B 9777  32.225  32.024   7.955
 6078POPC   C4B 9778  32.207  32.031   7.655
 6079POPC   NC3 9779  19.079  42.347   9.455
 6079POPC   PO4 9780  19.021  42.321   9.155
 6079POPC   GL1 9781  19.093  42.322   8.855
 6079POPC   GL2 9782  18.952  42.315   8.855
 6079POPC   C1A 9783  19.041  42.314   8.555
 6079POPC   D2A 9784  19.067  42.294   8.255
 6079POPC   C3A 9785  19.042  42.313   7.955
 6079POPC   C4A 9786  19.075  42.370   7.655
 6079POPC   C1B 9787  18.813  42.265   8.555
 6079POPC   C2B 9788  18.765  42.273   8.255
 6079POPC   C3B 9789  18.836  42.328   7.955
 6079POPC   C4B 9790  18.800  42.275   7.655
 6080POPC   NC3 9791  27.632  35.380   9.455
 6080POPC   PO4 9792  27.560  35.343   9.155
 6080POPC   GL1 9793  27.612  35.349   8.855
 6080POPC   GL2 9794  27.513  35.375   8.855
 6080POPC   C1A 9795  27.612  35.387   8.555
 6080POPC   D2A 9796  27.551  35.325   8.255
 6080POPC   C3A 9797  27.641  35.341   7.955
 6080POPC   C4A 9798  27.623  35.349   7.655
 6080POPC   C1B 9799  27.364  35.386   8.555
 6080POPC   C2B 9800  27.397  35.375   8.255
 6080POPC   C3B 9801  27.351  35.439   7.955
 6080POPC   C4B 9802  27.329  35.405   7.655
 6081POPC   NC3 9803  43.099   0.405   9.455
 6081POPC   PO4 9804  43.065   0.426   9.155
 6081POPC   GL1 9805  43.123   0.449   8.855
 6081POPC   GL2 9806  43.178   0.577   8.855
 6081POPC   C1A 9807  43.123   0.473   8.555
 6081POPC   D2A 9808  43.131   0.464   8.255
 6081POPC   C3A 9809  43.116   0.422   7.955
 6081POPC   C4A 9810  43.096   0.474   7.655
 6081POPC   C1B 9811  43.211   0.668   8.555
 6081POPC   C2B 9812  43.278   0.605   8.255
 6081POPC   C3B 9813  43.224   0.682   7.955
 6081POPC   C4B 9814  43.240   0.645   7.655
 6082POPC   NC3 9815  24.498  16.686   9.455
 6082POPC   PO4 9816  24.486  16.705   9.155
 6082POPC   GL1 9817  24.530  16.714   8.855
 6082POPC   GL2 9818  24.525  16.606   8.855
 6082POPC   C1A 9819  24.516  16.690   8.555
 6082POPC   D2A 9820  24.456  16.771   8.255
 6082POPC   C3A 9821  24.471  16.745   7.955
 6082POPC   C4A 9822  24.500  16.742   7.655
 6082POPC   C1B 9823  24.561  16.476   8.555
 6082POPC   C2B 9824  24.589  16.507   8.255
 6082POPC   C3B 9825  24.568  16.516   7.955
 6082POPC   C4B 9826  24.548  16.474   7.655
 6083POPC   NC3 9827  18.266  26.846   9.455
 6083POPC   PO4 9828  18.288  26.867   9.155
 6083POPC   GL1 9829  18.236  26.856   8.855
 6083POPC   GL2 9830  18.373  26.887   8.855
 6083POPC   C1A 9831  18.299  26.863   8.555
 6083POPC   D2A 9832  18.299  26.799   8.255
 6083POPC   C3A 9833  18.328  26.858   7.955
 6083POPC   C4A 9834  18.320  26.833   7.655
 6083POPC   C1B 9835  18.449  27.014   8.555
 6083POPC   C2B 9836  18.475  26.989   8.255
 6083POPC   C3B 9837  18.431  26.978   7.955
 6083POPC   C4B 9838  18.447  26.972   7.655
 6084POPC   NC3 9839  20.583  29.908   9.455
 6084POPC   PO4 9840  20.629  29.943   9.155
 6084POPC   GL1 9841  20.581  29.895   8.855
 6084POPC   GL2 9842  20.499  29.950   8.855
 6084POPC   C1A 9843  20.597  29.942   8.555
 6084POPC   D2A 9844  20.590  29.964   8.255
 6084POPC   C3A 9845  20.613  29.882   7.955
 6084POPC   C4A 9846  20.610  29.928   7.655
 6084POPC   C1B 9847  20.415  29.969   8.555
 6084POPC   C2B 9848  20.402  30.060   8.255
 6084POPC   C3B 9849  20.391  29.979   7.955
 6084POPC   C4B 9850  20.372  30.003   7.655
 6085POPC   NC3 9851   1.176  33.005   9.455
 6085POPC   PO4 9852   1.234  33.055   9.155
 6085POPC   GL1 9853   1.220  33.042   8.855
 6085POPC   GL2 9854   1.124  33.104   8.855
 6085POPC   C1A 9855   1.193  33.040   8.555
 6085POPC   D2A 9856   1.198  32.991   8.255
 6085POPC   C3A 9857   1.200  33.023   7.955
 6085POPC   C4A 9858   1.207  32.976   7.655
 6085POPC   C1B 9859   1.053  33.210   8.555
 6085POPC   C2B 9860   1.095  33.196   8.255
 6085POPC   C3B 9861   1.107  33.196   7.955
 6085POPC   C4B 9862   1.054  33.257   7.655
 6086POPC   NC3 9863  19.863  36.915   9.455
 6086POPC   PO4 9864  19.862  36.918   9.155
 6086POPC   GL1 9865  19.793  36.910   8.855
 6086POPC   GL2 9866  19.776  36.988   8.855
 6086POPC   C1A 9867  19.856  36.885   8.555
 6086POPC   D2A 9868  19.825  36.876   8.255
 6086POPC   C3A 9869  19.824  36.889   7.955
 6086POPC   C4A 9870  19.884  36.948   7.655
 6086POPC   C1B 9871  19.653  37.009   8.555
 6086POPC   C2B 9872  19.615  37.041   8.255
 6086POPC   C3B 9873  19.634  37.021   7.955
 6086POPC   C4B 9874  19.640  37.012   7.655
 6087POPC   NC3 9875  44.674  44.646   9.455
 6087POPC   PO4 9876  44.686  44.651   9.155
 6087POPC   GL1 9877  44.670  44.661   8.855
 6087POPC   GL2 9878  44.766  44.760   8.855
 6087POPC   C1A 9879  44.705  44.701   8.555
 6087POPC   D2A 9880  44.679  44.650   8.255
 6087POPC   C3A 9881  44.612  44.691   7.955
 6087POPC   C4A 9882  44.615  44.687   7.655
 6087POPC   C1B 9883  44.828  44.840   8.555
 6087POPC   C2B 9884  44.920  44.746   8.255
 6087POPC   C3B 9885  44.912  44.759   7.955
 6087POPC   C4B 9886  44.863  44.816   7.655
 6088POPC   NC3 9887  32.241  29.916   9.455
 6088POPC   PO4 9888  32.247  29.970   9.155
 6088POPC   GL1 9889  32.254  29.923   8.855
 6088POPC   GL2 9890  32.291  30.023   8.855
 6088POPC   C1A 9891  32.199  29.937   8.555
 6088POPC   D2A 9892  32.276  29.880   8.255
 6088POPC   C3A 9893  32.284  29.874   7.955
 6088POPC   C4A 9894  32.223  29.899   7.655
 6088POPC   C1B 9895  32.378  30.084   8.555
 6088POPC   C2B 9896  32.360  30.087   8.255
 6088POPC   C3B 9897  32.421  30.154   7.955
 6088POPC   C4B 9898  32.405  30.107   7.655
 6089POPC   NC3 9899   2.802  15.915   9.455
 6089POPC   PO4 9900   2.720  15.960   9.155
 6089POPC   GL1 9901   2.730  15.975   8.855
 6089POPC   GL2 9902   2.933  15.910   8.855
 6089POPC   C1A 9903   2.731  15.937   8.555
 6089POPC   D2A 9904   2.727  15.978   8.255
 6089POPC   C3A 9905   2.808  15.912   7.955
 6089POPC   C4A 9906   2.743  15.927   7.655
 6089POPC   C1B 9907   3.006  15.846   8.555
 6089POPC   C2B 9908   3.004  15.876   8.255
 6089POPC   C3B 9909   3.000  15.840   7.955
 6089POPC   C4B 9910   2.989  15.929   7.655
 6090POPC   NC3 9911  19.794   7.403   9.455
 6090POPC   PO4 9912  19.808   7.389   9.155
 6090POPC   GL1 9913  19.880   7.406   8.855
 6090POPC   GL2 9914  19.879   7.247   8.855
 6090POPC   C1A 9915  19.840   7.467   8.555
 6090POPC   D2A 9916  19.809   7.470   8.255
 6090POPC   C3A 9917  19.790   7.380   7.955
 6090POPC   C4A 9918  19.846   7.421   7.655
 6090POPC   C1B 9919  19.808   7.122   8.555
 6090POPC   C2B 9920  19.866   7.191   8.255
 6090POPC   C3B 9921  19.856   7.193   7.955
 6090POPC   C4B 9922  19.780   7.220   7.655
 6091POPC   NC3 9923  40.042  39.225   9.455
 6091POPC   PO4 9924  40.028  39.208   9.155
 6091POPC   GL1 9925  40.028  39.260   8.855
 6091POPC   GL2 9926  39.962  39.368   8.855
 6091POPC   C1A 9927  40.035  39.275   8.555
 6091POPC   D2A 9928  39.966  39.221   8.255
 6091POPC   C3A 9929  40.017  39.254   7.955
 6091POPC   C4A 9930  40.017  39.247   7.655
 6091POPC   C1B 9931  40.015  39.521   8.555
 6091POPC   C2B 9932  40.025  39.498   8.255
 6091POPC   C3B 9933  39.977  39.491   7.955
 6091POPC   C4B 9934  40.012  39.493   7.655
 6092POPC   NC3 9935  36.145   9.734   9.455
 6092POPC   PO4 9936  36.086   9.741   9.155
 6092POPC   GL1 9937  36.115   9.724   8.855
 6092POPC   GL2 9938  36.248   9.672   8.855
 6092POPC   C1A 9939  36.105   9.739   8.555
 6092POPC   D2A 9940  36.119   9.709   8.255
 6092POPC   C3A 9941  36.108   9.700   7.955
 6092POPC   C4A 9942  36.161   9.783   7.655
 6092POPC   C1B 9943  36.338   9.621   8.555
 6092POPC   C2B 9944  36.355   9.584   8.255
 6092POPC   C3B 9945  36.349   9.545   7.955
 6092POPC   C4B 9946  36.339   9.563   7.655
 6093POPC   NC3 9947  40.807  44.645   9.455
 6093POPC   PO4 9948  40.771  44.690   9.155
 6093POPC   GL1 9949  40.765  44.649   8.855
 6093POPC   GL2 9950  40.702  44.693   8.855
 6093POPC   C1A 9951  40.771  44.693   8.555
 6093POPC   D2A 9952  40.813  44.710   8.255
 6093POPC   C3A 9953  40.813  44.621   7.955
 6093POPC   C4A 9954  40.771  44.681   7.655
 6093POPC   C1B 9955  40.607  44.829   8.555
 6093POPC   C2B 9956  40.581  44.799   8.255
 6093POPC   C3B 9957  40.617  44.819   7.955
 6093POPC   C4B 9958  40.625  44.830   7.655
 6094POPC   NC3 9959  12.864   7.420   9.455
 6094POPC   PO4 9960  12.849   7.409   9.155
 6094POPC   GL1 9961  12.870   7.466   8.855
 6094POPC   GL2 9962  12.907   7.560   8.855
 6094POPC   C1A 9963  12.878   7.444   8.555
 6094POPC   D2A 9964  12.852   7.440   8.255
 6094POPC   C3A 9965  12.895   7.430   7.955
 6094POPC   C4A 9966  12.805   7.386   7.655
 6094POPC   C1B 9967  12.889   7.663   8.555
 6094POPC   C2B 9968  12.899   7.667   8.255
 6094POPC   C3B 9969  12.841   7.641   7.955
 6094POPC   C4B 9970  12.912   7.676   7.655
 6095POPC   NC3 9971  22.182  31.458   9.455
 6095POPC   PO4 9972  22.115  31.495   9.155
 6095POPC   GL1 9973  22.191  31.461   8.855
 6095POPC   GL2 9974  22.261  31.545   8.855
 6095POPC   C1A 9975  22.114  31.476   8.555
 6095POPC   D2A 9976  22.175  31.430   8.255
 6095POPC   C3A 9977  22.148  31.433   7.955
 6095POPC   C4A 9978  22.135  31.441   7.655
 6095POPC   C1B 9979  22.356  31.538   8.555
 6095POPC   C2B 9980  22.434  31.542   8.255
 6095POPC   C3B 9981  22.363  31.603   7.955
 6095POPC   C4B 9982  22.434  31.606   7.655
 6096POPC   NC3 9983  18.260   0.437   9.455
 6096POPC   PO4 9984  18.318   0.472   9.155
 6096POPC   GL1 9985  18.275   0.444   8.855
 6096POPC   GL2 9986  18.169   0.499   8.855
 6096POPC   C1A 9987  18.249   0.443   8.555
 6096POPC   D2A 9988  18.279   0.419   8.255
 6096POPC   C3A 9989  18.266   0.392   7.955
 6096POPC   C4A 9990  18.294   0.398   7.655
 6096POPC   C1B 9991  18.153   0.571   8.555
 6096POPC   C2B 9992  18.148   0.646   8.255
 6096POPC   C3B 9993  18.073   0.601   7.955
 6096POPC   C4B 9994  18.098   0.621   7.655
 6097POPC   NC3 9995  14.427  43.889   9.455
 6097POPC   PO4 9996  14.446  43.920   9.155
 6097POPC   GL1 9997  14.440  43.891   8.855
 6097POPC   GL2 9998  14.267  43.962   8.855
 6097POPC   C1A 9999  14.358  43.897   8.555
 6097POPC   D2A10000  14.391  43.844   8.255
 6097POPC   C3A10001  14.385  43.846   7.955
 6097POPC   C4A10002  14.432  43.911   7.655
 6097POPC   C1B10003  14.171  43.943   8.555
 6097POPC   C2B10004  14.164  43.998   8.255
 6097POPC   C3B10005  14.143  43.940   7.955
 6097POPC   C4B10006  14.140  43.994   7.655
 6098POPC   NC310007  26.844  26.065   9.455
 6098POPC   PO410008  26.770  26.038   9.155
 6098POPC   GL110009  26.840  26.006   8.855
 6098POPC   GL210010  26.819  26.125   8.855
 6098POPC   C1A10011  26.859  26.071   8.555
 6098POPC   D2A10012  26.855  26.017   8.255
 6098POPC   C3A10013  26.828  26.041   7.955
 6098POPC   C4A10014  26.858  26.053   7.655
 6098POPC   C1B10015  26.874  26.276   8.555
 6098POPC   C2B10016  26.908  26.228   8.255
 6098POPC   C3B10017  26.966  26.228   7.955
 6098POPC   C4B10018  26.949  26.318   7.655
 6099POPC   NC310019  38.476  43.108   9.455
 6099POPC   PO410020  38.452  43.107   9.155
 6099POPC   GL110021  38.470  43.123   8.855
 6099POPC   GL210022  38.446  43.017   8.855
 6099POPC   C1A10023  38.415  43.115   8.555
 6099POPC   D2A10024  38.449  43.119   8.255
 6099POPC   C3A10025  38.484  43.092   7.955
 6099POPC   C4A10026  38.467  43.089   7.655
 6099POPC   C1B10027  38.397  42.888   8.555
 6099POPC   C2B10028  38.397  42.838   8.255
 6099POPC   C3B10029  38.441  42.822   7.955
 6099POPC   C4B10030  38.419  42.868   7.655
 6100POPC   NC310031  30.665  19.067   9.455
 6100POPC   PO410032  30.744  19.035   9.155
 6100POPC   GL110033  30.709  19.017   8.855
 6100POPC   GL210034  30.803  19.113   8.855
 6100POPC   C1A10035  30.675  19.052   8.555
 6100POPC   D2A10036  30.699  19.071   8.255
 6100POPC   C3A10037  30.680  19.020   7.955
 6100POPC   C4A10038  30.705  19.014   7.655
 6100POPC   C1B10039  30.820  19.298   8.555
 6100POPC   C2B10040  30.823  19.271   8.255
 6100POPC   C3B10041  30.870  19.226   7.955
 6100POPC   C4B10042  30.821  19.277   7.655
 6101POPC   NC310043  16.705  12.083   9.455
 6101POPC   PO410044  16.777  12.050   9.155
 6101POPC   GL110045  16.741  12.051   8.855
 6101POPC   GL210046  16.652  12.108   8.855
 6101POPC   C1A10047  16.723  12.096   8.555
 6101POPC   D2A10048  16.704  12.092   8.255
 6101POPC   C3A10049  16.768  12.061   7.955
 6101POPC   C4A10050  16.755  12.096   7.655
 6101POPC   C1B10051  16.510  12.117   8.555
 6101POPC   C2B10052  16.508  12.129   8.255
 6101POPC   C3B10053  16.506  12.036   7.955
 6101POPC   C4B10054  16.489  12.035   7.655
 6102POPC   NC310055  24.450  32.214   9.455
 6102POPC   PO410056  24.521  32.278   9.155
 6102POPC   GL110057  24.529  32.258   8.855
 6102POPC   GL210058  24.523  32.166   8.855
 6102POPC   C1A10059  24.478  32.225   8.555
 6102POPC   D2A10060  24.529  32.258   8.255
 6102POPC   C3A10061  24.491  32.253   7.955
 6102POPC   C4A10062  24.512  32.254   7.655
 6102POPC   C1B10063  24.535  32.055   8.555
 6102POPC   C2B10064  24.582  31.998   8.255
 6102POPC   C3B10065  24.575  32.055   7.955
 6102POPC   C4B10066  24.598  32.009   7.655
 6103POPC   NC310067  35.320  22.934   9.455
 6103POPC   PO410068  35.395  22.930   9.155
 6103POPC   GL110069  35.358  22.974   8.855
 6103POPC   GL210070  35.524  22.979   8.855
 6103POPC   C1A10071  35.356  22.942   8.555
 6103POPC   D2A10072  35.397  22.894   8.255
 6103POPC   C3A10073  35.307  22.970   7.955
 6103POPC   C4A10074  35.303  22.922   7.655
 6103POPC   C1B10075  35.617  22.966   8.555
 6103POPC   C2B10076  35.598  22.902   8.255
 6103POPC   C3B10077  35.556  22.920   7.955
 6103POPC   C4B10078  35.568  22.972   7.655
 6104POPC   NC310079  14.379   2.786   9.455
 6104POPC   PO410080  14.376   2.736   9.155
 6104POPC   GL110081  14.438   2.784   8.855
 6104POPC   GL210082  14.352   2.681   8.855
 6104POPC   C1A10083  14.412   2.742   8.555
 6104POPC   D2A10084  14.396   2.795   8.255
 6104POPC   C3A10085  14.423   2.788   7.955
 6104POPC   C4A10086  14.430   2.758   7.655
 6104POPC   C1B10087  14.334   2.483   8.555
 6104POPC   C2B10088  14.365   2.518   8.255
 6104POPC   C3B10089  14.369   2.545   7.955
 6104POPC   C4B10090  14.377   2.518   7.655
 6105POPC   NC310091  15.145  13.607   9.455
 6105POPC   PO410092  15.196  13.604   9.155
 6105POPC   GL110093  15.178  13.594   8.855
 6105POPC   GL210094  15.182  13.751   8.855
 6105POPC   C1A10095  15.202  13.645   8.555
 6105POPC   D2A10096  15.142  13.599   8.255
 6105POPC   C3A10097  15.157  13.650   7.955
 6105POPC   C4A10098  15.218  13.645   7.655
 6105POPC   C1B10099  15.284  13.907   8.555
 6105POPC   C2B10100  15.189  13.912   8.255
 6105POPC   C3B10101  15.211  13.906   7.955
 6105POPC   C4B10102  15.254  13.881   7.655
 6106POPC   NC310103   0.390   4.364   9.455
 6106POPC   PO410104   0.436   4.291   9.155
 6106POPC   GL110105   0.485   4.287   8.855
 6106POPC   GL210106   0.570   4.361   8.855
 6106POPC   C1A10107   0.454   4.319   8.555
 6106POPC   D2A10108   0.459   4.319   8.255
 6106POPC   C3A10109   0.460   4.328   7.955
 6106POPC   C4A10110   0.475   4.298   7.655
 6106POPC   C1B10111   0.676   4.368   8.555
 6106POPC   C2B10112   0.658   4.357   8.255
 6106POPC   C3B10113   0.695   4.304   7.955
 6106POPC   C4B10114   0.696   4.318   7.655
 6107POPC   NC310115  43.097  11.291   9.455
 6107POPC   PO410116  43.119  11.264   9.155
 6107POPC   GL110117  43.110  11.294   8.855
 6107POPC   GL210118  42.957  11.236   8.855
 6107POPC   C1A10119  43.101  11.319   8.555
 6107POPC   D2A10120  43.138  11.275   8.255
 6107POPC   C3A10121  43.147  11.325   7.955
 6107POPC   C4A10122  43.158  11.324   7.655
 6107POPC   C1B10123  42.843  11.190   8.555
 6107POPC   C2B10124  42.898  11.185   8.255
 6107POPC   C3B10125  42.877  11.185   7.955
 6107POPC   C4B10126  42.916  11.208   7.655
 6108POPC   NC310127  11.345  39.197   9.455
 6108POPC   PO410128  11.275  39.233   9.155
 6108POPC   GL110129  11.304  39.218   8.855
 6108POPC   GL210130  11.220  39.380   8.855
 6108POPC   C1A10131  11.274  39.203   8.555
 6108POPC   D2A10132  11.319  39.201   8.255
 6108POPC   C3A10133  11.334  39.248   7.955
 6108POPC   C4A10134  11.330  39.224   7.655
 6108POPC   C1B10135  11.146  39.468   8.555
 6108POPC   C2B10136  11.161  39.484   8.255
 6108POPC   C3B10137  11.207  39.442   7.955
 6108POPC   C4B10138  11.150  39.452   7.655
 6109POPC   NC310139  16.716  24.510   9.455
 6109POPC   PO410140  16.704  24.490   9.155
 6109POPC   GL110141  16.739  24.459   8.855
 6109POPC   GL210142  16.826  24.578   8.855
 6109POPC   C1A10143  16.762  24.472   8.555
 6109POPC   D2A10144  16.722  24.460   8.255
 6109POPC   C3A10145  16.708  24.447   7.955
 6109POPC   C4A10146  16.747  24.533   7.655
 6109POPC   C1B10147  16.963  24.595   8.555
 6109POPC   C2B10148  16.974  24.659   8.255
 6109POPC   C3B10149  16.965  24.640   7.955
 6109POPC   C4B10150  16.925  24.612   7.655
 6110POPC   NC310151  36.083  36.945   9.455
 6110POPC   PO410152  36.111  36.918   9.155
 6110POPC   GL110153  36.176  36.940   8.855
 6110POPC   GL210154  36.259  36.840   8.855
 6110POPC   C1A10155  36.129  36.893   8.555
 6110POPC   D2A10156  36.129  36.861   8.255
 6110POPC   C3A10157  36.117  36.864   7.955
 6110POPC   C4A10158  36.172  36.938   7.655
 6110POPC   C1B10159  36.321  36.732   8.555
 6110POPC   C2B10160  36.326  36.689   8.255
 6110POPC   C3B10161  36.278  36.703   7.955
 6110POPC   C4B10162  36.270  36.775   7.655
 6111POPC   NC310163   2.809  40.041   9.455
 6111POPC   PO410164   2.777  40.028   9.155
 6111POPC   GL110165   2.730  39.974   8.855
 6111POPC   GL210166   2.696  40.135   8.855
 6111POPC   C1A10167   2.774  40.000   8.555
 6111POPC   D2A10168   2.778  40.010   8.255
 6111POPC   C3A10169   2.781  39.960   7.955
 6111POPC   C4A10170   2.775  40.016   7.655
 6111POPC   C1B10171   2.579  40.213   8.555
 6111POPC   C2B10172   2.560  40.137   8.255
 6111POPC   C3B10173   2.614  40.223   7.955
 6111POPC   C4B10174   2.617  40.210   7.655
 6112POPC   NC310175  21.420  36.106   9.455
 6112POPC   PO410176  21.377  36.105   9.155
 6112POPC   GL110177  21.392  36.089   8.855
 6112POPC   GL210178  21.438  36.190   8.855
 6112POPC   C1A10179  21.404  36.127   8.555
 6112POPC   D2A10180  21.343  36.131   8.255
 6112POPC   C3A10181  21.341  36.115   7.955
 6112POPC   C4A10182  21.351  36.147   7.655
 6112POPC   C1B10183  21.562  36.352   8.555
 6112POPC   C2B10184  21.553  36.276   8.255
 6112POPC   C3B10185  21.528  36.321   7.955
 6112POPC   C4B10186  21.557  36.296   7.655
 6113POPC   NC310187   2.024  14.445   9.455
 6113POPC   PO410188   2.006  14.363   9.155
 6113POPC   GL110189   2.012  14.368   8.855
 6113POPC   GL210190   1.875  14.313   8.855
 6113POPC   C1A10191   2.029  14.448   8.555
 6113POPC   D2A10192   1.989  14.438   8.255
 6113POPC   C3A10193   1.968  14.364   7.955
 6113POPC   C4A10194   2.000  14.441   7.655
 6113POPC   C1B10195   1.796  14.185   8.555
 6113POPC   C2B10196   1.802  14.196   8.255
 6113POPC   C3B10197   1.818  14.256   7.955
 6113POPC   C4B10198   1.868  14.198   7.655
 6114POPC   NC310199  33.806   9.021   9.455
 6114POPC   PO410200  33.794   9.013   9.155
 6114POPC   GL110201  33.844   9.012   8.855
 6114POPC   GL210202  33.736   8.856   8.855
 6114POPC   C1A10203  33.805   9.000   8.555
 6114POPC   D2A10204  33.797   8.940   8.255
 6114POPC   C3A10205  33.844   9.006   7.955
 6114POPC   C4A10206  33.757   8.966   7.655
 6114POPC   C1B10207  33.563   8.860   8.555
 6114POPC   C2B10208  33.615   8.849   8.255
 6114POPC   C3B10209  33.586   8.824   7.955
 6114POPC   C4B10210  33.639   8.807   7.655
 6115POPC   NC310211  12.885  29.905   9.455
 6115POPC   PO410212  12.810  29.882   9.155
 6115POPC   GL110213  12.881  29.914   8.855
 6115POPC   GL210214  12.748  29.802   8.855
 6115POPC   C1A10215  12.807  29.949   8.555
 6115POPC   D2A10216  12.824  29.964   8.255
 6115POPC   C3A10217  12.864  29.893   7.955
 6115POPC   C4A10218  12.815  29.958   7.655
 6115POPC   C1B10219  12.732  29.742   8.555
 6115POPC   C2B10220  12.723  29.712   8.255
 6115POPC   C3B10221  12.705  29.725   7.955
 6115POPC   C4B10222  12.710  29.719   7.655
 6116POPC   NC310223  36.889  23.676   9.455
 6116POPC   PO410224  36.898  23.745   9.155
 6116POPC   GL110225  36.861  23.752   8.855
 6116POPC   GL210226  36.929  23.650   8.855
 6116POPC   C1A10227  36.879  23.749   8.555
 6116POPC   D2A10228  36.884  23.669   8.255
 6116POPC   C3A10229  36.916  23.755   7.955
 6116POPC   C4A10230  36.854  23.764   7.655
 6116POPC   C1B10231  37.057  23.527   8.555
 6116POPC   C2B10232  37.058  23.468   8.255
 6116POPC   C3B10233  36.987  23.528   7.955
 6116POPC   C4B10234  37.005  23.501   7.655
 6117POPC   NC310235  12.821  13.591   9.455
 6117POPC   PO410236  12.886  13.620   9.155
 6117POPC   GL110237  12.898  13.621   8.855
 6117POPC   GL210238  12.955  13.634   8.855
 6117POPC   C1A10239  12.829  13.663   8.555
 6117POPC   D2A10240  12.832  13.595   8.255
 6117POPC   C3A10241  12.891  13.634   7.955
 6117POPC   C4A10242  12.806  13.603   7.655
 6117POPC   C1B10243  13.081  13.601   8.555
 6117POPC   C2B10244  13.116  13.696   8.255
 6117POPC   C3B10245  13.122  13.678   7.955
 6117POPC   C4B10246  13.096  13.684   7.655
 6118POPC   NC310247  38.433  29.186   9.455
 6118POPC   PO410248  38.479  29.185   9.155
 6118POPC   GL110249  38.471  29.127   8.855
 6118POPC   GL210250  38.407  29.226   8.855
 6118POPC   C1A10251  38.446  29.108   8.555
 6118POPC   D2A10252  38.459  29.096   8.255
 6118POPC   C3A10253  38.472  29.100   7.955
 6118POPC   C4A10254  38.488  29.181   7.655
 6118POPC   C1B10255  38.337  29.415   8.555
 6118POPC   C2B10256  38.397  29.381   8.255
 6118POPC   C3B10257  38.308  29.344   7.955
 6118POPC   C4B10258  38.309  29.385   7.655
 6119POPC   NC310259  20.638   4.270   9.455
 6119POPC   PO410260  20.607   4.298   9.155
 6119POPC   GL110261  20.608   4.310   8.855
 6119POPC   GL210262  20.673   4.194   8.855
 6119POPC   C1A10263  20.599   4.323   8.555
 6119POPC   D2A10264  20.637   4.340   8.255
 6119POPC   C3A10265  20.629   4.301   7.955
 6119POPC   C4A10266  20.638   4.358   7.655
 6119POPC   C1B10267  20.716   4.063   8.555
 6119POPC   C2B10268  20.722   4.121   8.255
 6119POPC   C3B10269  20.733   4.078   7.955
 6119POPC   C4B10270  20.671   4.072   7.655
 6120POPC   NC310271   3.494  19.071   9.455
 6120POPC   PO410272   3.538  19.070   9.155
 6120POPC   GL110273   3.522  19.076   8.855
 6120POPC   GL210274   3.435  18.944   8.855
 6120POPC   C1A10275   3.584  19.038   8.555
 6120POPC   D2A10276   3.556  19.079   8.255
 6120POPC   C3A10277   3.563  19.059   7.955
 6120POPC   C4A10278   3.492  19.058   7.655
 6120POPC   C1B10279   3.327  18.908   8.555
 6120POPC   C2B10280   3.281  18.946   8.255
 6120POPC   C3B10281   3.363  18.971   7.955
 6120POPC   C4B10282   3.351  18.894   7.655
 6121POPC   NC310283  12.826  41.516   9.455
 6121POPC   PO410284  12.862  41.565   9.155
 6121POPC   GL110285  12.893  41.558   8.855
 6121POPC   GL210286  12.867  41.428   8.855
 6121POPC   C1A10287  12.864  41.565   8.555
 6121POPC   D2A10288  12.818  41.523   8.255
 6121POPC   C3A10289  12.811  41.551   7.955
 6121POPC   C4A10290  12.869  41.599   7.655
 6121POPC   C1B10291  12.962  41.313   8.555
 6121POPC   C2B10292  13.006  41.360   8.255
 6121POPC   C3B10293  12.963  41.309   7.955
 6121POPC   C4B10294  12.939  41.371   7.655
 6122POPC   NC310295  23.737  22.194   9.455
 6122POPC   PO410296  23.692  22.176   9.155
 6122POPC   GL110297  23.702  22.159   8.855
 6122POPC   GL210298  23.875  22.105   8.855
 6122POPC   C1A10299  23.666  22.148   8.555
 6122POPC   D2A10300  23.693  22.176   8.255
 6122POPC   C3A10301  23.721  22.197   7.955
 6122POPC   C4A10302  23.687  22.207   7.655
 6122POPC   C1B10303  23.965  22.176   8.555
 6122POPC   C2B10304  23.989  22.090   8.255
 6122POPC   C3B10305  23.922  22.150   7.955
 6122POPC   C4B10306  23.992  22.133   7.655
 6123POPC   NC310307  20.621  13.629   9.455
 6123POPC   PO410308  20.612  13.600   9.155
 6123POPC   GL110309  20.594  13.613   8.855
 6123POPC   GL210310  20.563  13.693   8.855
 6123POPC   C1A10311  20.634  13.672   8.555
 6123POPC   D2A10312  20.573  13.628   8.255
 6123POPC   C3A10313  20.638  13.669   7.955
 6123POPC   C4A10314  20.584  13.603   7.655
 6123POPC   C1B10315  20.477  13.846   8.555
 6123POPC   C2B10316  20.484  13.805   8.255
 6123POPC   C3B10317  20.475  13.842   7.955
 6123POPC   C4B10318  20.503  13.857   7.655
 6124POPC   NC310319  11.336  26.812   9.455
 6124POPC   PO410320  11.251  26.839   9.155
 6124POPC   GL110321  11.323  26.834   8.855
 6124POPC   GL210322  11.301  26.957   8.855
 6124POPC   C1A10323  11.310  26.809   8.555
 6124POPC   D2A10324  11.286  26.772   8.255
 6124POPC   C3A10325  11.337  26.853   7.955
 6124POPC   C4A10326  11.273  26.784   7.655
 6124POPC   C1B10327  11.250  27.070   8.555
 6124POPC   C2B10328  11.172  27.021   8.255
 6124POPC   C3B10329  11.210  27.081   7.955
 6124POPC   C4B10330  11.173  27.040   7.655
 6125POPC   NC310331  36.949   2.771   9.455
 6125POPC   PO410332  36.918   2.733   9.155
 6125POPC   GL110333  36.934   2.779   8.855
 6125POPC   GL210334  37.053   2.816   8.855
 6125POPC   C1A10335  36.887   2.814   8.555
 6125POPC   D2A10336  36.870   2.720   8.255
 6125POPC   C3A10337  36.855   2.784   7.955
 6125POPC   C4A10338  36.905   2.804   7.655
 6125POPC   C1B10339  37.150   2.856   8.555
 6125POPC   C2B10340  37.157   2.870   8.255
 6125POPC   C3B10341  37.168   2.869   7.955
 6125POPC   C4B10342  37.102   2.809   7.655
 6126POPC   NC310343  38.457   2.013   9.455
 6126POPC   PO410344  38.497   1.982   9.155
 6126POPC   GL110345  38.456   2.025   8.855
 6126POPC   GL210346  38.556   1.940   8.855
 6126POPC   C1A10347  38.431   1.960   8.555
 6126POPC   D2A10348  38.407   2.033   8.255
 6126POPC   C3A10349  38.424   1.972   7.955
 6126POPC   C4A10350  38.418   1.944   7.655
 6126POPC   C1B10351  38.593   1.811   8.555
 6126POPC   C2B10352  38.574   1.833   8.255
 6126POPC   C3B10353  38.571   1.776   7.955
 6126POPC   C4B10354  38.652   1.845   7.655
 6127POPC   NC310355  32.293  32.978   9.455
 6127POPC   PO410356  32.218  33.009   9.155
 6127POPC   GL110357  32.229  33.014   8.855
 6127POPC   GL210358  32.117  33.011   8.855
 6127POPC   C1A10359  32.204  32.986   8.555
 6127POPC   D2A10360  32.288  33.053   8.255
 6127POPC   C3A10361  32.290  33.072   7.955
 6127POPC   C4A10362  32.241  33.023   7.655
 6127POPC   C1B10363  32.015  33.134   8.555
 6127POPC   C2B10364  31.961  33.073   8.255
 6127POPC   C3B10365  32.009  33.053   7.955
 6127POPC   C4B10366  31.978  33.052   7.655
 6128POPC   NC310367  21.353  30.679   9.455
 6128POPC   PO410368  21.368  30.712   9.155
 6128POPC   GL110369  21.343  30.669   8.855
 6128POPC   GL210370  21.405  30.862   8.855
 6128POPC   C1A10371  21.422  30.729   8.555
 6128POPC   D2A10372  21.347  30.667   8.255
 6128POPC   C3A10373  21.400  30.734   7.955
 6128POPC   C4A10374  21.392  30.690   7.655
 6128POPC   C1B10375  21.391  30.908   8.555
 6128POPC   C2B10376  21.415  30.960   8.255
 6128POPC   C3B10377  21.442  30.923   7.955
 6128POPC   C4B10378  21.392  30.924   7.655
 6129POPC   NC310379  10.518  22.114   9.455
 6129POPC   PO410380  10.490  22.177   9.155
 6129POPC   GL110381  10.487  22.138   8.855
 6129POPC   GL210382  10.675  22.083   8.855
 6129POPC   C1A10383  10.534  22.121   8.555
 6129POPC   D2A10384  10.548  22.139   8.255
 6129POPC   C3A10385  10.554  22.194   7.955
 6129POPC   C4A10386  10.484  22.205   7.655
 6129POPC   C1B10387  10.729  22.082   8.555
 6129POPC   C2B10388  10.737  22.103   8.255
 6129POPC   C3B10389  10.743  22.113   7.955
 6129POPC   C4B10390  10.719  22.062   7.655
 6130POPC   NC310391  12.861  12.850   9.455
 6130POPC   PO410392  12.806  12.869   9.155
 6130POPC   GL110393  12.831  12.886   8.855
 6130POPC   GL210394  12.954  12.776   8.855
 6130POPC   C1A10395  12.862  12.847   8.555
 6130POPC   D2A10396  12.895  12.839   8.255
 6130POPC   C3A10397  12.812  12.840   7.955
 6130POPC   C4A10398  12.847  12.806   7.655
 6130POPC   C1B10399  13.007  12.703   8.555
 6130POPC   C2B10400  12.989  12.621   8.255
 6130POPC   C3B10401  13.063  12.656   7.955
 6130POPC   C4B10402  13.027  12.714   7.655
 6131POPC   NC310403   7.431  36.885   9.455
 6131POPC   PO410404   7.466  36.892   9.155
 6131POPC   GL110405   7.441  36.928   8.855
 6131POPC   GL210406   7.419  37.010   8.855
 6131POPC   C1A10407   7.398  36.907   8.555
 6131POPC   D2A10408   7.464  36.874   8.255
 6131POPC   C3A10409   7.433  36.873   7.955
 6131POPC   C4A10410   7.420  36.913   7.655
 6131POPC   C1B10411   7.456  37.119   8.555
 6131POPC   C2B10412   7.478  37.185   8.255
 6131POPC   C3B10413   7.487  37.162   7.955
 6131POPC   C4B10414   7.462  37.168   7.655
 6132POPC   NC310415   9.733  23.671   9.455
 6132POPC   PO410416   9.716  23.689   9.155
 6132POPC   GL110417   9.742  23.686   8.855
 6132POPC   GL210418   9.658  23.852   8.855
 6132POPC   C1A10419   9.774  23.670   8.555
 6132POPC   D2A10420   9.705  23.700   8.255
 6132POPC   C3A10421   9.721  23.697   7.955
 6132POPC   C4A10422   9.721  23.749   7.655
 6132POPC   C1B10423   9.611  23.912   8.555
 6132POPC   C2B10424   9.652  23.892   8.255
 6132POPC   C3B10425   9.664  23.917   7.955
 6132POPC   C4B10426   9.585  23.945   7.655
 6133POPC   NC310427  40.746  35.346   9.455
 6133POPC   PO410428  40.764  35.347   9.155
 6133POPC   GL110429  40.812  35.328   8.855
 6133POPC   GL210430  40.703  35.419   8.855
 6133POPC   C1A10431  40.791  35.400   8.555
 6133POPC   D2A10432  40.831  35.396   8.255
 6133POPC   C3A10433  40.818  35.334   7.955
 6133POPC   C4A10434  40.749  35.337   7.655
 6133POPC   C1B10435  40.568  35.433   8.555
 6133POPC   C2B10436  40.545  35.468   8.255
 6133POPC   C3B10437  40.590  35.435   7.955
 6133POPC   C4B10438  40.610  35.443   7.655
 6134POPC   NC310439  35.398  19.785   9.455
 6134POPC   PO410440  35.354  19.837   9.155
 6134POPC   GL110441  35.356  19.845   8.855
 6134POPC   GL210442  35.491  19.760   8.855
 6134POPC   C1A10443  35.390  19.830   8.555
 6134POPC   D2A10444  35.329  19.871   8.255
 6134POPC   C3A10445  35.371  19.845   7.955
 6134POPC   C4A10446  35.308  19.825   7.655
 6134POPC   C1B10447  35.504  19.719   8.555
 6134POPC   C2B10448  35.550  19.630   8.255
 6134POPC   C3B10449  35.536  19.710   7.955
 6134POPC   C4B10450  35.512  19.675   7.655
 6135POPC   NC310451  26.058   8.217   9.455
 6135POPC   PO410452  26.036   8.195   9.155
 6135POPC   GL110453  26.011   8.151   8.855
 6135POPC   GL210454  26.001   8.327   8.855
 6135POPC   C1A10455  26.010   8.206   8.555
 6135POPC   D2A10456  26.042   8.195   8.255
 6135POPC   C3A10457  26.046   8.232   7.955
 6135POPC   C4A10458  26.039   8.228   7.655
 6135POPC   C1B10459  26.027   8.412   8.555
 6135POPC   C2B10460  26.005   8.426   8.255
 6135POPC   C3B10461  26.045   8.488   7.955
 6135POPC   C4B10462  26.014   8.463   7.655
 6136POPC   NC310463  43.074  24.511   9.455
 6136POPC   PO410464  43.092  24.473   9.155
 6136POPC   GL110465  43.070  24.447   8.855
 6136POPC   GL210466  43.284  24.542   8.855
 6136POPC   C1A10467  43.067  24.441   8.555
 6136POPC   D2A10468  43.138  24.474   8.255
 6136POPC   C3A10469  43.082  24.454   7.955
 6136POPC   C4A10470  43.115  24.462   7.655
 6136POPC   C1B10471  43.347  24.529   8.555
 6136POPC   C2B10472  43.336  24.446   8.255
 6136POPC   C3B10473  43.344  24.476   7.955
 6136POPC   C4B10474  43.342  24.457   7.655
 6137POPC   NC310475  26.783  15.133   9.455
 6137POPC   PO410476  26.772  15.177   9.155
 6137POPC   GL110477  26.811  15.179   8.855
 6137POPC   GL210478  26.909  15.189   8.855
 6137POPC   C1A10479  26.794  15.225   8.555
 6137POPC   D2A10480  26.864  15.151   8.255
 6137POPC   C3A10481  26.852  15.223   7.955
 6137POPC   C4A10482  26.781  15.166   7.655
 6137POPC   C1B10483  27.012  15.271   8.555
 6137POPC   C2B10484  27.105  15.214   8.255
 6137POPC   C3B10485  27.085  15.232   7.955
 6137POPC   C4B10486  27.086  15.248   7.655
 6138POPC   NC310487  13.672  19.835   9.455
 6138POPC   PO410488  13.636  19.809   9.155
 6138POPC   GL110489  13.633  19.852   8.855
 6138POPC   GL210490  13.716  19.976   8.855
 6138POPC   C1A10491  13.608  19.798   8.555
 6138POPC   D2A10492  13.612  19.805   8.255
 6138POPC   C3A10493  13.614  19.873   7.955
 6138POPC   C4A10494  13.641  19.824   7.655
 6138POPC   C1B10495  13.792  20.003   8.555
 6138POPC   C2B10496  13.787  20.090   8.255
 6138POPC   C3B10497  13.794  19.998   7.955
 6138POPC   C4B10498  13.732  20.009   7.655
 6139POPC   NC310499  39.996  20.618   9.455
 6139POPC   PO410500  40.017  20.615   9.155
 6139POPC   GL110501  40.020  20.623   8.855
 6139POPC   GL210502  39.900  20.695   8.855
 6139POPC   C1A10503  40.050  20.645   8.555
 6139POPC   D2A10504  39.958  20.640   8.255
 6139POPC   C3A10505  40.015  20.577   7.955
 6139POPC   C4A10506  40.010  20.592   7.655
 6139POPC   C1B10507  39.822  20.746   8.555
 6139POPC   C2B10508  39.829  20.697   8.255
 6139POPC   C3B10509  39.784  20.741   7.955
 6139POPC   C4B10510  39.833  20.773   7.655
 6140POPC   NC310511   1.211   8.173   9.455
 6140POPC   PO410512   1.254   8.231   9.155
 6140POPC   GL110513   1.189   8.206   8.855
 6140POPC   GL210514   1.369   8.199   8.855
 6140POPC   C1A10515   1.177   8.236   8.555
 6140POPC   D2A10516   1.204   8.178   8.255
 6140POPC   C3A10517   1.168   8.219   7.955
 6140POPC   C4A10518   1.194   8.151   7.655
 6140POPC   C1B10519   1.476   8.178   8.555
 6140POPC   C2B10520   1.443   8.155   8.255
 6140POPC   C3B10521   1.485   8.116   7.955
 6140POPC   C4B10522   1.477   8.191   7.655
 6141POPC   NC310523  30.680  19.819   9.455
 6141POPC   PO410524  30.676  19.815   9.155
 6141POPC   GL110525  30.699  19.797   8.855
 6141POPC   GL210526  30.560  19.750   8.855
 6141POPC   C1A10527  30.686  19.799   8.555
 6141POPC   D2A10528  30.698  19.877   8.255
 6141POPC   C3A10529  30.668  19.820   7.955
 6141POPC   C4A10530  30.658  19.824   7.655
 6141POPC   C1B10531  30.499  19.711   8.555
 6141POPC   C2B10532  30.428  19.721   8.255
 6141POPC   C3B10533  30.441  19.729   7.955
 6141POPC   C4B10534  30.493  19.724   7.655
 6142POPC   NC310535  39.271  39.236   9.455
 6142POPC   PO410536  39.222  39.206   9.155
 6142POPC   GL110537  39.188  39.208   8.855
 6142POPC   GL210538  39.144  39.204   8.855
 6142POPC   C1A10539  39.205  39.253   8.555
 6142POPC   D2A10540  39.210  39.229   8.255
 6142POPC   C3A10541  39.200  39.240   7.955
 6142POPC   C4A10542  39.252  39.205   7.655
 6142POPC   C1B10543  38.947  39.249   8.555
 6142POPC   C2B10544  38.983  39.269   8.255
 6142POPC   C3B10545  38.969  39.240   7.955
 6142POPC   C4B10546  38.971  39.259   7.655
 6143POPC   NC310547   4.318   3.523   9.455
 6143POPC   PO410548   4.282   3.539   9.155
 6143POPC   GL110549   4.278   3.547   8.855
 6143POPC   GL210550   4.299   3.374   8.855
 6143POPC   C1A10551   4.310   3.554   8.555
 6143POPC   D2A10552   4.299   3.558   8.255
 6143POPC   C3A10553   4.315   3.493   7.955
 6143POPC   C4A10554   4.326   3.528   7.655
 6143POPC   C1B10555   4.371   3.334   8.555
 6143POPC   C2B10556   4.401   3.293   8.255
 6143POPC   C3B10557   4.316   3.291   7.955
 6143POPC   C4B10558   4.395   3.248   7.655
 6144POPC   NC310559  33.014  33.785   9.455
 6144POPC   PO410560  33.027  33.790   9.155
 6144POPC   GL110561  33.041  33.843   8.855
 6144POPC   GL210562  33.027  33.955   8.855
 6144POPC   C1A10563  33.057  33.801   8.555
 6144POPC   D2A10564  33.010  33.782   8.255
 6144POPC   C3A10565  33.042  33.794   7.955
 6144POPC   C4A10566  33.012  33.839   7.655
 6144POPC   C1B10567  33.135  34.074   8.555
 6144POPC   C2B10568  33.085  34.017   8.255
 6144POPC   C3B10569  33.107  34.038   7.955
 6144POPC   C4B10570  33.108  34.053   7.655
 6145POPC   NC310571  10.481  40.794   9.455
 6145POPC   PO410572  10.533  40.767   9.155
 6145POPC   GL110573  10.553  40.816   8.855
 6145POPC   GL210574  10.393  40.839   8.855
 6145POPC   C1A10575  10.510  40.775   8.555
 6145POPC   D2A10576  10.530  40.797   8.255
 6145POPC   C3A10577  10.518  40.744   7.955
 6145POPC   C4A10578  10.508  40.804   7.655
 6145POPC   C1B10579  10.325  40.840   8.555
 6145POPC   C2B10580  10.238  40.789   8.255
 6145POPC   C3B10581  10.273  40.777   7.955
 6145POPC   C4B10582  10.290  40.824   7.655
 6146POPC   NC310583  22.173  15.181   9.455
 6146POPC   PO410584  22.136  15.211   9.155
 6146POPC   GL110585  22.175  15.176   8.855
 6146POPC   GL210586  22.007  15.168   8.855
 6146POPC   C1A10587  22.194  15.229   8.555
 6146POPC   D2A10588  22.150  15.205   8.255
 6146POPC   C3A10589  22.181  15.222   7.955
 6146POPC   C4A10590  22.135  15.145   7.655
 6146POPC   C1B10591  21.944  15.096   8.555
 6146POPC   C2B10592  21.941  15.113   8.255
 6146POPC   C3B10593  21.947  15.056   7.955
 6146POPC   C4B10594  21.932  15.048   7.655
 6147POPC   NC310595  42.324  24.533   9.455
 6147POPC   PO410596  42.375  24.517   9.155
 6147POPC   GL110597  42.326  24.460   8.855
 6147POPC   GL210598  42.246  24.567   8.855
 6147POPC   C1A10599  42.350  24.520   8.555
 6147POPC   D2A10600  42.365  24.487   8.255
 6147POPC   C3A10601  42.304  24.456   7.955
 6147POPC   C4A10602  42.346  24.505   7.655
 6147POPC   C1B10603  42.153  24.592   8.555
 6147POPC   C2B10604  42.140  24.590   8.255
 6147POPC   C3B10605  42.071  24.615   7.955
 6147POPC   C4B10606  42.128  24.600   7.655
 6148POPC   NC310607  29.925  40.762   9.455
 6148POPC   PO410608  29.920  40.815   9.155
 6148POPC   GL110609  29.899  40.759   8.855
 6148POPC   GL210610  29.849  40.933   8.855
 6148POPC   C1A10611  29.903  40.808   8.555
 6148POPC   D2A10612  29.872  40.827   8.255
 6148POPC   C3A10613  29.955  40.773   7.955
 6148POPC   C4A10614  29.941  40.761   7.655
 6148POPC   C1B10615  29.779  40.980   8.555
 6148POPC   C2B10616  29.806  41.016   8.255
 6148POPC   C3B10617  29.816  41.033   7.955
 6148POPC   C4B10618  29.832  41.049   7.655
 6149POPC   NC310619  15.972  19.015   9.455
 6149POPC   PO410620  15.912  19.075   9.155
 6149POPC   GL110621  15.938  19.058   8.855
 6149POPC   GL210622  15.819  19.118   8.855
 6149POPC   C1A10623  15.953  19.067   8.555
 6149POPC   D2A10624  15.930  19.069   8.255
 6149POPC   C3A10625  15.924  19.086   7.955
 6149POPC   C4A10626  15.926  19.053   7.655
 6149POPC   C1B10627  15.741  19.124   8.555
 6149POPC   C2B10628  15.745  19.138   8.255
 6149POPC   C3B10629  15.685  19.137   7.955
 6149POPC   C4B10630  15.726  19.086   7.655
 6150POPC   NC310631  10.533   9.733   9.455
 6150POPC   PO410632  10.563   9.761   9.155
 6150POPC   GL110633  10.478   9.744   8.855
 6150POPC   GL210634  10.509   9.828   8.855
 6150POPC   C1A10635  10.517   9.735   8.555
 6150POPC   D2A10636  10.533   9.757   8.255
 6150POPC   C3A10637  10.487   9.768   7.955
 6150POPC   C4A10638  10.539   9.791   7.655
 6150POPC   C1B10639  10.526  10.003   8.555
 6150POPC   C2B10640  10.549  10.003   8.255
 6150POPC   C3B10641  10.558   9.989   7.955
 6150POPC   C4B10642  10.496   9.961   7.655
 6151POPC   NC310643  14.439  21.350   9.455
 6151POPC   PO410644  14.451  21.408   9.155
 6151POPC   GL110645  14.426  21.365   8.855
 6151POPC   GL210646  14.476  21.450   8.855
 6151POPC   C1A10647  14.380  21.342   8.555
 6151POPC   D2A10648  14.426  21.347   8.255
 6151POPC   C3A10649  14.432  21.393   7.955
 6151POPC   C4A10650  14.420  21.426   7.655
 6151POPC   C1B10651  14.614  21.511   8.555
 6151POPC   C2B10652  14.603  21.438   8.255
 6151POPC   C3B10653  14.669  21.460   7.955
 6151POPC   C4B10654  14.643  21.525   7.655
 6152POPC   NC310655  22.160  38.406   9.455
 6152POPC   PO410656  22.196  38.457   9.155
 6152POPC   GL110657  22.121  38.420   8.855
 6152POPC   GL210658  22.021  38.415   8.855
 6152POPC   C1A10659  22.130  38.424   8.555
 6152POPC   D2A10660  22.156  38.430   8.255
 6152POPC   C3A10661  22.203  38.494   7.955
 6152POPC   C4A10662  22.210  38.417   7.655
 6152POPC   C1B10663  21.871  38.470   8.555
 6152POPC   C2B10664  21.945  38.497   8.255
 6152POPC   C3B10665  21.917  38.429   7.955
 6152POPC   C4B10666  21.921  38.425   7.655
 6153POPC   NC310667  12.066  25.995   9.455
 6153POPC   PO410668  12.111  26.042   9.155
 6153POPC   GL110669  12.103  25.995   8.855
 6153POPC   GL210670  11.990  26.075   8.855
 6153POPC   C1A10671  12.114  26.043   8.555
 6153POPC   D2A10672  12.074  25.992   8.255
 6153POPC   C3A10673  12.081  26.084   7.955
 6153POPC   C4A10674  12.048  25.996   7.655
 6153POPC   C1B10675  11.795  26.018   8.555
 6153POPC   C2B10676  11.858  26.064   8.255
 6153POPC   C3B10677  11.787  26.053   7.955
 6153POPC   C4B10678  11.842  26.059   7.655
 6154POPC   NC310679  26.811  11.336   9.455
 6154POPC   PO410680  26.848  11.314   9.155
 6154POPC   GL110681  26.811  11.273   8.855
 6154POPC   GL210682  26.899  11.331   8.855
 6154POPC   C1A10683  26.843  11.308   8.555
 6154POPC   D2A10684  26.777  11.349   8.255
 6154POPC   C3A10685  26.769  11.343   7.955
 6154POPC   C4A10686  26.815  11.324   7.655
 6154POPC   C1B10687  27.028  11.381   8.555
 6154POPC   C2B10688  27.028  11.363   8.255
 6154POPC   C3B10689  27.092  11.424   7.955
 6154POPC   C4B10690  27.080  11.330   7.655
 6155POPC   NC310691  29.944  30.720   9.455
 6155POPC   PO410692  29.895  30.701   9.155
 6155POPC   GL110693  29.885  30.667   8.855
 6155POPC   GL210694  29.835  30.726   8.855
 6155POPC   C1A10695  29.967  30.678   8.555
 6155POPC   D2A10696  29.925  30.704   8.255
 6155POPC   C3A10697  29.950  30.715   7.955
 6155POPC   C4A10698  29.934  30.668   7.655
 6155POPC   C1B10699  29.638  30.700   8.555
 6155POPC   C2B10700  29.650  30.739   8.255
 6155POPC   C3B10701  29.642  30.692   7.955
 6155POPC   C4B10702  29.716  30.668   7.655
 6156POPC   NC310703  28.323   3.571   9.455
 6156POPC   PO410704  28.344   3.548   9.155
 6156POPC   GL110705  28.356   3.551   8.855
 6156POPC   GL210706  28.358   3.437   8.855
 6156POPC   C1A10707  28.394   3.524   8.555
 6156POPC   D2A10708  28.409   3.560   8.255
 6156POPC   C3A10709  28.404   3.516   7.955
 6156POPC   C4A10710  28.391   3.562   7.655
 6156POPC   C1B10711  28.411   3.255   8.555
 6156POPC   C2B10712  28.409   3.316   8.255
 6156POPC   C3B10713  28.361   3.265   7.955
 6156POPC   C4B10714  28.397   3.268   7.655
 6157POPC   NC310715  34.582  42.333   9.455
 6157POPC   PO410716  34.605  42.324   9.155
 6157POPC   GL110717  34.618  42.329   8.855
 6157POPC   GL210718  34.520  42.245   8.855
 6157POPC   C1A10719  34.550  42.298   8.555
 6157POPC   D2A10720  34.547  42.356   8.255
 6157POPC   C3A10721  34.620  42.316   7.955
 6157POPC   C4A10722  34.571  42.328   7.655
 6157POPC   C1B10723  34.488  42.136   8.555
 6157POPC   C2B10724  34.467  42.059   8.255
 6157POPC   C3B10725  34.450  42.080   7.955
 6157POPC   C4B10726  34.447  42.135   7.655
 6158POPC   NC310727  38.408  11.310   9.455
 6158POPC   PO410728  38.413  11.280   9.155
 6158POPC   GL110729  38.459  11.272   8.855
 6158POPC   GL210730  38.567  11.258   8.855
 6158POPC   C1A10731  38.407  11.292   8.555
 6158POPC   D2A10732  38.471  11.346   8.255
 6158POPC   C3A10733  38.459  11.266   7.955
 6158POPC   C4A10734  38.466  11.310   7.655
 6158POPC   C1B10735  38.652  11.188   8.555
 6158POPC   C2B10736  38.654  11.215   8.255
 6158POPC   C3B10737  38.681  11.140   7.955
 6158POPC   C4B10738  38.693  11.175   7.655
 6159POPC   NC310739   4.276  26.854   9.455
 6159POPC   PO410740   4.321  26.857   9.155
 6159POPC   GL110741   4.346  26.866   8.855
 6159POPC   GL210742   4.176  26.894   8.855
 6159POPC   C1A10743   4.309  26.784   8.555
 6159POPC   D2A10744   4.315  26.803   8.255
 6159POPC   C3A10745   4.284  26.769   7.955
 6159POPC   C4A10746   4.278  26.784   7.655
 6159POPC   C1B10747   4.140  26.981   8.555
 6159POPC   C2B10748   4.142  26.956   8.255
 6159POPC   C3B10749   4.063  26.972   7.955
 6159POPC   C4B10750   4.142  26.904   7.655
 6160POPC   NC310751  32.209  18.302   9.455
 6160POPC   PO410752  32.295  18.256   9.155
 6160POPC   GL110753  32.259  18.314   8.855
 6160POPC   GL210754  32.372  18.266   8.855
 6160POPC   C1A10755  32.235  18.331   8.555
 6160POPC   D2A10756  32.246  18.238   8.255
 6160POPC   C3A10757  32.212  18.252   7.955
 6160POPC   C4A10758  32.250  18.288   7.655
 6160POPC   C1B10759  32.495  18.233   8.555
 6160POPC   C2B10760  32.454  18.292   8.255
 6160POPC   C3B10761  32.524  18.270   7.955
 6160POPC   C4B10762  32.462  18.278   7.655
 6161POPC   NC310763  40.054  39.975   9.455
 6161POPC   PO410764  39.967  40.003   9.155
 6161POPC   GL110765  39.999  40.010   8.855
 6161POPC   GL210766  39.903  39.973   8.855
 6161POPC   C1A10767  39.977  39.994   8.555
 6161POPC   D2A10768  40.051  39.981   8.255
 6161POPC   C3A10769  39.975  40.052   7.955
 6161POPC   C4A10770  39.989  40.039   7.655
 6161POPC   C1B10771  39.779  39.901   8.555
 6161POPC   C2B10772  39.837  39.876   8.255
 6161POPC   C3B10773  39.786  39.839   7.955
 6161POPC   C4B10774  39.765  39.833   7.655
 6162POPC   NC310775  40.025  36.861   9.455
 6162POPC   PO410776  39.989  36.874   9.155
 6162POPC   GL110777  40.007  36.876   8.855
 6162POPC   GL210778  40.046  36.795   8.855
 6162POPC   C1A10779  40.055  36.877   8.555
 6162POPC   D2A10780  40.021  36.936   8.255
 6162POPC   C3A10781  40.052  36.940   7.955
 6162POPC   C4A10782  39.970  36.929   7.655
 6162POPC   C1B10783  40.102  36.721   8.555
 6162POPC   C2B10784  40.126  36.656   8.255
 6162POPC   C3B10785  40.145  36.717   7.955
 6162POPC   C4B10786  40.138  36.675   7.655
 6163POPC   NC310787  26.818  42.306   9.455
 6163POPC   PO410788  26.803  42.384   9.155
 6163POPC   GL110789  26.782  42.294   8.855
 6163POPC   GL210790  26.965  42.411   8.855
 6163POPC   C1A10791  26.779  42.330   8.555
 6163POPC   D2A10792  26.768  42.365   8.255
 6163POPC   C3A10793  26.828  42.342   7.955
 6163POPC   C4A10794  26.835  42.322   7.655
 6163POPC   C1B10795  26.986  42.505   8.555
 6163POPC   C2B10796  27.001  42.531   8.255
 6163POPC   C3B10797  26.970  42.526   7.955
 6163POPC   C4B10798  27.027  42.501   7.655
 6164POPC   NC310799  23.696  28.332   9.455
 6164POPC   PO410800  23.683  28.357   9.155
 6164POPC   GL110801  23.750  28.382   8.855
 6164POPC   GL210802  23.701  28.531   8.855
 6164POPC   C1A10803  23.712  28.321   8.555
 6164POPC   D2A10804  23.708  28.389   8.255
 6164POPC   C3A10805  23.754  28.352   7.955
 6164POPC   C4A10806  23.702  28.388   7.655
 6164POPC   C1B10807  23.733  28.654   8.555
 6164POPC   C2B10808  23.731  28.579   8.255
 6164POPC   C3B10809  23.746  28.641   7.955
 6164POPC   C4B10810  23.723  28.666   7.655
 6165POPC   NC310811  29.191  24.451   9.455
 6165POPC   PO410812  29.154  24.496   9.155
 6165POPC   GL110813  29.099  24.512   8.855
 6165POPC   GL210814  29.208  24.561   8.855
 6165POPC   C1A10815  29.167  24.519   8.555
 6165POPC   D2A10816  29.142  24.518   8.255
 6165POPC   C3A10817  29.170  24.520   7.955
 6165POPC   C4A10818  29.133  24.468   7.655
 6165POPC   C1B10819  29.402  24.589   8.555
 6165POPC   C2B10820  29.374  24.610   8.255
 6165POPC   C3B10821  29.336  24.638   7.955
 6165POPC   C4B10822  29.334  24.661   7.655
 6166POPC   NC310823  36.136  35.349   9.455
 6166POPC   PO410824  36.133  35.366   9.155
 6166POPC   GL110825  36.162  35.338   8.855
 6166POPC   GL210826  36.068  35.513   8.855
 6166POPC   C1A10827  36.082  35.364   8.555
 6166POPC   D2A10828  36.134  35.393   8.255
 6166POPC   C3A10829  36.084  35.355   7.955
 6166POPC   C4A10830  36.132  35.341   7.655
 6166POPC   C1B10831  36.051  35.555   8.555
 6166POPC   C2B10832  36.008  35.578   8.255
 6166POPC   C3B10833  36.067  35.573   7.955
 6166POPC   C4B10834  36.056  35.557   7.655
 6167POPC   NC310835  28.403   1.190   9.455
 6167POPC   PO410836  28.392   1.257   9.155
 6167POPC   GL110837  28.387   1.189   8.855
 6167POPC   GL210838  28.417   1.345   8.855
 6167POPC   C1A10839  28.395   1.172   8.555
 6167POPC   D2A10840  28.407   1.192   8.255
 6167POPC   C3A10841  28.363   1.260   7.955
 6167POPC   C4A10842  28.408   1.176   7.655
 6167POPC   C1B10843  28.368   1.470   8.555
 6167POPC   C2B10844  28.417   1.455   8.255
 6167POPC   C3B10845  28.451   1.508   7.955
 6167POPC   C4B10846  28.382   1.412   7.655
 6168POPC   NC310847  12.031   1.169   9.455
 6168POPC   PO410848  12.088   1.227   9.155
 6168POPC   GL110849  12.106   1.238   8.855
 6168POPC   GL210850  12.154   1.128   8.855
 6168POPC   C1A10851  12.124   1.195   8.555
 6168POPC   D2A10852  12.073   1.194   8.255
 6168POPC   C3A10853  12.091   1.230   7.955
 6168POPC   C4A10854  12.083   1.229   7.655
 6168POPC   C1B10855  12.172   1.039   8.555
 6168POPC   C2B10856  12.161   0.965   8.255
 6168POPC   C3B10857  12.194   1.014   7.955
 6168POPC   C4B10858  12.141   1.017   7.655
 6169POPC   NC310859   1.194   3.591   9.455
 6169POPC   PO410860   1.169   3.543   9.155
 6169POPC   GL110861   1.229   3.587   8.855
 6169POPC   GL210862   1.288   3.447   8.855
 6169POPC   C1A10863   1.217   3.518   8.555
 6169POPC   D2A10864   1.213   3.546   8.255
 6169POPC   C3A10865   1.164   3.556   7.955
 6169POPC   C4A10866   1.232   3.581   7.655
 6169POPC   C1B10867   1.268   3.269   8.555
 6169POPC   C2B10868   1.338   3.362   8.255
 6169POPC   C3B10869   1.294   3.322   7.955
 6169POPC   C4B10870   1.355   3.339   7.655
 6170POPC   NC310871  40.806  38.441   9.455
 6170POPC   PO410872  40.750  38.482   9.155
 6170POPC   GL110873  40.743  38.505   8.855
 6170POPC   GL210874  40.668  38.413   8.855
 6170POPC   C1A10875  40.813  38.412   8.555
 6170POPC   D2A10876  40.799  38.465   8.255
 6170POPC   C3A10877  40.769  38.490   7.955
 6170POPC   C4A10878  40.762  38.495   7.655
 6170POPC   C1B10879  40.518  38.416   8.555
 6170POPC   C2B10880  40.539  38.401   8.255
 6170POPC   C3B10881  40.543  38.413   7.955
 6170POPC   C4B10882  40.518  38.417   7.655
 6171POPC   NC310883  25.994  26.807   9.455
 6171POPC   PO410884  26.079  26.831   9.155
 6171POPC   GL110885  26.000  26.843   8.855
 6171POPC   GL210886  26.156  26.945   8.855
 6171POPC   C1A10887  26.012  26.807   8.555
 6171POPC   D2A10888  26.055  26.833   8.255
 6171POPC   C3A10889  26.045  26.777   7.955
 6171POPC   C4A10890  26.084  26.778   7.655
 6171POPC   C1B10891  26.234  26.996   8.555
 6171POPC   C2B10892  26.177  27.040   8.255
 6171POPC   C3B10893  26.192  26.959   7.955
 6171POPC   C4B10894  26.226  27.041   7.655
 6172POPC   NC310895  38.450  17.514   9.455
 6172POPC   PO410896  38.495  17.557   9.155
 6172POPC   GL110897  38.421  17.465   8.855
 6172POPC   GL210898  38.501  17.633   8.855
 6172POPC   C1A10899  38.456  17.469   8.555
 6172POPC   D2A10900  38.480  17.457   8.255
 6172POPC   C3A10901  38.444  17.540   7.955
 6172POPC   C4A10902  38.411  17.462   7.655
 6172POPC   C1B10903  38.549  17.711   8.555
 6172POPC   C2B10904  38.590  17.683   8.255
 6172POPC   C3B10905  38.541  17.753   7.955
 6172POPC   C4B10906  38.608  17.749   7.655
 6173POPC   NC310907  26.862   3.530   9.455
 6173POPC   PO410908  26.779   3.542   9.155
 6173POPC   GL110909  26.863   3.550   8.855
 6173POPC   GL210910  26.955   3.499   8.855
 6173POPC   C1A10911  26.861   3.514   8.555
 6173POPC   D2A10912  26.806   3.541   8.255
 6173POPC   C3A10913  26.828   3.552   7.955
 6173POPC   C4A10914  26.810   3.541   7.655
 6173POPC   C1B10915  27.036   3.460   8.555
 6173POPC   C2B10916  27.054   3.433   8.255
 6173POPC   C3B10917  27.030   3.464   7.955
 6173POPC   C4B10918  27.062   3.442   7.655
 6174POPC   NC310919   5.077  15.978   9.455
 6174POPC   PO410920   5.064  15.932   9.155
 6174POPC   GL110921   5.064  15.955   8.855
 6174POPC   GL210922   5.115  15.850   8.855
 6174POPC   C1A10923   5.101  15.993   8.555
 6174POPC   D2A10924   5.142  15.917   8.255
 6174POPC   C3A10925   5.080  16.000   7.955
 6174POPC   C4A10926   5.129  15.987   7.655
 6174POPC   C1B10927   5.189  15.692   8.555
 6174POPC   C2B10928   5.165  15.705   8.255
 6174POPC   C3B10929   5.186  15.757   7.955
 6174POPC   C4B10930   5.198  15.733   7.655
 6175POPC   NC310931  26.855  37.687   9.455
 6175POPC   PO410932  26.820  37.729   9.155
 6175POPC   GL110933  26.864  37.718   8.855
 6175POPC   GL210934  26.749  37.713   8.855
 6175POPC   C1A10935  26.828  37.710   8.555
 6175POPC   D2A10936  26.821  37.673   8.255
 6175POPC   C3A10937  26.845  37.633   7.955
 6175POPC   C4A10938  26.787  37.695   7.655
 6175POPC   C1B10939  26.586  37.872   8.555
 6175POPC   C2B10940  26.655  37.823   8.255
 6175POPC   C3B10941  26.627  37.856   7.955
 6175POPC   C4B10942  26.657  37.840   7.655
 6176POPC   NC310943  17.511  31.462   9.455
 6176POPC   PO410944  17.536  31.503   9.155
 6176POPC   GL110945  17.486  31.461   8.855
 6176POPC   GL210946  17.535  31.618   8.855
 6176POPC   C1A10947  17.539  31.505   8.555
 6176POPC   D2A10948  17.461  31.488   8.255
 6176POPC   C3A10949  17.544  31.492   7.955
 6176POPC   C4A10950  17.465  31.483   7.655
 6176POPC   C1B10951  17.618  31.752   8.555
 6176POPC   C2B10952  17.640  31.681   8.255
 6176POPC   C3B10953  17.585  31.739   7.955
 6176POPC   C4B10954  17.647  31.714   7.655
 6177POPC   NC310955  40.028  31.449   9.455
 6177POPC   PO410956  39.976  31.469   9.155
 6177POPC   GL110957  40.000  31.505   8.855
 6177POPC   GL210958  40.176  31.510   8.855
 6177POPC   C1A10959  39.989  31.430   8.555
 6177POPC   D2A10960  39.969  31.483   8.255
 6177POPC   C3A10961  40.034  31.482   7.955
 6177POPC   C4A10962  39.982  31.521   7.655
 6177POPC   C1B10963  40.271  31.407   8.555
 6177POPC   C2B10964  40.302  31.425   8.255
 6177POPC   C3B10965  40.301  31.421   7.955
 6177POPC   C4B10966  40.240  31.481   7.655
 6178POPC   NC310967   8.942  39.958   9.455
 6178POPC   PO410968   8.982  39.970   9.155
 6178POPC   GL110969   8.936  39.980   8.855
 6178POPC   GL210970   9.106  40.106   8.855
 6178POPC   C1A10971   8.997  40.015   8.555
 6178POPC   D2A10972   8.925  39.975   8.255
 6178POPC   C3A10973   8.924  40.036   7.955
 6178POPC   C4A10974   8.955  40.032   7.655
 6178POPC   C1B10975   9.181  40.067   8.555
 6178POPC   C2B10976   9.246  40.160   8.255
 6178POPC   C3B10977   9.239  40.159   7.955
 6178POPC   C4B10978   9.181  40.145   7.655
 6179POPC   NC310979  28.361   8.234   9.455
 6179POPC   PO410980  28.331   8.168   9.155
 6179POPC   GL110981  28.367   8.188   8.855
 6179POPC   GL210982  28.470   8.058   8.855
 6179POPC   C1A10983  28.365   8.235   8.555
 6179POPC   D2A10984  28.389   8.153   8.255
 6179POPC   C3A10985  28.385   8.160   7.955
 6179POPC   C4A10986  28.409   8.221   7.655
 6179POPC   C1B10987  28.517   8.028   8.555
 6179POPC   C2B10988  28.492   8.018   8.255
 6179POPC   C3B10989  28.500   8.015   7.955
 6179POPC   C4B10990  28.501   7.973   7.655
 6180POPC   NC310991  35.342  34.598   9.455
 6180POPC   PO410992  35.345  34.588   9.155
 6180POPC   GL110993  35.397  34.526   8.855
 6180POPC   GL210994  35.418  34.618   8.855
 6180POPC   C1A10995  35.338  34.526   8.555
 6180POPC   D2A10996  35.367  34.551   8.255
 6180POPC   C3A10997  35.330  34.572   7.955
 6180POPC   C4A10998  35.390  34.620   7.655
 6180POPC   C1B10999  35.509  34.706   8.555
 6180POPC   C2B11000  35.532  34.717   8.255
 6180POPC   C3B11001  35.515  34.706   7.955
 6180POPC   C4B11002  35.521  34.803   7.655
 6181POPC   NC311003  29.166  37.651   9.455
 6181POPC   PO411004  29.138  37.720   9.155
 6181POPC   GL111005  29.136  37.688   8.855
 6181POPC   GL211006  29.082  37.745   8.855
 6181POPC   C1A11007  29.149  37.630   8.555
 6181POPC   D2A11008  29.143  37.691   8.255
 6181POPC   C3A11009  29.194  37.688   7.955
 6181POPC   C4A11010  29.128  37.656   7.655
 6181POPC   C1B11011  28.986  37.908   8.555
 6181POPC   C2B11012  28.987  37.914   8.255
 6181POPC   C3B11013  29.056  37.859   7.955
 6181POPC   C4B11014  29.043  37.887   7.655
 6182POPC   NC311015  43.155  22.964   9.455
 6182POPC   PO411016  43.066  22.973   9.155
 6182POPC   GL111017  43.072  22.979   8.855
 6182POPC   GL211018  43.171  23.034   8.855
 6182POPC   C1A11019  43.134  22.937   8.555
 6182POPC   D2A11020  43.119  22.961   8.255
 6182POPC   C3A11021  43.089  22.901   7.955
 6182POPC   C4A11022  43.104  22.924   7.655
 6182POPC   C1B11023  43.140  23.213   8.555
 6182POPC   C2B11024  43.172  23.175   8.255
 6182POPC   C3B11025  43.172  23.145   7.955
 6182POPC   C4B11026  43.159  23.189   7.655
 6183POPC   NC311027  39.185   1.952   9.455
 6183POPC   PO411028  39.269   2.035   9.155
 6183POPC   GL111029  39.182   2.018   8.855
 6183POPC   GL211030  39.276   1.845   8.855
 6183POPC   C1A11031  39.202   2.032   8.555
 6183POPC   D2A11032  39.249   2.036   8.255
 6183POPC   C3A11033  39.189   2.023   7.955
 6183POPC   C4A11034  39.231   1.989   7.655
 6183POPC   C1B11035  39.250   1.772   8.555
 6183POPC   C2B11036  39.269   1.761   8.255
 6183POPC   C3B11037  39.256   1.733   7.955
 6183POPC   C4B11038  39.307   1.784   7.655
 6184POPC   NC311039   7.467   5.893   9.455
 6184POPC   PO411040   7.436   5.839   9.155
 6184POPC   GL111041   7.451   5.865   8.855
 6184POPC   GL211042   7.294   5.945   8.855
 6184POPC   C1A11043   7.468   5.848   8.555
 6184POPC   D2A11044   7.446   5.887   8.255
 6184POPC   C3A11045   7.389   5.834   7.955
 6184POPC   C4A11046   7.391   5.917   7.655
 6184POPC   C1B11047   7.232   6.053   8.555
 6184POPC   C2B11048   7.243   6.014   8.255
 6184POPC   C3B11049   7.200   6.041   7.955
 6184POPC   C4B11050   7.198   6.068   7.655
 6185POPC   NC311051  12.106  10.566   9.455
 6185POPC   PO411052  12.106  10.475   9.155
 6185POPC   GL111053  12.090  10.541   8.855
 6185POPC   GL211054  11.939  10.626   8.855
 6185POPC   C1A11055  12.040  10.528   8.555
 6185POPC   D2A11056  12.027  10.494   8.255
 6185POPC   C3A11057  12.076  10.571   7.955
 6185POPC   C4A11058  12.042  10.517   7.655
 6185POPC   C1B11059  11.946  10.696   8.555
 6185POPC   C2B11060  11.920  10.698   8.255
 6185POPC   C3B11061  11.886  10.653   7.955
 6185POPC   C4B11062  11.915  10.748   7.655
 6186POPC   NC311063  35.356   5.906   9.455
 6186POPC   PO411064  35.343   5.855   9.155
 6186POPC   GL111065  35.321   5.882   8.855
 6186POPC   GL211066  35.248   5.875   8.855
 6186POPC   C1A11067  35.337   5.901   8.555
 6186POPC   D2A11068  35.383   5.878   8.255
 6186POPC   C3A11069  35.342   5.915   7.955
 6186POPC   C4A11070  35.310   5.832   7.655
 6186POPC   C1B11071  35.082   5.978   8.555
 6186POPC   C2B11072  35.097   5.894   8.255
 6186POPC   C3B11073  35.140   5.899   7.955
 6186POPC   C4B11074  35.128   5.984   7.655
 6187POPC   NC311075  15.960  42.311   9.455
 6187POPC   PO411076  15.988  42.285   9.155
 6187POPC   GL111077  15.972  42.376   8.855
 6187POPC   GL211078  15.949  42.480   8.855
 6187POPC   C1A11079  15.994  42.285   8.555
 6187POPC   D2A11080  15.957  42.340   8.255
 6187POPC   C3A11081  15.924  42.353   7.955
 6187POPC   C4A11082  15.923  42.376   7.655
 6187POPC   C1B11083  15.881  42.586   8.555
 6187POPC   C2B11084  15.874  42.535   8.255
 6187POPC   C3B11085  15.852  42.565   7.955
 6187POPC   C4B11086  15.844  42.573   7.655
 6188POPC   NC311087   2.717  12.830   9.455
 6188POPC   PO411088   2.809  12.854   9.155
 6188POPC   GL111089   2.801  12.840   8.855
 6188POPC   GL211090   2.616  12.845   8.855
 6188POPC   C1A11091   2.814  12.837   8.555
 6188POPC   D2A11092   2.806  12.804   8.255
 6188POPC   C3A11093   2.716  12.839   7.955
 6188POPC   C4A11094   2.802  12.860   7.655
 6188POPC   C1B11095   2.573  12.774   8.555
 6188POPC   C2B11096   2.486  12.706   8.255
 6188POPC   C3B11097   2.512  12.724   7.955
 6188POPC   C4B11098   2.547  12.751   7.655
 6189POPC   NC311099  23.757  15.984   9.455
 6189POPC   PO411100  23.705  15.919   9.155
 6189POPC   GL111101  23.687  15.969   8.855
 6189POPC   GL211102  23.798  15.978   8.855
 6189POPC   C1A11103  23.727  15.998   8.555
 6189POPC   D2A11104  23.745  15.964   8.255
 6189POPC   C3A11105  23.741  15.962   7.955
 6189POPC   C4A11106  23.687  15.961   7.655
 6189POPC   C1B11107  23.911  16.015   8.555
 6189POPC   C2B11108  23.921  15.964   8.255
 6189POPC   C3B11109  23.937  16.017   7.955
 6189POPC   C4B11110  23.990  15.992   7.655
 6190POPC   NC311111   0.430   9.776   9.455
 6190POPC   PO411112   0.486   9.728   9.155
 6190POPC   GL111113   0.429   9.705   8.855
 6190POPC   GL211114   0.489   9.898   8.855
 6190POPC   C1A11115   0.424   9.727   8.555
 6190POPC   D2A11116   0.468   9.718   8.255
 6190POPC   C3A11117   0.480   9.705   7.955
 6190POPC   C4A11118   0.425   9.780   7.655
 6190POPC   C1B11119   0.503   9.961   8.555
 6190POPC   C2B11120   0.467   9.951   8.255
 6190POPC   C3B11121   0.472   9.999   7.955
 6190POPC   C4B11122   0.492  10.029   7.655
 6191POPC   NC311123  35.363   7.371   9.455
 6191POPC   PO411124  35.336   7.404   9.155
 6191POPC   GL111125  35.342   7.399   8.855
 6191POPC   GL211126  35.430   7.282   8.855
 6191POPC   C1A11127  35.389   7.431   8.555
 6191POPC   D2A11128  35.340   7.435   8.255
 6191POPC   C3A11129  35.327   7.374   7.955
 6191POPC   C4A11130  35.381   7.409   7.655
 6191POPC   C1B11131  35.484   7.202   8.555
 6191POPC   C2B11132  35.417   7.198   8.255
 6191POPC   C3B11133  35.437   7.222   7.955
 6191POPC   C4B11134  35.397   7.227   7.655
 6192POPC   NC311135   3.580  21.403   9.455
 6192POPC   PO411136   3.573  21.433   9.155
 6192POPC   GL111137   3.565  21.353   8.855
 6192POPC   GL211138   3.616  21.292   8.855
 6192POPC   C1A11139   3.532  21.363   8.555
 6192POPC   D2A11140   3.516  21.357   8.255
 6192POPC   C3A11141   3.543  21.337   7.955
 6192POPC   C4A11142   3.578  21.430   7.655
 6192POPC   C1B11143   3.759  21.220   8.555
 6192POPC   C2B11144   3.723  21.178   8.255
 6192POPC   C3B11145   3.766  21.255   7.955
 6192POPC   C4B11146   3.774  21.258   7.655
 6193POPC   NC311147  42.339  12.029   9.455
 6193POPC   PO411148  42.349  12.054   9.155
 6193POPC   GL111149  42.338  12.109   8.855
 6193POPC   GL211150  42.299  12.168   8.855
 6193POPC   C1A11151  42.292  12.122   8.555
 6193POPC   D2A11152  42.368  12.032   8.255
 6193POPC   C3A11153  42.320  12.035   7.955
 6193POPC   C4A11154  42.345  12.120   7.655
 6193POPC   C1B11155  42.320  12.316   8.555
 6193POPC   C2B11156  42.252  12.341   8.255
 6193POPC   C3B11157  42.333  12.306   7.955
 6193POPC   C4B11158  42.285  12.297   7.655
 6194POPC   NC311159  43.102  29.100   9.455
 6194POPC   PO411160  43.094  29.144   9.155
 6194POPC   GL111161  43.088  29.095   8.855
 6194POPC   GL211162  43.143  29.234   8.855
 6194POPC   C1A11163  43.094  29.132   8.555
 6194POPC   D2A11164  43.158  29.126   8.255
 6194POPC   C3A11165  43.120  29.143   7.955
 6194POPC   C4A11166  43.125  29.138   7.655
 6194POPC   C1B11167  43.112  29.430   8.555
 6194POPC   C2B11168  43.061  29.417   8.255
 6194POPC   C3B11169  43.113  29.421   7.955
 6194POPC   C4B11170  43.047  29.440   7.655
 6195POPC   NC311171  25.254  22.165   9.455
 6195POPC   PO411172  25.240  22.130   9.155
 6195POPC   GL111173  25.307  22.144   8.855
 6195POPC   GL211174  25.406  22.152   8.855
 6195POPC   C1A11175  25.257  22.119   8.555
 6195POPC   D2A11176  25.299  22.202   8.255
 6195POPC   C3A11177  25.278  22.194   7.955
 6195POPC   C4A11178  25.280  22.127   7.655
 6195POPC   C1B11179  25.544  22.119   8.555
 6195POPC   C2B11180  25.533  22.155   8.255
 6195POPC   C3B11181  25.488  22.169   7.955
 6195POPC   C4B11182  25.524  22.200   7.655
 6196POPC   NC311183  24.482   6.622   9.455
 6196POPC   PO411184  24.477   6.658   9.155
 6196POPC   GL111185  24.492   6.679   8.855
 6196POPC   GL211186  24.379   6.689   8.855
 6196POPC   C1A11187  24.453   6.630   8.555
 6196POPC   D2A11188  24.511   6.611   8.255
 6196POPC   C3A11189  24.513   6.637   7.955
 6196POPC   C4A11190  24.461   6.599   7.655
 6196POPC   C1B11191  24.214   6.692   8.555
 6196POPC   C2B11192  24.197   6.727   8.255
 6196POPC   C3B11193  24.221   6.647   7.955
 6196POPC   C4B11194  24.243   6.666   7.655
 6197POPC   NC311195  35.336  40.819   9.455
 6197POPC   PO411196  35.320  40.828   9.155
 6197POPC   GL111197  35.331  40.750   8.855
 6197POPC   GL211198  35.199  40.759   8.855
 6197POPC   C1A11199  35.305  40.823   8.555
 6197POPC   D2A11200  35.361  40.744   8.255
 6197POPC   C3A11201  35.380  40.795   7.955
 6197POPC   C4A11202  35.369  40.815   7.655
 6197POPC   C1B11203  35.165  40.666   8.555
 6197POPC   C2B11204  35.180  40.689   8.255
 6197POPC   C3B11205  35.148  40.685   7.955
 6197POPC   C4B11206  35.169  40.666   7.655
 6198POPC   NC311207  15.224  23.731   9.455
 6198POPC   PO411208  15.157  23.680   9.155
 6198POPC   GL111209  15.221  23.710   8.855
 6198POPC   GL211210  15.187  23.603   8.855
 6198POPC   C1A11211  15.223  23.732   8.555
 6198POPC   D2A11212  15.195  23.742   8.255
 6198POPC   C3A11213  15.177  23.672   7.955
 6198POPC   C4A11214  15.184  23.748   7.655
 6198POPC   C1B11215  15.282  23.455   8.555
 6198POPC   C2B11216  15.274  23.524   8.255
 6198POPC   C3B11217  15.274  23.439   7.955
 6198POPC   C4B11218  15.331  23.536   7.655
 6199POPC   NC311219   9.754   5.116   9.455
 6199POPC   PO411220   9.770   5.061   9.155
 6199POPC   GL111221   9.718   5.123   8.855
 6199POPC   GL211222   9.639   5.010   8.855
 6199POPC   C1A11223   9.723   5.106   8.555
 6199POPC   D2A11224   9.716   5.065   8.255
 6199POPC   C3A11225   9.743   5.125   7.955
 6199POPC   C4A11226   9.730   5.121   7.655
 6199POPC   C1B11227   9.477   5.006   8.555
 6199POPC   C2B11228   9.479   5.001   8.255
 6199POPC   C3B11229   9.566   4.988   7.955
 6199POPC   C4B11230   9.511   4.951   7.655
 6200POPC   NC311231  11.277  12.832   9.455
 6200POPC   PO411232  11.264  12.834   9.155
 6200POPC   GL111233  11.295  12.862   8.855
 6200POPC   GL211234  11.148  12.842   8.855
 6200POPC   C1A11235  11.259  12.836   8.555
 6200POPC   D2A11236  11.294  12.871   8.255
 6200POPC   C3A11237  11.327  12.805   7.955
 6200POPC   C4A11238  11.338  12.855   7.655
 6200POPC   C1B11239  11.058  12.756   8.555
 6200POPC   C2B11240  11.079  12.772   8.255
 6200POPC   C3B11241  11.028  12.766   7.955
 6200POPC   C4B11242  11.098  12.818   7.655
 6201POPC   NC311243  19.081   1.221   9.455
 6201POPC   PO411244  19.083   1.199   9.155
 6201POPC   GL111245  19.086   1.248   8.855
 6201POPC   GL211246  19.145   1.188   8.855
 6201POPC   C1A11247  19.018   1.215   8.555
 6201POPC   D2A11248  19.009   1.261   8.255
 6201POPC   C3A11249  19.024   1.245   7.955
 6201POPC   C4A11250  19.043   1.206   7.655
 6201POPC   C1B11251  19.283   1.228   8.555
 6201POPC   C2B11252  19.356   1.164   8.255
 6201POPC   C3B11253  19.295   1.228   7.955
 6201POPC   C4B11254  19.279   1.212   7.655
 6202POPC   NC311255   9.739  10.558   9.455
 6202POPC   PO411256   9.796  10.573   9.155
 6202POPC   GL111257   9.744  10.570   8.855
 6202POPC   GL211258   9.879  10.551   8.855
 6202POPC   C1A11259   9.726  10.503   8.555
 6202POPC   D2A11260   9.731  10.518   8.255
 6202POPC   C3A11261   9.742  10.491   7.955
 6202POPC   C4A11262   9.708  10.505   7.655
 6202POPC   C1B11263   9.949  10.561   8.555
 6202POPC   C2B11264  10.026  10.517   8.255
 6202POPC   C3B11265  10.022  10.600   7.955
 6202POPC   C4B11266   9.966  10.549   7.655
 6203POPC   NC311267  14.381  26.068   9.455
 6203POPC   PO411268  14.435  26.022   9.155
 6203POPC   GL111269  14.410  25.999   8.855
 6203POPC   GL211270  14.567  25.998   8.855
 6203POPC   C1A11271  14.430  26.032   8.555
 6203POPC   D2A11272  14.447  26.081   8.255
 6203POPC   C3A11273  14.413  26.067   7.955
 6203POPC   C4A11274  14.451  26.046   7.655
 6203POPC   C1B11275  14.673  25.973   8.555
 6203POPC   C2B11276  14.614  26.009   8.255
 6203POPC   C3B11277  14.624  26.048   7.955
 6203POPC   C4B11278  14.612  25.984   7.655
 6204POPC   NC311279  13.615  41.602   9.455
 6204POPC   PO411280  13.593  41.580   9.155
 6204POPC   GL111281  13.588  41.513   8.855
 6204POPC   GL211282  13.601  41.424   8.855
 6204POPC   C1A11283  13.657  41.554   8.555
 6204POPC   D2A11284  13.638  41.534   8.255
 6204POPC   C3A11285  13.664  41.606   7.955
 6204POPC   C4A11286  13.671  41.586   7.655
 6204POPC   C1B11287  13.649  41.349   8.555
 6204POPC   C2B11288  13.634  41.290   8.255
 6204POPC   C3B11289  13.575  41.353   7.955
 6204POPC   C4B11290  13.588  41.281   7.655
 6205POPC   NC311291   8.229   8.201   9.455
 6205POPC   PO411292   8.194   8.230   9.155
 6205POPC   GL111293   8.227   8.183   8.855
 6205POPC   GL211294   8.262   8.129   8.855
 6205POPC   C1A11295   8.204   8.192   8.555
 6205POPC   D2A11296   8.234   8.212   8.255
 6205POPC   C3A11297   8.244   8.208   7.955
 6205POPC   C4A11298   8.150   8.212   7.655
 6205POPC   C1B11299   8.313   7.972   8.555
 6205POPC   C2B11300   8.316   8.006   8.255
 6205POPC   C3B11301   8.312   8.000   7.955
 6205POPC   C4B11302   8.280   7.926   7.655
 6206POPC   NC311303  13.604   9.733   9.455
 6206POPC   PO411304  13.607   9.729   9.155
 6206POPC   GL111305  13.608   9.791   8.855
 6206POPC   GL211306  13.491   9.813   8.855
 6206POPC   C1A11307  13.607   9.706   8.555
 6206POPC   D2A11308  13.578   9.761   8.255
 6206POPC   C3A11309  13.662   9.771   7.955
 6206POPC   C4A11310  13.647   9.713   7.655
 6206POPC   C1B11311  13.354   9.815   8.555
 6206POPC   C2B11312  13.405   9.788   8.255
 6206POPC   C3B11313  13.384   9.841   7.955
 6206POPC   C4B11314  13.384   9.792   7.655
 6207POPC   NC311315   6.669   1.999   9.455
 6207POPC   PO411316   6.617   2.011   9.155
 6207POPC   GL111317   6.647   1.942   8.855
 6207POPC   GL211318   6.664   2.103   8.855
 6207POPC   C1A11319   6.597   2.012   8.555
 6207POPC   D2A11320   6.598   1.973   8.255
 6207POPC   C3A11321   6.626   1.985   7.955
 6207POPC   C4A11322   6.615   1.985   7.655
 6207POPC   C1B11323   6.615   2.279   8.555
 6207POPC   C2B11324   6.654   2.226   8.255
 6207POPC   C3B11325   6.677   2.208   7.955
 6207POPC   C4B11326   6.666   2.265   7.655
 6208POPC   NC311327   0.396   2.814   9.455
 6208POPC   PO411328   0.483   2.799   9.155
 6208POPC   GL111329   0.424   2.794   8.855
 6208POPC   GL211330   0.352   2.837   8.855
 6208POPC   C1A11331   0.408   2.718   8.555
 6208POPC   D2A11332   0.446   2.792   8.255
 6208POPC   C3A11333   0.410   2.722   7.955
 6208POPC   C4A11334   0.424   2.739   7.655
 6208POPC   C1B11335   0.242   2.945   8.555
 6208POPC   C2B11336   0.199   2.913   8.255
 6208POPC   C3B11337   0.255   2.948   7.955
 6208POPC   C4B11338   0.270   2.887   7.655
 6209POPC   NC311339   8.243  43.859   9.455
 6209POPC   PO411340   8.214  43.874   9.155
 6209POPC   GL111341   8.230  43.887   8.855
 6209POPC   GL211342   8.183  44.024   8.855
 6209POPC   C1A11343   8.177  43.933   8.555
 6209POPC   D2A11344   8.180  43.900   8.255
 6209POPC   C3A11345   8.205  43.921   7.955
 6209POPC   C4A11346   8.157  43.934   7.655
 6209POPC   C1B11347   8.202  44.124   8.555
 6209POPC   C2B11348   8.180  44.147   8.255
 6209POPC   C3B11349   8.121  44.105   7.955
 6209POPC   C4B11350   8.138  44.094   7.655
 6210POPC   NC311351  43.155  37.680   9.455
 6210POPC   PO411352  43.127  37.687   9.155
 6210POPC   GL111353  43.112  37.701   8.855
 6210POPC   GL211354  43.118  37.532   8.855
 6210POPC   C1A11355  43.086  37.706   8.555
 6210POPC   D2A11356  43.123  37.700   8.255
 6210POPC   C3A11357  43.103  37.696   7.955
 6210POPC   C4A11358  43.134  37.630   7.655
 6210POPC   C1B11359  43.028  37.413   8.555
 6210POPC   C2B11360  43.075  37.421   8.255
 6210POPC   C3B11361  43.070  37.440   7.955
 6210POPC   C4B11362  43.024  37.429   7.655
 6211POPC   NC311363  17.495   5.125   9.455
 6211POPC   PO411364  17.491   5.129   9.155
 6211POPC   GL111365  17.474   5.054   8.855
 6211POPC   GL211366  17.482   4.985   8.855
 6211POPC   C1A11367  17.523   5.100   8.555
 6211POPC   D2A11368  17.485   5.123   8.255
 6211POPC   C3A11369  17.514   5.064   7.955
 6211POPC   C4A11370  17.466   5.142   7.655
 6211POPC   C1B11371  17.415   4.859   8.555
 6211POPC   C2B11372  17.446   4.830   8.255
 6211POPC   C3B11373  17.459   4.870   7.955
 6211POPC   C4B11374  17.381   4.832   7.655
 6212POPC   NC311375   9.016  36.898   9.455
 6212POPC   PO411376   9.002  36.913   9.155
 6212POPC   GL111377   8.973  36.895   8.855
 6212POPC   GL211378   8.954  36.830   8.855
 6212POPC   C1A11379   8.927  36.857   8.555
 6212POPC   D2A11380   8.951  36.910   8.255
 6212POPC   C3A11381   8.966  36.878   7.955
 6212POPC   C4A11382   8.986  36.875   7.655
 6212POPC   C1B11383   8.864  36.701   8.555
 6212POPC   C2B11384   8.826  36.694   8.255
 6212POPC   C3B11385   8.843  36.634   7.955
 6212POPC   C4B11386   8.915  36.674   7.655
 6213POPC   NC311387   1.958  33.761   9.455
 6213POPC   PO411388   1.998  33.784   9.155
 6213POPC   GL111389   2.014  33.847   8.855
 6213POPC   GL211390   2.065  33.733   8.855
 6213POPC   C1A11391   2.006  33.784   8.555
 6213POPC   D2A11392   2.011  33.775   8.255
 6213POPC   C3A11393   2.038  33.762   7.955
 6213POPC   C4A11394   2.008  33.812   7.655
 6213POPC   C1B11395   2.140  33.576   8.555
 6213POPC   C2B11396   2.068  33.551   8.255
 6213POPC   C3B11397   2.134  33.541   7.955
 6213POPC   C4B11398   2.091  33.604   7.655
 6214POPC   NC311399  13.605  22.967   9.455
 6214POPC   PO411400  13.609  22.980   9.155
 6214POPC   GL111401  13.675  22.982   8.855
 6214POPC   GL211402  13.748  23.043   8.855
 6214POPC   C1A11403  13.663  22.944   8.555
 6214POPC   D2A11404  13.673  22.949   8.255
 6214POPC   C3A11405  13.676  22.952   7.955
 6214POPC   C4A11406  13.675  22.971   7.655
 6214POPC   C1B11407  13.843  23.122   8.555
 6214POPC   C2B11408  13.793  23.106   8.255
 6214POPC   C3B11409  13.839  23.126   7.955
 6214POPC   C4B11410  13.831  23.097   7.655
 6215POPC   NC311411  18.252  19.814   9.455
 6215POPC   PO411412  18.241  19.788   9.155
 6215POPC   GL111413  18.292  19.818   8.855
 6215POPC   GL211414  18.346  19.994   8.855
 6215POPC   C1A11415  18.281  19.799   8.555
 6215POPC   D2A11416  18.240  19.841   8.255
 6215POPC   C3A11417  18.331  19.834   7.955
 6215POPC   C4A11418  18.240  19.858   7.655
 6215POPC   C1B11419  18.327  20.061   8.555
 6215POPC   C2B11420  18.332  20.099   8.255
 6215POPC   C3B11421  18.362  20.042   7.955
 6215POPC   C4B11422  18.402  20.069   7.655
 6216POPC   NC311423   3.505  10.543   9.455
 6216POPC   PO411424   3.577  10.543   9.155
 6216POPC   GL111425   3.558  10.477   8.855
 6216POPC   GL211426   3.667  10.512   8.855
 6216POPC   C1A11427   3.525  10.477   8.555
 6216POPC   D2A11428   3.542  10.565   8.255
 6216POPC   C3A11429   3.519  10.507   7.955
 6216POPC   C4A11430   3.521  10.563   7.655
 6216POPC   C1B11431   3.739  10.452   8.555
 6216POPC   C2B11432   3.726  10.398   8.255
 6216POPC   C3B11433   3.799  10.408   7.955
 6216POPC   C4B11434   3.805  10.440   7.655
 6217POPC   NC311435   2.812   6.605   9.455
 6217POPC   PO411436   2.769   6.675   9.155
 6217POPC   GL111437   2.769   6.684   8.855
 6217POPC   GL211438   2.889   6.553   8.855
 6217POPC   C1A11439   2.756   6.673   8.555
 6217POPC   D2A11440   2.788   6.626   8.255
 6217POPC   C3A11441   2.779   6.658   7.955
 6217POPC   C4A11442   2.807   6.654   7.655
 6217POPC   C1B11443   2.939   6.456   8.555
 6217POPC   C2B11444   2.886   6.426   8.255
 6217POPC   C3B11445   2.936   6.460   7.955
 6217POPC   C4B11446   2.901   6.429   7.655
 6218POPC   NC311447  21.436  21.355   9.455
 6218POPC   PO411448  21.423  21.357   9.155
 6218POPC   GL111449  21.393  21.435   8.855
 6218POPC   GL211450  21.313  21.383   8.855
 6218POPC   C1A11451  21.341  21.427   8.555
 6218POPC   D2A11452  21.367  21.342   8.255
 6218POPC   C3A11453  21.382  21.432   7.955
 6218POPC   C4A11454  21.409  21.360   7.655
 6218POPC   C1B11455  21.115  21.465   8.555
 6218POPC   C2B11456  21.117  21.453   8.255
 6218POPC   C3B11457  21.161  21.435   7.955
 6218POPC   C4B11458  21.140  21.440   7.655
 6219POPC   NC311459   6.654  24.521   9.455
 6219POPC   PO411460   6.693  24.455   9.155
 6219POPC   GL111461   6.623  24.506   8.855
 6219POPC   GL211462   6.518  24.533   8.855
 6219POPC   C1A11463   6.672  24.536   8.555
 6219POPC   D2A11464   6.662  24.479   8.255
 6219POPC   C3A11465   6.684  24.503   7.955
 6219POPC   C4A11466   6.641  24.488   7.655
 6219POPC   C1B11467   6.445  24.656   8.555
 6219POPC   C2B11468   6.416  24.630   8.255
 6219POPC   C3B11469   6.475  24.596   7.955
 6219POPC   C4B11470   6.454  24.652   7.655
 6220POPC   NC311471  16.759  44.688   9.455
 6220POPC   PO411472  16.751  44.657   9.155
 6220POPC   GL111473  16.775  44.687   8.855
 6220POPC   GL211474  16.683  44.790   8.855
 6220POPC   C1A11475  16.761  44.625   8.555
 6220POPC   D2A11476  16.724  44.644   8.255
 6220POPC   C3A11477  16.739  44.654   7.955
 6220POPC   C4A11478  16.755  44.667   7.655
 6220POPC   C1B11479  16.590  44.783   8.555
 6220POPC   C2B11480  16.546  44.838   8.255
 6220POPC   C3B11481  16.496  44.786   7.955
 6220POPC   C4B11482  16.528  44.825   7.655
 6221POPC   NC311483  43.127  40.029   9.455
 6221POPC   PO411484  43.081  40.020   9.155
 6221POPC   GL111485  43.069  40.031   8.855
 6221POPC   GL211486  43.219  40.028   8.855
 6221POPC   C1A11487  43.154  39.995   8.555
 6221POPC   D2A11488  43.099  40.053   8.255
 6221POPC   C3A11489  43.133  39.995   7.955
 6221POPC   C4A11490  43.065  39.980   7.655
 6221POPC   C1B11491  43.345  40.008   8.555
 6221POPC   C2B11492  43.384  39.986   8.255
 6221POPC   C3B11493  43.363  39.994   7.955
 6221POPC   C4B11494  43.314  40.006   7.655
 6222POPC   NC311495   1.996  12.108   9.455
 6222POPC   PO411496   1.979  12.099   9.155
 6222POPC   GL111497   1.954  12.061   8.855
 6222POPC   GL211498   2.088  12.009   8.855
 6222POPC   C1A11499   1.968  12.071   8.555
 6222POPC   D2A11500   1.979  12.121   8.255
 6222POPC   C3A11501   1.941  12.103   7.955
 6222POPC   C4A11502   2.030  12.041   7.655
 6222POPC   C1B11503   2.089  11.908   8.555
 6222POPC   C2B11504   2.084  11.838   8.255
 6222POPC   C3B11505   2.084  11.908   7.955
 6222POPC   C4B11506   2.148  11.846   7.655
 6223POPC   NC311507  10.510  26.081   9.455
 6223POPC   PO411508  10.543  26.076   9.155
 6223POPC   GL111509  10.517  26.045   8.855
 6223POPC   GL211510  10.472  25.903   8.855
 6223POPC   C1A11511  10.492  26.067   8.555
 6223POPC   D2A11512  10.552  26.043   8.255
 6223POPC   C3A11513  10.501  26.075   7.955
 6223POPC   C4A11514  10.512  25.993   7.655
 6223POPC   C1B11515  10.491  25.825   8.555
 6223POPC   C2B11516  10.500  25.798   8.255
 6223POPC   C3B11517  10.452  25.817   7.955
 6223POPC   C4B11518  10.469  25.745   7.655
 6224POPC   NC311519  42.366   2.023   9.455
 6224POPC   PO411520  42.312   1.960   9.155
 6224POPC   GL111521  42.309   1.946   8.855
 6224POPC   GL211522  42.366   2.117   8.855
 6224POPC   C1A11523  42.353   2.004   8.555
 6224POPC   D2A11524  42.334   2.020   8.255
 6224POPC   C3A11525  42.374   1.948   7.955
 6224POPC   C4A11526  42.360   1.947   7.655
 6224POPC   C1B11527  42.367   2.280   8.555
 6224POPC   C2B11528  42.375   2.226   8.255
 6224POPC   C3B11529  42.359   2.228   7.955
 6224POPC   C4B11530  42.418   2.240   7.655
 6225POPC   NC311531  14.393  25.293   9.455
 6225POPC   PO411532  14.393  25.232   9.155
 6225POPC   GL111533  14.418  25.271   8.855
 6225POPC   GL211534  14.336  25.416   8.855
 6225POPC   C1A11535  14.435  25.222   8.555
 6225POPC   D2A11536  14.399  25.265   8.255
 6225POPC   C3A11537  14.367  25.284   7.955
 6225POPC   C4A11538  14.405  25.262   7.655
 6225POPC   C1B11539  14.306  25.455   8.555
 6225POPC   C2B11540  14.299  25.541   8.255
 6225POPC   C3B11541  14.278  25.495   7.955
 6225POPC   C4B11542  14.318  25.488   7.655
 6226POPC   NC311543  11.346  40.809   9.455
 6226POPC   PO411544  11.348  40.788   9.155
 6226POPC   GL111545  11.257  40.808   8.855
 6226POPC   GL211546  11.385  40.828   8.855
 6226POPC   C1A11547  11.339  40.791   8.555
 6226POPC   D2A11548  11.296  40.764   8.255
 6226POPC   C3A11549  11.267  40.758   7.955
 6226POPC   C4A11550  11.285  40.794   7.655
 6226POPC   C1B11551  11.566  40.839   8.555
 6226POPC   C2B11552  11.532  40.908   8.255
 6226POPC   C3B11553  11.555  40.823   7.955
 6226POPC   C4B11554  11.520  40.880   7.655
 6227POPC   NC311555  37.726  12.078   9.455
 6227POPC   PO411556  37.642  12.120   9.155
 6227POPC   GL111557  37.677  12.066   8.855
 6227POPC   GL211558  37.591  12.174   8.855
 6227POPC   C1A11559  37.651  12.079   8.555
 6227POPC   D2A11560  37.729  12.092   8.255
 6227POPC   C3A11561  37.698  12.056   7.955
 6227POPC   C4A11562  37.662  12.039   7.655
 6227POPC   C1B11563  37.446  12.220   8.555
 6227POPC   C2B11564  37.500  12.209   8.255
 6227POPC   C3B11565  37.428  12.220   7.955
 6227POPC   C4B11566  37.420  12.200   7.655
 6228POPC   NC311567  29.884  43.931   9.455
 6228POPC   PO411568  29.881  43.842   9.155
 6228POPC   GL111569  29.941  43.893   8.855
 6228POPC   GL211570  29.897  44.024   8.855
 6228POPC   C1A11571  29.894  43.884   8.555
 6228POPC   D2A11572  29.928  43.881   8.255
 6228POPC   C3A11573  29.923  43.859   7.955
 6228POPC   C4A11574  29.914  43.901   7.655
 6228POPC   C1B11575  29.989  44.083   8.555
 6228POPC   C2B11576  29.949  44.144   8.255
 6228POPC   C3B11577  29.935  44.122   7.955
 6228POPC   C4B11578  29.944  44.168   7.655
 6229POPC   NC311579  36.113   3.543   9.455
 6229POPC   PO411580  36.078   3.502   9.155
 6229POPC   GL111581  36.119   3.578   8.855
 6229POPC   GL211582  36.212   3.444   8.855
 6229POPC   C1A11583  36.148   3.531   8.555
 6229POPC   D2A11584  36.090   3.507   8.255
 6229POPC   C3A11585  36.145   3.537   7.955
 6229POPC   C4A11586  36.175   3.499   7.655
 6229POPC   C1B11587  36.345   3.420   8.555
 6229POPC   C2B11588  36.341   3.380   8.255
 6229POPC   C3B11589  36.366   3.420   7.955
 6229POPC   C4B11590  36.305   3.368   7.655
 6230POPC   NC311591  41.596  20.584   9.455
 6230POPC   PO411592  41.524  20.608   9.155
 6230POPC   GL111593  41.581  20.632   8.855
 6230POPC   GL211594  41.515  20.470   8.855
 6230POPC   C1A11595  41.552  20.589   8.555
 6230POPC   D2A11596  41.519  20.645   8.255
 6230POPC   C3A11597  41.592  20.589   7.955
 6230POPC   C4A11598  41.521  20.603   7.655
 6230POPC   C1B11599  41.443  20.390   8.555
 6230POPC   C2B11600  41.395  20.402   8.255
 6230POPC   C3B11601  41.397  20.384   7.955
 6230POPC   C4B11602  41.419  20.460   7.655
 6231POPC   NC311603  28.393  22.889   9.455
 6231POPC   PO411604  28.391  22.916   9.155
 6231POPC   GL111605  28.391  22.922   8.855
 6231POPC   GL211606  28.465  23.025   8.855
 6231POPC   C1A11607  28.393  22.926   8.555
 6231POPC   D2A11608  28.413  22.971   8.255
 6231POPC   C3A11609  28.320  22.903   7.955
 6231POPC   C4A11610  28.362  22.955   7.655
 6231POPC   C1B11611  28.482  23.178   8.555
 6231POPC   C2B11612  28.512  23.113   8.255
 6231POPC   C3B11613  28.477  23.175   7.955
 6231POPC   C4B11614  28.497  23.191   7.655
 6232POPC   NC311615  23.697  38.427   9.455
 6232POPC   PO411616  23.742  38.417   9.155
 6232POPC   GL111617  23.739  38.413   8.855
 6232POPC   GL211618  23.576  38.452   8.855
 6232POPC   C1A11619  23.714  38.410   8.555
 6232POPC   D2A11620  23.755  38.499   8.255
 6232POPC   C3A11621  23.669  38.458   7.955
 6232POPC   C4A11622  23.742  38.420   7.655
 6232POPC   C1B11623  23.464  38.484   8.555
 6232POPC   C2B11624  23.475  38.429   8.255
 6232POPC   C3B11625  23.478  38.474   7.955
 6232POPC   C4B11626  23.461  38.409   7.655
 6233POPC   NC311627  19.067  33.005   9.455
 6233POPC   PO411628  19.064  33.015   9.155
 6233POPC   GL111629  19.023  32.988   8.855
 6233POPC   GL211630  19.114  32.960   8.855
 6233POPC   C1A11631  19.089  33.026   8.555
 6233POPC   D2A11632  19.069  33.018   8.255
 6233POPC   C3A11633  19.046  33.073   7.955
 6233POPC   C4A11634  19.070  32.999   7.655
 6233POPC   C1B11635  19.295  32.852   8.555
 6233POPC   C2B11636  19.294  32.919   8.255
 6233POPC   C3B11637  19.292  32.897   7.955
 6233POPC   C4B11638  19.244  32.865   7.655
 6234POPC   NC311639  37.689  42.371   9.455
 6234POPC   PO411640  37.657  42.341   9.155
 6234POPC   GL111641  37.692  42.310   8.855
 6234POPC   GL211642  37.748  42.183   8.855
 6234POPC   C1A11643  37.704  42.363   8.555
 6234POPC   D2A11644  37.717  42.382   8.255
 6234POPC   C3A11645  37.725  42.327   7.955
 6234POPC   C4A11646  37.686  42.344   7.655
 6234POPC   C1B11647  37.790  42.094   8.555
 6234POPC   C2B11648  37.726  42.127   8.255
 6234POPC   C3B11649  37.813  42.102   7.955
 6234POPC   C4B11650  37.750  42.141   7.655
 6235POPC   NC311651  36.127  10.494   9.455
 6235POPC   PO411652  36.138  10.546   9.155
 6235POPC   GL111653  36.158  10.557   8.855
 6235POPC   GL211654  36.132  10.423   8.855
 6235POPC   C1A11655  36.157  10.509   8.555
 6235POPC   D2A11656  36.163  10.537   8.255
 6235POPC   C3A11657  36.137  10.475   7.955
 6235POPC   C4A11658  36.150  10.497   7.655
 6235POPC   C1B11659  36.125  10.295   8.555
 6235POPC   C2B11660  36.132  10.321   8.255
 6235POPC   C3B11661  36.165  10.315   7.955
 6235POPC   C4B11662  36.149  10.243   7.655
 6236POPC   NC311663  29.172  32.981   9.455
 6236POPC   PO411664  29.096  32.979   9.155
 6236POPC   GL111665  29.098  33.039   8.855
 6236POPC   GL211666  29.055  32.951   8.855
 6236POPC   C1A11667  29.120  33.048   8.555
 6236POPC   D2A11668  29.178  33.027   8.255
 6236POPC   C3A11669  29.174  32.986   7.955
 6236POPC   C4A11670  29.189  33.067   7.655
 6236POPC   C1B11671  28.954  32.878   8.555
 6236POPC   C2B11672  28.952  32.867   8.255
 6236POPC   C3B11673  28.960  32.820   7.955
 6236POPC   C4B11674  28.958  32.846   7.655
 6237POPC   NC311675  34.537  33.050   9.455
 6237POPC   PO411676  34.599  33.065   9.155
 6237POPC   GL111677  34.598  32.978   8.855
 6237POPC   GL211678  34.476  33.084   8.855
 6237POPC   C1A11679  34.559  32.976   8.555
 6237POPC   D2A11680  34.548  32.986   8.255
 6237POPC   C3A11681  34.604  33.050   7.955
 6237POPC   C4A11682  34.562  33.011   7.655
 6237POPC   C1B11683  34.333  33.125   8.555
 6237POPC   C2B11684  34.340  33.146   8.255
 6237POPC   C3B11685  34.368  33.169   7.955
 6237POPC   C4B11686  34.342  33.121   7.655
 6238POPC   NC311687  21.416  20.649   9.455
 6238POPC   PO411688  21.379  20.615   9.155
 6238POPC   GL111689  21.373  20.640   8.855
 6238POPC   GL211690  21.486  20.601   8.855
 6238POPC   C1A11691  21.419  20.657   8.555
 6238POPC   D2A11692  21.413  20.649   8.255
 6238POPC   C3A11693  21.413  20.611   7.955
 6238POPC   C4A11694  21.418  20.585   7.655
 6238POPC   C1B11695  21.617  20.514   8.555
 6238POPC   C2B11696  21.584  20.504   8.255
 6238POPC   C3B11697  21.617  20.531   7.955
 6238POPC   C4B11698  21.614  20.510   7.655
 6239POPC   NC311699  26.066   5.906   9.455
 6239POPC   PO411700  26.004   5.857   9.155
 6239POPC   GL111701  26.012   5.859   8.855
 6239POPC   GL211702  26.170   5.969   8.855
 6239POPC   C1A11703  26.072   5.886   8.555
 6239POPC   D2A11704  26.053   5.891   8.255
 6239POPC   C3A11705  26.079   5.880   7.955
 6239POPC   C4A11706  25.992   5.844   7.655
 6239POPC   C1B11707  26.211   6.016   8.555
 6239POPC   C2B11708  26.209   5.995   8.255
 6239POPC   C3B11709  26.267   6.023   7.955
 6239POPC   C4B11710  26.256   6.007   7.655
 6240POPC   NC311711  14.400  22.971   9.455
 6240POPC   PO411712  14.397  22.920   9.155
 6240POPC   GL111713  14.359  22.901   8.855
 6240POPC   GL211714  14.329  22.843   8.855
 6240POPC   C1A11715  14.374  22.950   8.555
 6240POPC   D2A11716  14.444  22.973   8.255
 6240POPC   C3A11717  14.420  22.932   7.955
 6240POPC   C4A11718  14.385  22.979   7.655
 6240POPC   C1B11719  14.358  22.667   8.555
 6240POPC   C2B11720  14.341  22.656   8.255
 6240POPC   C3B11721  14.324  22.747   7.955
 6240POPC   C4B11722  14.309  22.750   7.655
 6241POPC   NC311723  33.806  19.023   9.455
 6241POPC   PO411724  33.782  19.079   9.155
 6241POPC   GL111725  33.819  19.035   8.855
 6241POPC   GL211726  33.784  18.896   8.855
 6241POPC   C1A11727  33.849  19.017   8.555
 6241POPC   D2A11728  33.756  19.025   8.255
 6241POPC   C3A11729  33.813  19.070   7.955
 6241POPC   C4A11730  33.753  19.026   7.655
 6241POPC   C1B11731  33.788  18.830   8.555
 6241POPC   C2B11732  33.694  18.826   8.255
 6241POPC   C3B11733  33.780  18.832   7.955
 6241POPC   C4B11734  33.706  18.861   7.655
 6242POPC   NC311735  40.031  10.510   9.455
 6242POPC   PO411736  39.986  10.555   9.155
 6242POPC   GL111737  40.056  10.478   8.855
 6242POPC   GL211738  39.925  10.523   8.855
 6242POPC   C1A11739  39.966  10.523   8.555
 6242POPC   D2A11740  40.036  10.502   8.255
 6242POPC   C3A11741  40.048  10.480   7.955
 6242POPC   C4A11742  39.988  10.510   7.655
 6242POPC   C1B11743  39.763  10.476   8.555
 6242POPC   C2B11744  39.732  10.485   8.255
 6242POPC   C3B11745  39.714  10.515   7.955
 6242POPC   C4B11746  39.747  10.497   7.655
 6243POPC   NC311747   9.742  11.269   9.455
 6243POPC   PO411748   9.771  11.281   9.155
 6243POPC   GL111749   9.716  11.269   8.855
 6243POPC   GL211750   9.833  11.167   8.855
 6243POPC   C1A11751   9.734  11.334   8.555
 6243POPC   D2A11752   9.742  11.250   8.255
 6243POPC   C3A11753   9.735  11.254   7.955
 6243POPC   C4A11754   9.788  11.304   7.655
 6243POPC   C1B11755   9.940  11.153   8.555
 6243POPC   C2B11756   9.922  11.072   8.255
 6243POPC   C3B11757   9.894  11.069   7.955
 6243POPC   C4B11758   9.954  11.121   7.655
 6244POPC   NC311759   4.333  23.738   9.455
 6244POPC   PO411760   4.274  23.708   9.155
 6244POPC   GL111761   4.308  23.707   8.855
 6244POPC   GL211762   4.235  23.558   8.855
 6244POPC   C1A11763   4.306  23.720   8.555
 6244POPC   D2A11764   4.317  23.699   8.255
 6244POPC   C3A11765   4.323  23.721   7.955
 6244POPC   C4A11766   4.342  23.751   7.655
 6244POPC   C1B11767   4.190  23.515   8.555
 6244POPC   C2B11768   4.156  23.466   8.255
 6244POPC   C3B11769   4.187  23.449   7.955
 6244POPC   C4B11770   4.206  23.487   7.655
 6245POPC   NC311771  43.923  22.984   9.455
 6245POPC   PO411772  43.863  22.952   9.155
 6245POPC   GL111773  43.899  22.937   8.855
 6245POPC   GL211774  43.913  22.786   8.855
 6245POPC   C1A11775  43.846  22.980   8.555
 6245POPC   D2A11776  43.859  22.933   8.255
 6245POPC   C3A11777  43.931  22.979   7.955
 6245POPC   C4A11778  43.911  22.952   7.655
 6245POPC   C1B11779  43.954  22.760   8.555
 6245POPC   C2B11780  43.993  22.709   8.255
 6245POPC   C3B11781  43.979  22.751   7.955
 6245POPC   C4B11782  44.045  22.760   7.655
 6246POPC   NC311783  39.194  42.373   9.455
 6246POPC   PO411784  39.235  42.341   9.155
 6246POPC   GL111785  39.276  42.285   8.855
 6246POPC   GL211786  39.332  42.330   8.855
 6246POPC   C1A11787  39.207  42.295   8.555
 6246POPC   D2A11788  39.231  42.349   8.255
 6246POPC   C3A11789  39.249  42.353   7.955
 6246POPC   C4A11790  39.203  42.318   7.655
 6246POPC   C1B11791  39.499  42.219   8.555
 6246POPC   C2B11792  39.432  42.271   8.255
 6246POPC   C3B11793  39.520  42.268   7.955
 6246POPC   C4B11794  39.465  42.226   7.655
 6247POPC   NC311795  39.267  23.749   9.455
 6247POPC   PO411796  39.269  23.708   9.155
 6247POPC   GL111797  39.196  23.678   8.855
 6247POPC   GL211798  39.243  23.620   8.855
 6247POPC   C1A11799  39.277  23.700   8.555
 6247POPC   D2A11800  39.249  23.753   8.255
 6247POPC   C3A11801  39.221  23.748   7.955
 6247POPC   C4A11802  39.250  23.712   7.655
 6247POPC   C1B11803  39.358  23.454   8.555
 6247POPC   C2B11804  39.304  23.535   8.255
 6247POPC   C3B11805  39.327  23.517   7.955
 6247POPC   C4B11806  39.358  23.471   7.655
 6248POPC   NC311807  33.028  18.307   9.455
 6248POPC   PO411808  33.068  18.236   9.155
 6248POPC   GL111809  32.989  18.235   8.855
 6248POPC   GL211810  33.101  18.182   8.855
 6248POPC   C1A11811  33.058  18.294   8.555
 6248POPC   D2A11812  33.009  18.257   8.255
 6248POPC   C3A11813  33.074  18.292   7.955
 6248POPC   C4A11814  33.013  18.287   7.655
 6248POPC   C1B11815  33.122  18.092   8.555
 6248POPC   C2B11816  33.093  18.061   8.255
 6248POPC   C3B11817  33.084  18.032   7.955
 6248POPC   C4B11818  33.129  18.099   7.655
 6249POPC   NC311819  40.758   2.792   9.455
 6249POPC   PO411820  40.794   2.765   9.155
 6249POPC   GL111821  40.780   2.740   8.855
 6249POPC   GL211822  40.759   2.679   8.855
 6249POPC   C1A11823  40.826   2.735   8.555
 6249POPC   D2A11824  40.832   2.746   8.255
 6249POPC   C3A11825  40.769   2.746   7.955
 6249POPC   C4A11826  40.772   2.719   7.655
 6249POPC   C1B11827  40.702   2.507   8.555
 6249POPC   C2B11828  40.684   2.544   8.255
 6249POPC   C3B11829  40.761   2.562   7.955
 6249POPC   C4B11830  40.683   2.562   7.655
 6250POPC   NC311831  22.959  27.597   9.455
 6250POPC   PO411832  22.959  27.578   9.155
 6250POPC   GL111833  22.983  27.635   8.855
 6250POPC   GL211834  22.822  27.474   8.855
 6250POPC   C1A11835  22.917  27.619   8.555
 6250POPC   D2A11836  22.975  27.594   8.255
 6250POPC   C3A11837  22.969  27.630   7.955
 6250POPC   C4A11838  22.899  27.604   7.655
 6250POPC   C1B11839  22.820  27.422   8.555
 6250POPC   C2B11840  22.752  27.440   8.255
 6250POPC   C3B11841  22.761  27.432   7.955
 6250POPC   C4B11842  22.780  27.364   7.655
 6251POPC   NC311843   2.778  11.293   9.455
 6251POPC   PO411844   2.802  11.317   9.155
 6251POPC   GL111845   2.735  11.267   8.855
 6251POPC   GL211846   2.678  11.381   8.855
 6251POPC   C1A11847   2.722  11.319   8.555
 6251POPC   D2A11848   2.773  11.250   8.255
 6251POPC   C3A11849   2.765  11.319   7.955
 6251POPC   C4A11850   2.813  11.254   7.655
 6251POPC   C1B11851   2.506  11.430   8.555
 6251POPC   C2B11852   2.517  11.477   8.255
 6251POPC   C3B11853   2.582  11.465   7.955
 6251POPC   C4B11854   2.596  11.407   7.655
 6252POPC   NC311855  23.757  21.344   9.455
 6252POPC   PO411856  23.750  21.399   9.155
 6252POPC   GL111857  23.745  21.394   8.855
 6252POPC   GL211858  23.673  21.259   8.855
 6252POPC   C1A11859  23.704  21.360   8.555
 6252POPC   D2A11860  23.737  21.397   8.255
 6252POPC   C3A11861  23.669  21.426   7.955
 6252POPC   C4A11862  23.763  21.381   7.655
 6252POPC   C1B11863  23.673  21.196   8.555
 6252POPC   C2B11864  23.616  21.140   8.255
 6252POPC   C3B11865  23.589  21.164   7.955
 6252POPC   C4B11866  23.641  21.168   7.655
 6253POPC   NC311867  15.229  31.443   9.455
 6253POPC   PO411868  15.174  31.476   9.155
 6253POPC   GL111869  15.179  31.500   8.855
 6253POPC   GL211870  15.089  31.531   8.855
 6253POPC   C1A11871  15.141  31.434   8.555
 6253POPC   D2A11872  15.186  31.501   8.255
 6253POPC   C3A11873  15.144  31.469   7.955
 6253POPC   C4A11874  15.138  31.482   7.655
 6253POPC   C1B11875  15.032  31.616   8.555
 6253POPC   C2B11876  14.989  31.681   8.255
 6253POPC   C3B11877  14.955  31.616   7.955
 6253POPC   C4B11878  14.980  31.649   7.655
 6254POPC   NC311879   8.230  26.074   9.455
 6254POPC   PO411880   8.201  26.090   9.155
 6254POPC   GL111881   8.162  26.069   8.855
 6254POPC   GL211882   8.191  25.931   8.855
 6254POPC   C1A11883   8.196  25.995   8.555
 6254POPC   D2A11884   8.157  26.073   8.255
 6254POPC   C3A11885   8.200  26.057   7.955
 6254POPC   C4A11886   8.159  26.071   7.655
 6254POPC   C1B11887   8.132  25.778   8.555
 6254POPC   C2B11888   8.143  25.841   8.255
 6254POPC   C3B11889   8.154  25.787   7.955
 6254POPC   C4B11890   8.091  25.832   7.655
 6255POPC   NC311891  43.075  39.234   9.455
 6255POPC   PO411892  43.083  39.239   9.155
 6255POPC   GL111893  43.076  39.243   8.855
 6255POPC   GL211894  42.966  39.312   8.855
 6255POPC   C1A11895  43.118  39.241   8.555
 6255POPC   D2A11896  43.080  39.229   8.255
 6255POPC   C3A11897  43.117  39.246   7.955
 6255POPC   C4A11898  43.129  39.245   7.655
 6255POPC   C1B11899  42.883  39.347   8.555
 6255POPC   C2B11900  42.850  39.353   8.255
 6255POPC   C3B11901  42.912  39.327   7.955
 6255POPC   C4B11902  42.943  39.401   7.655
 6256POPC   NC311903  28.395  44.677   9.455
 6256POPC   PO411904  28.320  44.635   9.155
 6256POPC   GL111905  28.393  44.678   8.855
 6256POPC   GL211906  28.504  44.662   8.855
 6256POPC   C1A11907  28.349  44.630   8.555
 6256POPC   D2A11908  28.405  44.623   8.255
 6256POPC   C3A11909  28.337  44.692   7.955
 6256POPC   C4A11910  28.356  44.708   7.655
 6256POPC   C1B11911  28.624  44.636   8.555
 6256POPC   C2B11912  28.598  44.639   8.255
 6256POPC   C3B11913  28.645  44.599   7.955
 6256POPC   C4B11914  28.567  44.630   7.655
 6257POPC   NC311915  12.083  41.516   9.455
 6257POPC   PO411916  12.126  41.580   9.155
 6257POPC   GL111917  12.053  41.544   8.855
 6257POPC   GL211918  12.015  41.626   8.855
 6257POPC   C1A11919  12.124  41.576   8.555
 6257POPC   D2A11920  12.069  41.595   8.255
 6257POPC   C3A11921  12.098  41.528   7.955
 6257POPC   C4A11922  12.048  41.589   7.655
 6257POPC   C1B11923  11.932  41.755   8.555
 6257POPC   C2B11924  11.938  41.714   8.255
 6257POPC   C3B11925  11.954  41.724   7.955
 6257POPC   C4B11926  11.946  41.709   7.655
 6258POPC   NC311927  18.302  19.030   9.455
 6258POPC   PO411928  18.256  19.070   9.155
 6258POPC   GL111929  18.266  19.105   8.855
 6258POPC   GL211930  18.217  19.074   8.855
 6258POPC   C1A11931  18.307  19.037   8.555
 6258POPC   D2A11932  18.279  19.062   8.255
 6258POPC   C3A11933  18.329  19.083   7.955
 6258POPC   C4A11934  18.329  19.057   7.655
 6258POPC   C1B11935  18.092  19.172   8.555
 6258POPC   C2B11936  18.026  19.194   8.255
 6258POPC   C3B11937  18.078  19.217   7.955
 6258POPC   C4B11938  18.042  19.189   7.655
 6259POPC   NC311939  23.759  19.061   9.455
 6259POPC   PO411940  23.699  19.054   9.155
 6259POPC   GL111941  23.756  19.011   8.855
 6259POPC   GL211942  23.828  18.942   8.855
 6259POPC   C1A11943  23.692  19.099   8.555
 6259POPC   D2A11944  23.678  19.062   8.255
 6259POPC   C3A11945  23.733  19.063   7.955
 6259POPC   C4A11946  23.740  19.037   7.655
 6259POPC   C1B11947  23.898  18.822   8.555
 6259POPC   C2B11948  23.841  18.846   8.255
 6259POPC   C3B11949  23.845  18.841   7.955
 6259POPC   C4B11950  23.913  18.846   7.655
 6260POPC   NC311951  26.846  12.875   9.455
 6260POPC   PO411952  26.851  12.831   9.155
 6260POPC   GL111953  26.815  12.880   8.855
 6260POPC   GL211954  26.662  12.883   8.855
 6260POPC   C1A11955  26.848  12.897   8.555
 6260POPC   D2A11956  26.862  12.839   8.255
 6260POPC   C3A11957  26.786  12.823   7.955
 6260POPC   C4A11958  26.778  12.824   7.655
 6260POPC   C1B11959  26.585  12.956   8.555
 6260POPC   C2B11960  26.566  12.879   8.255
 6260POPC   C3B11961  26.556  12.889   7.955
 6260POPC   C4B11962  26.586  12.954   7.655
 6261POPC   NC311963  32.233  23.696   9.455
 6261POPC   PO411964  32.213  23.737   9.155
 6261POPC   GL111965  32.202  23.749   8.855
 6261POPC   GL211966  32.316  23.644   8.855
 6261POPC   C1A11967  32.199  23.690   8.555
 6261POPC   D2A11968  32.280  23.670   8.255
 6261POPC   C3A11969  32.230  23.744   7.955
 6261POPC   C4A11970  32.236  23.673   7.655
 6261POPC   C1B11971  32.493  23.549   8.555
 6261POPC   C2B11972  32.453  23.549   8.255
 6261POPC   C3B11973  32.458  23.547   7.955
 6261POPC   C4B11974  32.419  23.602   7.655
 6262POPC   NC311975  39.248   0.432   9.455
 6262POPC   PO411976  39.280   0.391   9.155
 6262POPC   GL111977  39.188   0.479   8.855
 6262POPC   GL211978  39.222   0.517   8.855
 6262POPC   C1A11979  39.189   0.470   8.555
 6262POPC   D2A11980  39.274   0.461   8.255
 6262POPC   C3A11981  39.182   0.406   7.955
 6262POPC   C4A11982  39.247   0.414   7.655
 6262POPC   C1B11983  39.311   0.679   8.555
 6262POPC   C2B11984  39.300   0.686   8.255
 6262POPC   C3B11985  39.289   0.709   7.955
 6262POPC   C4B11986  39.280   0.697   7.655
 6263POPC   NC311987   9.013  43.069   9.455
 6263POPC   PO411988   8.985  43.072   9.155
 6263POPC   GL111989   8.991  43.118   8.855
 6263POPC   GL211990   8.890  43.276   8.855
 6263POPC   C1A11991   9.008  43.116   8.555
 6263POPC   D2A11992   9.008  43.095   8.255
 6263POPC   C3A11993   8.983  43.133   7.955
 6263POPC   C4A11994   8.954  43.159   7.655
 6263POPC   C1B11995   8.884  43.317   8.555
 6263POPC   C2B11996   8.935  43.388   8.255
 6263POPC   C3B11997   8.864  43.314   7.955
 6263POPC   C4B11998   8.853  43.366   7.655
 6264POPC   NC311999  14.391   5.054   9.455
 6264POPC   PO412000  14.355   5.068   9.155
 6264POPC   GL112001  14.374   5.117   8.855
 6264POPC   GL212002  14.515   5.130   8.855
 6264POPC   C1A12003  14.412   5.050   8.555
 6264POPC   D2A12004  14.414   5.137   8.255
 6264POPC   C3A12005  14.359   5.135   7.955
 6264POPC   C4A12006  14.424   5.074   7.655
 6264POPC   C1B12007  14.615   5.223   8.555
 6264POPC   C2B12008  14.610   5.208   8.255
 6264POPC   C3B12009  14.646   5.281   7.955
 6264POPC   C4B12010  14.624   5.273   7.655
 6265POPC   NC312011   3.524  41.559   9.455
 6265POPC   PO412012   3.537  41.572   9.155
 6265POPC   GL112013   3.588  41.528   8.855
 6265POPC   GL212014   3.609  41.524   8.855
 6265POPC   C1A12015   3.547  41.515   8.555
 6265POPC   D2A12016   3.492  41.518   8.255
 6265POPC   C3A12017   3.553  41.532   7.955
 6265POPC   C4A12018   3.509  41.581   7.655
 6265POPC   C1B12019   3.704  41.426   8.555
 6265POPC   C2B12020   3.756  41.461   8.255
 6265POPC   C3B12021   3.794  41.447   7.955
 6265POPC   C4B12022   3.792  41.418   7.655
 6266POPC   NC312023  42.375  11.296   9.455
 6266POPC   PO412024  42.357  11.306   9.155
 6266POPC   GL112025  42.287  11.291   8.855
 6266POPC   GL212026  42.375  11.131   8.855
 6266POPC   C1A12027  42.311  11.331   8.555
 6266POPC   D2A12028  42.328  11.336   8.255
 6266POPC   C3A12029  42.309  11.306   7.955
 6266POPC   C4A12030  42.373  11.305   7.655
 6266POPC   C1B12031  42.401  11.072   8.555
 6266POPC   C2B12032  42.388  11.068   8.255
 6266POPC   C3B12033  42.348  11.087   7.955
 6266POPC   C4B12034  42.384  11.083   7.655
 6267POPC   NC312035  25.311   8.937   9.455
 6267POPC   PO412036  25.311   8.945   9.155
 6267POPC   GL112037  25.277   8.931   8.855
 6267POPC   GL212038  25.352   8.903   8.855
 6267POPC   C1A12039  25.296   8.981   8.555
 6267POPC   D2A12040  25.233   9.004   8.255
 6267POPC   C3A12041  25.251   8.960   7.955
 6267POPC   C4A12042  25.228   8.963   7.655
 6267POPC   C1B12043  25.500   8.787   8.555
 6267POPC   C2B12044  25.452   8.827   8.255
 6267POPC   C3B12045  25.425   8.770   7.955
 6267POPC   C4B12046  25.434   8.832   7.655
 6268POPC   NC312047  12.848  22.917   9.455
 6268POPC   PO412048  12.885  22.967   9.155
 6268POPC   GL112049  12.894  22.953   8.855
 6268POPC   GL212050  12.931  22.888   8.855
 6268POPC   C1A12051  12.873  22.954   8.555
 6268POPC   D2A12052  12.840  22.919   8.255
 6268POPC   C3A12053  12.895  22.965   7.955
 6268POPC   C4A12054  12.830  22.941   7.655
 6268POPC   C1B12055  13.051  22.791   8.555
 6268POPC   C2B12056  13.129  22.864   8.255
 6268POPC   C3B12057  13.104  22.806   7.955
 6268POPC   C4B12058  13.072  22.791   7.655
 6269POPC   NC312059   4.363  12.123   9.455
 6269POPC   PO412060   4.312  12.107   9.155
 6269POPC   GL112061   4.270  12.106   8.855
 6269POPC   GL212062   4.275  12.163   8.855
 6269POPC   C1A12063   4.290  12.059   8.555
 6269POPC   D2A12064   4.328  12.080   8.255
 6269POPC   C3A12065   4.323  12.084   7.955
 6269POPC   C4A12066   4.273  12.067   7.655
 6269POPC   C1B12067   4.220  12.301   8.555
 6269POPC   C2B12068   4.266  12.333   8.255
 6269POPC   C3B12069   4.236  12.258   7.955
 6269POPC   C4B12070   4.197  12.315   7.655
 6270POPC   NC312071  15.984  16.682   9.455
 6270POPC   PO412072  15.998  16.695   9.155
 6270POPC   GL112073  15.951  16.707   8.855
 6270POPC   GL212074  16.042  16.803   8.855
 6270POPC   C1A12075  15.951  16.750   8.555
 6270POPC   D2A12076  16.004  16.734   8.255
 6270POPC   C3A12077  15.941  16.763   7.955
 6270POPC   C4A12078  16.004  16.690   7.655
 6270POPC   C1B12079  16.068  16.956   8.555
 6270POPC   C2B12080  16.055  16.971   8.255
 6270POPC   C3B12081  16.088  16.958   7.955
 6270POPC   C4B12082  16.047  16.901   7.655
 6271POPC   NC312083  39.208  25.286   9.455
 6271POPC   PO412084  39.233  25.299   9.155
 6271POPC   GL112085  39.262  25.235   8.855
 6271POPC   GL212086  39.132  25.353   8.855
 6271POPC   C1A12087  39.225  25.247   8.555
 6271POPC   D2A12088  39.205  25.280   8.255
 6271POPC   C3A12089  39.194  25.235   7.955
 6271POPC   C4A12090  39.182  25.315   7.655
 6271POPC   C1B12091  39.026  25.480   8.555
 6271POPC   C2B12092  39.105  25.429   8.255
 6271POPC   C3B12093  39.043  25.474   7.955
 6271POPC   C4B12094  39.026  25.441   7.655
 6272POPC   NC312095  15.192  22.970   9.455
 6272POPC   PO412096  15.131  22.941   9.155
 6272POPC   GL112097  15.177  22.919   8.855
 6272POPC   GL212098  15.114  23.065   8.855
 6272POPC   C1A12099  15.148  22.984   8.555
 6272POPC   D2A12100  15.176  22.979   8.255
 6272POPC   C3A12101  15.226  22.910   7.955
 6272POPC   C4A12102  15.228  22.952   7.655
 6272POPC   C1B12103  15.108  23.199   8.555
 6272POPC   C2B12104  15.031  23.142   8.255
 6272POPC   C3B12105  15.063  23.169   7.955
 6272POPC   C4B12106  15.017  23.165   7.655
 6273POPC   NC312107   8.176   9.016   9.455
 6273POPC   PO412108   8.166   8.946   9.155
 6273POPC   GL112109   8.227   8.926   8.855
 6273POPC   GL212110   8.235   8.845   8.855
 6273POPC   C1A12111   8.210   8.971   8.555
 6273POPC   D2A12112   8.215   8.970   8.255
 6273POPC   C3A12113   8.165   8.975   7.955
 6273POPC   C4A12114   8.169   8.944   7.655
 6273POPC   C1B12115   8.280   8.755   8.555
 6273POPC   C2B12116   8.291   8.780   8.255
 6273POPC   C3B12117   8.300   8.716   7.955
 6273POPC   C4B12118   8.253   8.781   7.655
 6274POPC   NC312119  19.017  19.857   9.455
 6274POPC   PO412120  19.108  19.859   9.155
 6274POPC   GL112121  19.025  19.858   8.855
 6274POPC   GL212122  19.188  19.794   8.855
 6274POPC   C1A12123  19.047  19.882   8.555
 6274POPC   D2A12124  19.097  19.800   8.255
 6274POPC   C3A12125  19.023  19.830   7.955
 6274POPC   C4A12126  19.026  19.818   7.655
 6274POPC   C1B12127  19.262  19.648   8.555
 6274POPC   C2B12128  19.257  19.711   8.255
 6274POPC   C3B12129  19.239  19.629   7.955
 6274POPC   C4B12130  19.286  19.698   7.655
 6275POPC   NC312131   5.873  37.630   9.455
 6275POPC   PO412132   5.841  37.664   9.155
 6275POPC   GL112133   5.890  37.642   8.855
 6275POPC   GL212134   5.827  37.754   8.855
 6275POPC   C1A12135   5.870  37.725   8.555
 6275POPC   D2A12136   5.901  37.652   8.255
 6275POPC   C3A12137   5.906  37.688   7.955
 6275POPC   C4A12138   5.876  37.652   7.655
 6275POPC   C1B12139   5.777  37.862   8.555
 6275POPC   C2B12140   5.699  37.861   8.255
 6275POPC   C3B12141   5.722  37.885   7.955
 6275POPC   C4B12142   5.690  37.908   7.655
 6276POPC   NC312143  23.705   7.415   9.455
 6276POPC   PO412144  23.710   7.428   9.155
 6276POPC   GL112145  23.690   7.430   8.855
 6276POPC   GL212146  23.722   7.313   8.855
 6276POPC   C1A12147  23.682   7.452   8.555
 6276POPC   D2A12148  23.670   7.382   8.255
 6276POPC   C3A12149  23.668   7.420   7.955
 6276POPC   C4A12150  23.667   7.442   7.655
 6276POPC   C1B12151  23.723   7.194   8.555
 6276POPC   C2B12152  23.788   7.178   8.255
 6276POPC   C3B12153  23.730   7.192   7.955
 6276POPC   C4B12154  23.749   7.196   7.655
 6277POPC   NC312155  22.983  16.752   9.455
 6277POPC   PO412156  22.962  16.695   9.155
 6277POPC   GL112157  22.941  16.774   8.855
 6277POPC   GL212158  23.017  16.675   8.855
 6277POPC   C1A12159  22.904  16.767   8.555
 6277POPC   D2A12160  22.910  16.692   8.255
 6277POPC   C3A12161  22.965  16.721   7.955
 6277POPC   C4A12162  22.941  16.692   7.655
 6277POPC   C1B12163  23.187  16.593   8.555
 6277POPC   C2B12164  23.178  16.621   8.255
 6277POPC   C3B12165  23.187  16.591   7.955
 6277POPC   C4B12166  23.100  16.566   7.655
 6278POPC   NC312167  22.906   8.195   9.455
 6278POPC   PO412168  22.896   8.212   9.155
 6278POPC   GL112169  22.974   8.150   8.855
 6278POPC   GL212170  22.810   8.247   8.855
 6278POPC   C1A12171  22.944   8.232   8.555
 6278POPC   D2A12172  22.930   8.176   8.255
 6278POPC   C3A12173  22.910   8.149   7.955
 6278POPC   C4A12174  22.939   8.184   7.655
 6278POPC   C1B12175  22.741   8.315   8.555
 6278POPC   C2B12176  22.763   8.348   8.255
 6278POPC   C3B12177  22.685   8.360   7.955
 6278POPC   C4B12178  22.759   8.319   7.655
 6279POPC   NC312179  30.719  18.329   9.455
 6279POPC   PO412180  30.735  18.316   9.155
 6279POPC   GL112181  30.684  18.256   8.855
 6279POPC   GL212182  30.807  18.202   8.855
 6279POPC   C1A12183  30.721  18.254   8.555
 6279POPC   D2A12184  30.659  18.243   8.255
 6279POPC   C3A12185  30.669  18.267   7.955
 6279POPC   C4A12186  30.702  18.269   7.655
 6279POPC   C1B12187  30.971  18.169   8.555
 6279POPC   C2B12188  30.928  18.216   8.255
 6279POPC   C3B12189  30.904  18.175   7.955
 6279POPC   C4B12190  30.922  18.187   7.655
 6280POPC   NC312191  36.914  40.799   9.455
 6280POPC   PO412192  36.887  40.816   9.155
 6280POPC   GL112193  36.943  40.785   8.855
 6280POPC   GL212194  36.918  40.930   8.855
 6280POPC   C1A12195  36.876  40.771   8.555
 6280POPC   D2A12196  36.923  40.749   8.255
 6280POPC   C3A12197  36.870  40.753   7.955
 6280POPC   C4A12198  36.878  40.733   7.655
 6280POPC   C1B12199  36.960  41.001   8.555
 6280POPC   C2B12200  36.923  41.061   8.255
 6280POPC   C3B12201  36.909  40.980   7.955
 6280POPC   C4B12202  36.968  41.035   7.655
 6281POPC   NC312203   8.232  42.361   9.455
 6281POPC   PO412204   8.232  42.338   9.155
 6281POPC   GL112205   8.201  42.325   8.855
 6281POPC   GL212206   8.170  42.435   8.855
 6281POPC   C1A12207   8.180  42.374   8.555
 6281POPC   D2A12208   8.223  42.333   8.255
 6281POPC   C3A12209   8.183  42.348   7.955
 6281POPC   C4A12210   8.183  42.349   7.655
 6281POPC   C1B12211   8.220  42.542   8.555
 6281POPC   C2B12212   8.202  42.566   8.255
 6281POPC   C3B12213   8.225  42.586   7.955
 6281POPC   C4B12214   8.260  42.625   7.655
 6282POPC   NC312215  22.930  34.585   9.455
 6282POPC   PO412216  22.905  34.604   9.155
 6282POPC   GL112217  22.955  34.617   8.855
 6282POPC   GL212218  22.958  34.745   8.855
 6282POPC   C1A12219  22.938  34.592   8.555
 6282POPC   D2A12220  22.958  34.596   8.255
 6282POPC   C3A12221  22.889  34.568   7.955
 6282POPC   C4A12222  22.910  34.608   7.655
 6282POPC   C1B12223  22.931  34.840   8.555
 6282POPC   C2B12224  23.012  34.836   8.255
 6282POPC   C3B12225  23.005  34.840   7.955
 6282POPC   C4B12226  22.933  34.797   7.655
 6283POPC   NC312227   5.069  36.092   9.455
 6283POPC   PO412228   5.139  36.082   9.155
 6283POPC   GL112229   5.066  36.092   8.855
 6283POPC   GL212230   5.189  36.059   8.855
 6283POPC   C1A12231   5.117  36.143   8.555
 6283POPC   D2A12232   5.065  36.078   8.255
 6283POPC   C3A12233   5.070  36.113   7.955
 6283POPC   C4A12234   5.094  36.138   7.655
 6283POPC   C1B12235   5.301  36.002   8.555
 6283POPC   C2B12236   5.303  35.990   8.255
 6283POPC   C3B12237   5.268  35.993   7.955
 6283POPC   C4B12238   5.365  36.023   7.655
 6284POPC   NC312239  15.158  15.160   9.455
 6284POPC   PO412240  15.192  15.197   9.155
 6284POPC   GL112241  15.210  15.220   8.855
 6284POPC   GL212242  15.259  15.101   8.855
 6284POPC   C1A12243  15.193  15.172   8.555
 6284POPC   D2A12244  15.132  15.203   8.255
 6284POPC   C3A12245  15.133  15.210   7.955
 6284POPC   C4A12246  15.149  15.227   7.655
 6284POPC   C1B12247  15.311  14.990   8.555
 6284POPC   C2B12248  15.234  14.916   8.255
 6284POPC   C3B12249  15.261  14.950   7.955
 6284POPC   C4B12250  15.228  14.992   7.655
 6285POPC   NC312251   4.312  21.415   9.455
 6285POPC   PO412252   4.273  21.351   9.155
 6285POPC   GL112253   4.313  21.373   8.855
 6285POPC   GL212254   4.388  21.313   8.855
 6285POPC   C1A12255   4.360  21.343   8.555
 6285POPC   D2A12256   4.331  21.418   8.255
 6285POPC   C3A12257   4.340  21.389   7.955
 6285POPC   C4A12258   4.294  21.433   7.655
 6285POPC   C1B12259   4.558  21.248   8.555
 6285POPC   C2B12260   4.544  21.194   8.255
 6285POPC   C3B12261   4.469  21.273   7.955
 6285POPC   C4B12262   4.553  21.208   7.655
 6286POPC   NC312263  22.134  14.416   9.455
 6286POPC   PO412264  22.180  14.390   9.155
 6286POPC   GL112265  22.120  14.383   8.855
 6286POPC   GL212266  22.185  14.309   8.855
 6286POPC   C1A12267  22.127  14.361   8.555
 6286POPC   D2A12268  22.162  14.397   8.255
 6286POPC   C3A12269  22.155  14.359   7.955
 6286POPC   C4A12270  22.124  14.355   7.655
 6286POPC   C1B12271  22.225  14.147   8.555
 6286POPC   C2B12272  22.220  14.116   8.255
 6286POPC   C3B12273  22.239  14.134   7.955
 6286POPC   C4B12274  22.210  14.157   7.655
 6287POPC   NC312275   7.394  28.360   9.455
 6287POPC   PO412276   7.401  28.326   9.155
 6287POPC   GL112277   7.384  28.397   8.855
 6287POPC   GL212278   7.409  28.261   8.855
 6287POPC   C1A12279   7.435  28.323   8.555
 6287POPC   D2A12280   7.447  28.346   8.255
 6287POPC   C3A12281   7.391  28.392   7.955
 6287POPC   C4A12282   7.428  28.379   7.655
 6287POPC   C1B12283   7.328  28.144   8.555
 6287POPC   C2B12284   7.405  28.163   8.255
 6287POPC   C3B12285   7.358  28.083   7.955
 6287POPC   C4B12286   7.308  28.140   7.655
 6288POPC   NC312287  14.389  10.518   9.455
 6288POPC   PO412288  14.371  10.496   9.155
 6288POPC   GL112289  14.388  10.479   8.855
 6288POPC   GL212290  14.340  10.380   8.855
 6288POPC   C1A12291  14.373  10.539   8.555
 6288POPC   D2A12292  14.441  10.482   8.255
 6288POPC   C3A12293  14.452  10.541   7.955
 6288POPC   C4A12294  14.425  10.545   7.655
 6288POPC   C1B12295  14.398  10.294   8.555
 6288POPC   C2B12296  14.392  10.312   8.255
 6288POPC   C3B12297  14.386  10.245   7.955
 6288POPC   C4B12298  14.392  10.326   7.655
 6289POPC   NC312299  24.535  12.114   9.455
 6289POPC   PO412300  24.462  12.071   9.155
 6289POPC   GL112301  24.513  12.075   8.855
 6289POPC   GL212302  24.516  12.143   8.855
 6289POPC   C1A12303  24.536  12.094   8.555
 6289POPC   D2A12304  24.455  12.100   8.255
 6289POPC   C3A12305  24.442  12.095   7.955
 6289POPC   C4A12306  24.460  12.038   7.655
 6289POPC   C1B12307  24.616  12.322   8.555
 6289POPC   C2B12308  24.603  12.296   8.255
 6289POPC   C3B12309  24.638  12.267   7.955
 6289POPC   C4B12310  24.614  12.321   7.655
 6290POPC   NC312311  18.242  24.471   9.455
 6290POPC   PO412312  18.234  24.454   9.155
 6290POPC   GL112313  18.278  24.456   8.855
 6290POPC   GL212314  18.370  24.373   8.855
 6290POPC   C1A12315  18.315  24.452   8.555
 6290POPC   D2A12316  18.327  24.527   8.255
 6290POPC   C3A12317  18.235  24.511   7.955
 6290POPC   C4A12318  18.299  24.479   7.655
 6290POPC   C1B12319  18.414  24.285   8.555
 6290POPC   C2B12320  18.349  24.261   8.255
 6290POPC   C3B12321  18.361  24.282   7.955
 6290POPC   C4B12322  18.373  24.269   7.655
 6291POPC   NC312323  40.044  18.236   9.455
 6291POPC   PO412324  40.032  18.299   9.155
 6291POPC   GL112325  40.051  18.295   8.855
 6291POPC   GL212326  40.059  18.217   8.855
 6291POPC   C1A12327  40.034  18.302   8.555
 6291POPC   D2A12328  39.996  18.327   8.255
 6291POPC   C3A12329  39.984  18.272   7.955
 6291POPC   C4A12330  40.043  18.239   7.655
 6291POPC   C1B12331  40.189  18.150   8.555
 6291POPC   C2B12332  40.202  18.090   8.255
 6291POPC   C3B12333  40.194  18.147   7.955
 6291POPC   C4B12334  40.243  18.095   7.655
 6292POPC   NC312335  40.744  16.718   9.455
 6292POPC   PO412336  40.760  16.725   9.155
 6292POPC   GL112337  40.760  16.687   8.855
 6292POPC   GL212338  40.718  16.856   8.855
 6292POPC   C1A12339  40.800  16.772   8.555
 6292POPC   D2A12340  40.817  16.747   8.255
 6292POPC   C3A12341  40.761  16.687   7.955
 6292POPC   C4A12342  40.799  16.775   7.655
 6292POPC   C1B12343  40.709  17.011   8.555
 6292POPC   C2B12344  40.719  16.957   8.255
 6292POPC   C3B12345  40.710  16.944   7.955
 6292POPC   C4B12346  40.747  16.955   7.655
 6293POPC   NC312347  13.657  22.141   9.455
 6293POPC   PO412348  13.664  22.191   9.155
 6293POPC   GL112349  13.622  22.119   8.855
 6293POPC   GL212350  13.737  22.273   8.855
 6293POPC   C1A12351  13.618  22.152   8.555
 6293POPC   D2A12352  13.662  22.119   8.255
 6293POPC   C3A12353  13.592  22.198   7.955
 6293POPC   C4A12354  13.649  22.138   7.655
 6293POPC   C1B12355  13.705  22.338   8.555
 6293POPC   C2B12356  13.762  22.383   8.255
 6293POPC   C3B12357  13.721  22.406   7.955
 6293POPC   C4B12358  13.733  22.365   7.655
 6294POPC   NC312359  12.047   3.527   9.455
 6294POPC   PO412360  12.068   3.500   9.155
 6294POPC   GL112361  12.116   3.537   8.855
 6294POPC   GL212362  12.204   3.427   8.855
 6294POPC   C1A12363  12.043   3.559   8.555
 6294POPC   D2A12364  12.086   3.541   8.255
 6294POPC   C3A12365  12.079   3.497   7.955
 6294POPC   C4A12366  12.056   3.558   7.655
 6294POPC   C1B12367  12.260   3.384   8.555
 6294POPC   C2B12368  12.219   3.403   8.255
 6294POPC   C3B12369  12.273   3.336   7.955
 6294POPC   C4B12370  12.238   3.419   7.655
 6295POPC   NC312371  43.115  30.695   9.455
 6295POPC   PO412372  43.132  30.700   9.155
 6295POPC   GL112373  43.077  30.656   8.855
 6295POPC   GL212374  43.230  30.694   8.855
 6295POPC   C1A12375  43.100  30.701   8.555
 6295POPC   D2A12376  43.097  30.720   8.255
 6295POPC   C3A12377  43.145  30.672   7.955
 6295POPC   C4A12378  43.106  30.731   7.655
 6295POPC   C1B12379  43.340  30.604   8.555
 6295POPC   C2B12380  43.370  30.626   8.255
 6295POPC   C3B12381  43.388  30.667   7.955
 6295POPC   C4B12382  43.398  30.673   7.655
 6296POPC   NC312383  37.692  22.983   9.455
 6296POPC   PO412384  37.681  22.985   9.155
 6296POPC   GL112385  37.653  22.966   8.855
 6296POPC   GL212386  37.590  22.818   8.855
 6296POPC   C1A12387  37.701  22.921   8.555
 6296POPC   D2A12388  37.722  22.969   8.255
 6296POPC   C3A12389  37.647  22.986   7.955
 6296POPC   C4A12390  37.670  22.931   7.655
 6296POPC   C1B12391  37.471  22.796   8.555
 6296POPC   C2B12392  37.492  22.794   8.255
 6296POPC   C3B12393  37.451  22.804   7.955
 6296POPC   C4B12394  37.471  22.803   7.655
 6297POPC   NC312395  39.215  36.148   9.455
 6297POPC   PO412396  39.191  36.083   9.155
 6297POPC   GL112397  39.250  36.174   8.855
 6297POPC   GL212398  39.164  36.019   8.855
 6297POPC   C1A12399  39.200  36.177   8.555
 6297POPC   D2A12400  39.208  36.103   8.255
 6297POPC   C3A12401  39.281  36.133   7.955
 6297POPC   C4A12402  39.196  36.146   7.655
 6297POPC   C1B12403  39.013  35.927   8.555
 6297POPC   C2B12404  39.050  35.984   8.255
 6297POPC   C3B12405  39.037  35.941   7.955
 6297POPC   C4B12406  38.993  35.948   7.655
 6298POPC   NC312407   3.550   8.966   9.455
 6298POPC   PO412408   3.535   9.005   9.155
 6298POPC   GL112409   3.504   9.006   8.855
 6298POPC   GL212410   3.655   9.081   8.855
 6298POPC   C1A12411   3.576   8.942   8.555
 6298POPC   D2A12412   3.522   8.981   8.255
 6298POPC   C3A12413   3.565   9.006   7.955
 6298POPC   C4A12414   3.538   8.932   7.655
 6298POPC   C1B12415   3.713   9.181   8.555
 6298POPC   C2B12416   3.708   9.218   8.255
 6298POPC   C3B12417   3.689   9.127   7.955
 6298POPC   C4B12418   3.723   9.208   7.655
 6299POPC   NC312419  29.194   4.295   9.455
 6299POPC   PO412420  29.114   4.273   9.155
 6299POPC   GL112421  29.153   4.340   8.855
 6299POPC   GL212422  29.094   4.205   8.855
 6299POPC   C1A12423  29.104   4.314   8.555
 6299POPC   D2A12424  29.153   4.364   8.255
 6299POPC   C3A12425  29.146   4.344   7.955
 6299POPC   C4A12426  29.104   4.348   7.655
 6299POPC   C1B12427  28.957   4.124   8.555
 6299POPC   C2B12428  29.010   4.191   8.255
 6299POPC   C3B12429  28.965   4.191   7.955
 6299POPC   C4B12430  28.996   4.101   7.655
 6300POPC   NC312431  29.191  44.697   9.455
 6300POPC   PO412432  29.111  44.646   9.155
 6300POPC   GL112433  29.164  44.640   8.855
 6300POPC   GL212434  29.175  44.753   8.855
 6300POPC   C1A12435  29.155  44.694   8.555
 6300POPC   D2A12436  29.136  44.628   8.255
 6300POPC   C3A12437  29.096  44.659   7.955
 6300POPC   C4A12438  29.142  44.707   7.655
 6300POPC   C1B12439  29.230  44.846   8.555
 6300POPC   C2B12440  29.255  44.923   8.255
 6300POPC   C3B12441  29.202  44.885   7.955
 6300POPC   C4B12442  29.244  44.852   7.655
 6301POPC   NC312443   7.437  29.163   9.455
 6301POPC   PO412444   7.466  29.188   9.155
 6301POPC   GL112445   7.387  29.191   8.855
 6301POPC   GL212446   7.328  29.155   8.855
 6301POPC   C1A12447   7.393  29.123   8.555
 6301POPC   D2A12448   7.428  29.139   8.255
 6301POPC   C3A12449   7.385  29.190   7.955
 6301POPC   C4A12450   7.426  29.123   7.655
 6301POPC   C1B12451   7.235  29.242   8.555
 6301POPC   C2B12452   7.210  29.273   8.255
 6301POPC   C3B12453   7.207  29.277   7.955
 6301POPC   C4B12454   7.228  29.285   7.655
 6302POPC   NC312455  37.645  13.615   9.455
 6302POPC   PO412456  37.670  13.608   9.155
 6302POPC   GL112457  37.636  13.676   8.855
 6302POPC   GL212458  37.759  13.694   8.855
 6302POPC   C1A12459  37.719  13.650   8.555
 6302POPC   D2A12460  37.681  13.665   8.255
 6302POPC   C3A12461  37.691  13.611   7.955
 6302POPC   C4A12462  37.635  13.652   7.655
 6302POPC   C1B12463  37.807  13.823   8.555
 6302POPC   C2B12464  37.851  13.836   8.255
 6302POPC   C3B12465  37.809  13.806   7.955
 6302POPC   C4B12466  37.850  13.832   7.655
 6303POPC   NC312467  14.377   1.981   9.455
 6303POPC   PO412468  14.369   2.024   9.155
 6303POPC   GL112469  14.418   1.972   8.855
 6303POPC   GL212470  14.377   1.918   8.855
 6303POPC   C1A12471  14.415   2.038   8.555
 6303POPC   D2A12472  14.399   1.963   8.255
 6303POPC   C3A12473  14.378   1.962   7.955
 6303POPC   C4A12474  14.428   2.033   7.655
 6303POPC   C1B12475  14.356   1.771   8.555
 6303POPC   C2B12476  14.295   1.798   8.255
 6303POPC   C3B12477  14.351   1.783   7.955
 6303POPC   C4B12478  14.277   1.734   7.655
 6304POPC   NC312479  39.277  44.625   9.455
 6304POPC   PO412480  39.274  44.678   9.155
 6304POPC   GL112481  39.267  44.634   8.855
 6304POPC   GL212482  39.350  44.734   8.855
 6304POPC   C1A12483  39.270  44.711   8.555
 6304POPC   D2A12484  39.244  44.626   8.255
 6304POPC   C3A12485  39.223  44.697   7.955
 6304POPC   C4A12486  39.273  44.646   7.655
 6304POPC   C1B12487  39.475  44.792   8.555
 6304POPC   C2B12488  39.450  44.788   8.255
 6304POPC   C3B12489  39.470  44.782   7.955
 6304POPC   C4B12490  39.457  44.811   7.655
 6305POPC   NC312491  33.803   6.601   9.455
 6305POPC   PO412492  33.809   6.673   9.155
 6305POPC   GL112493  33.830   6.631   8.855
 6305POPC   GL212494  33.827   6.572   8.855
 6305POPC   C1A12495  33.769   6.606   8.555
 6305POPC   D2A12496  33.809   6.599   8.255
 6305POPC   C3A12497  33.807   6.619   7.955
 6305POPC   C4A12498  33.765   6.619   7.655
 6305POPC   C1B12499  33.873   6.408   8.555
 6305POPC   C2B12500  33.897   6.440   8.255
 6305POPC   C3B12501  33.908   6.462   7.955
 6305POPC   C4B12502  33.926   6.434   7.655
 6306POPC   NC312503  25.226  30.713   9.455
 6306POPC   PO412504  25.227  30.692   9.155
 6306POPC   GL112505  25.272  30.731   8.855
 6306POPC   GL212506  25.301  30.529   8.855
 6306POPC   C1A12507  25.224  30.740   8.555
 6306POPC   D2A12508  25.261  30.702   8.255
 6306POPC   C3A12509  25.285  30.652   7.955
 6306POPC   C4A12510  25.249  30.730   7.655
 6306POPC   C1B12511  25.289  30.438   8.555
 6306POPC   C2B12512  25.262  30.449   8.255
 6306POPC   C3B12513  25.229  30.421   7.955
 6306POPC   C4B12514  25.304  30.477   7.655
 6307POPC   NC312515   1.247   9.001   9.455
 6307POPC   PO412516   1.232   8.967   9.155
 6307POPC   GL112517   1.224   8.960   8.855
 6307POPC   GL212518   1.310   9.022   8.855
 6307POPC   C1A12519   1.226   8.942   8.555
 6307POPC   D2A12520   1.201   9.001   8.255
 6307POPC   C3A12521   1.224   9.016   7.955
 6307POPC   C4A12522   1.196   8.948   7.655
 6307POPC   C1B12523   1.336   9.190   8.555
 6307POPC   C2B12524   1.351   9.137   8.255
 6307POPC   C3B12525   1.416   9.197   7.955
 6307POPC   C4B12526   1.349   9.140   7.655
 6308POPC   NC312527  44.655  24.451   9.455
 6308POPC   PO412528  44.672  24.468   9.155
 6308POPC   GL112529  44.678  24.445   8.855
 6308POPC   GL212530  44.565  24.349   8.855
 6308POPC   C1A12531  44.676  24.456   8.555
 6308POPC   D2A12532  44.667  24.533   8.255
 6308POPC   C3A12533  44.649  24.503   7.955
 6308POPC   C4A12534  44.705  24.501   7.655
 6308POPC   C1B12535  44.507  24.317   8.555
 6308POPC   C2B12536  44.506  24.288   8.255
 6308POPC   C3B12537  44.475  24.285   7.955
 6308POPC   C4B12538  44.474  24.304   7.655
 6309POPC   NC312539  38.477   9.788   9.455
 6309POPC   PO412540  38.498   9.705   9.155
 6309POPC   GL112541  38.430   9.755   8.855
 6309POPC   GL212542  38.375   9.804   8.855
 6309POPC   C1A12543  38.491   9.785   8.555
 6309POPC   D2A12544  38.488   9.747   8.255
 6309POPC   C3A12545  38.412   9.783   7.955
 6309POPC   C4A12546  38.491   9.733   7.655
 6309POPC   C1B12547  38.277   9.870   8.555
 6309POPC   C2B12548  38.264   9.885   8.255
 6309POPC   C3B12549  38.195   9.906   7.955
 6309POPC   C4B12550  38.264   9.865   7.655
 6310POPC   NC312551  26.850  40.802   9.455
 6310POPC   PO412552  26.790  40.773   9.155
 6310POPC   GL112553  26.777  40.813   8.855
 6310POPC   GL212554  26.932  40.897   8.855
 6310POPC   C1A12555  26.825  40.756   8.555
 6310POPC   D2A12556  26.854  40.811   8.255
 6310POPC   C3A12557  26.855  40.762   7.955
 6310POPC   C4A12558  26.842  40.741   7.655
 6310POPC   C1B12559  26.983  40.979   8.555
 6310POPC   C2B12560  26.988  41.012   8.255
 6310POPC   C3B12561  26.936  40.943   7.955
 6310POPC   C4B12562  26.990  40.964   7.655
 6311POPC   NC312563   5.889  40.772   9.455
 6311POPC   PO412564   5.902  40.816   9.155
 6311POPC   GL112565   5.911  40.779   8.855
 6311POPC   GL212566   6.013  40.835   8.855
 6311POPC   C1A12567   5.881  40.758   8.555
 6311POPC   D2A12568   5.903  40.785   8.255
 6311POPC   C3A12569   5.883  40.747   7.955
 6311POPC   C4A12570   5.888  40.769   7.655
 6311POPC   C1B12571   6.059  40.952   8.555
 6311POPC   C2B12572   6.118  40.922   8.255
 6311POPC   C3B12573   6.035  40.966   7.955
 6311POPC   C4B12574   6.119  40.887   7.655
 6312POPC   NC312575   9.725  40.789   9.455
 6312POPC   PO412576   9.729  40.748   9.155
 6312POPC   GL112577   9.740  40.742   8.855
 6312POPC   GL212578   9.838  40.762   8.855
 6312POPC   C1A12579   9.736  40.828   8.555
 6312POPC   D2A12580   9.782  40.831   8.255
 6312POPC   C3A12581   9.740  40.764   7.955
 6312POPC   C4A12582   9.753  40.813   7.655
 6312POPC   C1B12583   9.962  40.708   8.555
 6312POPC   C2B12584   9.928  40.702   8.255
 6312POPC   C3B12585  10.006  40.675   7.955
 6312POPC   C4B12586   9.925  40.678   7.655
 6313POPC   NC312587  17.457  36.917   9.455
 6313POPC   PO412588  17.556  36.944   9.155
 6313POPC   GL112589  17.503  36.878   8.855
 6313POPC   GL212590  17.410  36.892   8.855
 6313POPC   C1A12591  17.514  36.940   8.555
 6313POPC   D2A12592  17.522  36.885   8.255
 6313POPC   C3A12593  17.508  36.906   7.955
 6313POPC   C4A12594  17.509  36.912   7.655
 6313POPC   C1B12595  17.251  36.864   8.555
 6313POPC   C2B12596  17.257  36.878   8.255
 6313POPC   C3B12597  17.229  36.856   7.955
 6313POPC   C4B12598  17.311  36.797   7.655
 6314POPC   NC312599  33.829  43.837   9.455
 6314POPC   PO412600  33.759  43.876   9.155
 6314POPC   GL112601  33.784  43.903   8.855
 6314POPC   GL212602  33.939  43.843   8.855
 6314POPC   C1A12603  33.797  43.839   8.555
 6314POPC   D2A12604  33.815  43.928   8.255
 6314POPC   C3A12605  33.776  43.875   7.955
 6314POPC   C4A12606  33.783  43.931   7.655
 6314POPC   C1B12607  34.003  43.785   8.555
 6314POPC   C2B12608  34.058  43.802   8.255
 6314POPC   C3B12609  34.028  43.808   7.955
 6314POPC   C4B12610  34.043  43.735   7.655
 6315POPC   NC312611  18.250  14.410   9.455
 6315POPC   PO412612  18.277  14.420   9.155
 6315POPC   GL112613  18.269  14.409   8.855
 6315POPC   GL212614  18.315  14.326   8.855
 6315POPC   C1A12615  18.279  14.395   8.555
 6315POPC   D2A12616  18.284  14.436   8.255
 6315POPC   C3A12617  18.319  14.421   7.955
 6315POPC   C4A12618  18.329  14.374   7.655
 6315POPC   C1B12619  18.407  14.182   8.555
 6315POPC   C2B12620  18.398  14.193   8.255
 6315POPC   C3B12621  18.400  14.171   7.955
 6315POPC   C4B12622  18.435  14.155   7.655
 6316POPC   NC312623  18.257  37.719   9.455
 6316POPC   PO412624  18.276  37.681   9.155
 6316POPC   GL112625  18.312  37.671   8.855
 6316POPC   GL212626  18.295  37.507   8.855
 6316POPC   C1A12627  18.249  37.637   8.555
 6316POPC   D2A12628  18.318  37.710   8.255
 6316POPC   C3A12629  18.236  37.636   7.955
 6316POPC   C4A12630  18.236  37.702   7.655
 6316POPC   C1B12631  18.245  37.427   8.555
 6316POPC   C2B12632  18.270  37.396   8.255
 6316POPC   C3B12633  18.289  37.391   7.955
 6316POPC   C4B12634  18.327  37.427   7.655
 6317POPC   NC312635  33.786  15.913   9.455
 6317POPC   PO412636  33.800  15.970   9.155
 6317POPC   GL112637  33.792  15.945   8.855
 6317POPC   GL212638  33.717  15.877   8.855
 6317POPC   C1A12639  33.791  15.964   8.555
 6317POPC   D2A12640  33.835  15.946   8.255
 6317POPC   C3A12641  33.804  15.971   7.955
 6317POPC   C4A12642  33.791  15.949   7.655
 6317POPC   C1B12643  33.607  15.881   8.555
 6317POPC   C2B12644  33.611  15.880   8.255
 6317POPC   C3B12645  33.603  15.836   7.955
 6317POPC   C4B12646  33.543  15.857   7.655
 6318POPC   NC312647  15.950  35.401   9.455
 6318POPC   PO412648  15.957  35.309   9.155
 6318POPC   GL112649  15.965  35.380   8.855
 6318POPC   GL212650  16.047  35.401   8.855
 6318POPC   C1A12651  15.963  35.349   8.555
 6318POPC   D2A12652  15.913  35.374   8.255
 6318POPC   C3A12653  15.981  35.335   7.955
 6318POPC   C4A12654  15.995  35.395   7.655
 6318POPC   C1B12655  16.160  35.524   8.555
 6318POPC   C2B12656  16.202  35.509   8.255
 6318POPC   C3B12657  16.148  35.538   7.955
 6318POPC   C4B12658  16.127  35.500   7.655
 6319POPC   NC312659  23.698  33.053   9.455
 6319POPC   PO412660  23.671  32.974   9.155
 6319POPC   GL112661  23.697  33.010   8.855
 6319POPC   GL212662  23.592  33.100   8.855
 6319POPC   C1A12663  23.757  33.048   8.555
 6319POPC   D2A12664  23.716  32.985   8.255
 6319POPC   C3A12665  23.719  33.044   7.955
 6319POPC   C4A12666  23.719  32.984   7.655
 6319POPC   C1B12667  23.518  33.142   8.555
 6319POPC   C2B12668  23.525  33.133   8.255
 6319POPC   C3B12669  23.511  33.078   7.955
 6319POPC   C4B12670  23.464  33.113   7.655
 6320POPC   NC312671  41.571  27.569   9.455
 6320POPC   PO412672  41.522  27.557   9.155
 6320POPC   GL112673  41.549  27.580   8.855
 6320POPC   GL212674  41.625  27.664   8.855
 6320POPC   C1A12675  41.604  27.623   8.555
 6320POPC   D2A12676  41.537  27.560   8.255
 6320POPC   C3A12677  41.578  27.562   7.955
 6320POPC   C4A12678  41.573  27.619   7.655
 6320POPC   C1B12679  41.714  27.835   8.555
 6320POPC   C2B12680  41.626  27.829   8.255
 6320POPC   C3B12681  41.695  27.768   7.955
 6320POPC   C4B12682  41.659  27.793   7.655
 6321POPC   NC312683  36.913  20.614   9.455
 6321POPC   PO412684  36.903  20.578   9.155
 6321POPC   GL112685  36.893  20.580   8.855
 6321POPC   GL212686  36.772  20.708   8.855
 6321POPC   C1A12687  36.862  20.568   8.555
 6321POPC   D2A12688  36.926  20.581   8.255
 6321POPC   C3A12689  36.923  20.620   7.955
 6321POPC   C4A12690  36.879  20.582   7.655
 6321POPC   C1B12691  36.725  20.746   8.555
 6321POPC   C2B12692  36.711  20.719   8.255
 6321POPC   C3B12693  36.658  20.751   7.955
 6321POPC   C4B12694  36.670  20.720   7.655
 6322POPC   NC312695  15.142  40.741   9.455
 6322POPC   PO412696  15.138  40.773   9.155
 6322POPC   GL112697  15.154  40.804   8.855
 6322POPC   GL212698  15.076  40.758   8.855
 6322POPC   C1A12699  15.144  40.832   8.555
 6322POPC   D2A12700  15.154  40.737   8.255
 6322POPC   C3A12701  15.143  40.767   7.955
 6322POPC   C4A12702  15.167  40.747   7.655
 6322POPC   C1B12703  14.925  40.785   8.555
 6322POPC   C2B12704  14.888  40.811   8.255
 6322POPC   C3B12705  14.927  40.808   7.955
 6322POPC   C4B12706  14.888  40.851   7.655
 6323POPC   NC312707  21.386  40.813   9.455
 6323POPC   PO412708  21.400  40.775   9.155
 6323POPC   GL112709  21.403  40.805   8.855
 6323POPC   GL212710  21.333  40.911   8.855
 6323POPC   C1A12711  21.392  40.812   8.555
 6323POPC   D2A12712  21.354  40.748   8.255
 6323POPC   C3A12713  21.376  40.821   7.955
 6323POPC   C4A12714  21.430  40.769   7.655
 6323POPC   C1B12715  21.258  41.010   8.555
 6323POPC   C2B12716  21.266  41.038   8.255
 6323POPC   C3B12717  21.257  41.014   7.955
 6323POPC   C4B12718  21.280  41.011   7.655
 6324POPC   NC312719  38.446  21.395   9.455
 6324POPC   PO412720  38.502  21.338   9.155
 6324POPC   GL112721  38.411  21.360   8.855
 6324POPC   GL212722  38.485  21.250   8.855
 6324POPC   C1A12723  38.440  21.366   8.555
 6324POPC   D2A12724  38.479  21.410   8.255
 6324POPC   C3A12725  38.487  21.347   7.955
 6324POPC   C4A12726  38.460  21.376   7.655
 6324POPC   C1B12727  38.522  21.144   8.555
 6324POPC   C2B12728  38.597  21.179   8.255
 6324POPC   C3B12729  38.585  21.112   7.955
 6324POPC   C4B12730  38.546  21.119   7.655
 6325POPC   NC312731  17.538  35.327   9.455
 6325POPC   PO412732  17.483  35.355   9.155
 6325POPC   GL112733  17.489  35.371   8.855
 6325POPC   GL212734  17.367  35.364   8.855
 6325POPC   C1A12735  17.503  35.356   8.555
 6325POPC   D2A12736  17.532  35.365   8.255
 6325POPC   C3A12737  17.470  35.346   7.955
 6325POPC   C4A12738  17.494  35.324   7.655
 6325POPC   C1B12739  17.312  35.429   8.555
 6325POPC   C2B12740  17.314  35.466   8.255
 6325POPC   C3B12741  17.313  35.474   7.955
 6325POPC   C4B12742  17.243  35.414   7.655
 6326POPC   NC312743  13.664  28.388   9.455
 6326POPC   PO412744  13.644  28.385   9.155
 6326POPC   GL112745  13.615  28.390   8.855
 6326POPC   GL212746  13.696  28.486   8.855
 6326POPC   C1A12747  13.601  28.332   8.555
 6326POPC   D2A12748  13.655  28.370   8.255
 6326POPC   C3A12749  13.584  28.403   7.955
 6326POPC   C4A12750  13.642  28.375   7.655
 6326POPC   C1B12751  13.673  28.589   8.555
 6326POPC   C2B12752  13.707  28.568   8.255
 6326POPC   C3B12753  13.687  28.576   7.955
 6326POPC   C4B12754  13.679  28.586   7.655
 6327POPC   NC312755  33.048  32.259   9.455
 6327POPC   PO412756  33.069  32.218   9.155
 6327POPC   GL112757  33.062  32.247   8.855
 6327POPC   GL212758  33.066  32.367   8.855
 6327POPC   C1A12759  32.994  32.269   8.555
 6327POPC   D2A12760  33.002  32.285   8.255
 6327POPC   C3A12761  32.987  32.263   7.955
 6327POPC   C4A12762  33.004  32.225   7.655
 6327POPC   C1B12763  33.174  32.465   8.555
 6327POPC   C2B12764  33.179  32.477   8.255
 6327POPC   C3B12765  33.199  32.434   7.955
 6327POPC   C4B12766  33.149  32.474   7.655
 6328POPC   NC312767  16.772  26.018   9.455
 6328POPC   PO412768  16.696  26.044   9.155
 6328POPC   GL112769  16.693  26.014   8.855
 6328POPC   GL212770  16.698  26.118   8.855
 6328POPC   C1A12771  16.757  26.019   8.555
 6328POPC   D2A12772  16.709  26.033   8.255
 6328POPC   C3A12773  16.720  26.004   7.955
 6328POPC   C4A12774  16.749  26.056   7.655
 6328POPC   C1B12775  16.703  26.306   8.555
 6328POPC   C2B12776  16.740  26.301   8.255
 6328POPC   C3B12777  16.716  26.336   7.955
 6328POPC   C4B12778  16.720  26.320   7.655
 6329POPC   NC312779  30.727  21.394   9.455
 6329POPC   PO412780  30.740  21.422   9.155
 6329POPC   GL112781  30.682  21.396   8.855
 6329POPC   GL212782  30.798  21.522   8.855
 6329POPC   C1A12783  30.705  21.423   8.555
 6329POPC   D2A12784  30.730  21.393   8.255
 6329POPC   C3A12785  30.670  21.383   7.955
 6329POPC   C4A12786  30.736  21.408   7.655
 6329POPC   C1B12787  30.784  21.571   8.555
 6329POPC   C2B12788  30.845  21.652   8.255
 6329POPC   C3B12789  30.777  21.576   7.955
 6329POPC   C4B12790  30.846  21.643   7.655
 6330POPC   NC312791  12.120  15.985   9.455
 6330POPC   PO412792  12.072  15.991   9.155
 6330POPC   GL112793  12.038  15.912   8.855
 6330POPC   GL212794  12.035  15.829   8.855
 6330POPC   C1A12795  12.120  15.973   8.555
 6330POPC   D2A12796  12.109  15.979   8.255
 6330POPC   C3A12797  12.073  15.977   7.955
 6330POPC   C4A12798  12.080  15.972   7.655
 6330POPC   C1B12799  12.035  15.685   8.555
 6330POPC   C2B12800  12.049  15.691   8.255
 6330POPC   C3B12801  12.037  15.757   7.955
 6330POPC   C4B12802  12.010  15.732   7.655
 6331POPC   NC312803  20.658  16.771   9.455
 6331POPC   PO412804  20.609  16.765   9.155
 6331POPC   GL112805  20.609  16.758   8.855
 6331POPC   GL212806  20.690  16.759   8.855
 6331POPC   C1A12807  20.595  16.755   8.555
 6331POPC   D2A12808  20.573  16.682   8.255
 6331POPC   C3A12809  20.620  16.756   7.955
 6331POPC   C4A12810  20.571  16.763   7.655
 6331POPC   C1B12811  20.870  16.786   8.555
 6331POPC   C2B12812  20.837  16.703   8.255
 6331POPC   C3B12813  20.880  16.742   7.955
 6331POPC   C4B12814  20.815  16.732   7.655
 6332POPC   NC312815  42.351  44.668   9.455
 6332POPC   PO412816  42.297  44.704   9.155
 6332POPC   GL112817  42.349  44.707   8.855
 6332POPC   GL212818  42.216  44.662   8.855
 6332POPC   C1A12819  42.369  44.645   8.555
 6332POPC   D2A12820  42.364  44.651   8.255
 6332POPC   C3A12821  42.372  44.701   7.955
 6332POPC   C4A12822  42.383  44.711   7.655
 6332POPC   C1B12823  42.083  44.650   8.555
 6332POPC   C2B12824  42.125  44.632   8.255
 6332POPC   C3B12825  42.084  44.615   7.955
 6332POPC   C4B12826  42.118  44.606   7.655
 6333POPC   NC312827   9.765   5.824   9.455
 6333POPC   PO412828   9.727   5.883   9.155
 6333POPC   GL112829   9.773   5.881   8.855
 6333POPC   GL212830   9.823   5.731   8.855
 6333POPC   C1A12831   9.754   5.868   8.555
 6333POPC   D2A12832   9.717   5.870   8.255
 6333POPC   C3A12833   9.786   5.897   7.955
 6333POPC   C4A12834   9.794   5.892   7.655
 6333POPC   C1B12835   9.896   5.656   8.555
 6333POPC   C2B12836   9.896   5.670   8.255
 6333POPC   C3B12837   9.899   5.642   7.955
 6333POPC   C4B12838   9.900   5.622   7.655
 6334POPC   NC312839  26.028  42.294   9.455
 6334POPC   PO412840  26.090  42.327   9.155
 6334POPC   GL112841  26.027  42.285   8.855
 6334POPC   GL212842  25.991  42.478   8.855
 6334POPC   C1A12843  26.027  42.382   8.555
 6334POPC   D2A12844  26.040  42.288   8.255
 6334POPC   C3A12845  26.085  42.323   7.955
 6334POPC   C4A12846  26.010  42.364   7.655
 6334POPC   C1B12847  26.015  42.597   8.555
 6334POPC   C2B12848  25.994  42.630   8.255
 6334POPC   C3B12849  25.996  42.630   7.955
 6334POPC   C4B12850  25.989  42.581   7.655
 6335POPC   NC312851  10.519   5.901   9.455
 6335POPC   PO412852  10.544   5.856   9.155
 6335POPC   GL112853  10.565   5.840   8.855
 6335POPC   GL212854  10.402   5.839   8.855
 6335POPC   C1A12855  10.504   5.875   8.555
 6335POPC   D2A12856  10.528   5.894   8.255
 6335POPC   C3A12857  10.552   5.841   7.955
 6335POPC   C4A12858  10.504   5.857   7.655
 6335POPC   C1B12859  10.237   5.827   8.555
 6335POPC   C2B12860  10.309   5.822   8.255
 6335POPC   C3B12861  10.273   5.819   7.955
 6335POPC   C4B12862  10.273   5.820   7.655
 6336POPC   NC312863  36.893  38.475   9.455
 6336POPC   PO412864  36.876  38.405   9.155
 6336POPC   GL112865  36.861  38.416   8.855
 6336POPC   GL212866  37.055  38.478   8.855
 6336POPC   C1A12867  36.928  38.500   8.555
 6336POPC   D2A12868  36.908  38.481   8.255
 6336POPC   C3A12869  36.921  38.478   7.955
 6336POPC   C4A12870  36.885  38.415   7.655
 6336POPC   C1B12871  37.162  38.537   8.555
 6336POPC   C2B12872  37.156  38.510   8.255
 6336POPC   C3B12873  37.085  38.524   7.955
 6336POPC   C4B12874  37.161  38.585   7.655
 6337POPC   NC312875  34.551  44.613   9.455
 6337POPC   PO412876  34.570  44.684   9.155
 6337POPC   GL112877  34.605  44.672   8.855
 6337POPC   GL212878  34.592  44.509   8.855
 6337POPC   C1A12879  34.556  44.652   8.555
 6337POPC   D2A12880  34.571  44.705   8.255
 6337POPC   C3A12881  34.573  44.693   7.955
 6337POPC   C4A12882  34.540  44.683   7.655
 6337POPC   C1B12883  34.651  44.410   8.555
 6337POPC   C2B12884  34.619  44.371   8.255
 6337POPC   C3B12885  34.619  44.457   7.955
 6337POPC   C4B12886  34.666  44.387   7.655
 6338POPC   NC312887  18.242  41.580   9.455
 6338POPC   PO412888  18.311  41.514   9.155
 6338POPC   GL112889  18.305  41.531   8.855
 6338POPC   GL212890  18.264  41.484   8.855
 6338POPC   C1A12891  18.311  41.557   8.555
 6338POPC   D2A12892  18.332  41.541   8.255
 6338POPC   C3A12893  18.295  41.539   7.955
 6338POPC   C4A12894  18.283  41.555   7.655
 6338POPC   C1B12895  18.295  41.289   8.555
 6338POPC   C2B12896  18.303  41.330   8.255
 6338POPC   C3B12897  18.389  41.269   7.955
 6338POPC   C4B12898  18.342  41.334   7.655
 6339POPC   NC312899  39.219  27.600   9.455
 6339POPC   PO412900  39.213  27.611   9.155
 6339POPC   GL112901  39.246  27.641   8.855
 6339POPC   GL212902  39.117  27.681   8.855
 6339POPC   C1A12903  39.239  27.592   8.555
 6339POPC   D2A12904  39.280  27.580   8.255
 6339POPC   C3A12905  39.193  27.578   7.955
 6339POPC   C4A12906  39.229  27.562   7.655
 6339POPC   C1B12907  38.994  27.695   8.555
 6339POPC   C2B12908  38.969  27.644   8.255
 6339POPC   C3B12909  38.950  27.659   7.955
 6339POPC   C4B12910  38.953  27.712   7.655
 6340POPC   NC312911  23.690   9.786   9.455
 6340POPC   PO412912  23.750   9.790   9.155
 6340POPC   GL112913  23.757   9.705   8.855
 6340POPC   GL212914  23.861   9.805   8.855
 6340POPC   C1A12915  23.698   9.785   8.555
 6340POPC   D2A12916  23.734   9.760   8.255
 6340POPC   C3A12917  23.679   9.747   7.955
 6340POPC   C4A12918  23.741   9.777   7.655
 6340POPC   C1B12919  23.977   9.791   8.555
 6340POPC   C2B12920  23.960   9.816   8.255
 6340POPC   C3B12921  23.964   9.762   7.955
 6340POPC   C4B12922  23.986   9.823   7.655
 6341POPC   NC312923  14.377  24.494   9.455
 6341POPC   PO412924  14.442  24.493   9.155
 6341POPC   GL112925  14.383  24.515   8.855
 6341POPC   GL212926  14.486  24.546   8.855
 6341POPC   C1A12927  14.369  24.516   8.555
 6341POPC   D2A12928  14.361  24.511   8.255
 6341POPC   C3A12929  14.366  24.440   7.955
 6341POPC   C4A12930  14.451  24.481   7.655
 6341POPC   C1B12931  14.658  24.478   8.555
 6341POPC   C2B12932  14.660  24.515   8.255
 6341POPC   C3B12933  14.674  24.510   7.955
 6341POPC   C4B12934  14.702  24.539   7.655
 6342POPC   NC312935  33.819   4.331   9.455
 6342POPC   PO412936  33.764   4.300   9.155
 6342POPC   GL112937  33.808   4.293   8.855
 6342POPC   GL212938  33.941   4.310   8.855
 6342POPC   C1A12939  33.814   4.319   8.555
 6342POPC   D2A12940  33.787   4.310   8.255
 6342POPC   C3A12941  33.779   4.344   7.955
 6342POPC   C4A12942  33.826   4.366   7.655
 6342POPC   C1B12943  34.072   4.271   8.555
 6342POPC   C2B12944  33.995   4.242   8.255
 6342POPC   C3B12945  34.019   4.257   7.955
 6342POPC   C4B12946  34.073   4.197   7.655
 6343POPC   NC312947   9.021   1.979   9.455
 6343POPC   PO412948   8.934   2.028   9.155
 6343POPC   GL112949   8.982   1.972   8.855
 6343POPC   GL212950   9.145   1.990   8.855
 6343POPC   C1A12951   8.923   1.969   8.555
 6343POPC   D2A12952   8.927   2.031   8.255
 6343POPC   C3A12953   8.941   2.000   7.955
 6343POPC   C4A12954   8.948   2.016   7.655
 6343POPC   C1B12955   9.193   1.944   8.555
 6343POPC   C2B12956   9.259   1.896   8.255
 6343POPC   C3B12957   9.248   1.983   7.955
 6343POPC   C4B12958   9.261   1.959   7.655
 6344POPC   NC312959  42.314   3.565   9.455
 6344POPC   PO412960  42.290   3.550   9.155
 6344POPC   GL112961  42.347   3.498   8.855
 6344POPC   GL212962  42.203   3.617   8.855
 6344POPC   C1A12963  42.334   3.570   8.555
 6344POPC   D2A12964  42.291   3.575   8.255
 6344POPC   C3A12965  42.327   3.577   7.955
 6344POPC   C4A12966  42.367   3.510   7.655
 6344POPC   C1B12967  42.185   3.710   8.555
 6344POPC   C2B12968  42.148   3.725   8.255
 6344POPC   C3B12969  42.199   3.666   7.955
 6344POPC   C4B12970  42.125   3.725   7.655
 6345POPC   NC312971   9.752  38.497   9.455
 6345POPC   PO412972   9.756  38.494   9.155
 6345POPC   GL112973   9.766  38.455   8.855
 6345POPC   GL212974   9.651  38.520   8.855
 6345POPC   C1A12975   9.796  38.450   8.555
 6345POPC   D2A12976   9.704  38.440   8.255
 6345POPC   C3A12977   9.711  38.472   7.955
 6345POPC   C4A12978   9.717  38.495   7.655
 6345POPC   C1B12979   9.537  38.578   8.555
 6345POPC   C2B12980   9.535  38.584   8.255
 6345POPC   C3B12981   9.503  38.573   7.955
 6345POPC   C4B12982   9.557  38.603   7.655
 6346POPC   NC312983   0.462   8.994   9.455
 6346POPC   PO412984   0.478   9.010   9.155
 6346POPC   GL112985   0.425   8.994   8.855
 6346POPC   GL212986   0.531   9.060   8.855
 6346POPC   C1A12987   0.441   8.960   8.555
 6346POPC   D2A12988   0.405   9.007   8.255
 6346POPC   C3A12989   0.405   8.946   7.955
 6346POPC   C4A12990   0.420   9.000   7.655
 6346POPC   C1B12991   0.699   9.113   8.555
 6346POPC   C2B12992   0.677   9.124   8.255
 6346POPC   C3B12993   0.699   9.040   7.955
 6346POPC   C4B12994   0.626   9.068   7.655
 6347POPC   NC312995  30.689   9.719   9.455
 6347POPC   PO412996  30.743   9.777   9.155
 6347POPC   GL112997  30.695   9.720   8.855
 6347POPC   GL212998  30.703   9.919   8.855
 6347POPC   C1A12999  30.654   9.721   8.555
 6347POPC   D2A13000  30.706   9.741   8.255
 6347POPC   C3A13001  30.667   9.736   7.955
 6347POPC   C4A13002  30.718   9.710   7.655
 6347POPC   C1B13003  30.772  10.025   8.555
 6347POPC   C2B13004  30.704   9.973   8.255
 6347POPC   C3B13005  30.726  10.018   7.955
 6347POPC   C4B13006  30.775  10.031   7.655
 6348POPC   NC313007  10.475   1.990   9.455
 6348POPC   PO413008  10.525   1.961   9.155
 6348POPC   GL113009  10.531   1.978   8.855
 6348POPC   GL213010  10.419   1.946   8.855
 6348POPC   C1A13011  10.531   1.951   8.555
 6348POPC   D2A13012  10.522   2.030   8.255
 6348POPC   C3A13013  10.540   2.034   7.955
 6348POPC   C4A13014  10.512   2.023   7.655
 6348POPC   C1B13015  10.261   1.861   8.555
 6348POPC   C2B13016  10.282   1.927   8.255
 6348POPC   C3B13017  10.249   1.912   7.955
 6348POPC   C4B13018  10.266   1.841   7.655
 6349POPC   NC313019   5.862  26.025   9.455
 6349POPC   PO413020   5.826  26.065   9.155
 6349POPC   GL113021   5.879  26.011   8.855
 6349POPC   GL213022   5.827  25.964   8.855
 6349POPC   C1A13023   5.825  26.036   8.555
 6349POPC   D2A13024   5.863  26.086   8.255
 6349POPC   C3A13025   5.916  25.993   7.955
 6349POPC   C4A13026   5.911  26.020   7.655
 6349POPC   C1B13027   5.743  25.889   8.555
 6349POPC   C2B13028   5.676  25.875   8.255
 6349POPC   C3B13029   5.693  25.821   7.955
 6349POPC   C4B13030   5.687  25.804   7.655
 6350POPC   NC313031  12.880  43.906   9.455
 6350POPC   PO413032  12.804  43.854   9.155
 6350POPC   GL113033  12.871  43.891   8.855
 6350POPC   GL213034  12.752  43.826   8.855
 6350POPC   C1A13035  12.884  43.843   8.555
 6350POPC   D2A13036  12.835  43.873   8.255
 6350POPC   C3A13037  12.808  43.864   7.955
 6350POPC   C4A13038  12.859  43.840   7.655
 6350POPC   C1B13039  12.583  43.731   8.555
 6350POPC   C2B13040  12.646  43.788   8.255
 6350POPC   C3B13041  12.598  43.788   7.955
 6350POPC   C4B13042  12.672  43.778   7.655
 6351POPC   NC313043   0.482   3.552   9.455
 6351POPC   PO413044   0.461   3.520   9.155
 6351POPC   GL113045   0.401   3.519   8.855
 6351POPC   GL213046   0.391   3.436   8.855
 6351POPC   C1A13047   0.488   3.576   8.555
 6351POPC   D2A13048   0.475   3.518   8.255
 6351POPC   C3A13049   0.444   3.574   7.955
 6351POPC   C4A13050   0.421   3.581   7.655
 6351POPC   C1B13051   0.243   3.389   8.555
 6351POPC   C2B13052   0.236   3.390   8.255
 6351POPC   C3B13053   0.251   3.389   7.955
 6351POPC   C4B13054   0.314   3.353   7.655
 6352POPC   NC313055  32.223  15.171   9.455
 6352POPC   PO413056  32.223  15.185   9.155
 6352POPC   GL113057  32.286  15.136   8.855
 6352POPC   GL213058  32.309  15.018   8.855
 6352POPC   C1A13059  32.203  15.188   8.555
 6352POPC   D2A13060  32.290  15.160   8.255
 6352POPC   C3A13061  32.222  15.224   7.955
 6352POPC   C4A13062  32.276  15.221   7.655
 6352POPC   C1B13063  32.350  14.990   8.555
 6352POPC   C2B13064  32.366  15.000   8.255
 6352POPC   C3B13065  32.350  14.914   7.955
 6352POPC   C4B13066  32.375  14.970   7.655
 6353POPC   NC313067   8.151  40.738   9.455
 6353POPC   PO413068   8.191  40.743   9.155
 6353POPC   GL113069   8.198  40.801   8.855
 6353POPC   GL213070   8.089  40.716   8.855
 6353POPC   C1A13071   8.230  40.807   8.555
 6353POPC   D2A13072   8.199  40.810   8.255
 6353POPC   C3A13073   8.191  40.747   7.955
 6353POPC   C4A13074   8.239  40.752   7.655
 6353POPC   C1B13075   7.946  40.735   8.555
 6353POPC   C2B13076   7.937  40.690   8.255
 6353POPC   C3B13077   7.914  40.683   7.955
 6353POPC   C4B13078   7.997  40.691   7.655
 6354POPC   NC313079  28.415   9.785   9.455
 6354POPC   PO413080  28.417   9.796   9.155
 6354POPC   GL113081  28.323   9.706   8.855
 6354POPC   GL213082  28.381   9.887   8.855
 6354POPC   C1A13083  28.340   9.733   8.555
 6354POPC   D2A13084  28.402   9.724   8.255
 6354POPC   C3A13085  28.409   9.739   7.955
 6354POPC   C4A13086  28.351   9.720   7.655
 6354POPC   C1B13087  28.420  10.024   8.555
 6354POPC   C2B13088  28.427  10.038   8.255
 6354POPC   C3B13089  28.444  10.012   7.955
 6354POPC   C4B13090  28.374  10.013   7.655
 6355POPC   NC313091   0.430  35.374   9.455
 6355POPC   PO413092   0.473  35.346   9.155
 6355POPC   GL113093   0.458  35.389   8.855
 6355POPC   GL213094   0.345  35.429   8.855
 6355POPC   C1A13095   0.455  35.395   8.555
 6355POPC   D2A13096   0.409  35.337   8.255
 6355POPC   C3A13097   0.437  35.316   7.955
 6355POPC   C4A13098   0.414  35.368   7.655
 6355POPC   C1B13099   0.292  35.537   8.555
 6355POPC   C2B13100   0.306  35.527   8.255
 6355POPC   C3B13101   0.302  35.545   7.955
 6355POPC   C4B13102   0.296  35.568   7.655
 6356POPC   NC313103  44.665  12.840   9.455
 6356POPC   PO413104  44.657  12.863   9.155
 6356POPC   GL113105  44.695  12.836   8.855
 6356POPC   GL213106  44.570  12.778   8.855
 6356POPC   C1A13107  44.618  12.851   8.555
 6356POPC   D2A13108  44.675  12.816   8.255
 6356POPC   C3A13109  44.622  12.833   7.955
 6356POPC   C4A13110  44.682  12.865   7.655
 6356POPC   C1B13111  44.452  12.716   8.555
 6356POPC   C2B13112  44.426  12.715   8.255
 6356POPC   C3B13113  44.470  12.761   7.955
 6356POPC   C4B13114  44.494  12.702   7.655
 6357POPC   NC313115  20.573  28.321   9.455
 6357POPC   PO413116  20.619  28.361   9.155
 6357POPC   GL113117  20.657  28.400   8.855
 6357POPC   GL213118  20.532  28.326   8.855
 6357POPC   C1A13119  20.623  28.324   8.555
 6357POPC   D2A13120  20.600  28.414   8.255
 6357POPC   C3A13121  20.574  28.355   7.955
 6357POPC   C4A13122  20.564  28.363   7.655
 6357POPC   C1B13123  20.400  28.374   8.555
 6357POPC   C2B13124  20.381  28.392   8.255
 6357POPC   C3B13125  20.347  28.347   7.955
 6357POPC   C4B13126  20.374  28.424   7.655
 6358POPC   NC313127  20.652  38.449   9.455
 6358POPC   PO413128  20.656  38.412   9.155
 6358POPC   GL113129  20.591  38.481   8.855
 6358POPC   GL213130  20.452  38.434   8.855
 6358POPC   C1A13131  20.641  38.446   8.555
 6358POPC   D2A13132  20.572  38.492   8.255
 6358POPC   C3A13133  20.565  38.481   7.955
 6358POPC   C4A13134  20.620  38.427   7.655
 6358POPC   C1B13135  20.372  38.361   8.555
 6358POPC   C2B13136  20.376  38.327   8.255
 6358POPC   C3B13137  20.395  38.412   7.955
 6358POPC   C4B13138  20.337  38.399   7.655
 6359POPC   NC313139  14.393   5.903   9.455
 6359POPC   PO413140  14.408   5.907   9.155
 6359POPC   GL113141  14.384   5.893   8.855
 6359POPC   GL213142  14.459   5.948   8.855
 6359POPC   C1A13143  14.412   5.853   8.555
 6359POPC   D2A13144  14.407   5.906   8.255
 6359POPC   C3A13145  14.421   5.863   7.955
 6359POPC   C4A13146  14.387   5.916   7.655
 6359POPC   C1B13147  14.505   6.130   8.555
 6359POPC   C2B13148  14.508   6.109   8.255
 6359POPC   C3B13149  14.488   6.072   7.955
 6359POPC   C4B13150  14.482   6.115   7.655
 6360POPC   NC313151   1.194  10.519   9.455
 6360POPC   PO413152   1.220  10.538   9.155
 6360POPC   GL113153   1.238  10.512   8.855
 6360POPC   GL213154   1.075  10.535   8.855
 6360POPC   C1A13155   1.258  10.503   8.555
 6360POPC   D2A13156   1.168  10.526   8.255
 6360POPC   C3A13157   1.191  10.512   7.955
 6360POPC   C4A13158   1.235  10.486   7.655
 6360POPC   C1B13159   0.928  10.584   8.555
 6360POPC   C2B13160   1.002  10.585   8.255
 6360POPC   C3B13161   1.012  10.509   7.955
 6360POPC   C4B13162   0.930  10.538   7.655
 6361POPC   NC313163  24.523  20.603   9.455
 6361POPC   PO413164  24.485  20.609   9.155
 6361POPC   GL113165  24.440  20.657   8.855
 6361POPC   GL213166  24.460  20.502   8.855
 6361POPC   C1A13167  24.450  20.597   8.555
 6361POPC   D2A13168  24.538  20.637   8.255
 6361POPC   C3A13169  24.495  20.616   7.955
 6361POPC   C4A13170  24.484  20.637   7.655
 6361POPC   C1B13171  24.495  20.379   8.555
 6361POPC   C2B13172  24.506  20.359   8.255
 6361POPC   C3B13173  24.560  20.401   7.955
 6361POPC   C4B13174  24.481  20.312   7.655
 6362POPC   NC313175  33.002  39.195   9.455
 6362POPC   PO413176  33.013  39.219   9.155
 6362POPC   GL113177  33.059  39.218   8.855
 6362POPC   GL213178  33.157  39.319   8.855
 6362POPC   C1A13179  33.035  39.273   8.555
 6362POPC   D2A13180  33.030  39.237   8.255
 6362POPC   C3A13181  33.042  39.265   7.955
 6362POPC   C4A13182  33.073  39.255   7.655
 6362POPC   C1B13183  33.223  39.346   8.555
 6362POPC   C2B13184  33.243  39.352   8.255
 6362POPC   C3B13185  33.269  39.313   7.955
 6362POPC   C4B13186  33.299  39.373   7.655
 6363POPC   NC313187  27.628  32.264   9.455
 6363POPC   PO413188  27.580  32.285   9.155
 6363POPC   GL113189  27.545  32.212   8.855
 6363POPC   GL213190  27.532  32.117   8.855
 6363POPC   C1A13191  27.577  32.226   8.555
 6363POPC   D2A13192  27.558  32.282   8.255
 6363POPC   C3A13193  27.615  32.239   7.955
 6363POPC   C4A13194  27.635  32.235   7.655
 6363POPC   C1B13195  27.458  32.090   8.555
 6363POPC   C2B13196  27.418  32.009   8.255
 6363POPC   C3B13197  27.392  32.041   7.955
 6363POPC   C4B13198  27.429  32.026   7.655
 6364POPC   NC313199  21.345  19.834   9.455
 6364POPC   PO413200  21.423  19.814   9.155
 6364POPC   GL113201  21.358  19.801   8.855
 6364POPC   GL213202  21.339  19.916   8.855
 6364POPC   C1A13203  21.370  19.830   8.555
 6364POPC   D2A13204  21.388  19.808   8.255
 6364POPC   C3A13205  21.412  19.841   7.955
 6364POPC   C4A13206  21.431  19.819   7.655
 6364POPC   C1B13207  21.172  19.977   8.555
 6364POPC   C2B13208  21.155  20.027   8.255
 6364POPC   C3B13209  21.219  19.989   7.955
 6364POPC   C4B13210  21.159  19.960   7.655
 6365POPC   NC313211  27.626   5.872   9.455
 6365POPC   PO413212  27.607   5.859   9.155
 6365POPC   GL113213  27.625   5.908   8.855
 6365POPC   GL213214  27.693   5.835   8.855
 6365POPC   C1A13215  27.553   5.902   8.555
 6365POPC   D2A13216  27.610   5.834   8.255
 6365POPC   C3A13217  27.630   5.822   7.955
 6365POPC   C4A13218  27.548   5.905   7.655
 6365POPC   C1B13219  27.819   5.676   8.555
 6365POPC   C2B13220  27.757   5.697   8.255
 6365POPC   C3B13221  27.798   5.680   7.955
 6365POPC   C4B13222  27.816   5.753   7.655
 6366POPC   NC313223  43.898  43.146   9.455
 6366POPC   PO413224  43.844  43.087   9.155
 6366POPC   GL113225  43.855  43.115   8.855
 6366POPC   GL213226  43.761  43.011   8.855
 6366POPC   C1A13227  43.897  43.123   8.555
 6366POPC   D2A13228  43.908  43.113   8.255
 6366POPC   C3A13229  43.847  43.117   7.955
 6366POPC   C4A13230  43.909  43.149   7.655
 6366POPC   C1B13231  43.654  42.984   8.555
 6366POPC   C2B13232  43.673  43.000   8.255
 6366POPC   C3B13233  43.696  42.971   7.955
 6366POPC   C4B13234  43.614  43.003   7.655
 6367POPC   NC313235  15.191  41.510   9.455
 6367POPC   PO413236  15.132  41.593   9.155
 6367POPC   GL113237  15.220  41.553   8.855
 6367POPC   GL213238  15.036  41.514   8.855
 6367POPC   C1A13239  15.222  41.512   8.555
 6367POPC   D2A13240  15.182  41.585   8.255
 6367POPC   C3A13241  15.190  41.520   7.955
 6367POPC   C4A13242  15.134  41.547   7.655
 6367POPC   C1B13243  14.964  41.582   8.555
 6367POPC   C2B13244  14.926  41.549   8.255
 6367POPC   C3B13245  14.933  41.560   7.955
 6367POPC   C4B13246  14.960  41.545   7.655
 6368POPC   NC313247   2.721  34.604   9.455
 6368POPC   PO413248   2.785  34.556   9.155
 6368POPC   GL113249   2.716  34.604   8.855
 6368POPC   GL213250   2.664  34.623   8.855
 6368POPC   C1A13251   2.735  34.624   8.555
 6368POPC   D2A13252   2.779  34.546   8.255
 6368POPC   C3A13253   2.769  34.552   7.955
 6368POPC   C4A13254   2.814  34.557   7.655
 6368POPC   C1B13255   2.561  34.662   8.555
 6368POPC   C2B13256   2.505  34.627   8.255
 6368POPC   C3B13257   2.537  34.650   7.955
 6368POPC   C4B13258   2.507  34.671   7.655
 6369POPC   NC313259  18.262   4.327   9.455
 6369POPC   PO413260  18.265   4.350   9.155
 6369POPC   GL113261  18.265   4.352   8.855
 6369POPC   GL213262  18.406   4.280   8.855
 6369POPC   C1A13263  18.252   4.270   8.555
 6369POPC   D2A13264  18.307   4.271   8.255
 6369POPC   C3A13265  18.236   4.297   7.955
 6369POPC   C4A13266  18.273   4.281   7.655
 6369POPC   C1B13267  18.491   4.258   8.555
 6369POPC   C2B13268  18.492   4.335   8.255
 6369POPC   C3B13269  18.572   4.284   7.955
 6369POPC   C4B13270  18.542   4.295   7.655
 6370POPC   NC313271  13.601  37.654   9.455
 6370POPC   PO413272  13.663  37.712   9.155
 6370POPC   GL113273  13.620  37.677   8.855
 6370POPC   GL213274  13.646  37.525   8.855
 6370POPC   C1A13275  13.631  37.672   8.555
 6370POPC   D2A13276  13.642  37.633   8.255
 6370POPC   C3A13277  13.602  37.636   7.955
 6370POPC   C4A13278  13.624  37.686   7.655
 6370POPC   C1B13279  13.679  37.449   8.555
 6370POPC   C2B13280  13.638  37.405   8.255
 6370POPC   C3B13281  13.670  37.387   7.955
 6370POPC   C4B13282  13.628  37.395   7.655
 6371POPC   NC313283  29.100   5.861   9.455
 6371POPC   PO413284  29.190   5.913   9.155
 6371POPC   GL113285  29.134   5.856   8.855
 6371POPC   GL213286  29.051   5.842   8.855
 6371POPC   C1A13287  29.187   5.892   8.555
 6371POPC   D2A13288  29.170   5.913   8.255
 6371POPC   C3A13289  29.152   5.888   7.955
 6371POPC   C4A13290  29.157   5.846   7.655
 6371POPC   C1B13291  28.915   5.774   8.555
 6371POPC   C2B13292  28.952   5.716   8.255
 6371POPC   C3B13293  28.928   5.724   7.955
 6371POPC   C4B13294  28.914   5.771   7.655
 6372POPC   NC313295  19.093  13.661   9.455
 6372POPC   PO413296  19.087  13.655   9.155
 6372POPC   GL113297  19.087  13.613   8.855
 6372POPC   GL213298  19.021  13.764   8.855
 6372POPC   C1A13299  19.020  13.648   8.555
 6372POPC   D2A13300  19.059  13.629   8.255
 6372POPC   C3A13301  19.100  13.598   7.955
 6372POPC   C4A13302  19.086  13.609   7.655
 6372POPC   C1B13303  18.903  13.795   8.555
 6372POPC   C2B13304  18.855  13.855   8.255
 6372POPC   C3B13305  18.936  13.792   7.955
 6372POPC   C4B13306  18.898  13.816   7.655
 6373POPC   NC313307  22.920  28.323   9.455
 6373POPC   PO413308  22.942  28.398   9.155
 6373POPC   GL113309  22.913  28.320   8.855
 6373POPC   GL213310  22.896  28.487   8.855
 6373POPC   C1A13311  22.977  28.406   8.555
 6373POPC   D2A13312  22.934  28.395   8.255
 6373POPC   C3A13313  22.916  28.393   7.955
 6373POPC   C4A13314  22.975  28.367   7.655
 6373POPC   C1B13315  22.957  28.579   8.555
 6373POPC   C2B13316  22.910  28.591   8.255
 6373POPC   C3B13317  22.968  28.575   7.955
 6373POPC   C4B13318  22.898  28.614   7.655
 6374POPC   NC313319   8.935  22.979   9.455
 6374POPC   PO413320   8.999  22.911   9.155
 6374POPC   GL113321   8.926  22.928   8.855
 6374POPC   GL213322   8.891  23.035   8.855
 6374POPC   C1A13323   8.994  22.959   8.555
 6374POPC   D2A13324   8.938  22.903   8.255
 6374POPC   C3A13325   8.935  22.906   7.955
 6374POPC   C4A13326   8.960  22.964   7.655
 6374POPC   C1B13327   8.804  23.156   8.555
 6374POPC   C2B13328   8.788  23.159   8.255
 6374POPC   C3B13329   8.791  23.170   7.955
 6374POPC   C4B13330   8.764  23.095   7.655
 6375POPC   NC313331  14.438  11.250   9.455
 6375POPC   PO413332  14.419  11.295   9.155
 6375POPC   GL113333  14.416  11.336   8.855
 6375POPC   GL213334  14.470  11.264   8.855
 6375POPC   C1A13335  14.378  11.337   8.555
 6375POPC   D2A13336  14.449  11.275   8.255
 6375POPC   C3A13337  14.423  11.299   7.955
 6375POPC   C4A13338  14.421  11.332   7.655
 6375POPC   C1B13339  14.666  11.134   8.555
 6375POPC   C2B13340  14.615  11.144   8.255
 6375POPC   C3B13341  14.601  11.135   7.955
 6375POPC   C4B13342  14.650  11.210   7.655
 6376POPC   NC313343  41.589  39.984   9.455
 6376POPC   PO413344  41.593  40.000   9.155
 6376POPC   GL113345  41.570  39.967   8.855
 6376POPC   GL213346  41.693  40.108   8.855
 6376POPC   C1A13347  41.513  40.041   8.555
 6376POPC   D2A13348  41.560  39.973   8.255
 6376POPC   C3A13349  41.589  40.002   7.955
 6376POPC   C4A13350  41.600  39.986   7.655
 6376POPC   C1B13351  41.739  40.162   8.555
 6376POPC   C2B13352  41.775  40.217   8.255
 6376POPC   C3B13353  41.760  40.141   7.955
 6376POPC   C4B13354  41.752  40.135   7.655
 6377POPC   NC313355   8.930  37.686   9.455
 6377POPC   PO413356   9.016  37.720   9.155
 6377POPC   GL113357   8.957  37.662   8.855
 6377POPC   GL213358   9.050  37.742   8.855
 6377POPC   C1A13359   8.961  37.684   8.555
 6377POPC   D2A13360   8.941  37.729   8.255
 6377POPC   C3A13361   8.989  37.692   7.955
 6377POPC   C4A13362   8.992  37.672   7.655
 6377POPC   C1B13363   9.154  37.796   8.555
 6377POPC   C2B13364   9.198  37.759   8.255
 6377POPC   C3B13365   9.138  37.805   7.955
 6377POPC   C4B13366   9.191  37.804   7.655
 6378POPC   NC313367  12.805   1.968   9.455
 6378POPC   PO413368  12.805   1.994   9.155
 6378POPC   GL113369  12.855   1.991   8.855
 6378POPC   GL213370  12.808   2.123   8.855
 6378POPC   C1A13371  12.857   1.962   8.555
 6378POPC   D2A13372  12.901   2.023   8.255
 6378POPC   C3A13373  12.804   1.985   7.955
 6378POPC   C4A13374  12.846   2.009   7.655
 6378POPC   C1B13375  12.826   2.262   8.555
 6378POPC   C2B13376  12.852   2.235   8.255
 6378POPC   C3B13377  12.881   2.215   7.955
 6378POPC   C4B13378  12.884   2.254   7.655
 6379POPC   NC313379  29.919  41.533   9.455
 6379POPC   PO413380  29.916  41.509   9.155
 6379POPC   GL113381  29.921  41.584   8.855
 6379POPC   GL213382  30.020  41.431   8.855
 6379POPC   C1A13383  29.888  41.552   8.555
 6379POPC   D2A13384  29.928  41.548   8.255
 6379POPC   C3A13385  29.934  41.587   7.955
 6379POPC   C4A13386  29.970  41.538   7.655
 6379POPC   C1B13387  30.005  41.307   8.555
 6379POPC   C2B13388  30.014  41.288   8.255
 6379POPC   C3B13389  30.064  41.292   7.955
 6379POPC   C4B13390  30.023  41.323   7.655
 6380POPC   NC313391   8.238  26.833   9.455
 6380POPC   PO413392   8.237  26.772   9.155
 6380POPC   GL113393   8.192  26.831   8.855
 6380POPC   GL213394   8.316  26.882   8.855
 6380POPC   C1A13395   8.175  26.850   8.555
 6380POPC   D2A13396   8.222  26.810   8.255
 6380POPC   C3A13397   8.227  26.822   7.955
 6380POPC   C4A13398   8.147  26.841   7.655
 6380POPC   C1B13399   8.330  27.052   8.555
 6380POPC   C2B13400   8.388  26.968   8.255
 6380POPC   C3B13401   8.374  26.966   7.955
 6380POPC   C4B13402   8.390  27.015   7.655
 6381POPC   NC313403  41.564  39.261   9.455
 6381POPC   PO413404  41.513  39.183   9.155
 6381POPC   GL113405  41.586  39.235   8.855
 6381POPC   GL213406  41.640  39.206   8.855
 6381POPC   C1A13407  41.604  39.263   8.555
 6381POPC   D2A13408  41.593  39.277   8.255
 6381POPC   C3A13409  41.511  39.259   7.955
 6381POPC   C4A13410  41.545  39.241   7.655
 6381POPC   C1B13411  41.732  39.094   8.555
 6381POPC   C2B13412  41.745  39.075   8.255
 6381POPC   C3B13413  41.807  39.098   7.955
 6381POPC   C4B13414  41.771  39.080   7.655
 6382POPC   NC313415  19.060  26.839   9.455
 6382POPC   PO413416  19.085  26.801   9.155
 6382POPC   GL113417  19.030  26.793   8.855
 6382POPC   GL213418  19.163  26.844   8.855
 6382POPC   C1A13419  19.106  26.827   8.555
 6382POPC   D2A13420  19.088  26.812   8.255
 6382POPC   C3A13421  19.067  26.804   7.955
 6382POPC   C4A13422  19.054  26.799   7.655
 6382POPC   C1B13423  19.264  26.846   8.555
 6382POPC   C2B13424  19.338  26.893   8.255
 6382POPC   C3B13425  19.264  26.864   7.955
 6382POPC   C4B13426  19.327  26.871   7.655
 6383POPC   NC313427  29.141  19.796   9.455
 6383POPC   PO413428  29.141  19.843   9.155
 6383POPC   GL113429  29.151  19.823   8.855
 6383POPC   GL213430  29.213  19.913   8.855
 6383POPC   C1A13431  29.095  19.785   8.555
 6383POPC   D2A13432  29.115  19.801   8.255
 6383POPC   C3A13433  29.132  19.835   7.955
 6383POPC   C4A13434  29.113  19.791   7.655
 6383POPC   C1B13435  29.352  19.978   8.555
 6383POPC   C2B13436  29.390  19.967   8.255
 6383POPC   C3B13437  29.395  19.987   7.955
 6383POPC   C4B13438  29.317  19.983   7.655
 6384POPC   NC313439  37.684  23.721   9.455
 6384POPC   PO413440  37.654  23.721   9.155
 6384POPC   GL113441  37.656  23.693   8.855
 6384POPC   GL213442  37.750  23.604   8.855
 6384POPC   C1A13443  37.723  23.754   8.555
 6384POPC   D2A13444  37.714  23.750   8.255
 6384POPC   C3A13445  37.725  23.704   7.955
 6384POPC   C4A13446  37.671  23.676   7.655
 6384POPC   C1B13447  37.812  23.465   8.555
 6384POPC   C2B13448  37.864  23.554   8.255
 6384POPC   C3B13449  37.857  23.493   7.955
 6384POPC   C4B13450  37.836  23.499   7.655
 6385POPC   NC313451  33.834  24.495   9.455
 6385POPC   PO413452  33.841  24.516   9.155
 6385POPC   GL113453  33.751  24.462   8.855
 6385POPC   GL213454  33.736  24.515   8.855
 6385POPC   C1A13455  33.764  24.528   8.555
 6385POPC   D2A13456  33.818  24.454   8.255
 6385POPC   C3A13457  33.824  24.529   7.955
 6385POPC   C4A13458  33.782  24.481   7.655
 6385POPC   C1B13459  33.544  24.641   8.555
 6385POPC   C2B13460  33.606  24.562   8.255
 6385POPC   C3B13461  33.540  24.572   7.955
 6385POPC   C4B13462  33.542  24.635   7.655
 6386POPC   NC313463   5.116   2.770   9.455
 6386POPC   PO413464   5.047   2.719   9.155
 6386POPC   GL113465   5.105   2.807   8.855
 6386POPC   GL213466   5.093   2.611   8.855
 6386POPC   C1A13467   5.125   2.801   8.555
 6386POPC   D2A13468   5.130   2.739   8.255
 6386POPC   C3A13469   5.137   2.728   7.955
 6386POPC   C4A13470   5.095   2.812   7.655
 6386POPC   C1B13471   5.000   2.539   8.555
 6386POPC   C2B13472   5.017   2.571   8.255
 6386POPC   C3B13473   5.058   2.574   7.955
 6386POPC   C4B13474   5.045   2.483   7.655
 6387POPC   NC313475   2.009   3.559   9.455
 6387POPC   PO413476   1.969   3.581   9.155
 6387POPC   GL113477   1.972   3.587   8.855
 6387POPC   GL213478   2.029   3.705   8.855
 6387POPC   C1A13479   1.955   3.560   8.555
 6387POPC   D2A13480   1.951   3.572   8.255
 6387POPC   C3A13481   1.994   3.553   7.955
 6387POPC   C4A13482   2.025   3.536   7.655
 6387POPC   C1B13483   1.961   3.747   8.555
 6387POPC   C2B13484   1.937   3.762   8.255
 6387POPC   C3B13485   1.938   3.830   7.955
 6387POPC   C4B13486   1.954   3.749   7.655
 6388POPC   NC313487  21.407   5.143   9.455
 6388POPC   PO413488  21.361   5.109   9.155
 6388POPC   GL113489  21.364   5.091   8.855
 6388POPC   GL213490  21.500   5.082   8.855
 6388POPC   C1A13491  21.355   5.075   8.555
 6388POPC   D2A13492  21.374   5.140   8.255
 6388POPC   C3A13493  21.373   5.070   7.955
 6388POPC   C4A13494  21.409   5.110   7.655
 6388POPC   C1B13495  21.651   5.140   8.555
 6388POPC   C2B13496  21.620   5.161   8.255
 6388POPC   C3B13497  21.596   5.119   7.955
 6388POPC   C4B13498  21.653   5.122   7.655
 6389POPC   NC313499  21.423  39.267   9.455
 6389POPC   PO413500  21.403  39.193   9.155
 6389POPC   GL113501  21.342  39.237   8.855
 6389POPC   GL213502  21.506  39.195   8.855
 6389POPC   C1A13503  21.345  39.195   8.555
 6389POPC   D2A13504  21.354  39.227   8.255
 6389POPC   C3A13505  21.370  39.279   7.955
 6389POPC   C4A13506  21.380  39.236   7.655
 6389POPC   C1B13507  21.574  39.094   8.555
 6389POPC   C2B13508  21.629  39.091   8.255
 6389POPC   C3B13509  21.543  39.072   7.955
 6389POPC   C4B13510  21.627  39.072   7.655
 6390POPC   NC313511  20.630   7.424   9.455
 6390POPC   PO413512  20.620   7.380   9.155
 6390POPC   GL113513  20.603   7.435   8.855
 6390POPC   GL213514  20.651   7.570   8.855
 6390POPC   C1A13515  20.625   7.439   8.555
 6390POPC   D2A13516  20.628   7.427   8.255
 6390POPC   C3A13517  20.603   7.398   7.955
 6390POPC   C4A13518  20.624   7.410   7.655
 6390POPC   C1B13519  20.732   7.642   8.555
 6390POPC   C2B13520  20.793   7.650   8.255
 6390POPC   C3B13521  20.740   7.644   7.955
 6390POPC   C4B13522  20.771   7.645   7.655
 6391POPC   NC313523  10.544  36.906   9.455
 6391POPC   PO413524  10.540  36.897   9.155
 6391POPC   GL113525  10.533  36.876   8.855
 6391POPC   GL213526  10.463  36.773   8.855
 6391POPC   C1A13527  10.508  36.918   8.555
 6391POPC   D2A13528  10.552  36.951   8.255
 6391POPC   C3A13529  10.526  36.950   7.955
 6391POPC   C4A13530  10.542  36.938   7.655
 6391POPC   C1B13531  10.532  36.658   8.555
 6391POPC   C2B13532  10.541  36.606   8.255
 6391POPC   C3B13533  10.447  36.610   7.955
 6391POPC   C4B13534  10.468  36.625   7.655
 6392POPC   NC313535  21.350  25.314   9.455
 6392POPC   PO413536  21.369  25.264   9.155
 6392POPC   GL113537  21.378  25.287   8.855
 6392POPC   GL213538  21.450  25.155   8.855
 6392POPC   C1A13539  21.354  25.237   8.555
 6392POPC   D2A13540  21.379  25.263   8.255
 6392POPC   C3A13541  21.343  25.238   7.955
 6392POPC   C4A13542  21.397  25.264   7.655
 6392POPC   C1B13543  21.473  24.979   8.555
 6392POPC   C2B13544  21.455  24.991   8.255
 6392POPC   C3B13545  21.436  25.051   7.955
 6392POPC   C4B13546  21.455  25.054   7.655
 6393POPC   NC313547   1.184  13.592   9.455
 6393POPC   PO413548   1.215  13.645   9.155
 6393POPC   GL113549   1.242  13.615   8.855
 6393POPC   GL213550   1.100  13.708   8.855
 6393POPC   C1A13551   1.203  13.663   8.555
 6393POPC   D2A13552   1.191  13.649   8.255
 6393POPC   C3A13553   1.224  13.632   7.955
 6393POPC   C4A13554   1.236  13.631   7.655
 6393POPC   C1B13555   1.003  13.741   8.555
 6393POPC   C2B13556   0.943  13.658   8.255
 6393POPC   C3B13557   1.013  13.671   7.955
 6393POPC   C4B13558   0.953  13.732   7.655
 6394POPC   NC313559   5.834  22.947   9.455
 6394POPC   PO413560   5.835  22.893   9.155
 6394POPC   GL113561   5.909  22.888   8.855
 6394POPC   GL213562   5.778  22.875   8.855
 6394POPC   C1A13563   5.880  22.952   8.555
 6394POPC   D2A13564   5.852  22.958   8.255
 6394POPC   C3A13565   5.899  22.984   7.955
 6394POPC   C4A13566   5.860  22.953   7.655
 6394POPC   C1B13567   5.586  22.821   8.555
 6394POPC   C2B13568   5.656  22.821   8.255
 6394POPC   C3B13569   5.608  22.824   7.955
 6394POPC   C4B13570   5.648  22.869   7.655
 6395POPC   NC313571  18.295  13.590   9.455
 6395POPC   PO413572  18.306  13.628   9.155
 6395POPC   GL113573  18.282  13.650   8.855
 6395POPC   GL213574  18.433  13.602   8.855
 6395POPC   C1A13575  18.285  13.625   8.555
 6395POPC   D2A13576  18.301  13.610   8.255
 6395POPC   C3A13577  18.247  13.600   7.955
 6395POPC   C4A13578  18.323  13.583   7.655
 6395POPC   C1B13579  18.545  13.560   8.555
 6395POPC   C2B13580  18.501  13.544   8.255
 6395POPC   C3B13581  18.502  13.485   7.955
 6395POPC   C4B13582  18.540  13.551   7.655
 6396POPC   NC313583  20.608  43.105   9.455
 6396POPC   PO413584  20.619  43.144   9.155
 6396POPC   GL113585  20.641  43.126   8.855
 6396POPC   GL213586  20.542  43.168   8.855
 6396POPC   C1A13587  20.610  43.069   8.555
 6396POPC   D2A13588  20.611  43.087   8.255
 6396POPC   C3A13589  20.577  43.153   7.955
 6396POPC   C4A13590  20.648  43.061   7.655
 6396POPC   C1B13591  20.400  43.243   8.555
 6396POPC   C2B13592  20.389  43.277   8.255
 6396POPC   C3B13593  20.414  43.233   7.955
 6396POPC   C4B13594  20.395  43.287   7.655
 6397POPC   NC313595  37.662  10.498   9.455
 6397POPC   PO413596  37.709  10.494   9.155
 6397POPC   GL113597  37.635  10.474   8.855
 6397POPC   GL213598  37.675  10.656   8.855
 6397POPC   C1A13599  37.669  10.559   8.555
 6397POPC   D2A13600  37.674  10.476   8.255
 6397POPC   C3A13601  37.715  10.565   7.955
 6397POPC   C4A13602  37.695  10.563   7.655
 6397POPC   C1B13603  37.744  10.732   8.555
 6397POPC   C2B13604  37.733  10.719   8.255
 6397POPC   C3B13605  37.760  10.797   7.955
 6397POPC   C4B13606  37.771  10.810   7.655
 6398POPC   NC313607  17.491  26.016   9.455
 6398POPC   PO413608  17.482  26.091   9.155
 6398POPC   GL113609  17.555  26.019   8.855
 6398POPC   GL213610  17.362  26.073   8.855
 6398POPC   C1A13611  17.518  26.025   8.555
 6398POPC   D2A13612  17.554  26.051   8.255
 6398POPC   C3A13613  17.523  26.037   7.955
 6398POPC   C4A13614  17.490  26.072   7.655
 6398POPC   C1B13615  17.259  25.963   8.555
 6398POPC   C2B13616  17.266  26.040   8.255
 6398POPC   C3B13617  17.285  25.978   7.955
 6398POPC   C4B13618  17.236  26.039   7.655
 6399POPC   NC313619  36.899  41.582   9.455
 6399POPC   PO413620  36.908  41.567   9.155
 6399POPC   GL113621  36.924  41.546   8.855
 6399POPC   GL213622  36.765  41.429   8.855
 6399POPC   C1A13623  36.860  41.542   8.555
 6399POPC   D2A13624  36.857  41.541   8.255
 6399POPC   C3A13625  36.880  41.608   7.955
 6399POPC   C4A13626  36.949  41.585   7.655
 6399POPC   C1B13627  36.748  41.419   8.555
 6399POPC   C2B13628  36.752  41.363   8.255
 6399POPC   C3B13629  36.743  41.416   7.955
 6399POPC   C4B13630  36.726  41.390   7.655
 6400POPC   NC313631  19.090  11.303   9.455
 6400POPC   PO413632  19.073  11.258   9.155
 6400POPC   GL113633  19.082  11.327   8.855
 6400POPC   GL213634  18.978  11.366   8.855
 6400POPC   C1A13635  19.100  11.306   8.555
 6400POPC   D2A13636  19.060  11.325   8.255
 6400POPC   C3A13637  19.054  11.335   7.955
 6400POPC   C4A13638  19.019  11.289   7.655
 6400POPC   C1B13639  18.914  11.448   8.555
 6400POPC   C2B13640  18.869  11.480   8.255
 6400POPC   C3B13641  18.930  11.478   7.955
 6400POPC   C4B13642  18.908  11.515   7.655
 6401POPC   NC313643   1.998  36.885   9.455
 6401POPC   PO413644   2.012  36.936   9.155
 6401POPC   GL113645   1.973  36.885   8.855
 6401POPC   GL213646   2.069  36.900   8.855
 6401POPC   C1A13647   2.036  36.923   8.555
 6401POPC   D2A13648   1.992  36.925   8.255
 6401POPC   C3A13649   1.960  36.939   7.955
 6401POPC   C4A13650   1.982  36.894   7.655
 6401POPC   C1B13651   2.208  36.858   8.555
 6401POPC   C2B13652   2.241  36.882   8.255
 6401POPC   C3B13653   2.239  36.854   7.955
 6401POPC   C4B13654   2.283  36.885   7.655
 6402POPC   NC313655   7.412  23.732   9.455
 6402POPC   PO413656   7.440  23.752   9.155
 6402POPC   GL113657   7.418  23.669   8.855
 6402POPC   GL213658   7.570  23.707   8.855
 6402POPC   C1A13659   7.416  23.750   8.555
 6402POPC   D2A13660   7.394  23.699   8.255
 6402POPC   C3A13661   7.465  23.759   7.955
 6402POPC   C4A13662   7.432  23.700   7.655
 6402POPC   C1B13663   7.649  23.703   8.555
 6402POPC   C2B13664   7.707  23.692   8.255
 6402POPC   C3B13665   7.616  23.678   7.955
 6402POPC   C4B13666   7.696  23.657   7.655
 6403POPC   NC313667  32.233   7.393   9.455
 6403POPC   PO413668  32.200   7.413   9.155
 6403POPC   GL113669  32.296   7.434   8.855
 6403POPC   GL213670  32.309   7.493   8.855
 6403POPC   C1A13671  32.210   7.470   8.555
 6403POPC   D2A13672  32.282   7.419   8.255
 6403POPC   C3A13673  32.199   7.423   7.955
 6403POPC   C4A13674  32.261   7.460   7.655
 6403POPC   C1B13675  32.483   7.592   8.555
 6403POPC   C2B13676  32.476   7.593   8.255
 6403POPC   C3B13677  32.483   7.614   7.955
 6403POPC   C4B13678  32.425   7.533   7.655
 6404POPC   NC313679  40.827   8.941   9.455
 6404POPC   PO413680  40.749   8.933   9.155
 6404POPC   GL113681  40.831   8.938   8.855
 6404POPC   GL213682  40.870   9.074   8.855
 6404POPC   C1A13683  40.779   8.924   8.555
 6404POPC   D2A13684  40.781   8.947   8.255
 6404POPC   C3A13685  40.768   9.013   7.955
 6404POPC   C4A13686  40.789   9.018   7.655
 6404POPC   C1B13687  41.016   9.096   8.555
 6404POPC   C2B13688  41.024   9.114   8.255
 6404POPC   C3B13689  41.033   9.156   7.955
 6404POPC   C4B13690  41.007   9.069   7.655
 6405POPC   NC313691  13.584  19.106   9.455
 6405POPC   PO413692  13.637  19.064   9.155
 6405POPC   GL113693  13.579  19.020   8.855
 6405POPC   GL213694  13.475  19.015   8.855
 6405POPC   C1A13695  13.638  19.040   8.555
 6405POPC   D2A13696  13.578  19.019   8.255
 6405POPC   C3A13697  13.607  19.046   7.955
 6405POPC   C4A13698  13.672  19.041   7.655
 6405POPC   C1B13699  13.397  19.069   8.555
 6405POPC   C2B13700  13.329  19.039   8.255
 6405POPC   C3B13701  13.364  19.015   7.955
 6405POPC   C4B13702  13.413  19.059   7.655
 6406POPC   NC313703  22.895  29.871   9.455
 6406POPC   PO413704  22.984  29.957   9.155
 6406POPC   GL113705  22.928  29.921   8.855
 6406POPC   GL213706  23.044  29.982   8.855
 6406POPC   C1A13707  22.957  29.943   8.555
 6406POPC   D2A13708  22.972  29.913   8.255
 6406POPC   C3A13709  22.909  29.951   7.955
 6406POPC   C4A13710  22.888  29.933   7.655
 6406POPC   C1B13711  23.020  30.130   8.555
 6406POPC   C2B13712  23.098  30.154   8.255
 6406POPC   C3B13713  23.048  30.089   7.955
 6406POPC   C4B13714  23.045  30.183   7.655
 6407POPC   NC313715  22.917  11.344   9.455
 6407POPC   PO413716  22.973  11.321   9.155
 6407POPC   GL113717  22.972  11.341   8.855
 6407POPC   GL213718  22.977  11.207   8.855
 6407POPC   C1A13719  22.950  11.329   8.555
 6407POPC   D2A13720  22.985  11.279   8.255
 6407POPC   C3A13721  22.899  11.306   7.955
 6407POPC   C4A13722  22.937  11.264   7.655
 6407POPC   C1B13723  23.057  11.078   8.555
 6407POPC   C2B13724  23.039  11.060   8.255
 6407POPC   C3B13725  23.041  11.083   7.955
 6407POPC   C4B13726  23.014  11.060   7.655
 6408POPC   NC313727  43.153  38.450   9.455
 6408POPC   PO413728  43.108  38.453   9.155
 6408POPC   GL113729  43.133  38.443   8.855
 6408POPC   GL213730  43.063  38.585   8.855
 6408POPC   C1A13731  43.131  38.419   8.555
 6408POPC   D2A13732  43.144  38.500   8.255
 6408POPC   C3A13733  43.091  38.469   7.955
 6408POPC   C4A13734  43.077  38.502   7.655
 6408POPC   C1B13735  42.957  38.696   8.555
 6408POPC   C2B13736  42.917  38.654   8.255
 6408POPC   C3B13737  42.984  38.690   7.955
 6408POPC   C4B13738  42.962  38.695   7.655
 6409POPC   NC313739   9.765   7.448   9.455
 6409POPC   PO413740   9.713   7.387   9.155
 6409POPC   GL113741   9.722   7.377   8.855
 6409POPC   GL213742   9.746   7.322   8.855
 6409POPC   C1A13743   9.793   7.396   8.555
 6409POPC   D2A13744   9.742   7.406   8.255
 6409POPC   C3A13745   9.740   7.432   7.955
 6409POPC   C4A13746   9.710   7.411   7.655
 6409POPC   C1B13747   9.751   7.162   8.555
 6409POPC   C2B13748   9.774   7.195   8.255
 6409POPC   C3B13749   9.827   7.212   7.955
 6409POPC   C4B13750   9.826   7.163   7.655
 6410POPC   NC313751  41.534  30.657   9.455
 6410POPC   PO413752  41.535  30.663   9.155
 6410POPC   GL113753  41.582  30.703   8.855
 6410POPC   GL213754  41.586  30.594   8.855
 6410POPC   C1A13755  41.514  30.722   8.555
 6410POPC   D2A13756  41.541  30.689   8.255
 6410POPC   C3A13757  41.512  30.712   7.955
 6410POPC   C4A13758  41.585  30.724   7.655
 6410POPC   C1B13759  41.601  30.463   8.555
 6410POPC   C2B13760  41.540  30.474   8.255
 6410POPC   C3B13761  41.609  30.405   7.955
 6410POPC   C4B13762  41.556  30.416   7.655
 6411POPC   NC313763   7.425  18.303   9.455
 6411POPC   PO413764   7.436  18.290   9.155
 6411POPC   GL113765   7.454  18.283   8.855
 6411POPC   GL213766   7.349  18.210   8.855
 6411POPC   C1A13767   7.400  18.291   8.555
 6411POPC   D2A13768   7.411  18.275   8.255
 6411POPC   C3A13769   7.460  18.292   7.955
 6411POPC   C4A13770   7.379  18.236   7.655
 6411POPC   C1B13771   7.189  18.167   8.555
 6411POPC   C2B13772   7.143  18.220   8.255
 6411POPC   C3B13773   7.213  18.178   7.955
 6411POPC   C4B13774   7.233  18.190   7.655
 6412POPC   NC313775   6.600  41.549   9.455
 6412POPC   PO413776   6.612  41.572   9.155
 6412POPC   GL113777   6.637  41.513   8.855
 6412POPC   GL213778   6.810  41.600   8.855
 6412POPC   C1A13779   6.662  41.604   8.555
 6412POPC   D2A13780   6.637  41.602   8.255
 6412POPC   C3A13781   6.639  41.573   7.955
 6412POPC   C4A13782   6.623  41.588   7.655
 6412POPC   C1B13783   6.867  41.664   8.555
 6412POPC   C2B13784   6.847  41.597   8.255
 6412POPC   C3B13785   6.862  41.651   7.955
 6412POPC   C4B13786   6.891  41.671   7.655
 6413POPC   NC313787   1.953  33.002   9.455
 6413POPC   PO413788   2.014  32.983   9.155
 6413POPC   GL113789   1.947  33.028   8.855
 6413POPC   GL213790   1.912  33.156   8.855
 6413POPC   C1A13791   1.960  33.026   8.555
 6413POPC   D2A13792   1.941  33.060   8.255
 6413POPC   C3A13793   1.986  33.015   7.955
 6413POPC   C4A13794   1.956  33.022   7.655
 6413POPC   C1B13795   1.836  33.293   8.555
 6413POPC   C2B13796   1.885  33.203   8.255
 6413POPC   C3B13797   1.824  33.220   7.955
 6413POPC   C4B13798   1.870  33.271   7.655
 6414POPC   NC313799  32.220  21.352   9.455
 6414POPC   PO413800  32.208  21.342   9.155
 6414POPC   GL113801  32.211  21.355   8.855
 6414POPC   GL213802  32.370  21.322   8.855
 6414POPC   C1A13803  32.276  21.411   8.555
 6414POPC   D2A13804  32.252  21.403   8.255
 6414POPC   C3A13805  32.249  21.367   7.955
 6414POPC   C4A13806  32.209  21.380   7.655
 6414POPC   C1B13807  32.449  21.248   8.555
 6414POPC   C2B13808  32.405  21.204   8.255
 6414POPC   C3B13809  32.481  21.276   7.955
 6414POPC   C4B13810  32.464  21.246   7.655
 6415POPC   NC313811   0.405  34.599   9.455
 6415POPC   PO413812   0.415  34.584   9.155
 6415POPC   GL113813   0.417  34.530   8.855
 6415POPC   GL213814   0.394  34.714   8.855
 6415POPC   C1A13815   0.421  34.553   8.555
 6415POPC   D2A13816   0.428  34.586   8.255
 6415POPC   C3A13817   0.458  34.550   7.955
 6415POPC   C4A13818   0.414  34.578   7.655
 6415POPC   C1B13819   0.380  34.852   8.555
 6415POPC   C2B13820   0.425  34.852   8.255
 6415POPC   C3B13821   0.418  34.864   7.955
 6415POPC   C4B13822   0.357  34.865   7.655
 6416POPC   NC313823  26.814  19.833   9.455
 6416POPC   PO413824  26.797  19.795   9.155
 6416POPC   GL113825  26.840  19.832   8.855
 6416POPC   GL213826  26.831  19.741   8.855
 6416POPC   C1A13827  26.856  19.846   8.555
 6416POPC   D2A13828  26.782  19.788   8.255
 6416POPC   C3A13829  26.790  19.821   7.955
 6416POPC   C4A13830  26.793  19.785   7.655
 6416POPC   C1B13831  26.895  19.611   8.555
 6416POPC   C2B13832  26.905  19.575   8.255
 6416POPC   C3B13833  26.825  19.615   7.955
 6416POPC   C4B13834  26.907  19.585   7.655
 6417POPC   NC313835  27.608  22.940   9.455
 6417POPC   PO413836  27.614  22.934   9.155
 6417POPC   GL113837  27.555  22.944   8.855
 6417POPC   GL213838  27.636  22.886   8.855
 6417POPC   C1A13839  27.548  22.945   8.555
 6417POPC   D2A13840  27.629  22.970   8.255
 6417POPC   C3A13841  27.587  22.925   7.955
 6417POPC   C4A13842  27.605  22.987   7.655
 6417POPC   C1B13843  27.792  22.763   8.555
 6417POPC   C2B13844  27.800  22.739   8.255
 6417POPC   C3B13845  27.743  22.753   7.955
 6417POPC   C4B13846  27.779  22.805   7.655
 6418POPC   NC313847  15.968   5.881   9.455
 6418POPC   PO413848  15.952   5.878   9.155
 6418POPC   GL113849  15.943   5.862   8.855
 6418POPC   GL213850  16.096   5.740   8.855
 6418POPC   C1A13851  15.986   5.860   8.555
 6418POPC   D2A13852  15.921   5.891   8.255
 6418POPC   C3A13853  15.979   5.870   7.955
 6418POPC   C4A13854  15.918   5.881   7.655
 6418POPC   C1B13855  16.131   5.722   8.555
 6418POPC   C2B13856  16.112   5.664   8.255
 6418POPC   C3B13857  16.118   5.668   7.955
 6418POPC   C4B13858  16.131   5.725   7.655
 6419POPC   NC313859  16.719  23.747   9.455
 6419POPC   PO413860  16.745  23.750   9.155
 6419POPC   GL113861  16.764  23.665   8.855
 6419POPC   GL213862  16.815  23.795   8.855
 6419POPC   C1A13863  16.701  23.740   8.555
 6419POPC   D2A13864  16.738  23.744   8.255
 6419POPC   C3A13865  16.717  23.680   7.955
 6419POPC   C4A13866  16.701  23.736   7.655
 6419POPC   C1B13867  16.880  23.847   8.555
 6419POPC   C2B13868  16.889  23.921   8.255
 6419POPC   C3B13869  16.924  23.919   7.955
 6419POPC   C4B13870  16.912  23.934   7.655
 6420POPC   NC313871   6.608   8.959   9.455
 6420POPC   PO413872   6.670   9.009   9.155
 6420POPC   GL113873   6.601   9.012   8.855
 6420POPC   GL213874   6.759   9.038   8.855
 6420POPC   C1A13875   6.596   8.969   8.555
 6420POPC   D2A13876   6.670   8.932   8.255
 6420POPC   C3A13877   6.631   8.984   7.955
 6420POPC   C4A13878   6.622   8.947   7.655
 6420POPC   C1B13879   6.821   9.067   8.555
 6420POPC   C2B13880   6.863   9.099   8.255
 6420POPC   C3B13881   6.881   9.091   7.955
 6420POPC   C4B13882   6.878   9.130   7.655
 6421POPC   NC313883  26.770   9.798   9.455
 6421POPC   PO413884  26.813   9.741   9.155
 6421POPC   GL113885  26.791   9.731   8.855
 6421POPC   GL213886  26.857   9.864   8.855
 6421POPC   C1A13887  26.784   9.794   8.555
 6421POPC   D2A13888  26.804   9.722   8.255
 6421POPC   C3A13889  26.780   9.793   7.955
 6421POPC   C4A13890  26.785   9.794   7.655
 6421POPC   C1B13891  27.042   9.916   8.555
 6421POPC   C2B13892  26.957   9.877   8.255
 6421POPC   C3B13893  26.943   9.891   7.955
 6421POPC   C4B13894  26.968   9.910   7.655
 6422POPC   NC313895  25.270  22.899   9.455
 6422POPC   PO413896  25.258  22.910   9.155
 6422POPC   GL113897  25.272  22.971   8.855
 6422POPC   GL213898  25.169  23.022   8.855
 6422POPC   C1A13899  25.306  22.928   8.555
 6422POPC   D2A13900  25.266  22.897   8.255
 6422POPC   C3A13901  25.239  22.941   7.955
 6422POPC   C4A13902  25.261  22.904   7.655
 6422POPC   C1B13903  25.054  23.113   8.555
 6422POPC   C2B13904  25.085  23.074   8.255
 6422POPC   C3B13905  25.081  23.056   7.955
 6422POPC   C4B13906  25.108  23.043   7.655
 6423POPC   NC313907  22.964  14.375   9.455
 6423POPC   PO413908  22.895  14.356   9.155
 6423POPC   GL113909  22.981  14.388   8.855
 6423POPC   GL213910  23.018  14.304   8.855
 6423POPC   C1A13911  22.986  14.357   8.555
 6423POPC   D2A13912  22.935  14.424   8.255
 6423POPC   C3A13913  22.983  14.402   7.955
 6423POPC   C4A13914  22.966  14.411   7.655
 6423POPC   C1B13915  22.993  14.133   8.555
 6423POPC   C2B13916  23.028  14.134   8.255
 6423POPC   C3B13917  22.983  14.117   7.955
 6423POPC   C4B13918  23.000  14.193   7.655
 6424POPC   NC313919  36.136   2.027   9.455
 6424POPC   PO413920  36.161   1.972   9.155
 6424POPC   GL113921  36.176   2.000   8.855
 6424POPC   GL213922  36.173   1.870   8.855
 6424POPC   C1A13923  36.169   2.027   8.555
 6424POPC   D2A13924  36.129   1.954   8.255
 6424POPC   C3A13925  36.139   2.007   7.955
 6424POPC   C4A13926  36.151   2.034   7.655
 6424POPC   C1B13927  36.290   1.754   8.555
 6424POPC   C2B13928  36.279   1.803   8.255
 6424POPC   C3B13929  36.303   1.826   7.955
 6424POPC   C4B13930  36.253   1.819   7.655
 6425POPC   NC313931  18.277  33.017   9.455
 6425POPC   PO413932  18.266  33.019   9.155
 6425POPC   GL113933  18.260  33.059   8.855
 6425POPC   GL213934  18.129  33.000   8.855
 6425POPC   C1A13935  18.245  33.057   8.555
 6425POPC   D2A13936  18.290  33.039   8.255
 6425POPC   C3A13937  18.248  32.979   7.955
 6425POPC   C4A13938  18.311  32.987   7.655
 6425POPC   C1B13939  18.080  32.968   8.555
 6425POPC   C2B13940  18.015  33.026   8.255
 6425POPC   C3B13941  18.008  32.966   7.955
 6425POPC   C4B13942  18.082  32.970   7.655
 6426POPC   NC313943  16.761   1.952   9.455
 6426POPC   PO413944  16.761   1.966   9.155
 6426POPC   GL113945  16.751   1.953   8.855
 6426POPC   GL213946  16.806   2.091   8.855
 6426POPC   C1A13947  16.694   2.006   8.555
 6426POPC   D2A13948  16.749   1.976   8.255
 6426POPC   C3A13949  16.728   1.952   7.955
 6426POPC   C4A13950  16.694   1.964   7.655
 6426POPC   C1B13951  16.834   2.188   8.555
 6426POPC   C2B13952  16.825   2.211   8.255
 6426POPC   C3B13953  16.771   2.275   7.955
 6426POPC   C4B13954  16.816   2.219   7.655
 6427POPC   NC313955  38.425  38.489   9.455
 6427POPC   PO413956  38.478  38.446   9.155
 6427POPC   GL113957  38.440  38.467   8.855
 6427POPC   GL213958  38.625  38.437   8.855
 6427POPC   C1A13959  38.465  38.485   8.555
 6427POPC   D2A13960  38.434  38.477   8.255
 6427POPC   C3A13961  38.455  38.434   7.955
 6427POPC   C4A13962  38.491  38.413   7.655
 6427POPC   C1B13963  38.666  38.441   8.555
 6427POPC   C2B13964  38.709  38.364   8.255
 6427POPC   C3B13965  38.702  38.399   7.955
 6427POPC   C4B13966  38.696  38.377   7.655
 6428POPC   NC313967  22.911  12.105   9.455
 6428POPC   PO413968  22.969  12.100   9.155
 6428POPC   GL113969  22.972  12.038   8.855
 6428POPC   GL213970  22.799  11.996   8.855
 6428POPC   C1A13971  22.908  12.046   8.555
 6428POPC   D2A13972  22.943  12.062   8.255
 6428POPC   C3A13973  22.968  12.112   7.955
 6428POPC   C4A13974  22.900  12.062   7.655
 6428POPC   C1B13975  22.781  11.870   8.555
 6428POPC   C2B13976  22.713  11.922   8.255
 6428POPC   C3B13977  22.729  11.874   7.955
 6428POPC   C4B13978  22.750  11.888   7.655
 6429POPC   NC313979  15.162   5.127   9.455
 6429POPC   PO413980  15.204   5.085   9.155
 6429POPC   GL113981  15.133   5.125   8.855
 6429POPC   GL213982  15.253   5.109   8.855
 6429POPC   C1A13983  15.221   5.046   8.555
 6429POPC   D2A13984  15.225   5.068   8.255
 6429POPC   C3A13985  15.207   5.123   7.955
 6429POPC   C4A13986  15.213   5.102   7.655
 6429POPC   C1B13987  15.451   5.170   8.555
 6429POPC   C2B13988  15.402   5.243   8.255
 6429POPC   C3B13989  15.422   5.230   7.955
 6429POPC   C4B13990  15.441   5.185   7.655
 6430POPC   NC313991  42.316  35.305   9.455
 6430POPC   PO413992  42.304  35.321   9.155
 6430POPC   GL113993  42.370  35.358   8.855
 6430POPC   GL213994  42.265  35.482   8.855
 6430POPC   C1A13995  42.324  35.339   8.555
 6430POPC   D2A13996  42.326  35.345   8.255
 6430POPC   C3A13997  42.360  35.330   7.955
 6430POPC   C4A13998  42.304  35.380   7.655
 6430POPC   C1B13999  42.240  35.604   8.555
 6430POPC   C2B14000  42.230  35.586   8.255
 6430POPC   C3B14001  42.196  35.535   7.955
 6430POPC   C4B14002  42.235  35.548   7.655
 6431POPC   NC314003  11.279   4.296   9.455
 6431POPC   PO414004  11.324   4.297   9.155
 6431POPC   GL114005  11.299   4.355   8.855
 6431POPC   GL214006  11.368   4.386   8.855
 6431POPC   C1A14007  11.332   4.288   8.555
 6431POPC   D2A14008  11.269   4.278   8.255
 6431POPC   C3A14009  11.317   4.290   7.955
 6431POPC   C4A14010  11.342   4.343   7.655
 6431POPC   C1B14011  11.487   4.422   8.555
 6431POPC   C2B14012  11.542   4.418   8.255
 6431POPC   C3B14013  11.550   4.415   7.955
 6431POPC   C4B14014  11.553   4.474   7.655
 6432POPC   NC314015  12.068  43.064   9.455
 6432POPC   PO414016  12.056  43.101   9.155
 6432POPC   GL114017  12.032  43.115   8.855
 6432POPC   GL214018  12.161  43.201   8.855
 6432POPC   C1A14019  12.116  43.079   8.555
 6432POPC   D2A14020  12.059  43.067   8.255
 6432POPC   C3A14021  12.099  43.099   7.955
 6432POPC   C4A14022  12.048  43.081   7.655
 6432POPC   C1B14023  12.282  43.173   8.555
 6432POPC   C2B14024  12.299  43.192   8.255
 6432POPC   C3B14025  12.266  43.190   7.955
 6432POPC   C4B14026  12.278  43.196   7.655
 6433POPC   NC314027  20.594  19.082   9.455
 6433POPC   PO414028  20.636  19.094   9.155
 6433POPC   GL114029  20.576  19.093   8.855
 6433POPC   GL214030  20.575  19.168   8.855
 6433POPC   C1A14031  20.618  19.073   8.555
 6433POPC   D2A14032  20.575  19.047   8.255
 6433POPC   C3A14033  20.569  19.105   7.955
 6433POPC   C4A14034  20.592  19.035   7.655
 6433POPC   C1B14035  20.417  19.262   8.555
 6433POPC   C2B14036  20.470  19.222   8.255
 6433POPC   C3B14037  20.508  19.308   7.955
 6433POPC   C4B14038  20.431  19.303   7.655
 6434POPC   NC314039  43.120   1.200   9.455
 6434POPC   PO414040  43.129   1.223   9.155
 6434POPC   GL114041  43.103   1.203   8.855
 6434POPC   GL214042  43.220   1.255   8.855
 6434POPC   C1A14043  43.143   1.215   8.555
 6434POPC   D2A14044  43.092   1.170   8.255
 6434POPC   C3A14045  43.152   1.260   7.955
 6434POPC   C4A14046  43.099   1.232   7.655
 6434POPC   C1B14047  43.359   1.331   8.555
 6434POPC   C2B14048  43.304   1.335   8.255
 6434POPC   C3B14049  43.339   1.250   7.955
 6434POPC   C4B14050  43.383   1.332   7.655
 6435POPC   NC314051  25.253   7.374   9.455
 6435POPC   PO414052  25.256   7.435   9.155
 6435POPC   GL114053  25.217   7.373   8.855
 6435POPC   GL214054  25.133   7.399   8.855
 6435POPC   C1A14055  25.258   7.451   8.555
 6435POPC   D2A14056  25.233   7.457   8.255
 6435POPC   C3A14057  25.226   7.455   7.955
 6435POPC   C4A14058  25.262   7.386   7.655
 6435POPC   C1B14059  25.011   7.324   8.555
 6435POPC   C2B14060  25.059   7.391   8.255
 6435POPC   C3B14061  25.048   7.374   7.955
 6435POPC   C4B14062  25.068   7.393   7.655
 6436POPC   NC314063  19.799  15.931   9.455
 6436POPC   PO414064  19.803  15.985   9.155
 6436POPC   GL114065  19.787  15.986   8.855
 6436POPC   GL214066  19.968  16.048   8.855
 6436POPC   C1A14067  19.845  15.907   8.555
 6436POPC   D2A14068  19.785  15.959   8.255
 6436POPC   C3A14069  19.855  15.997   7.955
 6436POPC   C4A14070  19.870  15.955   7.655
 6436POPC   C1B14071  20.044  16.028   8.555
 6436POPC   C2B14072  20.093  16.015   8.255
 6436POPC   C3B14073  20.053  16.041   7.955
 6436POPC   C4B14074  20.074  16.054   7.655
 6437POPC   NC314075  38.478  44.668   9.455
 6437POPC   PO414076  38.490  44.694   9.155
 6437POPC   GL114077  38.434  44.670   8.855
 6437POPC   GL214078  38.384  44.547   8.855
 6437POPC   C1A14079  38.420  44.677   8.555
 6437POPC   D2A14080  38.490  44.666   8.255
 6437POPC   C3A14081  38.491  44.650   7.955
 6437POPC   C4A14082  38.420  44.697   7.655
 6437POPC   C1B14083  38.276  44.482   8.555
 6437POPC   C2B14084  38.294  44.515   8.255
 6437POPC   C3B14085  38.261  44.509   7.955
 6437POPC   C4B14086  38.260  44.459   7.655
 6438POPC   NC314087  22.185  43.081   9.455
 6438POPC   PO414088  22.201  43.158   9.155
 6438POPC   GL114089  22.181  43.128   8.855
 6438POPC   GL214090  22.133  42.976   8.855
 6438POPC   C1A14091  22.161  43.086   8.555
 6438POPC   D2A14092  22.201  43.144   8.255
 6438POPC   C3A14093  22.197  43.105   7.955
 6438POPC   C4A14094  22.180  43.081   7.655
 6438POPC   C1B14095  22.039  42.863   8.555
 6438POPC   C2B14096  22.076  42.863   8.255
 6438POPC   C3B14097  22.058  42.868   7.955
 6438POPC   C4B14098  22.029  42.927   7.655
 6439POPC   NC314099  16.709  10.478   9.455
 6439POPC   PO414100  16.747  10.505   9.155
 6439POPC   GL114101  16.744  10.486   8.855
 6439POPC   GL214102  16.860  10.513   8.855
 6439POPC   C1A14103  16.697  10.522   8.555
 6439POPC   D2A14104  16.687  10.553   8.255
 6439POPC   C3A14105  16.766  10.553   7.955
 6439POPC   C4A14106  16.730  10.484   7.655
 6439POPC   C1B14107  16.954  10.446   8.555
 6439POPC   C2B14108  16.915  10.363   8.255
 6439POPC   C3B14109  16.919  10.402   7.955
 6439POPC   C4B14110  16.971  10.455   7.655
 6440POPC   NC314111   5.902  32.213   9.455
 6440POPC   PO414112   5.833  32.277   9.155
 6440POPC   GL114113   5.917  32.261   8.855
 6440POPC   GL214114   5.814  32.286   8.855
 6440POPC   C1A14115   5.900  32.258   8.555
 6440POPC   D2A14116   5.850  32.213   8.255
 6440POPC   C3A14117   5.851  32.274   7.955
 6440POPC   C4A14118   5.844  32.274   7.655
 6440POPC   C1B14119   5.705  32.435   8.555
 6440POPC   C2B14120   5.681  32.373   8.255
 6440POPC   C3B14121   5.664  32.389   7.955
 6440POPC   C4B14122   5.693  32.355   7.655
 6441POPC   NC314123  24.450  24.525   9.455
 6441POPC   PO414124  24.469  24.525   9.155
 6441POPC   GL114125  24.517  24.446   8.855
 6441POPC   GL214126  24.338  24.544   8.855
 6441POPC   C1A14127  24.490  24.460   8.555
 6441POPC   D2A14128  24.480  24.444   8.255
 6441POPC   C3A14129  24.537  24.448   7.955
 6441POPC   C4A14130  24.450  24.522   7.655
 6441POPC   C1B14131  24.256  24.534   8.555
 6441POPC   C2B14132  24.222  24.581   8.255
 6441POPC   C3B14133  24.256  24.503   7.955
 6441POPC   C4B14134  24.233  24.581   7.655
 6442POPC   NC314135  27.581  21.419   9.455
 6442POPC   PO414136  27.563  21.343   9.155
 6442POPC   GL114137  27.595  21.371   8.855
 6442POPC   GL214138  27.635  21.552   8.855
 6442POPC   C1A14139  27.635  21.428   8.555
 6442POPC   D2A14140  27.571  21.363   8.255
 6442POPC   C3A14141  27.582  21.427   7.955
 6442POPC   C4A14142  27.566  21.346   7.655
 6442POPC   C1B14143  27.651  21.626   8.555
 6442POPC   C2B14144  27.581  21.631   8.255
 6442POPC   C3B14145  27.574  21.615   7.955
 6442POPC   C4B14146  27.571  21.663   7.655
 6443POPC   NC314147   0.451  14.362   9.455
 6443POPC   PO414148   0.390  14.415   9.155
 6443POPC   GL114149   0.460  14.364   8.855
 6443POPC   GL214150   0.436  14.261   8.855
 6443POPC   C1A14151   0.407  14.378   8.555
 6443POPC   D2A14152   0.430  14.434   8.255
 6443POPC   C3A14153   0.452  14.397   7.955
 6443POPC   C4A14154   0.388  14.449   7.655
 6443POPC   C1B14155   0.429  14.164   8.555
 6443POPC   C2B14156   0.412  14.167   8.255
 6443POPC   C3B14157   0.368  14.160   7.955
 6443POPC   C4B14158   0.335  14.161   7.655
 6444POPC   NC314159  14.380  26.798   9.455
 6444POPC   PO414160  14.369  26.846   9.155
 6444POPC   GL114161  14.441  26.806   8.855
 6444POPC   GL214162  14.480  26.677   8.855
 6444POPC   C1A14163  14.400  26.796   8.555
 6444POPC   D2A14164  14.423  26.849   8.255
 6444POPC   C3A14165  14.426  26.847   7.955
 6444POPC   C4A14166  14.383  26.863   7.655
 6444POPC   C1B14167  14.502  26.555   8.555
 6444POPC   C2B14168  14.496  26.589   8.255
 6444POPC   C3B14169  14.550  26.546   7.955
 6444POPC   C4B14170  14.493  26.594   7.655
 6445POPC   NC314171  22.157   9.778   9.455
 6445POPC   PO414172  22.185   9.707   9.155
 6445POPC   GL114173  22.131   9.701   8.855
 6445POPC   GL214174  22.054   9.827   8.855
 6445POPC   C1A14175  22.186   9.754   8.555
 6445POPC   D2A14176  22.116   9.708   8.255
 6445POPC   C3A14177  22.162   9.767   7.955
 6445POPC   C4A14178  22.137   9.700   7.655
 6445POPC   C1B14179  21.959   9.903   8.555
 6445POPC   C2B14180  21.955   9.907   8.255
 6445POPC   C3B14181  21.917   9.939   7.955
 6445POPC   C4B14182  22.001   9.919   7.655
 6446POPC   NC314183  18.241  43.876   9.455
 6446POPC   PO414184  18.239  43.901   9.155
 6446POPC   GL114185  18.328  43.883   8.855
 6446POPC   GL214186  18.161  43.879   8.855
 6446POPC   C1A14187  18.235  43.923   8.555
 6446POPC   D2A14188  18.265  43.853   8.255
 6446POPC   C3A14189  18.275  43.847   7.955
 6446POPC   C4A14190  18.279  43.873   7.655
 6446POPC   C1B14191  17.992  43.878   8.555
 6446POPC   C2B14192  18.029  43.900   8.255
 6446POPC   C3B14193  17.991  43.951   7.955
 6446POPC   C4B14194  17.998  43.874   7.655
 6447POPC   NC314195   5.117  40.026   9.455
 6447POPC   PO414196   5.070  40.054   9.155
 6447POPC   GL114197   5.070  39.981   8.855
 6447POPC   GL214198   5.153  39.872   8.855
 6447POPC   C1A14199   5.050  40.039   8.555
 6447POPC   D2A14200   5.137  39.998   8.255
 6447POPC   C3A14201   5.080  40.054   7.955
 6447POPC   C4A14202   5.076  39.979   7.655
 6447POPC   C1B14203   5.200  39.783   8.555
 6447POPC   C2B14204   5.235  39.838   8.255
 6447POPC   C3B14205   5.252  39.761   7.955
 6447POPC   C4B14206   5.184  39.795   7.655
 6448POPC   NC314207   0.466  10.564   9.455
 6448POPC   PO414208   0.480  10.493   9.155
 6448POPC   GL114209   0.415  10.549   8.855
 6448POPC   GL214210   0.495  10.656   8.855
 6448POPC   C1A14211   0.431  10.547   8.555
 6448POPC   D2A14212   0.487  10.476   8.255
 6448POPC   C3A14213   0.407  10.553   7.955
 6448POPC   C4A14214   0.457  10.501   7.655
 6448POPC   C1B14215   0.484  10.743   8.555
 6448POPC   C2B14216   0.486  10.753   8.255
 6448POPC   C3B14217   0.446  10.786   7.955
 6448POPC   C4B14218   0.443  10.820   7.655
 6449POPC   NC314219  36.951  39.265   9.455
 6449POPC   PO414220  36.904  39.279   9.155
 6449POPC   GL114221  36.911  39.267   8.855
 6449POPC   GL214222  36.774  39.243   8.855
 6449POPC   C1A14223  36.905  39.204   8.555
 6449POPC   D2A14224  36.864  39.202   8.255
 6449POPC   C3A14225  36.943  39.208   7.955
 6449POPC   C4A14226  36.888  39.223   7.655
 6449POPC   C1B14227  36.685  39.314   8.555
 6449POPC   C2B14228  36.688  39.335   8.255
 6449POPC   C3B14229  36.623  39.285   7.955
 6449POPC   C4B14230  36.700  39.258   7.655
 6450POPC   NC314231  12.843   5.893   9.455
 6450POPC   PO414232  12.897   5.891   9.155
 6450POPC   GL114233  12.867   5.837   8.855
 6450POPC   GL214234  12.808   5.794   8.855
 6450POPC   C1A14235  12.823   5.833   8.555
 6450POPC   D2A14236  12.892   5.849   8.255
 6450POPC   C3A14237  12.835   5.863   7.955
 6450POPC   C4A14238  12.840   5.831   7.655
 6450POPC   C1B14239  12.672   5.666   8.555
 6450POPC   C2B14240  12.637   5.673   8.255
 6450POPC   C3B14241  12.683   5.708   7.955
 6450POPC   C4B14242  12.657   5.692   7.655
 6451POPC   NC314243  32.235   9.723   9.455
 6451POPC   PO414244  32.211   9.705   9.155
 6451POPC   GL114245  32.274   9.733   8.855
 6451POPC   GL214246  32.312   9.637   8.855
 6451POPC   C1A14247  32.200   9.723   8.555
 6451POPC   D2A14248  32.239   9.735   8.255
 6451POPC   C3A14249  32.254   9.754   7.955
 6451POPC   C4A14250  32.207   9.726   7.655
 6451POPC   C1B14251  32.341   9.514   8.555
 6451POPC   C2B14252  32.305   9.537   8.255
 6451POPC   C3B14253  32.314   9.544   7.955
 6451POPC   C4B14254  32.327   9.471   7.655
 6452POPC   NC314255  36.168  16.745   9.455
 6452POPC   PO414256  36.135  16.777   9.155
 6452POPC   GL114257  36.101  16.704   8.855
 6452POPC   GL214258  36.212  16.845   8.855
 6452POPC   C1A14259  36.078  16.736   8.555
 6452POPC   D2A14260  36.133  16.760   8.255
 6452POPC   C3A14261  36.129  16.765   7.955
 6452POPC   C4A14262  36.150  16.776   7.655
 6452POPC   C1B14263  36.282  16.940   8.555
 6452POPC   C2B14264  36.284  16.899   8.255
 6452POPC   C3B14265  36.257  16.868   7.955
 6452POPC   C4B14266  36.286  16.862   7.655
 6453POPC   NC314267  21.407  17.492   9.455
 6453POPC   PO414268  21.372  17.485   9.155
 6453POPC   GL114269  21.367  17.549   8.855
 6453POPC   GL214270  21.294  17.508   8.855
 6453POPC   C1A14271  21.429  17.490   8.555
 6453POPC   D2A14272  21.356  17.539   8.255
 6453POPC   C3A14273  21.422  17.556   7.955
 6453POPC   C4A14274  21.344  17.490   7.655
 6453POPC   C1B14275  21.096  17.483   8.555
 6453POPC   C2B14276  21.145  17.411   8.255
 6453POPC   C3B14277  21.176  17.409   7.955
 6453POPC   C4B14278  21.172  17.438   7.655
 6454POPC   NC314279  42.376   5.918   9.455
 6454POPC   PO414280  42.354   5.839   9.155
 6454POPC   GL114281  42.347   5.905   8.855
 6454POPC   GL214282  42.246   5.790   8.855
 6454POPC   C1A14283  42.303   5.867   8.555
 6454POPC   D2A14284  42.315   5.832   8.255
 6454POPC   C3A14285  42.384   5.849   7.955
 6454POPC   C4A14286  42.308   5.898   7.655
 6454POPC   C1B14287  42.194   5.657   8.555
 6454POPC   C2B14288  42.175   5.663   8.255
 6454POPC   C3B14289  42.136   5.679   7.955
 6454POPC   C4B14290  42.215   5.670   7.655
 6455POPC   NC314291  13.635   8.241   9.455
 6455POPC   PO414292  13.642   8.163   9.155
 6455POPC   GL114293  13.640   8.162   8.855
 6455POPC   GL214294  13.607   8.362   8.855
 6455POPC   C1A14295  13.659   8.245   8.555
 6455POPC   D2A14296  13.588   8.149   8.255
 6455POPC   C3A14297  13.651   8.152   7.955
 6455POPC   C4A14298  13.643   8.169   7.655
 6455POPC   C1B14299  13.510   8.400   8.555
 6455POPC   C2B14300  13.552   8.392   8.255
 6455POPC   C3B14301  13.563   8.412   7.955
 6455POPC   C4B14302  13.557   8.465   7.655
 6456POPC   NC314303  24.485  18.321   9.455
 6456POPC   PO414304  24.497  18.274   9.155
 6456POPC   GL114305  24.450  18.259   8.855
 6456POPC   GL214306  24.336  18.294   8.855
 6456POPC   C1A14307  24.449  18.289   8.555
 6456POPC   D2A14308  24.495  18.236   8.255
 6456POPC   C3A14309  24.523  18.292   7.955
 6456POPC   C4A14310  24.494  18.276   7.655
 6456POPC   C1B14311  24.298  18.338   8.555
 6456POPC   C2B14312  24.219  18.358   8.255
 6456POPC   C3B14313  24.236  18.394   7.955
 6456POPC   C4B14314  24.261  18.356   7.655
 6457POPC   NC314315  36.928  24.446   9.455
 6457POPC   PO414316  36.913  24.539   9.155
 6457POPC   GL114317  36.907  24.473   8.855
 6457POPC   GL214318  36.931  24.340   8.855
 6457POPC   C1A14319  36.952  24.485   8.555
 6457POPC   D2A14320  36.940  24.445   8.255
 6457POPC   C3A14321  36.924  24.505   7.955
 6457POPC   C4A14322  36.903  24.456   7.655
 6457POPC   C1B14323  36.983  24.203   8.555
 6457POPC   C2B14324  37.006  24.212   8.255
 6457POPC   C3B14325  37.007  24.241   7.955
 6457POPC   C4B14326  37.002  24.204   7.655
 6458POPC   NC314327  18.285   7.384   9.455
 6458POPC   PO414328  18.257   7.428   9.155
 6458POPC   GL114329  18.241   7.381   8.855
 6458POPC   GL214330  18.388   7.559   8.855
 6458POPC   C1A14331  18.328   7.390   8.555
 6458POPC   D2A14332  18.283   7.428   8.255
 6458POPC   C3A14333  18.313   7.410   7.955
 6458POPC   C4A14334  18.280   7.440   7.655
 6458POPC   C1B14335  18.466   7.601   8.555
 6458POPC   C2B14336  18.403   7.643   8.255
 6458POPC   C3B14337  18.474   7.569   7.955
 6458POPC   C4B14338  18.472   7.621   7.655
 6459POPC   NC314339  33.798  31.510   9.455
 6459POPC   PO414340  33.765  31.463   9.155
 6459POPC   GL114341  33.815  31.428   8.855
 6459POPC   GL214342  33.927  31.539   8.855
 6459POPC   C1A14343  33.816  31.475   8.555
 6459POPC   D2A14344  33.828  31.444   8.255
 6459POPC   C3A14345  33.846  31.490   7.955
 6459POPC   C4A14346  33.772  31.466   7.655
 6459POPC   C1B14347  34.048  31.561   8.555
 6459POPC   C2B14348  33.995  31.616   8.255
 6459POPC   C3B14349  34.019  31.555   7.955
 6459POPC   C4B14350  34.003  31.572   7.655
 6460POPC   NC314351   4.321   7.461   9.455
 6460POPC   PO414352   4.340   7.392   9.155
 6460POPC   GL114353   4.340   7.462   8.855
 6460POPC   GL214354   4.213   7.320   8.855
 6460POPC   C1A14355   4.308   7.465   8.555
 6460POPC   D2A14356   4.278   7.400   8.255
 6460POPC   C3A14357   4.338   7.465   7.955
 6460POPC   C4A14358   4.341   7.371   7.655
 6460POPC   C1B14359   4.119   7.264   8.555
 6460POPC   C2B14360   4.160   7.222   8.255
 6460POPC   C3B14361   4.141   7.233   7.955
 6460POPC   C4B14362   4.134   7.275   7.655
 6461POPC   NC314363  21.358  12.899   9.455
 6461POPC   PO414364  21.435  12.814   9.155
 6461POPC   GL114365  21.386  12.856   8.855
 6461POPC   GL214366  21.407  12.773   8.855
 6461POPC   C1A14367  21.372  12.881   8.555
 6461POPC   D2A14368  21.417  12.807   8.255
 6461POPC   C3A14369  21.412  12.814   7.955
 6461POPC   C4A14370  21.421  12.806   7.655
 6461POPC   C1B14371  21.424  12.662   8.555
 6461POPC   C2B14372  21.471  12.586   8.255
 6461POPC   C3B14373  21.425  12.597   7.955
 6461POPC   C4B14374  21.499  12.598   7.655
 6462POPC   NC314375  42.369  28.414   9.455
 6462POPC   PO414376  42.358  28.365   9.155
 6462POPC   GL114377  42.382  28.320   8.855
 6462POPC   GL214378  42.182  28.393   8.855
 6462POPC   C1A14379  42.374  28.350   8.555
 6462POPC   D2A14380  42.340  28.415   8.255
 6462POPC   C3A14381  42.360  28.388   7.955
 6462POPC   C4A14382  42.316  28.358   7.655
 6462POPC   C1B14383  42.125  28.325   8.555
 6462POPC   C2B14384  42.049  28.395   8.255
 6462POPC   C3B14385  42.106  28.327   7.955
 6462POPC   C4B14386  42.097  28.391   7.655
 6463POPC   NC314387   5.091  32.238   9.455
 6463POPC   PO414388   5.093  32.274   9.155
 6463POPC   GL114389   5.047  32.289   8.855
 6463POPC   GL214390   5.055  32.157   8.855
 6463POPC   C1A14391   5.099  32.274   8.555
 6463POPC   D2A14392   5.132  32.239   8.255
 6463POPC   C3A14393   5.061  32.265   7.955
 6463POPC   C4A14394   5.142  32.296   7.655
 6463POPC   C1B14395   4.994  31.992   8.555
 6463POPC   C2B14396   4.962  32.026   8.255
 6463POPC   C3B14397   4.925  32.069   7.955
 6463POPC   C4B14398   4.992  32.044   7.655
 6464POPC   NC314399  33.004  31.465   9.455
 6464POPC   PO414400  33.063  31.478   9.155
 6464POPC   GL114401  33.054  31.507   8.855
 6464POPC   GL214402  33.004  31.640   8.855
 6464POPC   C1A14403  32.992  31.445   8.555
 6464POPC   D2A14404  33.011  31.486   8.255
 6464POPC   C3A14405  33.052  31.494   7.955
 6464POPC   C4A14406  33.066  31.501   7.655
 6464POPC   C1B14407  32.953  31.760   8.555
 6464POPC   C2B14408  32.950  31.668   8.255
 6464POPC   C3B14409  32.936  31.686   7.955
 6464POPC   C4B14410  32.968  31.716   7.655
 6465POPC   NC314411  24.509  38.407   9.455
 6465POPC   PO414412  24.466  38.475   9.155
 6465POPC   GL114413  24.485  38.481   8.855
 6465POPC   GL214414  24.542  38.344   8.855
 6465POPC   C1A14415  24.474  38.439   8.555
 6465POPC   D2A14416  24.488  38.432   8.255
 6465POPC   C3A14417  24.488  38.496   7.955
 6465POPC   C4A14418  24.515  38.407   7.655
 6465POPC   C1B14419  24.653  38.289   8.555
 6465POPC   C2B14420  24.625  38.224   8.255
 6465POPC   C3B14421  24.649  38.227   7.955
 6465POPC   C4B14422  24.626  38.205   7.655
 6466POPC   NC314423  29.872  18.245   9.455
 6466POPC   PO414424  29.875  18.302   9.155
 6466POPC   GL114425  29.900  18.315   8.855
 6466POPC   GL214426  30.057  18.290   8.855
 6466POPC   C1A14427  29.907  18.293   8.555
 6466POPC   D2A14428  29.969  18.238   8.255
 6466POPC   C3A14429  29.896  18.331   7.955
 6466POPC   C4A14430  29.954  18.314   7.655
 6466POPC   C1B14431  30.215  18.259   8.555
 6466POPC   C2B14432  30.180  18.288   8.255
 6466POPC   C3B14433  30.135  18.244   7.955
 6466POPC   C4B14434  30.192  18.243   7.655
 6467POPC   NC314435  18.287  26.016   9.455
 6467POPC   PO414436  18.276  26.018   9.155
 6467POPC   GL114437  18.282  26.058   8.855
 6467POPC   GL214438  18.398  26.097   8.855
 6467POPC   C1A14439  18.277  26.018   8.555
 6467POPC   D2A14440  18.284  26.026   8.255
 6467POPC   C3A14441  18.299  26.091   7.955
 6467POPC   C4A14442  18.274  26.006   7.655
 6467POPC   C1B14443  18.461  26.152   8.555
 6467POPC   C2B14444  18.497  26.191   8.255
 6467POPC   C3B14445  18.436  26.236   7.955
 6467POPC   C4B14446  18.454  26.183   7.655
 6468POPC   NC314447  15.959  15.210   9.455
 6468POPC   PO414448  15.971  15.182   9.155
 6468POPC   GL114449  15.967  15.157   8.855
 6468POPC   GL214450  16.049  15.200   8.855
 6468POPC   C1A14451  16.002  15.183   8.555
 6468POPC   D2A14452  15.928  15.135   8.255
 6468POPC   C3A14453  15.955  15.148   7.955
 6468POPC   C4A14454  15.910  15.184   7.655
 6468POPC   C1B14455  16.158  15.095   8.555
 6468POPC   C2B14456  16.193  15.173   8.255
 6468POPC   C3B14457  16.201  15.149   7.955
 6468POPC   C4B14458  16.237  15.119   7.655
 6469POPC   NC314459  41.556  40.780   9.455
 6469POPC   PO414460  41.523  40.778   9.155
 6469POPC   GL114461  41.597  40.791   8.855
 6469POPC   GL214462  41.625  40.647   8.855
 6469POPC   C1A14463  41.516  40.776   8.555
 6469POPC   D2A14464  41.554  40.762   8.255
 6469POPC   C3A14465  41.553  40.765   7.955
 6469POPC   C4A14466  41.572  40.740   7.655
 6469POPC   C1B14467  41.681  40.496   8.555
 6469POPC   C2B14468  41.586  40.593   8.255
 6469POPC   C3B14469  41.673  40.565   7.955
 6469POPC   C4B14470  41.603  40.500   7.655
 6470POPC   NC314471  11.312  19.847   9.455
 6470POPC   PO414472  11.273  19.814   9.155
 6470POPC   GL114473  11.299  19.874   8.855
 6470POPC   GL214474  11.165  19.884   8.855
 6470POPC   C1A14475  11.322  19.852   8.555
 6470POPC   D2A14476  11.344  19.790   8.255
 6470POPC   C3A14477  11.291  19.813   7.955
 6470POPC   C4A14478  11.293  19.871   7.655
 6470POPC   C1B14479  11.052  19.878   8.555
 6470POPC   C2B14480  11.054  19.874   8.255
 6470POPC   C3B14481  11.044  19.835   7.955
 6470POPC   C4B14482  11.058  19.851   7.655
 6471POPC   NC314483  31.432  33.031   9.455
 6471POPC   PO414484  31.446  32.975   9.155
 6471POPC   GL114485  31.498  33.034   8.855
 6471POPC   GL214486  31.489  33.122   8.855
 6471POPC   C1A14487  31.437  33.034   8.555
 6471POPC   D2A14488  31.485  32.983   8.255
 6471POPC   C3A14489  31.423  33.038   7.955
 6471POPC   C4A14490  31.497  33.041   7.655
 6471POPC   C1B14491  31.584  33.266   8.555
 6471POPC   C2B14492  31.562  33.278   8.255
 6471POPC   C3B14493  31.549  33.292   7.955
 6471POPC   C4B14494  31.550  33.228   7.655
 6472POPC   NC314495  40.785  43.838   9.455
 6472POPC   PO414496  40.754  43.873   9.155
 6472POPC   GL114497  40.830  43.928   8.855
 6472POPC   GL214498  40.951  43.863   8.855
 6472POPC   C1A14499  40.752  43.842   8.555
 6472POPC   D2A14500  40.747  43.852   8.255
 6472POPC   C3A14501  40.770  43.918   7.955
 6472POPC   C4A14502  40.810  43.865   7.655
 6472POPC   C1B14503  41.049  43.878   8.555
 6472POPC   C2B14504  41.042  43.845   8.255
 6472POPC   C3B14505  40.985  43.857   7.955
 6472POPC   C4B14506  41.074  43.852   7.655
 6473POPC   NC314507  27.548  34.529   9.455
 6473POPC   PO414508  27.566  34.561   9.155
 6473POPC   GL114509  27.548  34.570   8.855
 6473POPC   GL214510  27.500  34.425   8.855
 6473POPC   C1A14511  27.560  34.542   8.555
 6473POPC   D2A14512  27.590  34.552   8.255
 6473POPC   C3A14513  27.559  34.528   7.955
 6473POPC   C4A14514  27.584  34.543   7.655
 6473POPC   C1B14515  27.480  34.393   8.555
 6473POPC   C2B14516  27.460  34.386   8.255
 6473POPC   C3B14517  27.503  34.332   7.955
 6473POPC   C4B14518  27.491  34.319   7.655
 6474POPC   NC314519  17.510  27.623   9.455
 6474POPC   PO414520  17.522  27.623   9.155
 6474POPC   GL114521  17.505  27.623   8.855
 6474POPC   GL214522  17.555  27.723   8.855
 6474POPC   C1A14523  17.457  27.587   8.555
 6474POPC   D2A14524  17.513  27.554   8.255
 6474POPC   C3A14525  17.534  27.634   7.955
 6474POPC   C4A14526  17.511  27.619   7.655
 6474POPC   C1B14527  17.650  27.764   8.555
 6474POPC   C2B14528  17.660  27.743   8.255
 6474POPC   C3B14529  17.696  27.815   7.955
 6474POPC   C4B14530  17.643  27.752   7.655
 6475POPC   NC314531  16.766   5.830   9.455
 6475POPC   PO414532  16.709   5.918   9.155
 6475POPC   GL114533  16.776   5.846   8.855
 6475POPC   GL214534  16.772   6.011   8.855
 6475POPC   C1A14535  16.764   5.823   8.555
 6475POPC   D2A14536  16.747   5.845   8.255
 6475POPC   C3A14537  16.710   5.880   7.955
 6475POPC   C4A14538  16.730   5.847   7.655
 6475POPC   C1B14539  16.778   6.128   8.555
 6475POPC   C2B14540  16.778   6.067   8.255
 6475POPC   C3B14541  16.766   6.107   7.955
 6475POPC   C4B14542  16.796   6.085   7.655
 6476POPC   NC314543  31.451   0.480   9.455
 6476POPC   PO414544  31.433   0.460   9.155
 6476POPC   GL114545  31.460   0.390   8.855
 6476POPC   GL214546  31.625   0.450   8.855
 6476POPC   C1A14547  31.466   0.412   8.555
 6476POPC   D2A14548  31.505   0.452   8.255
 6476POPC   C3A14549  31.434   0.398   7.955
 6476POPC   C4A14550  31.495   0.422   7.655
 6476POPC   C1B14551  31.761   0.498   8.555
 6476POPC   C2B14552  31.688   0.512   8.255
 6476POPC   C3B14553  31.759   0.502   7.955
 6476POPC   C4B14554  31.734   0.513   7.655
 6477POPC   NC314555  18.241   1.194   9.455
 6477POPC   PO414556  18.282   1.242   9.155
 6477POPC   GL114557  18.328   1.199   8.855
 6477POPC   GL214558  18.421   1.288   8.855
 6477POPC   C1A14559  18.291   1.189   8.555
 6477POPC   D2A14560  18.318   1.221   8.255
 6477POPC   C3A14561  18.237   1.214   7.955
 6477POPC   C4A14562  18.265   1.251   7.655
 6477POPC   C1B14563  18.444   1.360   8.555
 6477POPC   C2B14564  18.471   1.349   8.255
 6477POPC   C3B14565  18.446   1.405   7.955
 6477POPC   C4B14566  18.461   1.410   7.655
 6478POPC   NC314567  19.786  29.890   9.455
 6478POPC   PO414568  19.806  29.963   9.155
 6478POPC   GL114569  19.861  29.889   8.855
 6478POPC   GL214570  19.935  29.892   8.855
 6478POPC   C1A14571  19.831  29.874   8.555
 6478POPC   D2A14572  19.797  29.954   8.255
 6478POPC   C3A14573  19.811  29.953   7.955
 6478POPC   C4A14574  19.882  29.927   7.655
 6478POPC   C1B14575  20.033  29.782   8.555
 6478POPC   C2B14576  20.014  29.728   8.255
 6478POPC   C3B14577  20.033  29.799   7.955
 6478POPC   C4B14578  20.045  29.811   7.655
 6479POPC   NC314579  36.123  18.318   9.455
 6479POPC   PO414580  36.164  18.301   9.155
 6479POPC   GL114581  36.142  18.257   8.855
 6479POPC   GL214582  36.059  18.417   8.855
 6479POPC   C1A14583  36.162  18.295   8.555
 6479POPC   D2A14584  36.081  18.233   8.255
 6479POPC   C3A14585  36.145  18.276   7.955
 6479POPC   C4A14586  36.126  18.291   7.655
 6479POPC   C1B14587  36.044  18.491   8.555
 6479POPC   C2B14588  35.980  18.535   8.255
 6479POPC   C3B14589  36.066  18.545   7.955
 6479POPC   C4B14590  35.999  18.509   7.655
 6480POPC   NC314591  41.548  26.056   9.455
 6480POPC   PO414592  41.557  26.004   9.155
 6480POPC   GL114593  41.542  26.043   8.855
 6480POPC   GL214594  41.514  25.960   8.855
 6480POPC   C1A14595  41.554  26.071   8.555
 6480POPC   D2A14596  41.516  26.039   8.255
 6480POPC   C3A14597  41.547  26.062   7.955
 6480POPC   C4A14598  41.574  26.032   7.655
 6480POPC   C1B14599  41.395  25.802   8.555
 6480POPC   C2B14600  41.385  25.801   8.255
 6480POPC   C3B14601  41.443  25.827   7.955
 6480POPC   C4B14602  41.375  25.816   7.655
 6481POPC   NC314603  16.778  37.712   9.455
 6481POPC   PO414604  16.723  37.656   9.155
 6481POPC   GL114605  16.710  37.658   8.855
 6481POPC   GL214606  16.622  37.600   8.855
 6481POPC   C1A14607  16.777  37.648   8.555
 6481POPC   D2A14608  16.713  37.651   8.255
 6481POPC   C3A14609  16.748  37.666   7.955
 6481POPC   C4A14610  16.705  37.673   7.655
 6481POPC   C1B14611  16.599  37.508   8.555
 6481POPC   C2B14612  16.588  37.446   8.255
 6481POPC   C3B14613  16.567  37.431   7.955
 6481POPC   C4B14614  16.556  37.424   7.655
 6482POPC   NC314615  44.643  33.007   9.455
 6482POPC   PO414616  44.613  33.016   9.155
 6482POPC   GL114617  44.711  33.034   8.855
 6482POPC   GL214618  44.705  33.191   8.855
 6482POPC   C1A14619  44.647  33.056   8.555
 6482POPC   D2A14620  44.676  33.057   8.255
 6482POPC   C3A14621  44.666  33.031   7.955
 6482POPC   C4A14622  44.612  33.047   7.655
 6482POPC   C1B14623  44.648  33.281   8.555
 6482POPC   C2B14624  44.724  33.282   8.255
 6482POPC   C3B14625  44.707  33.228   7.955
 6482POPC   C4B14626  44.676  33.245   7.655
 6483POPC   NC314627   5.847  23.677   9.455
 6483POPC   PO414628   5.888  23.751   9.155
 6483POPC   GL114629   5.830  23.715   8.855
 6483POPC   GL214630   5.758  23.825   8.855
 6483POPC   C1A14631   5.831  23.722   8.555
 6483POPC   D2A14632   5.834  23.669   8.255
 6483POPC   C3A14633   5.868  23.668   7.955
 6483POPC   C4A14634   5.865  23.762   7.655
 6483POPC   C1B14635   5.736  23.869   8.555
 6483POPC   C2B14636   5.706  23.864   8.255
 6483POPC   C3B14637   5.713  23.937   7.955
 6483POPC   C4B14638   5.682  23.873   7.655
 6484POPC   NC314639  42.317  10.546   9.455
 6484POPC   PO414640  42.306  10.517   9.155
 6484POPC   GL114641  42.352  10.545   8.855
 6484POPC   GL214642  42.308  10.437   8.855
 6484POPC   C1A14643  42.372  10.485   8.555
 6484POPC   D2A14644  42.371  10.512   8.255
 6484POPC   C3A14645  42.310  10.490   7.955
 6484POPC   C4A14646  42.295  10.574   7.655
 6484POPC   C1B14647  42.314  10.259   8.555
 6484POPC   C2B14648  42.315  10.225   8.255
 6484POPC   C3B14649  42.362  10.279   7.955
 6484POPC   C4B14650  42.341  10.258   7.655
 6485POPC   NC314651  19.807  43.865   9.455
 6485POPC   PO414652  19.833  43.918   9.155
 6485POPC   GL114653  19.839  43.857   8.855
 6485POPC   GL214654  19.685  43.866   8.855
 6485POPC   C1A14655  19.851  43.895   8.555
 6485POPC   D2A14656  19.790  43.922   8.255
 6485POPC   C3A14657  19.837  43.875   7.955
 6485POPC   C4A14658  19.844  43.851   7.655
 6485POPC   C1B14659  19.627  43.781   8.555
 6485POPC   C2B14660  19.555  43.785   8.255
 6485POPC   C3B14661  19.577  43.767   7.955
 6485POPC   C4B14662  19.554  43.804   7.655
 6486POPC   NC314663  32.232  43.129   9.455
 6486POPC   PO414664  32.294  43.118   9.155
 6486POPC   GL114665  32.271  43.082   8.855
 6486POPC   GL214666  32.188  43.245   8.855
 6486POPC   C1A14667  32.249  43.120   8.555
 6486POPC   D2A14668  32.252  43.136   8.255
 6486POPC   C3A14669  32.284  43.104   7.955
 6486POPC   C4A14670  32.220  43.131   7.655
 6486POPC   C1B14671  32.080  43.275   8.555
 6486POPC   C2B14672  32.119  43.314   8.255
 6486POPC   C3B14673  32.081  43.327   7.955
 6486POPC   C4B14674  32.058  43.317   7.655
 6487POPC   NC314675  22.939   5.140   9.455
 6487POPC   PO414676  22.916   5.069   9.155
 6487POPC   GL114677  22.928   5.077   8.855
 6487POPC   GL214678  23.050   5.181   8.855
 6487POPC   C1A14679  22.934   5.074   8.555
 6487POPC   D2A14680  22.913   5.064   8.255
 6487POPC   C3A14681  22.899   5.090   7.955
 6487POPC   C4A14682  22.942   5.135   7.655
 6487POPC   C1B14683  23.155   5.196   8.555
 6487POPC   C2B14684  23.157   5.274   8.255
 6487POPC   C3B14685  23.191   5.232   7.955
 6487POPC   C4B14686  23.150   5.243   7.655
 6488POPC   NC314687  13.624  21.390   9.455
 6488POPC   PO414688  13.676  21.340   9.155
 6488POPC   GL114689  13.658  21.388   8.855
 6488POPC   GL214690  13.580  21.466   8.855
 6488POPC   C1A14691  13.596  21.351   8.555
 6488POPC   D2A14692  13.586  21.351   8.255
 6488POPC   C3A14693  13.667  21.370   7.955
 6488POPC   C4A14694  13.651  21.382   7.655
 6488POPC   C1B14695  13.477  21.633   8.555
 6488POPC   C2B14696  13.540  21.588   8.255
 6488POPC   C3B14697  13.503  21.576   7.955
 6488POPC   C4B14698  13.517  21.630   7.655
 6489POPC   NC314699  10.533  20.624   9.455
 6489POPC   PO414700  10.498  20.601   9.155
 6489POPC   GL114701  10.497  20.628   8.855
 6489POPC   GL214702  10.620  20.503   8.855
 6489POPC   C1A14703  10.570  20.606   8.555
 6489POPC   D2A14704  10.535  20.607   8.255
 6489POPC   C3A14705  10.554  20.570   7.955
 6489POPC   C4A14706  10.497  20.654   7.655
 6489POPC   C1B14707  10.632  20.393   8.555
 6489POPC   C2B14708  10.650  20.431   8.255
 6489POPC   C3B14709  10.586  20.394   7.955
 6489POPC   C4B14710  10.658  20.390   7.655
 6490POPC   NC314711  43.065  31.475   9.455
 6490POPC   PO414712  43.092  31.460   9.155
 6490POPC   GL114713  43.131  31.513   8.855
 6490POPC   GL214714  42.971  31.470   8.855
 6490POPC   C1A14715  43.143  31.433   8.555
 6490POPC   D2A14716  43.085  31.510   8.255
 6490POPC   C3A14717  43.088  31.478   7.955
 6490POPC   C4A14718  43.088  31.430   7.655
 6490POPC   C1B14719  42.819  31.522   8.555
 6490POPC   C2B14720  42.909  31.479   8.255
 6490POPC   C3B14721  42.881  31.528   7.955
 6490POPC   C4B14722  42.868  31.524   7.655
 6491POPC   NC314723  15.928  28.411   9.455
 6491POPC   PO414724  15.923  28.370   9.155
 6491POPC   GL114725  15.908  28.419   8.855
 6491POPC   GL214726  16.007  28.500   8.855
 6491POPC   C1A14727  15.996  28.414   8.555
 6491POPC   D2A14728  15.935  28.323   8.255
 6491POPC   C3A14729  15.983  28.347   7.955
 6491POPC   C4A14730  15.984  28.376   7.655
 6491POPC   C1B14731  16.063  28.555   8.555
 6491POPC   C2B14732  16.067  28.622   8.255
 6491POPC   C3B14733  16.086  28.642   7.955
 6491POPC   C4B14734  16.011  28.596   7.655
 6492POPC   NC314735   6.634  30.696   9.455
 6492POPC   PO414736   6.647  30.735   9.155
 6492POPC   GL114737   6.622  30.703   8.855
 6492POPC   GL214738   6.505  30.606   8.855
 6492POPC   C1A14739   6.613  30.710   8.555
 6492POPC   D2A14740   6.660  30.700   8.255
 6492POPC   C3A14741   6.607  30.670   7.955
 6492POPC   C4A14742   6.673  30.716   7.655
 6492POPC   C1B14743   6.446  30.571   8.555
 6492POPC   C2B14744   6.408  30.568   8.255
 6492POPC   C3B14745   6.475  30.570   7.955
 6492POPC   C4B14746   6.432  30.531   7.655
 6493POPC   NC314747  22.124  12.814   9.455
 6493POPC   PO414748  22.144  12.884   9.155
 6493POPC   GL114749  22.137  12.860   8.855
 6493POPC   GL214750  22.072  12.923   8.855
 6493POPC   C1A14751  22.135  12.860   8.555
 6493POPC   D2A14752  22.159  12.825   8.255
 6493POPC   C3A14753  22.190  12.885   7.955
 6493POPC   C4A14754  22.121  12.896   7.655
 6493POPC   C1B14755  22.001  12.943   8.555
 6493POPC   C2B14756  21.987  12.953   8.255
 6493POPC   C3B14757  21.930  12.995   7.955
 6493POPC   C4B14758  22.001  12.984   7.655
 6494POPC   NC314759   5.069  36.911   9.455
 6494POPC   PO414760   5.057  36.937   9.155
 6494POPC   GL114761   5.105  36.857   8.855
 6494POPC   GL214762   4.979  36.965   8.855
 6494POPC   C1A14763   5.058  36.943   8.555
 6494POPC   D2A14764   5.109  36.880   8.255
 6494POPC   C3A14765   5.134  36.933   7.955
 6494POPC   C4A14766   5.098  36.937   7.655
 6494POPC   C1B14767   4.919  37.144   8.555
 6494POPC   C2B14768   4.946  37.121   8.255
 6494POPC   C3B14769   4.960  37.097   7.955
 6494POPC   C4B14770   4.982  37.062   7.655
 6495POPC   NC314771  39.241  38.457   9.455
 6495POPC   PO414772  39.205  38.415   9.155
 6495POPC   GL114773  39.250  38.481   8.855
 6495POPC   GL214774  39.349  38.469   8.855
 6495POPC   C1A14775  39.199  38.417   8.555
 6495POPC   D2A14776  39.260  38.417   8.255
 6495POPC   C3A14777  39.224  38.501   7.955
 6495POPC   C4A14778  39.260  38.460   7.655
 6495POPC   C1B14779  39.511  38.514   8.555
 6495POPC   C2B14780  39.440  38.534   8.255
 6495POPC   C3B14781  39.466  38.531   7.955
 6495POPC   C4B14782  39.507  38.496   7.655
 6496POPC   NC314783  16.768  36.946   9.455
 6496POPC   PO414784  16.699  36.925   9.155
 6496POPC   GL114785  16.749  36.873   8.855
 6496POPC   GL214786  16.764  36.842   8.855
 6496POPC   C1A14787  16.736  36.896   8.555
 6496POPC   D2A14788  16.745  36.909   8.255
 6496POPC   C3A14789  16.767  36.857   7.955
 6496POPC   C4A14790  16.688  36.918   7.655
 6496POPC   C1B14791  16.886  36.664   8.555
 6496POPC   C2B14792  16.853  36.708   8.255
 6496POPC   C3B14793  16.865  36.701   7.955
 6496POPC   C4B14794  16.875  36.679   7.655
 6497POPC   NC314795  38.504  27.587   9.455
 6497POPC   PO414796  38.494  27.598   9.155
 6497POPC   GL114797  38.432  27.551   8.855
 6497POPC   GL214798  38.416  27.475   8.855
 6497POPC   C1A14799  38.442  27.617   8.555
 6497POPC   D2A14800  38.425  27.621   8.255
 6497POPC   C3A14801  38.426  27.594   7.955
 6497POPC   C4A14802  38.459  27.591   7.655
 6497POPC   C1B14803  38.398  27.391   8.555
 6497POPC   C2B14804  38.337  27.368   8.255
 6497POPC   C3B14805  38.341  27.329   7.955
 6497POPC   C4B14806  38.332  27.364   7.655
 6498POPC   NC314807  23.721  14.355   9.455
 6498POPC   PO414808  23.701  14.359   9.155
 6498POPC   GL114809  23.760  14.441   8.855
 6498POPC   GL214810  23.571  14.485   8.855
 6498POPC   C1A14811  23.673  14.367   8.555
 6498POPC   D2A14812  23.716  14.432   8.255
 6498POPC   C3A14813  23.745  14.423   7.955
 6498POPC   C4A14814  23.715  14.369   7.655
 6498POPC   C1B14815  23.543  14.549   8.555
 6498POPC   C2B14816  23.507  14.592   8.255
 6498POPC   C3B14817  23.543  14.561   7.955
 6498POPC   C4B14818  23.495  14.529   7.655
 6499POPC   NC314819  22.185  23.743   9.455
 6499POPC   PO414820  22.164  23.710   9.155
 6499POPC   GL114821  22.145  23.745   8.855
 6499POPC   GL214822  22.185  23.822   8.855
 6499POPC   C1A14823  22.113  23.741   8.555
 6499POPC   D2A14824  22.208  23.755   8.255
 6499POPC   C3A14825  22.135  23.711   7.955
 6499POPC   C4A14826  22.181  23.708   7.655
 6499POPC   C1B14827  22.106  23.923   8.555
 6499POPC   C2B14828  22.174  24.010   8.255
 6499POPC   C3B14829  22.187  23.916   7.955
 6499POPC   C4B14830  22.184  23.966   7.655
 6500POPC   NC314831   6.670  43.875   9.455
 6500POPC   PO414832   6.602  43.838   9.155
 6500POPC   GL114833   6.627  43.883   8.855
 6500POPC   GL214834   6.755  43.914   8.855
 6500POPC   C1A14835   6.616  43.886   8.555
 6500POPC   D2A14836   6.595  43.853   8.255
 6500POPC   C3A14837   6.631  43.936   7.955
 6500POPC   C4A14838   6.620  43.880   7.655
 6500POPC   C1B14839   6.846  44.012   8.555
 6500POPC   C2B14840   6.840  44.014   8.255
 6500POPC   C3B14841   6.871  43.987   7.955
 6500POPC   C4B14842   6.859  43.959   7.655
 6501POPC   NC314843  26.017  26.056   9.455
 6501POPC   PO414844  26.053  25.994   9.155
 6501POPC   GL114845  26.017  26.061   8.855
 6501POPC   GL214846  26.126  26.021   8.855
 6501POPC   C1A14847  26.055  26.066   8.555
 6501POPC   D2A14848  26.049  26.065   8.255
 6501POPC   C3A14849  26.076  26.059   7.955
 6501POPC   C4A14850  25.997  26.059   7.655
 6501POPC   C1B14851  26.307  26.109   8.555
 6501POPC   C2B14852  26.290  26.093   8.255
 6501POPC   C3B14853  26.322  26.054   7.955
 6501POPC   C4B14854  26.248  26.093   7.655
 6502POPC   NC314855  40.762  25.248   9.455
 6502POPC   PO414856  40.824  25.222   9.155
 6502POPC   GL114857  40.785  25.225   8.855
 6502POPC   GL214858  40.696  25.287   8.855
 6502POPC   C1A14859  40.784  25.299   8.555
 6502POPC   D2A14860  40.825  25.306   8.255
 6502POPC   C3A14861  40.770  25.257   7.955
 6502POPC   C4A14862  40.740  25.248   7.655
 6502POPC   C1B14863  40.508  25.298   8.555
 6502POPC   C2B14864  40.539  25.284   8.255
 6502POPC   C3B14865  40.538  25.311   7.955
 6502POPC   C4B14866  40.575  25.306   7.655
 6503POPC   NC314867  15.218   8.992   9.455
 6503POPC   PO414868  15.145   9.018   9.155
 6503POPC   GL114869  15.223   8.978   8.855
 6503POPC   GL214870  15.292   8.944   8.855
 6503POPC   C1A14871  15.154   8.967   8.555
 6503POPC   D2A14872  15.165   9.018   8.255
 6503POPC   C3A14873  15.220   8.979   7.955
 6503POPC   C4A14874  15.154   8.935   7.655
 6503POPC   C1B14875  15.459   8.934   8.555
 6503POPC   C2B14876  15.410   8.881   8.255
 6503POPC   C3B14877  15.374   8.952   7.955
 6503POPC   C4B14878  15.409   8.884   7.655
 6504POPC   NC314879  24.495  16.003   9.455
 6504POPC   PO414880  24.448  15.987   9.155
 6504POPC   GL114881  24.442  15.927   8.855
 6504POPC   GL214882  24.581  15.804   8.855
 6504POPC   C1A14883  24.476  15.947   8.555
 6504POPC   D2A14884  24.480  15.990   8.255
 6504POPC   C3A14885  24.488  15.929   7.955
 6504POPC   C4A14886  24.491  15.980   7.655
 6504POPC   C1B14887  24.621  15.685   8.555
 6504POPC   C2B14888  24.545  15.761   8.255
 6504POPC   C3B14889  24.608  15.716   7.955
 6504POPC   C4B14890  24.545  15.676   7.655
 6505POPC   NC314891  36.143  26.844   9.455
 6505POPC   PO414892  36.171  26.809   9.155
 6505POPC   GL114893  36.087  26.833   8.855
 6505POPC   GL214894  36.220  26.658   8.855
 6505POPC   C1A14895  36.159  26.781   8.555
 6505POPC   D2A14896  36.097  26.836   8.255
 6505POPC   C3A14897  36.162  26.809   7.955
 6505POPC   C4A14898  36.087  26.789   7.655
 6505POPC   C1B14899  36.257  26.559   8.555
 6505POPC   C2B14900  36.228  26.557   8.255
 6505POPC   C3B14901  36.180  26.562   7.955
 6505POPC   C4B14902  36.172  26.533   7.655
 6506POPC   NC314903  15.207   4.286   9.455
 6506POPC   PO414904  15.186   4.349   9.155
 6506POPC   GL114905  15.174   4.296   8.855
 6506POPC   GL214906  15.082   4.258   8.855
 6506POPC   C1A14907  15.205   4.329   8.555
 6506POPC   D2A14908  15.134   4.365   8.255
 6506POPC   C3A14909  15.164   4.309   7.955
 6506POPC   C4A14910  15.218   4.359   7.655
 6506POPC   C1B14911  14.973   4.262   8.555
 6506POPC   C2B14912  14.950   4.295   8.255
 6506POPC   C3B14913  14.961   4.238   7.955
 6506POPC   C4B14914  14.903   4.270   7.655
 6507POPC   NC314915  40.795  34.560   9.455
 6507POPC   PO414916  40.770  34.606   9.155
 6507POPC   GL114917  40.790  34.612   8.855
 6507POPC   GL214918  40.691  34.591   8.855
 6507POPC   C1A14919  40.832  34.538   8.555
 6507POPC   D2A14920  40.770  34.601   8.255
 6507POPC   C3A14921  40.751  34.570   7.955
 6507POPC   C4A14922  40.802  34.604   7.655
 6507POPC   C1B14923  40.532  34.656   8.555
 6507POPC   C2B14924  40.587  34.670   8.255
 6507POPC   C3B14925  40.587  34.632   7.955
 6507POPC   C4B14926  40.546  34.658   7.655
 6508POPC   NC314927  40.757   2.000   9.455
 6508POPC   PO414928  40.810   1.957   9.155
 6508POPC   GL114929  40.765   2.026   8.855
 6508POPC   GL214930  40.713   2.092   8.855
 6508POPC   C1A14931  40.737   1.976   8.555
 6508POPC   D2A14932  40.736   2.034   8.255
 6508POPC   C3A14933  40.775   2.004   7.955
 6508POPC   C4A14934  40.758   1.965   7.655
 6508POPC   C1B14935  40.609   2.170   8.555
 6508POPC   C2B14936  40.558   2.187   8.255
 6508POPC   C3B14937  40.603   2.117   7.955
 6508POPC   C4B14938  40.593   2.187   7.655
 6509POPC   NC314939  43.095   1.993   9.455
 6509POPC   PO414940  43.110   2.008   9.155
 6509POPC   GL114941  43.123   2.024   8.855
 6509POPC   GL214942  43.241   1.945   8.855
 6509POPC   C1A14943  43.067   1.989   8.555
 6509POPC   D2A14944  43.121   2.003   8.255
 6509POPC   C3A14945  43.060   1.949   7.955
 6509POPC   C4A14946  43.125   1.995   7.655
 6509POPC   C1B14947  43.336   2.009   8.555
 6509POPC   C2B14948  43.391   1.958   8.255
 6509POPC   C3B14949  43.382   1.957   7.955
 6509POPC   C4B14950  43.312   2.038   7.655
 6510POPC   NC314951  29.147   3.498   9.455
 6510POPC   PO414952  29.105   3.515   9.155
 6510POPC   GL114953  29.137   3.575   8.855
 6510POPC   GL214954  29.025   3.628   8.855
 6510POPC   C1A14955  29.156   3.545   8.555
 6510POPC   D2A14956  29.162   3.523   8.255
 6510POPC   C3A14957  29.125   3.514   7.955
 6510POPC   C4A14958  29.171   3.574   7.655
 6510POPC   C1B14959  28.903   3.710   8.555
 6510POPC   C2B14960  28.961   3.719   8.255
 6510POPC   C3B14961  28.973   3.679   7.955
 6510POPC   C4B14962  28.980   3.710   7.655
 6511POPC   NC314963  14.447  36.893   9.455
 6511POPC   PO414964  14.412  36.931   9.155
 6511POPC   GL114965  14.360  36.892   8.855
 6511POPC   GL214966  14.521  36.919   8.855
 6511POPC   C1A14967  14.384  36.896   8.555
 6511POPC   D2A14968  14.372  36.872   8.255
 6511POPC   C3A14969  14.406  36.913   7.955
 6511POPC   C4A14970  14.392  36.922   7.655
 6511POPC   C1B14971  14.672  36.848   8.555
 6511POPC   C2B14972  14.605  36.871   8.255
 6511POPC   C3B14973  14.680  36.886   7.955
 6511POPC   C4B14974  14.648  36.855   7.655
 6512POPC   NC314975  12.876  18.249   9.455
 6512POPC   PO414976  12.836  18.285   9.155
 6512POPC   GL114977  12.871  18.326   8.855
 6512POPC   GL214978  12.968  18.199   8.855
 6512POPC   C1A14979  12.889  18.283   8.555
 6512POPC   D2A14980  12.869  18.284   8.255
 6512POPC   C3A14981  12.856  18.309   7.955
 6512POPC   C4A14982  12.881  18.272   7.655
 6512POPC   C1B14983  13.015  18.114   8.555
 6512POPC   C2B14984  13.092  18.168   8.255
 6512POPC   C3B14985  13.011  18.123   7.955
 6512POPC   C4B14986  13.089  18.152   7.655
 6513POPC   NC314987  15.229  29.165   9.455
 6513POPC   PO414988  15.172  29.161   9.155
 6513POPC   GL114989  15.165  29.099   8.855
 6513POPC   GL214990  15.054  29.064   8.855
 6513POPC   C1A14991  15.224  29.186   8.555
 6513POPC   D2A14992  15.209  29.107   8.255
 6513POPC   C3A14993  15.195  29.168   7.955
 6513POPC   C4A14994  15.171  29.165   7.655
 6513POPC   C1B14995  15.013  28.996   8.555
 6513POPC   C2B14996  15.005  29.051   8.255
 6513POPC   C3B14997  14.931  29.055   7.955
 6513POPC   C4B14998  15.011  29.031   7.655
 6514POPC   NC314999   9.766  36.892   9.455
 6514POPC   PO415000   9.716  36.854   9.155
 6514POPC   GL115001   9.765  36.897   8.855
 6514POPC   GL215002   9.746  36.814   8.855
 6514POPC   C1A15003   9.717  36.921   8.555
 6514POPC   D2A15004   9.710  36.948   8.255
 6514POPC   C3A15005   9.774  36.937   7.955
 6514POPC   C4A15006   9.778  36.868   7.655
 6514POPC   C1B15007   9.860  36.667   8.555
 6514POPC   C2B15008   9.831  36.671   8.255
 6514POPC   C3B15009   9.803  36.659   7.955
 6514POPC   C4B15010   9.853  36.685   7.655
 6515POPC   NC315011  25.297  29.113   9.455
 6515POPC   PO415012  25.228  29.188   9.155
 6515POPC   GL115013  25.255  29.146   8.855
 6515POPC   GL215014  25.111  29.110   8.855
 6515POPC   C1A15015  25.236  29.141   8.555
 6515POPC   D2A15016  25.225  29.156   8.255
 6515POPC   C3A15017  25.304  29.123   7.955
 6515POPC   C4A15018  25.221  29.135   7.655
 6515POPC   C1B15019  25.035  29.060   8.555
 6515POPC   C2B15020  25.031  29.063   8.255
 6515POPC   C3B15021  25.068  29.096   7.955
 6515POPC   C4B15022  24.980  29.059   7.655
 6516POPC   NC315023  21.371  29.912   9.455
 6516POPC   PO415024  21.358  29.929   9.155
 6516POPC   GL115025  21.346  29.928   8.855
 6516POPC   GL215026  21.451  30.076   8.855
 6516POPC   C1A15027  21.357  29.956   8.555
 6516POPC   D2A15028  21.420  29.888   8.255
 6516POPC   C3A15029  21.421  29.927   7.955
 6516POPC   C4A15030  21.338  29.944   7.655
 6516POPC   C1B15031  21.463  30.106   8.555
 6516POPC   C2B15032  21.482  30.187   8.255
 6516POPC   C3B15033  21.458  30.115   7.955
 6516POPC   C4B15034  21.540  30.111   7.655
 6517POPC   NC315035   3.576  14.424   9.455
 6517POPC   PO415036   3.497  14.396   9.155
 6517POPC   GL115037   3.534  14.428   8.855
 6517POPC   GL215038   3.485  14.316   8.855
 6517POPC   C1A15039   3.583  14.397   8.555
 6517POPC   D2A15040   3.547  14.369   8.255
 6517POPC   C3A15041   3.568  14.414   7.955
 6517POPC   C4A15042   3.508  14.373   7.655
 6517POPC   C1B15043   3.349  14.224   8.555
 6517POPC   C2B15044   3.362  14.262   8.255
 6517POPC   C3B15045   3.353  14.274   7.955
 6517POPC   C4B15046   3.341  14.258   7.655
 6518POPC   NC315047   6.677   1.181   9.455
 6518POPC   PO415048   6.630   1.209   9.155
 6518POPC   GL115049   6.675   1.247   8.855
 6518POPC   GL215050   6.511   1.198   8.855
 6518POPC   C1A15051   6.628   1.172   8.555
 6518POPC   D2A15052   6.684   1.172   8.255
 6518POPC   C3A15053   6.636   1.219   7.955
 6518POPC   C4A15054   6.675   1.173   7.655
 6518POPC   C1B15055   6.443   1.205   8.555
 6518POPC   C2B15056   6.395   1.240   8.255
 6518POPC   C3B15057   6.413   1.188   7.955
 6518POPC   C4B15058   6.443   1.178   7.655
 6519POPC   NC315059  38.493  24.472   9.455
 6519POPC   PO415060  38.438  24.468   9.155
 6519POPC   GL115061  38.461  24.495   8.855
 6519POPC   GL215062  38.567  24.570   8.855
 6519POPC   C1A15063  38.492  24.525   8.555
 6519POPC   D2A15064  38.493  24.540   8.255
 6519POPC   C3A15065  38.439  24.527   7.955
 6519POPC   C4A15066  38.473  24.456   7.655
 6519POPC   C1B15067  38.670  24.521   8.555
 6519POPC   C2B15068  38.732  24.538   8.255
 6519POPC   C3B15069  38.683  24.569   7.955
 6519POPC   C4B15070  38.669  24.524   7.655
 6520POPC   NC315071  43.876  15.207   9.455
 6520POPC   PO415072  43.879  15.135   9.155
 6520POPC   GL115073  43.916  15.178   8.855
 6520POPC   GL215074  43.797  15.073   8.855
 6520POPC   C1A15075  43.915  15.192   8.555
 6520POPC   D2A15076  43.885  15.199   8.255
 6520POPC   C3A15077  43.899  15.188   7.955
 6520POPC   C4A15078  43.903  15.200   7.655
 6520POPC   C1B15079  43.777  14.914   8.555
 6520POPC   C2B15080  43.807  14.983   8.255
 6520POPC   C3B15081  43.798  14.929   7.955
 6520POPC   C4B15082  43.782  14.902   7.655
 6521POPC   NC315083  11.304   0.406   9.455
 6521POPC   PO415084  11.328   0.421   9.155
 6521POPC   GL115085  11.335   0.435   8.855
 6521POPC   GL215086  11.293   0.535   8.855
 6521POPC   C1A15087  11.286   0.460   8.555
 6521POPC   D2A15088  11.284   0.436   8.255
 6521POPC   C3A15089  11.337   0.426   7.955
 6521POPC   C4A15090  11.282   0.487   7.655
 6521POPC   C1B15091  11.362   0.685   8.555
 6521POPC   C2B15092  11.312   0.725   8.255
 6521POPC   C3B15093  11.329   0.701   7.955
 6521POPC   C4B15094  11.319   0.649   7.655
 6522POPC   NC315095  12.808   9.772   9.455
 6522POPC   PO415096  12.823   9.758   9.155
 6522POPC   GL115097  12.817   9.766   8.855
 6522POPC   GL215098  12.967   9.638   8.855
 6522POPC   C1A15099  12.883   9.709   8.555
 6522POPC   D2A15100  12.826   9.725   8.255
 6522POPC   C3A15101  12.815   9.704   7.955
 6522POPC   C4A15102  12.860   9.759   7.655
 6522POPC   C1B15103  13.058   9.607   8.555
 6522POPC   C2B15104  13.048   9.561   8.255
 6522POPC   C3B15105  13.026   9.587   7.955
 6522POPC   C4B15106  13.004   9.611   7.655
 6523POPC   NC315107  37.664   3.540   9.455
 6523POPC   PO415108  37.640   3.557   9.155
 6523POPC   GL115109  37.670   3.559   8.855
 6523POPC   GL215110  37.578   3.476   8.855
 6523POPC   C1A15111  37.633   3.499   8.555
 6523POPC   D2A15112  37.703   3.556   8.255
 6523POPC   C3A15113  37.718   3.526   7.955
 6523POPC   C4A15114  37.638   3.546   7.655
 6523POPC   C1B15115  37.441   3.477   8.555
 6523POPC   C2B15116  37.476   3.456   8.255
 6523POPC   C3B15117  37.425   3.408   7.955
 6523POPC   C4B15118  37.486   3.449   7.655
 6524POPC   NC315119   9.017  21.415   9.455
 6524POPC   PO415120   8.975  21.425   9.155
 6524POPC   GL115121   8.932  21.366   8.855
 6524POPC   GL215122   8.976  21.216   8.855
 6524POPC   C1A15123   8.983  21.431   8.555
 6524POPC   D2A15124   8.927  21.351   8.255
 6524POPC   C3A15125   8.965  21.410   7.955
 6524POPC   C4A15126   8.930  21.371   7.655
 6524POPC   C1B15127   9.035  21.173   8.555
 6524POPC   C2B15128   8.998  21.173   8.255
 6524POPC   C3B15129   9.007  21.113   7.955
 6524POPC   C4B15130   8.975  21.166   7.655
 6525POPC   NC315131  11.311  23.696   9.455
 6525POPC   PO415132  11.278  23.744   9.155
 6525POPC   GL115133  11.329  23.665   8.855
 6525POPC   GL215134  11.219  23.712   8.855
 6525POPC   C1A15135  11.250  23.700   8.555
 6525POPC   D2A15136  11.321  23.763   8.255
 6525POPC   C3A15137  11.317  23.677   7.955
 6525POPC   C4A15138  11.312  23.697   7.655
 6525POPC   C1B15139  11.022  23.801   8.555
 6525POPC   C2B15140  11.032  23.712   8.255
 6525POPC   C3B15141  11.092  23.769   7.955
 6525POPC   C4B15142  11.015  23.790   7.655
 6526POPC   NC315143  19.833  12.108   9.455
 6526POPC   PO415144  19.832  12.100   9.155
 6526POPC   GL115145  19.790  12.096   8.855
 6526POPC   GL215146  19.902  11.979   8.855
 6526POPC   C1A15147  19.875  12.033   8.555
 6526POPC   D2A15148  19.792  12.087   8.255
 6526POPC   C3A15149  19.867  12.052   7.955
 6526POPC   C4A15150  19.830  12.041   7.655
 6526POPC   C1B15151  19.980  11.931   8.555
 6526POPC   C2B15152  19.978  11.932   8.255
 6526POPC   C3B15153  20.030  11.881   7.955
 6526POPC   C4B15154  19.984  11.936   7.655
 6527POPC   NC315155  36.093  13.600   9.455
 6527POPC   PO415156  36.131  13.593   9.155
 6527POPC   GL115157  36.155  13.671   8.855
 6527POPC   GL215158  36.172  13.784   8.855
 6527POPC   C1A15159  36.091  13.648   8.555
 6527POPC   D2A15160  36.119  13.674   8.255
 6527POPC   C3A15161  36.083  13.649   7.955
 6527POPC   C4A15162  36.144  13.662   7.655
 6527POPC   C1B15163  36.291  13.870   8.555
 6527POPC   C2B15164  36.285  13.871   8.255
 6527POPC   C3B15165  36.234  13.870   7.955
 6527POPC   C4B15166  36.272  13.801   7.655
 6528POPC   NC315167   9.710  22.184   9.455
 6528POPC   PO415168   9.709  22.152   9.155
 6528POPC   GL115169   9.705  22.202   8.855
 6528POPC   GL215170   9.855  22.256   8.855
 6528POPC   C1A15171   9.727  22.120   8.555
 6528POPC   D2A15172   9.765  22.133   8.255
 6528POPC   C3A15173   9.700  22.190   7.955
 6528POPC   C4A15174   9.768  22.185   7.655
 6528POPC   C1B15175   9.992  22.358   8.555
 6528POPC   C2B15176   9.918  22.348   8.255
 6528POPC   C3B15177   9.906  22.320   7.955
 6528POPC   C4B15178   9.930  22.279   7.655
 6529POPC   NC315179  39.240  21.377   9.455
 6529POPC   PO415180  39.203  21.429   9.155
 6529POPC   GL115181  39.211  21.391   8.855
 6529POPC   GL215182  39.266  21.501   8.855
 6529POPC   C1A15183  39.257  21.375   8.555
 6529POPC   D2A15184  39.249  21.360   8.255
 6529POPC   C3A15185  39.213  21.370   7.955
 6529POPC   C4A15186  39.279  21.401   7.655
 6529POPC   C1B15187  39.248  21.597   8.555
 6529POPC   C2B15188  39.288  21.677   8.255
 6529POPC   C3B15189  39.234  21.684   7.955
 6529POPC   C4B15190  39.227  21.674   7.655
 6530POPC   NC315191  12.096  18.295   9.455
 6530POPC   PO415192  12.124  18.331   9.155
 6530POPC   GL115193  12.092  18.312   8.855
 6530POPC   GL215194  12.240  18.311   8.855
 6530POPC   C1A15195  12.059  18.317   8.555
 6530POPC   D2A15196  12.033  18.285   8.255
 6530POPC   C3A15197  12.038  18.266   7.955
 6530POPC   C4A15198  12.058  18.246   7.655
 6530POPC   C1B15199  12.334  18.287   8.555
 6530POPC   C2B15200  12.311  18.284   8.255
 6530POPC   C3B15201  12.320  18.324   7.955
 6530POPC   C4B15202  12.366  18.302   7.655
 6531POPC   NC315203  26.007  13.659   9.455
 6531POPC   PO415204  26.029  13.612   9.155
 6531POPC   GL115205  26.055  13.657   8.855
 6531POPC   GL215206  26.163  13.632   8.855
 6531POPC   C1A15207  26.033  13.652   8.555
 6531POPC   D2A15208  26.080  13.608   8.255
 6531POPC   C3A15209  26.010  13.664   7.955
 6531POPC   C4A15210  26.045  13.620   7.655
 6531POPC   C1B15211  26.241  13.632   8.555
 6531POPC   C2B15212  26.251  13.631   8.255
 6531POPC   C3B15213  26.311  13.591   7.955
 6531POPC   C4B15214  26.304  13.611   7.655
 6532POPC   NC315215  13.660  29.920   9.455
 6532POPC   PO415216  13.642  29.911   9.155
 6532POPC   GL115217  13.627  29.966   8.855
 6532POPC   GL215218  13.503  29.898   8.855
 6532POPC   C1A15219  13.666  29.956   8.555
 6532POPC   D2A15220  13.619  29.928   8.255
 6532POPC   C3A15221  13.671  29.907   7.955
 6532POPC   C4A15222  13.596  29.904   7.655
 6532POPC   C1B15223  13.393  29.824   8.555
 6532POPC   C2B15224  13.392  29.781   8.255
 6532POPC   C3B15225  13.383  29.809   7.955
 6532POPC   C4B15226  13.433  29.808   7.655
 6533POPC   NC315227   6.685  42.380   9.455
 6533POPC   PO415228   6.646  42.384   9.155
 6533POPC   GL115229   6.671  42.350   8.855
 6533POPC   GL215230   6.499  42.303   8.855
 6533POPC   C1A15231   6.650  42.318   8.555
 6533POPC   D2A15232   6.599  42.343   8.255
 6533POPC   C3A15233   6.620  42.373   7.955
 6533POPC   C4A15234   6.692  42.291   7.655
 6533POPC   C1B15235   6.387  42.293   8.555
 6533POPC   C2B15236   6.347  42.300   8.255
 6533POPC   C3B15237   6.381  42.352   7.955
 6533POPC   C4B15238   6.418  42.345   7.655
 6534POPC   NC315239  32.986   5.057   9.455
 6534POPC   PO415240  32.995   5.061   9.155
 6534POPC   GL115241  33.059   5.092   8.855
 6534POPC   GL215242  32.881   5.102   8.855
 6534POPC   C1A15243  33.030   5.076   8.555
 6534POPC   D2A15244  33.036   5.074   8.255
 6534POPC   C3A15245  32.979   5.141   7.955
 6534POPC   C4A15246  32.984   5.069   7.655
 6534POPC   C1B15247  32.782   5.243   8.555
 6534POPC   C2B15248  32.825   5.232   8.255
 6534POPC   C3B15249  32.760   5.226   7.955
 6534POPC   C4B15250  32.778   5.233   7.655
 6535POPC   NC315251  34.582  13.674   9.455
 6535POPC   PO415252  34.622  13.674   9.155
 6535POPC   GL115253  34.575  13.594   8.855
 6535POPC   GL215254  34.643  13.470   8.855
 6535POPC   C1A15255  34.548  13.641   8.555
 6535POPC   D2A15256  34.540  13.675   8.255
 6535POPC   C3A15257  34.586  13.666   7.955
 6535POPC   C4A15258  34.537  13.611   7.655
 6535POPC   C1B15259  34.682  13.371   8.555
 6535POPC   C2B15260  34.620  13.415   8.255
 6535POPC   C3B15261  34.643  13.394   7.955
 6535POPC   C4B15262  34.642  13.413   7.655
 6536POPC   NC315263  37.632  20.617   9.455
 6536POPC   PO415264  37.680  20.579   9.155
 6536POPC   GL115265  37.718  20.639   8.855
 6536POPC   GL215266  37.590  20.644   8.855
 6536POPC   C1A15267  37.708  20.609   8.555
 6536POPC   D2A15268  37.698  20.611   8.255
 6536POPC   C3A15269  37.654  20.566   7.955
 6536POPC   C4A15270  37.650  20.588   7.655
 6536POPC   C1B15271  37.424  20.636   8.555
 6536POPC   C2B15272  37.407  20.676   8.255
 6536POPC   C3B15273  37.476  20.635   7.955
 6536POPC   C4B15274  37.391  20.647   7.655
 6537POPC   NC315275  40.034  43.116   9.455
 6537POPC   PO415276  39.963  43.078   9.155
 6537POPC   GL115277  40.035  43.103   8.855
 6537POPC   GL215278  39.973  43.054   8.855
 6537POPC   C1A15279  39.973  43.145   8.555
 6537POPC   D2A15280  40.016  43.121   8.255
 6537POPC   C3A15281  39.963  43.115   7.955
 6537POPC   C4A15282  40.030  43.159   7.655
 6537POPC   C1B15283  39.846  42.904   8.555
 6537POPC   C2B15284  39.899  42.922   8.255
 6537POPC   C3B15285  39.819  42.922   7.955
 6537POPC   C4B15286  39.831  42.909   7.655
 6538POPC   NC315287   5.861   4.302   9.455
 6538POPC   PO415288   5.854   4.327   9.155
 6538POPC   GL115289   5.871   4.316   8.855
 6538POPC   GL215290   6.029   4.324   8.855
 6538POPC   C1A15291   5.903   4.350   8.555
 6538POPC   D2A15292   5.865   4.322   8.255
 6538POPC   C3A15293   5.875   4.290   7.955
 6538POPC   C4A15294   5.828   4.309   7.655
 6538POPC   C1B15295   6.122   4.285   8.555
 6538POPC   C2B15296   6.105   4.293   8.255
 6538POPC   C3B15297   6.073   4.341   7.955
 6538POPC   C4B15298   6.132   4.269   7.655
 6539POPC   NC315299  40.002  13.654   9.455
 6539POPC   PO415300  40.016  13.627   9.155
 6539POPC   GL115301  39.971  13.603   8.855
 6539POPC   GL215302  40.092  13.528   8.855
 6539POPC   C1A15303  40.006  13.595   8.555
 6539POPC   D2A15304  40.049  13.645   8.255
 6539POPC   C3A15305  40.028  13.612   7.955
 6539POPC   C4A15306  40.012  13.651   7.655
 6539POPC   C1B15307  40.232  13.549   8.555
 6539POPC   C2B15308  40.260  13.499   8.255
 6539POPC   C3B15309  40.220  13.549   7.955
 6539POPC   C4B15310  40.216  13.513   7.655
 6540POPC   NC315311  27.581  33.829   9.455
 6540POPC   PO415312  27.639  33.831   9.155
 6540POPC   GL115313  27.559  33.840   8.855
 6540POPC   GL215314  27.462  33.831   8.855
 6540POPC   C1A15315  27.605  33.753   8.555
 6540POPC   D2A15316  27.625  33.757   8.255
 6540POPC   C3A15317  27.591  33.828   7.955
 6540POPC   C4A15318  27.636  33.791   7.655
 6540POPC   C1B15319  27.386  33.758   8.555
 6540POPC   C2B15320  27.362  33.792   8.255
 6540POPC   C3B15321  27.305  33.776   7.955
 6540POPC   C4B15322  27.362  33.734   7.655
 6541POPC   NC315323  16.689  12.840   9.455
 6541POPC   PO415324  16.696  12.826   9.155
 6541POPC   GL115325  16.765  12.845   8.855
 6541POPC   GL215326  16.807  12.696   8.855
 6541POPC   C1A15327  16.763  12.871   8.555
 6541POPC   D2A15328  16.720  12.812   8.255
 6541POPC   C3A15329  16.721  12.878   7.955
 6541POPC   C4A15330  16.758  12.804   7.655
 6541POPC   C1B15331  16.898  12.618   8.555
 6541POPC   C2B15332  16.862  12.613   8.255
 6541POPC   C3B15333  16.845  12.672   7.955
 6541POPC   C4B15334  16.872  12.590   7.655
 6542POPC   NC315335  24.491  34.595   9.455
 6542POPC   PO415336  24.510  34.549   9.155
 6542POPC   GL115337  24.513  34.559   8.855
 6542POPC   GL215338  24.572  34.452   8.855
 6542POPC   C1A15339  24.519  34.559   8.555
 6542POPC   D2A15340  24.468  34.540   8.255
 6542POPC   C3A15341  24.457  34.531   7.955
 6542POPC   C4A15342  24.479  34.581   7.655
 6542POPC   C1B15343  24.725  34.444   8.555
 6542POPC   C2B15344  24.698  34.390   8.255
 6542POPC   C3B15345  24.734  34.414   7.955
 6542POPC   C4B15346  24.693  34.404   7.655
 6543POPC   NC315347  35.374   6.686   9.455
 6543POPC   PO415348  35.363   6.600   9.155
 6543POPC   GL115349  35.360   6.691   8.855
 6543POPC   GL215350  35.498   6.678   8.855
 6543POPC   C1A15351  35.316   6.609   8.555
 6543POPC   D2A15352  35.396   6.667   8.255
 6543POPC   C3A15353  35.373   6.666   7.955
 6543POPC   C4A15354  35.371   6.663   7.655
 6543POPC   C1B15355  35.561   6.757   8.555
 6543POPC   C2B15356  35.604   6.743   8.255
 6543POPC   C3B15357  35.590   6.738   7.955
 6543POPC   C4B15358  35.607   6.776   7.655
 6544POPC   NC315359  20.659  36.873   9.455
 6544POPC   PO415360  20.615  36.891   9.155
 6544POPC   GL115361  20.565  36.944   8.855
 6544POPC   GL215362  20.667  36.983   8.855
 6544POPC   C1A15363  20.595  36.926   8.555
 6544POPC   D2A15364  20.603  36.897   8.255
 6544POPC   C3A15365  20.565  36.918   7.955
 6544POPC   C4A15366  20.635  36.884   7.655
 6544POPC   C1B15367  20.777  37.125   8.555
 6544POPC   C2B15368  20.776  37.139   8.255
 6544POPC   C3B15369  20.787  37.066   7.955
 6544POPC   C4B15370  20.740  37.137   7.655
 6545POPC   NC315371  29.113   0.410   9.455
 6545POPC   PO415372  29.125   0.426   9.155
 6545POPC   GL115373  29.137   0.398   8.855
 6545POPC   GL215374  29.131   0.350   8.855
 6545POPC   C1A15375  29.134   0.475   8.555
 6545POPC   D2A15376  29.191   0.477   8.255
 6545POPC   C3A15377  29.160   0.469   7.955
 6545POPC   C4A15378  29.190   0.392   7.655
 6545POPC   C1B15379  29.054   0.167   8.555
 6545POPC   C2B15380  29.084   0.192   8.255
 6545POPC   C3B15381  29.115   0.153   7.955
 6545POPC   C4B15382  29.142   0.161   7.655
 6546POPC   NC315383   5.073  38.415   9.455
 6546POPC   PO415384   5.143  38.442   9.155
 6546POPC   GL115385   5.109  38.483   8.855
 6546POPC   GL215386   5.003  38.529   8.855
 6546POPC   C1A15387   5.076  38.406   8.555
 6546POPC   D2A15388   5.060  38.423   8.255
 6546POPC   C3A15389   5.133  38.467   7.955
 6546POPC   C4A15390   5.141  38.487   7.655
 6546POPC   C1B15391   4.910  38.602   8.555
 6546POPC   C2B15392   4.859  38.563   8.255
 6546POPC   C3B15393   4.854  38.618   7.955
 6546POPC   C4B15394   4.923  38.610   7.655
 6547POPC   NC315395  22.944  21.350   9.455
 6547POPC   PO415396  22.930  21.410   9.155
 6547POPC   GL115397  22.965  21.411   8.855
 6547POPC   GL215398  22.987  21.235   8.855
 6547POPC   C1A15399  22.937  21.366   8.555
 6547POPC   D2A15400  22.927  21.338   8.255
 6547POPC   C3A15401  22.903  21.348   7.955
 6547POPC   C4A15402  22.941  21.376   7.655
 6547POPC   C1B15403  22.910  21.138   8.555
 6547POPC   C2B15404  22.937  21.146   8.255
 6547POPC   C3B15405  22.994  21.113   7.955
 6547POPC   C4B15406  22.930  21.142   7.655
 6548POPC   NC315407  12.116   2.754   9.455
 6548POPC   PO415408  12.075   2.730   9.155
 6548POPC   GL115409  12.050   2.719   8.855
 6548POPC   GL215410  12.204   2.767   8.855
 6548POPC   C1A15411  12.118   2.721   8.555
 6548POPC   D2A15412  12.086   2.804   8.255
 6548POPC   C3A15413  12.044   2.755   7.955
 6548POPC   C4A15414  12.119   2.796   7.655
 6548POPC   C1B15415  12.307   2.794   8.555
 6548POPC   C2B15416  12.363   2.796   8.255
 6548POPC   C3B15417  12.345   2.856   7.955
 6548POPC   C4B15418  12.348   2.785   7.655
 6549POPC   NC315419  40.758  37.654   9.455
 6549POPC   PO415420  40.820  37.656   9.155
 6549POPC   GL115421  40.749  37.637   8.855
 6549POPC   GL215422  40.813  37.798   8.855
 6549POPC   C1A15423  40.811  37.713   8.555
 6549POPC   D2A15424  40.743  37.664   8.255
 6549POPC   C3A15425  40.750  37.655   7.955
 6549POPC   C4A15426  40.779  37.638   7.655
 6549POPC   C1B15427  40.773  37.961   8.555
 6549POPC   C2B15428  40.765  37.912   8.255
 6549POPC   C3B15429  40.779  37.969   7.955
 6549POPC   C4B15430  40.838  37.917   7.655
 6550POPC   NC315431  22.910  40.808   9.455
 6550POPC   PO415432  22.946  40.774   9.155
 6550POPC   GL115433  22.987  40.752   8.855
 6550POPC   GL215434  23.039  40.695   8.855
 6550POPC   C1A15435  22.889  40.818   8.555
 6550POPC   D2A15436  22.940  40.791   8.255
 6550POPC   C3A15437  22.938  40.811   7.955
 6550POPC   C4A15438  22.904  40.750   7.655
 6550POPC   C1B15439  23.134  40.685   8.555
 6550POPC   C2B15440  23.207  40.712   8.255
 6550POPC   C3B15441  23.144  40.686   7.955
 6550POPC   C4B15442  23.170  40.661   7.655
 6551POPC   NC315443  12.034  12.901   9.455
 6551POPC   PO415444  12.103  12.894   9.155
 6551POPC   GL115445  12.122  12.879   8.855
 6551POPC   GL215446  12.143  12.949   8.855
 6551POPC   C1A15447  12.078  12.832   8.555
 6551POPC   D2A15448  12.114  12.879   8.255
 6551POPC   C3A15449  12.117  12.899   7.955
 6551POPC   C4A15450  12.083  12.880   7.655
 6551POPC   C1B15451  12.126  13.050   8.555
 6551POPC   C2B15452  12.205  13.087   8.255
 6551POPC   C3B15453  12.140  13.090   7.955
 6551POPC   C4B15454  12.131  13.037   7.655
 6552POPC   NC315455  22.149  17.470   9.455
 6552POPC   PO415456  22.127  17.489   9.155
 6552POPC   GL115457  22.208  17.476   8.855
 6552POPC   GL215458  22.230  17.640   8.855
 6552POPC   C1A15459  22.193  17.511   8.555
 6552POPC   D2A15460  22.149  17.513   8.255
 6552POPC   C3A15461  22.144  17.549   7.955
 6552POPC   C4A15462  22.205  17.510   7.655
 6552POPC   C1B15463  22.317  17.732   8.555
 6552POPC   C2B15464  22.329  17.693   8.255
 6552POPC   C3B15465  22.332  17.639   7.955
 6552POPC   C4B15466  22.324  17.666   7.655
 6553POPC   NC315467   6.603  20.637   9.455
 6553POPC   PO415468   6.615  20.582   9.155
 6553POPC   GL115469   6.664  20.636   8.855
 6553POPC   GL215470   6.537  20.601   8.855
 6553POPC   C1A15471   6.611  20.588   8.555
 6553POPC   D2A15472   6.627  20.619   8.255
 6553POPC   C3A15473   6.619  20.598   7.955
 6553POPC   C4A15474   6.634  20.657   7.655
 6553POPC   C1B15475   6.415  20.479   8.555
 6553POPC   C2B15476   6.442  20.509   8.255
 6553POPC   C3B15477   6.408  20.462   7.955
 6553POPC   C4B15478   6.452  20.467   7.655
 6554POPC   NC315479   7.397  33.754   9.455
 6554POPC   PO415480   7.395  33.847   9.155
 6554POPC   GL115481   7.427  33.810   8.855
 6554POPC   GL215482   7.419  33.930   8.855
 6554POPC   C1A15483   7.392  33.793   8.555
 6554POPC   D2A15484   7.380  33.796   8.255
 6554POPC   C3A15485   7.412  33.762   7.955
 6554POPC   C4A15486   7.450  33.804   7.655
 6554POPC   C1B15487   7.528  34.062   8.555
 6554POPC   C2B15488   7.525  34.053   8.255
 6554POPC   C3B15489   7.510  34.041   7.955
 6554POPC   C4B15490   7.523  33.993   7.655
 6555POPC   NC315491   8.198  38.407   9.455
 6555POPC   PO415492   8.156  38.472   9.155
 6555POPC   GL115493   8.194  38.447   8.855
 6555POPC   GL215494   8.351  38.435   8.855
 6555POPC   C1A15495   8.221  38.411   8.555
 6555POPC   D2A15496   8.201  38.419   8.255
 6555POPC   C3A15497   8.235  38.464   7.955
 6555POPC   C4A15498   8.235  38.487   7.655
 6555POPC   C1B15499   8.414  38.424   8.555
 6555POPC   C2B15500   8.463  38.432   8.255
 6555POPC   C3B15501   8.408  38.419   7.955
 6555POPC   C4B15502   8.435  38.449   7.655
 6556POPC   NC315503   7.405   9.772   9.455
 6556POPC   PO415504   7.433   9.699   9.155
 6556POPC   GL115505   7.438   9.752   8.855
 6556POPC   GL215506   7.487   9.653   8.855
 6556POPC   C1A15507   7.456   9.727   8.555
 6556POPC   D2A15508   7.377   9.743   8.255
 6556POPC   C3A15509   7.439   9.714   7.955
 6556POPC   C4A15510   7.396   9.788   7.655
 6556POPC   C1B15511   7.575   9.555   8.555
 6556POPC   C2B15512   7.548   9.541   8.255
 6556POPC   C3B15513   7.547   9.575   7.955
 6556POPC   C4B15514   7.551   9.502   7.655
 6557POPC   NC315515   4.270  11.253   9.455
 6557POPC   PO415516   4.356  11.314   9.155
 6557POPC   GL115517   4.350  11.338   8.855
 6557POPC   GL215518   4.193  11.312   8.855
 6557POPC   C1A15519   4.357  11.326   8.555
 6557POPC   D2A15520   4.268  11.319   8.255
 6557POPC   C3A15521   4.275  11.311   7.955
 6557POPC   C4A15522   4.364  11.297   7.655
 6557POPC   C1B15523   4.121  11.386   8.555
 6557POPC   C2B15524   4.114  11.396   8.255
 6557POPC   C3B15525   4.124  11.363   7.955
 6557POPC   C4B15526   4.040  11.334   7.655
 6558POPC   NC315527   1.979  34.619   9.455
 6558POPC   PO415528   2.039  34.539   9.155
 6558POPC   GL115529   2.020  34.610   8.855
 6558POPC   GL215530   1.939  34.463   8.855
 6558POPC   C1A15531   2.013  34.580   8.555
 6558POPC   D2A15532   2.003  34.544   8.255
 6558POPC   C3A15533   2.005  34.591   7.955
 6558POPC   C4A15534   2.039  34.620   7.655
 6558POPC   C1B15535   1.951  34.295   8.555
 6558POPC   C2B15536   1.953  34.368   8.255
 6558POPC   C3B15537   1.880  34.327   7.955
 6558POPC   C4B15538   1.895  34.363   7.655
 6559POPC   NC315539  28.388  30.656   9.455
 6559POPC   PO415540  28.347  30.704   9.155
 6559POPC   GL115541  28.387  30.673   8.855
 6559POPC   GL215542  28.359  30.804   8.855
 6559POPC   C1A15543  28.388  30.723   8.555
 6559POPC   D2A15544  28.341  30.659   8.255
 6559POPC   C3A15545  28.412  30.698   7.955
 6559POPC   C4A15546  28.390  30.687   7.655
 6559POPC   C1B15547  28.400  30.975   8.555
 6559POPC   C2B15548  28.430  30.986   8.255
 6559POPC   C3B15549  28.410  30.947   7.955
 6559POPC   C4B15550  28.376  30.962   7.655
 6560POPC   NC315551  17.480  25.309   9.455
 6560POPC   PO415552  17.484  25.232   9.155
 6560POPC   GL115553  17.541  25.242   8.855
 6560POPC   GL215554  17.587  25.283   8.855
 6560POPC   C1A15555  17.464  25.287   8.555
 6560POPC   D2A15556  17.464  25.216   8.255
 6560POPC   C3A15557  17.478  25.276   7.955
 6560POPC   C4A15558  17.530  25.265   7.655
 6560POPC   C1B15559  17.794  25.244   8.555
 6560POPC   C2B15560  17.770  25.325   8.255
 6560POPC   C3B15561  17.714  25.325   7.955
 6560POPC   C4B15562  17.736  25.302   7.655
 6561POPC   NC315563  42.306  12.872   9.455
 6561POPC   PO415564  42.361  12.863   9.155
 6561POPC   GL115565  42.374  12.856   8.855
 6561POPC   GL215566  42.304  12.759   8.855
 6561POPC   C1A15567  42.292  12.886   8.555
 6561POPC   D2A15568  42.379  12.870   8.255
 6561POPC   C3A15569  42.285  12.871   7.955
 6561POPC   C4A15570  42.367  12.897   7.655
 6561POPC   C1B15571  42.334  12.556   8.555
 6561POPC   C2B15572  42.417  12.579   8.255
 6561POPC   C3B15573  42.355  12.618   7.955
 6561POPC   C4B15574  42.337  12.627   7.655
 6562POPC   NC315575   8.210  11.317   9.455
 6562POPC   PO415576   8.211  11.288   9.155
 6562POPC   GL115577   8.238  11.287   8.855
 6562POPC   GL215578   8.213  11.423   8.855
 6562POPC   C1A15579   8.165  11.341   8.555
 6562POPC   D2A15580   8.173  11.289   8.255
 6562POPC   C3A15581   8.175  11.270   7.955
 6562POPC   C4A15582   8.161  11.272   7.655
 6562POPC   C1B15583   8.245  11.537   8.555
 6562POPC   C2B15584   8.270  11.513   8.255
 6562POPC   C3B15585   8.263  11.497   7.955
 6562POPC   C4B15586   8.215  11.523   7.655
 6563POPC   NC315587  28.377  43.840   9.455
 6563POPC   PO415588  28.399  43.923   9.155
 6563POPC   GL115589  28.383  43.870   8.855
 6563POPC   GL215590  28.265  43.862   8.855
 6563POPC   C1A15591  28.349  43.936   8.555
 6563POPC   D2A15592  28.404  43.929   8.255
 6563POPC   C3A15593  28.347  43.928   7.955
 6563POPC   C4A15594  28.389  43.891   7.655
 6563POPC   C1B15595  28.137  43.901   8.555
 6563POPC   C2B15596  28.161  43.871   8.255
 6563POPC   C3B15597  28.145  43.820   7.955
 6563POPC   C4B15598  28.116  43.845   7.655
 6564POPC   NC315599  42.355  32.280   9.455
 6564POPC   PO415600  42.347  32.236   9.155
 6564POPC   GL115601  42.309  32.201   8.855
 6564POPC   GL215602  42.254  32.318   8.855
 6564POPC   C1A15603  42.380  32.221   8.555
 6564POPC   D2A15604  42.296  32.260   8.255
 6564POPC   C3A15605  42.293  32.258   7.955
 6564POPC   C4A15606  42.313  32.253   7.655
 6564POPC   C1B15607  42.150  32.396   8.555
 6564POPC   C2B15608  42.155  32.466   8.255
 6564POPC   C3B15609  42.203  32.396   7.955
 6564POPC   C4B15610  42.215  32.394   7.655
 6565POPC   NC315611   2.772  36.911   9.455
 6565POPC   PO415612   2.748  36.926   9.155
 6565POPC   GL115613   2.787  36.925   8.855
 6565POPC   GL215614   2.683  36.960   8.855
 6565POPC   C1A15615   2.766  36.891   8.555
 6565POPC   D2A15616   2.749  36.897   8.255
 6565POPC   C3A15617   2.814  36.923   7.955
 6565POPC   C4A15618   2.728  36.866   7.655
 6565POPC   C1B15619   2.594  37.086   8.555
 6565POPC   C2B15620   2.602  37.051   8.255
 6565POPC   C3B15621   2.534  37.077   7.955
 6565POPC   C4B15622   2.630  37.072   7.655
 6566POPC   NC315623  12.885  20.592   9.455
 6566POPC   PO415624  12.838  20.599   9.155
 6566POPC   GL115625  12.805  20.615   8.855
 6566POPC   GL215626  12.930  20.553   8.855
 6566POPC   C1A15627  12.854  20.573   8.555
 6566POPC   D2A15628  12.869  20.651   8.255
 6566POPC   C3A15629  12.843  20.574   7.955
 6566POPC   C4A15630  12.857  20.639   7.655
 6566POPC   C1B15631  13.113  20.544   8.555
 6566POPC   C2B15632  13.071  20.577   8.255
 6566POPC   C3B15633  13.100  20.535   7.955
 6566POPC   C4B15634  13.092  20.545   7.655
 6567POPC   NC315635  28.407  20.611   9.455
 6567POPC   PO415636  28.398  20.610   9.155
 6567POPC   GL115637  28.389  20.653   8.855
 6567POPC   GL215638  28.298  20.752   8.855
 6567POPC   C1A15639  28.344  20.581   8.555
 6567POPC   D2A15640  28.342  20.563   8.255
 6567POPC   C3A15641  28.414  20.640   7.955
 6567POPC   C4A15642  28.398  20.587   7.655
 6567POPC   C1B15643  28.200  20.833   8.555
 6567POPC   C2B15644  28.178  20.819   8.255
 6567POPC   C3B15645  28.227  20.778   7.955
 6567POPC   C4B15646  28.169  20.750   7.655
 6568POPC   NC315647  40.761  36.081   9.455
 6568POPC   PO415648  40.764  36.111   9.155
 6568POPC   GL115649  40.744  36.141   8.855
 6568POPC   GL215650  40.868  36.183   8.855
 6568POPC   C1A15651  40.741  36.104   8.555
 6568POPC   D2A15652  40.763  36.116   8.255
 6568POPC   C3A15653  40.736  36.146   7.955
 6568POPC   C4A15654  40.736  36.138   7.655
 6568POPC   C1B15655  41.010  36.146   8.555
 6568POPC   C2B15656  41.029  36.222   8.255
 6568POPC   C3B15657  41.075  36.127   7.955
 6568POPC   C4B15658  41.046  36.130   7.655
 6569POPC   NC315659   8.984  44.640   9.455
 6569POPC   PO415660   8.969  44.682   9.155
 6569POPC   GL115661   8.993  44.677   8.855
 6569POPC   GL215662   8.855  44.568   8.855
 6569POPC   C1A15663   8.957  44.688   8.555
 6569POPC   D2A15664   8.928  44.630   8.255
 6569POPC   C3A15665   8.938  44.690   7.955
 6569POPC   C4A15666   9.005  44.710   7.655
 6569POPC   C1B15667   8.759  44.476   8.555
 6569POPC   C2B15668   8.734  44.561   8.255
 6569POPC   C3B15669   8.804  44.488   7.955
 6569POPC   C4B15670   8.742  44.554   7.655
 6570POPC   NC315671  22.902  15.154   9.455
 6570POPC   PO415672  22.937  15.219   9.155
 6570POPC   GL115673  22.922  15.212   8.855
 6570POPC   GL215674  22.968  15.077   8.855
 6570POPC   C1A15675  22.938  15.215   8.555
 6570POPC   D2A15676  22.934  15.189   8.255
 6570POPC   C3A15677  22.921  15.201   7.955
 6570POPC   C4A15678  22.918  15.202   7.655
 6570POPC   C1B15679  23.019  14.949   8.555
 6570POPC   C2B15680  23.002  14.917   8.255
 6570POPC   C3B15681  22.936  14.888   7.955
 6570POPC   C4B15682  22.962  14.941   7.655
 6571POPC   NC315683  37.634  17.469   9.455
 6571POPC   PO415684  37.648  17.476   9.155
 6571POPC   GL115685  37.657  17.557   8.855
 6571POPC   GL215686  37.727  17.676   8.855
 6571POPC   C1A15687  37.716  17.532   8.555
 6571POPC   D2A15688  37.652  17.483   8.255
 6571POPC   C3A15689  37.720  17.488   7.955
 6571POPC   C4A15690  37.700  17.555   7.655
 6571POPC   C1B15691  37.745  17.722   8.555
 6571POPC   C2B15692  37.772  17.753   8.255
 6571POPC   C3B15693  37.791  17.759   7.955
 6571POPC   C4B15694  37.743  17.772   7.655
 6572POPC   NC315695  36.921  31.482   9.455
 6572POPC   PO415696  36.924  31.488   9.155
 6572POPC   GL115697  36.905  31.474   8.855
 6572POPC   GL215698  37.025  31.458   8.855
 6572POPC   C1A15699  36.862  31.452   8.555
 6572POPC   D2A15700  36.924  31.489   8.255
 6572POPC   C3A15701  36.939  31.456   7.955
 6572POPC   C4A15702  36.932  31.473   7.655
 6572POPC   C1B15703  37.116  31.465   8.555
 6572POPC   C2B15704  37.115  31.507   8.255
 6572POPC   C3B15705  37.185  31.513   7.955
 6572POPC   C4B15706  37.181  31.476   7.655
 6573POPC   NC315707  26.849  14.451   9.455
 6573POPC   PO415708  26.810  14.375   9.155
 6573POPC   GL115709  26.777  14.426   8.855
 6573POPC   GL215710  26.914  14.523   8.855
 6573POPC   C1A15711  26.778  14.430   8.555
 6573POPC   D2A15712  26.807  14.376   8.255
 6573POPC   C3A15713  26.856  14.395   7.955
 6573POPC   C4A15714  26.857  14.371   7.655
 6573POPC   C1B15715  26.953  14.605   8.555
 6573POPC   C2B15716  26.992  14.561   8.255
 6573POPC   C3B15717  26.937  14.634   7.955
 6573POPC   C4B15718  26.996  14.545   7.655
 6574POPC   NC315719  21.415   8.937   9.455
 6574POPC   PO415720  21.352   8.963   9.155
 6574POPC   GL115721  21.375   8.934   8.855
 6574POPC   GL215722  21.381   9.102   8.855
 6574POPC   C1A15723  21.352   8.967   8.555
 6574POPC   D2A15724  21.376   8.987   8.255
 6574POPC   C3A15725  21.421   8.969   7.955
 6574POPC   C4A15726  21.419   9.011   7.655
 6574POPC   C1B15727  21.380   9.182   8.555
 6574POPC   C2B15728  21.400   9.176   8.255
 6574POPC   C3B15729  21.461   9.264   7.955
 6574POPC   C4B15730  21.406   9.247   7.655
 6575POPC   NC315731  17.552  15.990   9.455
 6575POPC   PO415732  17.491  15.949   9.155
 6575POPC   GL115733  17.464  15.910   8.855
 6575POPC   GL215734  17.362  15.934   8.855
 6575POPC   C1A15735  17.467  15.926   8.555
 6575POPC   D2A15736  17.484  15.983   8.255
 6575POPC   C3A15737  17.472  15.998   7.955
 6575POPC   C4A15738  17.512  15.929   7.655
 6575POPC   C1B15739  17.244  15.839   8.555
 6575POPC   C2B15740  17.316  15.877   8.255
 6575POPC   C3B15741  17.238  15.880   7.955
 6575POPC   C4B15742  17.280  15.814   7.655
 6576POPC   NC315743  20.585   8.228   9.455
 6576POPC   PO415744  20.633   8.184   9.155
 6576POPC   GL115745  20.579   8.198   8.855
 6576POPC   GL215746  20.761   8.129   8.855
 6576POPC   C1A15747  20.585   8.154   8.555
 6576POPC   D2A15748  20.622   8.194   8.255
 6576POPC   C3A15749  20.578   8.194   7.955
 6576POPC   C4A15750  20.649   8.221   7.655
 6576POPC   C1B15751  20.824   8.154   8.555
 6576POPC   C2B15752  20.862   8.106   8.255
 6576POPC   C3B15753  20.867   8.082   7.955
 6576POPC   C4B15754  20.833   8.168   7.655
 6577POPC   NC315755  24.482  43.084   9.455
 6577POPC   PO415756  24.483  43.116   9.155
 6577POPC   GL115757  24.530  43.158   8.855
 6577POPC   GL215758  24.371  43.160   8.855
 6577POPC   C1A15759  24.480  43.121   8.555
 6577POPC   D2A15760  24.511  43.145   8.255
 6577POPC   C3A15761  24.472  43.148   7.955
 6577POPC   C4A15762  24.442  43.093   7.655
 6577POPC   C1B15763  24.277  43.265   8.555
 6577POPC   C2B15764  24.276  43.256   8.255
 6577POPC   C3B15765  24.247  43.277   7.955
 6577POPC   C4B15766  24.329  43.251   7.655
 6578POPC   NC315767  17.526  12.849   9.455
 6578POPC   PO415768  17.533  12.829   9.155
 6578POPC   GL115769  17.503  12.819   8.855
 6578POPC   GL215770  17.482  12.710   8.855
 6578POPC   C1A15771  17.472  12.846   8.555
 6578POPC   D2A15772  17.547  12.831   8.255
 6578POPC   C3A15773  17.468  12.854   7.955
 6578POPC   C4A15774  17.462  12.837   7.655
 6578POPC   C1B15775  17.416  12.597   8.555
 6578POPC   C2B15776  17.377  12.656   8.255
 6578POPC   C3B15777  17.425  12.636   7.955
 6578POPC   C4B15778  17.372  12.651   7.655
 6579POPC   NC315779  19.857  35.316   9.455
 6579POPC   PO415780  19.811  35.345   9.155
 6579POPC   GL115781  19.798  35.400   8.855
 6579POPC   GL215782  19.723  35.251   8.855
 6579POPC   C1A15783  19.807  35.322   8.555
 6579POPC   D2A15784  19.862  35.362   8.255
 6579POPC   C3A15785  19.842  35.339   7.955
 6579POPC   C4A15786  19.859  35.313   7.655
 6579POPC   C1B15787  19.645  35.193   8.555
 6579POPC   C2B15788  19.643  35.269   8.255
 6579POPC   C3B15789  19.565  35.225   7.955
 6579POPC   C4B15790  19.571  35.196   7.655
 6580POPC   NC315791  42.311  38.480   9.455
 6580POPC   PO415792  42.367  38.501   9.155
 6580POPC   GL115793  42.353  38.450   8.855
 6580POPC   GL215794  42.484  38.455   8.855
 6580POPC   C1A15795  42.321  38.425   8.555
 6580POPC   D2A15796  42.290  38.438   8.255
 6580POPC   C3A15797  42.293  38.420   7.955
 6580POPC   C4A15798  42.303  38.444   7.655
 6580POPC   C1B15799  42.612  38.565   8.555
 6580POPC   C2B15800  42.563  38.497   8.255
 6580POPC   C3B15801  42.575  38.498   7.955
 6580POPC   C4B15802  42.600  38.524   7.655
 6581POPC   NC315803  21.358   6.614   9.455
 6581POPC   PO415804  21.412   6.682   9.155
 6581POPC   GL115805  21.409   6.614   8.855
 6581POPC   GL215806  21.334   6.728   8.855
 6581POPC   C1A15807  21.399   6.657   8.555
 6581POPC   D2A15808  21.391   6.680   8.255
 6581POPC   C3A15809  21.397   6.677   7.955
 6581POPC   C4A15810  21.343   6.656   7.655
 6581POPC   C1B15811  21.254   6.842   8.555
 6581POPC   C2B15812  21.224   6.860   8.255
 6581POPC   C3B15813  21.228   6.842   7.955
 6581POPC   C4B15814  21.298   6.828   7.655
 6582POPC   NC315815  17.552  42.313   9.455
 6582POPC   PO415816  17.487  42.301   9.155
 6582POPC   GL115817  17.518  42.347   8.855
 6582POPC   GL215818  17.350  42.385   8.855
 6582POPC   C1A15819  17.550  42.300   8.555
 6582POPC   D2A15820  17.510  42.378   8.255
 6582POPC   C3A15821  17.531  42.362   7.955
 6582POPC   C4A15822  17.548  42.297   7.655
 6582POPC   C1B15823  17.226  42.382   8.555
 6582POPC   C2B15824  17.304  42.404   8.255
 6582POPC   C3B15825  17.303  42.410   7.955
 6582POPC   C4B15826  17.261  42.441   7.655
 6583POPC   NC315827  28.363  37.637   9.455
 6583POPC   PO415828  28.346  37.716   9.155
 6583POPC   GL115829  28.333  37.694   8.855
 6583POPC   GL215830  28.414  37.817   8.855
 6583POPC   C1A15831  28.407  37.652   8.555
 6583POPC   D2A15832  28.360  37.690   8.255
 6583POPC   C3A15833  28.358  37.660   7.955
 6583POPC   C4A15834  28.361  37.682   7.655
 6583POPC   C1B15835  28.407  37.895   8.555
 6583POPC   C2B15836  28.403  37.950   8.255
 6583POPC   C3B15837  28.434  37.871   7.955
 6583POPC   C4B15838  28.408  37.952   7.655
 6584POPC   NC315839  25.223   3.500   9.455
 6584POPC   PO415840  25.271   3.529   9.155
 6584POPC   GL115841  25.311   3.537   8.855
 6584POPC   GL215842  25.389   3.434   8.855
 6584POPC   C1A15843  25.232   3.521   8.555
 6584POPC   D2A15844  25.287   3.578   8.255
 6584POPC   C3A15845  25.238   3.557   7.955
 6584POPC   C4A15846  25.229   3.505   7.655
 6584POPC   C1B15847  25.402   3.381   8.555
 6584POPC   C2B15848  25.446   3.366   8.255
 6584POPC   C3B15849  25.417   3.328   7.955
 6584POPC   C4B15850  25.412   3.353   7.655
 6585POPC   NC315851  35.389  21.358   9.455
 6585POPC   PO415852  35.309  21.399   9.155
 6585POPC   GL115853  35.357  21.433   8.855
 6585POPC   GL215854  35.468  21.298   8.855
 6585POPC   C1A15855  35.378  21.387   8.555
 6585POPC   D2A15856  35.356  21.369   8.255
 6585POPC   C3A15857  35.386  21.433   7.955
 6585POPC   C4A15858  35.351  21.413   7.655
 6585POPC   C1B15859  35.541  21.267   8.555
 6585POPC   C2B15860  35.517  21.199   8.255
 6585POPC   C3B15861  35.545  21.229   7.955
 6585POPC   C4B15862  35.584  21.269   7.655
 6586POPC   NC315863  24.504  15.177   9.455
 6586POPC   PO415864  24.449  15.163   9.155
 6586POPC   GL115865  24.451  15.165   8.855
 6586POPC   GL215866  24.331  15.118   8.855
 6586POPC   C1A15867  24.478  15.218   8.555
 6586POPC   D2A15868  24.514  15.215   8.255
 6586POPC   C3A15869  24.532  15.193   7.955
 6586POPC   C4A15870  24.499  15.141   7.655
 6586POPC   C1B15871  24.229  15.175   8.555
 6586POPC   C2B15872  24.219  15.126   8.255
 6586POPC   C3B15873  24.207  15.145   7.955
 6586POPC   C4B15874  24.241  15.161   7.655
 6587POPC   NC315875   9.722   3.556   9.455
 6587POPC   PO415876   9.772   3.578   9.155
 6587POPC   GL115877   9.748   3.513   8.855
 6587POPC   GL215878   9.838   3.493   8.855
 6587POPC   C1A15879   9.780   3.506   8.555
 6587POPC   D2A15880   9.768   3.515   8.255
 6587POPC   C3A15881   9.726   3.498   7.955
 6587POPC   C4A15882   9.744   3.500   7.655
 6587POPC   C1B15883   9.896   3.367   8.555
 6587POPC   C2B15884   9.892   3.407   8.255
 6587POPC   C3B15885   9.947   3.372   7.955
 6587POPC   C4B15886   9.953   3.353   7.655
 6588POPC   NC315887   7.470  19.802   9.455
 6588POPC   PO415888   7.382  19.864   9.155
 6588POPC   GL115889   7.438  19.842   8.855
 6588POPC   GL215890   7.336  19.772   8.855
 6588POPC   C1A15891   7.437  19.815   8.555
 6588POPC   D2A15892   7.463  19.814   8.255
 6588POPC   C3A15893   7.384  19.853   7.955
 6588POPC   C4A15894   7.449  19.811   7.655
 6588POPC   C1B15895   7.188  19.693   8.555
 6588POPC   C2B15896   7.172  19.658   8.255
 6588POPC   C3B15897   7.202  19.667   7.955
 6588POPC   C4B15898   7.194  19.723   7.655
 6589POPC   NC315899  44.686  11.268   9.455
 6589POPC   PO415900  44.662  11.306   9.155
 6589POPC   GL115901  44.639  11.265   8.855
 6589POPC   GL215902  44.779  11.182   8.855
 6589POPC   C1A15903  44.668  11.306   8.555
 6589POPC   D2A15904  44.627  11.315   8.255
 6589POPC   C3A15905  44.615  11.348   7.955
 6589POPC   C4A15906  44.625  11.274   7.655
 6589POPC   C1B15907  44.874  11.180   8.555
 6589POPC   C2B15908  44.811  11.143   8.255
 6589POPC   C3B15909  44.844  11.185   7.955
 6589POPC   C4B15910  44.822  11.190   7.655
 6590POPC   NC315911   3.571  22.128   9.455
 6590POPC   PO415912   3.547  22.150   9.155
 6590POPC   GL115913   3.517  22.121   8.855
 6590POPC   GL215914   3.393  22.094   8.855
 6590POPC   C1A15915   3.498  22.192   8.555
 6590POPC   D2A15916   3.541  22.168   8.255
 6590POPC   C3A15917   3.492  22.131   7.955
 6590POPC   C4A15918   3.531  22.145   7.655
 6590POPC   C1B15919   3.337  22.095   8.555
 6590POPC   C2B15920   3.324  22.008   8.255
 6590POPC   C3B15921   3.295  22.007   7.955
 6590POPC   C4B15922   3.345  22.040   7.655
 6591POPC   NC315923  22.933  12.892   9.455
 6591POPC   PO415924  22.960  12.883   9.155
 6591POPC   GL115925  22.962  12.863   8.855
 6591POPC   GL215926  22.998  12.755   8.855
 6591POPC   C1A15927  22.927  12.852   8.555
 6591POPC   D2A15928  22.982  12.866   8.255
 6591POPC   C3A15929  22.928  12.865   7.955
 6591POPC   C4A15930  22.939  12.847   7.655
 6591POPC   C1B15931  23.020  12.606   8.555
 6591POPC   C2B15932  22.939  12.639   8.255
 6591POPC   C3B15933  22.954  12.576   7.955
 6591POPC   C4B15934  22.981  12.644   7.655
 6592POPC   NC315935   9.786  21.391   9.455
 6592POPC   PO415936   9.797  21.352   9.155
 6592POPC   GL115937   9.725  21.417   8.855
 6592POPC   GL215938   9.617  21.368   8.855
 6592POPC   C1A15939   9.761  21.366   8.555
 6592POPC   D2A15940   9.786  21.353   8.255
 6592POPC   C3A15941   9.709  21.430   7.955
 6592POPC   C4A15942   9.741  21.405   7.655
 6592POPC   C1B15943   9.558  21.354   8.555
 6592POPC   C2B15944   9.482  21.269   8.255
 6592POPC   C3B15945   9.543  21.272   7.955
 6592POPC   C4B15946   9.489  21.263   7.655
 6593POPC   NC315947  31.449  32.256   9.455
 6593POPC   PO415948  31.521  32.248   9.155
 6593POPC   GL115949  31.465  32.294   8.855
 6593POPC   GL215950  31.378  32.318   8.855
 6593POPC   C1A15951  31.455  32.236   8.555
 6593POPC   D2A15952  31.488  32.269   8.255
 6593POPC   C3A15953  31.426  32.280   7.955
 6593POPC   C4A15954  31.521  32.238   7.655
 6593POPC   C1B15955  31.386  32.501   8.555
 6593POPC   C2B15956  31.422  32.435   8.255
 6593POPC   C3B15957  31.350  32.513   7.955
 6593POPC   C4B15958  31.339  32.524   7.655
 6594POPC   NC315959  10.545  43.102   9.455
 6594POPC   PO415960  10.550  43.123   9.155
 6594POPC   GL115961  10.544  43.104   8.855
 6594POPC   GL215962  10.377  43.174   8.855
 6594POPC   C1A15963  10.532  43.145   8.555
 6594POPC   D2A15964  10.512  43.118   8.255
 6594POPC   C3A15965  10.559  43.074   7.955
 6594POPC   C4A15966  10.535  43.158   7.655
 6594POPC   C1B15967  10.278  43.199   8.555
 6594POPC   C2B15968  10.328  43.178   8.255
 6594POPC   C3B15969  10.300  43.154   7.955
 6594POPC   C4B15970  10.301  43.160   7.655
 6595POPC   NC315971  34.610  40.005   9.455
 6595POPC   PO415972  34.576  39.967   9.155
 6595POPC   GL115973  34.562  40.015   8.855
 6595POPC   GL215974  34.627  40.048   8.855
 6595POPC   C1A15975  34.587  40.055   8.555
 6595POPC   D2A15976  34.551  39.988   8.255
 6595POPC   C3A15977  34.588  40.015   7.955
 6595POPC   C4A15978  34.586  39.993   7.655
 6595POPC   C1B15979  34.787  40.166   8.555
 6595POPC   C2B15980  34.764  40.144   8.255
 6595POPC   C3B15981  34.719  40.223   7.955
 6595POPC   C4B15982  34.781  40.151   7.655
 6596POPC   NC315983  39.262  22.129   9.455
 6596POPC   PO415984  39.261  22.142   9.155
 6596POPC   GL115985  39.221  22.201   8.855
 6596POPC   GL215986  39.328  22.113   8.855
 6596POPC   C1A15987  39.206  22.128   8.555
 6596POPC   D2A15988  39.241  22.123   8.255
 6596POPC   C3A15989  39.186  22.181   7.955
 6596POPC   C4A15990  39.262  22.208   7.655
 6596POPC   C1B15991  39.499  22.033   8.555
 6596POPC   C2B15992  39.485  21.999   8.255
 6596POPC   C3B15993  39.401  22.043   7.955
 6596POPC   C4B15994  39.415  22.012   7.655
 6597POPC   NC315995  25.999  33.837   9.455
 6597POPC   PO415996  26.086  33.832   9.155
 6597POPC   GL115997  26.089  33.761   8.855
 6597POPC   GL215998  26.083  33.881   8.855
 6597POPC   C1A15999  26.015  33.825   8.555
 6597POPC   D2A16000  26.052  33.780   8.255
 6597POPC   C3A16001  26.047  33.820   7.955
 6597POPC   C4A16002  26.074  33.823   7.655
 6597POPC   C1B16003  26.181  33.974   8.555
 6597POPC   C2B16004  26.171  33.983   8.255
 6597POPC   C3B16005  26.230  33.974   7.955
 6597POPC   C4B16006  26.231  33.958   7.655
 6598POPC   NC316007  34.608   1.248   9.455
 6598POPC   PO416008  34.595   1.203   9.155
 6598POPC   GL116009  34.526   1.172   8.855
 6598POPC   GL216010  34.678   1.291   8.855
 6598POPC   C1A16011  34.531   1.212   8.555
 6598POPC   D2A16012  34.604   1.240   8.255
 6598POPC   C3A16013  34.602   1.205   7.955
 6598POPC   C4A16014  34.590   1.251   7.655
 6598POPC   C1B16015  34.770   1.374   8.555
 6598POPC   C2B16016  34.721   1.379   8.255
 6598POPC   C3B16017  34.724   1.358   7.955
 6598POPC   C4B16018  34.692   1.399   7.655
 6599POPC   NC316019   7.401  10.560   9.455
 6599POPC   PO416020   7.377  10.540   9.155
 6599POPC   GL116021   7.470  10.571   8.855
 6599POPC   GL216022   7.321  10.640   8.855
 6599POPC   C1A16023   7.467  10.514   8.555
 6599POPC   D2A16024   7.385  10.551   8.255
 6599POPC   C3A16025   7.458  10.492   7.955
 6599POPC   C4A16026   7.422  10.524   7.655
 6599POPC   C1B16027   7.294  10.692   8.555
 6599POPC   C2B16028   7.279  10.775   8.255
 6599POPC   C3B16029   7.324  10.763   7.955
 6599POPC   C4B16030   7.307  10.753   7.655
 6600POPC   NC316031  25.219  31.502   9.455
 6600POPC   PO416032  25.267  31.441   9.155
 6600POPC   GL116033  25.261  31.507   8.855
 6600POPC   GL216034  25.355  31.356   8.855
 6600POPC   C1A16035  25.234  31.432   8.555
 6600POPC   D2A16036  25.223  31.436   8.255
 6600POPC   C3A16037  25.257  31.469   7.955
 6600POPC   C4A16038  25.283  31.434   7.655
 6600POPC   C1B16039  25.362  31.227   8.555
 6600POPC   C2B16040  25.426  31.260   8.255
 6600POPC   C3B16041  25.450  31.311   7.955
 6600POPC   C4B16042  25.366  31.309   7.655
 6601POPC   NC316043   1.238  14.373   9.455
 6601POPC   PO416044   1.237  14.386   9.155
 6601POPC   GL116045   1.178  14.437   8.855
 6601POPC   GL216046   1.152  14.270   8.855
 6601POPC   C1A16047   1.214  14.377   8.555
 6601POPC   D2A16048   1.179  14.400   8.255
 6601POPC   C3A16049   1.257  14.436   7.955
 6601POPC   C4A16050   1.207  14.392   7.655
 6601POPC   C1B16051   1.038  14.217   8.555
 6601POPC   C2B16052   1.109  14.157   8.255
 6601POPC   C3B16053   1.049  14.207   7.955
 6601POPC   C4B16054   1.116  14.206   7.655
 6602POPC   NC316055  43.152  14.381   9.455
 6602POPC   PO416056  43.073  14.391   9.155
 6602POPC   GL116057  43.091  14.411   8.855
 6602POPC   GL216058  43.232  14.362   8.855
 6602POPC   C1A16059  43.065  14.443   8.555
 6602POPC   D2A16060  43.090  14.407   8.255
 6602POPC   C3A16061  43.126  14.373   7.955
 6602POPC   C4A16062  43.110  14.411   7.655
 6602POPC   C1B16063  43.303  14.243   8.555
 6602POPC   C2B16064  43.284  14.290   8.255
 6602POPC   C3B16065  43.311  14.225   7.955
 6602POPC   C4B16066  43.337  14.249   7.655
 6603POPC   NC316067  34.559  40.798   9.455
 6603POPC   PO416068  34.536  40.752   9.155
 6603POPC   GL116069  34.610  40.746   8.855
 6603POPC   GL216070  34.658  40.938   8.855
 6603POPC   C1A16071  34.550  40.760   8.555
 6603POPC   D2A16072  34.529  40.818   8.255
 6603POPC   C3A16073  34.596  40.826   7.955
 6603POPC   C4A16074  34.536  40.829   7.655
 6603POPC   C1B16075  34.645  40.990   8.555
 6603POPC   C2B16076  34.679  41.019   8.255
 6603POPC   C3B16077  34.655  41.049   7.955
 6603POPC   C4B16078  34.669  41.016   7.655
 6604POPC   NC316079   9.774  28.393   9.455
 6604POPC   PO416080   9.753  28.366   9.155
 6604POPC   GL116081   9.750  28.350   8.855
 6604POPC   GL216082   9.889  28.391   8.855
 6604POPC   C1A16083   9.700  28.385   8.555
 6604POPC   D2A16084   9.776  28.385   8.255
 6604POPC   C3A16085   9.728  28.392   7.955
 6604POPC   C4A16086   9.750  28.395   7.655
 6604POPC   C1B16087   9.965  28.439   8.555
 6604POPC   C2B16088  10.034  28.374   8.255
 6604POPC   C3B16089  10.001  28.448   7.955
 6604POPC   C4B16090   9.989  28.461   7.655
 6605POPC   NC316091  25.286  23.731   9.455
 6605POPC   PO416092  25.314  23.694   9.155
 6605POPC   GL116093  25.227  23.738   8.855
 6605POPC   GL216094  25.435  23.685   8.855
 6605POPC   C1A16095  25.234  23.726   8.555
 6605POPC   D2A16096  25.244  23.707   8.255
 6605POPC   C3A16097  25.286  23.743   7.955
 6605POPC   C4A16098  25.231  23.702   7.655
 6605POPC   C1B16099  25.477  23.724   8.555
 6605POPC   C2B16100  25.538  23.713   8.255
 6605POPC   C3B16101  25.529  23.699   7.955
 6605POPC   C4B16102  25.520  23.693   7.655
 6606POPC   NC316103   0.398  31.510   9.455
 6606POPC   PO416104   0.418  31.456   9.155
 6606POPC   GL116105   0.403  31.441   8.855
 6606POPC   GL216106   0.440  31.332   8.855
 6606POPC   C1A16107   0.457  31.468   8.555
 6606POPC   D2A16108   0.404  31.509   8.255
 6606POPC   C3A16109   0.467  31.508   7.955
 6606POPC   C4A16110   0.390  31.481   7.655
 6606POPC   C1B16111   0.398  31.263   8.555
 6606POPC   C2B16112   0.369  31.215   8.255
 6606POPC   C3B16113   0.383  31.201   7.955
 6606POPC   C4B16114   0.369  31.195   7.655
 6607POPC   NC316115  11.282   5.115   9.455
 6607POPC   PO416116  11.331   5.100   9.155
 6607POPC   GL116117  11.333   5.081   8.855
 6607POPC   GL216118  11.354   5.008   8.855
 6607POPC   C1A16119  11.257   5.117   8.555
 6607POPC   D2A16120  11.316   5.104   8.255
 6607POPC   C3A16121  11.331   5.082   7.955
 6607POPC   C4A16122  11.341   5.049   7.655
 6607POPC   C1B16123  11.474   4.972   8.555
 6607POPC   C2B16124  11.485   4.936   8.255
 6607POPC   C3B16125  11.515   4.942   7.955
 6607POPC   C4B16126  11.477   4.887   7.655
 6608POPC   NC316127  28.332  33.841   9.455
 6608POPC   PO416128  28.398  33.771   9.155
 6608POPC   GL116129  28.402  33.752   8.855
 6608POPC   GL216130  28.323  33.837   8.855
 6608POPC   C1A16131  28.396  33.775   8.555
 6608POPC   D2A16132  28.396  33.816   8.255
 6608POPC   C3A16133  28.416  33.756   7.955
 6608POPC   C4A16134  28.380  33.764   7.655
 6608POPC   C1B16135  28.161  34.012   8.555
 6608POPC   C2B16136  28.211  33.946   8.255
 6608POPC   C3B16137  28.173  33.928   7.955
 6608POPC   C4B16138  28.200  34.005   7.655
 6609POPC   NC316139  19.786  36.143   9.455
 6609POPC   PO416140  19.867  36.157   9.155
 6609POPC   GL116141  19.831  36.140   8.855
 6609POPC   GL216142  19.945  36.116   8.855
 6609POPC   C1A16143  19.883  36.089   8.555
 6609POPC   D2A16144  19.797  36.139   8.255
 6609POPC   C3A16145  19.845  36.129   7.955
 6609POPC   C4A16146  19.884  36.092   7.655
 6609POPC   C1B16147  20.016  36.026   8.555
 6609POPC   C2B16148  20.035  35.972   8.255
 6609POPC   C3B16149  20.088  35.970   7.955
 6609POPC   C4B16150  20.082  36.068   7.655
 6610POPC   NC316151  11.257  43.860   9.455
 6610POPC   PO416152  11.288  43.914   9.155
 6610POPC   GL116153  11.348  43.921   8.855
 6610POPC   GL216154  11.193  43.877   8.855
 6610POPC   C1A16155  11.336  43.911   8.555
 6610POPC   D2A16156  11.273  43.921   8.255
 6610POPC   C3A16157  11.305  43.855   7.955
 6610POPC   C4A16158  11.320  43.934   7.655
 6610POPC   C1B16159  11.091  43.865   8.555
 6610POPC   C2B16160  11.084  43.929   8.255
 6610POPC   C3B16161  11.085  43.906   7.955
 6610POPC   C4B16162  11.041  43.881   7.655
 6611POPC   NC316163  31.460  22.941   9.455
 6611POPC   PO416164  31.510  22.900   9.155
 6611POPC   GL116165  31.458  22.889   8.855
 6611POPC   GL216166  31.394  23.032   8.855
 6611POPC   C1A16167  31.471  22.933   8.555
 6611POPC   D2A16168  31.501  22.975   8.255
 6611POPC   C3A16169  31.445  22.893   7.955
 6611POPC   C4A16170  31.513  22.958   7.655
 6611POPC   C1B16171  31.282  23.105   8.555
 6611POPC   C2B16172  31.294  23.123   8.255
 6611POPC   C3B16173  31.234  23.110   7.955
 6611POPC   C4B16174  31.276  23.147   7.655
 6612POPC   NC316175   1.203   6.692   9.455
 6612POPC   PO416176   1.189   6.660   9.155
 6612POPC   GL116177   1.221   6.624   8.855
 6612POPC   GL216178   1.315   6.711   8.855
 6612POPC   C1A16179   1.182   6.656   8.555
 6612POPC   D2A16180   1.191   6.597   8.255
 6612POPC   C3A16181   1.168   6.648   7.955
 6612POPC   C4A16182   1.205   6.650   7.655
 6612POPC   C1B16183   1.406   6.873   8.555
 6612POPC   C2B16184   1.353   6.798   8.255
 6612POPC   C3B16185   1.410   6.836   7.955
 6612POPC   C4B16186   1.428   6.787   7.655
 6613POPC   NC316187  17.536  34.579   9.455
 6613POPC   PO416188  17.547  34.625   9.155
 6613POPC   GL116189  17.537  34.574   8.855
 6613POPC   GL216190  17.515  34.496   8.855
 6613POPC   C1A16191  17.497  34.614   8.555
 6613POPC   D2A16192  17.466  34.528   8.255
 6613POPC   C3A16193  17.460  34.610   7.955
 6613POPC   C4A16194  17.501  34.563   7.655
 6613POPC   C1B16195  17.554  34.376   8.555
 6613POPC   C2B16196  17.554  34.292   8.255
 6613POPC   C3B16197  17.537  34.374   7.955
 6613POPC   C4B16198  17.548  34.334   7.655
 6614POPC   NC316199  36.143  25.239   9.455
 6614POPC   PO416200  36.128  25.301   9.155
 6614POPC   GL116201  36.115  25.287   8.855
 6614POPC   GL216202  36.135  25.412   8.855
 6614POPC   C1A16203  36.177  25.302   8.555
 6614POPC   D2A16204  36.136  25.216   8.255
 6614POPC   C3A16205  36.139  25.286   7.955
 6614POPC   C4A16206  36.137  25.222   7.655
 6614POPC   C1B16207  36.190  25.464   8.555
 6614POPC   C2B16208  36.150  25.497   8.255
 6614POPC   C3B16209  36.197  25.517   7.955
 6614POPC   C4B16210  36.173  25.531   7.655
 6615POPC   NC316211   1.985   6.597   9.455
 6615POPC   PO416212   1.950   6.613   9.155
 6615POPC   GL116213   2.032   6.665   8.855
 6615POPC   GL216214   1.987   6.489   8.855
 6615POPC   C1A16215   1.983   6.598   8.555
 6615POPC   D2A16216   1.949   6.623   8.255
 6615POPC   C3A16217   1.942   6.608   7.955
 6615POPC   C4A16218   1.999   6.646   7.655
 6615POPC   C1B16219   2.051   6.420   8.555
 6615POPC   C2B16220   2.052   6.437   8.255
 6615POPC   C3B16221   2.090   6.450   7.955
 6615POPC   C4B16222   2.055   6.355   7.655
 6616POPC   NC316223  16.705   1.212   9.455
 6616POPC   PO416224  16.719   1.231   9.155
 6616POPC   GL116225  16.755   1.239   8.855
 6616POPC   GL216226  16.739   1.368   8.855
 6616POPC   C1A16227  16.779   1.192   8.555
 6616POPC   D2A16228  16.711   1.237   8.255
 6616POPC   C3A16229  16.752   1.214   7.955
 6616POPC   C4A16230  16.779   1.194   7.655
 6616POPC   C1B16231  16.703   1.479   8.555
 6616POPC   C2B16232  16.673   1.503   8.255
 6616POPC   C3B16233  16.740   1.433   7.955
 6616POPC   C4B16234  16.702   1.419   7.655
 6617POPC   NC316235  17.541   2.765   9.455
 6617POPC   PO416236  17.525   2.728   9.155
 6617POPC   GL116237  17.541   2.777   8.855
 6617POPC   GL216238  17.429   2.737   8.855
 6617POPC   C1A16239  17.471   2.740   8.555
 6617POPC   D2A16240  17.525   2.763   8.255
 6617POPC   C3A16241  17.547   2.775   7.955
 6617POPC   C4A16242  17.495   2.770   7.655
 6617POPC   C1B16243  17.243   2.801   8.555
 6617POPC   C2B16244  17.260   2.735   8.255
 6617POPC   C3B16245  17.278   2.806   7.955
 6617POPC   C4B16246  17.223   2.727   7.655
 6618POPC   NC316247  23.745  31.455   9.455
 6618POPC   PO416248  23.757  31.518   9.155
 6618POPC   GL116249  23.752  31.501   8.855
 6618POPC   GL216250  23.765  31.535   8.855
 6618POPC   C1A16251  23.722  31.441   8.555
 6618POPC   D2A16252  23.704  31.481   8.255
 6618POPC   C3A16253  23.740  31.493   7.955
 6618POPC   C4A16254  23.755  31.502   7.655
 6618POPC   C1B16255  23.794  31.671   8.555
 6618POPC   C2B16256  23.849  31.692   8.255
 6618POPC   C3B16257  23.882  31.654   7.955
 6618POPC   C4B16258  23.801  31.715   7.655
 6619POPC   NC316259  43.070  25.303   9.455
 6619POPC   PO416260  43.128  25.286   9.155
 6619POPC   GL116261  43.122  25.225   8.855
 6619POPC   GL216262  43.043  25.337   8.855
 6619POPC   C1A16263  43.134  25.273   8.555
 6619POPC   D2A16264  43.158  25.281   8.255
 6619POPC   C3A16265  43.069  25.288   7.955
 6619POPC   C4A16266  43.133  25.278   7.655
 6619POPC   C1B16267  43.034  25.510   8.555
 6619POPC   C2B16268  43.002  25.447   8.255
 6619POPC   C3B16269  42.989  25.494   7.955
 6619POPC   C4B16270  43.002  25.447   7.655
 6620POPC   NC316271  32.231  19.845   9.455
 6620POPC   PO416272  32.251  19.837   9.155
 6620POPC   GL116273  32.279  19.791   8.855
 6620POPC   GL216274  32.156  19.894   8.855
 6620POPC   C1A16275  32.258  19.838   8.555
 6620POPC   D2A16276  32.221  19.815   8.255
 6620POPC   C3A16277  32.216  19.879   7.955
 6620POPC   C4A16278  32.245  19.817   7.655
 6620POPC   C1B16279  32.039  19.935   8.555
 6620POPC   C2B16280  32.025  19.947   8.255
 6620POPC   C3B16281  32.049  19.976   7.955
 6620POPC   C4B16282  32.032  19.961   7.655
 6621POPC   NC316283  37.693  35.369   9.455
 6621POPC   PO416284  37.649  35.395   9.155
 6621POPC   GL116285  37.704  35.325   8.855
 6621POPC   GL216286  37.619  35.442   8.855
 6621POPC   C1A16287  37.664  35.392   8.555
 6621POPC   D2A16288  37.718  35.351   8.255
 6621POPC   C3A16289  37.685  35.352   7.955
 6621POPC   C4A16290  37.687  35.364   7.655
 6621POPC   C1B16291  37.639  35.640   8.555
 6621POPC   C2B16292  37.695  35.590   8.255
 6621POPC   C3B16293  37.661  35.636   7.955
 6621POPC   C4B16294  37.599  35.576   7.655
 6622POPC   NC316295  34.622  43.880   9.455
 6622POPC   PO416296  34.555  43.912   9.155
 6622POPC   GL116297  34.542  43.839   8.855
 6622POPC   GL216298  34.584  43.984   8.855
 6622POPC   C1A16299  34.592  43.845   8.555
 6622POPC   D2A16300  34.591  43.933   8.255
 6622POPC   C3A16301  34.607  43.921   7.955
 6622POPC   C4A16302  34.617  43.875   7.655
 6622POPC   C1B16303  34.527  44.167   8.555
 6622POPC   C2B16304  34.494  44.102   8.255
 6622POPC   C3B16305  34.527  44.160   7.955
 6622POPC   C4B16306  34.540  44.160   7.655
 6623POPC   NC316307  27.611  39.244   9.455
 6623POPC   PO416308  27.549  39.204   9.155
 6623POPC   GL116309  27.633  39.228   8.855
 6623POPC   GL216310  27.592  39.140   8.855
 6623POPC   C1A16311  27.638  39.223   8.555
 6623POPC   D2A16312  27.602  39.192   8.255
 6623POPC   C3A16313  27.571  39.243   7.955
 6623POPC   C4A16314  27.582  39.188   7.655
 6623POPC   C1B16315  27.592  38.984   8.555
 6623POPC   C2B16316  27.564  38.939   8.255
 6623POPC   C3B16317  27.560  38.999   7.955
 6623POPC   C4B16318  27.612  39.031   7.655
 6624POPC   NC316319   4.268  33.024   9.455
 6624POPC   PO416320   4.274  33.047   9.155
 6624POPC   GL116321   4.326  33.021   8.855
 6624POPC   GL216322   4.290  32.876   8.855
 6624POPC   C1A16323   4.342  33.045   8.555
 6624POPC   D2A16324   4.291  32.982   8.255
 6624POPC   C3A16325   4.320  33.009   7.955
 6624POPC   C4A16326   4.300  33.068   7.655
 6624POPC   C1B16327   4.343  32.798   8.555
 6624POPC   C2B16328   4.350  32.767   8.255
 6624POPC   C3B16329   4.353  32.826   7.955
 6624POPC   C4B16330   4.344  32.780   7.655
 6625POPC   NC316331  19.871   6.649   9.455
 6625POPC   PO416332  19.823   6.663   9.155
 6625POPC   GL116333  19.795   6.691   8.855
 6625POPC   GL216334  19.772   6.605   8.855
 6625POPC   C1A16335  19.862   6.615   8.555
 6625POPC   D2A16336  19.847   6.654   8.255
 6625POPC   C3A16337  19.864   6.627   7.955
 6625POPC   C4A16338  19.877   6.671   7.655
 6625POPC   C1B16339  19.636   6.488   8.555
 6625POPC   C2B16340  19.644   6.520   8.255
 6625POPC   C3B16341  19.631   6.536   7.955
 6625POPC   C4B16342  19.594   6.539   7.655
 6626POPC   NC316343  38.407  30.690   9.455
 6626POPC   PO416344  38.451  30.738   9.155
 6626POPC   GL116345  38.424  30.714   8.855
 6626POPC   GL216346  38.458  30.622   8.855
 6626POPC   C1A16347  38.423  30.733   8.555
 6626POPC   D2A16348  38.463  30.676   8.255
 6626POPC   C3A16349  38.443  30.667   7.955
 6626POPC   C4A16350  38.488  30.742   7.655
 6626POPC   C1B16351  38.354  30.430   8.555
 6626POPC   C2B16352  38.404  30.425   8.255
 6626POPC   C3B16353  38.437  30.432   7.955
 6626POPC   C4B16354  38.400  30.497   7.655
 6627POPC   NC316355  37.674  28.400   9.455
 6627POPC   PO416356  37.711  28.369   9.155
 6627POPC   GL116357  37.658  28.337   8.855
 6627POPC   GL216358  37.757  28.463   8.855
 6627POPC   C1A16359  37.706  28.320   8.555
 6627POPC   D2A16360  37.691  28.366   8.255
 6627POPC   C3A16361  37.693  28.405   7.955
 6627POPC   C4A16362  37.725  28.392   7.655
 6627POPC   C1B16363  37.901  28.512   8.555
 6627POPC   C2B16364  37.876  28.506   8.255
 6627POPC   C3B16365  37.909  28.509   7.955
 6627POPC   C4B16366  37.881  28.532   7.655
 6628POPC   NC316367  13.665  26.006   9.455
 6628POPC   PO416368  13.584  26.025   9.155
 6628POPC   GL116369  13.621  26.002   8.855
 6628POPC   GL216370  13.539  25.969   8.855
 6628POPC   C1A16371  13.584  26.015   8.555
 6628POPC   D2A16372  13.669  26.027   8.255
 6628POPC   C3A16373  13.582  26.062   7.955
 6628POPC   C4A16374  13.669  26.088   7.655
 6628POPC   C1B16375  13.445  25.918   8.555
 6628POPC   C2B16376  13.425  25.927   8.255
 6628POPC   C3B16377  13.431  25.908   7.955
 6628POPC   C4B16378  13.438  25.928   7.655
 6629POPC   NC316379  43.118  34.625   9.455
 6629POPC   PO416380  43.146  34.559   9.155
 6629POPC   GL116381  43.158  34.609   8.855
 6629POPC   GL216382  43.181  34.612   8.855
 6629POPC   C1A16383  43.081  34.594   8.555
 6629POPC   D2A16384  43.116  34.580   8.255
 6629POPC   C3A16385  43.106  34.527   7.955
 6629POPC   C4A16386  43.131  34.554   7.655
 6629POPC   C1B16387  43.368  34.672   8.555
 6629POPC   C2B16388  43.386  34.633   8.255
 6629POPC   C3B16389  43.314  34.676   7.955
 6629POPC   C4B16390  43.372  34.660   7.655
 6630POPC   NC316391   3.525  15.166   9.455
 6630POPC   PO416392   3.520  15.207   9.155
 6630POPC   GL116393   3.539  15.158   8.855
 6630POPC   GL216394   3.473  15.245   8.855
 6630POPC   C1A16395   3.588  15.226   8.555
 6630POPC   D2A16396   3.543  15.205   8.255
 6630POPC   C3A16397   3.590  15.133   7.955
 6630POPC   C4A16398   3.568  15.196   7.655
 6630POPC   C1B16399   3.408  15.393   8.555
 6630POPC   C2B16400   3.439  15.377   8.255
 6630POPC   C3B16401   3.388  15.406   7.955
 6630POPC   C4B16402   3.385  15.341   7.655
 6631POPC   NC316403  20.619  21.399   9.455
 6631POPC   PO416404  20.617  21.398   9.155
 6631POPC   GL116405  20.565  21.382   8.855
 6631POPC   GL216406  20.697  21.382   8.855
 6631POPC   C1A16407  20.648  21.407   8.555
 6631POPC   D2A16408  20.657  21.356   8.255
 6631POPC   C3A16409  20.656  21.385   7.955
 6631POPC   C4A16410  20.645  21.384   7.655
 6631POPC   C1B16411  20.887  21.462   8.555
 6631POPC   C2B16412  20.879  21.479   8.255
 6631POPC   C3B16413  20.862  21.473   7.955
 6631POPC   C4B16414  20.858  21.435   7.655
 6632POPC   NC316415  29.109  33.847   9.455
 6632POPC   PO416416  29.113  33.816   9.155
 6632POPC   GL116417  29.162  33.819   8.855
 6632POPC   GL216418  29.132  33.883   8.855
 6632POPC   C1A16419  29.181  33.821   8.555
 6632POPC   D2A16420  29.131  33.847   8.255
 6632POPC   C3A16421  29.154  33.755   7.955
 6632POPC   C4A16422  29.144  33.804   7.655
 6632POPC   C1B16423  29.031  34.042   8.555
 6632POPC   C2B16424  29.028  34.066   8.255
 6632POPC   C3B16425  29.024  34.030   7.955
 6632POPC   C4B16426  29.058  34.043   7.655
 6633POPC   NC316427   8.967   9.016   9.455
 6633POPC   PO416428   8.960   8.990   9.155
 6633POPC   GL116429   8.998   9.000   8.855
 6633POPC   GL216430   8.932   8.831   8.855
 6633POPC   C1A16431   9.013   8.939   8.555
 6633POPC   D2A16432   8.958   8.960   8.255
 6633POPC   C3A16433   8.987   8.985   7.955
 6633POPC   C4A16434   9.018   8.989   7.655
 6633POPC   C1B16435   8.850   8.733   8.555
 6633POPC   C2B16436   8.864   8.731   8.255
 6633POPC   C3B16437   8.911   8.705   7.955
 6633POPC   C4B16438   8.874   8.741   7.655
 6634POPC   NC316439  16.757   7.402   9.455
 6634POPC   PO416440  16.682   7.433   9.155
 6634POPC   GL116441  16.711   7.469   8.855
 6634POPC   GL216442  16.816   7.472   8.855
 6634POPC   C1A16443  16.718   7.427   8.555
 6634POPC   D2A16444  16.777   7.420   8.255
 6634POPC   C3A16445  16.748   7.459   7.955
 6634POPC   C4A16446  16.775   7.421   7.655
 6634POPC   C1B16447  16.886   7.581   8.555
 6634POPC   C2B16448  16.881   7.636   8.255
 6634POPC   C3B16449  16.960   7.598   7.955
 6634POPC   C4B16450  16.961   7.602   7.655
 6635POPC   NC316451  13.653  44.689   9.455
 6635POPC   PO416452  13.651  44.669   9.155
 6635POPC   GL116453  13.623  44.634   8.855
 6635POPC   GL216454  13.554  44.532   8.855
 6635POPC   C1A16455  13.629  44.621   8.555
 6635POPC   D2A16456  13.603  44.687   8.255
 6635POPC   C3A16457  13.606  44.648   7.955
 6635POPC   C4A16458  13.593  44.649   7.655
 6635POPC   C1B16459  13.514  44.482   8.555
 6635POPC   C2B16460  13.536  44.390   8.255
 6635POPC   C3B16461  13.488  44.439   7.955
 6635POPC   C4B16462  13.489  44.423   7.655
 6636POPC   NC316463  22.139   8.194   9.455
 6636POPC   PO416464  22.149   8.187   9.155
 6636POPC   GL116465  22.155   8.158   8.855
 6636POPC   GL216466  22.271   8.265   8.855
 6636POPC   C1A16467  22.206   8.222   8.555
 6636POPC   D2A16468  22.140   8.190   8.255
 6636POPC   C3A16469  22.203   8.172   7.955
 6636POPC   C4A16470  22.190   8.239   7.655
 6636POPC   C1B16471  22.411   8.251   8.555
 6636POPC   C2B16472  22.427   8.233   8.255
 6636POPC   C3B16473  22.418   8.302   7.955
 6636POPC   C4B16474  22.386   8.265   7.655
 6637POPC   NC316475  40.755  21.347   9.455
 6637POPC   PO416476  40.757  21.346   9.155
 6637POPC   GL116477  40.796  21.404   8.855
 6637POPC   GL216478  40.768  21.489   8.855
 6637POPC   C1A16479  40.748  21.377   8.555
 6637POPC   D2A16480  40.792  21.375   8.255
 6637POPC   C3A16481  40.739  21.424   7.955
 6637POPC   C4A16482  40.739  21.353   7.655
 6637POPC   C1B16483  40.689  21.593   8.555
 6637POPC   C2B16484  40.745  21.650   8.255
 6637POPC   C3B16485  40.746  21.659   7.955
 6637POPC   C4B16486  40.705  21.591   7.655
 6638POPC   NC316487  37.673  11.312   9.455
 6638POPC   PO416488  37.649  11.310   9.155
 6638POPC   GL116489  37.691  11.270   8.855
 6638POPC   GL216490  37.553  11.266   8.855
 6638POPC   C1A16491  37.665  11.326   8.555
 6638POPC   D2A16492  37.660  11.263   8.255
 6638POPC   C3A16493  37.723  11.332   7.955
 6638POPC   C4A16494  37.646  11.330   7.655
 6638POPC   C1B16495  37.490  11.160   8.555
 6638POPC   C2B16496  37.469  11.172   8.255
 6638POPC   C3B16497  37.476  11.160   7.955
 6638POPC   C4B16498  37.478  11.170   7.655
 6639POPC   NC316499  27.615  19.099   9.455
 6639POPC   PO416500  27.596  19.072   9.155
 6639POPC   GL116501  27.546  19.087   8.855
 6639POPC   GL216502  27.527  19.221   8.855
 6639POPC   C1A16503  27.583  19.071   8.555
 6639POPC   D2A16504  27.613  19.030   8.255
 6639POPC   C3A16505  27.545  19.057   7.955
 6639POPC   C4A16506  27.576  19.065   7.655
 6639POPC   C1B16507  27.519  19.263   8.555
 6639POPC   C2B16508  27.487  19.290   8.255
 6639POPC   C3B16509  27.495  19.276   7.955
 6639POPC   C4B16510  27.469  19.300   7.655
 6640POPC   NC316511   8.232  33.073   9.455
 6640POPC   PO416512   8.201  33.047   9.155
 6640POPC   GL116513   8.227  33.002   8.855
 6640POPC   GL216514   8.335  33.110   8.855
 6640POPC   C1A16515   8.157  33.050   8.555
 6640POPC   D2A16516   8.233  33.000   8.255
 6640POPC   C3A16517   8.187  33.053   7.955
 6640POPC   C4A16518   8.172  32.991   7.655
 6640POPC   C1B16519   8.440  33.173   8.555
 6640POPC   C2B16520   8.403  33.137   8.255
 6640POPC   C3B16521   8.385  33.127   7.955
 6640POPC   C4B16522   8.443  33.100   7.655
 6641POPC   NC316523   0.475   8.198   9.455
 6641POPC   PO416524   0.433   8.211   9.155
 6641POPC   GL116525   0.446   8.155   8.855
 6641POPC   GL216526   0.521   8.302   8.855
 6641POPC   C1A16527   0.436   8.204   8.555
 6641POPC   D2A16528   0.411   8.235   8.255
 6641POPC   C3A16529   0.390   8.209   7.955
 6641POPC   C4A16530   0.488   8.171   7.655
 6641POPC   C1B16531   0.608   8.295   8.555
 6641POPC   C2B16532   0.622   8.281   8.255
 6641POPC   C3B16533   0.613   8.342   7.955
 6641POPC   C4B16534   0.658   8.303   7.655
 6642POPC   NC316535  38.411  19.846   9.455
 6642POPC   PO416536  38.411  19.829   9.155
 6642POPC   GL116537  38.408  19.869   8.855
 6642POPC   GL216538  38.599  19.812   8.855
 6642POPC   C1A16539  38.455  19.800   8.555
 6642POPC   D2A16540  38.494  19.823   8.255
 6642POPC   C3A16541  38.504  19.868   7.955
 6642POPC   C4A16542  38.459  19.812   7.655
 6642POPC   C1B16543  38.725  19.859   8.555
 6642POPC   C2B16544  38.686  19.889   8.255
 6642POPC   C3B16545  38.692  19.864   7.955
 6642POPC   C4B16546  38.714  19.867   7.655
 6643POPC   NC316547  20.646  18.238   9.455
 6643POPC   PO416548  20.610  18.302   9.155
 6643POPC   GL116549  20.598  18.289   8.855
 6643POPC   GL216550  20.677  18.242   8.855
 6643POPC   C1A16551  20.634  18.330   8.555
 6643POPC   D2A16552  20.583  18.293   8.255
 6643POPC   C3A16553  20.636  18.259   7.955
 6643POPC   C4A16554  20.611  18.259   7.655
 6643POPC   C1B16555  20.769  18.124   8.555
 6643POPC   C2B16556  20.799  18.094   8.255
 6643POPC   C3B16557  20.834  18.138   7.955
 6643POPC   C4B16558  20.779  18.076   7.655
 6644POPC   NC316559  25.261  11.319   9.455
 6644POPC   PO416560  25.289  11.286   9.155
 6644POPC   GL116561  25.225  11.267   8.855
 6644POPC   GL216562  25.321  11.177   8.855
 6644POPC   C1A16563  25.276  11.259   8.555
 6644POPC   D2A16564  25.248  11.309   8.255
 6644POPC   C3A16565  25.283  11.320   7.955
 6644POPC   C4A16566  25.288  11.328   7.655
 6644POPC   C1B16567  25.319  11.077   8.555
 6644POPC   C2B16568  25.359  11.052   8.255
 6644POPC   C3B16569  25.372  11.105   7.955
 6644POPC   C4B16570  25.343  11.031   7.655
 6645POPC   NC316571  41.527  28.384   9.455
 6645POPC   PO416572  41.518  28.417   9.155
 6645POPC   GL116573  41.515  28.391   8.855
 6645POPC   GL216574  41.669  28.327   8.855
 6645POPC   C1A16575  41.533  28.390   8.555
 6645POPC   D2A16576  41.593  28.395   8.255
 6645POPC   C3A16577  41.511  28.341   7.955
 6645POPC   C4A16578  41.525  28.322   7.655
 6645POPC   C1B16579  41.775  28.311   8.555
 6645POPC   C2B16580  41.756  28.292   8.255
 6645POPC   C3B16581  41.762  28.280   7.955
 6645POPC   C4B16582  41.824  28.246   7.655
 6646POPC   NC316583  22.114  32.214   9.455
 6646POPC   PO416584  22.123  32.238   9.155
 6646POPC   GL116585  22.166  32.253   8.855
 6646POPC   GL216586  22.044  32.199   8.855
 6646POPC   C1A16587  22.145  32.244   8.555
 6646POPC   D2A16588  22.198  32.261   8.255
 6646POPC   C3A16589  22.143  32.267   7.955
 6646POPC   C4A16590  22.177  32.256   7.655
 6646POPC   C1B16591  21.973  32.040   8.555
 6646POPC   C2B16592  21.984  32.097   8.255
 6646POPC   C3B16593  21.974  32.007   7.955
 6646POPC   C4B16594  22.026  32.072   7.655
 6647POPC   NC316595  41.561  26.811   9.455
 6647POPC   PO416596  41.555  26.828   9.155
 6647POPC   GL116597  41.536  26.843   8.855
 6647POPC   GL216598  41.512  26.710   8.855
 6647POPC   C1A16599  41.527  26.807   8.555
 6647POPC   D2A16600  41.601  26.843   8.255
 6647POPC   C3A16601  41.509  26.824   7.955
 6647POPC   C4A16602  41.531  26.776   7.655
 6647POPC   C1B16603  41.489  26.529   8.555
 6647POPC   C2B16604  41.467  26.539   8.255
 6647POPC   C3B16605  41.523  26.527   7.955
 6647POPC   C4B16606  41.465  26.570   7.655
 6648POPC   NC316607  35.321  30.746   9.455
 6648POPC   PO416608  35.399  30.746   9.155
 6648POPC   GL116609  35.311  30.682   8.855
 6648POPC   GL216610  35.199  30.801   8.855
 6648POPC   C1A16611  35.395  30.723   8.555
 6648POPC   D2A16612  35.364  30.648   8.255
 6648POPC   C3A16613  35.321  30.727   7.955
 6648POPC   C4A16614  35.311  30.711   7.655
 6648POPC   C1B16615  35.114  30.814   8.555
 6648POPC   C2B16616  35.155  30.803   8.255
 6648POPC   C3B16617  35.107  30.828   7.955
 6648POPC   C4B16618  35.097  30.865   7.655
 6649POPC   NC316619   7.424  24.525   9.455
 6649POPC   PO416620   7.390  24.474   9.155
 6649POPC   GL116621   7.427  24.520   8.855
 6649POPC   GL216622   7.318  24.409   8.855
 6649POPC   C1A16623   7.417  24.536   8.555
 6649POPC   D2A16624   7.455  24.467   8.255
 6649POPC   C3A16625   7.405  24.527   7.955
 6649POPC   C4A16626   7.454  24.523   7.655
 6649POPC   C1B16627   7.303  24.265   8.555
 6649POPC   C2B16628   7.276  24.266   8.255
 6649POPC   C3B16629   7.317  24.261   7.955
 6649POPC   C4B16630   7.274  24.277   7.655
 6650POPC   NC316631  10.570  15.169   9.455
 6650POPC   PO416632  10.504  15.210   9.155
 6650POPC   GL116633  10.507  15.151   8.855
 6650POPC   GL216634  10.429  15.180   8.855
 6650POPC   C1A16635  10.493  15.221   8.555
 6650POPC   D2A16636  10.494  15.219   8.255
 6650POPC   C3A16637  10.550  15.193   7.955
 6650POPC   C4A16638  10.506  15.178   7.655
 6650POPC   C1B16639  10.320  15.155   8.555
 6650POPC   C2B16640  10.292  15.165   8.255
 6650POPC   C3B16641  10.325  15.196   7.955
 6650POPC   C4B16642  10.248  15.174   7.655
 6651POPC   NC316643  27.598  16.714   9.455
 6651POPC   PO416644  27.593  16.775   9.155
 6651POPC   GL116645  27.633  16.691   8.855
 6651POPC   GL216646  27.532  16.608   8.855
 6651POPC   C1A16647  27.595  16.693   8.555
 6651POPC   D2A16648  27.608  16.683   8.255
 6651POPC   C3A16649  27.580  16.773   7.955
 6651POPC   C4A16650  27.620  16.713   7.655
 6651POPC   C1B16651  27.536  16.448   8.555
 6651POPC   C2B16652  27.510  16.518   8.255
 6651POPC   C3B16653  27.562  16.484   7.955
 6651POPC   C4B16654  27.557  16.494   7.655
 6652POPC   NC316655  25.308  19.060   9.455
 6652POPC   PO416656  25.259  19.074   9.155
 6652POPC   GL116657  25.307  19.038   8.855
 6652POPC   GL216658  25.282  18.896   8.855
 6652POPC   C1A16659  25.222  19.054   8.555
 6652POPC   D2A16660  25.309  19.045   8.255
 6652POPC   C3A16661  25.233  19.091   7.955
 6652POPC   C4A16662  25.310  19.083   7.655
 6652POPC   C1B16663  25.198  18.798   8.555
 6652POPC   C2B16664  25.272  18.856   8.255
 6652POPC   C3B16665  25.256  18.776   7.955
 6652POPC   C4B16666  25.240  18.851   7.655
 6653POPC   NC316667  38.419  23.729   9.455
 6653POPC   PO416668  38.426  23.704   9.155
 6653POPC   GL116669  38.440  23.704   8.855
 6653POPC   GL216670  38.351  23.615   8.855
 6653POPC   C1A16671  38.490  23.737   8.555
 6653POPC   D2A16672  38.435  23.732   8.255
 6653POPC   C3A16673  38.501  23.759   7.955
 6653POPC   C4A16674  38.490  23.740   7.655
 6653POPC   C1B16675  38.242  23.529   8.555
 6653POPC   C2B16676  38.260  23.486   8.255
 6653POPC   C3B16677  38.254  23.490   7.955
 6653POPC   C4B16678  38.320  23.481   7.655
 6654POPC   NC316679   7.405  35.320   9.455
 6654POPC   PO416680   7.458  35.401   9.155
 6654POPC   GL116681   7.387  35.335   8.855
 6654POPC   GL216682   7.351  35.277   8.855
 6654POPC   C1A16683   7.388  35.323   8.555
 6654POPC   D2A16684   7.395  35.313   8.255
 6654POPC   C3A16685   7.375  35.385   7.955
 6654POPC   C4A16686   7.429  35.392   7.655
 6654POPC   C1B16687   7.286  35.215   8.555
 6654POPC   C2B16688   7.201  35.210   8.255
 6654POPC   C3B16689   7.243  35.199   7.955
 6654POPC   C4B16690   7.216  35.159   7.655
 6655POPC   NC316691  25.259  43.083   9.455
 6655POPC   PO416692  25.268  43.094   9.155
 6655POPC   GL116693  25.294  43.075   8.855
 6655POPC   GL216694  25.313  43.010   8.855
 6655POPC   C1A16695  25.227  43.077   8.555
 6655POPC   D2A16696  25.229  43.160   8.255
 6655POPC   C3A16697  25.306  43.143   7.955
 6655POPC   C4A16698  25.245  43.105   7.655
 6655POPC   C1B16699  25.390  42.861   8.555
 6655POPC   C2B16700  25.385  42.870   8.255
 6655POPC   C3B16701  25.427  42.924   7.955
 6655POPC   C4B16702  25.390  42.879   7.655
 6656POPC   NC316703  34.564  19.815   9.455
 6656POPC   PO416704  34.544  19.785   9.155
 6656POPC   GL116705  34.613  19.808   8.855
 6656POPC   GL216706  34.606  19.735   8.855
 6656POPC   C1A16707  34.567  19.799   8.555
 6656POPC   D2A16708  34.534  19.858   8.255
 6656POPC   C3A16709  34.602  19.829   7.955
 6656POPC   C4A16710  34.567  19.788   7.655
 6656POPC   C1B16711  34.595  19.595   8.555
 6656POPC   C2B16712  34.627  19.574   8.255
 6656POPC   C3B16713  34.596  19.561   7.955
 6656POPC   C4B16714  34.659  19.551   7.655
 6657POPC   NC316715  33.044  19.054   9.455
 6657POPC   PO416716  33.045  19.052   9.155
 6657POPC   GL116717  33.048  19.019   8.855
 6657POPC   GL216718  32.931  18.946   8.855
 6657POPC   C1A16719  33.030  19.029   8.555
 6657POPC   D2A16720  33.073  19.062   8.255
 6657POPC   C3A16721  33.057  19.087   7.955
 6657POPC   C4A16722  32.993  19.095   7.655
 6657POPC   C1B16723  32.869  18.827   8.555
 6657POPC   C2B16724  32.875  18.855   8.255
 6657POPC   C3B16725  32.927  18.881   7.955
 6657POPC   C4B16726  32.859  18.818   7.655
 6658POPC   NC316727  26.776  22.177   9.455
 6658POPC   PO416728  26.805  22.118   9.155
 6658POPC   GL116729  26.850  22.211   8.855
 6658POPC   GL216730  26.756  22.252   8.855
 6658POPC   C1A16731  26.768  22.178   8.555
 6658POPC   D2A16732  26.831  22.147   8.255
 6658POPC   C3A16733  26.793  22.184   7.955
 6658POPC   C4A16734  26.784  22.207   7.655
 6658POPC   C1B16735  26.708  22.415   8.555
 6658POPC   C2B16736  26.717  22.376   8.255
 6658POPC   C3B16737  26.694  22.417   7.955
 6658POPC   C4B16738  26.669  22.342   7.655
 6659POPC   NC316739   5.875  31.457   9.455
 6659POPC   PO416740   5.851  31.520   9.155
 6659POPC   GL116741   5.854  31.470   8.855
 6659POPC   GL216742   5.724  31.482   8.855
 6659POPC   C1A16743   5.867  31.491   8.555
 6659POPC   D2A16744   5.864  31.519   8.255
 6659POPC   C3A16745   5.879  31.464   7.955
 6659POPC   C4A16746   5.885  31.512   7.655
 6659POPC   C1B16747   5.651  31.519   8.555
 6659POPC   C2B16748   5.580  31.474   8.255
 6659POPC   C3B16749   5.579  31.499   7.955
 6659POPC   C4B16750   5.623  31.478   7.655
 6660POPC   NC316751  44.704  32.258   9.455
 6660POPC   PO416752  44.690  32.259   9.155
 6660POPC   GL116753  44.613  32.236   8.855
 6660POPC   GL216754  44.711  32.401   8.855
 6660POPC   C1A16755  44.690  32.294   8.555
 6660POPC   D2A16756  44.613  32.268   8.255
 6660POPC   C3A16757  44.630  32.291   7.955
 6660POPC   C4A16758  44.638  32.205   7.655
 6660POPC   C1B16759  44.808  32.437   8.555
 6660POPC   C2B16760  44.805  32.483   8.255
 6660POPC   C3B16761  44.764  32.415   7.955
 6660POPC   C4B16762  44.808  32.483   7.655
 6661POPC   NC316763  40.020  38.456   9.455
 6661POPC   PO416764  40.042  38.447   9.155
 6661POPC   GL116765  40.043  38.485   8.855
 6661POPC   GL216766  40.018  38.350   8.855
 6661POPC   C1A16767  39.968  38.473   8.555
 6661POPC   D2A16768  40.025  38.414   8.255
 6661POPC   C3A16769  40.053  38.500   7.955
 6661POPC   C4A16770  39.980  38.479   7.655
 6661POPC   C1B16771  40.134  38.273   8.555
 6661POPC   C2B16772  40.095  38.272   8.255
 6661POPC   C3B16773  40.111  38.185   7.955
 6661POPC   C4B16774  40.118  38.236   7.655
 6662POPC   NC316775  15.133   1.998   9.455
 6662POPC   PO416776  15.176   1.943   9.155
 6662POPC   GL116777  15.216   2.010   8.855
 6662POPC   GL216778  15.296   1.930   8.855
 6662POPC   C1A16779  15.203   1.988   8.555
 6662POPC   D2A16780  15.197   1.994   8.255
 6662POPC   C3A16781  15.142   1.961   7.955
 6662POPC   C4A16782  15.225   2.006   7.655
 6662POPC   C1B16783  15.340   1.851   8.555
 6662POPC   C2B16784  15.430   1.867   8.255
 6662POPC   C3B16785  15.415   1.833   7.955
 6662POPC   C4B16786  15.416   1.844   7.655
 6663POPC   NC316787  12.900  15.195   9.455
 6663POPC   PO416788  12.866  15.133   9.155
 6663POPC   GL116789  12.884  15.146   8.855
 6663POPC   GL216790  12.878  15.041   8.855
 6663POPC   C1A16791  12.866  15.200   8.555
 6663POPC   D2A16792  12.890  15.211   8.255
 6663POPC   C3A16793  12.843  15.166   7.955
 6663POPC   C4A16794  12.803  15.198   7.655
 6663POPC   C1B16795  12.871  14.901   8.555
 6663POPC   C2B16796  12.874  14.899   8.255
 6663POPC   C3B16797  12.907  14.923   7.955
 6663POPC   C4B16798  12.903  14.938   7.655
 6664POPC   NC316799  43.132  10.535   9.455
 6664POPC   PO416800  43.085  10.490   9.155
 6664POPC   GL116801  43.108  10.529   8.855
 6664POPC   GL216802  43.246  10.579   8.855
 6664POPC   C1A16803  43.158  10.510   8.555
 6664POPC   D2A16804  43.112  10.522   8.255
 6664POPC   C3A16805  43.078  10.560   7.955
 6664POPC   C4A16806  43.086  10.568   7.655
 6664POPC   C1B16807  43.313  10.574   8.555
 6664POPC   C2B16808  43.315  10.659   8.255
 6664POPC   C3B16809  43.326  10.645   7.955
 6664POPC   C4B16810  43.304  10.584   7.655
 6665POPC   NC316811  39.248  19.069   9.455
 6665POPC   PO416812  39.243  19.098   9.155
 6665POPC   GL116813  39.251  19.084   8.855
 6665POPC   GL216814  39.122  19.075   8.855
 6665POPC   C1A16815  39.244  19.077   8.555
 6665POPC   D2A16816  39.198  19.084   8.255
 6665POPC   C3A16817  39.184  19.108   7.955
 6665POPC   C4A16818  39.182  19.082   7.655
 6665POPC   C1B16819  38.996  19.041   8.555
 6665POPC   C2B16820  39.011  19.048   8.255
 6665POPC   C3B16821  38.992  19.079   7.955
 6665POPC   C4B16822  38.998  18.988   7.655
 6666POPC   NC316823  10.572  12.075   9.455
 6666POPC   PO416824  10.532  12.047   9.155
 6666POPC   GL116825  10.481  12.098   8.855
 6666POPC   GL216826  10.598  12.010   8.855
 6666POPC   C1A16827  10.510  12.038   8.555
 6666POPC   D2A16828  10.515  12.048   8.255
 6666POPC   C3A16829  10.532  12.032   7.955
 6666POPC   C4A16830  10.566  12.117   7.655
 6666POPC   C1B16831  10.762  11.911   8.555
 6666POPC   C2B16832  10.740  11.893   8.255
 6666POPC   C3B16833  10.768  11.937   7.955
 6666POPC   C4B16834  10.739  11.967   7.655
 6667POPC   NC316835  40.025  11.323   9.455
 6667POPC   PO416836  39.996  11.268   9.155
 6667POPC   GL116837  39.985  11.332   8.855
 6667POPC   GL216838  39.855  11.251   8.855
 6667POPC   C1A16839  40.035  11.257   8.555
 6667POPC   D2A16840  40.000  11.297   8.255
 6667POPC   C3A16841  40.013  11.263   7.955
 6667POPC   C4A16842  40.046  11.346   7.655
 6667POPC   C1B16843  39.805  11.193   8.555
 6667POPC   C2B16844  39.739  11.174   8.255
 6667POPC   C3B16845  39.831  11.192   7.955
 6667POPC   C4B16846  39.813  11.167   7.655
 6668POPC   NC316847  13.656   1.215   9.455
 6668POPC   PO416848  13.583   1.231   9.155
 6668POPC   GL116849  13.665   1.190   8.855
 6668POPC   GL216850  13.545   1.227   8.855
 6668POPC   C1A16851  13.612   1.226   8.555
 6668POPC   D2A16852  13.612   1.171   8.255
 6668POPC   C3A16853  13.587   1.190   7.955
 6668POPC   C4A16854  13.662   1.208   7.655
 6668POPC   C1B16855  13.420   1.295   8.555
 6668POPC   C2B16856  13.439   1.380   8.255
 6668POPC   C3B16857  13.403   1.302   7.955
 6668POPC   C4B16858  13.397   1.358   7.655
 6669POPC   NC316859  42.329  29.941   9.455
 6669POPC   PO416860  42.360  29.905   9.155
 6669POPC   GL116861  42.351  29.905   8.855
 6669POPC   GL216862  42.347  29.832   8.855
 6669POPC   C1A16863  42.289  29.956   8.555
 6669POPC   D2A16864  42.368  29.892   8.255
 6669POPC   C3A16865  42.357  29.935   7.955
 6669POPC   C4A16866  42.335  29.919   7.655
 6669POPC   C1B16867  42.415  29.657   8.555
 6669POPC   C2B16868  42.390  29.677   8.255
 6669POPC   C3B16869  42.377  29.715   7.955
 6669POPC   C4B16870  42.358  29.714   7.655
 6670POPC   NC316871  43.134   9.776   9.455
 6670POPC   PO416872  43.085   9.739   9.155
 6670POPC   GL116873  43.062   9.763   8.855
 6670POPC   GL216874  43.268   9.729   8.855
 6670POPC   C1A16875  43.151   9.724   8.555
 6670POPC   D2A16876  43.151   9.794   8.255
 6670POPC   C3A16877  43.134   9.706   7.955
 6670POPC   C4A16878  43.104   9.757   7.655
 6670POPC   C1B16879  43.320   9.759   8.555
 6670POPC   C2B16880  43.323   9.739   8.255
 6670POPC   C3B16881  43.386   9.810   7.955
 6670POPC   C4B16882  43.337   9.797   7.655
 6671POPC   NC316883  26.040  17.496   9.455
 6671POPC   PO416884  26.023  17.487   9.155
 6671POPC   GL116885  25.998  17.494   8.855
 6671POPC   GL216886  25.948  17.452   8.855
 6671POPC   C1A16887  26.005  17.464   8.555
 6671POPC   D2A16888  26.010  17.465   8.255
 6671POPC   C3A16889  26.041  17.462   7.955
 6671POPC   C4A16890  26.039  17.503   7.655
 6671POPC   C1B16891  25.789  17.521   8.555
 6671POPC   C2B16892  25.798  17.492   8.255
 6671POPC   C3B16893  25.812  17.528   7.955
 6671POPC   C4B16894  25.794  17.499   7.655
 6672POPC   NC316895  22.145  20.636   9.455
 6672POPC   PO416896  22.152  20.597   9.155
 6672POPC   GL116897  22.129  20.658   8.855
 6672POPC   GL216898  22.051  20.687   8.855
 6672POPC   C1A16899  22.128  20.575   8.555
 6672POPC   D2A16900  22.184  20.596   8.255
 6672POPC   C3A16901  22.117  20.585   7.955
 6672POPC   C4A16902  22.144  20.614   7.655
 6672POPC   C1B16903  21.994  20.752   8.555
 6672POPC   C2B16904  21.982  20.796   8.255
 6672POPC   C3B16905  21.974  20.809   7.955
 6672POPC   C4B16906  22.002  20.774   7.655
 6673POPC   NC316907  24.483  29.159   9.455
 6673POPC   PO416908  24.514  29.109   9.155
 6673POPC   GL116909  24.469  29.154   8.855
 6673POPC   GL216910  24.420  29.128   8.855
 6673POPC   C1A16911  24.487  29.107   8.555
 6673POPC   D2A16912  24.485  29.145   8.255
 6673POPC   C3A16913  24.453  29.132   7.955
 6673POPC   C4A16914  24.448  29.134   7.655
 6673POPC   C1B16915  24.228  29.030   8.555
 6673POPC   C2B16916  24.238  29.050   8.255
 6673POPC   C3B16917  24.213  29.033   7.955
 6673POPC   C4B16918  24.216  29.011   7.655
 6674POPC   NC316919   5.861  12.064   9.455
 6674POPC   PO416920   5.854  12.056   9.155
 6674POPC   GL116921   5.919  12.123   8.855
 6674POPC   GL216922   5.934  12.118   8.855
 6674POPC   C1A16923   5.838  12.075   8.555
 6674POPC   D2A16924   5.913  12.081   8.255
 6674POPC   C3A16925   5.892  12.077   7.955
 6674POPC   C4A16926   5.829  12.032   7.655
 6674POPC   C1B16927   6.108  12.244   8.555
 6674POPC   C2B16928   6.067  12.241   8.255
 6674POPC   C3B16929   6.068  12.258   7.955
 6674POPC   C4B16930   6.104  12.259   7.655
 6675POPC   NC316931  21.337  10.547   9.455
 6675POPC   PO416932  21.420  10.512   9.155
 6675POPC   GL116933  21.396  10.553   8.855
 6675POPC   GL216934  21.297  10.443   8.855
 6675POPC   C1A16935  21.391  10.521   8.555
 6675POPC   D2A16936  21.424  10.567   8.255
 6675POPC   C3A16937  21.342  10.493   7.955
 6675POPC   C4A16938  21.426  10.536   7.655
 6675POPC   C1B16939  21.295  10.324   8.555
 6675POPC   C2B16940  21.299  10.255   8.255
 6675POPC   C3B16941  21.308  10.341   7.955
 6675POPC   C4B16942  21.303  10.275   7.655
 6676POPC   NC316943  10.508  22.960   9.455
 6676POPC   PO416944  10.523  22.976   9.155
 6676POPC   GL116945  10.491  22.983   8.855
 6676POPC   GL216946  10.572  23.022   8.855
 6676POPC   C1A16947  10.559  22.890   8.555
 6676POPC   D2A16948  10.565  22.913   8.255
 6676POPC   C3A16949  10.541  22.931   7.955
 6676POPC   C4A16950  10.523  22.945   7.655
 6676POPC   C1B16951  10.710  23.113   8.555
 6676POPC   C2B16952  10.660  23.137   8.255
 6676POPC   C3B16953  10.634  23.181   7.955
 6676POPC   C4B16954  10.665  23.094   7.655
 6677POPC   NC316955  11.286   6.694   9.455
 6677POPC   PO416956  11.254   6.694   9.155
 6677POPC   GL116957  11.286   6.673   8.855
 6677POPC   GL216958  11.212   6.549   8.855
 6677POPC   C1A16959  11.341   6.653   8.555
 6677POPC   D2A16960  11.271   6.657   8.255
 6677POPC   C3A16961  11.336   6.661   7.955
 6677POPC   C4A16962  11.307   6.663   7.655
 6677POPC   C1B16963  11.127   6.516   8.555
 6677POPC   C2B16964  11.061   6.470   8.255
 6677POPC   C3B16965  11.056   6.516   7.955
 6677POPC   C4B16966  11.045   6.500   7.655
 6678POPC   NC316967  43.852  33.790   9.455
 6678POPC   PO416968  43.930  33.770   9.155
 6678POPC   GL116969  43.902  33.828   8.855
 6678POPC   GL216970  43.967  33.763   8.855
 6678POPC   C1A16971  43.879  33.837   8.555
 6678POPC   D2A16972  43.910  33.796   8.255
 6678POPC   C3A16973  43.842  33.829   7.955
 6678POPC   C4A16974  43.870  33.799   7.655
 6678POPC   C1B16975  44.141  33.778   8.555
 6678POPC   C2B16976  44.158  33.801   8.255
 6678POPC   C3B16977  44.131  33.822   7.955
 6678POPC   C4B16978  44.111  33.764   7.655
 6679POPC   NC316979  44.681   2.731   9.455
 6679POPC   PO416980  44.657   2.768   9.155
 6679POPC   GL116981  44.655   2.733   8.855
 6679POPC   GL216982  44.632   2.873   8.855
 6679POPC   C1A16983  44.680   2.798   8.555
 6679POPC   D2A16984  44.696   2.741   8.255
 6679POPC   C3A16985  44.619   2.757   7.955
 6679POPC   C4A16986  44.677   2.748   7.655
 6679POPC   C1B16987  44.589   2.945   8.555
 6679POPC   C2B16988  44.579   2.974   8.255
 6679POPC   C3B16989  44.575   2.974   7.955
 6679POPC   C4B16990  44.550   2.987   7.655
 6680POPC   NC316991  43.075  33.765   9.455
 6680POPC   PO416992  43.111  33.835   9.155
 6680POPC   GL116993  43.151  33.756   8.855
 6680POPC   GL216994  43.186  33.803   8.855
 6680POPC   C1A16995  43.158  33.810   8.555
 6680POPC   D2A16996  43.113  33.775   8.255
 6680POPC   C3A16997  43.149  33.838   7.955
 6680POPC   C4A16998  43.096  33.801   7.655
 6680POPC   C1B16999  43.389  33.726   8.555
 6680POPC   C2B17000  43.367  33.772   8.255
 6680POPC   C3B17001  43.404  33.799   7.955
 6680POPC   C4B17002  43.371  33.795   7.655
 6681POPC   NC317003  43.909   6.658   9.455
 6681POPC   PO417004  43.878   6.610   9.155
 6681POPC   GL117005  43.868   6.652   8.855
 6681POPC   GL217006  43.759   6.754   8.855
 6681POPC   C1A17007  43.894   6.626   8.555
 6681POPC   D2A17008  43.875   6.631   8.255
 6681POPC   C3A17009  43.910   6.665   7.955
 6681POPC   C4A17010  43.856   6.666   7.655
 6681POPC   C1B17011  43.693   6.831   8.555
 6681POPC   C2B17012  43.746   6.780   8.255
 6681POPC   C3B17013  43.676   6.797   7.955
 6681POPC   C4B17014  43.651   6.809   7.655
 6682POPC   NC317015  42.360  34.555   9.455
 6682POPC   PO417016  42.354  34.545   9.155
 6682POPC   GL117017  42.372  34.565   8.855
 6682POPC   GL217018  42.340  34.460   8.855
 6682POPC   C1A17019  42.287  34.610   8.555
 6682POPC   D2A17020  42.328  34.615   8.255
 6682POPC   C3A17021  42.326  34.616   7.955
 6682POPC   C4A17022  42.377  34.562   7.655
 6682POPC   C1B17023  42.388  34.324   8.555
 6682POPC   C2B17024  42.413  34.288   8.255
 6682POPC   C3B17025  42.401  34.309   7.955
 6682POPC   C4B17026  42.350  34.362   7.655
 6683POPC   NC317027  27.611  43.840   9.455
 6683POPC   PO417028  27.642  43.913   9.155
 6683POPC   GL117029  27.557  43.863   8.855
 6683POPC   GL217030  27.703  44.006   8.855
 6683POPC   C1A17031  27.547  43.893   8.555
 6683POPC   D2A17032  27.559  43.868   8.255
 6683POPC   C3A17033  27.585  43.903   7.955
 6683POPC   C4A17034  27.623  43.874   7.655
 6683POPC   C1B17035  27.684  44.062   8.555
 6683POPC   C2B17036  27.728  44.141   8.255
 6683POPC   C3B17037  27.671  44.133   7.955
 6683POPC   C4B17038  27.703  44.095   7.655
 6684POPC   NC317039  43.897   8.944   9.455
 6684POPC   PO417040  43.916   8.923   9.155
 6684POPC   GL117041  43.881   8.932   8.855
 6684POPC   GL217042  43.940   9.092   8.855
 6684POPC   C1A17043  43.924   8.953   8.555
 6684POPC   D2A17044  43.905   8.963   8.255
 6684POPC   C3A17045  43.853   9.014   7.955
 6684POPC   C4A17046  43.849   9.005   7.655
 6684POPC   C1B17047  44.029   9.138   8.555
 6684POPC   C2B17048  44.090   9.156   8.255
 6684POPC   C3B17049  44.009   9.164   7.955
 6684POPC   C4B17050  44.024   9.128   7.655
 6685POPC   NC317051  36.866  42.286   9.455
 6685POPC   PO417052  36.913  42.310   9.155
 6685POPC   GL117053  36.951  42.357   8.855
 6685POPC   GL217054  36.781  42.335   8.855
 6685POPC   C1A17055  36.927  42.291   8.555
 6685POPC   D2A17056  36.935  42.379   8.255
 6685POPC   C3A17057  36.941  42.332   7.955
 6685POPC   C4A17058  36.927  42.315   7.655
 6685POPC   C1B17059  36.653  42.323   8.555
 6685POPC   C2B17060  36.627  42.322   8.255
 6685POPC   C3B17061  36.690  42.357   7.955
 6685POPC   C4B17062  36.683  42.338   7.655
 6686POPC   NC317063  40.761  27.608   9.455
 6686POPC   PO417064  40.758  27.598   9.155
 6686POPC   GL117065  40.815  27.623   8.855
 6686POPC   GL217066  40.776  27.465   8.855
 6686POPC   C1A17067  40.804  27.612   8.555
 6686POPC   D2A17068  40.770  27.549   8.255
 6686POPC   C3A17069  40.825  27.582   7.955
 6686POPC   C4A17070  40.760  27.564   7.655
 6686POPC   C1B17071  40.753  27.347   8.555
 6686POPC   C2B17072  40.682  27.317   8.255
 6686POPC   C3B17073  40.743  27.338   7.955
 6686POPC   C4B17074  40.703  27.325   7.655
 6687POPC   NC317075  11.315   8.954   9.455
 6687POPC   PO417076  11.273   8.939   9.155
 6687POPC   GL117077  11.301   8.945   8.855
 6687POPC   GL217078  11.401   8.829   8.855
 6687POPC   C1A17079  11.330   9.016   8.555
 6687POPC   D2A17080  11.261   8.964   8.255
 6687POPC   C3A17081  11.309   9.010   7.955
 6687POPC   C4A17082  11.274   8.928   7.655
 6687POPC   C1B17083  11.427   8.787   8.555
 6687POPC   C2B17084  11.479   8.785   8.255
 6687POPC   C3B17085  11.400   8.783   7.955
 6687POPC   C4B17086  11.479   8.791   7.655
 6688POPC   NC317087  16.767   3.539   9.455
 6688POPC   PO417088  16.757   3.522   9.155
 6688POPC   GL117089  16.747   3.507   8.855
 6688POPC   GL217090  16.657   3.582   8.855
 6688POPC   C1A17091  16.682   3.545   8.555
 6688POPC   D2A17092  16.778   3.561   8.255
 6688POPC   C3A17093  16.717   3.567   7.955
 6688POPC   C4A17094  16.737   3.565   7.655
 6688POPC   C1B17095  16.499   3.692   8.555
 6688POPC   C2B17096  16.466   3.621   8.255
 6688POPC   C3B17097  16.486   3.614   7.955
 6688POPC   C4B17098  16.467   3.641   7.655
 6689POPC   NC317099  36.925  15.139   9.455
 6689POPC   PO417100  36.920  15.219   9.155
 6689POPC   GL117101  36.909  15.149   8.855
 6689POPC   GL217102  37.074  15.133   8.855
 6689POPC   C1A17103  36.906  15.162   8.555
 6689POPC   D2A17104  36.879  15.151   8.255
 6689POPC   C3A17105  36.913  15.199   7.955
 6689POPC   C4A17106  36.864  15.152   7.655
 6689POPC   C1B17107  37.122  15.167   8.555
 6689POPC   C2B17108  37.173  15.181   8.255
 6689POPC   C3B17109  37.175  15.102   7.955
 6689POPC   C4B17110  37.110  15.168   7.655
 6690POPC   NC317111  36.879  30.717   9.455
 6690POPC   PO417112  36.885  30.684   9.155
 6690POPC   GL117113  36.945  30.689   8.855
 6690POPC   GL217114  36.799  30.740   8.855
 6690POPC   C1A17115  36.862  30.683   8.555
 6690POPC   D2A17116  36.910  30.668   8.255
 6690POPC   C3A17117  36.863  30.734   7.955
 6690POPC   C4A17118  36.938  30.696   7.655
 6690POPC   C1B17119  36.621  30.734   8.555
 6690POPC   C2B17120  36.649  30.809   8.255
 6690POPC   C3B17121  36.661  30.727   7.955
 6690POPC   C4B17122  36.638  30.756   7.655
 6691POPC   NC317123  32.983  21.379   9.455
 6691POPC   PO417124  32.999  21.360   9.155
 6691POPC   GL117125  33.001  21.378   8.855
 6691POPC   GL217126  33.108  21.369   8.855
 6691POPC   C1A17127  33.065  21.401   8.555
 6691POPC   D2A17128  33.034  21.414   8.255
 6691POPC   C3A17129  33.073  21.382   7.955
 6691POPC   C4A17130  33.000  21.423   7.655
 6691POPC   C1B17131  33.288  21.414   8.555
 6691POPC   C2B17132  33.227  21.476   8.255
 6691POPC   C3B17133  33.276  21.450   7.955
 6691POPC   C4B17134  33.261  21.479   7.655
 6692POPC   NC317135  34.599  41.534   9.455
 6692POPC   PO417136  34.585  41.585   9.155
 6692POPC   GL117137  34.590  41.556   8.855
 6692POPC   GL217138  34.702  41.533   8.855
 6692POPC   C1A17139  34.585  41.607   8.555
 6692POPC   D2A17140  34.590  41.550   8.255
 6692POPC   C3A17141  34.550  41.567   7.955
 6692POPC   C4A17142  34.531  41.532   7.655
 6692POPC   C1B17143  34.798  41.492   8.555
 6692POPC   C2B17144  34.832  41.559   8.255
 6692POPC   C3B17145  34.799  41.489   7.955
 6692POPC   C4B17146  34.793  41.540   7.655
 6693POPC   NC317147  40.047  12.901   9.455
 6693POPC   PO417148  39.970  12.873   9.155
 6693POPC   GL117149  39.992  12.894   8.855
 6693POPC   GL217150  39.921  12.930   8.855
 6693POPC   C1A17151  39.990  12.856   8.555
 6693POPC   D2A17152  40.036  12.814   8.255
 6693POPC   C3A17153  40.009  12.804   7.955
 6693POPC   C4A17154  40.034  12.848   7.655
 6693POPC   C1B17155  39.907  13.080   8.555
 6693POPC   C2B17156  39.863  13.026   8.255
 6693POPC   C3B17157  39.842  13.103   7.955
 6693POPC   C4B17158  39.862  13.039   7.655
 6694POPC   NC317159   5.125  37.707   9.455
 6694POPC   PO417160   5.053  37.652   9.155
 6694POPC   GL117161   5.107  37.694   8.855
 6694POPC   GL217162   5.044  37.589   8.855
 6694POPC   C1A17163   5.136  37.700   8.555
 6694POPC   D2A17164   5.140  37.645   8.255
 6694POPC   C3A17165   5.112  37.643   7.955
 6694POPC   C4A17166   5.117  37.685   7.655
 6694POPC   C1B17167   4.848  37.549   8.555
 6694POPC   C2B17168   4.904  37.489   8.255
 6694POPC   C3B17169   4.860  37.519   7.955
 6694POPC   C4B17170   4.905  37.554   7.655
 6695POPC   NC317171  25.270   5.057   9.455
 6695POPC   PO417172  25.282   5.130   9.155
 6695POPC   GL117173  25.271   5.062   8.855
 6695POPC   GL217174  25.352   5.205   8.855
 6695POPC   C1A17175  25.282   5.048   8.555
 6695POPC   D2A17176  25.255   5.079   8.255
 6695POPC   C3A17177  25.242   5.080   7.955
 6695POPC   C4A17178  25.315   5.073   7.655
 6695POPC   C1B17179  25.352   5.277   8.555
 6695POPC   C2B17180  25.402   5.331   8.255
 6695POPC   C3B17181  25.345   5.310   7.955
 6695POPC   C4B17182  25.404   5.337   7.655
 6696POPC   NC317183  19.073  34.595   9.455
 6696POPC   PO417184  19.044  34.545   9.155
 6696POPC   GL117185  19.016  34.556   8.855
 6696POPC   GL217186  19.113  34.695   8.855
 6696POPC   C1A17187  19.026  34.585   8.555
 6696POPC   D2A17188  19.074  34.581   8.255
 6696POPC   C3A17189  19.035  34.604   7.955
 6696POPC   C4A17190  19.019  34.561   7.655
 6696POPC   C1B17191  19.293  34.721   8.555
 6696POPC   C2B17192  19.269  34.694   8.255
 6696POPC   C3B17193  19.262  34.794   7.955
 6696POPC   C4B17194  19.211  34.722   7.655
 6697POPC   NC317195  14.392  29.953   9.455
 6697POPC   PO417196  14.424  29.931   9.155
 6697POPC   GL117197  14.369  29.880   8.855
 6697POPC   GL217198  14.476  29.806   8.855
 6697POPC   C1A17199  14.441  29.873   8.555
 6697POPC   D2A17200  14.401  29.913   8.255
 6697POPC   C3A17201  14.399  29.907   7.955
 6697POPC   C4A17202  14.408  29.962   7.655
 6697POPC   C1B17203  14.571  29.742   8.555
 6697POPC   C2B17204  14.528  29.767   8.255
 6697POPC   C3B17205  14.553  29.779   7.955
 6697POPC   C4B17206  14.597  29.736   7.655
 6698POPC   NC317207   3.542  35.391   9.455
 6698POPC   PO417208   3.517  35.374   9.155
 6698POPC   GL117209   3.561  35.376   8.855
 6698POPC   GL217210   3.387  35.402   8.855
 6698POPC   C1A17211   3.590  35.318   8.555
 6698POPC   D2A17212   3.509  35.391   8.255
 6698POPC   C3A17213   3.527  35.325   7.955
 6698POPC   C4A17214   3.568  35.317   7.655
 6698POPC   C1B17215   3.246  35.418   8.555
 6698POPC   C2B17216   3.284  35.324   8.255
 6698POPC   C3B17217   3.259  35.380   7.955
 6698POPC   C4B17218   3.292  35.355   7.655
 6699POPC   NC317219   8.985   0.424   9.455
 6699POPC   PO417220   8.935   0.445   9.155
 6699POPC   GL117221   9.013   0.487   8.855
 6699POPC   GL217222   9.093   0.514   8.855
 6699POPC   C1A17223   8.966   0.468   8.555
 6699POPC   D2A17224   8.986   0.467   8.255
 6699POPC   C3A17225   8.970   0.423   7.955
 6699POPC   C4A17226   9.010   0.388   7.655
 6699POPC   C1B17227   9.214   0.537   8.555
 6699POPC   C2B17228   9.156   0.518   8.255
 6699POPC   C3B17229   9.207   0.493   7.955
 6699POPC   C4B17230   9.159   0.507   7.655
 6700POPC   NC317231  31.513   4.309   9.455
 6700POPC   PO417232  31.486   4.312   9.155
 6700POPC   GL117233  31.503   4.282   8.855
 6700POPC   GL217234  31.526   4.456   8.855
 6700POPC   C1A17235  31.459   4.316   8.555
 6700POPC   D2A17236  31.438   4.362   8.255
 6700POPC   C3A17237  31.434   4.314   7.955
 6700POPC   C4A17238  31.506   4.331   7.655
 6700POPC   C1B17239  31.575   4.524   8.555
 6700POPC   C2B17240  31.579   4.545   8.255
 6700POPC   C3B17241  31.595   4.511   7.955
 6700POPC   C4B17242  31.617   4.516   7.655
 6701POPC   NC317243  41.599  16.765   9.455
 6701POPC   PO417244  41.565  16.739   9.155
 6701POPC   GL117245  41.511  16.744   8.855
 6701POPC   GL217246  41.658  16.821   8.855
 6701POPC   C1A17247  41.562  16.765   8.555
 6701POPC   D2A17248  41.514  16.716   8.255
 6701POPC   C3A17249  41.530  16.762   7.955
 6701POPC   C4A17250  41.574  16.691   7.655
 6701POPC   C1B17251  41.842  16.820   8.555
 6701POPC   C2B17252  41.840  16.840   8.255
 6701POPC   C3B17253  41.776  16.835   7.955
 6701POPC   C4B17254  41.802  16.833   7.655
 6702POPC   NC317255   2.794  24.529   9.455
 6702POPC   PO417256   2.810  24.479   9.155
 6702POPC   GL117257   2.806  24.444   8.855
 6702POPC   GL217258   2.808  24.538   8.855
 6702POPC   C1A17259   2.806  24.481   8.555
 6702POPC   D2A17260   2.720  24.524   8.255
 6702POPC   C3A17261   2.812  24.441   7.955
 6702POPC   C4A17262   2.723  24.469   7.655
 6702POPC   C1B17263   2.908  24.691   8.555
 6702POPC   C2B17264   2.989  24.696   8.255
 6702POPC   C3B17265   2.945  24.697   7.955
 6702POPC   C4B17266   2.921  24.657   7.655
 6703POPC   NC317267  15.201  12.042   9.455
 6703POPC   PO417268  15.172  12.044   9.155
 6703POPC   GL117269  15.146  12.091   8.855
 6703POPC   GL217270  15.321  12.134   8.855
 6703POPC   C1A17271  15.222  12.056   8.555
 6703POPC   D2A17272  15.134  12.066   8.255
 6703POPC   C3A17273  15.160  12.097   7.955
 6703POPC   C4A17274  15.186  12.083   7.655
 6703POPC   C1B17275  15.424  12.188   8.555
 6703POPC   C2B17276  15.382  12.132   8.255
 6703POPC   C3B17277  15.464  12.122   7.955
 6703POPC   C4B17278  15.420  12.116   7.655
 6704POPC   NC317279  37.724  30.684   9.455
 6704POPC   PO417280  37.650  30.734   9.155
 6704POPC   GL117281  37.689  30.685   8.855
 6704POPC   GL217282  37.701  30.624   8.855
 6704POPC   C1A17283  37.705  30.684   8.555
 6704POPC   D2A17284  37.727  30.711   8.255
 6704POPC   C3A17285  37.703  30.705   7.955
 6704POPC   C4A17286  37.705  30.738   7.655
 6704POPC   C1B17287  37.756  30.497   8.555
 6704POPC   C2B17288  37.805  30.516   8.255
 6704POPC   C3B17289  37.786  30.446   7.955
 6704POPC   C4B17290  37.821  30.519   7.655
 6705POPC   NC317291  14.417  14.378   9.455
 6705POPC   PO417292  14.452  14.437   9.155
 6705POPC   GL117293  14.426  14.436   8.855
 6705POPC   GL217294  14.393  14.265   8.855
 6705POPC   C1A17295  14.369  14.417   8.555
 6705POPC   D2A17296  14.430  14.372   8.255
 6705POPC   C3A17297  14.431  14.406   7.955
 6705POPC   C4A17298  14.446  14.436   7.655
 6705POPC   C1B17299  14.349  14.123   8.555
 6705POPC   C2B17300  14.300  14.167   8.255
 6705POPC   C3B17301  14.340  14.126   7.955
 6705POPC   C4B17302  14.331  14.186   7.655
 6706POPC   NC317303  40.777  17.537   9.455
 6706POPC   PO417304  40.800  17.520   9.155
 6706POPC   GL117305  40.798  17.502   8.855
 6706POPC   GL217306  40.622  17.543   8.855
 6706POPC   C1A17307  40.810  17.510   8.555
 6706POPC   D2A17308  40.830  17.539   8.255
 6706POPC   C3A17309  40.742  17.498   7.955
 6706POPC   C4A17310  40.807  17.536   7.655
 6706POPC   C1B17311  40.539  17.527   8.555
 6706POPC   C2B17312  40.524  17.558   8.255
 6706POPC   C3B17313  40.505  17.546   7.955
 6706POPC   C4B17314  40.523  17.526   7.655
 6707POPC   NC317315  15.183  19.871   9.455
 6707POPC   PO417316  15.179  19.830   9.155
 6707POPC   GL117317  15.182  19.854   8.855
 6707POPC   GL217318  15.246  19.981   8.855
 6707POPC   C1A17319  15.228  19.880   8.555
 6707POPC   D2A17320  15.220  19.803   8.255
 6707POPC   C3A17321  15.147  19.860   7.955
 6707POPC   C4A17322  15.143  19.803   7.655
 6707POPC   C1B17323  15.328  20.005   8.555
 6707POPC   C2B17324  15.327  20.075   8.255
 6707POPC   C3B17325  15.330  20.050   7.955
 6707POPC   C4B17326  15.327  20.007   7.655
 6708POPC   NC317327   6.671  27.595   9.455
 6708POPC   PO417328   6.643  27.630   9.155
 6708POPC   GL117329   6.679  27.618   8.855
 6708POPC   GL217330   6.572  27.651   8.855
 6708POPC   C1A17331   6.652  27.568   8.555
 6708POPC   D2A17332   6.676  27.578   8.255
 6708POPC   C3A17333   6.650  27.591   7.955
 6708POPC   C4A17334   6.661  27.604   7.655
 6708POPC   C1B17335   6.412  27.757   8.555
 6708POPC   C2B17336   6.436  27.729   8.255
 6708POPC   C3B17337   6.445  27.775   7.955
 6708POPC   C4B17338   6.447  27.796   7.655
 6709POPC   NC317339   5.893   8.985   9.455
 6709POPC   PO417340   5.838   8.982   9.155
 6709POPC   GL117341   5.827   8.948   8.855
 6709POPC   GL217342   5.882   8.860   8.855
 6709POPC   C1A17343   5.918   8.927   8.555
 6709POPC   D2A17344   5.856   8.997   8.255
 6709POPC   C3A17345   5.884   8.935   7.955
 6709POPC   C4A17346   5.898   8.952   7.655
 6709POPC   C1B17347   5.987   8.725   8.555
 6709POPC   C2B17348   5.970   8.788   8.255
 6709POPC   C3B17349   6.014   8.797   7.955
 6709POPC   C4B17350   5.998   8.709   7.655
 6710POPC   NC317351  10.548   8.230   9.455
 6710POPC   PO417352  10.544   8.166   9.155
 6710POPC   GL117353  10.534   8.222   8.855
 6710POPC   GL217354  10.454   8.088   8.855
 6710POPC   C1A17355  10.571   8.207   8.555
 6710POPC   D2A17356  10.540   8.158   8.255
 6710POPC   C3A17357  10.569   8.231   7.955
 6710POPC   C4A17358  10.541   8.157   7.655
 6710POPC   C1B17359  10.377   8.077   8.555
 6710POPC   C2B17360  10.310   8.044   8.255
 6710POPC   C3B17361  10.291   8.079   7.955
 6710POPC   C4B17362  10.314   8.071   7.655
 6711POPC   NC317363  19.793   3.573   9.455
 6711POPC   PO417364  19.812   3.589   9.155
 6711POPC   GL117365  19.806   3.492   8.855
 6711POPC   GL217366  19.684   3.538   8.855
 6711POPC   C1A17367  19.869   3.577   8.555
 6711POPC   D2A17368  19.836   3.577   8.255
 6711POPC   C3A17369  19.851   3.519   7.955
 6711POPC   C4A17370  19.791   3.504   7.655
 6711POPC   C1B17371  19.578   3.501   8.555
 6711POPC   C2B17372  19.603   3.492   8.255
 6711POPC   C3B17373  19.597   3.444   7.955
 6711POPC   C4B17374  19.545   3.508   7.655
 6712POPC   NC317375   5.105  24.480   9.455
 6712POPC   PO417376   5.130  24.494   9.155
 6712POPC   GL117377   5.107  24.468   8.855
 6712POPC   GL217378   5.054  24.341   8.855
 6712POPC   C1A17379   5.110  24.468   8.555
 6712POPC   D2A17380   5.054  24.484   8.255
 6712POPC   C3A17381   5.092  24.496   7.955
 6712POPC   C4A17382   5.114  24.486   7.655
 6712POPC   C1B17383   4.995  24.226   8.555
 6712POPC   C2B17384   5.031  24.258   8.255
 6712POPC   C3B17385   5.023  24.280   7.955
 6712POPC   C4B17386   5.075  24.288   7.655
 6713POPC   NC317387   1.191  33.818   9.455
 6713POPC   PO417388   1.239  33.755   9.155
 6713POPC   GL117389   1.226  33.798   8.855
 6713POPC   GL217390   1.275  33.699   8.855
 6713POPC   C1A17391   1.226  33.836   8.555
 6713POPC   D2A17392   1.184  33.755   8.255
 6713POPC   C3A17393   1.167  33.790   7.955
 6713POPC   C4A17394   1.263  33.756   7.655
 6713POPC   C1B17395   1.328  33.623   8.555
 6713POPC   C2B17396   1.314  33.617   8.255
 6713POPC   C3B17397   1.362  33.572   7.955
 6713POPC   C4B17398   1.345  33.568   7.655
 6714POPC   NC317399  12.866  26.066   9.455
 6714POPC   PO417400  12.846  26.053   9.155
 6714POPC   GL117401  12.831  26.031   8.855
 6714POPC   GL217402  12.877  25.884   8.855
 6714POPC   C1A17403  12.879  26.009   8.555
 6714POPC   D2A17404  12.854  26.065   8.255
 6714POPC   C3A17405  12.827  26.085   7.955
 6714POPC   C4A17406  12.861  26.060   7.655
 6714POPC   C1B17407  12.842  25.757   8.555
 6714POPC   C2B17408  12.857  25.774   8.255
 6714POPC   C3B17409  12.817  25.787   7.955
 6714POPC   C4B17410  12.867  25.824   7.655
 6715POPC   NC317411  19.853  44.643   9.455
 6715POPC   PO417412  19.882  44.683   9.155
 6715POPC   GL117413  19.813  44.675   8.855
 6715POPC   GL217414  19.825  44.803   8.855
 6715POPC   C1A17415  19.846  44.701   8.555
 6715POPC   D2A17416  19.880  44.622   8.255
 6715POPC   C3A17417  19.824  44.614   7.955
 6715POPC   C4A17418  19.798  44.686   7.655
 6715POPC   C1B17419  19.725  44.909   8.555
 6715POPC   C2B17420  19.773  44.901   8.255
 6715POPC   C3B17421  19.812  44.878   7.955
 6715POPC   C4B17422  19.804  44.865   7.655
 6716POPC   NC317423  24.518  36.944   9.455
 6716POPC   PO417424  24.511  36.911   9.155
 6716POPC   GL117425  24.540  36.883   8.855
 6716POPC   GL217426  24.333  36.897   8.855
 6716POPC   C1A17427  24.509  36.949   8.555
 6716POPC   D2A17428  24.453  36.910   8.255
 6716POPC   C3A17429  24.448  36.905   7.955
 6716POPC   C4A17430  24.503  36.880   7.655
 6716POPC   C1B17431  24.237  36.875   8.555
 6716POPC   C2B17432  24.282  36.856   8.255
 6716POPC   C3B17433  24.203  36.825   7.955
 6716POPC   C4B17434  24.293  36.818   7.655
 6717POPC   NC317435   9.783  19.880   9.455
 6717POPC   PO417436   9.719  19.834   9.155
 6717POPC   GL117437   9.752  19.819   8.855
 6717POPC   GL217438   9.689  19.667   8.855
 6717POPC   C1A17439   9.767  19.842   8.555
 6717POPC   D2A17440   9.774  19.785   8.255
 6717POPC   C3A17441   9.716  19.851   7.955
 6717POPC   C4A17442   9.778  19.879   7.655
 6717POPC   C1B17443   9.711  19.574   8.555
 6717POPC   C2B17444   9.717  19.612   8.255
 6717POPC   C3B17445   9.684  19.636   7.955
 6717POPC   C4B17446   9.689  19.621   7.655
 6718POPC   NC317447   4.286  34.583   9.455
 6718POPC   PO417448   4.296  34.586   9.155
 6718POPC   GL117449   4.328  34.584   8.855
 6718POPC   GL217450   4.267  34.485   8.855
 6718POPC   C1A17451   4.352  34.581   8.555
 6718POPC   D2A17452   4.323  34.609   8.255
 6718POPC   C3A17453   4.284  34.597   7.955
 6718POPC   C4A17454   4.280  34.612   7.655
 6718POPC   C1B17455   4.209  34.369   8.555
 6718POPC   C2B17456   4.223  34.361   8.255
 6718POPC   C3B17457   4.221  34.354   7.955
 6718POPC   C4B17458   4.235  34.309   7.655
 6719POPC   NC317459   6.633  44.672   9.455
 6719POPC   PO417460   6.632  44.700   9.155
 6719POPC   GL117461   6.660  44.668   8.855
 6719POPC   GL217462   6.710  44.763   8.855
 6719POPC   C1A17463   6.647  44.621   8.555
 6719POPC   D2A17464   6.637  44.620   8.255
 6719POPC   C3A17465   6.679  44.703   7.955
 6719POPC   C4A17466   6.657  44.665   7.655
 6719POPC   C1B17467   6.728  44.885   8.555
 6719POPC   C2B17468   6.719  44.925   8.255
 6719POPC   C3B17469   6.705  44.885   7.955
 6719POPC   C4B17470   6.642  44.870   7.655
 6720POPC   NC317471  24.483  28.407   9.455
 6720POPC   PO417472  24.516  28.405   9.155
 6720POPC   GL117473  24.501  28.362   8.855
 6720POPC   GL217474  24.544  28.238   8.855
 6720POPC   C1A17475  24.507  28.383   8.555
 6720POPC   D2A17476  24.525  28.367   8.255
 6720POPC   C3A17477  24.447  28.339   7.955
 6720POPC   C4A17478  24.532  28.375   7.655
 6720POPC   C1B17479  24.650  28.145   8.555
 6720POPC   C2B17480  24.617  28.203   8.255
 6720POPC   C3B17481  24.661  28.180   7.955
 6720POPC   C4B17482  24.671  28.124   7.655
 6721POPC   NC317483  26.776  34.569   9.455
 6721POPC   PO417484  26.821  34.541   9.155
 6721POPC   GL117485  26.778  34.569   8.855
 6721POPC   GL217486  26.893  34.588   8.855
 6721POPC   C1A17487  26.813  34.553   8.555
 6721POPC   D2A17488  26.803  34.613   8.255
 6721POPC   C3A17489  26.799  34.576   7.955
 6721POPC   C4A17490  26.809  34.555   7.655
 6721POPC   C1B17491  27.010  34.489   8.555
 6721POPC   C2B17492  27.042  34.539   8.255
 6721POPC   C3B17493  27.047  34.486   7.955
 6721POPC   C4B17494  27.087  34.483   7.655
 6722POPC   NC317495  43.070   2.725   9.455
 6722POPC   PO417496  43.108   2.754   9.155
 6722POPC   GL117497  43.104   2.761   8.855
 6722POPC   GL217498  43.243   2.799   8.855
 6722POPC   C1A17499  43.135   2.720   8.555
 6722POPC   D2A17500  43.120   2.787   8.255
 6722POPC   C3A17501  43.086   2.809   7.955
 6722POPC   C4A17502  43.142   2.721   7.655
 6722POPC   C1B17503  43.397   2.790   8.555
 6722POPC   C2B17504  43.373   2.779   8.255
 6722POPC   C3B17505  43.355   2.760   7.955
 6722POPC   C4B17506  43.379   2.782   7.655
 6723POPC   NC317507   5.901  19.808   9.455
 6723POPC   PO417508   5.855  19.808   9.155
 6723POPC   GL117509   5.862  19.879   8.855
 6723POPC   GL217510   5.794  19.832   8.855
 6723POPC   C1A17511   5.857  19.873   8.555
 6723POPC   D2A17512   5.899  19.796   8.255
 6723POPC   C3A17513   5.910  19.814   7.955
 6723POPC   C4A17514   5.825  19.872   7.655
 6723POPC   C1B17515   5.572  19.850   8.555
 6723POPC   C2B17516   5.618  19.787   8.255
 6723POPC   C3B17517   5.664  19.824   7.955
 6723POPC   C4B17518   5.597  19.793   7.655
 6724POPC   NC317519   9.715  42.376   9.455
 6724POPC   PO417520   9.742  42.383   9.155
 6724POPC   GL117521   9.763  42.364   8.855
 6724POPC   GL217522   9.828  42.411   8.855
 6724POPC   C1A17523   9.702  42.340   8.555
 6724POPC   D2A17524   9.779  42.358   8.255
 6724POPC   C3A17525   9.756  42.370   7.955
 6724POPC   C4A17526   9.765  42.324   7.655
 6724POPC   C1B17527   9.932  42.481   8.555
 6724POPC   C2B17528   9.952  42.509   8.255
 6724POPC   C3B17529   9.952  42.502   7.955
 6724POPC   C4B17530   9.951  42.548   7.655
 6725POPC   NC317531   8.220  29.900   9.455
 6725POPC   PO417532   8.170  29.899   9.155
 6725POPC   GL117533   8.181  29.966   8.855
 6725POPC   GL217534   8.114  29.823   8.855
 6725POPC   C1A17535   8.240  29.925   8.555
 6725POPC   D2A17536   8.157  29.931   8.255
 6725POPC   C3A17537   8.187  29.909   7.955
 6725POPC   C4A17538   8.243  29.940   7.655
 6725POPC   C1B17539   7.985  29.860   8.555
 6725POPC   C2B17540   8.006  29.857   8.255
 6725POPC   C3B17541   7.996  29.858   7.955
 6725POPC   C4B17542   7.998  29.801   7.655
 6726POPC   NC317543  36.157  42.329   9.455
 6726POPC   PO417544  36.176  42.316   9.155
 6726POPC   GL117545  36.080  42.296   8.855
 6726POPC   GL217546  36.104  42.199   8.855
 6726POPC   C1A17547  36.084  42.351   8.555
 6726POPC   D2A17548  36.125  42.379   8.255
 6726POPC   C3A17549  36.105  42.316   7.955
 6726POPC   C4A17550  36.120  42.345   7.655
 6726POPC   C1B17551  36.076  42.044   8.555
 6726POPC   C2B17552  36.132  42.060   8.255
 6726POPC   C3B17553  36.102  42.041   7.955
 6726POPC   C4B17554  36.069  42.101   7.655
 6727POPC   NC317555  16.730  34.542   9.455
 6727POPC   PO417556  16.719  34.624   9.155
 6727POPC   GL117557  16.696  34.578   8.855
 6727POPC   GL217558  16.602  34.529   8.855
 6727POPC   C1A17559  16.733  34.583   8.555
 6727POPC   D2A17560  16.757  34.617   8.255
 6727POPC   C3A17561  16.737  34.555   7.955
 6727POPC   C4A17562  16.780  34.588   7.655
 6727POPC   C1B17563  16.617  34.348   8.555
 6727POPC   C2B17564  16.603  34.349   8.255
 6727POPC   C3B17565  16.602  34.403   7.955
 6727POPC   C4B17566  16.619  34.371   7.655
 6728POPC   NC317567  22.900  33.802   9.455
 6728POPC   PO417568  22.898  33.759   9.155
 6728POPC   GL117569  22.916  33.768   8.855
 6728POPC   GL217570  22.913  33.661   8.855
 6728POPC   C1A17571  22.918  33.788   8.555
 6728POPC   D2A17572  22.948  33.806   8.255
 6728POPC   C3A17573  22.924  33.788   7.955
 6728POPC   C4A17574  22.924  33.805   7.655
 6728POPC   C1B17575  22.761  33.604   8.555
 6728POPC   C2B17576  22.785  33.572   8.255
 6728POPC   C3B17577  22.766  33.604   7.955
 6728POPC   C4B17578  22.819  33.613   7.655
 6729POPC   NC317579  17.467  38.460   9.455
 6729POPC   PO417580  17.488  38.460   9.155
 6729POPC   GL117581  17.490  38.440   8.855
 6729POPC   GL217582  17.518  38.306   8.855
 6729POPC   C1A17583  17.457  38.490   8.555
 6729POPC   D2A17584  17.532  38.439   8.255
 6729POPC   C3A17585  17.540  38.465   7.955
 6729POPC   C4A17586  17.465  38.438   7.655
 6729POPC   C1B17587  17.660  38.259   8.555
 6729POPC   C2B17588  17.611  38.213   8.255
 6729POPC   C3B17589  17.620  38.213   7.955
 6729POPC   C4B17590  17.606  38.197   7.655
 6730POPC   NC317591  12.900  12.123   9.455
 6730POPC   PO417592  12.837  12.088   9.155
 6730POPC   GL117593  12.881  12.115   8.855
 6730POPC   GL217594  12.692  12.084   8.855
 6730POPC   C1A17595  12.887  12.098   8.555
 6730POPC   D2A17596  12.880  12.041   8.255
 6730POPC   C3A17597  12.816  12.029   7.955
 6730POPC   C4A17598  12.818  12.048   7.655
 6730POPC   C1B17599  12.580  12.197   8.555
 6730POPC   C2B17600  12.597  12.155   8.255
 6730POPC   C3B17601  12.639  12.203   7.955
 6730POPC   C4B17602  12.663  12.164   7.655
 6731POPC   NC317603  32.212   1.262   9.455
 6731POPC   PO417604  32.251   1.249   9.155
 6731POPC   GL117605  32.252   1.253   8.855
 6731POPC   GL217606  32.281   1.315   8.855
 6731POPC   C1A17607  32.238   1.224   8.555
 6731POPC   D2A17608  32.245   1.190   8.255
 6731POPC   C3A17609  32.257   1.217   7.955
 6731POPC   C4A17610  32.263   1.168   7.655
 6731POPC   C1B17611  32.285   1.499   8.555
 6731POPC   C2B17612  32.291   1.463   8.255
 6731POPC   C3B17613  32.312   1.418   7.955
 6731POPC   C4B17614  32.295   1.481   7.655
 6732POPC   NC317615  44.625  34.556   9.455
 6732POPC   PO417616  44.672  34.546   9.155
 6732POPC   GL117617  44.613  34.536   8.855
 6732POPC   GL217618  44.493  34.602   8.855
 6732POPC   C1A17619  44.613  34.555   8.555
 6732POPC   D2A17620  44.704  34.594   8.255
 6732POPC   C3A17621  44.673  34.543   7.955
 6732POPC   C4A17622  44.685  34.617   7.655
 6732POPC   C1B17623  44.464  34.504   8.555
 6732POPC   C2B17624  44.427  34.550   8.255
 6732POPC   C3B17625  44.461  34.574   7.955
 6732POPC   C4B17626  44.424  34.534   7.655
 6733POPC   NC317627   1.210  23.687   9.455
 6733POPC   PO417628   1.248  23.682   9.155
 6733POPC   GL117629   1.231  23.718   8.855
 6733POPC   GL217630   1.270  23.807   8.855
 6733POPC   C1A17631   1.245  23.682   8.555
 6733POPC   D2A17632   1.196  23.748   8.255
 6733POPC   C3A17633   1.232  23.678   7.955
 6733POPC   C4A17634   1.194  23.758   7.655
 6733POPC   C1B17635   1.239  23.928   8.555
 6733POPC   C2B17636   1.308  23.987   8.255
 6733POPC   C3B17637   1.250  23.976   7.955
 6733POPC   C4B17638   1.289  23.906   7.655
 6734POPC   NC317639  34.587  16.707   9.455
 6734POPC   PO417640  34.601  16.721   9.155
 6734POPC   GL117641  34.547  16.695   8.855
 6734POPC   GL217642  34.508  16.776   8.855
 6734POPC   C1A17643  34.527  16.757   8.555
 6734POPC   D2A17644  34.584  16.772   8.255
 6734POPC   C3A17645  34.586  16.690   7.955
 6734POPC   C4A17646  34.581  16.740   7.655
 6734POPC   C1B17647  34.304  16.856   8.555
 6734POPC   C2B17648  34.354  16.847   8.255
 6734POPC   C3B17649  34.365  16.822   7.955
 6734POPC   C4B17650  34.309  16.863   7.655
 6735POPC   NC317651  17.496  33.836   9.455
 6735POPC   PO417652  17.544  33.838   9.155
 6735POPC   GL117653  17.529  33.779   8.855
 6735POPC   GL217654  17.600  33.704   8.855
 6735POPC   C1A17655  17.464  33.753   8.555
 6735POPC   D2A17656  17.466  33.793   8.255
 6735POPC   C3A17657  17.483  33.845   7.955
 6735POPC   C4A17658  17.487  33.845   7.655
 6735POPC   C1B17659  17.606  33.559   8.555
 6735POPC   C2B17660  17.647  33.642   8.255
 6735POPC   C3B17661  17.618  33.546   7.955
 6735POPC   C4B17662  17.675  33.619   7.655
 6736POPC   NC317663  17.497  40.039   9.455
 6736POPC   PO417664  17.480  39.982   9.155
 6736POPC   GL117665  17.512  40.041   8.855
 6736POPC   GL217666  17.588  39.982   8.855
 6736POPC   C1A17667  17.545  40.009   8.555
 6736POPC   D2A17668  17.460  39.987   8.255
 6736POPC   C3A17669  17.489  39.990   7.955
 6736POPC   C4A17670  17.474  40.050   7.655
 6736POPC   C1B17671  17.715  39.931   8.555
 6736POPC   C2B17672  17.786  39.968   8.255
 6736POPC   C3B17673  17.734  39.926   7.955
 6736POPC   C4B17674  17.716  39.931   7.655
 6737POPC   NC317675   3.590  36.935   9.455
 6737POPC   PO417676   3.557  36.873   9.155
 6737POPC   GL117677   3.541  36.916   8.855
 6737POPC   GL217678   3.616  36.832   8.855
 6737POPC   C1A17679   3.574  36.854   8.555
 6737POPC   D2A17680   3.578  36.936   8.255
 6737POPC   C3A17681   3.559  36.927   7.955
 6737POPC   C4A17682   3.580  36.902   7.655
 6737POPC   C1B17683   3.729  36.768   8.555
 6737POPC   C2B17684   3.733  36.812   8.255
 6737POPC   C3B17685   3.762  36.781   7.955
 6737POPC   C4B17686   3.733  36.768   7.655
 6738POPC   NC317687  31.433   1.190   9.455
 6738POPC   PO417688  31.496   1.252   9.155
 6738POPC   GL117689  31.481   1.209   8.855
 6738POPC   GL217690  31.516   1.073   8.855
 6738POPC   C1A17691  31.459   1.234   8.555
 6738POPC   D2A17692  31.467   1.228   8.255
 6738POPC   C3A17693  31.465   1.238   7.955
 6738POPC   C4A17694  31.438   1.199   7.655
 6738POPC   C1B17695  31.515   0.947   8.555
 6738POPC   C2B17696  31.529   0.934   8.255
 6738POPC   C3B17697  31.550   1.005   7.955
 6738POPC   C4B17698  31.537   0.962   7.655
 6739POPC   NC317699  26.793   4.351   9.455
 6739POPC   PO417700  26.863   4.353   9.155
 6739POPC   GL117701  26.834   4.290   8.855
 6739POPC   GL217702  26.887   4.472   8.855
 6739POPC   C1A17703  26.841   4.342   8.555
 6739POPC   D2A17704  26.837   4.349   8.255
 6739POPC   C3A17705  26.861   4.277   7.955
 6739POPC   C4A17706  26.804   4.330   7.655
 6739POPC   C1B17707  26.897   4.584   8.555
 6739POPC   C2B17708  26.886   4.562   8.255
 6739POPC   C3B17709  26.841   4.596   7.955
 6739POPC   C4B17710  26.850   4.520   7.655
 6740POPC   NC317711  16.004  37.639   9.455
 6740POPC   PO417712  15.919  37.643   9.155
 6740POPC   GL117713  15.942  37.635   8.855
 6740POPC   GL217714  15.895  37.823   8.855
 6740POPC   C1A17715  15.998  37.665   8.555
 6740POPC   D2A17716  15.972  37.670   8.255
 6740POPC   C3A17717  15.981  37.722   7.955
 6740POPC   C4A17718  15.976  37.672   7.655
 6740POPC   C1B17719  15.921  37.893   8.555
 6740POPC   C2B17720  15.896  37.968   8.255
 6740POPC   C3B17721  15.977  37.953   7.955
 6740POPC   C4B17722  15.916  37.946   7.655
 6741POPC   NC317723  19.089  12.887   9.455
 6741POPC   PO417724  19.021  12.802   9.155
 6741POPC   GL117725  19.089  12.836   8.855
 6741POPC   GL217726  19.094  12.782   8.855
 6741POPC   C1A17727  19.050  12.838   8.555
 6741POPC   D2A17728  19.099  12.834   8.255
 6741POPC   C3A17729  19.077  12.880   7.955
 6741POPC   C4A17730  19.088  12.814   7.655
 6741POPC   C1B17731  19.216  12.618   8.555
 6741POPC   C2B17732  19.152  12.621   8.255
 6741POPC   C3B17733  19.154  12.627   7.955
 6741POPC   C4B17734  19.222  12.622   7.655
 6742POPC   NC317735  37.726   9.761   9.455
 6742POPC   PO417736  37.640   9.737   9.155
 6742POPC   GL117737  37.698   9.702   8.855
 6742POPC   GL217738  37.698   9.877   8.855
 6742POPC   C1A17739  37.650   9.764   8.555
 6742POPC   D2A17740  37.657   9.795   8.255
 6742POPC   C3A17741  37.648   9.734   7.955
 6742POPC   C4A17742  37.724   9.767   7.655
 6742POPC   C1B17743  37.696   9.988   8.555
 6742POPC   C2B17744  37.710   9.994   8.255
 6742POPC   C3B17745  37.676   9.982   7.955
 6742POPC   C4B17746  37.646   9.997   7.655
 6743POPC   NC317747  19.807  38.489   9.455
 6743POPC   PO417748  19.799  38.504   9.155
 6743POPC   GL117749  19.789  38.502   8.855
 6743POPC   GL217750  19.757  38.541   8.855
 6743POPC   C1A17751  19.849  38.429   8.555
 6743POPC   D2A17752  19.794  38.441   8.255
 6743POPC   C3A17753  19.880  38.462   7.955
 6743POPC   C4A17754  19.859  38.430   7.655
 6743POPC   C1B17755  19.729  38.680   8.555
 6743POPC   C2B17756  19.745  38.659   8.255
 6743POPC   C3B17757  19.777  38.700   7.955
 6743POPC   C4B17758  19.789  38.672   7.655
 6744POPC   NC317759  43.088  44.701   9.455
 6744POPC   PO417760  43.133  44.710   9.155
 6744POPC   GL117761  43.142  44.694   8.855
 6744POPC   GL217762  43.221  44.525   8.855
 6744POPC   C1A17763  43.102  44.679   8.555
 6744POPC   D2A17764  43.082  44.667   8.255
 6744POPC   C3A17765  43.146  44.636   7.955
 6744POPC   C4A17766  43.132  44.683   7.655
 6744POPC   C1B17767  43.244  44.429   8.555
 6744POPC   C2B17768  43.260  44.508   8.255
 6744POPC   C3B17769  43.277  44.449   7.955
 6744POPC   C4B17770  43.281  44.472   7.655
 6745POPC   NC317771   6.619  32.200   9.455
 6745POPC   PO417772   6.606  32.263   9.155
 6745POPC   GL117773   6.683  32.233   8.855
 6745POPC   GL217774   6.501  32.206   8.855
 6745POPC   C1A17775   6.667  32.222   8.555
 6745POPC   D2A17776   6.644  32.297   8.255
 6745POPC   C3A17777   6.684  32.205   7.955
 6745POPC   C4A17778   6.687  32.202   7.655
 6745POPC   C1B17779   6.372  32.200   8.555
 6745POPC   C2B17780   6.400  32.221   8.255
 6745POPC   C3B17781   6.417  32.184   7.955
 6745POPC   C4B17782   6.437  32.171   7.655
 6746POPC   NC317783  14.445  20.578   9.455
 6746POPC   PO417784  14.412  20.567   9.155
 6746POPC   GL117785  14.361  20.590   8.855
 6746POPC   GL217786  14.362  20.726   8.855
 6746POPC   C1A17787  14.413  20.660   8.555
 6746POPC   D2A17788  14.420  20.613   8.255
 6746POPC   C3A17789  14.441  20.650   7.955
 6746POPC   C4A17790  14.404  20.657   7.655
 6746POPC   C1B17791  14.319  20.803   8.555
 6746POPC   C2B17792  14.306  20.870   8.255
 6746POPC   C3B17793  14.286  20.842   7.955
 6746POPC   C4B17794  14.308  20.801   7.655
 6747POPC   NC317795  17.543  29.932   9.455
 6747POPC   PO417796  17.466  29.948   9.155
 6747POPC   GL117797  17.506  29.882   8.855
 6747POPC   GL217798  17.665  29.972   8.855
 6747POPC   C1A17799  17.523  29.968   8.555
 6747POPC   D2A17800  17.502  29.886   8.255
 6747POPC   C3A17801  17.518  29.933   7.955
 6747POPC   C4A17802  17.458  29.964   7.655
 6747POPC   C1B17803  17.710  30.036   8.555
 6747POPC   C2B17804  17.722  29.992   8.255
 6747POPC   C3B17805  17.762  30.008   7.955
 6747POPC   C4B17806  17.721  30.043   7.655
 6748POPC   NC317807   3.580   8.233   9.455
 6748POPC   PO417808   3.502   8.147   9.155
 6748POPC   GL117809   3.525   8.243   8.855
 6748POPC   GL217810   3.600   8.298   8.855
 6748POPC   C1A17811   3.512   8.238   8.555
 6748POPC   D2A17812   3.495   8.152   8.255
 6748POPC   C3A17813   3.535   8.175   7.955
 6748POPC   C4A17814   3.528   8.218   7.655
 6748POPC   C1B17815   3.712   8.379   8.555
 6748POPC   C2B17816   3.684   8.380   8.255
 6748POPC   C3B17817   3.734   8.383   7.955
 6748POPC   C4B17818   3.681   8.338   7.655
 6749POPC   NC317819  33.035  16.766   9.455
 6749POPC   PO417820  33.042  16.718   9.155
 6749POPC   GL117821  32.995  16.745   8.855
 6749POPC   GL217822  33.137  16.774   8.855
 6749POPC   C1A17823  32.978  16.693   8.555
 6749POPC   D2A17824  32.982  16.717   8.255
 6749POPC   C3A17825  33.052  16.740   7.955
 6749POPC   C4A17826  33.005  16.703   7.655
 6749POPC   C1B17827  33.285  16.755   8.555
 6749POPC   C2B17828  33.298  16.786   8.255
 6749POPC   C3B17829  33.232  16.781   7.955
 6749POPC   C4B17830  33.256  16.816   7.655
 6750POPC   NC317831   6.619   2.732   9.455
 6750POPC   PO417832   6.601   2.718   9.155
 6750POPC   GL117833   6.640   2.790   8.855
 6750POPC   GL217834   6.747   2.903   8.855
 6750POPC   C1A17835   6.630   2.741   8.555
 6750POPC   D2A17836   6.668   2.766   8.255
 6750POPC   C3A17837   6.688   2.801   7.955
 6750POPC   C4A17838   6.601   2.795   7.655
 6750POPC   C1B17839   6.720   2.988   8.555
 6750POPC   C2B17840   6.802   3.001   8.255
 6750POPC   C3B17841   6.764   3.007   7.955
 6750POPC   C4B17842   6.718   2.949   7.655
 6751POPC   NC317843  10.569   1.181   9.455
 6751POPC   PO417844  10.547   1.241   9.155
 6751POPC   GL117845  10.477   1.196   8.855
 6751POPC   GL217846  10.545   1.279   8.855
 6751POPC   C1A17847  10.514   1.261   8.555
 6751POPC   D2A17848  10.491   1.189   8.255
 6751POPC   C3A17849  10.526   1.212   7.955
 6751POPC   C4A17850  10.514   1.241   7.655
 6751POPC   C1B17851  10.666   1.431   8.555
 6751POPC   C2B17852  10.634   1.479   8.255
 6751POPC   C3B17853  10.596   1.494   7.955
 6751POPC   C4B17854  10.622   1.447   7.655
 6752POPC   NC317855  43.922  42.313   9.455
 6752POPC   PO417856  43.865  42.354   9.155
 6752POPC   GL117857  43.875  42.353   8.855
 6752POPC   GL217858  43.820  42.383   8.855
 6752POPC   C1A17859  43.860  42.303   8.555
 6752POPC   D2A17860  43.843  42.361   8.255
 6752POPC   C3A17861  43.867  42.288   7.955
 6752POPC   C4A17862  43.935  42.371   7.655
 6752POPC   C1B17863  43.722  42.523   8.555
 6752POPC   C2B17864  43.719  42.509   8.255
 6752POPC   C3B17865  43.658  42.521   7.955
 6752POPC   C4B17866  43.657  42.496   7.655
 6753POPC   NC317867  16.773  38.452   9.455
 6753POPC   PO417868  16.744  38.417   9.155
 6753POPC   GL117869  16.741  38.498   8.855
 6753POPC   GL217870  16.592  38.367   8.855
 6753POPC   C1A17871  16.740  38.464   8.555
 6753POPC   D2A17872  16.692  38.416   8.255
 6753POPC   C3A17873  16.738  38.495   7.955
 6753POPC   C4A17874  16.701  38.480   7.655
 6753POPC   C1B17875  16.516  38.270   8.555
 6753POPC   C2B17876  16.507  38.317   8.255
 6753POPC   C3B17877  16.580  38.297   7.955
 6753POPC   C4B17878  16.575  38.327   7.655
 6754POPC   NC317879  43.063  42.370   9.455
 6754POPC   PO417880  43.082  42.322   9.155
 6754POPC   GL117881  43.071  42.330   8.855
 6754POPC   GL217882  43.024  42.311   8.855
 6754POPC   C1A17883  43.082  42.345   8.555
 6754POPC   D2A17884  43.117  42.285   8.255
 6754POPC   C3A17885  43.153  42.301   7.955
 6754POPC   C4A17886  43.122  42.340   7.655
 6754POPC   C1B17887  42.816  42.369   8.555
 6754POPC   C2B17888  42.850  42.334   8.255
 6754POPC   C3B17889  42.874  42.322   7.955
 6754POPC   C4B17890  42.890  42.295   7.655
 6755POPC   NC317891  29.932   3.576   9.455
 6755POPC   PO417892  29.896   3.563   9.155
 6755POPC   GL117893  29.939   3.558   8.855
 6755POPC   GL217894  29.824   3.458   8.855
 6755POPC   C1A17895  29.964   3.501   8.555
 6755POPC   D2A17896  29.929   3.555   8.255
 6755POPC   C3A17897  29.907   3.568   7.955
 6755POPC   C4A17898  29.969   3.588   7.655
 6755POPC   C1B17899  29.864   3.346   8.555
 6755POPC   C2B17900  29.774   3.355   8.255
 6755POPC   C3B17901  29.768   3.341   7.955
 6755POPC   C4B17902  29.802   3.355   7.655
 6756POPC   NC317903  12.832   5.111   9.455
 6756POPC   PO417904  12.824   5.115   9.155
 6756POPC   GL117905  12.810   5.133   8.855
 6756POPC   GL217906  12.738   5.004   8.855
 6756POPC   C1A17907  12.848   5.090   8.555
 6756POPC   D2A17908  12.887   5.139   8.255
 6756POPC   C3A17909  12.824   5.138   7.955
 6756POPC   C4A17910  12.864   5.119   7.655
 6756POPC   C1B17911  12.690   4.888   8.555
 6756POPC   C2B17912  12.713   4.871   8.255
 6756POPC   C3B17913  12.753   4.904   7.955
 6756POPC   C4B17914  12.732   4.908   7.655
 6757POPC   NC317915  43.858  43.849   9.455
 6757POPC   PO417916  43.909  43.911   9.155
 6757POPC   GL117917  43.855  43.874   8.855
 6757POPC   GL217918  43.943  43.766   8.855
 6757POPC   C1A17919  43.845  43.860   8.555
 6757POPC   D2A17920  43.869  43.859   8.255
 6757POPC   C3A17921  43.891  43.889   7.955
 6757POPC   C4A17922  43.851  43.888   7.655
 6757POPC   C1B17923  43.951  43.623   8.555
 6757POPC   C2B17924  43.959  43.675   8.255
 6757POPC   C3B17925  43.958  43.605   7.955
 6757POPC   C4B17926  43.959  43.674   7.655
 6758POPC   NC317927  15.957  12.079   9.455
 6758POPC   PO417928  15.928  12.082   9.155
 6758POPC   GL117929  15.992  12.109   8.855
 6758POPC   GL217930  15.877  11.948   8.855
 6758POPC   C1A17931  15.960  12.123   8.555
 6758POPC   D2A17932  15.967  12.091   8.255
 6758POPC   C3A17933  15.964  12.040   7.955
 6758POPC   C4A17934  15.939  12.042   7.655
 6758POPC   C1B17935  15.897  11.843   8.555
 6758POPC   C2B17936  15.873  11.795   8.255
 6758POPC   C3B17937  15.900  11.792   7.955
 6758POPC   C4B17938  15.907  11.805   7.655
 6759POPC   NC317939  36.903  22.945   9.455
 6759POPC   PO417940  36.915  22.938   9.155
 6759POPC   GL117941  36.907  22.968   8.855
 6759POPC   GL217942  36.835  22.808   8.855
 6759POPC   C1A17943  36.938  22.978   8.555
 6759POPC   D2A17944  36.899  22.913   8.255
 6759POPC   C3A17945  36.932  22.897   7.955
 6759POPC   C4A17946  36.859  22.981   7.655
 6759POPC   C1B17947  36.770  22.733   8.555
 6759POPC   C2B17948  36.843  22.723   8.255
 6759POPC   C3B17949  36.837  22.724   7.955
 6759POPC   C4B17950  36.841  22.733   7.655
 6760POPC   NC317951  23.724  33.822   9.455
 6760POPC   PO417952  23.731  33.785   9.155
 6760POPC   GL117953  23.685  33.774   8.855
 6760POPC   GL217954  23.780  33.693   8.855
 6760POPC   C1A17955  23.693  33.844   8.555
 6760POPC   D2A17956  23.666  33.800   8.255
 6760POPC   C3A17957  23.739  33.838   7.955
 6760POPC   C4A17958  23.761  33.842   7.655
 6760POPC   C1B17959  23.752  33.538   8.555
 6760POPC   C2B17960  23.745  33.515   8.255
 6760POPC   C3B17961  23.780  33.513   7.955
 6760POPC   C4B17962  23.763  33.559   7.655
 6761POPC   NC317963  31.428   5.907   9.455
 6761POPC   PO417964  31.498   5.831   9.155
 6761POPC   GL117965  31.445   5.831   8.855
 6761POPC   GL217966  31.462   5.783   8.855
 6761POPC   C1A17967  31.497   5.849   8.555
 6761POPC   D2A17968  31.514   5.879   8.255
 6761POPC   C3A17969  31.483   5.868   7.955
 6761POPC   C4A17970  31.486   5.839   7.655
 6761POPC   C1B17971  31.555   5.589   8.555
 6761POPC   C2B17972  31.517   5.674   8.255
 6761POPC   C3B17973  31.536   5.641   7.955
 6761POPC   C4B17974  31.574   5.618   7.655
 6762POPC   NC317975  33.827  29.915   9.455
 6762POPC   PO417976  33.776  29.953   9.155
 6762POPC   GL117977  33.817  29.922   8.855
 6762POPC   GL217978  33.715  29.871   8.855
 6762POPC   C1A17979  33.825  29.957   8.555
 6762POPC   D2A17980  33.821  29.879   8.255
 6762POPC   C3A17981  33.788  29.947   7.955
 6762POPC   C4A17982  33.822  29.931   7.655
 6762POPC   C1B17983  33.684  29.755   8.555
 6762POPC   C2B17984  33.592  29.700   8.255
 6762POPC   C3B17985  33.684  29.706   7.955
 6762POPC   C4B17986  33.611  29.702   7.655
 6763POPC   NC317987   5.834   7.440   9.455
 6763POPC   PO417988   5.892   7.418   9.155
 6763POPC   GL117989   5.860   7.417   8.855
 6763POPC   GL217990   5.973   7.483   8.855
 6763POPC   C1A17991   5.887   7.464   8.555
 6763POPC   D2A17992   5.893   7.428   8.255
 6763POPC   C3A17993   5.841   7.410   7.955
 6763POPC   C4A17994   5.888   7.450   7.655
 6763POPC   C1B17995   6.039   7.554   8.555
 6763POPC   C2B17996   6.060   7.572   8.255
 6763POPC   C3B17997   6.056   7.590   7.955
 6763POPC   C4B17998   6.008   7.590   7.655
 6764POPC   NC317999  29.886   1.166   9.455
 6764POPC   PO418000  29.902   1.196   9.155
 6764POPC   GL118001  29.939   1.209   8.855
 6764POPC   GL218002  30.017   1.204   8.855
 6764POPC   C1A18003  29.949   1.197   8.555
 6764POPC   D2A18004  29.874   1.197   8.255
 6764POPC   C3A18005  29.875   1.197   7.955
 6764POPC   C4A18006  29.877   1.181   7.655
 6764POPC   C1B18007  30.102   1.144   8.555
 6764POPC   C2B18008  30.150   1.121   8.255
 6764POPC   C3B18009  30.172   1.157   7.955
 6764POPC   C4B18010  30.143   1.114   7.655
 6765POPC   NC318011   2.739   5.121   9.455
 6765POPC   PO418012   2.815   5.060   9.155
 6765POPC   GL118013   2.808   5.056   8.855
 6765POPC   GL218014   2.880   5.018   8.855
 6765POPC   C1A18015   2.719   5.061   8.555
 6765POPC   D2A18016   2.777   5.138   8.255
 6765POPC   C3A18017   2.757   5.069   7.955
 6765POPC   C4A18018   2.761   5.080   7.655
 6765POPC   C1B18019   2.855   4.914   8.555
 6765POPC   C2B18020   2.928   4.874   8.255
 6765POPC   C3B18021   2.887   4.926   7.955
 6765POPC   C4B18022   2.887   4.890   7.655
 6766POPC   NC318023  14.418  16.744   9.455
 6766POPC   PO418024  14.436  16.727   9.155
 6766POPC   GL118025  14.403  16.751   8.855
 6766POPC   GL218026  14.550  16.666   8.855
 6766POPC   C1A18027  14.381  16.701   8.555
 6766POPC   D2A18028  14.413  16.701   8.255
 6766POPC   C3A18029  14.450  16.771   7.955
 6766POPC   C4A18030  14.436  16.715   7.655
 6766POPC   C1B18031  14.624  16.720   8.555
 6766POPC   C2B18032  14.618  16.633   8.255
 6766POPC   C3B18033  14.601  16.633   7.955
 6766POPC   C4B18034  14.687  16.709   7.655
 6767POPC   NC318035  39.200  12.110   9.455
 6767POPC   PO418036  39.259  12.109   9.155
 6767POPC   GL118037  39.225  12.036   8.855
 6767POPC   GL218038  39.093  12.041   8.855
 6767POPC   C1A18039  39.208  12.108   8.555
 6767POPC   D2A18040  39.214  12.096   8.255
 6767POPC   C3A18041  39.190  12.119   7.955
 6767POPC   C4A18042  39.279  12.035   7.655
 6767POPC   C1B18043  39.010  12.054   8.555
 6767POPC   C2B18044  38.974  12.017   8.255
 6767POPC   C3B18045  39.021  12.105   7.955
 6767POPC   C4B18046  38.984  12.093   7.655
 6768POPC   NC318047  42.374  33.785   9.455
 6768POPC   PO418048  42.340  33.785   9.155
 6768POPC   GL118049  42.292  33.763   8.855
 6768POPC   GL218050  42.416  33.835   8.855
 6768POPC   C1A18051  42.294  33.847   8.555
 6768POPC   D2A18052  42.368  33.766   8.255
 6768POPC   C3A18053  42.318  33.805   7.955
 6768POPC   C4A18054  42.370  33.803   7.655
 6768POPC   C1B18055  42.501  34.000   8.555
 6768POPC   C2B18056  42.522  33.949   8.255
 6768POPC   C3B18057  42.494  33.938   7.955
 6768POPC   C4B18058  42.528  33.991   7.655
 6769POPC   NC318059   0.397  38.486   9.455
 6769POPC   PO418060   0.458  38.486   9.155
 6769POPC   GL118061   0.437  38.481   8.855
 6769POPC   GL218062   0.313  38.518   8.855
 6769POPC   C1A18063   0.447  38.436   8.555
 6769POPC   D2A18064   0.433  38.463   8.255
 6769POPC   C3A18065   0.450  38.483   7.955
 6769POPC   C4A18066   0.440  38.405   7.655
 6769POPC   C1B18067   0.246  38.595   8.555
 6769POPC   C2B18068   0.258  38.556   8.255
 6769POPC   C3B18069   0.239  38.642   7.955
 6769POPC   C4B18070   0.237  38.610   7.655
 6770POPC   NC318071  43.860  39.963   9.455
 6770POPC   PO418072  43.875  40.011   9.155
 6770POPC   GL118073  43.906  40.047   8.855
 6770POPC   GL218074  43.956  39.872   8.855
 6770POPC   C1A18075  43.847  40.046   8.555
 6770POPC   D2A18076  43.840  40.000   8.255
 6770POPC   C3A18077  43.898  40.040   7.955
 6770POPC   C4A18078  43.872  39.972   7.655
 6770POPC   C1B18079  44.114  39.846   8.555
 6770POPC   C2B18080  44.086  39.787   8.255
 6770POPC   C3B18081  44.034  39.883   7.955
 6770POPC   C4B18082  44.084  39.799   7.655
 6771POPC   NC318083   6.677  39.191   9.455
 6771POPC   PO418084   6.681  39.196   9.155
 6771POPC   GL118085   6.634  39.273   8.855
 6771POPC   GL218086   6.697  39.285   8.855
 6771POPC   C1A18087   6.657  39.183   8.555
 6771POPC   D2A18088   6.692  39.195   8.255
 6771POPC   C3A18089   6.624  39.268   7.955
 6771POPC   C4A18090   6.685  39.280   7.655
 6771POPC   C1B18091   6.790  39.388   8.555
 6771POPC   C2B18092   6.793  39.356   8.255
 6771POPC   C3B18093   6.825  39.365   7.955
 6771POPC   C4B18094   6.803  39.422   7.655
 6772POPC   NC318095   6.676  31.461   9.455
 6772POPC   PO418096   6.626  31.440   9.155
 6772POPC   GL118097   6.650  31.454   8.855
 6772POPC   GL218098   6.691  31.310   8.855
 6772POPC   C1A18099   6.640  31.480   8.555
 6772POPC   D2A18100   6.598  31.443   8.255
 6772POPC   C3A18101   6.666  31.429   7.955
 6772POPC   C4A18102   6.662  31.517   7.655
 6772POPC   C1B18103   6.647  31.196   8.555
 6772POPC   C2B18104   6.644  31.258   8.255
 6772POPC   C3B18105   6.659  31.237   7.955
 6772POPC   C4B18106   6.721  31.263   7.655
 6773POPC   NC318107  37.696  26.829   9.455
 6773POPC   PO418108  37.715  26.816   9.155
 6773POPC   GL118109  37.698  26.771   8.855
 6773POPC   GL218110  37.728  26.950   8.855
 6773POPC   C1A18111  37.677  26.847   8.555
 6773POPC   D2A18112  37.650  26.822   8.255
 6773POPC   C3A18113  37.679  26.866   7.955
 6773POPC   C4A18114  37.652  26.849   7.655
 6773POPC   C1B18115  37.869  26.968   8.555
 6773POPC   C2B18116  37.887  26.990   8.255
 6773POPC   C3B18117  37.811  26.979   7.955
 6773POPC   C4B18118  37.824  27.012   7.655
 6774POPC   NC318119  43.063  36.859   9.455
 6774POPC   PO418120  43.142  36.931   9.155
 6774POPC   GL118121  43.110  36.899   8.855
 6774POPC   GL218122  43.058  37.048   8.855
 6774POPC   C1A18123  43.140  36.870   8.555
 6774POPC   D2A18124  43.091  36.906   8.255
 6774POPC   C3A18125  43.087  36.873   7.955
 6774POPC   C4A18126  43.151  36.898   7.655
 6774POPC   C1B18127  43.036  37.132   8.555
 6774POPC   C2B18128  43.063  37.160   8.255
 6774POPC   C3B18129  43.008  37.139   7.955
 6774POPC   C4B18130  43.064  37.119   7.655
 6775POPC   NC318131  32.996  41.562   9.455
 6775POPC   PO418132  33.072  41.594   9.155
 6775POPC   GL118133  33.057  41.531   8.855
 6775POPC   GL218134  33.158  41.491   8.855
 6775POPC   C1A18135  33.005  41.582   8.555
 6775POPC   D2A18136  33.006  41.572   8.255
 6775POPC   C3A18137  32.995  41.584   7.955
 6775POPC   C4A18138  33.054  41.559   7.655
 6775POPC   C1B18139  33.230  41.388   8.555
 6775POPC   C2B18140  33.220  41.426   8.255
 6775POPC   C3B18141  33.217  41.355   7.955
 6775POPC   C4B18142  33.213  41.364   7.655
 6776POPC   NC318143   5.123  26.825   9.455
 6776POPC   PO418144   5.124  26.834   9.155
 6776POPC   GL118145   5.136  26.811   8.855
 6776POPC   GL218146   5.171  26.805   8.855
 6776POPC   C1A18147   5.139  26.865   8.555
 6776POPC   D2A18148   5.133  26.848   8.255
 6776POPC   C3A18149   5.100  26.776   7.955
 6776POPC   C4A18150   5.142  26.830   7.655
 6776POPC   C1B18151   5.362  26.751   8.555
 6776POPC   C2B18152   5.328  26.745   8.255
 6776POPC   C3B18153   5.351  26.737   7.955
 6776POPC   C4B18154   5.287  26.809   7.655
 6777POPC   NC318155   3.550   5.882   9.455
 6777POPC   PO418156   3.528   5.829   9.155
 6777POPC   GL118157   3.511   5.911   8.855
 6777POPC   GL218158   3.658   5.959   8.855
 6777POPC   C1A18159   3.579   5.872   8.555
 6777POPC   D2A18160   3.516   5.835   8.255
 6777POPC   C3A18161   3.517   5.892   7.955
 6777POPC   C4A18162   3.540   5.865   7.655
 6777POPC   C1B18163   3.726   6.084   8.555
 6777POPC   C2B18164   3.733   6.063   8.255
 6777POPC   C3B18165   3.713   6.014   7.955
 6777POPC   C4B18166   3.660   6.019   7.655
 6778POPC   NC318167  26.865   7.401   9.455
 6778POPC   PO418168  26.821   7.378   9.155
 6778POPC   GL118169  26.867   7.381   8.855
 6778POPC   GL218170  26.773   7.312   8.855
 6778POPC   C1A18171  26.822   7.413   8.555
 6778POPC   D2A18172  26.824   7.379   8.255
 6778POPC   C3A18173  26.854   7.436   7.955
 6778POPC   C4A18174  26.823   7.451   7.655
 6778POPC   C1B18175  26.709   7.167   8.555
 6778POPC   C2B18176  26.742   7.160   8.255
 6778POPC   C3B18177  26.711   7.173   7.955
 6778POPC   C4B18178  26.749   7.149   7.655
 6779POPC   NC318179   1.191   7.383   9.455
 6779POPC   PO418180   1.199   7.445   9.155
 6779POPC   GL118181   1.229   7.383   8.855
 6779POPC   GL218182   1.285   7.547   8.855
 6779POPC   C1A18183   1.184   7.375   8.555
 6779POPC   D2A18184   1.232   7.423   8.255
 6779POPC   C3A18185   1.192   7.411   7.955
 6779POPC   C4A18186   1.182   7.402   7.655
 6779POPC   C1B18187   1.424   7.567   8.555
 6779POPC   C2B18188   1.420   7.574   8.255
 6779POPC   C3B18189   1.396   7.582   7.955
 6779POPC   C4B18190   1.411   7.629   7.655
 6780POPC   NC318191  19.865  29.102   9.455
 6780POPC   PO418192  19.825  29.158   9.155
 6780POPC   GL118193  19.856  29.169   8.855
 6780POPC   GL218194  19.704  29.218   8.855
 6780POPC   C1A18195  19.819  29.175   8.555
 6780POPC   D2A18196  19.821  29.100   8.255
 6780POPC   C3A18197  19.876  29.182   7.955
 6780POPC   C4A18198  19.853  29.149   7.655
 6780POPC   C1B18199  19.605  29.260   8.555
 6780POPC   C2B18200  19.605  29.319   8.255
 6780POPC   C3B18201  19.622  29.275   7.955
 6780POPC   C4B18202  19.603  29.289   7.655
 6781POPC   NC318203  19.059  22.899   9.455
 6781POPC   PO418204  19.091  22.946   9.155
 6781POPC   GL118205  19.038  22.986   8.855
 6781POPC   GL218206  18.984  23.044   8.855
 6781POPC   C1A18207  19.024  22.900   8.555
 6781POPC   D2A18208  19.072  22.955   8.255
 6781POPC   C3A18209  19.090  22.900   7.955
 6781POPC   C4A18210  19.068  22.904   7.655
 6781POPC   C1B18211  18.807  23.047   8.555
 6781POPC   C2B18212  18.823  23.046   8.255
 6781POPC   C3B18213  18.813  23.098   7.955
 6781POPC   C4B18214  18.846  23.109   7.655
 6782POPC   NC318215  25.304  29.903   9.455
 6782POPC   PO418216  25.231  29.900   9.155
 6782POPC   GL118217  25.225  29.882   8.855
 6782POPC   GL218218  25.219  29.877   8.855
 6782POPC   C1A18219  25.217  29.885   8.555
 6782POPC   D2A18220  25.233  29.915   8.255
 6782POPC   C3A18221  25.226  29.951   7.955
 6782POPC   C4A18222  25.300  29.891   7.655
 6782POPC   C1B18223  25.050  29.708   8.555
 6782POPC   C2B18224  25.089  29.730   8.255
 6782POPC   C3B18225  25.060  29.720   7.955
 6782POPC   C4B18226  25.106  29.700   7.655
 6783POPC   NC318227  12.857  15.971   9.455
 6783POPC   PO418228  12.833  15.920   9.155
 6783POPC   GL118229  12.846  15.989   8.855
 6783POPC   GL218230  12.842  15.875   8.855
 6783POPC   C1A18231  12.828  15.935   8.555
 6783POPC   D2A18232  12.878  16.005   8.255
 6783POPC   C3A18233  12.891  15.993   7.955
 6783POPC   C4A18234  12.834  15.972   7.655
 6783POPC   C1B18235  12.828  15.714   8.555
 6783POPC   C2B18236  12.816  15.725   8.255
 6783POPC   C3B18237  12.851  15.746   7.955
 6783POPC   C4B18238  12.843  15.700   7.655
 6784POPC   NC318239   1.968   7.469   9.455
 6784POPC   PO418240   2.003   7.449   9.155
 6784POPC   GL118241   2.014   7.381   8.855
 6784POPC   GL218242   1.851   7.358   8.855
 6784POPC   C1A18243   1.984   7.467   8.555
 6784POPC   D2A18244   1.973   7.378   8.255
 6784POPC   C3A18245   2.037   7.387   7.955
 6784POPC   C4A18246   1.989   7.396   7.655
 6784POPC   C1B18247   1.774   7.299   8.555
 6784POPC   C2B18248   1.803   7.324   8.255
 6784POPC   C3B18249   1.809   7.275   7.955
 6784POPC   C4B18250   1.751   7.269   7.655
 6785POPC   NC318251  10.554  39.203   9.455
 6785POPC   PO418252  10.573  39.242   9.155
 6785POPC   GL118253  10.527  39.243   8.855
 6785POPC   GL218254  10.353  39.271   8.855
 6785POPC   C1A18255  10.537  39.238   8.555
 6785POPC   D2A18256  10.498  39.200   8.255
 6785POPC   C3A18257  10.570  39.272   7.955
 6785POPC   C4A18258  10.537  39.254   7.655
 6785POPC   C1B18259  10.295  39.306   8.555
 6785POPC   C2B18260  10.296  39.268   8.255
 6785POPC   C3B18261  10.243  39.289   7.955
 6785POPC   C4B18262  10.271  39.222   7.655
 6786POPC   NC318263  39.219  37.720   9.455
 6786POPC   PO418264  39.193  37.673   9.155
 6786POPC   GL118265  39.252  37.664   8.855
 6786POPC   GL218266  39.244  37.764   8.855
 6786POPC   C1A18267  39.187  37.714   8.555
 6786POPC   D2A18268  39.240  37.658   8.255
 6786POPC   C3A18269  39.199  37.709   7.955
 6786POPC   C4A18270  39.255  37.664   7.655
 6786POPC   C1B18271  39.257  37.905   8.555
 6786POPC   C2B18272  39.284  37.940   8.255
 6786POPC   C3B18273  39.239  37.914   7.955
 6786POPC   C4B18274  39.269  37.948   7.655
 6787POPC   NC318275  36.155  22.162   9.455
 6787POPC   PO418276  36.105  22.126   9.155
 6787POPC   GL118277  36.144  22.181   8.855
 6787POPC   GL218278  36.019  22.055   8.855
 6787POPC   C1A18279  36.104  22.133   8.555
 6787POPC   D2A18280  36.078  22.179   8.255
 6787POPC   C3A18281  36.151  22.113   7.955
 6787POPC   C4A18282  36.123  22.169   7.655
 6787POPC   C1B18283  35.967  21.919   8.555
 6787POPC   C2B18284  36.023  21.922   8.255
 6787POPC   C3B18285  36.025  21.947   7.955
 6787POPC   C4B18286  35.974  21.931   7.655
 6788POPC   NC318287  29.184  17.486   9.455
 6788POPC   PO418288  29.175  17.470   9.155
 6788POPC   GL118289  29.175  17.485   8.855
 6788POPC   GL218290  28.988  17.458   8.855
 6788POPC   C1A18291  29.185  17.557   8.555
 6788POPC   D2A18292  29.171  17.474   8.255
 6788POPC   C3A18293  29.162  17.548   7.955
 6788POPC   C4A18294  29.165  17.541   7.655
 6788POPC   C1B18295  28.886  17.445   8.555
 6788POPC   C2B18296  28.864  17.399   8.255
 6788POPC   C3B18297  28.888  17.461   7.955
 6788POPC   C4B18298  28.921  17.401   7.655
 6789POPC   NC318299  12.050   8.982   9.455
 6789POPC   PO418300  12.048   8.959   9.155
 6789POPC   GL118301  12.051   8.961   8.855
 6789POPC   GL218302  11.957   8.969   8.855
 6789POPC   C1A18303  12.066   8.977   8.555
 6789POPC   D2A18304  12.039   8.933   8.255
 6789POPC   C3A18305  12.091   8.993   7.955
 6789POPC   C4A18306  12.040   8.928   7.655
 6789POPC   C1B18307  11.858   9.042   8.555
 6789POPC   C2B18308  11.857   9.037   8.255
 6789POPC   C3B18309  11.832   9.043   7.955
 6789POPC   C4B18310  11.807   9.027   7.655
 6790POPC   NC318311  36.136  41.531   9.455
 6790POPC   PO418312  36.086  41.513   9.155
 6790POPC   GL118313  36.167  41.581   8.855
 6790POPC   GL218314  36.036  41.666   8.855
 6790POPC   C1A18315  36.152  41.547   8.555
 6790POPC   D2A18316  36.125  41.512   8.255
 6790POPC   C3A18317  36.108  41.527   7.955
 6790POPC   C4A18318  36.131  41.580   7.655
 6790POPC   C1B18319  35.904  41.716   8.555
 6790POPC   C2B18320  35.922  41.731   8.255
 6790POPC   C3B18321  35.899  41.700   7.955
 6790POPC   C4B18322  35.947  41.694   7.655
 6791POPC   NC318323  29.121  27.576   9.455
 6791POPC   PO418324  29.136  27.627   9.155
 6791POPC   GL118325  29.110  27.594   8.855
 6791POPC   GL218326  29.006  27.587   8.855
 6791POPC   C1A18327  29.121  27.614   8.555
 6791POPC   D2A18328  29.150  27.614   8.255
 6791POPC   C3A18329  29.117  27.604   7.955
 6791POPC   C4A18330  29.139  27.632   7.655
 6791POPC   C1B18331  28.898  27.494   8.555
 6791POPC   C2B18332  28.871  27.517   8.255
 6791POPC   C3B18333  28.954  27.528   7.955
 6791POPC   C4B18334  28.905  27.487   7.655
 6792POPC   NC318335  44.669  15.222   9.455
 6792POPC   PO418336  44.703  15.228   9.155
 6792POPC   GL118337  44.675  15.165   8.855
 6792POPC   GL218338  44.591  15.218   8.855
 6792POPC   C1A18339  44.704  15.182   8.555
 6792POPC   D2A18340  44.667  15.136   8.255
 6792POPC   C3A18341  44.692  15.175   7.955
 6792POPC   C4A18342  44.648  15.224   7.655
 6792POPC   C1B18343  44.457  15.365   8.555
 6792POPC   C2B18344  44.430  15.303   8.255
 6792POPC   C3B18345  44.497  15.365   7.955
 6792POPC   C4B18346  44.509  15.349   7.655
 6793POPC   NC318347  16.693  33.061   9.455
 6793POPC   PO418348  16.777  33.070   9.155
 6793POPC   GL118349  16.753  33.012   8.855
 6793POPC   GL218350  16.819  32.952   8.855
 6793POPC   C1A18351  16.766  32.987   8.555
 6793POPC   D2A18352  16.716  32.977   8.255
 6793POPC   C3A18353  16.773  33.045   7.955
 6793POPC   C4A18354  16.689  33.029   7.655
 6793POPC   C1B18355  16.935  32.942   8.555
 6793POPC   C2B18356  16.937  32.951   8.255
 6793POPC   C3B18357  16.997  32.899   7.955
 6793POPC   C4B18358  16.947  32.962   7.655
 6794POPC   NC318359  22.972   7.458   9.455
 6794POPC   PO418360  22.979   7.440   9.155
 6794POPC   GL118361  22.965   7.405   8.855
 6794POPC   GL218362  22.819   7.507   8.855
 6794POPC   C1A18363  22.901   7.397   8.555
 6794POPC   D2A18364  22.941   7.414   8.255
 6794POPC   C3A18365  22.961   7.469   7.955
 6794POPC   C4A18366  22.977   7.434   7.655
 6794POPC   C1B18367  22.733   7.591   8.555
 6794POPC   C2B18368  22.730   7.579   8.255
 6794POPC   C3B18369  22.772   7.598   7.955
 6794POPC   C4B18370  22.731   7.591   7.655
 6795POPC   NC318371  11.327  25.222   9.455
 6795POPC   PO418372  11.295  25.262   9.155
 6795POPC   GL118373  11.310  25.252   8.855
 6795POPC   GL218374  11.431  25.290   8.855
 6795POPC   C1A18375  11.285  25.247   8.555
 6795POPC   D2A18376  11.332  25.301   8.255
 6795POPC   C3A18377  11.316  25.280   7.955
 6795POPC   C4A18378  11.328  25.305   7.655
 6795POPC   C1B18379  11.550  25.427   8.555
 6795POPC   C2B18380  11.543  25.368   8.255
 6795POPC   C3B18381  11.491  25.384   7.955
 6795POPC   C4B18382  11.534  25.415   7.655
 6796POPC   NC318383  21.382  41.607   9.455
 6796POPC   PO418384  21.425  41.547   9.155
 6796POPC   GL118385  21.344  41.534   8.855
 6796POPC   GL218386  21.513  41.425   8.855
 6796POPC   C1A18387  21.415  41.518   8.555
 6796POPC   D2A18388  21.395  41.594   8.255
 6796POPC   C3A18389  21.376  41.594   7.955
 6796POPC   C4A18390  21.375  41.563   7.655
 6796POPC   C1B18391  21.560  41.336   8.555
 6796POPC   C2B18392  21.595  41.386   8.255
 6796POPC   C3B18393  21.512  41.378   7.955
 6796POPC   C4B18394  21.539  41.393   7.655
 6797POPC   NC318395  26.852  16.721   9.455
 6797POPC   PO418396  26.833  16.723   9.155
 6797POPC   GL118397  26.783  16.692   8.855
 6797POPC   GL218398  26.686  16.715   8.855
 6797POPC   C1A18399  26.859  16.763   8.555
 6797POPC   D2A18400  26.793  16.762   8.255
 6797POPC   C3A18401  26.791  16.693   7.955
 6797POPC   C4A18402  26.852  16.775   7.655
 6797POPC   C1B18403  26.567  16.756   8.555
 6797POPC   C2B18404  26.535  16.728   8.255
 6797POPC   C3B18405  26.534  16.708   7.955
 6797POPC   C4B18406  26.587  16.756   7.655
 6798POPC   NC318407  38.412  32.295   9.455
 6798POPC   PO418408  38.459  32.244   9.155
 6798POPC   GL118409  38.417  32.290   8.855
 6798POPC   GL218410  38.500  32.360   8.855
 6798POPC   C1A18411  38.471  32.236   8.555
 6798POPC   D2A18412  38.470  32.220   8.255
 6798POPC   C3A18413  38.488  32.243   7.955
 6798POPC   C4A18414  38.455  32.262   7.655
 6798POPC   C1B18415  38.542  32.458   8.555
 6798POPC   C2B18416  38.539  32.456   8.255
 6798POPC   C3B18417  38.484  32.511   7.955
 6798POPC   C4B18418  38.546  32.464   7.655
 6799POPC   NC318419  40.052  25.291   9.455
 6799POPC   PO418420  40.028  25.295   9.155
 6799POPC   GL118421  40.011  25.247   8.855
 6799POPC   GL218422  40.131  25.229   8.855
 6799POPC   C1A18423  40.009  25.273   8.555
 6799POPC   D2A18424  39.969  25.237   8.255
 6799POPC   C3A18425  39.998  25.298   7.955
 6799POPC   C4A18426  39.967  25.216   7.655
 6799POPC   C1B18427  40.192  25.137   8.555
 6799POPC   C2B18428  40.172  25.135   8.255
 6799POPC   C3B18429  40.197  25.101   7.955
 6799POPC   C4B18430  40.220  25.142   7.655
 6800POPC   NC318431  26.804  33.023   9.455
 6800POPC   PO418432  26.788  33.013   9.155
 6800POPC   GL118433  26.796  33.027   8.855
 6800POPC   GL218434  26.758  32.895   8.855
 6800POPC   C1A18435  26.861  33.002   8.555
 6800POPC   D2A18436  26.855  33.046   8.255
 6800POPC   C3A18437  26.825  33.065   7.955
 6800POPC   C4A18438  26.807  33.030   7.655
 6800POPC   C1B18439  26.711  32.806   8.555
 6800POPC   C2B18440  26.745  32.805   8.255
 6800POPC   C3B18441  26.750  32.776   7.955
 6800POPC   C4B18442  26.712  32.795   7.655
 6801POPC   NC318443  39.260  33.831   9.455
 6801POPC   PO418444  39.199  33.773   9.155
 6801POPC   GL118445  39.195  33.804   8.855
 6801POPC   GL218446  39.284  33.734   8.855
 6801POPC   C1A18447  39.211  33.848   8.555
 6801POPC   D2A18448  39.276  33.758   8.255
 6801POPC   C3A18449  39.236  33.789   7.955
 6801POPC   C4A18450  39.270  33.771   7.655
 6801POPC   C1B18451  39.418  33.596   8.555
 6801POPC   C2B18452  39.411  33.627   8.255
 6801POPC   C3B18453  39.352  33.626   7.955
 6801POPC   C4B18454  39.337  33.588   7.655
 6802POPC   NC318455   7.438  30.740   9.455
 6802POPC   PO418456   7.382  30.652   9.155
 6802POPC   GL118457   7.436  30.651   8.855
 6802POPC   GL218458   7.547  30.781   8.855
 6802POPC   C1A18459   7.393  30.694   8.555
 6802POPC   D2A18460   7.436  30.723   8.255
 6802POPC   C3A18461   7.406  30.684   7.955
 6802POPC   C4A18462   7.468  30.681   7.655
 6802POPC   C1B18463   7.618  30.830   8.555
 6802POPC   C2B18464   7.684  30.842   8.255
 6802POPC   C3B18465   7.637  30.799   7.955
 6802POPC   C4B18466   7.682  30.869   7.655
 6803POPC   NC318467  43.097  13.670   9.455
 6803POPC   PO418468  43.143  13.668   9.155
 6803POPC   GL118469  43.070  13.582   8.855
 6803POPC   GL218470  43.082  13.797   8.855
 6803POPC   C1A18471  43.091  13.591   8.555
 6803POPC   D2A18472  43.115  13.618   8.255
 6803POPC   C3A18473  43.123  13.614   7.955
 6803POPC   C4A18474  43.070  13.594   7.655
 6803POPC   C1B18475  43.074  13.846   8.555
 6803POPC   C2B18476  43.169  13.881   8.255
 6803POPC   C3B18477  43.081  13.914   7.955
 6803POPC   C4B18478  43.125  13.836   7.655
 6804POPC   NC318479  12.115  22.124   9.455
 6804POPC   PO418480  12.027  22.166   9.155
 6804POPC   GL118481  12.050  22.166   8.855
 6804POPC   GL218482  12.166  22.150   8.855
 6804POPC   C1A18483  12.108  22.199   8.555
 6804POPC   D2A18484  12.032  22.140   8.255
 6804POPC   C3A18485  12.056  22.166   7.955
 6804POPC   C4A18486  12.099  22.200   7.655
 6804POPC   C1B18487  12.271  22.041   8.555
 6804POPC   C2B18488  12.307  22.046   8.255
 6804POPC   C3B18489  12.312  22.070   7.955
 6804POPC   C4B18490  12.313  22.025   7.655
 6805POPC   NC318491  14.377  13.665   9.455
 6805POPC   PO418492  14.398  13.588   9.155
 6805POPC   GL118493  14.436  13.677   8.855
 6805POPC   GL218494  14.522  13.656   8.855
 6805POPC   C1A18495  14.376  13.628   8.555
 6805POPC   D2A18496  14.418  13.643   8.255
 6805POPC   C3A18497  14.417  13.646   7.955
 6805POPC   C4A18498  14.409  13.591   7.655
 6805POPC   C1B18499  14.608  13.660   8.555
 6805POPC   C2B18500  14.686  13.677   8.255
 6805POPC   C3B18501  14.660  13.662   7.955
 6805POPC   C4B18502  14.703  13.583   7.655
 6806POPC   NC318503   8.989  42.327   9.455
 6806POPC   PO418504   8.931  42.335   9.155
 6806POPC   GL118505   9.007  42.315   8.855
 6806POPC   GL218506   9.066  42.415   8.855
 6806POPC   C1A18507   8.997  42.382   8.555
 6806POPC   D2A18508   9.013  42.328   8.255
 6806POPC   C3A18509   8.971  42.353   7.955
 6806POPC   C4A18510   8.946  42.359   7.655
 6806POPC   C1B18511   9.070  42.523   8.555
 6806POPC   C2B18512   9.095  42.529   8.255
 6806POPC   C3B18513   9.074  42.504   7.955
 6806POPC   C4B18514   9.112  42.532   7.655
 6807POPC   NC318515   8.940  43.935   9.455
 6807POPC   PO418516   8.952  43.860   9.155
 6807POPC   GL118517   9.000  43.859   8.855
 6807POPC   GL218518   9.008  43.804   8.855
 6807POPC   C1A18519   8.934  43.859   8.555
 6807POPC   D2A18520   8.943  43.874   8.255
 6807POPC   C3A18521   8.929  43.837   7.955
 6807POPC   C4A18522   8.980  43.859   7.655
 6807POPC   C1B18523   9.109  43.672   8.555
 6807POPC   C2B18524   9.142  43.627   8.255
 6807POPC   C3B18525   9.120  43.635   7.955
 6807POPC   C4B18526   9.062  43.717   7.655
 6808POPC   NC318527  35.395  22.115   9.455
 6808POPC   PO418528  35.401  22.131   9.155
 6808POPC   GL118529  35.359  22.188   8.855
 6808POPC   GL218530  35.308  22.039   8.855
 6808POPC   C1A18531  35.341  22.173   8.555
 6808POPC   D2A18532  35.364  22.115   8.255
 6808POPC   C3A18533  35.354  22.161   7.955
 6808POPC   C4A18534  35.347  22.194   7.655
 6808POPC   C1B18535  35.289  21.959   8.555
 6808POPC   C2B18536  35.242  21.903   8.255
 6808POPC   C3B18537  35.289  21.920   7.955
 6808POPC   C4B18538  35.281  21.933   7.655
 6809POPC   NC318539  42.314  13.587   9.455
 6809POPC   PO418540  42.329  13.662   9.155
 6809POPC   GL118541  42.310  13.632   8.855
 6809POPC   GL218542  42.194  13.715   8.855
 6809POPC   C1A18543  42.370  13.623   8.555
 6809POPC   D2A18544  42.353  13.617   8.255
 6809POPC   C3A18545  42.334  13.616   7.955
 6809POPC   C4A18546  42.346  13.647   7.655
 6809POPC   C1B18547  42.090  13.733   8.555
 6809POPC   C2B18548  42.063  13.753   8.255
 6809POPC   C3B18549  42.102  13.736   7.955
 6809POPC   C4B18550  42.146  13.664   7.655
 6810POPC   NC318551   1.246   5.085   9.455
 6810POPC   PO418552   1.237   5.133   9.155
 6810POPC   GL118553   1.212   5.058   8.855
 6810POPC   GL218554   1.293   4.979   8.855
 6810POPC   C1A18555   1.251   5.068   8.555
 6810POPC   D2A18556   1.211   5.097   8.255
 6810POPC   C3A18557   1.245   5.052   7.955
 6810POPC   C4A18558   1.222   5.102   7.655
 6810POPC   C1B18559   1.366   4.948   8.555
 6810POPC   C2B18560   1.404   4.853   8.255
 6810POPC   C3B18561   1.353   4.877   7.955
 6810POPC   C4B18562   1.397   4.851   7.655
 6811POPC   NC318563  10.565  19.856   9.455
 6811POPC   PO418564  10.551  19.809   9.155
 6811POPC   GL118565  10.551  19.826   8.855
 6811POPC   GL218566  10.483  19.991   8.855
 6811POPC   C1A18567  10.523  19.785   8.555
 6811POPC   D2A18568  10.480  19.787   8.255
 6811POPC   C3A18569  10.487  19.864   7.955
 6811POPC   C4A18570  10.524  19.844   7.655
 6811POPC   C1B18571  10.502  20.114   8.555
 6811POPC   C2B18572  10.517  20.060   8.255
 6811POPC   C3B18573  10.538  20.055   7.955
 6811POPC   C4B18574  10.554  20.092   7.655
 6812POPC   NC318575  31.450   7.468   9.455
 6812POPC   PO418576  31.489   7.388   9.155
 6812POPC   GL118577  31.451   7.410   8.855
 6812POPC   GL218578  31.565   7.525   8.855
 6812POPC   C1A18579  31.446   7.420   8.555
 6812POPC   D2A18580  31.450   7.401   8.255
 6812POPC   C3A18581  31.469   7.377   7.955
 6812POPC   C4A18582  31.503   7.426   7.655
 6812POPC   C1B18583  31.557   7.626   8.555
 6812POPC   C2B18584  31.592   7.659   8.255
 6812POPC   C3B18585  31.552   7.668   7.955
 6812POPC   C4B18586  31.613   7.627   7.655
 6813POPC   NC318587  20.573  20.636   9.455
 6813POPC   PO418588  20.636  20.652   9.155
 6813POPC   GL118589  20.657  20.594   8.855
 6813POPC   GL218590  20.741  20.570   8.855
 6813POPC   C1A18591  20.635  20.568   8.555
 6813POPC   D2A18592  20.634  20.594   8.255
 6813POPC   C3A18593  20.568  20.560   7.955
 6813POPC   C4A18594  20.639  20.578   7.655
 6813POPC   C1B18595  20.844  20.581   8.555
 6813POPC   C2B18596  20.883  20.634   8.255
 6813POPC   C3B18597  20.845  20.577   7.955
 6813POPC   C4B18598  20.900  20.643   7.655
 6814POPC   NC318599  31.423   6.645   9.455
 6814POPC   PO418600  31.519   6.636   9.155
 6814POPC   GL118601  31.428   6.660   8.855
 6814POPC   GL218602  31.601   6.618   8.855
 6814POPC   C1A18603  31.520   6.685   8.555
 6814POPC   D2A18604  31.509   6.622   8.255
 6814POPC   C3A18605  31.494   6.645   7.955
 6814POPC   C4A18606  31.440   6.689   7.655
 6814POPC   C1B18607  31.703   6.668   8.555
 6814POPC   C2B18608  31.693   6.686   8.255
 6814POPC   C3B18609  31.747   6.652   7.955
 6814POPC   C4B18610  31.703   6.638   7.655
 6815POPC   NC318611  33.040   7.381   9.455
 6815POPC   PO418612  32.995   7.440   9.155
 6815POPC   GL118613  33.022   7.400   8.855
 6815POPC   GL218614  32.958   7.318   8.855
 6815POPC   C1A18615  33.044   7.417   8.555
 6815POPC   D2A18616  33.037   7.429   8.255
 6815POPC   C3A18617  33.058   7.404   7.955
 6815POPC   C4A18618  33.011   7.423   7.655
 6815POPC   C1B18619  32.827   7.283   8.555
 6815POPC   C2B18620  32.806   7.281   8.255
 6815POPC   C3B18621  32.812   7.212   7.955
 6815POPC   C4B18622  32.857   7.268   7.655
 6816POPC   NC318623  39.244  31.458   9.455
 6816POPC   PO418624  39.238  31.470   9.155
 6816POPC   GL118625  39.238  31.476   8.855
 6816POPC   GL218626  39.370  31.409   8.855
 6816POPC   C1A18627  39.183  31.423   8.555
 6816POPC   D2A18628  39.225  31.464   8.255
 6816POPC   C3A18629  39.219  31.434   7.955
 6816POPC   C4A18630  39.209  31.425   7.655
 6816POPC   C1B18631  39.401  31.360   8.555
 6816POPC   C2B18632  39.426  31.312   8.255
 6816POPC   C3B18633  39.491  31.301   7.955
 6816POPC   C4B18634  39.443  31.372   7.655
 6817POPC   NC318635  28.374  19.009   9.455
 6817POPC   PO418636  28.321  19.063   9.155
 6817POPC   GL118637  28.407  19.088   8.855
 6817POPC   GL218638  28.334  19.169   8.855
 6817POPC   C1A18639  28.370  19.013   8.555
 6817POPC   D2A18640  28.365  19.081   8.255
 6817POPC   C3A18641  28.412  19.027   7.955
 6817POPC   C4A18642  28.413  19.023   7.655
 6817POPC   C1B18643  28.284  19.313   8.555
 6817POPC   C2B18644  28.319  19.253   8.255
 6817POPC   C3B18645  28.264  19.306   7.955
 6817POPC   C4B18646  28.250  19.347   7.655
 6818POPC   NC318647  37.726  32.284   9.455
 6818POPC   PO418648  37.677  32.244   9.155
 6818POPC   GL118649  37.727  32.279   8.855
 6818POPC   GL218650  37.761  32.338   8.855
 6818POPC   C1A18651  37.672  32.279   8.555
 6818POPC   D2A18652  37.717  32.199   8.255
 6818POPC   C3A18653  37.638  32.208   7.955
 6818POPC   C4A18654  37.683  32.261   7.655
 6818POPC   C1B18655  37.912  32.372   8.555
 6818POPC   C2B18656  37.880  32.364   8.255
 6818POPC   C3B18657  37.953  32.294   7.955
 6818POPC   C4B18658  37.907  32.346   7.655
 6819POPC   NC318659  29.172  30.662   9.455
 6819POPC   PO418660  29.121  30.710   9.155
 6819POPC   GL118661  29.147  30.656   8.855
 6819POPC   GL218662  29.142  30.817   8.855
 6819POPC   C1A18663  29.110  30.729   8.555
 6819POPC   D2A18664  29.157  30.703   8.255
 6819POPC   C3A18665  29.181  30.744   7.955
 6819POPC   C4A18666  29.185  30.732   7.655
 6819POPC   C1B18667  29.131  30.901   8.555
 6819POPC   C2B18668  29.120  30.932   8.255
 6819POPC   C3B18669  29.110  30.910   7.955
 6819POPC   C4B18670  29.103  30.936   7.655
 6820POPC   NC318671  39.965   1.955   9.455
 6820POPC   PO418672  40.049   1.984   9.155
 6820POPC   GL118673  40.001   1.946   8.855
 6820POPC   GL218674  40.054   2.127   8.855
 6820POPC   C1A18675  40.052   1.970   8.555
 6820POPC   D2A18676  40.027   2.034   8.255
 6820POPC   C3A18677  39.987   2.030   7.955
 6820POPC   C4A18678  40.000   1.966   7.655
 6820POPC   C1B18679  40.195   2.168   8.555
 6820POPC   C2B18680  40.127   2.153   8.255
 6820POPC   C3B18681  40.155   2.199   7.955
 6820POPC   C4B18682  40.200   2.171   7.655
 6821POPC   NC318683  25.284  12.070   9.455
 6821POPC   PO418684  25.281  12.038   9.155
 6821POPC   GL118685  25.277  12.074   8.855
 6821POPC   GL218686  25.193  12.159   8.855
 6821POPC   C1A18687  25.235  12.028   8.555
 6821POPC   D2A18688  25.263  12.031   8.255
 6821POPC   C3A18689  25.299  12.068   7.955
 6821POPC   C4A18690  25.275  12.035   7.655
 6821POPC   C1B18691  25.165  12.297   8.555
 6821POPC   C2B18692  25.142  12.255   8.255
 6821POPC   C3B18693  25.112  12.238   7.955
 6821POPC   C4B18694  25.098  12.320   7.655
 6822POPC   NC318695  12.820  16.765   9.455
 6822POPC   PO418696  12.832  16.735   9.155
 6822POPC   GL118697  12.830  16.683   8.855
 6822POPC   GL218698  12.901  16.600   8.855
 6822POPC   C1A18699  12.843  16.774   8.555
 6822POPC   D2A18700  12.867  16.698   8.255
 6822POPC   C3A18701  12.890  16.684   7.955
 6822POPC   C4A18702  12.869  16.684   7.655
 6822POPC   C1B18703  12.892  16.499   8.555
 6822POPC   C2B18704  12.975  16.468   8.255
 6822POPC   C3B18705  12.930  16.530   7.955
 6822POPC   C4B18706  12.937  16.450   7.655
 6823POPC   NC318707  26.056  12.100   9.455
 6823POPC   PO418708  25.994  12.102   9.155
 6823POPC   GL118709  26.039  12.108   8.855
 6823POPC   GL218710  26.034  11.996   8.855
 6823POPC   C1A18711  25.993  12.048   8.555
 6823POPC   D2A18712  26.088  12.039   8.255
 6823POPC   C3A18713  26.086  12.070   7.955
 6823POPC   C4A18714  26.052  12.118   7.655
 6823POPC   C1B18715  25.978  11.862   8.555
 6823POPC   C2B18716  25.936  11.879   8.255
 6823POPC   C3B18717  25.932  11.823   7.955
 6823POPC   C4B18718  25.974  11.807   7.655
 6824POPC   NC318719  30.704  32.241   9.455
 6824POPC   PO418720  30.675  32.213   9.155
 6824POPC   GL118721  30.689  32.208   8.855
 6824POPC   GL218722  30.645  32.387   8.855
 6824POPC   C1A18723  30.695  32.292   8.555
 6824POPC   D2A18724  30.665  32.270   8.255
 6824POPC   C3A18725  30.689  32.252   7.955
 6824POPC   C4A18726  30.653  32.203   7.655
 6824POPC   C1B18727  30.640  32.514   8.555
 6824POPC   C2B18728  30.660  32.519   8.255
 6824POPC   C3B18729  30.618  32.517   7.955
 6824POPC   C4B18730  30.645  32.509   7.655
 6825POPC   NC318731   2.773   5.882   9.455
 6825POPC   PO418732   2.814   5.900   9.155
 6825POPC   GL118733   2.803   5.871   8.855
 6825POPC   GL218734   2.820   5.951   8.855
 6825POPC   C1A18735   2.776   5.881   8.555
 6825POPC   D2A18736   2.726   5.871   8.255
 6825POPC   C3A18737   2.767   5.836   7.955
 6825POPC   C4A18738   2.740   5.840   7.655
 6825POPC   C1B18739   2.767   6.072   8.555
 6825POPC   C2B18740   2.752   6.104   8.255
 6825POPC   C3B18741   2.820   6.101   7.955
 6825POPC   C4B18742   2.747   6.162   7.655
 6826POPC   NC318743   0.406   5.132   9.455
 6826POPC   PO418744   0.418   5.044   9.155
 6826POPC   GL118745   0.441   5.135   8.855
 6826POPC   GL218746   0.542   5.029   8.855
 6826POPC   C1A18747   0.422   5.102   8.555
 6826POPC   D2A18748   0.400   5.100   8.255
 6826POPC   C3A18749   0.464   5.113   7.955
 6826POPC   C4A18750   0.419   5.067   7.655
 6826POPC   C1B18751   0.712   5.041   8.555
 6826POPC   C2B18752   0.631   5.071   8.255
 6826POPC   C3B18753   0.705   4.989   7.955
 6826POPC   C4B18754   0.706   5.081   7.655
 6827POPC   NC318755  43.871   4.341   9.455
 6827POPC   PO418756  43.896   4.275   9.155
 6827POPC   GL118757  43.839   4.277   8.855
 6827POPC   GL218758  43.774   4.371   8.855
 6827POPC   C1A18759  43.910   4.304   8.555
 6827POPC   D2A18760  43.912   4.289   8.255
 6827POPC   C3A18761  43.888   4.340   7.955
 6827POPC   C4A18762  43.864   4.301   7.655
 6827POPC   C1B18763  43.605   4.390   8.555
 6827POPC   C2B18764  43.595   4.368   8.255
 6827POPC   C3B18765  43.653   4.369   7.955
 6827POPC   C4B18766  43.641   4.376   7.655
 6828POPC   NC318767  35.363  17.470   9.455
 6828POPC   PO418768  35.379  17.494   9.155
 6828POPC   GL118769  35.386  17.461   8.855
 6828POPC   GL218770  35.446  17.443   8.855
 6828POPC   C1A18771  35.317  17.478   8.555
 6828POPC   D2A18772  35.395  17.534   8.255
 6828POPC   C3A18773  35.366  17.469   7.955
 6828POPC   C4A18774  35.379  17.552   7.655
 6828POPC   C1B18775  35.496  17.306   8.555
 6828POPC   C2B18776  35.537  17.360   8.255
 6828POPC   C3B18777  35.560  17.303   7.955
 6828POPC   C4B18778  35.513  17.352   7.655
 6829POPC   NC318779  26.051  32.983   9.455
 6829POPC   PO418780  26.035  32.975   9.155
 6829POPC   GL118781  26.041  33.074   8.855
 6829POPC   GL218782  25.882  32.955   8.855
 6829POPC   C1A18783  26.026  33.043   8.555
 6829POPC   D2A18784  26.049  33.009   8.255
 6829POPC   C3A18785  26.043  32.980   7.955
 6829POPC   C4A18786  26.013  33.050   7.655
 6829POPC   C1B18787  25.838  33.029   8.555
 6829POPC   C2B18788  25.835  33.015   8.255
 6829POPC   C3B18789  25.833  32.984   7.955
 6829POPC   C4B18790  25.840  32.945   7.655
 6830POPC   NC318791  39.234  17.467   9.455
 6830POPC   PO418792  39.204  17.472   9.155
 6830POPC   GL118793  39.254  17.503   8.855
 6830POPC   GL218794  39.173  17.447   8.855
 6830POPC   C1A18795  39.264  17.466   8.555
 6830POPC   D2A18796  39.260  17.465   8.255
 6830POPC   C3A18797  39.184  17.552   7.955
 6830POPC   C4A18798  39.212  17.527   7.655
 6830POPC   C1B18799  39.053  17.289   8.555
 6830POPC   C2B18800  39.079  17.344   8.255
 6830POPC   C3B18801  39.091  17.346   7.955
 6830POPC   C4B18802  39.068  17.329   7.655
 6831POPC   NC318803  12.103  19.051   9.455
 6831POPC   PO418804  12.062  19.069   9.155
 6831POPC   GL118805  12.028  19.060   8.855
 6831POPC   GL218806  12.124  18.995   8.855
 6831POPC   C1A18807  12.048  19.048   8.555
 6831POPC   D2A18808  12.078  19.036   8.255
 6831POPC   C3A18809  12.099  19.084   7.955
 6831POPC   C4A18810  12.107  19.032   7.655
 6831POPC   C1B18811  12.235  18.882   8.555
 6831POPC   C2B18812  12.163  18.820   8.255
 6831POPC   C3B18813  12.148  18.877   7.955
 6831POPC   C4B18814  12.167  18.804   7.655
 6832POPC   NC318815  35.393   3.570   9.455
 6832POPC   PO418816  35.387   3.521   9.155
 6832POPC   GL118817  35.357   3.501   8.855
 6832POPC   GL218818  35.355   3.611   8.855
 6832POPC   C1A18819  35.361   3.578   8.555
 6832POPC   D2A18820  35.352   3.534   8.255
 6832POPC   C3A18821  35.305   3.526   7.955
 6832POPC   C4A18822  35.316   3.576   7.655
 6832POPC   C1B18823  35.275   3.737   8.555
 6832POPC   C2B18824  35.247   3.826   8.255
 6832POPC   C3B18825  35.243   3.760   7.955
 6832POPC   C4B18826  35.322   3.813   7.655
 6833POPC   NC318827   8.197  29.114   9.455
 6833POPC   PO418828   8.155  29.119   9.155
 6833POPC   GL118829   8.223  29.184   8.855
 6833POPC   GL218830   8.207  28.999   8.855
 6833POPC   C1A18831   8.169  29.156   8.555
 6833POPC   D2A18832   8.148  29.152   8.255
 6833POPC   C3A18833   8.156  29.139   7.955
 6833POPC   C4A18834   8.211  29.098   7.655
 6833POPC   C1B18835   8.225  28.926   8.555
 6833POPC   C2B18836   8.230  28.890   8.255
 6833POPC   C3B18837   8.175  28.899   7.955
 6833POPC   C4B18838   8.171  28.878   7.655
 6834POPC   NC318839  32.284  31.448   9.455
 6834POPC   PO418840  32.231  31.453   9.155
 6834POPC   GL118841  32.249  31.520   8.855
 6834POPC   GL218842  32.134  31.479   8.855
 6834POPC   C1A18843  32.235  31.491   8.555
 6834POPC   D2A18844  32.269  31.503   8.255
 6834POPC   C3A18845  32.236  31.478   7.955
 6834POPC   C4A18846  32.283  31.467   7.655
 6834POPC   C1B18847  32.019  31.472   8.555
 6834POPC   C2B18848  31.965  31.539   8.255
 6834POPC   C3B18849  32.041  31.535   7.955
 6834POPC   C4B18850  31.989  31.482   7.655
 6835POPC   NC318851   8.231  10.500   9.455
 6835POPC   PO418852   8.206  10.523   9.155
 6835POPC   GL118853   8.189  10.508   8.855
 6835POPC   GL218854   8.227  10.597   8.855
 6835POPC   C1A18855   8.207  10.533   8.555
 6835POPC   D2A18856   8.225  10.490   8.255
 6835POPC   C3A18857   8.193  10.572   7.955
 6835POPC   C4A18858   8.161  10.514   7.655
 6835POPC   C1B18859   8.336  10.794   8.555
 6835POPC   C2B18860   8.314  10.734   8.255
 6835POPC   C3B18861   8.247  10.764   7.955
 6835POPC   C4B18862   8.288  10.719   7.655
 6836POPC   NC318863  32.294  42.351   9.455
 6836POPC   PO418864  32.269  42.368   9.155
 6836POPC   GL118865  32.204  42.294   8.855
 6836POPC   GL218866  32.153  42.445   8.855
 6836POPC   C1A18867  32.227  42.285   8.555
 6836POPC   D2A18868  32.217  42.286   8.255
 6836POPC   C3A18869  32.272  42.324   7.955
 6836POPC   C4A18870  32.282  42.285   7.655
 6836POPC   C1B18871  32.126  42.573   8.555
 6836POPC   C2B18872  32.111  42.584   8.255
 6836POPC   C3B18873  32.094  42.570   7.955
 6836POPC   C4B18874  32.170  42.589   7.655
 6837POPC   NC318875  24.482  23.733   9.455
 6837POPC   PO418876  24.485  23.719   9.155
 6837POPC   GL118877  24.471  23.741   8.855
 6837POPC   GL218878  24.456  23.633   8.855
 6837POPC   C1A18879  24.510  23.762   8.555
 6837POPC   D2A18880  24.538  23.700   8.255
 6837POPC   C3A18881  24.450  23.688   7.955
 6837POPC   C4A18882  24.472  23.718   7.655
 6837POPC   C1B18883  24.472  23.416   8.555
 6837POPC   C2B18884  24.475  23.494   8.255
 6837POPC   C3B18885  24.443  23.441   7.955
 6837POPC   C4B18886  24.475  23.428   7.655
 6838POPC   NC318887  12.124  37.718   9.455
 6838POPC   PO418888  12.088  37.668   9.155
 6838POPC   GL118889  12.066  37.676   8.855
 6838POPC   GL218890  11.996  37.624   8.855
 6838POPC   C1A18891  12.107  37.647   8.555
 6838POPC   D2A18892  12.100  37.642   8.255
 6838POPC   C3A18893  12.093  37.655   7.955
 6838POPC   C4A18894  12.047  37.696   7.655
 6838POPC   C1B18895  11.827  37.519   8.555
 6838POPC   C2B18896  11.826  37.517   8.255
 6838POPC   C3B18897  11.887  37.596   7.955
 6838POPC   C4B18898  11.855  37.578   7.655
 6839POPC   NC318899  19.053  29.942   9.455
 6839POPC   PO418900  19.053  29.907   9.155
 6839POPC   GL118901  19.040  29.906   8.855
 6839POPC   GL218902  18.962  29.812   8.855
 6839POPC   C1A18903  19.096  29.939   8.555
 6839POPC   D2A18904  19.022  29.965   8.255
 6839POPC   C3A18905  19.027  29.929   7.955
 6839POPC   C4A18906  19.103  29.967   7.655
 6839POPC   C1B18907  18.845  29.838   8.555
 6839POPC   C2B18908  18.825  29.781   8.255
 6839POPC   C3B18909  18.870  29.753   7.955
 6839POPC   C4B18910  18.861  29.787   7.655
 6840POPC   NC318911  19.087  36.926   9.455
 6840POPC   PO418912  19.044  36.909   9.155
 6840POPC   GL118913  19.052  36.915   8.855
 6840POPC   GL218914  19.139  36.759   8.855
 6840POPC   C1A18915  19.010  36.948   8.555
 6840POPC   D2A18916  19.032  36.898   8.255
 6840POPC   C3A18917  19.022  36.953   7.955
 6840POPC   C4A18918  19.021  36.917   7.655
 6840POPC   C1B18919  19.233  36.707   8.555
 6840POPC   C2B18920  19.213  36.650   8.255
 6840POPC   C3B18921  19.221  36.655   7.955
 6840POPC   C4B18922  19.189  36.732   7.655
 6841POPC   NC318923   2.773  23.698   9.455
 6841POPC   PO418924   2.807  23.705   9.155
 6841POPC   GL118925   2.757  23.685   8.855
 6841POPC   GL218926   2.774  23.604   8.855
 6841POPC   C1A18927   2.755  23.666   8.555
 6841POPC   D2A18928   2.763  23.671   8.255
 6841POPC   C3A18929   2.783  23.710   7.955
 6841POPC   C4A18930   2.752  23.700   7.655
 6841POPC   C1B18931   2.719  23.526   8.555
 6841POPC   C2B18932   2.713  23.451   8.255
 6841POPC   C3B18933   2.730  23.448   7.955
 6841POPC   C4B18934   2.649  23.496   7.655
 6842POPC   NC318935  20.596  10.536   9.455
 6842POPC   PO418936  20.656  10.532   9.155
 6842POPC   GL118937  20.621  10.546   8.855
 6842POPC   GL218938  20.680  10.635   8.855
 6842POPC   C1A18939  20.594  10.540   8.555
 6842POPC   D2A18940  20.583  10.564   8.255
 6842POPC   C3A18941  20.638  10.536   7.955
 6842POPC   C4A18942  20.640  10.498   7.655
 6842POPC   C1B18943  20.817  10.718   8.555
 6842POPC   C2B18944  20.783  10.718   8.255
 6842POPC   C3B18945  20.772  10.702   7.955
 6842POPC   C4B18946  20.819  10.697   7.655
 6843POPC   NC318947  20.580  25.300   9.455
 6843POPC   PO418948  20.631  25.243   9.155
 6843POPC   GL118949  20.596  25.297   8.855
 6843POPC   GL218950  20.643  25.428   8.855
 6843POPC   C1A18951  20.653  25.303   8.555
 6843POPC   D2A18952  20.631  25.262   8.255
 6843POPC   C3A18953  20.609  25.285   7.955
 6843POPC   C4A18954  20.630  25.298   7.655
 6843POPC   C1B18955  20.740  25.491   8.555
 6843POPC   C2B18956  20.675  25.500   8.255
 6843POPC   C3B18957  20.730  25.486   7.955
 6843POPC   C4B18958  20.740  25.492   7.655
 6844POPC   NC318959  12.047   5.073   9.455
 6844POPC   PO418960  12.047   5.092   9.155
 6844POPC   GL118961  12.026   5.108   8.855
 6844POPC   GL218962  12.003   5.054   8.855
 6844POPC   C1A18963  12.035   5.124   8.555
 6844POPC   D2A18964  12.087   5.125   8.255
 6844POPC   C3A18965  12.051   5.133   7.955
 6844POPC   C4A18966  12.104   5.074   7.655
 6844POPC   C1B18967  11.893   4.993   8.555
 6844POPC   C2B18968  11.847   4.941   8.255
 6844POPC   C3B18969  11.810   4.986   7.955
 6844POPC   C4B18970  11.871   4.979   7.655
 6845POPC   NC318971  23.706  12.101   9.455
 6845POPC   PO418972  23.752  12.115   9.155
 6845POPC   GL118973  23.753  12.041   8.855
 6845POPC   GL218974  23.614  12.120   8.855
 6845POPC   C1A18975  23.729  12.122   8.555
 6845POPC   D2A18976  23.713  12.049   8.255
 6845POPC   C3A18977  23.696  12.073   7.955
 6845POPC   C4A18978  23.668  12.114   7.655
 6845POPC   C1B18979  23.491  12.068   8.555
 6845POPC   C2B18980  23.463  12.060   8.255
 6845POPC   C3B18981  23.430  12.057   7.955
 6845POPC   C4B18982  23.417  12.149   7.655
 6846POPC   NC318983   0.483  36.104   9.455
 6846POPC   PO418984   0.476  36.177   9.155
 6846POPC   GL118985   0.442  36.117   8.855
 6846POPC   GL218986   0.442  36.239   8.855
 6846POPC   C1A18987   0.456  36.148   8.555
 6846POPC   D2A18988   0.438  36.119   8.255
 6846POPC   C3A18989   0.415  36.149   7.955
 6846POPC   C4A18990   0.399  36.177   7.655
 6846POPC   C1B18991   0.371  36.366   8.555
 6846POPC   C2B18992   0.334  36.381   8.255
 6846POPC   C3B18993   0.319  36.403   7.955
 6846POPC   C4B18994   0.381  36.375   7.655
 6847POPC   NC318995  34.558  24.493   9.455
 6847POPC   PO418996  34.577  24.448   9.155
 6847POPC   GL118997  34.625  24.492   8.855
 6847POPC   GL218998  34.564  24.599   8.855
 6847POPC   C1A18999  34.580  24.516   8.555
 6847POPC   D2A19000  34.530  24.534   8.255
 6847POPC   C3A19001  34.615  24.487   7.955
 6847POPC   C4A19002  34.618  24.459   7.655
 6847POPC   C1B19003  34.556  24.743   8.555
 6847POPC   C2B19004  34.506  24.761   8.255
 6847POPC   C3B19005  34.505  24.693   7.955
 6847POPC   C4B19006  34.563  24.712   7.655
 6848POPC   NC319007  20.574  27.544   9.455
 6848POPC   PO419008  20.579  27.572   9.155
 6848POPC   GL119009  20.575  27.609   8.855
 6848POPC   GL219010  20.750  27.553   8.855
 6848POPC   C1A19011  20.642  27.630   8.555
 6848POPC   D2A19012  20.586  27.590   8.255
 6848POPC   C3A19013  20.618  27.632   7.955
 6848POPC   C4A19014  20.562  27.587   7.655
 6848POPC   C1B19015  20.812  27.440   8.555
 6848POPC   C2B19016  20.784  27.440   8.255
 6848POPC   C3B19017  20.771  27.405   7.955
 6848POPC   C4B19018  20.794  27.456   7.655
 6849POPC   NC319019  29.124  20.576   9.455
 6849POPC   PO419020  29.190  20.649   9.155
 6849POPC   GL119021  29.110  20.620   8.855
 6849POPC   GL219022  29.066  20.750   8.855
 6849POPC   C1A19023  29.159  20.570   8.555
 6849POPC   D2A19024  29.154  20.619   8.255
 6849POPC   C3A19025  29.164  20.593   7.955
 6849POPC   C4A19026  29.135  20.647   7.655
 6849POPC   C1B19027  28.984  20.837   8.555
 6849POPC   C2B19028  28.985  20.827   8.255
 6849POPC   C3B19029  29.018  20.761   7.955
 6849POPC   C4B19030  28.998  20.752   7.655
 6850POPC   NC319031  14.425  17.464   9.455
 6850POPC   PO419032  14.403  17.552   9.155
 6850POPC   GL119033  14.395  17.463   8.855
 6850POPC   GL219034  14.551  17.612   8.855
 6850POPC   C1A19035  14.396  17.500   8.555
 6850POPC   D2A19036  14.358  17.513   8.255
 6850POPC   C3A19037  14.414  17.505   7.955
 6850POPC   C4A19038  14.438  17.504   7.655
 6850POPC   C1B19039  14.673  17.581   8.555
 6850POPC   C2B19040  14.601  17.605   8.255
 6850POPC   C3B19041  14.671  17.655   7.955
 6850POPC   C4B19042  14.610  17.625   7.655
 6851POPC   NC319043  36.952  10.540   9.455
 6851POPC   PO419044  36.938  10.494   9.155
 6851POPC   GL119045  36.886  10.498   8.855
 6851POPC   GL219046  36.975  10.454   8.855
 6851POPC   C1A19047  36.874  10.545   8.555
 6851POPC   D2A19048  36.859  10.556   8.255
 6851POPC   C3A19049  36.894  10.509   7.955
 6851POPC   C4A19050  36.950  10.522   7.655
 6851POPC   C1B19051  37.028  10.357   8.555
 6851POPC   C2B19052  37.058  10.272   8.255
 6851POPC   C3B19053  37.004  10.330   7.955
 6851POPC   C4B19054  37.037  10.279   7.655
 6852POPC   NC319055  22.187   4.345   9.455
 6852POPC   PO419056  22.159   4.320   9.155
 6852POPC   GL119057  22.183   4.271   8.855
 6852POPC   GL219058  22.065   4.459   8.855
 6852POPC   C1A19059  22.154   4.293   8.555
 6852POPC   D2A19060  22.193   4.334   8.255
 6852POPC   C3A19061  22.136   4.323   7.955
 6852POPC   C4A19062  22.174   4.294   7.655
 6852POPC   C1B19063  22.041   4.461   8.555
 6852POPC   C2B19064  22.008   4.540   8.255
 6852POPC   C3B19065  22.003   4.539   7.955
 6852POPC   C4B19066  22.048   4.482   7.655
 6853POPC   NC319067  10.493   7.388   9.455
 6853POPC   PO419068  10.565   7.440   9.155
 6853POPC   GL119069  10.524   7.412   8.855
 6853POPC   GL219070  10.420   7.479   8.855
 6853POPC   C1A19071  10.477   7.454   8.555
 6853POPC   D2A19072  10.538   7.418   8.255
 6853POPC   C3A19073  10.547   7.441   7.955
 6853POPC   C4A19074  10.496   7.446   7.655
 6853POPC   C1B19075  10.256   7.579   8.555
 6853POPC   C2B19076  10.350   7.503   8.255
 6853POPC   C3B19077  10.264   7.538   7.955
 6853POPC   C4B19078  10.287   7.511   7.655
 6854POPC   NC319079  40.005  29.954   9.455
 6854POPC   PO419080  39.972  29.878   9.155
 6854POPC   GL119081  40.001  29.915   8.855
 6854POPC   GL219082  40.029  29.803   8.855
 6854POPC   C1A19083  39.995  29.960   8.555
 6854POPC   D2A19084  39.977  29.894   8.255
 6854POPC   C3A19085  39.970  29.970   7.955
 6854POPC   C4A19086  39.994  29.937   7.655
 6854POPC   C1B19087  39.983  29.633   8.555
 6854POPC   C2B19088  39.965  29.717   8.255
 6854POPC   C3B19089  40.046  29.692   7.955
 6854POPC   C4B19090  40.044  29.661   7.655
 6855POPC   NC319091  27.568   6.621   9.455
 6855POPC   PO419092  27.610   6.621   9.155
 6855POPC   GL119093  27.563   6.691   8.855
 6855POPC   GL219094  27.563   6.513   8.855
 6855POPC   C1A19095  27.551   6.608   8.555
 6855POPC   D2A19096  27.587   6.676   8.255
 6855POPC   C3A19097  27.589   6.675   7.955
 6855POPC   C4A19098  27.626   6.681   7.655
 6855POPC   C1B19099  27.602   6.345   8.555
 6855POPC   C2B19100  27.545   6.402   8.255
 6855POPC   C3B19101  27.564   6.415   7.955
 6855POPC   C4B19102  27.579   6.357   7.655
 6856POPC   NC319103  10.524  24.462   9.455
 6856POPC   PO419104  10.475  24.519   9.155
 6856POPC   GL119105  10.560  24.526   8.855
 6856POPC   GL219106  10.656  24.401   8.855
 6856POPC   C1A19107  10.512  24.507   8.555
 6856POPC   D2A19108  10.569  24.448   8.255
 6856POPC   C3A19109  10.535  24.521   7.955
 6856POPC   C4A19110  10.538  24.467   7.655
 6856POPC   C1B19111  10.711  24.382   8.555
 6856POPC   C2B19112  10.764  24.409   8.255
 6856POPC   C3B19113  10.720  24.405   7.955
 6856POPC   C4B19114  10.720  24.437   7.655
 6857POPC   NC319115  15.228   8.154   9.455
 6857POPC   PO419116  15.169   8.179   9.155
 6857POPC   GL119117  15.212   8.172   8.855
 6857POPC   GL219118  15.279   8.216   8.855
 6857POPC   C1A19119  15.187   8.183   8.555
 6857POPC   D2A19120  15.214   8.212   8.255
 6857POPC   C3A19121  15.180   8.204   7.955
 6857POPC   C4A19122  15.177   8.243   7.655
 6857POPC   C1B19123  15.388   8.225   8.555
 6857POPC   C2B19124  15.413   8.232   8.255
 6857POPC   C3B19125  15.416   8.227   7.955
 6857POPC   C4B19126  15.413   8.234   7.655
 6858POPC   NC319127  39.281  26.812   9.455
 6858POPC   PO419128  39.249  26.815   9.155
 6858POPC   GL119129  39.263  26.835   8.855
 6858POPC   GL219130  39.174  26.724   8.855
 6858POPC   C1A19131  39.210  26.838   8.555
 6858POPC   D2A19132  39.184  26.862   8.255
 6858POPC   C3A19133  39.201  26.842   7.955
 6858POPC   C4A19134  39.204  26.865   7.655
 6858POPC   C1B19135  39.108  26.567   8.555
 6858POPC   C2B19136  39.128  26.632   8.255
 6858POPC   C3B19137  39.097  26.626   7.955
 6858POPC   C4B19138  39.052  26.598   7.655
 6859POPC   NC319139  29.872  21.429   9.455
 6859POPC   PO419140  29.907  21.354   9.155
 6859POPC   GL119141  29.937  21.411   8.855
 6859POPC   GL219142  30.007  21.416   8.855
 6859POPC   C1A19143  29.928  21.350   8.555
 6859POPC   D2A19144  29.903  21.340   8.255
 6859POPC   C3A19145  29.961  21.393   7.955
 6859POPC   C4A19146  29.910  21.381   7.655
 6859POPC   C1B19147  30.207  21.351   8.555
 6859POPC   C2B19148  30.191  21.328   8.255
 6859POPC   C3B19149  30.166  21.382   7.955
 6859POPC   C4B19150  30.187  21.406   7.655
 6860POPC   NC319151  18.314   8.207   9.455
 6860POPC   PO419152  18.241   8.223   9.155
 6860POPC   GL119153  18.313   8.189   8.855
 6860POPC   GL219154  18.151   8.187   8.855
 6860POPC   C1A19155  18.261   8.228   8.555
 6860POPC   D2A19156  18.314   8.158   8.255
 6860POPC   C3A19157  18.310   8.150   7.955
 6860POPC   C4A19158  18.322   8.189   7.655
 6860POPC   C1B19159  18.001   8.088   8.555
 6860POPC   C2B19160  18.016   8.071   8.255
 6860POPC   C3B19161  18.078   8.164   7.955
 6860POPC   C4B19162  18.074   8.114   7.655
 6861POPC   NC319163   3.545  36.084   9.455
 6861POPC   PO419164   3.581  36.099   9.155
 6861POPC   GL119165   3.532  36.150   8.855
 6861POPC   GL219166   3.618  36.199   8.855
 6861POPC   C1A19167   3.496  36.158   8.555
 6861POPC   D2A19168   3.507  36.129   8.255
 6861POPC   C3A19169   3.563  36.117   7.955
 6861POPC   C4A19170   3.570  36.176   7.655
 6861POPC   C1B19171   3.752  36.270   8.555
 6861POPC   C2B19172   3.725  36.256   8.255
 6861POPC   C3B19173   3.809  36.248   7.955
 6861POPC   C4B19174   3.802  36.272   7.655
 6862POPC   NC319175  11.254   9.775   9.455
 6862POPC   PO419176  11.328   9.794   9.155
 6862POPC   GL119177  11.343   9.751   8.855
 6862POPC   GL219178  11.248   9.899   8.855
 6862POPC   C1A19179  11.259   9.734   8.555
 6862POPC   D2A19180  11.278   9.787   8.255
 6862POPC   C3A19181  11.253   9.711   7.955
 6862POPC   C4A19182  11.314   9.784   7.655
 6862POPC   C1B19183  11.267   9.985   8.555
 6862POPC   C2B19184  11.207   9.944   8.255
 6862POPC   C3B19185  11.201   9.951   7.955
 6862POPC   C4B19186  11.267  10.010   7.655
 6863POPC   NC319187  16.766  43.843   9.455
 6863POPC   PO419188  16.766  43.856   9.155
 6863POPC   GL119189  16.712  43.924   8.855
 6863POPC   GL219190  16.697  44.023   8.855
 6863POPC   C1A19191  16.728  43.885   8.555
 6863POPC   D2A19192  16.731  43.907   8.255
 6863POPC   C3A19193  16.726  43.895   7.955
 6863POPC   C4A19194  16.780  43.857   7.655
 6863POPC   C1B19195  16.725  44.155   8.555
 6863POPC   C2B19196  16.680  44.156   8.255
 6863POPC   C3B19197  16.693  44.106   7.955
 6863POPC   C4B19198  16.709  44.090   7.655
 6864POPC   NC319199  26.067  34.626   9.455
 6864POPC   PO419200  26.032  34.581   9.155
 6864POPC   GL119201  26.045  34.559   8.855
 6864POPC   GL219202  26.168  34.540   8.855
 6864POPC   C1A19203  26.045  34.568   8.555
 6864POPC   D2A19204  26.005  34.597   8.255
 6864POPC   C3A19205  25.992  34.570   7.955
 6864POPC   C4A19206  26.085  34.612   7.655
 6864POPC   C1B19207  26.261  34.477   8.555
 6864POPC   C2B19208  26.276  34.506   8.255
 6864POPC   C3B19209  26.324  34.539   7.955
 6864POPC   C4B19210  26.288  34.458   7.655
 6865POPC   NC319211   7.467  33.068   9.455
 6865POPC   PO419212   7.404  33.049   9.155
 6865POPC   GL119213   7.416  32.995   8.855
 6865POPC   GL219214   7.345  32.914   8.855
 6865POPC   C1A19215   7.461  32.976   8.555
 6865POPC   D2A19216   7.455  33.005   8.255
 6865POPC   C3A19217   7.467  33.029   7.955
 6865POPC   C4A19218   7.439  33.001   7.655
 6865POPC   C1B19219   7.298  32.798   8.555
 6865POPC   C2B19220   7.306  32.852   8.255
 6865POPC   C3B19221   7.232  32.822   7.955
 6865POPC   C4B19222   7.309  32.812   7.655
 6866POPC   NC319223  13.628  35.369   9.455
 6866POPC   PO419224  13.638  35.331   9.155
 6866POPC   GL119225  13.656  35.363   8.855
 6866POPC   GL219226  13.648  35.450   8.855
 6866POPC   C1A19227  13.611  35.337   8.555
 6866POPC   D2A19228  13.628  35.358   8.255
 6866POPC   C3A19229  13.585  35.364   7.955
 6866POPC   C4A19230  13.580  35.393   7.655
 6866POPC   C1B19231  13.683  35.609   8.555
 6866POPC   C2B19232  13.671  35.552   8.255
 6866POPC   C3B19233  13.670  35.567   7.955
 6866POPC   C4B19234  13.678  35.598   7.655
 6867POPC   NC319235  44.653   1.179   9.455
 6867POPC   PO419236  44.612   1.169   9.155
 6867POPC   GL119237  44.683   1.170   8.855
 6867POPC   GL219238  44.513   1.166   8.855
 6867POPC   C1A19239  44.641   1.248   8.555
 6867POPC   D2A19240  44.678   1.263   8.255
 6867POPC   C3A19241  44.644   1.257   7.955
 6867POPC   C4A19242  44.649   1.212   7.655
 6867POPC   C1B19243  44.393   1.183   8.555
 6867POPC   C2B19244  44.457   1.179   8.255
 6867POPC   C3B19245  44.436   1.137   7.955
 6867POPC   C4B19246  44.407   1.172   7.655
 6868POPC   NC319247  31.521   2.804   9.455
 6868POPC   PO419248  31.491   2.785   9.155
 6868POPC   GL119249  31.423   2.755   8.855
 6868POPC   GL219250  31.552   2.767   8.855
 6868POPC   C1A19251  31.494   2.769   8.555
 6868POPC   D2A19252  31.513   2.775   8.255
 6868POPC   C3A19253  31.442   2.795   7.955
 6868POPC   C4A19254  31.465   2.787   7.655
 6868POPC   C1B19255  31.752   2.658   8.555
 6868POPC   C2B19256  31.745   2.714   8.255
 6868POPC   C3B19257  31.746   2.660   7.955
 6868POPC   C4B19258  31.697   2.713   7.655
 6869POPC   NC319259  36.120  39.191   9.455
 6869POPC   PO419260  36.109  39.253   9.155
 6869POPC   GL119261  36.156  39.248   8.855
 6869POPC   GL219262  36.144  39.361   8.855
 6869POPC   C1A19263  36.103  39.195   8.555
 6869POPC   D2A19264  36.159  39.194   8.255
 6869POPC   C3A19265  36.112  39.222   7.955
 6869POPC   C4A19266  36.158  39.229   7.655
 6869POPC   C1B19267  36.192  39.478   8.555
 6869POPC   C2B19268  36.233  39.462   8.255
 6869POPC   C3B19269  36.194  39.445   7.955
 6869POPC   C4B19270  36.215  39.510   7.655
 6870POPC   NC319271  25.312  18.327   9.455
 6870POPC   PO419272  25.304  18.283   9.155
 6870POPC   GL119273  25.218  18.298   8.855
 6870POPC   GL219274  25.415  18.317   8.855
 6870POPC   C1A19275  25.231  18.289   8.555
 6870POPC   D2A19276  25.287  18.319   8.255
 6870POPC   C3A19277  25.231  18.331   7.955
 6870POPC   C4A19278  25.304  18.309   7.655
 6870POPC   C1B19279  25.475  18.367   8.555
 6870POPC   C2B19280  25.514  18.375   8.255
 6870POPC   C3B19281  25.530  18.374   7.955
 6870POPC   C4B19282  25.528  18.396   7.655
 6871POPC   NC319283   8.182   9.745   9.455
 6871POPC   PO419284   8.188   9.747   9.155
 6871POPC   GL119285   8.228   9.778   8.855
 6871POPC   GL219286   8.118   9.896   8.855
 6871POPC   C1A19287   8.148   9.772   8.555
 6871POPC   D2A19288   8.195   9.770   8.255
 6871POPC   C3A19289   8.221   9.791   7.955
 6871POPC   C4A19290   8.191   9.786   7.655
 6871POPC   C1B19291   8.024   9.989   8.555
 6871POPC   C2B19292   8.024   9.995   8.255
 6871POPC   C3B19293   8.059   9.907   7.955
 6871POPC   C4B19294   8.023   9.901   7.655
 6872POPC   NC319295   4.279   1.262   9.455
 6872POPC   PO419296   4.365   1.212   9.155
 6872POPC   GL119297   4.284   1.195   8.855
 6872POPC   GL219298   4.224   1.276   8.855
 6872POPC   C1A19299   4.333   1.223   8.555
 6872POPC   D2A19300   4.320   1.175   8.255
 6872POPC   C3A19301   4.313   1.188   7.955
 6872POPC   C4A19302   4.358   1.235   7.655
 6872POPC   C1B19303   4.126   1.349   8.555
 6872POPC   C2B19304   4.067   1.353   8.255
 6872POPC   C3B19305   4.097   1.335   7.955
 6872POPC   C4B19306   4.058   1.304   7.655
 6873POPC   NC319307   6.619  36.162   9.455
 6873POPC   PO419308   6.666  36.079   9.155
 6873POPC   GL119309   6.628  36.168   8.855
 6873POPC   GL219310   6.577  36.041   8.855
 6873POPC   C1A19311   6.679  36.101   8.555
 6873POPC   D2A19312   6.609  36.096   8.255
 6873POPC   C3A19313   6.599  36.112   7.955
 6873POPC   C4A19314   6.654  36.112   7.655
 6873POPC   C1B19315   6.501  35.931   8.555
 6873POPC   C2B19316   6.486  36.005   8.255
 6873POPC   C3B19317   6.447  35.996   7.955
 6873POPC   C4B19318   6.417  35.964   7.655
 6874POPC   NC319319  21.364  40.042   9.455
 6874POPC   PO419320  21.402  39.962   9.155
 6874POPC   GL119321  21.428  40.030   8.855
 6874POPC   GL219322  21.264  40.083   8.855
 6874POPC   C1A19323  21.365  40.041   8.555
 6874POPC   D2A19324  21.399  40.020   8.255
 6874POPC   C3A19325  21.360  39.961   7.955
 6874POPC   C4A19326  21.377  40.022   7.655
 6874POPC   C1B19327  21.194  40.131   8.555
 6874POPC   C2B19328  21.149  40.199   8.255
 6874POPC   C3B19329  21.192  40.211   7.955
 6874POPC   C4B19330  21.242  40.183   7.655
 6875POPC   NC319331  18.298  15.182   9.455
 6875POPC   PO419332  18.283  15.183   9.155
 6875POPC   GL119333  18.259  15.134   8.855
 6875POPC   GL219334  18.400  15.253   8.855
 6875POPC   C1A19335  18.296  15.178   8.555
 6875POPC   D2A19336  18.290  15.196   8.255
 6875POPC   C3A19337  18.322  15.136   7.955
 6875POPC   C4A19338  18.315  15.173   7.655
 6875POPC   C1B19339  18.471  15.350   8.555
 6875POPC   C2B19340  18.474  15.370   8.255
 6875POPC   C3B19341  18.450  15.372   7.955
 6875POPC   C4B19342  18.480  15.353   7.655
 6876POPC   NC319343   5.907  29.930   9.455
 6876POPC   PO419344   5.871  29.959   9.155
 6876POPC   GL119345   5.872  29.886   8.855
 6876POPC   GL219346   5.726  29.877   8.855
 6876POPC   C1A19347   5.838  29.965   8.555
 6876POPC   D2A19348   5.870  29.955   8.255
 6876POPC   C3A19349   5.894  29.922   7.955
 6876POPC   C4A19350   5.916  29.899   7.655
 6876POPC   C1B19351   5.594  29.884   8.555
 6876POPC   C2B19352   5.630  29.904   8.255
 6876POPC   C3B19353   5.645  29.894   7.955
 6876POPC   C4B19354   5.607  29.901   7.655
 6877POPC   NC319355  12.049  23.687   9.455
 6877POPC   PO419356  12.094  23.745   9.155
 6877POPC   GL119357  12.038  23.714   8.855
 6877POPC   GL219358  11.912  23.716   8.855
 6877POPC   C1A19359  12.055  23.725   8.555
 6877POPC   D2A19360  12.064  23.739   8.255
 6877POPC   C3A19361  12.062  23.755   7.955
 6877POPC   C4A19362  12.089  23.754   7.655
 6877POPC   C1B19363  11.846  23.852   8.555
 6877POPC   C2B19364  11.833  23.772   8.255
 6877POPC   C3B19365  11.859  23.847   7.955
 6877POPC   C4B19366  11.866  23.807   7.655
 6878POPC   NC319367  41.580  35.361   9.455
 6878POPC   PO419368  41.551  35.391   9.155
 6878POPC   GL119369  41.576  35.397   8.855
 6878POPC   GL219370  41.400  35.381   8.855
 6878POPC   C1A19371  41.525  35.376   8.555
 6878POPC   D2A19372  41.556  35.304   8.255
 6878POPC   C3A19373  41.532  35.395   7.955
 6878POPC   C4A19374  41.544  35.347   7.655
 6878POPC   C1B19375  41.335  35.345   8.555
 6878POPC   C2B19376  41.260  35.324   8.255
 6878POPC   C3B19377  41.350  35.372   7.955
 6878POPC   C4B19378  41.317  35.284   7.655
 6879POPC   NC319379  19.819  12.830   9.455
 6879POPC   PO419380  19.877  12.812   9.155
 6879POPC   GL119381  19.884  12.889   8.855
 6879POPC   GL219382  19.940  12.727   8.855
 6879POPC   C1A19383  19.849  12.863   8.555
 6879POPC   D2A19384  19.823  12.823   8.255
 6879POPC   C3A19385  19.863  12.839   7.955
 6879POPC   C4A19386  19.869  12.880   7.655
 6879POPC   C1B19387  20.059  12.687   8.555
 6879POPC   C2B19388  19.995  12.647   8.255
 6879POPC   C3B19389  19.981  12.721   7.955
 6879POPC   C4B19390  20.029  12.631   7.655
 6880POPC   NC319391  43.923  36.888   9.455
 6880POPC   PO419392  43.885  36.856   9.155
 6880POPC   GL119393  43.915  36.917   8.855
 6880POPC   GL219394  44.030  36.955   8.855
 6880POPC   C1A19395  43.923  36.861   8.555
 6880POPC   D2A19396  43.931  36.921   8.255
 6880POPC   C3A19397  43.872  36.937   7.955
 6880POPC   C4A19398  43.879  36.923   7.655
 6880POPC   C1B19399  44.184  36.908   8.555
 6880POPC   C2B19400  44.153  36.956   8.255
 6880POPC   C3B19401  44.107  36.963   7.955
 6880POPC   C4B19402  44.152  36.960   7.655
 6881POPC   NC319403  29.108   9.783   9.455
 6881POPC   PO419404  29.194   9.762   9.155
 6881POPC   GL119405  29.155   9.783   8.855
 6881POPC   GL219406  28.981   9.715   8.855
 6881POPC   C1A19407  29.119   9.728   8.555
 6881POPC   D2A19408  29.135   9.728   8.255
 6881POPC   C3A19409  29.123   9.790   7.955
 6881POPC   C4A19410  29.132   9.752   7.655
 6881POPC   C1B19411  28.925   9.769   8.555
 6881POPC   C2B19412  28.890   9.821   8.255
 6881POPC   C3B19413  28.858   9.748   7.955
 6881POPC   C4B19414  28.870   9.790   7.655
 6882POPC   NC319415  21.361  22.185   9.455
 6882POPC   PO419416  21.357  22.119   9.155
 6882POPC   GL119417  21.406  22.150   8.855
 6882POPC   GL219418  21.491  22.193   8.855
 6882POPC   C1A19419  21.389  22.127   8.555
 6882POPC   D2A19420  21.338  22.161   8.255
 6882POPC   C3A19421  21.409  22.159   7.955
 6882POPC   C4A19422  21.408  22.169   7.655
 6882POPC   C1B19423  21.636  22.192   8.555
 6882POPC   C2B19424  21.586  22.235   8.255
 6882POPC   C3B19425  21.584  22.178   7.955
 6882POPC   C4B19426  21.606  22.173   7.655
 6883POPC   NC319427  39.986  43.850   9.455
 6883POPC   PO419428  40.055  43.889   9.155
 6883POPC   GL119429  40.042  43.894   8.855
 6883POPC   GL219430  39.988  43.979   8.855
 6883POPC   C1A19431  40.012  43.899   8.555
 6883POPC   D2A19432  40.004  43.924   8.255
 6883POPC   C3A19433  40.015  43.936   7.955
 6883POPC   C4A19434  40.002  43.842   7.655
 6883POPC   C1B19435  40.031  44.104   8.555
 6883POPC   C2B19436  40.006  44.100   8.255
 6883POPC   C3B19437  40.025  44.117   7.955
 6883POPC   C4B19438  39.989  44.137   7.655
 6884POPC   NC319439  18.291  10.529   9.455
 6884POPC   PO419440  18.291  10.565   9.155
 6884POPC   GL119441  18.242  10.528   8.855
 6884POPC   GL219442  18.279  10.373   8.855
 6884POPC   C1A19443  18.259  10.480   8.555
 6884POPC   D2A19444  18.286  10.477   8.255
 6884POPC   C3A19445  18.300  10.507   7.955
 6884POPC   C4A19446  18.254  10.528   7.655
 6884POPC   C1B19447  18.235  10.329   8.555
 6884POPC   C2B19448  18.210  10.312   8.255
 6884POPC   C3B19449  18.206  10.275   7.955
 6884POPC   C4B19450  18.165  10.328   7.655
 6885POPC   NC319451  15.924  34.602   9.455
 6885POPC   PO419452  15.992  34.604   9.155
 6885POPC   GL119453  15.999  34.587   8.855
 6885POPC   GL219454  15.968  34.661   8.855
 6885POPC   C1A19455  15.968  34.585   8.555
 6885POPC   D2A19456  15.939  34.532   8.255
 6885POPC   C3A19457  15.988  34.587   7.955
 6885POPC   C4A19458  15.991  34.585   7.655
 6885POPC   C1B19459  16.014  34.814   8.555
 6885POPC   C2B19460  15.991  34.823   8.255
 6885POPC   C3B19461  15.951  34.826   7.955
 6885POPC   C4B19462  15.952  34.862   7.655
 6886POPC   NC319463  43.844  10.546   9.455
 6886POPC   PO419464  43.913  10.545   9.155
 6886POPC   GL119465  43.870  10.556   8.855
 6886POPC   GL219466  43.985  10.647   8.855
 6886POPC   C1A19467  43.840  10.569   8.555
 6886POPC   D2A19468  43.838  10.484   8.255
 6886POPC   C3A19469  43.863  10.571   7.955
 6886POPC   C4A19470  43.935  10.534   7.655
 6886POPC   C1B19471  44.067  10.667   8.555
 6886POPC   C2B19472  44.059  10.687   8.255
 6886POPC   C3B19473  44.089  10.674   7.955
 6886POPC   C4B19474  44.087  10.722   7.655
 6887POPC   NC319475  17.552   5.876   9.455
 6887POPC   PO419476  17.531   5.879   9.155
 6887POPC   GL119477  17.471   5.879   8.855
 6887POPC   GL219478  17.440   5.961   8.855
 6887POPC   C1A19479  17.506   5.894   8.555
 6887POPC   D2A19480  17.485   5.829   8.255
 6887POPC   C3A19481  17.516   5.873   7.955
 6887POPC   C4A19482  17.470   5.855   7.655
 6887POPC   C1B19483  17.475   6.131   8.555
 6887POPC   C2B19484  17.435   6.145   8.255
 6887POPC   C3B19485  17.446   6.138   7.955
 6887POPC   C4B19486  17.499   6.069   7.655
 6888POPC   NC319487  36.107  19.785   9.455
 6888POPC   PO419488  36.103  19.816   9.155
 6888POPC   GL119489  36.134  19.792   8.855
 6888POPC   GL219490  36.071  19.732   8.855
 6888POPC   C1A19491  36.096  19.828   8.555
 6888POPC   D2A19492  36.178  19.805   8.255
 6888POPC   C3A19493  36.152  19.824   7.955
 6888POPC   C4A19494  36.128  19.828   7.655
 6888POPC   C1B19495  36.040  19.626   8.555
 6888POPC   C2B19496  36.049  19.624   8.255
 6888POPC   C3B19497  36.046  19.602   7.955
 6888POPC   C4B19498  36.059  19.587   7.655
 6889POPC   NC319499  11.301  36.138   9.455
 6889POPC   PO419500  11.276  36.168   9.155
 6889POPC   GL119501  11.308  36.086   8.855
 6889POPC   GL219502  11.188  36.137   8.855
 6889POPC   C1A19503  11.297  36.158   8.555
 6889POPC   D2A19504  11.274  36.127   8.255
 6889POPC   C3A19505  11.285  36.137   7.955
 6889POPC   C4A19506  11.311  36.122   7.655
 6889POPC   C1B19507  11.023  36.104   8.555
 6889POPC   C2B19508  11.082  36.090   8.255
 6889POPC   C3B19509  11.009  36.161   7.955
 6889POPC   C4B19510  11.051  36.064   7.655
 6890POPC   NC319511  33.800   5.072   9.455
 6890POPC   PO419512  33.750   5.116   9.155
 6890POPC   GL119513  33.811   5.090   8.855
 6890POPC   GL219514  33.731   4.957   8.855
 6890POPC   C1A19515  33.766   5.125   8.555
 6890POPC   D2A19516  33.762   5.128   8.255
 6890POPC   C3A19517  33.835   5.057   7.955
 6890POPC   C4A19518  33.755   5.061   7.655
 6890POPC   C1B19519  33.645   4.901   8.555
 6890POPC   C2B19520  33.625   4.934   8.255
 6890POPC   C3B19521  33.631   4.874   7.955
 6890POPC   C4B19522  33.613   4.895   7.655
 6891POPC   NC319523  26.851   8.190   9.455
 6891POPC   PO419524  26.849   8.216   9.155
 6891POPC   GL119525  26.807   8.193   8.855
 6891POPC   GL219526  26.919   8.111   8.855
 6891POPC   C1A19527  26.817   8.176   8.555
 6891POPC   D2A19528  26.850   8.220   8.255
 6891POPC   C3A19529  26.788   8.166   7.955
 6891POPC   C4A19530  26.784   8.153   7.655
 6891POPC   C1B19531  26.949   7.944   8.555
 6891POPC   C2B19532  26.974   7.956   8.255
 6891POPC   C3B19533  26.995   8.009   7.955
 6891POPC   C4B19534  26.917   7.939   7.655
 6892POPC   NC319535  20.626  39.974   9.455
 6892POPC   PO419536  20.573  39.988   9.155
 6892POPC   GL119537  20.562  40.041   8.855
 6892POPC   GL219538  20.697  39.864   8.855
 6892POPC   C1A19539  20.591  40.037   8.555
 6892POPC   D2A19540  20.594  40.052   8.255
 6892POPC   C3A19541  20.621  40.017   7.955
 6892POPC   C4A19542  20.581  39.969   7.655
 6892POPC   C1B19543  20.718  39.831   8.555
 6892POPC   C2B19544  20.778  39.760   8.255
 6892POPC   C3B19545  20.714  39.831   7.955
 6892POPC   C4B19546  20.753  39.790   7.655
 6893POPC   NC319547  30.647   8.940   9.455
 6893POPC   PO419548  30.726   8.992   9.155
 6893POPC   GL119549  30.656   9.022   8.855
 6893POPC   GL219550  30.617   8.930   8.855
 6893POPC   C1A19551  30.717   8.973   8.555
 6893POPC   D2A19552  30.683   8.946   8.255
 6893POPC   C3A19553  30.724   8.996   7.955
 6893POPC   C4A19554  30.700   8.999   7.655
 6893POPC   C1B19555  30.480   8.906   8.555
 6893POPC   C2B19556  30.458   8.872   8.255
 6893POPC   C3B19557  30.493   8.884   7.955
 6893POPC   C4B19558  30.493   8.896   7.655
 6894POPC   NC319559  21.348   9.748   9.455
 6894POPC   PO419560  21.352   9.742   9.155
 6894POPC   GL119561  21.418   9.700   8.855
 6894POPC   GL219562  21.270   9.714   8.855
 6894POPC   C1A19563  21.376   9.734   8.555
 6894POPC   D2A19564  21.376   9.796   8.255
 6894POPC   C3A19565  21.354   9.754   7.955
 6894POPC   C4A19566  21.391   9.729   7.655
 6894POPC   C1B19567  21.142   9.765   8.555
 6894POPC   C2B19568  21.104   9.765   8.255
 6894POPC   C3B19569  21.186   9.726   7.955
 6894POPC   C4B19570  21.114   9.766   7.655
 6895POPC   NC319571  23.717  40.031   9.455
 6895POPC   PO419572  23.745  40.001   9.155
 6895POPC   GL119573  23.687  40.014   8.855
 6895POPC   GL219574  23.585  40.070   8.855
 6895POPC   C1A19575  23.742  40.022   8.555
 6895POPC   D2A19576  23.755  40.008   8.255
 6895POPC   C3A19577  23.698  40.046   7.955
 6895POPC   C4A19578  23.737  40.046   7.655
 6895POPC   C1B19579  23.518  40.162   8.555
 6895POPC   C2B19580  23.532  40.137   8.255
 6895POPC   C3B19581  23.542  40.130   7.955
 6895POPC   C4B19582  23.513  40.169   7.655
 6896POPC   NC319583   8.175  40.039   9.455
 6896POPC   PO419584   8.165  40.005   9.155
 6896POPC   GL119585   8.246  40.023   8.855
 6896POPC   GL219586   8.093  39.990   8.855
 6896POPC   C1A19587   8.207  40.002   8.555
 6896POPC   D2A19588   8.195  40.028   8.255
 6896POPC   C3A19589   8.164  39.991   7.955
 6896POPC   C4A19590   8.176  39.979   7.655
 6896POPC   C1B19591   7.961  39.983   8.555
 6896POPC   C2B19592   7.914  39.969   8.255
 6896POPC   C3B19593   7.987  39.979   7.955
 6896POPC   C4B19594   7.925  39.964   7.655
 6897POPC   NC319595  40.013  26.087   9.455
 6897POPC   PO419596  40.036  26.021   9.155
 6897POPC   GL119597  39.986  26.051   8.855
 6897POPC   GL219598  39.935  25.928   8.855
 6897POPC   C1A19599  40.001  25.996   8.555
 6897POPC   D2A19600  39.995  26.039   8.255
 6897POPC   C3A19601  40.021  26.033   7.955
 6897POPC   C4A19602  40.042  26.073   7.655
 6897POPC   C1B19603  39.880  25.849   8.555
 6897POPC   C2B19604  39.866  25.875   8.255
 6897POPC   C3B19605  39.899  25.840   7.955
 6897POPC   C4B19606  39.820  25.828   7.655
 6898POPC   NC319607   4.340  22.925   9.455
 6898POPC   PO419608   4.333  22.944   9.155
 6898POPC   GL119609   4.273  22.963   8.855
 6898POPC   GL219610   4.482  22.940   8.855
 6898POPC   C1A19611   4.334  22.975   8.555
 6898POPC   D2A19612   4.334  22.982   8.255
 6898POPC   C3A19613   4.339  22.974   7.955
 6898POPC   C4A19614   4.278  22.925   7.655
 6898POPC   C1B19615   4.587  22.949   8.555
 6898POPC   C2B19616   4.529  22.959   8.255
 6898POPC   C3B19617   4.520  22.902   7.955
 6898POPC   C4B19618   4.555  22.908   7.655
 6899POPC   NC319619  38.412  26.035   9.455
 6899POPC   PO419620  38.490  26.027   9.155
 6899POPC   GL119621  38.500  26.084   8.855
 6899POPC   GL219622  38.610  26.071   8.855
 6899POPC   C1A19623  38.504  26.025   8.555
 6899POPC   D2A19624  38.452  26.084   8.255
 6899POPC   C3A19625  38.462  26.000   7.955
 6899POPC   C4A19626  38.406  26.003   7.655
 6899POPC   C1B19627  38.716  26.048   8.555
 6899POPC   C2B19628  38.697  26.110   8.255
 6899POPC   C3B19629  38.663  26.047   7.955
 6899POPC   C4B19630  38.675  26.030   7.655
 6900POPC   NC319631  37.649  14.410   9.455
 6900POPC   PO419632  37.700  14.448   9.155
 6900POPC   GL119633  37.640  14.418   8.855
 6900POPC   GL219634  37.769  14.270   8.855
 6900POPC   C1A19635  37.708  14.444   8.555
 6900POPC   D2A19636  37.693  14.416   8.255
 6900POPC   C3A19637  37.703  14.387   7.955
 6900POPC   C4A19638  37.709  14.452   7.655
 6900POPC   C1B19639  37.904  14.226   8.555
 6900POPC   C2B19640  37.896  14.227   8.255
 6900POPC   C3B19641  37.832  14.196   7.955
 6900POPC   C4B19642  37.819  14.252   7.655
 6901POPC   NC319643  12.848  23.704   9.455
 6901POPC   PO419644  12.888  23.761   9.155
 6901POPC   GL119645  12.894  23.734   8.855
 6901POPC   GL219646  12.737  23.753   8.855
 6901POPC   C1A19647  12.842  23.751   8.555
 6901POPC   D2A19648  12.856  23.713   8.255
 6901POPC   C3A19649  12.822  23.699   7.955
 6901POPC   C4A19650  12.838  23.695   7.655
 6901POPC   C1B19651  12.679  23.878   8.555
 6901POPC   C2B19652  12.610  23.794   8.255
 6901POPC   C3B19653  12.614  23.857   7.955
 6901POPC   C4B19654  12.649  23.873   7.655
 6902POPC   NC319655  14.420  22.208   9.455
 6902POPC   PO419656  14.423  22.173   9.155
 6902POPC   GL119657  14.366  22.139   8.855
 6902POPC   GL219658  14.279  22.260   8.855
 6902POPC   C1A19659  14.424  22.196   8.555
 6902POPC   D2A19660  14.383  22.138   8.255
 6902POPC   C3A19661  14.363  22.164   7.955
 6902POPC   C4A19662  14.408  22.178   7.655
 6902POPC   C1B19663  14.152  22.278   8.555
 6902POPC   C2B19664  14.177  22.233   8.255
 6902POPC   C3B19665  14.224  22.279   7.955
 6902POPC   C4B19666  14.204  22.250   7.655
 6903POPC   NC319667  16.730   5.045   9.455
 6903POPC   PO419668  16.738   5.104   9.155
 6903POPC   GL119669  16.763   5.131   8.855
 6903POPC   GL219670  16.903   5.102   8.855
 6903POPC   C1A19671  16.768   5.088   8.555
 6903POPC   D2A19672  16.749   5.062   8.255
 6903POPC   C3A19673  16.728   5.057   7.955
 6903POPC   C4A19674  16.733   5.120   7.655
 6903POPC   C1B19675  17.017   5.182   8.555
 6903POPC   C2B19676  16.950   5.122   8.255
 6903POPC   C3B19677  17.002   5.151   7.955
 6903POPC   C4B19678  16.982   5.152   7.655
 6904POPC   NC319679  21.356  29.112   9.455
 6904POPC   PO419680  21.393  29.154   9.155
 6904POPC   GL119681  21.418  29.148   8.855
 6904POPC   GL219682  21.306  29.088   8.855
 6904POPC   C1A19683  21.365  29.170   8.555
 6904POPC   D2A19684  21.388  29.098   8.255
 6904POPC   C3A19685  21.370  29.181   7.955
 6904POPC   C4A19686  21.368  29.111   7.655
 6904POPC   C1B19687  21.143  28.996   8.555
 6904POPC   C2B19688  21.153  29.021   8.255
 6904POPC   C3B19689  21.191  29.059   7.955
 6904POPC   C4B19690  21.207  29.016   7.655
 6905POPC   NC319691   2.726  36.143   9.455
 6905POPC   PO419692   2.796  36.129   9.155
 6905POPC   GL119693   2.775  36.161   8.855
 6905POPC   GL219694   2.858  36.148   8.855
 6905POPC   C1A19695   2.732  36.094   8.555
 6905POPC   D2A19696   2.748  36.167   8.255
 6905POPC   C3A19697   2.720  36.082   7.955
 6905POPC   C4A19698   2.749  36.121   7.655
 6905POPC   C1B19699   3.057  36.136   8.555
 6905POPC   C2B19700   3.054  36.143   8.255
 6905POPC   C3B19701   3.017  36.140   7.955
 6905POPC   C4B19702   2.990  36.167   7.655
 6906POPC   NC319703  18.322  18.266   9.455
 6906POPC   PO419704  18.329  18.311   9.155
 6906POPC   GL119705  18.282  18.235   8.855
 6906POPC   GL219706  18.184  18.318   8.855
 6906POPC   C1A19707  18.236  18.288   8.555
 6906POPC   D2A19708  18.255  18.250   8.255
 6906POPC   C3A19709  18.289  18.271   7.955
 6906POPC   C4A19710  18.257  18.300   7.655
 6906POPC   C1B19711  18.089  18.317   8.555
 6906POPC   C2B19712  18.091  18.388   8.255
 6906POPC   C3B19713  18.057  18.320   7.955
 6906POPC   C4B19714  18.062  18.356   7.655
 6907POPC   NC319715  18.236   3.535   9.455
 6907POPC   PO419716  18.264   3.495   9.155
 6907POPC   GL119717  18.314   3.566   8.855
 6907POPC   GL219718  18.166   3.510   8.855
 6907POPC   C1A19719  18.312   3.573   8.555
 6907POPC   D2A19720  18.256   3.589   8.255
 6907POPC   C3A19721  18.259   3.525   7.955
 6907POPC   C4A19722  18.305   3.532   7.655
 6907POPC   C1B19723  18.096   3.384   8.555
 6907POPC   C2B19724  18.053   3.413   8.255
 6907POPC   C3B19725  18.104   3.359   7.955
 6907POPC   C4B19726  18.117   3.425   7.655
 6908POPC   NC319727  18.330   2.784   9.455
 6908POPC   PO419728  18.268   2.790   9.155
 6908POPC   GL119729  18.258   2.802   8.855
 6908POPC   GL219730  18.244   2.852   8.855
 6908POPC   C1A19731  18.331   2.813   8.555
 6908POPC   D2A19732  18.267   2.770   8.255
 6908POPC   C3A19733  18.287   2.719   7.955
 6908POPC   C4A19734  18.293   2.739   7.655
 6908POPC   C1B19735  18.072   2.948   8.555
 6908POPC   C2B19736  18.070   2.951   8.255
 6908POPC   C3B19737  18.133   2.910   7.955
 6908POPC   C4B19738  18.161   2.961   7.655
 6909POPC   NC319739  15.991   9.723   9.455
 6909POPC   PO419740  15.933   9.726   9.155
 6909POPC   GL119741  15.916   9.733   8.855
 6909POPC   GL219742  15.971   9.643   8.855
 6909POPC   C1A19743  15.951   9.711   8.555
 6909POPC   D2A19744  15.978   9.701   8.255
 6909POPC   C3A19745  15.954   9.726   7.955
 6909POPC   C4A19746  16.005   9.751   7.655
 6909POPC   C1B19747  15.895   9.537   8.555
 6909POPC   C2B19748  15.939   9.494   8.255
 6909POPC   C3B19749  15.939   9.549   7.955
 6909POPC   C4B19750  15.934   9.490   7.655
 6910POPC   NC319751  29.174  42.381   9.455
 6910POPC   PO419752  29.124  42.381   9.155
 6910POPC   GL119753  29.141  42.313   8.855
 6910POPC   GL219754  29.229  42.240   8.855
 6910POPC   C1A19755  29.136  42.286   8.555
 6910POPC   D2A19756  29.112  42.326   8.255
 6910POPC   C3A19757  29.135  42.364   7.955
 6910POPC   C4A19758  29.106  42.308   7.655
 6910POPC   C1B19759  29.271  42.126   8.555
 6910POPC   C2B19760  29.284  42.115   8.255
 6910POPC   C3B19761  29.286  42.125   7.955
 6910POPC   C4B19762  29.243  42.129   7.655
 6911POPC   NC319763  35.318  26.064   9.455
 6911POPC   PO419764  35.392  26.041   9.155
 6911POPC   GL119765  35.327  26.035   8.855
 6911POPC   GL219766  35.351  25.917   8.855
 6911POPC   C1A19767  35.388  26.040   8.555
 6911POPC   D2A19768  35.327  26.069   8.255
 6911POPC   C3A19769  35.386  26.068   7.955
 6911POPC   C4A19770  35.367  26.045   7.655
 6911POPC   C1B19771  35.305  25.820   8.555
 6911POPC   C2B19772  35.348  25.803   8.255
 6911POPC   C3B19773  35.275  25.750   7.955
 6911POPC   C4B19774  35.333  25.827   7.655
 6912POPC   NC319775  33.768   3.537   9.455
 6912POPC   PO419776  33.833   3.540   9.155
 6912POPC   GL119777  33.800   3.553   8.855
 6912POPC   GL219778  33.757   3.438   8.855
 6912POPC   C1A19779  33.832   3.581   8.555
 6912POPC   D2A19780  33.768   3.522   8.255
 6912POPC   C3A19781  33.846   3.530   7.955
 6912POPC   C4A19782  33.773   3.501   7.655
 6912POPC   C1B19783  33.585   3.330   8.555
 6912POPC   C2B19784  33.600   3.316   8.255
 6912POPC   C3B19785  33.576   3.317   7.955
 6912POPC   C4B19786  33.575   3.404   7.655
 6913POPC   NC319787  39.236  14.429   9.455
 6913POPC   PO419788  39.229  14.384   9.155
 6913POPC   GL119789  39.205  14.371   8.855
 6913POPC   GL219790  39.128  14.466   8.855
 6913POPC   C1A19791  39.238  14.431   8.555
 6913POPC   D2A19792  39.221  14.450   8.255
 6913POPC   C3A19793  39.216  14.440   7.955
 6913POPC   C4A19794  39.195  14.444   7.655
 6913POPC   C1B19795  39.054  14.584   8.555
 6913POPC   C2B19796  39.125  14.637   8.255
 6913POPC   C3B19797  39.087  14.643   7.955
 6913POPC   C4B19798  39.066  14.574   7.655
 6914POPC   NC319799  23.698  13.615   9.455
 6914POPC   PO419800  23.734  13.604   9.155
 6914POPC   GL119801  23.683  13.674   8.855
 6914POPC   GL219802  23.812  13.731   8.855
 6914POPC   C1A19803  23.706  13.657   8.555
 6914POPC   D2A19804  23.728  13.604   8.255
 6914POPC   C3A19805  23.725  13.669   7.955
 6914POPC   C4A19806  23.677  13.655   7.655
 6914POPC   C1B19807  23.872  13.835   8.555
 6914POPC   C2B19808  23.841  13.809   8.255
 6914POPC   C3B19809  23.924  13.833   7.955
 6914POPC   C4B19810  23.863  13.776   7.655
 6915POPC   NC319811  38.419  22.987   9.455
 6915POPC   PO419812  38.487  22.928   9.155
 6915POPC   GL119813  38.501  22.924   8.855
 6915POPC   GL219814  38.344  22.926   8.855
 6915POPC   C1A19815  38.410  22.987   8.555
 6915POPC   D2A19816  38.414  22.943   8.255
 6915POPC   C3A19817  38.407  22.931   7.955
 6915POPC   C4A19818  38.432  22.921   7.655
 6915POPC   C1B19819  38.173  23.001   8.555
 6915POPC   C2B19820  38.223  22.961   8.255
 6915POPC   C3B19821  38.204  23.036   7.955
 6915POPC   C4B19822  38.169  23.008   7.655
 6916POPC   NC319823  44.627   1.946   9.455
 6916POPC   PO419824  44.708   1.990   9.155
 6916POPC   GL119825  44.623   2.006   8.855
 6916POPC   GL219826  44.734   2.084   8.855
 6916POPC   C1A19827  44.642   1.992   8.555
 6916POPC   D2A19828  44.622   1.967   8.255
 6916POPC   C3A19829  44.666   1.970   7.955
 6916POPC   C4A19830  44.623   2.002   7.655
 6916POPC   C1B19831  44.710   2.202   8.555
 6916POPC   C2B19832  44.761   2.234   8.255
 6916POPC   C3B19833  44.756   2.200   7.955
 6916POPC   C4B19834  44.745   2.228   7.655
 6917POPC   NC319835  18.279  35.372   9.455
 6917POPC   PO419836  18.319  35.355   9.155
 6917POPC   GL119837  18.239  35.339   8.855
 6917POPC   GL219838  18.425  35.322   8.855
 6917POPC   C1A19839  18.330  35.346   8.555
 6917POPC   D2A19840  18.279  35.303   8.255
 6917POPC   C3A19841  18.243  35.369   7.955
 6917POPC   C4A19842  18.285  35.373   7.655
 6917POPC   C1B19843  18.441  35.192   8.555
 6917POPC   C2B19844  18.439  35.219   8.255
 6917POPC   C3B19845  18.487  35.209   7.955
 6917POPC   C4B19846  18.492  35.216   7.655
 6918POPC   NC319847   5.840   6.606   9.455
 6918POPC   PO419848   5.825   6.608   9.155
 6918POPC   GL119849   5.910   6.683   8.855
 6918POPC   GL219850   6.012   6.620   8.855
 6918POPC   C1A19851   5.903   6.632   8.555
 6918POPC   D2A19852   5.829   6.628   8.255
 6918POPC   C3A19853   5.906   6.607   7.955
 6918POPC   C4A19854   5.890   6.636   7.655
 6918POPC   C1B19855   6.116   6.516   8.555
 6918POPC   C2B19856   6.118   6.502   8.255
 6918POPC   C3B19857   6.098   6.511   7.955
 6918POPC   C4B19858   6.069   6.506   7.655
 6919POPC   NC319859  35.376  31.442   9.455
 6919POPC   PO419860  35.308  31.457   9.155
 6919POPC   GL119861  35.370  31.474   8.855
 6919POPC   GL219862  35.370  31.319   8.855
 6919POPC   C1A19863  35.384  31.462   8.555
 6919POPC   D2A19864  35.309  31.513   8.255
 6919POPC   C3A19865  35.347  31.500   7.955
 6919POPC   C4A19866  35.396  31.503   7.655
 6919POPC   C1B19867  35.464  31.276   8.555
 6919POPC   C2B19868  35.409  31.232   8.255
 6919POPC   C3B19869  35.452  31.257   7.955
 6919POPC   C4B19870  35.458  31.193   7.655
 6920POPC   NC319871  13.617  13.602   9.455
 6920POPC   PO419872  13.604  13.580   9.155
 6920POPC   GL119873  13.586  13.578   8.855
 6920POPC   GL219874  13.675  13.487   8.855
 6920POPC   C1A19875  13.670  13.629   8.555
 6920POPC   D2A19876  13.629  13.636   8.255
 6920POPC   C3A19877  13.659  13.652   7.955
 6920POPC   C4A19878  13.642  13.662   7.655
 6920POPC   C1B19879  13.625  13.366   8.555
 6920POPC   C2B19880  13.699  13.413   8.255
 6920POPC   C3B19881  13.663  13.345   7.955
 6920POPC   C4B19882  13.655  13.348   7.655
 6921POPC   NC319883   5.872   2.772   9.455
 6921POPC   PO419884   5.842   2.740   9.155
 6921POPC   GL119885   5.881   2.799   8.855
 6921POPC   GL219886   6.011   2.753   8.855
 6921POPC   C1A19887   5.859   2.731   8.555
 6921POPC   D2A19888   5.841   2.727   8.255
 6921POPC   C3A19889   5.847   2.760   7.955
 6921POPC   C4A19890   5.894   2.727   7.655
 6921POPC   C1B19891   6.162   2.700   8.555
 6921POPC   C2B19892   6.080   2.743   8.255
 6921POPC   C3B19893   6.084   2.709   7.955
 6921POPC   C4B19894   6.151   2.717   7.655
 6922POPC   NC319895  40.056  22.928   9.455
 6922POPC   PO419896  39.963  22.916   9.155
 6922POPC   GL119897  40.024  22.906   8.855
 6922POPC   GL219898  39.980  22.781   8.855
 6922POPC   C1A19899  40.057  22.902   8.555
 6922POPC   D2A19900  40.034  22.961   8.255
 6922POPC   C3A19901  39.967  22.905   7.955
 6922POPC   C4A19902  40.022  22.915   7.655
 6922POPC   C1B19903  40.069  22.711   8.555
 6922POPC   C2B19904  40.060  22.709   8.255
 6922POPC   C3B19905  40.065  22.697   7.955
 6922POPC   C4B19906  39.997  22.714   7.655
 6923POPC   NC319907  17.540  44.661   9.455
 6923POPC   PO419908  17.488  44.651   9.155
 6923POPC   GL119909  17.538  44.697   8.855
 6923POPC   GL219910  17.379  44.606   8.855
 6923POPC   C1A19911  17.465  44.689   8.555
 6923POPC   D2A19912  17.555  44.689   8.255
 6923POPC   C3A19913  17.530  44.695   7.955
 6923POPC   C4A19914  17.472  44.638   7.655
 6923POPC   C1B19915  17.265  44.672   8.555
 6923POPC   C2B19916  17.215  44.590   8.255
 6923POPC   C3B19917  17.250  44.624   7.955
 6923POPC   C4B19918  17.308  44.667   7.655
 6924POPC   NC319919  26.028  23.730   9.455
 6924POPC   PO419920  26.045  23.733   9.155
 6924POPC   GL119921  26.045  23.694   8.855
 6924POPC   GL219922  25.915  23.603   8.855
 6924POPC   C1A19923  26.040  23.726   8.555
 6924POPC   D2A19924  26.072  23.690   8.255
 6924POPC   C3A19925  26.026  23.722   7.955
 6924POPC   C4A19926  26.039  23.707   7.655
 6924POPC   C1B19927  25.903  23.481   8.555
 6924POPC   C2B19928  25.831  23.525   8.255
 6924POPC   C3B19929  25.910  23.553   7.955
 6924POPC   C4B19930  25.827  23.529   7.655
 6925POPC   NC319931   5.849  32.983   9.455
 6925POPC   PO419932   5.919  33.002   9.155
 6925POPC   GL119933   5.833  33.061   8.855
 6925POPC   GL219934   5.871  33.108   8.855
 6925POPC   C1A19935   5.847  33.062   8.555
 6925POPC   D2A19936   5.912  32.977   8.255
 6925POPC   C3A19937   5.870  33.025   7.955
 6925POPC   C4A19938   5.862  32.980   7.655
 6925POPC   C1B19939   5.902  33.251   8.555
 6925POPC   C2B19940   5.963  33.242   8.255
 6925POPC   C3B19941   5.947  33.219   7.955
 6925POPC   C4B19942   5.877  33.227   7.655
 6926POPC   NC319943  21.428  28.346   9.455
 6926POPC   PO419944  21.367  28.372   9.155
 6926POPC   GL119945  21.404  28.325   8.855
 6926POPC   GL219946  21.257  28.376   8.855
 6926POPC   C1A19947  21.356  28.399   8.555
 6926POPC   D2A19948  21.410  28.390   8.255
 6926POPC   C3A19949  21.399  28.384   7.955
 6926POPC   C4A19950  21.338  28.376   7.655
 6926POPC   C1B19951  21.165  28.463   8.555
 6926POPC   C2B19952  21.191  28.430   8.255
 6926POPC   C3B19953  21.172  28.455   7.955
 6926POPC   C4B19954  21.194  28.418   7.655
 6927POPC   NC319955  37.673  36.172   9.455
 6927POPC   PO419956  37.642  36.082   9.155
 6927POPC   GL119957  37.719  36.098   8.855
 6927POPC   GL219958  37.750  36.024   8.855
 6927POPC   C1A19959  37.729  36.160   8.555
 6927POPC   D2A19960  37.710  36.109   8.255
 6927POPC   C3A19961  37.668  36.158   7.955
 6927POPC   C4A19962  37.682  36.088   7.655
 6927POPC   C1B19963  37.814  35.967   8.555
 6927POPC   C2B19964  37.836  35.990   8.255
 6927POPC   C3B19965  37.843  35.969   7.955
 6927POPC   C4B19966  37.834  35.976   7.655
 6928POPC   NC319967   2.746   9.767   9.455
 6928POPC   PO419968   2.736   9.716   9.155
 6928POPC   GL119969   2.789   9.754   8.855
 6928POPC   GL219970   2.791   9.889   8.855
 6928POPC   C1A19971   2.753   9.783   8.555
 6928POPC   D2A19972   2.760   9.772   8.255
 6928POPC   C3A19973   2.721   9.791   7.955
 6928POPC   C4A19974   2.779   9.717   7.655
 6928POPC   C1B19975   2.851   9.947   8.555
 6928POPC   C2B19976   2.851  10.007   8.255
 6928POPC   C3B19977   2.839   9.937   7.955
 6928POPC   C4B19978   2.830  10.017   7.655
 6929POPC   NC319979   5.868  11.317   9.455
 6929POPC   PO419980   5.854  11.286   9.155
 6929POPC   GL119981   5.828  11.258   8.855
 6929POPC   GL219982   5.827  11.376   8.855
 6929POPC   C1A19983   5.825  11.340   8.555
 6929POPC   D2A19984   5.850  11.322   8.255
 6929POPC   C3A19985   5.897  11.314   7.955
 6929POPC   C4A19986   5.830  11.280   7.655
 6929POPC   C1B19987   5.700  11.505   8.555
 6929POPC   C2B19988   5.781  11.548   8.255
 6929POPC   C3B19989   5.747  11.554   7.955
 6929POPC   C4B19990   5.732  11.467   7.655
 6930POPC   NC319991  42.354  29.095   9.455
 6930POPC   PO419992  42.344  29.194   9.155
 6930POPC   GL119993  42.369  29.129   8.855
 6930POPC   GL219994  42.212  29.079   8.855
 6930POPC   C1A19995  42.304  29.185   8.555
 6930POPC   D2A19996  42.371  29.124   8.255
 6930POPC   C3A19997  42.300  29.107   7.955
 6930POPC   C4A19998  42.346  29.122   7.655
 6930POPC   C1B19999  42.045  29.040   8.555
 6930POPC   C2B20000  42.066  29.060   8.255
 6930POPC   C3B20001  42.072  29.134   7.955
 6930POPC   C4B20002  42.054  29.088   7.655
 6931POPC   NC320003  29.194  41.563   9.455
 6931POPC   PO420004  29.166  41.570   9.155
 6931POPC   GL120005  29.191  41.532   8.855
 6931POPC   GL220006  28.989  41.511   8.855
 6931POPC   C1A20007  29.152  41.591   8.555
 6931POPC   D2A20008  29.128  41.520   8.255
 6931POPC   C3A20009  29.113  41.527   7.955
 6931POPC   C4A20010  29.109  41.593   7.655
 6931POPC   C1B20011  28.887  41.583   8.555
 6931POPC   C2B20012  28.855  41.550   8.255
 6931POPC   C3B20013  28.874  41.582   7.955
 6931POPC   C4B20014  28.923  41.521   7.655
 6932POPC   NC320015  16.756  42.294   9.455
 6932POPC   PO420016  16.722  42.332   9.155
 6932POPC   GL120017  16.761  42.352   8.855
 6932POPC   GL220018  16.606  42.355   8.855
 6932POPC   C1A20019  16.705  42.316   8.555
 6932POPC   D2A20020  16.770  42.337   8.255
 6932POPC   C3A20021  16.688  42.368   7.955
 6932POPC   C4A20022  16.696  42.324   7.655
 6932POPC   C1B20023  16.517  42.316   8.555
 6932POPC   C2B20024  16.455  42.307   8.255
 6932POPC   C3B20025  16.504  42.278   7.955
 6932POPC   C4B20026  16.448  42.327   7.655
 6933POPC   NC320027  43.888  33.008   9.455
 6933POPC   PO420028  43.868  33.074   9.155
 6933POPC   GL120029  43.861  33.054   8.855
 6933POPC   GL220030  43.833  33.134   8.855
 6933POPC   C1A20031  43.844  33.065   8.555
 6933POPC   D2A20032  43.853  33.021   8.255
 6933POPC   C3A20033  43.898  33.074   7.955
 6933POPC   C4A20034  43.865  33.040   7.655
 6933POPC   C1B20035  43.733  33.215   8.555
 6933POPC   C2B20036  43.703  33.280   8.255
 6933POPC   C3B20037  43.716  33.225   7.955
 6933POPC   C4B20038  43.781  33.239   7.655
 6934POPC   NC320039  17.498   6.673   9.455
 6934POPC   PO420040  17.510   6.671   9.155
 6934POPC   GL120041  17.525   6.619   8.855
 6934POPC   GL220042  17.405   6.594   8.855
 6934POPC   C1A20043  17.474   6.599   8.555
 6934POPC   D2A20044  17.460   6.613   8.255
 6934POPC   C3A20045  17.515   6.674   7.955
 6934POPC   C4A20046  17.521   6.684   7.655
 6934POPC   C1B20047  17.247   6.566   8.555
 6934POPC   C2B20048  17.261   6.578   8.255
 6934POPC   C3B20049  17.263   6.553   7.955
 6934POPC   C4B20050  17.310   6.583   7.655
 6935POPC   NC320051  22.969  23.699   9.455
 6935POPC   PO420052  22.909  23.677   9.155
 6935POPC   GL120053  22.987  23.681   8.855
 6935POPC   GL220054  22.814  23.619   8.855
 6935POPC   C1A20055  22.933  23.749   8.555
 6935POPC   D2A20056  22.943  23.677   8.255
 6935POPC   C3A20057  22.905  23.704   7.955
 6935POPC   C4A20058  22.962  23.724   7.655
 6935POPC   C1B20059  22.815  23.543   8.555
 6935POPC   C2B20060  22.765  23.511   8.255
 6935POPC   C3B20061  22.833  23.468   7.955
 6935POPC   C4B20062  22.796  23.553   7.655
 6936POPC   NC320063   5.882  36.146   9.455
 6936POPC   PO420064   5.873  36.140   9.155
 6936POPC   GL120065   5.828  36.155   8.855
 6936POPC   GL220066   5.865  35.977   8.855
 6936POPC   C1A20067   5.867  36.105   8.555
 6936POPC   D2A20068   5.885  36.140   8.255
 6936POPC   C3A20069   5.896  36.151   7.955
 6936POPC   C4A20070   5.891  36.134   7.655
 6936POPC   C1B20071   5.865  35.873   8.555
 6936POPC   C2B20072   5.894  35.855   8.255
 6936POPC   C3B20073   5.833  35.832   7.955
 6936POPC   C4B20074   5.897  35.901   7.655
 6937POPC   NC320075  24.466  12.833   9.455
 6937POPC   PO420076  24.516  12.808   9.155
 6937POPC   GL120077  24.528  12.880   8.855
 6937POPC   GL220078  24.457  12.972   8.855
 6937POPC   C1A20079  24.538  12.894   8.555
 6937POPC   D2A20080  24.532  12.821   8.255
 6937POPC   C3A20081  24.452  12.873   7.955
 6937POPC   C4A20082  24.459  12.870   7.655
 6937POPC   C1B20083  24.351  13.071   8.555
 6937POPC   C2B20084  24.388  13.035   8.255
 6937POPC   C3B20085  24.396  13.012   7.955
 6937POPC   C4B20086  24.363  13.086   7.655
 6938POPC   NC320087  11.313   2.031   9.455
 6938POPC   PO420088  11.327   1.949   9.155
 6938POPC   GL120089  11.350   1.988   8.855
 6938POPC   GL220090  11.295   1.854   8.855
 6938POPC   C1A20091  11.337   1.988   8.555
 6938POPC   D2A20092  11.321   2.017   8.255
 6938POPC   C3A20093  11.326   1.947   7.955
 6938POPC   C4A20094  11.317   2.029   7.655
 6938POPC   C1B20095  11.270   1.776   8.555
 6938POPC   C2B20096  11.328   1.713   8.255
 6938POPC   C3B20097  11.252   1.774   7.955
 6938POPC   C4B20098  11.267   1.692   7.655
 6939POPC   NC320099  35.398  29.872   9.455
 6939POPC   PO420100  35.381  29.910   9.155
 6939POPC   GL120101  35.382  29.877   8.855
 6939POPC   GL220102  35.461  29.875   8.855
 6939POPC   C1A20103  35.374  29.877   8.555
 6939POPC   D2A20104  35.303  29.970   8.255
 6939POPC   C3A20105  35.313  29.893   7.955
 6939POPC   C4A20106  35.349  29.907   7.655
 6939POPC   C1B20107  35.502  29.720   8.555
 6939POPC   C2B20108  35.494  29.740   8.255
 6939POPC   C3B20109  35.562  29.751   7.955
 6939POPC   C4B20110  35.564  29.721   7.655
 6940POPC   NC320111  13.631   4.295   9.455
 6940POPC   PO420112  13.648   4.342   9.155
 6940POPC   GL120113  13.634   4.324   8.855
 6940POPC   GL220114  13.593   4.148   8.855
 6940POPC   C1A20115  13.676   4.284   8.555
 6940POPC   D2A20116  13.640   4.305   8.255
 6940POPC   C3A20117  13.602   4.320   7.955
 6940POPC   C4A20118  13.590   4.336   7.655
 6940POPC   C1B20119  13.524   4.097   8.555
 6940POPC   C2B20120  13.595   4.056   8.255
 6940POPC   C3B20121  13.531   4.121   7.955
 6940POPC   C4B20122  13.599   4.096   7.655
 6941POPC   NC320123   8.193  20.613   9.455
 6941POPC   PO420124   8.238  20.582   9.155
 6941POPC   GL120125   8.153  20.647   8.855
 6941POPC   GL220126   8.074  20.642   8.855
 6941POPC   C1A20127   8.222  20.564   8.555
 6941POPC   D2A20128   8.215  20.593   8.255
 6941POPC   C3A20129   8.224  20.563   7.955
 6941POPC   C4A20130   8.227  20.568   7.655
 6941POPC   C1B20131   7.955  20.633   8.555
 6941POPC   C2B20132   7.940  20.650   8.255
 6941POPC   C3B20133   7.960  20.638   7.955
 6941POPC   C4B20134   7.929  20.702   7.655
 6942POPC   NC320135  28.353  41.532   9.455
 6942POPC   PO420136  28.404  41.541   9.155
 6942POPC   GL120137  28.339  41.582   8.855
 6942POPC   GL220138  28.400  41.475   8.855
 6942POPC   C1A20139  28.393  41.571   8.555
 6942POPC   D2A20140  28.334  41.578   8.255
 6942POPC   C3A20141  28.384  41.519   7.955
 6942POPC   C4A20142  28.332  41.543   7.655
 6942POPC   C1B20143  28.460  41.324   8.555
 6942POPC   C2B20144  28.498  41.325   8.255
 6942POPC   C3B20145  28.482  41.362   7.955
 6942POPC   C4B20146  28.489  41.344   7.655
 6943POPC   NC320147  12.882  26.772   9.455
 6943POPC   PO420148  12.829  26.779   9.155
 6943POPC   GL120149  12.863  26.824   8.855
 6943POPC   GL220150  13.000  26.814   8.855
 6943POPC   C1A20151  12.879  26.809   8.555
 6943POPC   D2A20152  12.819  26.852   8.255
 6943POPC   C3A20153  12.890  26.852   7.955
 6943POPC   C4A20154  12.896  26.774   7.655
 6943POPC   C1B20155  13.078  26.914   8.555
 6943POPC   C2B20156  13.056  26.837   8.255
 6943POPC   C3B20157  13.056  26.866   7.955
 6943POPC   C4B20158  13.052  26.913   7.655
 6944POPC   NC320159  40.831  19.859   9.455
 6944POPC   PO420160  40.802  19.805   9.155
 6944POPC   GL120161  40.822  19.877   8.855
 6944POPC   GL220162  40.711  19.931   8.855
 6944POPC   C1A20163  40.752  19.860   8.555
 6944POPC   D2A20164  40.823  19.884   8.255
 6944POPC   C3A20165  40.800  19.831   7.955
 6944POPC   C4A20166  40.749  19.822   7.655
 6944POPC   C1B20167  40.661  20.081   8.555
 6944POPC   C2B20168  40.678  20.080   8.255
 6944POPC   C3B20169  40.601  20.088   7.955
 6944POPC   C4B20170  40.680  20.046   7.655
 6945POPC   NC320171  29.879   4.299   9.455
 6945POPC   PO420172  29.879   4.297   9.155
 6945POPC   GL120173  29.947   4.276   8.855
 6945POPC   GL220174  30.025   4.186   8.855
 6945POPC   C1A20175  29.941   4.281   8.555
 6945POPC   D2A20176  29.961   4.366   8.255
 6945POPC   C3A20177  29.961   4.330   7.955
 6945POPC   C4A20178  29.927   4.325   7.655
 6945POPC   C1B20179  30.060   4.157   8.555
 6945POPC   C2B20180  30.110   4.172   8.255
 6945POPC   C3B20181  30.066   4.098   7.955
 6945POPC   C4B20182  30.094   4.078   7.655
 6946POPC   NC320183  43.905   3.554   9.455
 6946POPC   PO420184  43.895   3.563   9.155
 6946POPC   GL120185  43.856   3.590   8.855
 6946POPC   GL220186  43.948   3.604   8.855
 6946POPC   C1A20187  43.922   3.514   8.555
 6946POPC   D2A20188  43.906   3.531   8.255
 6946POPC   C3A20189  43.883   3.555   7.955
 6946POPC   C4A20190  43.885   3.582   7.655
 6946POPC   C1B20191  44.048   3.722   8.555
 6946POPC   C2B20192  44.128   3.654   8.255
 6946POPC   C3B20193  44.067   3.708   7.955
 6946POPC   C4B20194  44.057   3.686   7.655
 6947POPC   NC320195  25.287  15.170   9.455
 6947POPC   PO420196  25.223  15.135   9.155
 6947POPC   GL120197  25.291  15.205   8.855
 6947POPC   GL220198  25.344  15.136   8.855
 6947POPC   C1A20199  25.268  15.176   8.555
 6947POPC   D2A20200  25.236  15.160   8.255
 6947POPC   C3A20201  25.258  15.217   7.955
 6947POPC   C4A20202  25.237  15.192   7.655
 6947POPC   C1B20203  25.492  15.100   8.555
 6947POPC   C2B20204  25.518  15.183   8.255
 6947POPC   C3B20205  25.485  15.191   7.955
 6947POPC   C4B20206  25.495  15.186   7.655
 6948POPC   NC320207  43.106  12.873   9.455
 6948POPC   PO420208  43.134  12.840   9.155
 6948POPC   GL120209  43.081  12.855   8.855
 6948POPC   GL220210  43.189  12.867   8.855
 6948POPC   C1A20211  43.109  12.857   8.555
 6948POPC   D2A20212  43.062  12.804   8.255
 6948POPC   C3A20213  43.120  12.825   7.955
 6948POPC   C4A20214  43.099  12.814   7.655
 6948POPC   C1B20215  43.382  12.772   8.555
 6948POPC   C2B20216  43.382  12.786   8.255
 6948POPC   C3B20217  43.327  12.765   7.955
 6948POPC   C4B20218  43.357  12.817   7.655
 6949POPC   NC320219  40.757  30.655   9.455
 6949POPC   PO420220  40.778  30.679   9.155
 6949POPC   GL120221  40.828  30.699   8.855
 6949POPC   GL220222  40.653  30.778   8.855
 6949POPC   C1A20223  40.827  30.678   8.555
 6949POPC   D2A20224  40.737  30.658   8.255
 6949POPC   C3A20225  40.802  30.676   7.955
 6949POPC   C4A20226  40.801  30.727   7.655
 6949POPC   C1B20227  40.516  30.760   8.555
 6949POPC   C2B20228  40.530  30.795   8.255
 6949POPC   C3B20229  40.587  30.740   7.955
 6949POPC   C4B20230  40.560  30.779   7.655
 6950POPC   NC320231  32.209   8.999   9.455
 6950POPC   PO420232  32.210   9.005   9.155
 6950POPC   GL120233  32.233   8.943   8.855
 6950POPC   GL220234  32.322   8.937   8.855
 6950POPC   C1A20235  32.228   9.003   8.555
 6950POPC   D2A20236  32.205   8.997   8.255
 6950POPC   C3A20237  32.297   8.988   7.955
 6950POPC   C4A20238  32.246   9.006   7.655
 6950POPC   C1B20239  32.450   8.777   8.555
 6950POPC   C2B20240  32.460   8.812   8.255
 6950POPC   C3B20241  32.476   8.814   7.955
 6950POPC   C4B20242  32.468   8.825   7.655
 6951POPC   NC320243  36.118  38.446   9.455
 6951POPC   PO420244  36.152  38.487   9.155
 6951POPC   GL120245  36.169  38.435   8.855
 6951POPC   GL220246  36.076  38.559   8.855
 6951POPC   C1A20247  36.156  38.493   8.555
 6951POPC   D2A20248  36.107  38.476   8.255
 6951POPC   C3A20249  36.106  38.409   7.955
 6951POPC   C4A20250  36.121  38.448   7.655
 6951POPC   C1B20251  36.026  38.703   8.555
 6951POPC   C2B20252  35.996  38.680   8.255
 6951POPC   C3B20253  36.059  38.667   7.955
 6951POPC   C4B20254  35.992  38.684   7.655
 6952POPC   NC320255  43.149  41.563   9.455
 6952POPC   PO420256  43.101  41.519   9.155
 6952POPC   GL120257  43.128  41.591   8.855
 6952POPC   GL220258  43.047  41.427   8.855
 6952POPC   C1A20259  43.157  41.515   8.555
 6952POPC   D2A20260  43.124  41.580   8.255
 6952POPC   C3A20261  43.151  41.604   7.955
 6952POPC   C4A20262  43.092  41.604   7.655
 6952POPC   C1B20263  42.922  41.384   8.555
 6952POPC   C2B20264  42.983  41.327   8.255
 6952POPC   C3B20265  42.952  41.352   7.955
 6952POPC   C4B20266  42.964  41.407   7.655
 6953POPC   NC320267  35.356  32.257   9.455
 6953POPC   PO420268  35.342  32.207   9.155
 6953POPC   GL120269  35.365  32.237   8.855
 6953POPC   GL220270  35.284  32.127   8.855
 6953POPC   C1A20271  35.362  32.293   8.555
 6953POPC   D2A20272  35.344  32.296   8.255
 6953POPC   C3A20273  35.353  32.220   7.955
 6953POPC   C4A20274  35.379  32.211   7.655
 6953POPC   C1B20275  35.212  32.014   8.555
 6953POPC   C2B20276  35.248  32.037   8.255
 6953POPC   C3B20277  35.270  31.996   7.955
 6953POPC   C4B20278  35.239  32.015   7.655
 6954POPC   NC320279   8.167   5.044   9.455
 6954POPC   PO420280   8.239   5.102   9.155
 6954POPC   GL120281   8.201   5.113   8.855
 6954POPC   GL220282   8.250   4.981   8.855
 6954POPC   C1A20283   8.159   5.106   8.555
 6954POPC   D2A20284   8.233   5.142   8.255
 6954POPC   C3A20285   8.234   5.054   7.955
 6954POPC   C4A20286   8.207   5.083   7.655
 6954POPC   C1B20287   8.318   4.831   8.555
 6954POPC   C2B20288   8.309   4.853   8.255
 6954POPC   C3B20289   8.330   4.893   7.955
 6954POPC   C4B20290   8.268   4.827   7.655
 6955POPC   NC320291   9.739   2.753   9.455
 6955POPC   PO420292   9.761   2.777   9.155
 6955POPC   GL120293   9.711   2.738   8.855
 6955POPC   GL220294   9.875   2.741   8.855
 6955POPC   C1A20295   9.755   2.723   8.555
 6955POPC   D2A20296   9.698   2.741   8.255
 6955POPC   C3A20297   9.751   2.777   7.955
 6955POPC   C4A20298   9.713   2.774   7.655
 6955POPC   C1B20299   9.989   2.606   8.555
 6955POPC   C2B20300   9.955   2.619   8.255
 6955POPC   C3B20301   9.988   2.628   7.955
 6955POPC   C4B20302   9.924   2.595   7.655
 6956POPC   NC320303  21.404  14.434   9.455
 6956POPC   PO420304  21.349  14.387   9.155
 6956POPC   GL120305  21.391  14.426   8.855
 6956POPC   GL220306  21.310  14.534   8.855
 6956POPC   C1A20307  21.372  14.453   8.555
 6956POPC   D2A20308  21.434  14.376   8.255
 6956POPC   C3A20309  21.355  14.433   7.955
 6956POPC   C4A20310  21.339  14.409   7.655
 6956POPC   C1B20311  21.279  14.592   8.555
 6956POPC   C2B20312  21.201  14.624   8.255
 6956POPC   C3B20313  21.217  14.588   7.955
 6956POPC   C4B20314  21.255  14.597   7.655
 6957POPC   NC320315   1.220  36.103   9.455
 6957POPC   PO420316   1.241  36.118   9.155
 6957POPC   GL120317   1.232  36.118   8.855
 6957POPC   GL220318   1.185  36.239   8.855
 6957POPC   C1A20319   1.203  36.175   8.555
 6957POPC   D2A20320   1.255  36.115   8.255
 6957POPC   C3A20321   1.202  36.148   7.955
 6957POPC   C4A20322   1.197  36.080   7.655
 6957POPC   C1B20323   1.113  36.301   8.555
 6957POPC   C2B20324   1.079  36.352   8.255
 6957POPC   C3B20325   1.102  36.333   7.955
 6957POPC   C4B20326   1.057  36.382   7.655
 6958POPC   NC320327  39.987  33.007   9.455
 6958POPC   PO420328  39.977  33.019   9.155
 6958POPC   GL120329  40.027  33.067   8.855
 6958POPC   GL220330  39.973  32.953   8.855
 6958POPC   C1A20331  40.022  33.065   8.555
 6958POPC   D2A20332  40.054  33.027   8.255
 6958POPC   C3A20333  40.036  32.979   7.955
 6958POPC   C4A20334  39.994  33.016   7.655
 6958POPC   C1B20335  39.842  32.784   8.555
 6958POPC   C2B20336  39.852  32.857   8.255
 6958POPC   C3B20337  39.892  32.808   7.955
 6958POPC   C4B20338  39.847  32.797   7.655
 6959POPC   NC320339   8.997   1.188   9.455
 6959POPC   PO420340   8.956   1.189   9.155
 6959POPC   GL120341   8.928   1.185   8.855
 6959POPC   GL220342   8.872   1.199   8.855
 6959POPC   C1A20343   8.973   1.207   8.555
 6959POPC   D2A20344   8.941   1.252   8.255
 6959POPC   C3A20345   8.974   1.235   7.955
 6959POPC   C4A20346   8.996   1.252   7.655
 6959POPC   C1B20347   8.699   1.276   8.555
 6959POPC   C2B20348   8.755   1.264   8.255
 6959POPC   C3B20349   8.749   1.256   7.955
 6959POPC   C4B20350   8.752   1.243   7.655
 6960POPC   NC320351  13.593  36.173   9.455
 6960POPC   PO420352  13.673  36.094   9.155
 6960POPC   GL120353  13.598  36.088   8.855
 6960POPC   GL220354  13.565  36.046   8.855
 6960POPC   C1A20355  13.585  36.172   8.555
 6960POPC   D2A20356  13.619  36.176   8.255
 6960POPC   C3A20357  13.626  36.110   7.955
 6960POPC   C4A20358  13.597  36.105   7.655
 6960POPC   C1B20359  13.491  35.949   8.555
 6960POPC   C2B20360  13.435  35.910   8.255
 6960POPC   C3B20361  13.451  35.987   7.955
 6960POPC   C4B20362  13.505  35.942   7.655
 6961POPC   NC320363  21.365  24.491   9.455
 6961POPC   PO420364  21.405  24.481   9.155
 6961POPC   GL120365  21.415  24.532   8.855
 6961POPC   GL220366  21.364  24.638   8.855
 6961POPC   C1A20367  21.423  24.444   8.555
 6961POPC   D2A20368  21.345  24.472   8.255
 6961POPC   C3A20369  21.408  24.506   7.955
 6961POPC   C4A20370  21.417  24.447   7.655
 6961POPC   C1B20371  21.276  24.709   8.555
 6961POPC   C2B20372  21.226  24.733   8.255
 6961POPC   C3B20373  21.265  24.669   7.955
 6961POPC   C4B20374  21.295  24.676   7.655
 6962POPC   NC320375  11.338  19.019   9.455
 6962POPC   PO420376  11.285  19.048   9.155
 6962POPC   GL120377  11.267  19.090   8.855
 6962POPC   GL220378  11.464  19.124   8.855
 6962POPC   C1A20379  11.318  19.028   8.555
 6962POPC   D2A20380  11.324  19.016   8.255
 6962POPC   C3A20381  11.305  19.046   7.955
 6962POPC   C4A20382  11.319  19.084   7.655
 6962POPC   C1B20383  11.536  19.146   8.555
 6962POPC   C2B20384  11.505  19.129   8.255
 6962POPC   C3B20385  11.553  19.159   7.955
 6962POPC   C4B20386  11.520  19.188   7.655
 6963POPC   NC320387  40.794  29.127   9.455
 6963POPC   PO420388  40.822  29.157   9.155
 6963POPC   GL120389  40.745  29.173   8.855
 6963POPC   GL220390  40.780  29.049   8.855
 6963POPC   C1A20391  40.753  29.131   8.555
 6963POPC   D2A20392  40.779  29.104   8.255
 6963POPC   C3A20393  40.777  29.144   7.955
 6963POPC   C4A20394  40.733  29.167   7.655
 6963POPC   C1B20395  40.871  28.886   8.555
 6963POPC   C2B20396  40.898  28.916   8.255
 6963POPC   C3B20397  40.896  28.867   7.955
 6963POPC   C4B20398  40.854  28.928   7.655
 6964POPC   NC320399  19.088   6.662   9.455
 6964POPC   PO420400  19.027   6.625   9.155
 6964POPC   GL120401  19.078   6.690   8.855
 6964POPC   GL220402  19.097   6.507   8.855
 6964POPC   C1A20403  19.083   6.637   8.555
 6964POPC   D2A20404  19.106   6.651   8.255
 6964POPC   C3A20405  19.084   6.689   7.955
 6964POPC   C4A20406  19.053   6.642   7.655
 6964POPC   C1B20407  19.212   6.460   8.555
 6964POPC   C2B20408  19.142   6.410   8.255
 6964POPC   C3B20409  19.159   6.376   7.955
 6964POPC   C4B20410  19.176   6.409   7.655
 6965POPC   NC320411   5.849  27.563   9.455
 6965POPC   PO420412   5.828  27.554   9.155
 6965POPC   GL120413   5.893  27.558   8.855
 6965POPC   GL220414   6.023  27.531   8.855
 6965POPC   C1A20415   5.881  27.579   8.555
 6965POPC   D2A20416   5.844  27.605   8.255
 6965POPC   C3A20417   5.918  27.566   7.955
 6965POPC   C4A20418   5.844  27.640   7.655
 6965POPC   C1B20419   6.133  27.499   8.555
 6965POPC   C2B20420   6.070  27.419   8.255
 6965POPC   C3B20421   6.120  27.451   7.955
 6965POPC   C4B20422   6.132  27.438   7.655
 6966POPC   NC320423  31.497  43.108   9.455
 6966POPC   PO420424  31.462  43.084   9.155
 6966POPC   GL120425  31.433  43.087   8.855
 6966POPC   GL220426  31.486  43.007   8.855
 6966POPC   C1A20427  31.428  43.156   8.555
 6966POPC   D2A20428  31.510  43.120   8.255
 6966POPC   C3A20429  31.447  43.152   7.955
 6966POPC   C4A20430  31.496  43.159   7.655
 6966POPC   C1B20431  31.555  42.867   8.555
 6966POPC   C2B20432  31.604  42.863   8.255
 6966POPC   C3B20433  31.568  42.838   7.955
 6966POPC   C4B20434  31.581  42.864   7.655
 6967POPC   NC320435  19.049   4.340   9.455
 6967POPC   PO420436  19.015   4.351   9.155
 6967POPC   GL120437  19.082   4.353   8.855
 6967POPC   GL220438  18.987   4.436   8.855
 6967POPC   C1A20439  19.019   4.295   8.555
 6967POPC   D2A20440  19.036   4.313   8.255
 6967POPC   C3A20441  19.093   4.308   7.955
 6967POPC   C4A20442  19.059   4.279   7.655
 6967POPC   C1B20443  18.899   4.578   8.555
 6967POPC   C2B20444  18.985   4.547   8.255
 6967POPC   C3B20445  18.982   4.532   7.955
 6967POPC   C4B20446  18.947   4.526   7.655
 6968POPC   NC320447   1.982  35.365   9.455
 6968POPC   PO420448   1.999  35.309   9.155
 6968POPC   GL120449   2.007  35.307   8.855
 6968POPC   GL220450   2.098  35.282   8.855
 6968POPC   C1A20451   1.943  35.342   8.555
 6968POPC   D2A20452   2.021  35.336   8.255
 6968POPC   C3A20453   1.963  35.342   7.955
 6968POPC   C4A20454   1.944  35.336   7.655
 6968POPC   C1B20455   2.184  35.118   8.555
 6968POPC   C2B20456   2.115  35.109   8.255
 6968POPC   C3B20457   2.159  35.202   7.955
 6968POPC   C4B20458   2.106  35.187   7.655
 6969POPC   NC320459  13.621  25.221   9.455
 6969POPC   PO420460  13.607  25.307   9.155
 6969POPC   GL120461  13.639  25.221   8.855
 6969POPC   GL220462  13.483  25.249   8.855
 6969POPC   C1A20463  13.580  25.265   8.555
 6969POPC   D2A20464  13.642  25.278   8.255
 6969POPC   C3A20465  13.579  25.263   7.955
 6969POPC   C4A20466  13.648  25.311   7.655
 6969POPC   C1B20467  13.352  25.303   8.555
 6969POPC   C2B20468  13.383  25.267   8.255
 6969POPC   C3B20469  13.341  25.230   7.955
 6969POPC   C4B20470  13.349  25.266   7.655
 6970POPC   NC320471  19.851   1.956   9.455
 6970POPC   PO420472  19.835   2.016   9.155
 6970POPC   GL120473  19.786   1.991   8.855
 6970POPC   GL220474  19.915   1.902   8.855
 6970POPC   C1A20475  19.860   2.005   8.555
 6970POPC   D2A20476  19.788   2.006   8.255
 6970POPC   C3A20477  19.821   2.021   7.955
 6970POPC   C4A20478  19.801   2.026   7.655
 6970POPC   C1B20479  20.023   1.876   8.555
 6970POPC   C2B20480  20.109   1.860   8.255
 6970POPC   C3B20481  20.048   1.874   7.955
 6970POPC   C4B20482  20.068   1.875   7.655
 6971POPC   NC320483  33.794  22.907   9.455
 6971POPC   PO420484  33.840  22.917   9.155
 6971POPC   GL120485  33.786  22.926   8.855
 6971POPC   GL220486  33.639  22.968   8.855
 6971POPC   C1A20487  33.799  22.948   8.555
 6971POPC   D2A20488  33.775  22.961   8.255
 6971POPC   C3A20489  33.836  22.976   7.955
 6971POPC   C4A20490  33.848  22.953   7.655
 6971POPC   C1B20491  33.559  23.013   8.555
 6971POPC   C2B20492  33.549  22.985   8.255
 6971POPC   C3B20493  33.529  23.045   7.955
 6971POPC   C4B20494  33.560  22.993   7.655
 6972POPC   NC320495  14.387  15.986   9.455
 6972POPC   PO420496  14.445  15.987   9.155
 6972POPC   GL120497  14.433  15.919   8.855
 6972POPC   GL220498  14.330  15.963   8.855
 6972POPC   C1A20499  14.413  15.954   8.555
 6972POPC   D2A20500  14.450  15.992   8.255
 6972POPC   C3A20501  14.430  15.952   7.955
 6972POPC   C4A20502  14.427  15.941   7.655
 6972POPC   C1B20503  14.207  16.076   8.555
 6972POPC   C2B20504  14.170  16.023   8.255
 6972POPC   C3B20505  14.198  16.071   7.955
 6972POPC   C4B20506  14.211  16.088   7.655
 6973POPC   NC320507  26.064  32.258   9.455
 6973POPC   PO420508  26.069  32.266   9.155
 6973POPC   GL120509  26.074  32.228   8.855
 6973POPC   GL220510  26.106  32.140   8.855
 6973POPC   C1A20511  26.067  32.230   8.555
 6973POPC   D2A20512  26.056  32.282   8.255
 6973POPC   C3A20513  26.079  32.249   7.955
 6973POPC   C4A20514  25.995  32.298   7.655
 6973POPC   C1B20515  26.209  31.991   8.555
 6973POPC   C2B20516  26.140  32.055   8.255
 6973POPC   C3B20517  26.193  32.075   7.955
 6973POPC   C4B20518  26.165  32.001   7.655
 6974POPC   NC320519   1.257  39.187   9.455
 6974POPC   PO420520   1.237  39.207   9.155
 6974POPC   GL120521   1.245  39.270   8.855
 6974POPC   GL220522   1.376  39.252   8.855
 6974POPC   C1A20523   1.191  39.194   8.555
 6974POPC   D2A20524   1.263  39.238   8.255
 6974POPC   C3A20525   1.192  39.268   7.955
 6974POPC   C4A20526   1.198  39.259   7.655
 6974POPC   C1B20527   1.494  39.327   8.555
 6974POPC   C2B20528   1.440  39.273   8.255
 6974POPC   C3B20529   1.468  39.275   7.955
 6974POPC   C4B20530   1.486  39.339   7.655
 6975POPC   NC320531   3.554   4.296   9.455
 6975POPC   PO420532   3.515   4.341   9.155
 6975POPC   GL120533   3.545   4.309   8.855
 6975POPC   GL220534   3.636   4.419   8.855
 6975POPC   C1A20535   3.516   4.324   8.555
 6975POPC   D2A20536   3.526   4.352   8.255
 6975POPC   C3A20537   3.520   4.339   7.955
 6975POPC   C4A20538   3.501   4.302   7.655
 6975POPC   C1B20539   3.786   4.480   8.555
 6975POPC   C2B20540   3.702   4.419   8.255
 6975POPC   C3B20541   3.745   4.413   7.955
 6975POPC   C4B20542   3.760   4.478   7.655
 6976POPC   NC320543  22.913  19.844   9.455
 6976POPC   PO420544  22.925  19.835   9.155
 6976POPC   GL120545  22.889  19.878   8.855
 6976POPC   GL220546  22.986  19.905   8.855
 6976POPC   C1A20547  22.982  19.869   8.555
 6976POPC   D2A20548  22.952  19.882   8.255
 6976POPC   C3A20549  22.941  19.874   7.955
 6976POPC   C4A20550  22.976  19.839   7.655
 6976POPC   C1B20551  23.069  19.996   8.555
 6976POPC   C2B20552  23.117  19.998   8.255
 6976POPC   C3B20553  23.100  20.048   7.955
 6976POPC   C4B20554  23.090  20.031   7.655
 6977POPC   NC320555  26.808  20.607   9.455
 6977POPC   PO420556  26.864  20.627   9.155
 6977POPC   GL120557  26.837  20.593   8.855
 6977POPC   GL220558  26.762  20.764   8.855
 6977POPC   C1A20559  26.850  20.640   8.555
 6977POPC   D2A20560  26.796  20.577   8.255
 6977POPC   C3A20561  26.853  20.578   7.955
 6977POPC   C4A20562  26.862  20.629   7.655
 6977POPC   C1B20563  26.671  20.853   8.555
 6977POPC   C2B20564  26.744  20.880   8.255
 6977POPC   C3B20565  26.703  20.792   7.955
 6977POPC   C4B20566  26.677  20.852   7.655
 6978POPC   NC320567   3.506  11.256   9.455
 6978POPC   PO420568   3.539  11.310   9.155
 6978POPC   GL120569   3.526  11.340   8.855
 6978POPC   GL220570   3.466  11.241   8.855
 6978POPC   C1A20571   3.504  11.323   8.555
 6978POPC   D2A20572   3.554  11.337   8.255
 6978POPC   C3A20573   3.573  11.343   7.955
 6978POPC   C4A20574   3.493  11.273   7.655
 6978POPC   C1B20575   3.315  11.224   8.555
 6978POPC   C2B20576   3.315  11.182   8.255
 6978POPC   C3B20577   3.356  11.195   7.955
 6978POPC   C4B20578   3.292  11.155   7.655
 6979POPC   NC320579   7.394  41.524   9.455
 6979POPC   PO420580   7.453  41.549   9.155
 6979POPC   GL120581   7.422  41.586   8.855
 6979POPC   GL220582   7.418  41.490   8.855
 6979POPC   C1A20583   7.400  41.521   8.555
 6979POPC   D2A20584   7.443  41.538   8.255
 6979POPC   C3A20585   7.389  41.550   7.955
 6979POPC   C4A20586   7.398  41.512   7.655
 6979POPC   C1B20587   7.324  41.296   8.555
 6979POPC   C2B20588   7.280  41.289   8.255
 6979POPC   C3B20589   7.337  41.323   7.955
 6979POPC   C4B20590   7.296  41.368   7.655
 6980POPC   NC320591  18.250   1.941   9.455
 6980POPC   PO420592  18.324   2.010   9.155
 6980POPC   GL120593  18.246   2.004   8.855
 6980POPC   GL220594  18.343   2.115   8.855
 6980POPC   C1A20595  18.314   1.996   8.555
 6980POPC   D2A20596  18.250   2.009   8.255
 6980POPC   C3A20597  18.310   1.967   7.955
 6980POPC   C4A20598  18.297   1.978   7.655
 6980POPC   C1B20599  18.414   2.220   8.555
 6980POPC   C2B20600  18.393   2.213   8.255
 6980POPC   C3B20601  18.408   2.241   7.955
 6980POPC   C4B20602  18.390   2.244   7.655
 6981POPC   NC320603  26.054  11.341   9.455
 6981POPC   PO420604  26.038  11.315   9.155
 6981POPC   GL120605  26.041  11.290   8.855
 6981POPC   GL220606  26.190  11.364   8.855
 6981POPC   C1A20607  26.055  11.346   8.555
 6981POPC   D2A20608  26.014  11.281   8.255
 6981POPC   C3A20609  26.009  11.271   7.955
 6981POPC   C4A20610  26.069  11.340   7.655
 6981POPC   C1B20611  26.308  11.383   8.555
 6981POPC   C2B20612  26.253  11.421   8.255
 6981POPC   C3B20613  26.303  11.390   7.955
 6981POPC   C4B20614  26.243  11.393   7.655
 6982POPC   NC320615  34.558   4.329   9.455
 6982POPC   PO420616  34.623   4.317   9.155
 6982POPC   GL120617  34.556   4.355   8.855
 6982POPC   GL220618  34.611   4.158   8.855
 6982POPC   C1A20619  34.566   4.272   8.555
 6982POPC   D2A20620  34.579   4.320   8.255
 6982POPC   C3A20621  34.575   4.280   7.955
 6982POPC   C4A20622  34.607   4.274   7.655
 6982POPC   C1B20623  34.579   4.071   8.555
 6982POPC   C2B20624  34.619   4.037   8.255
 6982POPC   C3B20625  34.631   4.093   7.955
 6982POPC   C4B20626  34.647   4.118   7.655
 6983POPC   NC320627  26.023  29.177   9.455
 6983POPC   PO420628  26.073  29.146   9.155
 6983POPC   GL120629  26.026  29.153   8.855
 6983POPC   GL220630  26.163  29.141   8.855
 6983POPC   C1A20631  25.992  29.131   8.555
 6983POPC   D2A20632  26.047  29.149   8.255
 6983POPC   C3A20633  26.025  29.135   7.955
 6983POPC   C4A20634  26.006  29.148   7.655
 6983POPC   C1B20635  26.255  29.175   8.555
 6983POPC   C2B20636  26.312  29.188   8.255
 6983POPC   C3B20637  26.282  29.155   7.955
 6983POPC   C4B20638  26.244  29.229   7.655
 6984POPC   NC320639  30.660  15.943   9.455
 6984POPC   PO420640  30.670  15.985   9.155
 6984POPC   GL120641  30.720  15.985   8.855
 6984POPC   GL220642  30.680  15.800   8.855
 6984POPC   C1A20643  30.695  15.991   8.555
 6984POPC   D2A20644  30.711  15.960   8.255
 6984POPC   C3A20645  30.690  15.970   7.955
 6984POPC   C4A20646  30.745  15.979   7.655
 6984POPC   C1B20647  30.653  15.759   8.555
 6984POPC   C2B20648  30.663  15.714   8.255
 6984POPC   C3B20649  30.661  15.748   7.955
 6984POPC   C4B20650  30.649  15.736   7.655
 6985POPC   NC320651  41.553  42.294   9.455
 6985POPC   PO420652  41.596  42.305   9.155
 6985POPC   GL120653  41.539  42.309   8.855
 6985POPC   GL220654  41.525  42.259   8.855
 6985POPC   C1A20655  41.601  42.307   8.555
 6985POPC   D2A20656  41.603  42.352   8.255
 6985POPC   C3A20657  41.530  42.364   7.955
 6985POPC   C4A20658  41.586  42.296   7.655
 6985POPC   C1B20659  41.446  42.058   8.555
 6985POPC   C2B20660  41.457  42.080   8.255
 6985POPC   C3B20661  41.473  42.137   7.955
 6985POPC   C4B20662  41.466  42.118   7.655
 6986POPC   NC320663   1.182   2.791   9.455
 6986POPC   PO420664   1.188   2.742   9.155
 6986POPC   GL120665   1.224   2.737   8.855
 6986POPC   GL220666   1.120   2.820   8.855
 6986POPC   C1A20667   1.214   2.778   8.555
 6986POPC   D2A20668   1.188   2.727   8.255
 6986POPC   C3A20669   1.176   2.722   7.955
 6986POPC   C4A20670   1.173   2.751   7.655
 6986POPC   C1B20671   1.059   3.000   8.555
 6986POPC   C2B20672   1.031   3.002   8.255
 6986POPC   C3B20673   1.054   2.961   7.955
 6986POPC   C4B20674   1.012   2.992   7.655
 6987POPC   NC320675  17.545   0.427   9.455
 6987POPC   PO420676  17.489   0.396   9.155
 6987POPC   GL120677  17.500   0.426   8.855
 6987POPC   GL220678  17.494   0.320   8.855
 6987POPC   C1A20679  17.485   0.431   8.555
 6987POPC   D2A20680  17.492   0.415   8.255
 6987POPC   C3A20681  17.513   0.469   7.955
 6987POPC   C4A20682  17.466   0.412   7.655
 6987POPC   C1B20683  17.560   0.192   8.555
 6987POPC   C2B20684  17.519   0.224   8.255
 6987POPC   C3B20685  17.510   0.204   7.955
 6987POPC   C4B20686  17.497   0.204   7.655
 6988POPC   NC320687  34.545  43.093   9.455
 6988POPC   PO420688  34.572  43.072   9.155
 6988POPC   GL120689  34.543  43.133   8.855
 6988POPC   GL220690  34.672  43.071   8.855
 6988POPC   C1A20691  34.550  43.079   8.555
 6988POPC   D2A20692  34.574  43.093   8.255
 6988POPC   C3A20693  34.602  43.105   7.955
 6988POPC   C4A20694  34.568  43.065   7.655
 6988POPC   C1B20695  34.786  42.992   8.555
 6988POPC   C2B20696  34.798  43.044   8.255
 6988POPC   C3B20697  34.814  42.996   7.955
 6988POPC   C4B20698  34.835  42.980   7.655
 6989POPC   NC320699  16.774   6.653   9.455
 6989POPC   PO420700  16.764   6.659   9.155
 6989POPC   GL120701  16.759   6.598   8.855
 6989POPC   GL220702  16.783   6.551   8.855
 6989POPC   C1A20703  16.760   6.641   8.555
 6989POPC   D2A20704  16.756   6.662   8.255
 6989POPC   C3A20705  16.712   6.602   7.955
 6989POPC   C4A20706  16.697   6.667   7.655
 6989POPC   C1B20707  16.903   6.428   8.555
 6989POPC   C2B20708  16.849   6.459   8.255
 6989POPC   C3B20709  16.870   6.451   7.955
 6989POPC   C4B20710  16.911   6.408   7.655
 6990POPC   NC320711  16.716  27.552   9.455
 6990POPC   PO420712  16.685  27.637   9.155
 6990POPC   GL120713  16.711  27.598   8.855
 6990POPC   GL220714  16.811  27.720   8.855
 6990POPC   C1A20715  16.731  27.560   8.555
 6990POPC   D2A20716  16.682  27.561   8.255
 6990POPC   C3A20717  16.763  27.620   7.955
 6990POPC   C4A20718  16.690  27.553   7.655
 6990POPC   C1B20719  16.909  27.796   8.555
 6990POPC   C2B20720  16.908  27.732   8.255
 6990POPC   C3B20721  16.899  27.739   7.955
 6990POPC   C4B20722  16.884  27.776   7.655
 6991POPC   NC320723  12.090   4.279   9.455
 6991POPC   PO420724  12.070   4.278   9.155
 6991POPC   GL120725  12.064   4.364   8.855
 6991POPC   GL220726  12.026   4.191   8.855
 6991POPC   C1A20727  12.066   4.275   8.555
 6991POPC   D2A20728  12.036   4.358   8.255
 6991POPC   C3A20729  12.084   4.356   7.955
 6991POPC   C4A20730  12.117   4.318   7.655
 6991POPC   C1B20731  12.020   4.104   8.555
 6991POPC   C2B20732  11.984   4.064   8.255
 6991POPC   C3B20733  11.980   4.063   7.955
 6991POPC   C4B20734  11.963   4.040   7.655
 6992POPC   NC320735   6.625  29.919   9.455
 6992POPC   PO420736   6.621  29.901   9.155
 6992POPC   GL120737   6.661  29.895   8.855
 6992POPC   GL220738   6.577  29.810   8.855
 6992POPC   C1A20739   6.664  29.925   8.555
 6992POPC   D2A20740   6.652  29.936   8.255
 6992POPC   C3A20741   6.649  29.875   7.955
 6992POPC   C4A20742   6.624  29.966   7.655
 6992POPC   C1B20743   6.521  29.733   8.555
 6992POPC   C2B20744   6.549  29.724   8.255
 6992POPC   C3B20745   6.566  29.736   7.955
 6992POPC   C4B20746   6.467  29.729   7.655
 6993POPC   NC320747   8.968  38.428   9.455
 6993POPC   PO420748   8.990  38.498   9.155
 6993POPC   GL120749   8.973  38.475   8.855
 6993POPC   GL220750   9.109  38.567   8.855
 6993POPC   C1A20751   8.985  38.427   8.555
 6993POPC   D2A20752   8.988  38.502   8.255
 6993POPC   C3A20753   8.937  38.440   7.955
 6993POPC   C4A20754   8.960  38.458   7.655
 6993POPC   C1B20755   9.114  38.577   8.555
 6993POPC   C2B20756   9.139  38.639   8.255
 6993POPC   C3B20757   9.164  38.579   7.955
 6993POPC   C4B20758   9.131  38.604   7.655
 6994POPC   NC320759  39.209  34.558   9.455
 6994POPC   PO420760  39.258  34.550   9.155
 6994POPC   GL120761  39.253  34.557   8.855
 6994POPC   GL220762  39.383  34.502   8.855
 6994POPC   C1A20763  39.266  34.588   8.555
 6994POPC   D2A20764  39.222  34.534   8.255
 6994POPC   C3A20765  39.281  34.556   7.955
 6994POPC   C4A20766  39.198  34.570   7.655
 6994POPC   C1B20767  39.468  34.558   8.555
 6994POPC   C2B20768  39.425  34.487   8.255
 6994POPC   C3B20769  39.499  34.542   7.955
 6994POPC   C4B20770  39.429  34.563   7.655
 6995POPC   NC320771  19.044  18.254   9.455
 6995POPC   PO420772  19.028  18.318   9.155
 6995POPC   GL120773  19.063  18.299   8.855
 6995POPC   GL220774  19.108  18.380   8.855
 6995POPC   C1A20775  19.030  18.292   8.555
 6995POPC   D2A20776  19.028  18.256   8.255
 6995POPC   C3A20777  19.041  18.252   7.955
 6995POPC   C4A20778  19.088  18.270   7.655
 6995POPC   C1B20779  19.135  18.523   8.555
 6995POPC   C2B20780  19.091  18.557   8.255
 6995POPC   C3B20781  19.058  18.504   7.955
 6995POPC   C4B20782  19.087  18.532   7.655
 6996POPC   NC320783  14.404   7.381   9.455
 6996POPC   PO420784  14.444   7.425   9.155
 6996POPC   GL120785  14.422   7.456   8.855
 6996POPC   GL220786  14.424   7.313   8.855
 6996POPC   C1A20787  14.440   7.404   8.555
 6996POPC   D2A20788  14.433   7.419   8.255
 6996POPC   C3A20789  14.420   7.442   7.955
 6996POPC   C4A20790  14.394   7.432   7.655
 6996POPC   C1B20791  14.338   7.165   8.555
 6996POPC   C2B20792  14.319   7.149   8.255
 6996POPC   C3B20793  14.317   7.224   7.955
 6996POPC   C4B20794  14.396   7.166   7.655
 6997POPC   NC320795  21.426  27.630   9.455
 6997POPC   PO420796  21.414  27.559   9.155
 6997POPC   GL120797  21.420  27.598   8.855
 6997POPC   GL220798  21.479  27.482   8.855
 6997POPC   C1A20799  21.372  27.573   8.555
 6997POPC   D2A20800  21.360  27.578   8.255
 6997POPC   C3A20801  21.346  27.561   7.955
 6997POPC   C4A20802  21.436  27.643   7.655
 6997POPC   C1B20803  21.519  27.339   8.555
 6997POPC   C2B20804  21.481  27.331   8.255
 6997POPC   C3B20805  21.458  27.334   7.955
 6997POPC   C4B20806  21.431  27.352   7.655
 6998POPC   NC320807  40.795  39.234   9.455
 6998POPC   PO420808  40.754  39.268   9.155
 6998POPC   GL120809  40.783  39.231   8.855
 6998POPC   GL220810  40.851  39.323   8.855
 6998POPC   C1A20811  40.816  39.226   8.555
 6998POPC   D2A20812  40.781  39.207   8.255
 6998POPC   C3A20813  40.779  39.237   7.955
 6998POPC   C4A20814  40.802  39.255   7.655
 6998POPC   C1B20815  40.866  39.486   8.555
 6998POPC   C2B20816  40.931  39.440   8.255
 6998POPC   C3B20817  40.917  39.485   7.955
 6998POPC   C4B20818  40.875  39.474   7.655
 6999POPC   NC320819  19.841  31.466   9.455
 6999POPC   PO420820  19.825  31.487   9.155
 6999POPC   GL120821  19.838  31.430   8.855
 6999POPC   GL220822  19.899  31.544   8.855
 6999POPC   C1A20823  19.841  31.437   8.555
 6999POPC   D2A20824  19.822  31.501   8.255
 6999POPC   C3A20825  19.863  31.464   7.955
 6999POPC   C4A20826  19.879  31.502   7.655
 6999POPC   C1B20827  19.972  31.663   8.555
 6999POPC   C2B20828  19.908  31.670   8.255
 6999POPC   C3B20829  19.928  31.693   7.955
 6999POPC   C4B20830  19.954  31.704   7.655
 7000POPC   NC320831  36.087  43.144   9.455
 7000POPC   PO420832  36.159  43.120   9.155
 7000POPC   GL120833  36.128  43.082   8.855
 7000POPC   GL220834  36.132  43.019   8.855
 7000POPC   C1A20835  36.110  43.076   8.555
 7000POPC   D2A20836  36.151  43.069   8.255
 7000POPC   C3A20837  36.152  43.116   7.955
 7000POPC   C4A20838  36.125  43.155   7.655
 7000POPC   C1B20839  36.018  42.895   8.555
 7000POPC   C2B20840  36.008  42.904   8.255
 7000POPC   C3B20841  36.051  42.829   7.955
 7000POPC   C4B20842  36.043  42.849   7.655
 7001POPC   NC320843  12.833  44.670   9.455
 7001POPC   PO420844  12.850  44.670   9.155
 7001POPC   GL120845  12.802  44.633   8.855
 7001POPC   GL220846  12.815  44.520   8.855
 7001POPC   C1A20847  12.856  44.642   8.555
 7001POPC   D2A20848  12.805  44.684   8.255
 7001POPC   C3A20849  12.857  44.620   7.955
 7001POPC   C4A20850  12.804  44.678   7.655
 7001POPC   C1B20851  12.879  44.402   8.555
 7001POPC   C2B20852  12.895  44.387   8.255
 7001POPC   C3B20853  12.826  44.374   7.955
 7001POPC   C4B20854  12.844  44.404   7.655
 7002POPC   NC320855   3.562  13.611   9.455
 7002POPC   PO420856   3.573  13.662   9.155
 7002POPC   GL120857   3.585  13.655   8.855
 7002POPC   GL220858   3.604  13.770   8.855
 7002POPC   C1A20859   3.588  13.671   8.555
 7002POPC   D2A20860   3.591  13.611   8.255
 7002POPC   C3A20861   3.516  13.623   7.955
 7002POPC   C4A20862   3.576  13.586   7.655
 7002POPC   C1B20863   3.663  13.862   8.555
 7002POPC   C2B20864   3.659  13.899   8.255
 7002POPC   C3B20865   3.644  13.839   7.955
 7002POPC   C4B20866   3.627  13.881   7.655
 7003POPC   NC320867  39.235  10.563   9.455
 7003POPC   PO420868  39.259  10.546   9.155
 7003POPC   GL120869  39.216  10.508   8.855
 7003POPC   GL220870  39.229  10.434   8.855
 7003POPC   C1A20871  39.196  10.483   8.555
 7003POPC   D2A20872  39.225  10.475   8.255
 7003POPC   C3A20873  39.267  10.574   7.955
 7003POPC   C4A20874  39.208  10.547   7.655
 7003POPC   C1B20875  39.098  10.324   8.555
 7003POPC   C2B20876  39.100  10.321   8.255
 7003POPC   C3B20877  39.110  10.335   7.955
 7003POPC   C4B20878  39.155  10.300   7.655
 7004POPC   NC320879  37.687  29.108   9.455
 7004POPC   PO420880  37.668  29.124   9.155
 7004POPC   GL120881  37.691  29.101   8.855
 7004POPC   GL220882  37.762  29.233   8.855
 7004POPC   C1A20883  37.725  29.144   8.555
 7004POPC   D2A20884  37.638  29.124   8.255
 7004POPC   C3A20885  37.648  29.107   7.955
 7004POPC   C4A20886  37.685  29.098   7.655
 7004POPC   C1B20887  37.807  29.301   8.555
 7004POPC   C2B20888  37.842  29.325   8.255
 7004POPC   C3B20889  37.862  29.368   7.955
 7004POPC   C4B20890  37.873  29.292   7.655
 7005POPC   NC320891  18.269  39.232   9.455
 7005POPC   PO420892  18.326  39.215   9.155
 7005POPC   GL120893  18.322  39.202   8.855
 7005POPC   GL220894  18.292  39.157   8.855
 7005POPC   C1A20895  18.306  39.206   8.555
 7005POPC   D2A20896  18.291  39.268   8.255
 7005POPC   C3A20897  18.299  39.227   7.955
 7005POPC   C4A20898  18.329  39.252   7.655
 7005POPC   C1B20899  18.345  38.954   8.555
 7005POPC   C2B20900  18.307  39.029   8.255
 7005POPC   C3B20901  18.320  38.985   7.955
 7005POPC   C4B20902  18.385  38.985   7.655
 7006POPC   NC320903  34.603  26.780   9.455
 7006POPC   PO420904  34.529  26.859   9.155
 7006POPC   GL120905  34.573  26.852   8.855
 7006POPC   GL220906  34.538  26.903   8.855
 7006POPC   C1A20907  34.562  26.780   8.555
 7006POPC   D2A20908  34.599  26.815   8.255
 7006POPC   C3A20909  34.568  26.839   7.955
 7006POPC   C4A20910  34.602  26.791   7.655
 7006POPC   C1B20911  34.498  27.011   8.555
 7006POPC   C2B20912  34.465  27.079   8.255
 7006POPC   C3B20913  34.458  27.063   7.955
 7006POPC   C4B20914  34.520  27.089   7.655
 7007POPC   NC320915  10.560  26.823   9.455
 7007POPC   PO420916  10.518  26.839   9.155
 7007POPC   GL120917  10.512  26.820   8.855
 7007POPC   GL220918  10.595  26.853   8.855
 7007POPC   C1A20919  10.542  26.817   8.555
 7007POPC   D2A20920  10.498  26.855   8.255
 7007POPC   C3A20921  10.551  26.843   7.955
 7007POPC   C4A20922  10.540  26.841   7.655
 7007POPC   C1B20923  10.700  27.007   8.555
 7007POPC   C2B20924  10.684  26.930   8.255
 7007POPC   C3B20925  10.742  26.921   7.955
 7007POPC   C4B20926  10.741  26.992   7.655
 7008POPC   NC320927  22.134  13.617   9.455
 7008POPC   PO420928  22.128  13.644   9.155
 7008POPC   GL120929  22.210  13.592   8.855
 7008POPC   GL220930  22.188  13.728   8.855
 7008POPC   C1A20931  22.184  13.641   8.555
 7008POPC   D2A20932  22.207  13.638   8.255
 7008POPC   C3A20933  22.119  13.620   7.955
 7008POPC   C4A20934  22.178  13.578   7.655
 7008POPC   C1B20935  22.168  13.913   8.555
 7008POPC   C2B20936  22.169  13.926   8.255
 7008POPC   C3B20937  22.166  13.867   7.955
 7008POPC   C4B20938  22.210  13.859   7.655
 7009POPC   NC320939  40.790  24.494   9.455
 7009POPC   PO420940  40.831  24.459   9.155
 7009POPC   GL120941  40.831  24.444   8.855
 7009POPC   GL220942  40.927  24.485   8.855
 7009POPC   C1A20943  40.782  24.536   8.555
 7009POPC   D2A20944  40.766  24.464   8.255
 7009POPC   C3A20945  40.784  24.461   7.955
 7009POPC   C4A20946  40.828  24.485   7.655
 7009POPC   C1B20947  41.061  24.469   8.555
 7009POPC   C2B20948  40.989  24.424   8.255
 7009POPC   C3B20949  41.012  24.407   7.955
 7009POPC   C4B20950  41.037  24.469   7.655
 7010POPC   NC320951  40.806  32.223   9.455
 7010POPC   PO420952  40.826  32.204   9.155
 7010POPC   GL120953  40.768  32.277   8.855
 7010POPC   GL220954  40.863  32.192   8.855
 7010POPC   C1A20955  40.746  32.206   8.555
 7010POPC   D2A20956  40.819  32.268   8.255
 7010POPC   C3A20957  40.780  32.237   7.955
 7010POPC   C4A20958  40.751  32.298   7.655
 7010POPC   C1B20959  40.946  32.072   8.555
 7010POPC   C2B20960  40.926  32.057   8.255
 7010POPC   C3B20961  40.965  32.097   7.955
 7010POPC   C4B20962  40.924  32.055   7.655
 7011POPC   NC320963  44.700  40.031   9.455
 7011POPC   PO420964  44.655  39.965   9.155
 7011POPC   GL120965  44.674  40.046   8.855
 7011POPC   GL220966  44.791  40.125   8.855
 7011POPC   C1A20967  44.631  40.054   8.555
 7011POPC   D2A20968  44.680  39.996   8.255
 7011POPC   C3A20969  44.623  40.054   7.955
 7011POPC   C4A20970  44.644  39.964   7.655
 7011POPC   C1B20971  44.863  40.190   8.555
 7011POPC   C2B20972  44.808  40.190   8.255
 7011POPC   C3B20973  44.856  40.143   7.955
 7011POPC   C4B20974  44.864  40.168   7.655
 7012POPC   NC320975  14.426   8.174   9.455
 7012POPC   PO420976  14.386   8.182   9.155
 7012POPC   GL120977  14.364   8.216   8.855
 7012POPC   GL220978  14.555   8.257   8.855
 7012POPC   C1A20979  14.380   8.174   8.555
 7012POPC   D2A20980  14.388   8.180   8.255
 7012POPC   C3A20981  14.362   8.190   7.955
 7012POPC   C4A20982  14.395   8.156   7.655
 7012POPC   C1B20983  14.645   8.308   8.555
 7012POPC   C2B20984  14.693   8.285   8.255
 7012POPC   C3B20985  14.628   8.237   7.955
 7012POPC   C4B20986  14.692   8.224   7.655
 7013POPC   NC320987  29.168  23.714   9.455
 7013POPC   PO420988  29.182  23.695   9.155
 7013POPC   GL120989  29.164  23.756   8.855
 7013POPC   GL220990  29.032  23.837   8.855
 7013POPC   C1A20991  29.192  23.727   8.555
 7013POPC   D2A20992  29.173  23.764   8.255
 7013POPC   C3A20993  29.170  23.714   7.955
 7013POPC   C4A20994  29.104  23.758   7.655
 7013POPC   C1B20995  28.983  23.888   8.555
 7013POPC   C2B20996  28.913  23.854   8.255
 7013POPC   C3B20997  28.916  23.877   7.955
 7013POPC   C4B20998  28.934  23.921   7.655
 7014POPC   NC320999   8.191  28.395   9.455
 7014POPC   PO421000   8.188  28.368   9.155
 7014POPC   GL121001   8.224  28.375   8.855
 7014POPC   GL221002   8.062  28.363   8.855
 7014POPC   C1A21003   8.212  28.393   8.555
 7014POPC   D2A21004   8.191  28.325   8.255
 7014POPC   C3A21005   8.226  28.343   7.955
 7014POPC   C4A21006   8.241  28.322   7.655
 7014POPC   C1B21007   7.991  28.416   8.555
 7014POPC   C2B21008   7.942  28.352   8.255
 7014POPC   C3B21009   7.929  28.381   7.955
 7014POPC   C4B21010   7.974  28.393   7.655
 7015POPC   NC321011   8.154   6.695   9.455
 7015POPC   PO421012   8.185   6.607   9.155
 7015POPC   GL121013   8.174   6.679   8.855
 7015POPC   GL221014   8.072   6.661   8.855
 7015POPC   C1A21015   8.204   6.667   8.555
 7015POPC   D2A21016   8.225   6.633   8.255
 7015POPC   C3A21017   8.204   6.694   7.955
 7015POPC   C4A21018   8.223   6.663   7.655
 7015POPC   C1B21019   7.978   6.767   8.555
 7015POPC   C2B21020   7.989   6.758   8.255
 7015POPC   C3B21021   7.964   6.756   7.955
 7015POPC   C4B21022   7.986   6.775   7.655
 7016POPC   NC321023  42.302  26.774   9.455
 7016POPC   PO421024  42.382  26.811   9.155
 7016POPC   GL121025  42.369  26.858   8.855
 7016POPC   GL221026  42.360  26.908   8.855
 7016POPC   C1A21027  42.309  26.823   8.555
 7016POPC   D2A21028  42.371  26.790   8.255
 7016POPC   C3A21029  42.286  26.816   7.955
 7016POPC   C4A21030  42.321  26.846   7.655
 7016POPC   C1B21031  42.444  27.040   8.555
 7016POPC   C2B21032  42.462  27.062   8.255
 7016POPC   C3B21033  42.438  27.022   7.955
 7016POPC   C4B21034  42.477  27.087   7.655
 7017POPC   NC321035  40.768  42.381   9.455
 7017POPC   PO421036  40.825  42.349   9.155
 7017POPC   GL121037  40.751  42.294   8.855
 7017POPC   GL221038  40.865  42.241   8.855
 7017POPC   C1A21039  40.739  42.343   8.555
 7017POPC   D2A21040  40.754  42.330   8.255
 7017POPC   C3A21041  40.748  42.288   7.955
 7017POPC   C4A21042  40.782  42.288   7.655
 7017POPC   C1B21043  41.028  42.189   8.555
 7017POPC   C2B21044  40.971  42.168   8.255
 7017POPC   C3B21045  40.994  42.256   7.955
 7017POPC   C4B21046  41.036  42.182   7.655
 7018POPC   NC321047  18.269  36.933   9.455
 7018POPC   PO421048  18.237  36.930   9.155
 7018POPC   GL121049  18.270  36.860   8.855
 7018POPC   GL221050  18.219  36.830   8.855
 7018POPC   C1A21051  18.296  36.865   8.555
 7018POPC   D2A21052  18.308  36.906   8.255
 7018POPC   C3A21053  18.292  36.908   7.955
 7018POPC   C4A21054  18.300  36.896   7.655
 7018POPC   C1B21055  18.139  36.686   8.555
 7018POPC   C2B21056  18.101  36.695   8.255
 7018POPC   C3B21057  18.148  36.763   7.955
 7018POPC   C4B21058  18.116  36.711   7.655
 7019POPC   NC321059  35.342   2.015   9.455
 7019POPC   PO421060  35.398   1.955   9.155
 7019POPC   GL121061  35.370   2.009   8.855
 7019POPC   GL221062  35.345   2.099   8.855
 7019POPC   C1A21063  35.351   1.968   8.555
 7019POPC   D2A21064  35.303   1.954   8.255
 7019POPC   C3A21065  35.313   1.963   7.955
 7019POPC   C4A21066  35.347   1.995   7.655
 7019POPC   C1B21067  35.343   2.265   8.555
 7019POPC   C2B21068  35.359   2.256   8.255
 7019POPC   C3B21069  35.408   2.285   7.955
 7019POPC   C4B21070  35.377   2.281   7.655
 7020POPC   NC321071  16.777   9.011   9.455
 7020POPC   PO421072  16.707   8.982   9.155
 7020POPC   GL121073  16.753   8.973   8.855
 7020POPC   GL221074  16.883   9.028   8.855
 7020POPC   C1A21075  16.725   8.935   8.555
 7020POPC   D2A21076  16.727   9.005   8.255
 7020POPC   C3A21077  16.763   8.925   7.955
 7020POPC   C4A21078  16.725   8.948   7.655
 7020POPC   C1B21079  16.937   9.078   8.555
 7020POPC   C2B21080  16.913   9.092   8.255
 7020POPC   C3B21081  16.951   9.105   7.955
 7020POPC   C4B21082  16.904   9.102   7.655
 7021POPC   NC321083  22.958  39.221   9.455
 7021POPC   PO421084  22.917  39.207   9.155
 7021POPC   GL121085  22.889  39.210   8.855
 7021POPC   GL221086  22.910  39.323   8.855
 7021POPC   C1A21087  22.965  39.267   8.555
 7021POPC   D2A21088  22.927  39.209   8.255
 7021POPC   C3A21089  22.935  39.183   7.955
 7021POPC   C4A21090  22.919  39.189   7.655
 7021POPC   C1B21091  22.892  39.517   8.555
 7021POPC   C2B21092  22.871  39.441   8.255
 7021POPC   C3B21093  22.817  39.491   7.955
 7021POPC   C4B21094  22.907  39.444   7.655
 7022POPC   NC321095  33.799   1.976   9.455
 7022POPC   PO421096  33.758   2.020   9.155
 7022POPC   GL121097  33.830   1.949   8.855
 7022POPC   GL221098  33.812   1.870   8.855
 7022POPC   C1A21099  33.778   1.993   8.555
 7022POPC   D2A21100  33.836   1.958   8.255
 7022POPC   C3A21101  33.776   1.988   7.955
 7022POPC   C4A21102  33.806   1.956   7.655
 7022POPC   C1B21103  33.781   1.797   8.555
 7022POPC   C2B21104  33.703   1.737   8.255
 7022POPC   C3B21105  33.710   1.719   7.955
 7022POPC   C4B21106  33.781   1.763   7.655
 7023POPC   NC321107  42.359  23.757   9.455
 7023POPC   PO421108  42.302  23.714   9.155
 7023POPC   GL121109  42.356  23.729   8.855
 7023POPC   GL221110  42.402  23.550   8.855
 7023POPC   C1A21111  42.305  23.697   8.555
 7023POPC   D2A21112  42.321  23.679   8.255
 7023POPC   C3A21113  42.317  23.739   7.955
 7023POPC   C4A21114  42.349  23.690   7.655
 7023POPC   C1B21115  42.374  23.500   8.555
 7023POPC   C2B21116  42.432  23.445   8.255
 7023POPC   C3B21117  42.338  23.480   7.955
 7023POPC   C4B21118  42.418  23.447   7.655
 7024POPC   NC321119  29.144  19.050   9.455
 7024POPC   PO421120  29.177  19.080   9.155
 7024POPC   GL121121  29.104  19.069   8.855
 7024POPC   GL221122  29.259  19.195   8.855
 7024POPC   C1A21123  29.189  19.039   8.555
 7024POPC   D2A21124  29.128  19.027   8.255
 7024POPC   C3A21125  29.164  19.065   7.955
 7024POPC   C4A21126  29.155  19.093   7.655
 7024POPC   C1B21127  29.233  19.301   8.555
 7024POPC   C2B21128  29.303  19.279   8.255
 7024POPC   C3B21129  29.271  19.266   7.955
 7024POPC   C4B21130  29.299  19.276   7.655
 7025POPC   NC321131  25.229  12.835   9.455
 7025POPC   PO421132  25.238  12.858   9.155
 7025POPC   GL121133  25.303  12.843   8.855
 7025POPC   GL221134  25.343  12.938   8.855
 7025POPC   C1A21135  25.248  12.807   8.555
 7025POPC   D2A21136  25.302  12.837   8.255
 7025POPC   C3A21137  25.235  12.843   7.955
 7025POPC   C4A21138  25.261  12.816   7.655
 7025POPC   C1B21139  25.460  12.888   8.555
 7025POPC   C2B21140  25.536  12.961   8.255
 7025POPC   C3B21141  25.463  12.900   7.955
 7025POPC   C4B21142  25.538  12.977   7.655
 7026POPC   NC321143   7.423   3.541   9.455
 7026POPC   PO421144   7.416   3.519   9.155
 7026POPC   GL121145   7.394   3.547   8.855
 7026POPC   GL221146   7.384   3.379   8.855
 7026POPC   C1A21147   7.376   3.531   8.555
 7026POPC   D2A21148   7.403   3.584   8.255
 7026POPC   C3A21149   7.453   3.495   7.955
 7026POPC   C4A21150   7.467   3.564   7.655
 7026POPC   C1B21151   7.347   3.326   8.555
 7026POPC   C2B21152   7.350   3.350   8.255
 7026POPC   C3B21153   7.304   3.316   7.955
 7026POPC   C4B21154   7.306   3.321   7.655
 7027POPC   NC321155  40.014  26.855   9.455
 7027POPC   PO421156  40.017  26.843   9.155
 7027POPC   GL121157  39.971  26.867   8.855
 7027POPC   GL221158  39.852  26.797   8.855
 7027POPC   C1A21159  40.008  26.813   8.555
 7027POPC   D2A21160  39.991  26.807   8.255
 7027POPC   C3A21161  40.004  26.854   7.955
 7027POPC   C4A21162  40.026  26.814   7.655
 7027POPC   C1B21163  39.788  26.726   8.555
 7027POPC   C2B21164  39.760  26.724   8.255
 7027POPC   C3B21165  39.746  26.739   7.955
 7027POPC   C4B21166  39.728  26.759   7.655
 7028POPC   NC321167  12.055   2.037   9.455
 7028POPC   PO421168  12.039   2.035   9.155
 7028POPC   GL121169  12.056   1.984   8.855
 7028POPC   GL221170  12.227   2.012   8.855
 7028POPC   C1A21171  12.107   2.007   8.555
 7028POPC   D2A21172  12.111   2.018   8.255
 7028POPC   C3A21173  12.091   1.999   7.955
 7028POPC   C4A21174  12.064   1.992   7.655
 7028POPC   C1B21175  12.327   2.057   8.555
 7028POPC   C2B21176  12.311   2.131   8.255
 7028POPC   C3B21177  12.314   2.091   7.955
 7028POPC   C4B21178  12.284   2.044   7.655
 7029POPC   NC321179   6.606  19.044   9.455
 7029POPC   PO421180   6.678  19.075   9.155
 7029POPC   GL121181   6.659  19.091   8.855
 7029POPC   GL221182   6.698  18.971   8.855
 7029POPC   C1A21183   6.666  19.009   8.555
 7029POPC   D2A21184   6.644  19.065   8.255
 7029POPC   C3A21185   6.685  19.102   7.955
 7029POPC   C4A21186   6.687  19.045   7.655
 7029POPC   C1B21187   6.853  18.888   8.555
 7029POPC   C2B21188   6.778  18.922   8.255
 7029POPC   C3B21189   6.778  18.876   7.955
 7029POPC   C4B21190   6.811  18.933   7.655
 7030POPC   NC321191  40.748  28.364   9.455
 7030POPC   PO421192  40.794  28.336   9.155
 7030POPC   GL121193  40.744  28.335   8.855
 7030POPC   GL221194  40.620  28.372   8.855
 7030POPC   C1A21195  40.794  28.401   8.555
 7030POPC   D2A21196  40.754  28.361   8.255
 7030POPC   C3A21197  40.780  28.418   7.955
 7030POPC   C4A21198  40.742  28.335   7.655
 7030POPC   C1B21199  40.508  28.384   8.555
 7030POPC   C2B21200  40.585  28.430   8.255
 7030POPC   C3B21201  40.487  28.437   7.955
 7030POPC   C4B21202  40.505  28.453   7.655
 7031POPC   NC321203  40.754   8.236   9.455
 7031POPC   PO421204  40.753   8.236   9.155
 7031POPC   GL121205  40.807   8.169   8.855
 7031POPC   GL221206  40.873   8.090   8.855
 7031POPC   C1A21207  40.793   8.151   8.555
 7031POPC   D2A21208  40.778   8.169   8.255
 7031POPC   C3A21209  40.788   8.221   7.955
 7031POPC   C4A21210  40.761   8.191   7.655
 7031POPC   C1B21211  40.982   8.087   8.555
 7031POPC   C2B21212  41.040   8.036   8.255
 7031POPC   C3B21213  41.033   8.080   7.955
 7031POPC   C4B21214  40.969   8.046   7.655
 7032POPC   NC321215  40.004  37.681   9.455
 7032POPC   PO421216  40.051  37.636   9.155
 7032POPC   GL121217  39.990  37.631   8.855
 7032POPC   GL221218  40.017  37.584   8.855
 7032POPC   C1A21219  40.018  37.693   8.555
 7032POPC   D2A21220  40.023  37.634   8.255
 7032POPC   C3A21221  39.969  37.721   7.955
 7032POPC   C4A21222  40.034  37.631   7.655
 7032POPC   C1B21223  39.897  37.432   8.555
 7032POPC   C2B21224  39.890  37.426   8.255
 7032POPC   C3B21225  39.912  37.483   7.955
 7032POPC   C4B21226  39.940  37.491   7.655
 7033POPC   NC321227  42.286  41.531   9.455
 7033POPC   PO421228  42.355  41.515   9.155
 7033POPC   GL121229  42.332  41.521   8.855
 7033POPC   GL221230  42.183  41.547   8.855
 7033POPC   C1A21231  42.285  41.604   8.555
 7033POPC   D2A21232  42.383  41.572   8.255
 7033POPC   C3A21233  42.345  41.568   7.955
 7033POPC   C4A21234  42.345  41.602   7.655
 7033POPC   C1B21235  42.065  41.640   8.555
 7033POPC   C2B21236  42.083  41.644   8.255
 7033POPC   C3B21237  42.116  41.664   7.955
 7033POPC   C4B21238  42.056  41.625   7.655
 7034POPC   NC321239  15.157  16.723   9.455
 7034POPC   PO421240  15.140  16.753   9.155
 7034POPC   GL121241  15.193  16.729   8.855
 7034POPC   GL221242  15.090  16.825   8.855
 7034POPC   C1A21243  15.221  16.754   8.555
 7034POPC   D2A21244  15.226  16.687   8.255
 7034POPC   C3A21245  15.153  16.745   7.955
 7034POPC   C4A21246  15.209  16.725   7.655
 7034POPC   C1B21247  14.975  16.811   8.555
 7034POPC   C2B21248  14.987  16.836   8.255
 7034POPC   C3B21249  14.904  16.873   7.955
 7034POPC   C4B21250  14.981  16.838   7.655
 7035POPC   NC321251  42.329   2.765   9.455
 7035POPC   PO421252  42.338   2.804   9.155
 7035POPC   GL121253  42.324   2.792   8.855
 7035POPC   GL221254  42.399   2.669   8.855
 7035POPC   C1A21255  42.364   2.724   8.555
 7035POPC   D2A21256  42.310   2.777   8.255
 7035POPC   C3A21257  42.334   2.748   7.955
 7035POPC   C4A21258  42.380   2.810   7.655
 7035POPC   C1B21259  42.495   2.654   8.555
 7035POPC   C2B21260  42.486   2.592   8.255
 7035POPC   C3B21261  42.488   2.639   7.955
 7035POPC   C4B21262  42.484   2.596   7.655
 7036POPC   NC321263   5.105  19.829   9.455
 7036POPC   PO421264   5.083  19.860   9.155
 7036POPC   GL121265   5.115  19.841   8.855
 7036POPC   GL221266   5.065  19.723   8.855
 7036POPC   C1A21267   5.133  19.812   8.555
 7036POPC   D2A21268   5.069  19.834   8.255
 7036POPC   C3A21269   5.116  19.797   7.955
 7036POPC   C4A21270   5.115  19.872   7.655
 7036POPC   C1B21271   4.998  19.624   8.555
 7036POPC   C2B21272   4.946  19.646   8.255
 7036POPC   C3B21273   5.045  19.620   7.955
 7036POPC   C4B21274   5.034  19.559   7.655
 7037POPC   NC321275  22.154  29.962   9.455
 7037POPC   PO421276  22.169  29.932   9.155
 7037POPC   GL121277  22.197  29.914   8.855
 7037POPC   GL221278  22.265  29.965   8.855
 7037POPC   C1A21279  22.178  29.915   8.555
 7037POPC   D2A21280  22.211  29.939   8.255
 7037POPC   C3A21281  22.181  29.909   7.955
 7037POPC   C4A21282  22.197  29.900   7.655
 7037POPC   C1B21283  22.362  30.014   8.555
 7037POPC   C2B21284  22.379  29.962   8.255
 7037POPC   C3B21285  22.361  29.974   7.955
 7037POPC   C4B21286  22.398  30.018   7.655
 7038POPC   NC321287  11.302  28.373   9.455
 7038POPC   PO421288  11.327  28.392   9.155
 7038POPC   GL121289  11.325  28.365   8.855
 7038POPC   GL221290  11.257  28.245   8.855
 7038POPC   C1A21291  11.310  28.406   8.555
 7038POPC   D2A21292  11.251  28.395   8.255
 7038POPC   C3A21293  11.340  28.404   7.955
 7038POPC   C4A21294  11.319  28.362   7.655
 7038POPC   C1B21295  11.277  28.143   8.555
 7038POPC   C2B21296  11.242  28.095   8.255
 7038POPC   C3B21297  11.283  28.135   7.955
 7038POPC   C4B21298  11.246  28.118   7.655
 7039POPC   NC321299  11.307  24.520   9.455
 7039POPC   PO421300  11.329  24.520   9.155
 7039POPC   GL121301  11.342  24.447   8.855
 7039POPC   GL221302  11.266  24.645   8.855
 7039POPC   C1A21303  11.324  24.464   8.555
 7039POPC   D2A21304  11.267  24.528   8.255
 7039POPC   C3A21305  11.290  24.522   7.955
 7039POPC   C4A21306  11.311  24.468   7.655
 7039POPC   C1B21307  11.170  24.748   8.555
 7039POPC   C2B21308  11.216  24.683   8.255
 7039POPC   C3B21309  11.184  24.713   7.955
 7039POPC   C4B21310  11.239  24.746   7.655
 7040POPC   NC321311  37.699  39.262   9.455
 7040POPC   PO421312  37.694  39.222   9.155
 7040POPC   GL121313  37.648  39.201   8.855
 7040POPC   GL221314  37.619  39.301   8.855
 7040POPC   C1A21315  37.696  39.237   8.555
 7040POPC   D2A21316  37.655  39.241   8.255
 7040POPC   C3A21317  37.710  39.220   7.955
 7040POPC   C4A21318  37.645  39.202   7.655
 7040POPC   C1B21319  37.515  39.440   8.555
 7040POPC   C2B21320  37.525  39.370   8.255
 7040POPC   C3B21321  37.504  39.385   7.955
 7040POPC   C4B21322  37.513  39.442   7.655
 7041POPC   NC321323  12.866   0.455   9.455
 7041POPC   PO421324  12.802   0.410   9.155
 7041POPC   GL121325  12.803   0.470   8.855
 7041POPC   GL221326  12.894   0.363   8.855
 7041POPC   C1A21327  12.839   0.475   8.555
 7041POPC   D2A21328  12.875   0.456   8.255
 7041POPC   C3A21329  12.859   0.459   7.955
 7041POPC   C4A21330  12.866   0.417   7.655
 7041POPC   C1B21331  13.035   0.252   8.555
 7041POPC   C2B21332  13.021   0.244   8.255
 7041POPC   C3B21333  12.968   0.188   7.955
 7041POPC   C4B21334  13.039   0.277   7.655
 7042POPC   NC321335  42.345   8.993   9.455
 7042POPC   PO421336  42.362   8.998   9.155
 7042POPC   GL121337  42.298   8.956   8.855
 7042POPC   GL221338  42.418   9.084   8.855
 7042POPC   C1A21339  42.304   8.952   8.555
 7042POPC   D2A21340  42.317   8.932   8.255
 7042POPC   C3A21341  42.372   8.945   7.955
 7042POPC   C4A21342  42.306   9.011   7.655
 7042POPC   C1B21343  42.375   9.201   8.555
 7042POPC   C2B21344  42.454   9.210   8.255
 7042POPC   C3B21345  42.412   9.165   7.955
 7042POPC   C4B21346  42.438   9.171   7.655
 7043POPC   NC321347  35.344  36.928   9.455
 7043POPC   PO421348  35.383  36.871   9.155
 7043POPC   GL121349  35.399  36.915   8.855
 7043POPC   GL221350  35.255  36.981   8.855
 7043POPC   C1A21351  35.358  36.935   8.555
 7043POPC   D2A21352  35.354  36.911   8.255
 7043POPC   C3A21353  35.346  36.877   7.955
 7043POPC   C4A21354  35.339  36.921   7.655
 7043POPC   C1B21355  35.076  36.987   8.555
 7043POPC   C2B21356  35.087  36.965   8.255
 7043POPC   C3B21357  35.138  37.041   7.955
 7043POPC   C4B21358  35.151  36.979   7.655
 7044POPC   NC321359  22.931  20.634   9.455
 7044POPC   PO421360  22.980  20.588   9.155
 7044POPC   GL121361  22.988  20.597   8.855
 7044POPC   GL221362  23.006  20.713   8.855
 7044POPC   C1A21363  22.904  20.577   8.555
 7044POPC   D2A21364  22.959  20.619   8.255
 7044POPC   C3A21365  22.894  20.649   7.955
 7044POPC   C4A21366  22.922  20.623   7.655
 7044POPC   C1B21367  22.991  20.832   8.555
 7044POPC   C2B21368  22.990  20.852   8.255
 7044POPC   C3B21369  23.074  20.874   7.955
 7044POPC   C4B21370  23.017  20.852   7.655
 7045POPC   NC321371  19.031   8.187   9.455
 7045POPC   PO421372  19.053   8.206   9.155
 7045POPC   GL121373  19.108   8.237   8.855
 7045POPC   GL221374  19.174   8.220   8.855
 7045POPC   C1A21375  19.062   8.232   8.555
 7045POPC   D2A21376  19.016   8.194   8.255
 7045POPC   C3A21377  19.081   8.215   7.955
 7045POPC   C4A21378  19.092   8.187   7.655
 7045POPC   C1B21379  19.345   8.257   8.555
 7045POPC   C2B21380  19.342   8.255   8.255
 7045POPC   C3B21381  19.320   8.284   7.955
 7045POPC   C4B21382  19.346   8.262   7.655
 7046POPC   NC321383  19.028  31.514   9.455
 7046POPC   PO421384  19.037  31.469   9.155
 7046POPC   GL121385  19.017  31.433   8.855
 7046POPC   GL221386  19.089  31.372   8.855
 7046POPC   C1A21387  19.025  31.494   8.555
 7046POPC   D2A21388  19.090  31.445   8.255
 7046POPC   C3A21389  19.061  31.489   7.955
 7046POPC   C4A21390  19.012  31.515   7.655
 7046POPC   C1B21391  19.068  31.192   8.555
 7046POPC   C2B21392  19.091  31.253   8.255
 7046POPC   C3B21393  19.040  31.218   7.955
 7046POPC   C4B21394  19.028  31.194   7.655
 7047POPC   NC321395   8.959   5.909   9.455
 7047POPC   PO421396   8.923   5.871   9.155
 7047POPC   GL121397   9.005   5.846   8.855
 7047POPC   GL221398   8.836   5.953   8.855
 7047POPC   C1A21399   9.007   5.852   8.555
 7047POPC   D2A21400   8.986   5.852   8.255
 7047POPC   C3A21401   8.935   5.834   7.955
 7047POPC   C4A21402   8.925   5.859   7.655
 7047POPC   C1B21403   8.735   5.956   8.555
 7047POPC   C2B21404   8.713   5.949   8.255
 7047POPC   C3B21405   8.727   5.962   7.955
 7047POPC   C4B21406   8.725   5.970   7.655
 7048POPC   NC321407   3.520   3.541   9.455
 7048POPC   PO421408   3.523   3.501   9.155
 7048POPC   GL121409   3.532   3.528   8.855
 7048POPC   GL221410   3.492   3.646   8.855
 7048POPC   C1A21411   3.539   3.507   8.555
 7048POPC   D2A21412   3.571   3.516   8.255
 7048POPC   C3A21413   3.565   3.529   7.955
 7048POPC   C4A21414   3.503   3.506   7.655
 7048POPC   C1B21415   3.387   3.759   8.555
 7048POPC   C2B21416   3.385   3.714   8.255
 7048POPC   C3B21417   3.394   3.787   7.955
 7048POPC   C4B21418   3.438   3.750   7.655
 7049POPC   NC321419   0.430  37.691   9.455
 7049POPC   PO421420   0.425  37.704   9.155
 7049POPC   GL121421   0.408  37.693   8.855
 7049POPC   GL221422   0.587  37.711   8.855
 7049POPC   C1A21423   0.475  37.654   8.555
 7049POPC   D2A21424   0.427  37.652   8.255
 7049POPC   C3A21425   0.395  37.662   7.955
 7049POPC   C4A21426   0.464  37.670   7.655
 7049POPC   C1B21427   0.695  37.760   8.555
 7049POPC   C2B21428   0.713  37.732   8.255
 7049POPC   C3B21429   0.658  37.775   7.955
 7049POPC   C4B21430   0.685  37.747   7.655
 7050POPC   NC321431  28.358   8.932   9.455
 7050POPC   PO421432  28.357   8.940   9.155
 7050POPC   GL121433  28.391   9.014   8.855
 7050POPC   GL221434  28.374   9.112   8.855
 7050POPC   C1A21435  28.332   8.937   8.555
 7050POPC   D2A21436  28.374   9.020   8.255
 7050POPC   C3A21437  28.358   8.972   7.955
 7050POPC   C4A21438  28.336   8.932   7.655
 7050POPC   C1B21439  28.454   9.254   8.555
 7050POPC   C2B21440  28.494   9.166   8.255
 7050POPC   C3B21441  28.439   9.205   7.955
 7050POPC   C4B21442  28.456   9.170   7.655
 7051POPC   NC321443  17.543  26.787   9.455
 7051POPC   PO421444  17.504  26.782   9.155
 7051POPC   GL121445  17.459  26.848   8.855
 7051POPC   GL221446  17.620  26.755   8.855
 7051POPC   C1A21447  17.525  26.813   8.555
 7051POPC   D2A21448  17.487  26.775   8.255
 7051POPC   C3A21449  17.491  26.821   7.955
 7051POPC   C4A21450  17.500  26.858   7.655
 7051POPC   C1B21451  17.768  26.754   8.555
 7051POPC   C2B21452  17.746  26.719   8.255
 7051POPC   C3B21453  17.711  26.717   7.955
 7051POPC   C4B21454  17.741  26.768   7.655
 7052POPC   NC321455  27.591  19.847   9.455
 7052POPC   PO421456  27.608  19.817   9.155
 7052POPC   GL121457  27.591  19.828   8.855
 7052POPC   GL221458  27.530  19.824   8.855
 7052POPC   C1A21459  27.575  19.816   8.555
 7052POPC   D2A21460  27.566  19.871   8.255
 7052POPC   C3A21461  27.578  19.837   7.955
 7052POPC   C4A21462  27.630  19.869   7.655
 7052POPC   C1B21463  27.422  19.751   8.555
 7052POPC   C2B21464  27.325  19.669   8.255
 7052POPC   C3B21465  27.351  19.764   7.955
 7052POPC   C4B21466  27.383  19.671   7.655
 7053POPC   NC321467   1.957   8.195   9.455
 7053POPC   PO421468   1.969   8.246   9.155
 7053POPC   GL121469   2.005   8.218   8.855
 7053POPC   GL221470   1.944   8.272   8.855
 7053POPC   C1A21471   1.973   8.196   8.555
 7053POPC   D2A21472   2.026   8.197   8.255
 7053POPC   C3A21473   1.996   8.227   7.955
 7053POPC   C4A21474   1.955   8.193   7.655
 7053POPC   C1B21475   2.031   8.450   8.555
 7053POPC   C2B21476   1.938   8.451   8.255
 7053POPC   C3B21477   2.031   8.412   7.955
 7053POPC   C4B21478   1.947   8.490   7.655
 7054POPC   NC321479  34.537  27.613   9.455
 7054POPC   PO421480  34.614  27.588   9.155
 7054POPC   GL121481  34.528  27.580   8.855
 7054POPC   GL221482  34.542  27.474   8.855
 7054POPC   C1A21483  34.604  27.611   8.555
 7054POPC   D2A21484  34.587  27.558   8.255
 7054POPC   C3A21485  34.565  27.607   7.955
 7054POPC   C4A21486  34.614  27.635   7.655
 7054POPC   C1B21487  34.463  27.341   8.555
 7054POPC   C2B21488  34.497  27.374   8.255
 7054POPC   C3B21489  34.468  27.393   7.955
 7054POPC   C4B21490  34.434  27.341   7.655
 7055POPC   NC321491  41.520  15.178   9.455
 7055POPC   PO421492  41.528  15.147   9.155
 7055POPC   GL121493  41.600  15.131   8.855
 7055POPC   GL221494  41.503  15.342   8.855
 7055POPC   C1A21495  41.549  15.150   8.555
 7055POPC   D2A21496  41.588  15.176   8.255
 7055POPC   C3A21497  41.600  15.189   7.955
 7055POPC   C4A21498  41.608  15.195   7.655
 7055POPC   C1B21499  41.500  15.423   8.555
 7055POPC   C2B21500  41.425  15.424   8.255
 7055POPC   C3B21501  41.500  15.357   7.955
 7055POPC   C4B21502  41.457  15.380   7.655
 7056POPC   NC321503  40.776  36.854   9.455
 7056POPC   PO421504  40.740  36.887   9.155
 7056POPC   GL121505  40.801  36.938   8.855
 7056POPC   GL221506  40.748  36.774   8.855
 7056POPC   C1A21507  40.832  36.888   8.555
 7056POPC   D2A21508  40.822  36.930   8.255
 7056POPC   C3A21509  40.775  36.902   7.955
 7056POPC   C4A21510  40.765  36.857   7.655
 7056POPC   C1B21511  40.807  36.700   8.555
 7056POPC   C2B21512  40.820  36.628   8.255
 7056POPC   C3B21513  40.738  36.677   7.955
 7056POPC   C4B21514  40.821  36.703   7.655
 7057POPC   NC321515  16.735  19.870   9.455
 7057POPC   PO421516  16.702  19.882   9.155
 7057POPC   GL121517  16.704  19.832   8.855
 7057POPC   GL221518  16.743  19.668   8.855
 7057POPC   C1A21519  16.691  19.844   8.555
 7057POPC   D2A21520  16.706  19.836   8.255
 7057POPC   C3A21521  16.758  19.834   7.955
 7057POPC   C4A21522  16.719  19.800   7.655
 7057POPC   C1B21523  16.789  19.648   8.555
 7057POPC   C2B21524  16.853  19.644   8.255
 7057POPC   C3B21525  16.823  19.568   7.955
 7057POPC   C4B21526  16.843  19.613   7.655
 7058POPC   NC321527  28.338  18.298   9.455
 7058POPC   PO421528  28.376  18.262   9.155
 7058POPC   GL121529  28.336  18.269   8.855
 7058POPC   GL221530  28.493  18.414   8.855
 7058POPC   C1A21531  28.382  18.315   8.555
 7058POPC   D2A21532  28.390  18.316   8.255
 7058POPC   C3A21533  28.383  18.279   7.955
 7058POPC   C4A21534  28.376  18.330   7.655
 7058POPC   C1B21535  28.521  18.524   8.555
 7058POPC   C2B21536  28.533  18.509   8.255
 7058POPC   C3B21537  28.497  18.486   7.955
 7058POPC   C4B21538  28.490  18.524   7.655
 7059POPC   NC321539  36.928  35.400   9.455
 7059POPC   PO421540  36.872  35.347   9.155
 7059POPC   GL121541  36.914  35.321   8.855
 7059POPC   GL221542  37.043  35.412   8.855
 7059POPC   C1A21543  36.900  35.312   8.555
 7059POPC   D2A21544  36.872  35.357   8.255
 7059POPC   C3A21545  36.928  35.398   7.955
 7059POPC   C4A21546  36.921  35.381   7.655
 7059POPC   C1B21547  37.096  35.539   8.555
 7059POPC   C2B21548  37.123  35.533   8.255
 7059POPC   C3B21549  37.071  35.542   7.955
 7059POPC   C4B21550  37.125  35.555   7.655
 7060POPC   NC321551  40.013  15.942   9.455
 7060POPC   PO421552  40.051  15.912   9.155
 7060POPC   GL121553  40.007  15.930   8.855
 7060POPC   GL221554  40.057  16.066   8.855
 7060POPC   C1A21555  40.015  15.951   8.555
 7060POPC   D2A21556  40.041  15.949   8.255
 7060POPC   C3A21557  40.008  15.916   7.955
 7060POPC   C4A21558  40.022  15.991   7.655
 7060POPC   C1B21559  40.125  16.129   8.555
 7060POPC   C2B21560  40.106  16.137   8.255
 7060POPC   C3B21561  40.123  16.155   7.955
 7060POPC   C4B21562  40.124  16.186   7.655
 7061POPC   NC321563   2.795  31.487   9.455
 7061POPC   PO421564   2.800  31.438   9.155
 7061POPC   GL121565   2.782  31.424   8.855
 7061POPC   GL221566   2.825  31.623   8.855
 7061POPC   C1A21567   2.743  31.459   8.555
 7061POPC   D2A21568   2.784  31.465   8.255
 7061POPC   C3A21569   2.769  31.508   7.955
 7061POPC   C4A21570   2.800  31.484   7.655
 7061POPC   C1B21571   2.896  31.730   8.555
 7061POPC   C2B21572   2.832  31.726   8.255
 7061POPC   C3B21573   2.872  31.666   7.955
 7061POPC   C4B21574   2.901  31.673   7.655
 7062POPC   NC321575   8.230  25.242   9.455
 7062POPC   PO421576   8.240  25.227   9.155
 7062POPC   GL121577   8.172  25.287   8.855
 7062POPC   GL221578   8.184  25.438   8.855
 7062POPC   C1A21579   8.182  25.289   8.555
 7062POPC   D2A21580   8.245  25.311   8.255
 7062POPC   C3A21581   8.178  25.300   7.955
 7062POPC   C4A21582   8.194  25.231   7.655
 7062POPC   C1B21583   8.221  25.541   8.555
 7062POPC   C2B21584   8.205  25.558   8.255
 7062POPC   C3B21585   8.169  25.532   7.955
 7062POPC   C4B21586   8.201  25.555   7.655
 7063POPC   NC321587  11.323  41.559   9.455
 7063POPC   PO421588  11.283  41.604   9.155
 7063POPC   GL121589  11.333  41.519   8.855
 7063POPC   GL221590  11.400  41.511   8.855
 7063POPC   C1A21591  11.283  41.538   8.555
 7063POPC   D2A21592  11.266  41.530   8.255
 7063POPC   C3A21593  11.261  41.562   7.955
 7063POPC   C4A21594  11.294  41.533   7.655
 7063POPC   C1B21595  11.583  41.550   8.555
 7063POPC   C2B21596  11.537  41.507   8.255
 7063POPC   C3B21597  11.515  41.506   7.955
 7063POPC   C4B21598  11.588  41.553   7.655
 7064POPC   NC321599  28.390  15.143   9.455
 7064POPC   PO421600  28.412  15.129   9.155
 7064POPC   GL121601  28.360  15.134   8.855
 7064POPC   GL221602  28.305  15.081   8.855
 7064POPC   C1A21603  28.348  15.139   8.555
 7064POPC   D2A21604  28.321  15.190   8.255
 7064POPC   C3A21605  28.398  15.168   7.955
 7064POPC   C4A21606  28.406  15.179   7.655
 7064POPC   C1B21607  28.223  15.005   8.555
 7064POPC   C2B21608  28.167  14.972   8.255
 7064POPC   C3B21609  28.160  15.036   7.955
 7064POPC   C4B21610  28.204  15.003   7.655
 7065POPC   NC321611  15.957   4.363   9.455
 7065POPC   PO421612  15.983   4.324   9.155
 7065POPC   GL121613  15.958   4.329   8.855
 7065POPC   GL221614  16.043   4.390   8.855
 7065POPC   C1A21615  15.959   4.344   8.555
 7065POPC   D2A21616  15.954   4.291   8.255
 7065POPC   C3A21617  15.985   4.268   7.955
 7065POPC   C4A21618  16.000   4.348   7.655
 7065POPC   C1B21619  16.208   4.455   8.555
 7065POPC   C2B21620  16.114   4.504   8.255
 7065POPC   C3B21621  16.169   4.431   7.955
 7065POPC   C4B21622  16.152   4.409   7.655
 7066POPC   NC321623  20.659   5.913   9.455
 7066POPC   PO421624  20.640   5.828   9.155
 7066POPC   GL121625  20.608   5.874   8.855
 7066POPC   GL221626  20.770   5.845   8.855
 7066POPC   C1A21627  20.655   5.851   8.555
 7066POPC   D2A21628  20.586   5.915   8.255
 7066POPC   C3A21629  20.564   5.910   7.955
 7066POPC   C4A21630  20.566   5.828   7.655
 7066POPC   C1B21631  20.886   5.934   8.555
 7066POPC   C2B21632  20.814   5.887   8.255
 7066POPC   C3B21633  20.814   5.918   7.955
 7066POPC   C4B21634  20.839   5.888   7.655
 7067POPC   NC321635   4.321  17.557   9.455
 7067POPC   PO421636   4.362  17.485   9.155
 7067POPC   GL121637   4.315  17.498   8.855
 7067POPC   GL221638   4.447  17.600   8.855
 7067POPC   C1A21639   4.310  17.529   8.555
 7067POPC   D2A21640   4.366  17.545   8.255
 7067POPC   C3A21641   4.359  17.552   7.955
 7067POPC   C4A21642   4.318  17.546   7.655
 7067POPC   C1B21643   4.542  17.606   8.555
 7067POPC   C2B21644   4.569  17.680   8.255
 7067POPC   C3B21645   4.473  17.631   7.955
 7067POPC   C4B21646   4.564  17.607   7.655
 7068POPC   NC321647   4.366  31.444   9.455
 7068POPC   PO421648   4.273  31.450   9.155
 7068POPC   GL121649   4.273  31.424   8.855
 7068POPC   GL221650   4.221  31.558   8.855
 7068POPC   C1A21651   4.282  31.495   8.555
 7068POPC   D2A21652   4.272  31.478   8.255
 7068POPC   C3A21653   4.300  31.486   7.955
 7068POPC   C4A21654   4.313  31.508   7.655
 7068POPC   C1B21655   4.191  31.699   8.555
 7068POPC   C2B21656   4.140  31.701   8.255
 7068POPC   C3B21657   4.196  31.676   7.955
 7068POPC   C4B21658   4.180  31.636   7.655
 7069POPC   NC321659  11.273  39.993   9.455
 7069POPC   PO421660  11.294  40.030   9.155
 7069POPC   GL121661  11.295  40.011   8.855
 7069POPC   GL221662  11.439  39.915   8.855
 7069POPC   C1A21663  11.310  40.016   8.555
 7069POPC   D2A21664  11.252  39.980   8.255
 7069POPC   C3A21665  11.331  40.013   7.955
 7069POPC   C4A21666  11.338  39.974   7.655
 7069POPC   C1B21667  11.461  39.808   8.555
 7069POPC   C2B21668  11.528  39.847   8.255
 7069POPC   C3B21669  11.473  39.798   7.955
 7069POPC   C4B21670  11.537  39.866   7.655
 7070POPC   NC321671  42.354   9.795   9.455
 7070POPC   PO421672  42.375   9.732   9.155
 7070POPC   GL121673  42.308   9.724   8.855
 7070POPC   GL221674  42.388   9.861   8.855
 7070POPC   C1A21675  42.334   9.712   8.555
 7070POPC   D2A21676  42.332   9.739   8.255
 7070POPC   C3A21677  42.293   9.719   7.955
 7070POPC   C4A21678  42.325   9.789   7.655
 7070POPC   C1B21679  42.405   9.972   8.555
 7070POPC   C2B21680  42.409  10.037   8.255
 7070POPC   C3B21681  42.374   9.989   7.955
 7070POPC   C4B21682  42.396  10.001   7.655
 7071POPC   NC321683   6.667  22.166   9.455
 7071POPC   PO421684   6.631  22.178   9.155
 7071POPC   GL121685   6.628  22.145   8.855
 7071POPC   GL221686   6.721  22.017   8.855
 7071POPC   C1A21687   6.680  22.134   8.555
 7071POPC   D2A21688   6.656  22.177   8.255
 7071POPC   C3A21689   6.677  22.152   7.955
 7071POPC   C4A21690   6.657  22.199   7.655
 7071POPC   C1B21691   6.724  21.970   8.555
 7071POPC   C2B21692   6.714  21.910   8.255
 7071POPC   C3B21693   6.703  21.935   7.955
 7071POPC   C4B21694   6.680  21.895   7.655
 7072POPC   NC321695  11.324  21.431   9.455
 7072POPC   PO421696  11.338  21.344   9.155
 7072POPC   GL121697  11.334  21.412   8.855
 7072POPC   GL221698  11.444  21.385   8.855
 7072POPC   C1A21699  11.294  21.379   8.555
 7072POPC   D2A21700  11.265  21.359   8.255
 7072POPC   C3A21701  11.261  21.387   7.955
 7072POPC   C4A21702  11.278  21.399   7.655
 7072POPC   C1B21703  11.566  21.411   8.555
 7072POPC   C2B21704  11.543  21.444   8.255
 7072POPC   C3B21705  11.501  21.423   7.955
 7072POPC   C4B21706  11.537  21.440   7.655
 7073POPC   NC321707  22.201  34.537   9.455
 7073POPC   PO421708  22.168  34.607   9.155
 7073POPC   GL121709  22.180  34.591   8.855
 7073POPC   GL221710  21.995  34.593   8.855
 7073POPC   C1A21711  22.159  34.579   8.555
 7073POPC   D2A21712  22.179  34.622   8.255
 7073POPC   C3A21713  22.118  34.615   7.955
 7073POPC   C4A21714  22.195  34.617   7.655
 7073POPC   C1B21715  21.948  34.601   8.555
 7073POPC   C2B21716  21.876  34.608   8.255
 7073POPC   C3B21717  21.888  34.548   7.955
 7073POPC   C4B21718  21.900  34.588   7.655
 7074POPC   NC321719  18.283  44.671   9.455
 7074POPC   PO421720  18.245  44.634   9.155
 7074POPC   GL121721  18.299  44.627   8.855
 7074POPC   GL221722  18.151  44.600   8.855
 7074POPC   C1A21723  18.316  44.613   8.555
 7074POPC   D2A21724  18.284  44.712   8.255
 7074POPC   C3A21725  18.299  44.687   7.955
 7074POPC   C4A21726  18.301  44.672   7.655
 7074POPC   C1B21727  18.088  44.439   8.555
 7074POPC   C2B21728  18.126  44.496   8.255
 7074POPC   C3B21729  18.141  44.494   7.955
 7074POPC   C4B21730  18.146  44.506   7.655
 7075POPC   NC321731  21.401  37.719   9.455
 7075POPC   PO421732  21.428  37.724   9.155
 7075POPC   GL121733  21.382  37.702   8.855
 7075POPC   GL221734  21.313  37.593   8.855
 7075POPC   C1A21735  21.342  37.632   8.555
 7075POPC   D2A21736  21.370  37.705   8.255
 7075POPC   C3A21737  21.358  37.693   7.955
 7075POPC   C4A21738  21.424  37.681   7.655
 7075POPC   C1B21739  21.305  37.486   8.555
 7075POPC   C2B21740  21.262  37.464   8.255
 7075POPC   C3B21741  21.247  37.467   7.955
 7075POPC   C4B21742  21.276  37.454   7.655
 7076POPC   NC321743  41.535  41.545   9.455
 7076POPC   PO421744  41.514  41.537   9.155
 7076POPC   GL121745  41.589  41.515   8.855
 7076POPC   GL221746  41.584  41.470   8.855
 7076POPC   C1A21747  41.591  41.559   8.555
 7076POPC   D2A21748  41.602  41.576   8.255
 7076POPC   C3A21749  41.544  41.599   7.955
 7076POPC   C4A21750  41.571  41.558   7.655
 7076POPC   C1B21751  41.568  41.348   8.555
 7076POPC   C2B21752  41.594  41.343   8.255
 7076POPC   C3B21753  41.616  41.339   7.955
 7076POPC   C4B21754  41.566  41.349   7.655
 7077POPC   NC321755  24.514  30.705   9.455
 7077POPC   PO421756  24.443  30.678   9.155
 7077POPC   GL121757  24.440  30.671   8.855
 7077POPC   GL221758  24.659  30.673   8.855
 7077POPC   C1A21759  24.508  30.654   8.555
 7077POPC   D2A21760  24.501  30.742   8.255
 7077POPC   C3A21761  24.493  30.736   7.955
 7077POPC   C4A21762  24.451  30.679   7.655
 7077POPC   C1B21763  24.704  30.650   8.555
 7077POPC   C2B21764  24.732  30.665   8.255
 7077POPC   C3B21765  24.739  30.644   7.955
 7077POPC   C4B21766  24.740  30.680   7.655
 7078POPC   NC321767  16.776  21.423   9.455
 7078POPC   PO421768  16.730  21.388   9.155
 7078POPC   GL121769  16.775  21.416   8.855
 7078POPC   GL221770  16.861  21.470   8.855
 7078POPC   C1A21771  16.723  21.427   8.555
 7078POPC   D2A21772  16.710  21.345   8.255
 7078POPC   C3A21773  16.741  21.342   7.955
 7078POPC   C4A21774  16.757  21.424   7.655
 7078POPC   C1B21775  16.908  21.561   8.555
 7078POPC   C2B21776  16.894  21.545   8.255
 7078POPC   C3B21777  16.924  21.553   7.955
 7078POPC   C4B21778  16.905  21.581   7.655
 7079POPC   NC321779   9.759  43.063   9.455
 7079POPC   PO421780   9.737  43.112   9.155
 7079POPC   GL121781   9.753  43.080   8.855
 7079POPC   GL221782   9.838  43.210   8.855
 7079POPC   C1A21783   9.744  43.107   8.555
 7079POPC   D2A21784   9.784  43.083   8.255
 7079POPC   C3A21785   9.735  43.121   7.955
 7079POPC   C4A21786   9.765  43.093   7.655
 7079POPC   C1B21787   9.900  43.307   8.555
 7079POPC   C2B21788   9.983  43.298   8.255
 7079POPC   C3B21789   9.895  43.308   7.955
 7079POPC   C4B21790   9.929  43.281   7.655
 7080POPC   NC321791  36.132   0.409   9.455
 7080POPC   PO421792  36.097   0.403   9.155
 7080POPC   GL121793  36.135   0.409   8.855
 7080POPC   GL221794  36.237   0.348   8.855
 7080POPC   C1A21795  36.152   0.444   8.555
 7080POPC   D2A21796  36.155   0.413   8.255
 7080POPC   C3A21797  36.105   0.401   7.955
 7080POPC   C4A21798  36.113   0.469   7.655
 7080POPC   C1B21799  36.360   0.310   8.555
 7080POPC   C2B21800  36.356   0.311   8.255
 7080POPC   C3B21801  36.353   0.387   7.955
 7080POPC   C4B21802  36.346   0.376   7.655
 7081POPC   NC321803   7.436   6.624   9.455
 7081POPC   PO421804   7.410   6.604   9.155
 7081POPC   GL121805   7.386   6.660   8.855
 7081POPC   GL221806   7.451   6.491   8.855
 7081POPC   C1A21807   7.401   6.686   8.555
 7081POPC   D2A21808   7.411   6.608   8.255
 7081POPC   C3A21809   7.469   6.656   7.955
 7081POPC   C4A21810   7.460   6.664   7.655
 7081POPC   C1B21811   7.462   6.425   8.555
 7081POPC   C2B21812   7.467   6.362   8.255
 7081POPC   C3B21813   7.480   6.444   7.955
 7081POPC   C4B21814   7.466   6.444   7.655
 7082POPC   NC321815  32.282  19.011   9.455
 7082POPC   PO421816  32.283  19.107   9.155
 7082POPC   GL121817  32.215  19.037   8.855
 7082POPC   GL221818  32.103  19.118   8.855
 7082POPC   C1A21819  32.215  19.074   8.555
 7082POPC   D2A21820  32.230  19.106   8.255
 7082POPC   C3A21821  32.236  19.046   7.955
 7082POPC   C4A21822  32.201  19.075   7.655
 7082POPC   C1B21823  32.030  19.147   8.555
 7082POPC   C2B21824  31.990  19.159   8.255
 7082POPC   C3B21825  32.076  19.164   7.955
 7082POPC   C4B21826  32.025  19.189   7.655
 7083POPC   NC321827   5.898  40.010   9.455
 7083POPC   PO421828   5.870  39.981   9.155
 7083POPC   GL121829   5.913  40.039   8.855
 7083POPC   GL221830   5.789  39.906   8.855
 7083POPC   C1A21831   5.909  40.018   8.555
 7083POPC   D2A21832   5.899  39.994   8.255
 7083POPC   C3A21833   5.821  40.033   7.955
 7083POPC   C4A21834   5.893  40.053   7.655
 7083POPC   C1B21835   5.794  39.781   8.555
 7083POPC   C2B21836   5.771  39.741   8.255
 7083POPC   C3B21837   5.832  39.757   7.955
 7083POPC   C4B21838   5.775  39.724   7.655
 7084POPC   NC321839  41.521  37.673   9.455
 7084POPC   PO421840  41.533  37.700   9.155
 7084POPC   GL121841  41.551  37.653   8.855
 7084POPC   GL221842  41.699  37.614   8.855
 7084POPC   C1A21843  41.566  37.702   8.555
 7084POPC   D2A21844  41.514  37.643   8.255
 7084POPC   C3A21845  41.605  37.691   7.955
 7084POPC   C4A21846  41.570  37.664   7.655
 7084POPC   C1B21847  41.732  37.539   8.555
 7084POPC   C2B21848  41.797  37.567   8.255
 7084POPC   C3B21849  41.754  37.495   7.955
 7084POPC   C4B21850  41.790  37.491   7.655
 7085POPC   NC321851   8.934  23.667   9.455
 7085POPC   PO421852   8.961  23.731   9.155
 7085POPC   GL121853   8.998  23.752   8.855
 7085POPC   GL221854   8.894  23.666   8.855
 7085POPC   C1A21855   8.941  23.759   8.555
 7085POPC   D2A21856   8.974  23.729   8.255
 7085POPC   C3A21857   8.945  23.760   7.955
 7085POPC   C4A21858   8.979  23.758   7.655
 7085POPC   C1B21859   8.774  23.501   8.555
 7085POPC   C2B21860   8.779  23.535   8.255
 7085POPC   C3B21861   8.738  23.550   7.955
 7085POPC   C4B21862   8.826  23.566   7.655
 7086POPC   NC321863  22.164  36.953   9.455
 7086POPC   PO421864  22.173  36.946   9.155
 7086POPC   GL121865  22.174  36.910   8.855
 7086POPC   GL221866  22.114  37.016   8.855
 7086POPC   C1A21867  22.198  36.944   8.555
 7086POPC   D2A21868  22.207  36.936   8.255
 7086POPC   C3A21869  22.201  36.906   7.955
 7086POPC   C4A21870  22.131  36.889   7.655
 7086POPC   C1B21871  22.053  37.178   8.555
 7086POPC   C2B21872  22.075  37.153   8.255
 7086POPC   C3B21873  22.090  37.141   7.955
 7086POPC   C4B21874  22.111  37.099   7.655
 7087POPC   NC321875  30.672   0.399   9.455
 7087POPC   PO421876  30.648   0.430   9.155
 7087POPC   GL121877  30.651   0.466   8.855
 7087POPC   GL221878  30.850   0.479   8.855
 7087POPC   C1A21879  30.736   0.465   8.555
 7087POPC   D2A21880  30.717   0.431   8.255
 7087POPC   C3A21881  30.674   0.478   7.955
 7087POPC   C4A21882  30.741   0.470   7.655
 7087POPC   C1B21883  30.960   0.503   8.555
 7087POPC   C2B21884  30.930   0.495   8.255
 7087POPC   C3B21885  30.906   0.518   7.955
 7087POPC   C4B21886  30.987   0.440   7.655
 7088POPC   NC321887  28.367   4.354   9.455
 7088POPC   PO421888  28.381   4.332   9.155
 7088POPC   GL121889  28.376   4.288   8.855
 7088POPC   GL221890  28.202   4.309   8.855
 7088POPC   C1A21891  28.328   4.336   8.555
 7088POPC   D2A21892  28.394   4.322   8.255
 7088POPC   C3A21893  28.323   4.319   7.955
 7088POPC   C4A21894  28.367   4.320   7.655
 7088POPC   C1B21895  28.153   4.280   8.555
 7088POPC   C2B21896  28.140   4.282   8.255
 7088POPC   C3B21897  28.143   4.289   7.955
 7088POPC   C4B21898  28.169   4.248   7.655
 7089POPC   NC321899   5.918  34.546   9.455
 7089POPC   PO421900   5.830  34.543   9.155
 7089POPC   GL121901   5.858  34.560   8.855
 7089POPC   GL221902   5.883  34.742   8.855
 7089POPC   C1A21903   5.831  34.548   8.555
 7089POPC   D2A21904   5.821  34.621   8.255
 7089POPC   C3A21905   5.867  34.609   7.955
 7089POPC   C4A21906   5.819  34.569   7.655
 7089POPC   C1B21907   5.910  34.787   8.555
 7089POPC   C2B21908   5.931  34.845   8.255
 7089POPC   C3B21909   5.911  34.835   7.955
 7089POPC   C4B21910   5.880  34.794   7.655
 7090POPC   NC321911  15.954  30.651   9.455
 7090POPC   PO421912  15.980  30.708   9.155
 7090POPC   GL121913  16.003  30.676   8.855
 7090POPC   GL221914  15.820  30.726   8.855
 7090POPC   C1A21915  15.966  30.667   8.555
 7090POPC   D2A21916  15.983  30.696   8.255
 7090POPC   C3A21917  15.947  30.743   7.955
 7090POPC   C4A21918  15.981  30.706   7.655
 7090POPC   C1B21919  15.732  30.744   8.555
 7090POPC   C2B21920  15.704  30.720   8.255
 7090POPC   C3B21921  15.685  30.784   7.955
 7090POPC   C4B21922  15.672  30.738   7.655
 7091POPC   NC321923  19.034  21.408   9.455
 7091POPC   PO421924  19.099  21.427   9.155
 7091POPC   GL121925  19.106  21.400   8.855
 7091POPC   GL221926  18.970  21.389   8.855
 7091POPC   C1A21927  19.081  21.415   8.555
 7091POPC   D2A21928  19.100  21.407   8.255
 7091POPC   C3A21929  19.083  21.379   7.955
 7091POPC   C4A21930  19.083  21.348   7.655
 7091POPC   C1B21931  18.820  21.407   8.555
 7091POPC   C2B21932  18.814  21.447   8.255
 7091POPC   C3B21933  18.823  21.474   7.955
 7091POPC   C4B21934  18.845  21.420   7.655
 7092POPC   NC321935  19.859  26.768   9.455
 7092POPC   PO421936  19.835  26.832   9.155
 7092POPC   GL121937  19.840  26.798   8.855
 7092POPC   GL221938  19.921  26.845   8.855
 7092POPC   C1A21939  19.861  26.804   8.555
 7092POPC   D2A21940  19.876  26.778   8.255
 7092POPC   C3A21941  19.841  26.805   7.955
 7092POPC   C4A21942  19.848  26.800   7.655
 7092POPC   C1B21943  20.060  26.858   8.555
 7092POPC   C2B21944  20.030  26.890   8.255
 7092POPC   C3B21945  20.063  26.876   7.955
 7092POPC   C4B21946  20.073  26.842   7.655
 7093POPC   NC321947   5.874  28.370   9.455
 7093POPC   PO421948   5.861  28.388   9.155
 7093POPC   GL121949   5.835  28.399   8.855
 7093POPC   GL221950   5.792  28.399   8.855
 7093POPC   C1A21951   5.829  28.334   8.555
 7093POPC   D2A21952   5.895  28.369   8.255
 7093POPC   C3A21953   5.852  28.346   7.955
 7093POPC   C4A21954   5.821  28.362   7.655
 7093POPC   C1B21955   5.668  28.340   8.555
 7093POPC   C2B21956   5.584  28.371   8.255
 7093POPC   C3B21957   5.642  28.301   7.955
 7093POPC   C4B21958   5.628  28.357   7.655
 7094POPC   NC321959  33.800   9.755   9.455
 7094POPC   PO421960  33.784   9.703   9.155
 7094POPC   GL121961  33.793   9.711   8.855
 7094POPC   GL221962  33.830   9.902   8.855
 7094POPC   C1A21963  33.783   9.716   8.555
 7094POPC   D2A21964  33.808   9.720   8.255
 7094POPC   C3A21965  33.810   9.750   7.955
 7094POPC   C4A21966  33.809   9.769   7.655
 7094POPC   C1B21967  33.790  10.039   8.555
 7094POPC   C2B21968  33.795   9.993   8.255
 7094POPC   C3B21969  33.803  10.031   7.955
 7094POPC   C4B21970  33.871   9.945   7.655
 7095POPC   NC321971  20.623  40.804   9.455
 7095POPC   PO421972  20.658  40.769   9.155
 7095POPC   GL121973  20.642  40.784   8.855
 7095POPC   GL221974  20.628  40.702   8.855
 7095POPC   C1A21975  20.627  40.753   8.555
 7095POPC   D2A21976  20.611  40.736   8.255
 7095POPC   C3A21977  20.643  40.756   7.955
 7095POPC   C4A21978  20.591  40.753   7.655
 7095POPC   C1B21979  20.721  40.531   8.555
 7095POPC   C2B21980  20.756  40.529   8.255
 7095POPC   C3B21981  20.723  40.541   7.955
 7095POPC   C4B21982  20.743  40.521   7.655
 7096POPC   NC321983  16.697  25.284   9.455
 7096POPC   PO421984  16.688  25.313   9.155
 7096POPC   GL121985  16.738  25.249   8.855
 7096POPC   GL221986  16.741  25.412   8.855
 7096POPC   C1A21987  16.733  25.315   8.555
 7096POPC   D2A21988  16.757  25.223   8.255
 7096POPC   C3A21989  16.749  25.257   7.955
 7096POPC   C4A21990  16.754  25.278   7.655
 7096POPC   C1B21991  16.744  25.556   8.555
 7096POPC   C2B21992  16.716  25.558   8.255
 7096POPC   C3B21993  16.787  25.511   7.955
 7096POPC   C4B21994  16.744  25.490   7.655
 7097POPC   NC321995  26.018  15.936   9.455
 7097POPC   PO421996  26.054  15.928   9.155
 7097POPC   GL121997  26.045  15.942   8.855
 7097POPC   GL221998  26.022  15.840   8.855
 7097POPC   C1A21999  26.040  16.001   8.555
 7097POPC   D2A22000  26.058  15.999   8.255
 7097POPC   C3A22001  26.026  16.005   7.955
 7097POPC   C4A22002  26.090  15.948   7.655
 7097POPC   C1B22003  26.089  15.682   8.555
 7097POPC   C2B22004  26.041  15.704   8.255
 7097POPC   C3B22005  26.091  15.731   7.955
 7097POPC   C4B22006  26.064  15.682   7.655
 7098POPC   NC322007  27.626  18.281   9.455
 7098POPC   PO422008  27.594  18.279   9.155
 7098POPC   GL122009  27.546  18.233   8.855
 7098POPC   GL222010  27.628  18.337   8.855
 7098POPC   C1A22011  27.636  18.311   8.555
 7098POPC   D2A22012  27.603  18.249   8.255
 7098POPC   C3A22013  27.595  18.252   7.955
 7098POPC   C4A22014  27.599  18.326   7.655
 7098POPC   C1B22015  27.769  18.458   8.555
 7098POPC   C2B22016  27.773  18.486   8.255
 7098POPC   C3B22017  27.753  18.454   7.955
 7098POPC   C4B22018  27.726  18.442   7.655
 7099POPC   NC322019  41.547  23.684   9.455
 7099POPC   PO422020  41.525  23.684   9.155
 7099POPC   GL122021  41.593  23.732   8.855
 7099POPC   GL222022  41.643  23.648   8.855
 7099POPC   C1A22023  41.566  23.721   8.555
 7099POPC   D2A22024  41.545  23.740   8.255
 7099POPC   C3A22025  41.557  23.684   7.955
 7099POPC   C4A22026  41.542  23.716   7.655
 7099POPC   C1B22027  41.735  23.533   8.555
 7099POPC   C2B22028  41.759  23.538   8.255
 7099POPC   C3B22029  41.730  23.548   7.955
 7099POPC   C4B22030  41.783  23.613   7.655
 7100POPC   NC322031  34.613  32.249   9.455
 7100POPC   PO422032  34.597  32.272   9.155
 7100POPC   GL122033  34.591  32.273   8.855
 7100POPC   GL222034  34.406  32.231   8.855
 7100POPC   C1A22035  34.571  32.211   8.555
 7100POPC   D2A22036  34.580  32.249   8.255
 7100POPC   C3A22037  34.544  32.285   7.955
 7100POPC   C4A22038  34.536  32.242   7.655
 7100POPC   C1B22039  34.350  32.251   8.555
 7100POPC   C2B22040  34.300  32.268   8.255
 7100POPC   C3B22041  34.315  32.243   7.955
 7100POPC   C4B22042  34.280  32.297   7.655
 7101POPC   NC322043  26.768  18.303   9.455
 7101POPC   PO422044  26.858  18.259   9.155
 7101POPC   GL122045  26.848  18.282   8.855
 7101POPC   GL222046  26.747  18.141   8.855
 7101POPC   C1A22047  26.866  18.320   8.555
 7101POPC   D2A22048  26.775  18.274   8.255
 7101POPC   C3A22049  26.845  18.233   7.955
 7101POPC   C4A22050  26.851  18.300   7.655
 7101POPC   C1B22051  26.695  18.051   8.555
 7101POPC   C2B22052  26.655  18.123   8.255
 7101POPC   C3B22053  26.636  18.056   7.955
 7101POPC   C4B22054  26.699  18.057   7.655
 7102POPC   NC322055  40.826  22.198   9.455
 7102POPC   PO422056  40.816  22.206   9.155
 7102POPC   GL122057  40.759  22.115   8.855
 7102POPC   GL222058  40.914  22.081   8.855
 7102POPC   C1A22059  40.775  22.206   8.555
 7102POPC   D2A22060  40.760  22.136   8.255
 7102POPC   C3A22061  40.804  22.154   7.955
 7102POPC   C4A22062  40.813  22.209   7.655
 7102POPC   C1B22063  41.017  22.038   8.555
 7102POPC   C2B22064  41.010  22.038   8.255
 7102POPC   C3B22065  40.984  21.960   7.955
 7102POPC   C4B22066  41.027  22.026   7.655
 7103POPC   NC322067   2.737  32.262   9.455
 7103POPC   PO422068   2.771  32.280   9.155
 7103POPC   GL122069   2.758  32.266   8.855
 7103POPC   GL222070   2.835  32.372   8.855
 7103POPC   C1A22071   2.735  32.249   8.555
 7103POPC   D2A22072   2.717  32.226   8.255
 7103POPC   C3A22073   2.741  32.250   7.955
 7103POPC   C4A22074   2.785  32.224   7.655
 7103POPC   C1B22075   2.880  32.461   8.555
 7103POPC   C2B22076   2.881  32.510   8.255
 7103POPC   C3B22077   2.846  32.467   7.955
 7103POPC   C4B22078   2.865  32.485   7.655
 7104POPC   NC322079  37.658  22.192   9.455
 7104POPC   PO422080  37.675  22.132   9.155
 7104POPC   GL122081  37.640  22.115   8.855
 7104POPC   GL222082  37.784  22.052   8.855
 7104POPC   C1A22083  37.636  22.150   8.555
 7104POPC   D2A22084  37.684  22.195   8.255
 7104POPC   C3A22085  37.676  22.179   7.955
 7104POPC   C4A22086  37.698  22.121   7.655
 7104POPC   C1B22087  37.803  21.940   8.555
 7104POPC   C2B22088  37.818  21.982   8.255
 7104POPC   C3B22089  37.777  22.002   7.955
 7104POPC   C4B22090  37.781  21.953   7.655
 7105POPC   NC322091  12.807   8.175   9.455
 7105POPC   PO422092  12.808   8.194   9.155
 7105POPC   GL122093  12.832   8.159   8.855
 7105POPC   GL222094  12.847   8.335   8.855
 7105POPC   C1A22095  12.854   8.199   8.555
 7105POPC   D2A22096  12.829   8.204   8.255
 7105POPC   C3A22097  12.868   8.195   7.955
 7105POPC   C4A22098  12.858   8.215   7.655
 7105POPC   C1B22099  12.831   8.443   8.555
 7105POPC   C2B22100  12.755   8.409   8.255
 7105POPC   C3B22101  12.773   8.486   7.955
 7105POPC   C4B22102  12.780   8.478   7.655
 7106POPC   NC322103  26.839  31.516   9.455
 7106POPC   PO422104  26.832  31.479   9.155
 7106POPC   GL122105  26.809  31.509   8.855
 7106POPC   GL222106  26.962  31.534   8.855
 7106POPC   C1A22107  26.823  31.522   8.555
 7106POPC   D2A22108  26.815  31.520   8.255
 7106POPC   C3A22109  26.792  31.441   7.955
 7106POPC   C4A22110  26.810  31.470   7.655
 7106POPC   C1B22111  27.006  31.624   8.555
 7106POPC   C2B22112  27.049  31.582   8.255
 7106POPC   C3B22113  27.052  31.609   7.955
 7106POPC   C4B22114  27.007  31.635   7.655
 7107POPC   NC322115  33.846  10.534   9.455
 7107POPC   PO422116  33.769  10.478   9.155
 7107POPC   GL122117  33.825  10.569   8.855
 7107POPC   GL222118  33.681  10.542   8.855
 7107POPC   C1A22119  33.769  10.543   8.555
 7107POPC   D2A22120  33.768  10.515   8.255
 7107POPC   C3A22121  33.803  10.487   7.955
 7107POPC   C4A22122  33.799  10.524   7.655
 7107POPC   C1B22123  33.534  10.562   8.555
 7107POPC   C2B22124  33.548  10.590   8.255
 7107POPC   C3B22125  33.574  10.598   7.955
 7107POPC   C4B22126  33.516  10.517   7.655
 7108POPC   NC322127  13.619   0.429   9.455
 7108POPC   PO422128  13.622   0.429   9.155
 7108POPC   GL122129  13.599   0.401   8.855
 7108POPC   GL222130  13.538   0.500   8.855
 7108POPC   C1A22131  13.624   0.448   8.555
 7108POPC   D2A22132  13.591   0.467   8.255
 7108POPC   C3A22133  13.646   0.453   7.955
 7108POPC   C4A22134  13.598   0.480   7.655
 7108POPC   C1B22135  13.374   0.563   8.555
 7108POPC   C2B22136  13.365   0.538   8.255
 7108POPC   C3B22137  13.443   0.491   7.955
 7108POPC   C4B22138  13.387   0.561   7.655
 7109POPC   NC322139  40.779  32.980   9.455
 7109POPC   PO422140  40.757  33.071   9.155
 7109POPC   GL122141  40.769  32.989   8.855
 7109POPC   GL222142  40.679  32.877   8.855
 7109POPC   C1A22143  40.802  33.004   8.555
 7109POPC   D2A22144  40.801  33.009   8.255
 7109POPC   C3A22145  40.772  33.004   7.955
 7109POPC   C4A22146  40.813  33.027   7.655
 7109POPC   C1B22147  40.655  32.842   8.555
 7109POPC   C2B22148  40.599  32.832   8.255
 7109POPC   C3B22149  40.682  32.846   7.955
 7109POPC   C4B22150  40.605  32.866   7.655
 7110POPC   NC322151  27.604  27.618   9.455
 7110POPC   PO422152  27.638  27.643   9.155
 7110POPC   GL122153  27.609  27.570   8.855
 7110POPC   GL222154  27.511  27.512   8.855
 7110POPC   C1A22155  27.570  27.594   8.555
 7110POPC   D2A22156  27.614  27.613   8.255
 7110POPC   C3A22157  27.568  27.586   7.955
 7110POPC   C4A22158  27.565  27.570   7.655
 7110POPC   C1B22159  27.413  27.450   8.555
 7110POPC   C2B22160  27.418  27.382   8.255
 7110POPC   C3B22161  27.458  27.467   7.955
 7110POPC   C4B22162  27.362  27.399   7.655
 7111POPC   NC322163  15.971  27.591   9.455
 7111POPC   PO422164  15.987  27.641   9.155
 7111POPC   GL122165  15.981  27.546   8.855
 7111POPC   GL222166  15.806  27.660   8.855
 7111POPC   C1A22167  15.975  27.565   8.555
 7111POPC   D2A22168  15.993  27.599   8.255
 7111POPC   C3A22169  15.941  27.636   7.955
 7111POPC   C4A22170  15.967  27.575   7.655
 7111POPC   C1B22171  15.709  27.638   8.555
 7111POPC   C2B22172  15.688  27.689   8.255
 7111POPC   C3B22173  15.718  27.642   7.955
 7111POPC   C4B22174  15.705  27.693   7.655
 7112POPC   NC322175  33.040   4.341   9.455
 7112POPC   PO422176  33.039   4.360   9.155
 7112POPC   GL122177  33.049   4.289   8.855
 7112POPC   GL222178  32.910   4.356   8.855
 7112POPC   C1A22179  32.979   4.314   8.555
 7112POPC   D2A22180  33.071   4.349   8.255
 7112POPC   C3A22181  33.051   4.336   7.955
 7112POPC   C4A22182  32.995   4.364   7.655
 7112POPC   C1B22183  32.799   4.446   8.555
 7112POPC   C2B22184  32.774   4.443   8.255
 7112POPC   C3B22185  32.817   4.504   7.955
 7112POPC   C4B22186  32.790   4.453   7.655
 7113POPC   NC322187  22.117  36.080   9.455
 7113POPC   PO422188  22.161  36.175   9.155
 7113POPC   GL122189  22.158  36.143   8.855
 7113POPC   GL222190  22.221  36.259   8.855
 7113POPC   C1A22191  22.177  36.084   8.555
 7113POPC   D2A22192  22.160  36.131   8.255
 7113POPC   C3A22193  22.209  36.117   7.955
 7113POPC   C4A22194  22.193  36.147   7.655
 7113POPC   C1B22195  22.272  36.329   8.555
 7113POPC   C2B22196  22.312  36.354   8.255
 7113POPC   C3B22197  22.285  36.305   7.955
 7113POPC   C4B22198  22.327  36.344   7.655
 7114POPC   NC322199  26.038  28.342   9.455
 7114POPC   PO422200  26.086  28.357   9.155
 7114POPC   GL122201  26.031  28.381   8.855
 7114POPC   GL222202  26.153  28.488   8.855
 7114POPC   C1A22203  26.052  28.324   8.555
 7114POPC   D2A22204  26.009  28.394   8.255
 7114POPC   C3A22205  26.042  28.411   7.955
 7114POPC   C4A22206  26.073  28.347   7.655
 7114POPC   C1B22207  26.150  28.568   8.555
 7114POPC   C2B22208  26.160  28.605   8.255
 7114POPC   C3B22209  26.190  28.592   7.955
 7114POPC   C4B22210  26.145  28.591   7.655
 7115POPC   NC322211  22.176  11.318   9.455
 7115POPC   PO422212  22.209  11.303   9.155
 7115POPC   GL122213  22.136  11.328   8.855
 7115POPC   GL222214  22.109  11.212   8.855
 7115POPC   C1A22215  22.135  11.254   8.555
 7115POPC   D2A22216  22.169  11.279   8.255
 7115POPC   C3A22217  22.159  11.257   7.955
 7115POPC   C4A22218  22.167  11.264   7.655
 7115POPC   C1B22219  22.053  11.074   8.555
 7115POPC   C2B22220  22.051  11.070   8.255
 7115POPC   C3B22221  22.062  11.097   7.955
 7115POPC   C4B22222  22.071  11.080   7.655
 7116POPC   NC322223  18.277  29.944   9.455
 7116POPC   PO422224  18.315  29.871   9.155
 7116POPC   GL122225  18.326  29.897   8.855
 7116POPC   GL222226  18.213  30.031   8.855
 7116POPC   C1A22227  18.301  29.903   8.555
 7116POPC   D2A22228  18.257  29.944   8.255
 7116POPC   C3A22229  18.269  29.946   7.955
 7116POPC   C4A22230  18.277  29.921   7.655
 7116POPC   C1B22231  18.105  30.096   8.555
 7116POPC   C2B22232  18.123  30.165   8.255
 7116POPC   C3B22233  18.173  30.153   7.955
 7116POPC   C4B22234  18.153  30.158   7.655
 7117POPC   NC322235  27.567  36.883   9.455
 7117POPC   PO422236  27.616  36.905   9.155
 7117POPC   GL122237  27.563  36.952   8.855
 7117POPC   GL222238  27.631  37.025   8.855
 7117POPC   C1A22239  27.612  36.912   8.555
 7117POPC   D2A22240  27.555  36.869   8.255
 7117POPC   C3A22241  27.619  36.910   7.955
 7117POPC   C4A22242  27.550  36.892   7.655
 7117POPC   C1B22243  27.564  37.181   8.555
 7117POPC   C2B22244  27.572  37.115   8.255
 7117POPC   C3B22245  27.608  37.181   7.955
 7117POPC   C4B22246  27.567  37.193   7.655
 7118POPC   NC322247  32.233  10.529   9.455
 7118POPC   PO422248  32.246  10.478   9.155
 7118POPC   GL122249  32.281  10.485   8.855
 7118POPC   GL222250  32.356  10.402   8.855
 7118POPC   C1A22251  32.223  10.493   8.555
 7118POPC   D2A22252  32.258  10.570   8.255
 7118POPC   C3A22253  32.231  10.573   7.955
 7118POPC   C4A22254  32.265  10.532   7.655
 7118POPC   C1B22255  32.417  10.312   8.555
 7118POPC   C2B22256  32.423  10.306   8.255
 7118POPC   C3B22257  32.392  10.281   7.955
 7118POPC   C4B22258  32.363  10.357   7.655
 7119POPC   NC322259  23.753  10.539   9.455
 7119POPC   PO422260  23.711  10.560   9.155
 7119POPC   GL122261  23.673  10.505   8.855
 7119POPC   GL222262  23.796  10.462   8.855
 7119POPC   C1A22263  23.750  10.569   8.555
 7119POPC   D2A22264  23.685  10.506   8.255
 7119POPC   C3A22265  23.685  10.538   7.955
 7119POPC   C4A22266  23.675  10.517   7.655
 7119POPC   C1B22267  23.845  10.324   8.555
 7119POPC   C2B22268  23.810  10.267   8.255
 7119POPC   C3B22269  23.833  10.359   7.955
 7119POPC   C4B22270  23.850  10.344   7.655
 7120POPC   NC322271  15.930  22.149   9.455
 7120POPC   PO422272  15.909  22.208   9.155
 7120POPC   GL122273  15.937  22.120   8.855
 7120POPC   GL222274  16.039  22.234   8.855
 7120POPC   C1A22275  15.943  22.175   8.555
 7120POPC   D2A22276  15.958  22.179   8.255
 7120POPC   C3A22277  15.937  22.177   7.955
 7120POPC   C4A22278  15.925  22.192   7.655
 7120POPC   C1B22279  16.094  22.387   8.555
 7120POPC   C2B22280  16.108  22.395   8.255
 7120POPC   C3B22281  16.062  22.322   7.955
 7120POPC   C4B22282  16.149  22.384   7.655
 7121POPC   NC322283  26.771  36.892   9.455
 7121POPC   PO422284  26.797  36.925   9.155
 7121POPC   GL122285  26.862  36.928   8.855
 7121POPC   GL222286  26.780  36.965   8.855
 7121POPC   C1A22287  26.768  36.857   8.555
 7121POPC   D2A22288  26.782  36.858   8.255
 7121POPC   C3A22289  26.816  36.889   7.955
 7121POPC   C4A22290  26.769  36.890   7.655
 7121POPC   C1B22291  26.662  37.126   8.555
 7121POPC   C2B22292  26.664  37.088   8.255
 7121POPC   C3B22293  26.667  37.086   7.955
 7121POPC   C4B22294  26.660  37.113   7.655
 7122POPC   NC322295   7.412  32.293   9.455
 7122POPC   PO422296   7.450  32.205   9.155
 7122POPC   GL122297   7.376  32.265   8.855
 7122POPC   GL222298   7.373  32.141   8.855
 7122POPC   C1A22299   7.457  32.219   8.555
 7122POPC   D2A22300   7.403  32.237   8.255
 7122POPC   C3A22301   7.470  32.236   7.955
 7122POPC   C4A22302   7.451  32.292   7.655
 7122POPC   C1B22303   7.241  32.094   8.555
 7122POPC   C2B22304   7.239  32.085   8.255
 7122POPC   C3B22305   7.313  32.017   7.955
 7122POPC   C4B22306   7.224  32.082   7.655
 7123POPC   NC322307  21.412  15.138   9.455
 7123POPC   PO422308  21.421  15.217   9.155
 7123POPC   GL122309  21.398  15.166   8.855
 7123POPC   GL222310  21.516  15.174   8.855
 7123POPC   C1A22311  21.401  15.190   8.555
 7123POPC   D2A22312  21.422  15.166   8.255
 7123POPC   C3A22313  21.417  15.167   7.955
 7123POPC   C4A22314  21.340  15.135   7.655
 7123POPC   C1B22315  21.666  15.252   8.555
 7123POPC   C2B22316  21.638  15.253   8.255
 7123POPC   C3B22317  21.674  15.176   7.955
 7123POPC   C4B22318  21.663  15.251   7.655
 7124POPC   NC322319  38.465  40.763   9.455
 7124POPC   PO422320  38.434  40.744   9.155
 7124POPC   GL122321  38.463  40.824   8.855
 7124POPC   GL222322  38.545  40.819   8.855
 7124POPC   C1A22323  38.482  40.773   8.555
 7124POPC   D2A22324  38.414  40.740   8.255
 7124POPC   C3A22325  38.424  40.785   7.955
 7124POPC   C4A22326  38.463  40.750   7.655
 7124POPC   C1B22327  38.627  40.884   8.555
 7124POPC   C2B22328  38.677  40.911   8.255
 7124POPC   C3B22329  38.610  40.890   7.955
 7124POPC   C4B22330  38.700  40.970   7.655
 7125POPC   NC322331  36.921   1.988   9.455
 7125POPC   PO422332  36.898   2.021   9.155
 7125POPC   GL122333  36.947   1.960   8.855
 7125POPC   GL222334  37.048   2.030   8.855
 7125POPC   C1A22335  36.881   1.944   8.555
 7125POPC   D2A22336  36.887   1.991   8.255
 7125POPC   C3A22337  36.949   1.946   7.955
 7125POPC   C4A22338  36.927   2.039   7.655
 7125POPC   C1B22339  37.115   1.971   8.555
 7125POPC   C2B22340  37.121   2.010   8.255
 7125POPC   C3B22341  37.176   2.050   7.955
 7125POPC   C4B22342  37.146   2.039   7.655
 7126POPC   NC322343  42.323  26.054   9.455
 7126POPC   PO422344  42.344  26.079   9.155
 7126POPC   GL122345  42.367  26.058   8.855
 7126POPC   GL222346  42.205  26.008   8.855
 7126POPC   C1A22347  42.295  26.013   8.555
 7126POPC   D2A22348  42.380  25.997   8.255
 7126POPC   C3A22349  42.315  26.051   7.955
 7126POPC   C4A22350  42.376  26.034   7.655
 7126POPC   C1B22351  42.082  25.943   8.555
 7126POPC   C2B22352  42.115  25.966   8.255
 7126POPC   C3B22353  42.116  26.000   7.955
 7126POPC   C4B22354  42.122  25.952   7.655
 7127POPC   NC322355  42.304  40.040   9.455
 7127POPC   PO422356  42.340  40.041   9.155
 7127POPC   GL122357  42.328  39.970   8.855
 7127POPC   GL222358  42.369  40.167   8.855
 7127POPC   C1A22359  42.309  40.028   8.555
 7127POPC   D2A22360  42.376  40.043   8.255
 7127POPC   C3A22361  42.373  40.057   7.955
 7127POPC   C4A22362  42.302  39.991   7.655
 7127POPC   C1B22363  42.398  40.245   8.555
 7127POPC   C2B22364  42.332  40.219   8.255
 7127POPC   C3B22365  42.383  40.239   7.955
 7127POPC   C4B22366  42.322  40.231   7.655
 7128POPC   NC322367  21.394  36.882   9.455
 7128POPC   PO422368  21.435  36.854   9.155
 7128POPC   GL122369  21.393  36.923   8.855
 7128POPC   GL222370  21.322  37.007   8.855
 7128POPC   C1A22371  21.404  36.855   8.555
 7128POPC   D2A22372  21.433  36.945   8.255
 7128POPC   C3A22373  21.415  36.862   7.955
 7128POPC   C4A22374  21.377  36.950   7.655
 7128POPC   C1B22375  21.286  37.173   8.555
 7128POPC   C2B22376  21.320  37.172   8.255
 7128POPC   C3B22377  21.284  37.189   7.955
 7128POPC   C4B22378  21.323  37.171   7.655
 7129POPC   NC322379  29.128   1.997   9.455
 7129POPC   PO422380  29.193   1.972   9.155
 7129POPC   GL122381  29.178   2.014   8.855
 7129POPC   GL222382  29.026   1.857   8.855
 7129POPC   C1A22383  29.145   1.962   8.555
 7129POPC   D2A22384  29.172   1.963   8.255
 7129POPC   C3A22385  29.112   1.945   7.955
 7129POPC   C4A22386  29.170   1.999   7.655
 7129POPC   C1B22387  29.028   1.813   8.555
 7129POPC   C2B22388  28.958   1.770   8.255
 7129POPC   C3B22389  28.978   1.815   7.955
 7129POPC   C4B22390  29.018   1.761   7.655
 7130POPC   NC322391  32.982   1.236   9.455
 7130POPC   PO422392  33.008   1.234   9.155
 7130POPC   GL122393  33.038   1.240   8.855
 7130POPC   GL222394  32.982   1.277   8.855
 7130POPC   C1A22395  33.055   1.189   8.555
 7130POPC   D2A22396  33.013   1.260   8.255
 7130POPC   C3A22397  32.997   1.179   7.955
 7130POPC   C4A22398  33.030   1.164   7.655
 7130POPC   C1B22399  32.889   1.438   8.555
 7130POPC   C2B22400  32.850   1.410   8.255
 7130POPC   C3B22401  32.841   1.410   7.955
 7130POPC   C4B22402  32.882   1.419   7.655
 7131POPC   NC322403  21.424   8.179   9.455
 7131POPC   PO422404  21.365   8.240   9.155
 7131POPC   GL122405  21.373   8.175   8.855
 7131POPC   GL222406  21.296   8.149   8.855
 7131POPC   C1A22407  21.415   8.151   8.555
 7131POPC   D2A22408  21.340   8.155   8.255
 7131POPC   C3A22409  21.385   8.182   7.955
 7131POPC   C4A22410  21.343   8.240   7.655
 7131POPC   C1B22411  21.171   8.048   8.555
 7131POPC   C2B22412  21.161   8.106   8.255
 7131POPC   C3B22413  21.205   8.059   7.955
 7131POPC   C4B22414  21.142   8.056   7.655
 7132POPC   NC322415  43.118  27.640   9.455
 7132POPC   PO422416  43.103  27.621   9.155
 7132POPC   GL122417  43.143  27.593   8.855
 7132POPC   GL222418  42.998  27.641   8.855
 7132POPC   C1A22419  43.117  27.583   8.555
 7132POPC   D2A22420  43.096  27.631   8.255
 7132POPC   C3A22421  43.076  27.579   7.955
 7132POPC   C4A22422  43.160  27.636   7.655
 7132POPC   C1B22423  42.921  27.758   8.555
 7132POPC   C2B22424  42.893  27.744   8.255
 7132POPC   C3B22425  42.862  27.732   7.955
 7132POPC   C4B22426  42.922  27.695   7.655
 7133POPC   NC322427   5.096  10.508   9.455
 7133POPC   PO422428   5.069  10.493   9.155
 7133POPC   GL122429   5.053  10.518   8.855
 7133POPC   GL222430   5.046  10.432   8.855
 7133POPC   C1A22431   5.046  10.549   8.555
 7133POPC   D2A22432   5.044  10.542   8.255
 7133POPC   C3A22433   5.077  10.544   7.955
 7133POPC   C4A22434   5.070  10.490   7.655
 7133POPC   C1B22435   4.962  10.282   8.555
 7133POPC   C2B22436   4.994  10.322   8.255
 7133POPC   C3B22437   4.935  10.298   7.955
 7133POPC   C4B22438   4.933  10.334   7.655
 7134POPC   NC322439  24.469  22.939   9.455
 7134POPC   PO422440  24.505  22.935   9.155
 7134POPC   GL122441  24.469  22.893   8.855
 7134POPC   GL222442  24.501  22.777   8.855
 7134POPC   C1A22443  24.440  22.950   8.555
 7134POPC   D2A22444  24.517  22.901   8.255
 7134POPC   C3A22445  24.451  22.902   7.955
 7134POPC   C4A22446  24.446  22.979   7.655
 7134POPC   C1B22447  24.485  22.695   8.555
 7134POPC   C2B22448  24.537  22.737   8.255
 7134POPC   C3B22449  24.538  22.737   7.955
 7134POPC   C4B22450  24.512  22.674   7.655
 7135POPC   NC322451  16.741  15.961   9.455
 7135POPC   PO422452  16.696  15.924   9.155
 7135POPC   GL122453  16.710  16.003   8.855
 7135POPC   GL222454  16.811  16.008   8.855
 7135POPC   C1A22455  16.748  15.909   8.555
 7135POPC   D2A22456  16.706  15.981   8.255
 7135POPC   C3A22457  16.770  15.989   7.955
 7135POPC   C4A22458  16.778  15.914   7.655
 7135POPC   C1B22459  16.959  16.134   8.555
 7135POPC   C2B22460  16.932  16.165   8.255
 7135POPC   C3B22461  16.898  16.178   7.955
 7135POPC   C4B22462  16.886  16.115   7.655
 7136POPC   NC322463  43.068  40.767   9.455
 7136POPC   PO422464  43.083  40.819   9.155
 7136POPC   GL122465  43.146  40.811   8.855
 7136POPC   GL222466  43.123  40.940   8.855
 7136POPC   C1A22467  43.109  40.771   8.555
 7136POPC   D2A22468  43.123  40.821   8.255
 7136POPC   C3A22469  43.120  40.747   7.955
 7136POPC   C4A22470  43.145  40.743   7.655
 7136POPC   C1B22471  42.999  40.978   8.555
 7136POPC   C2B22472  43.066  41.051   8.255
 7136POPC   C3B22473  42.998  41.068   7.955
 7136POPC   C4B22474  43.052  41.003   7.655
 7137POPC   NC322475  35.317  44.683   9.455
 7137POPC   PO422476  35.372  44.661   9.155
 7137POPC   GL122477  35.335  44.686   8.855
 7137POPC   GL222478  35.284  44.719   8.855
 7137POPC   C1A22479  35.390  44.655   8.555
 7137POPC   D2A22480  35.396  44.677   8.255
 7137POPC   C3A22481  35.302  44.654   7.955
 7137POPC   C4A22482  35.324  44.647   7.655
 7137POPC   C1B22483  35.167  44.782   8.555
 7137POPC   C2B22484  35.143  44.847   8.255
 7137POPC   C3B22485  35.195  44.792   7.955
 7137POPC   C4B22486  35.129  44.863   7.655
 7138POPC   NC322487   2.726   7.463   9.455
 7138POPC   PO422488   2.745   7.383   9.155
 7138POPC   GL122489   2.733   7.422   8.855
 7138POPC   GL222490   2.878   7.458   8.855
 7138POPC   C1A22491   2.784   7.448   8.555
 7138POPC   D2A22492   2.777   7.427   8.255
 7138POPC   C3A22493   2.760   7.452   7.955
 7138POPC   C4A22494   2.786   7.407   7.655
 7138POPC   C1B22495   2.997   7.383   8.555
 7138POPC   C2B22496   3.005   7.428   8.255
 7138POPC   C3B22497   2.996   7.429   7.955
 7138POPC   C4B22498   2.989   7.410   7.655
 7139POPC   NC322499  36.117  29.108   9.455
 7139POPC   PO422500  36.175  29.156   9.155
 7139POPC   GL122501  36.176  29.159   8.855
 7139POPC   GL222502  36.023  29.074   8.855
 7139POPC   C1A22503  36.094  29.168   8.555
 7139POPC   D2A22504  36.099  29.147   8.255
 7139POPC   C3A22505  36.166  29.138   7.955
 7139POPC   C4A22506  36.158  29.140   7.655
 7139POPC   C1B22507  36.012  28.977   8.555
 7139POPC   C2B22508  35.976  28.991   8.255
 7139POPC   C3B22509  35.942  28.934   7.955
 7139POPC   C4B22510  35.988  28.976   7.655
 7140POPC   NC322511  17.530  23.672   9.455
 7140POPC   PO422512  17.480  23.727   9.155
 7140POPC   GL122513  17.483  23.668   8.855
 7140POPC   GL222514  17.625  23.672   8.855
 7140POPC   C1A22515  17.519  23.679   8.555
 7140POPC   D2A22516  17.557  23.683   8.255
 7140POPC   C3A22517  17.529  23.693   7.955
 7140POPC   C4A22518  17.491  23.704   7.655
 7140POPC   C1B22519  17.709  23.526   8.555
 7140POPC   C2B22520  17.721  23.522   8.255
 7140POPC   C3B22521  17.737  23.519   7.955
 7140POPC   C4B22522  17.724  23.503   7.655
 7141POPC   NC322523  38.460  14.376   9.455
 7141POPC   PO422524  38.504  14.358   9.155
 7141POPC   GL122525  38.449  14.386   8.855
 7141POPC   GL222526  38.411  14.312   8.855
 7141POPC   C1A22527  38.504  14.426   8.555
 7141POPC   D2A22528  38.480  14.422   8.255
 7141POPC   C3A22529  38.439  14.393   7.955
 7141POPC   C4A22530  38.468  14.413   7.655
 7141POPC   C1B22531  38.297  14.235   8.555
 7141POPC   C2B22532  38.237  14.273   8.255
 7141POPC   C3B22533  38.245  14.231   7.955
 7141POPC   C4B22534  38.314  14.186   7.655
 7142POPC   NC322535  15.210  37.630   9.455
 7142POPC   PO422536  15.130  37.729   9.155
 7142POPC   GL122537  15.180  37.684   8.855
 7142POPC   GL222538  15.117  37.717   8.855
 7142POPC   C1A22539  15.200  37.679   8.555
 7142POPC   D2A22540  15.175  37.721   8.255
 7142POPC   C3A22541  15.173  37.714   7.955
 7142POPC   C4A22542  15.174  37.636   7.655
 7142POPC   C1B22543  14.982  37.820   8.555
 7142POPC   C2B22544  14.931  37.811   8.255
 7142POPC   C3B22545  15.016  37.773   7.955
 7142POPC   C4B22546  14.985  37.773   7.655
 7143POPC   NC322547   9.717   6.686   9.455
 7143POPC   PO422548   9.758   6.661   9.155
 7143POPC   GL122549   9.736   6.622   8.855
 7143POPC   GL222550   9.653   6.605   8.855
 7143POPC   C1A22551   9.772   6.626   8.555
 7143POPC   D2A22552   9.731   6.632   8.255
 7143POPC   C3A22553   9.749   6.599   7.955
 7143POPC   C4A22554   9.704   6.644   7.655
 7143POPC   C1B22555   9.496   6.614   8.555
 7143POPC   C2B22556   9.550   6.606   8.255
 7143POPC   C3B22557   9.466   6.656   7.955
 7143POPC   C4B22558   9.546   6.616   7.655
 7144POPC   NC322559  22.198  28.415   9.455
 7144POPC   PO422560  22.125  28.349   9.155
 7144POPC   GL122561  22.181  28.379   8.855
 7144POPC   GL222562  22.158  28.473   8.855
 7144POPC   C1A22563  22.160  28.419   8.555
 7144POPC   D2A22564  22.167  28.351   8.255
 7144POPC   C3A22565  22.170  28.400   7.955
 7144POPC   C4A22566  22.140  28.408   7.655
 7144POPC   C1B22567  22.082  28.649   8.555
 7144POPC   C2B22568  22.132  28.622   8.255
 7144POPC   C3B22569  22.137  28.591   7.955
 7144POPC   C4B22570  22.125  28.663   7.655
 7145POPC   NC322571   5.853  22.167   9.455
 7145POPC   PO422572   5.848  22.149   9.155
 7145POPC   GL122573   5.880  22.190   8.855
 7145POPC   GL222574   5.935  22.232   8.855
 7145POPC   C1A22575   5.880  22.173   8.555
 7145POPC   D2A22576   5.868  22.144   8.255
 7145POPC   C3A22577   5.848  22.138   7.955
 7145POPC   C4A22578   5.897  22.135   7.655
 7145POPC   C1B22579   6.014  22.409   8.555
 7145POPC   C2B22580   5.937  22.349   8.255
 7145POPC   C3B22581   5.975  22.425   7.955
 7145POPC   C4B22582   5.991  22.421   7.655
 7146POPC   NC322583  26.071   5.082   9.455
 7146POPC   PO422584  26.016   5.097   9.155
 7146POPC   GL122585  26.088   5.122   8.855
 7146POPC   GL222586  26.163   5.056   8.855
 7146POPC   C1A22587  26.007   5.076   8.555
 7146POPC   D2A22588  26.060   5.044   8.255
 7146POPC   C3A22589  26.018   5.125   7.955
 7146POPC   C4A22590  26.023   5.136   7.655
 7146POPC   C1B22591  26.206   4.956   8.555
 7146POPC   C2B22592  26.291   4.922   8.255
 7146POPC   C3B22593  26.263   4.976   7.955
 7146POPC   C4B22594  26.270   4.942   7.655
 7147POPC   NC322595  19.836  25.272   9.455
 7147POPC   PO422596  19.791  25.281   9.155
 7147POPC   GL122597  19.811  25.216   8.855
 7147POPC   GL222598  19.802  25.380   8.855
 7147POPC   C1A22599  19.808  25.222   8.555
 7147POPC   D2A22600  19.809  25.221   8.255
 7147POPC   C3A22601  19.812  25.241   7.955
 7147POPC   C4A22602  19.882  25.258   7.655
 7147POPC   C1B22603  19.756  25.459   8.555
 7147POPC   C2B22604  19.740  25.444   8.255
 7147POPC   C3B22605  19.677  25.465   7.955
 7147POPC   C4B22606  19.684  25.514   7.655
 7148POPC   NC322607   5.075  22.157   9.455
 7148POPC   PO422608   5.128  22.131   9.155
 7148POPC   GL122609   5.077  22.179   8.855
 7148POPC   GL222610   5.189  22.167   8.855
 7148POPC   C1A22611   5.071  22.185   8.555
 7148POPC   D2A22612   5.082  22.169   8.255
 7148POPC   C3A22613   5.090  22.124   7.955
 7148POPC   C4A22614   5.125  22.175   7.655
 7148POPC   C1B22615   5.348  22.071   8.555
 7148POPC   C2B22616   5.292  22.104   8.255
 7148POPC   C3B22617   5.309  22.128   7.955
 7148POPC   C4B22618   5.293  22.132   7.655
 7149POPC   NC322619  15.199   6.601   9.455
 7149POPC   PO422620  15.150   6.599   9.155
 7149POPC   GL122621  15.153   6.660   8.855
 7149POPC   GL222622  15.034   6.620   8.855
 7149POPC   C1A22623  15.192   6.663   8.555
 7149POPC   D2A22624  15.177   6.601   8.255
 7149POPC   C3A22625  15.213   6.650   7.955
 7149POPC   C4A22626  15.188   6.601   7.655
 7149POPC   C1B22627  14.918   6.605   8.555
 7149POPC   C2B22628  14.966   6.614   8.255
 7149POPC   C3B22629  14.890   6.599   7.955
 7149POPC   C4B22630  14.918   6.636   7.655
 7150POPC   NC322631  22.929   4.337   9.455
 7150POPC   PO422632  22.940   4.327   9.155
 7150POPC   GL122633  22.955   4.312   8.855
 7150POPC   GL222634  23.044   4.258   8.855
 7150POPC   C1A22635  22.897   4.361   8.555
 7150POPC   D2A22636  22.979   4.314   8.255
 7150POPC   C3A22637  22.974   4.269   7.955
 7150POPC   C4A22638  22.976   4.306   7.655
 7150POPC   C1B22639  23.108   4.214   8.555
 7150POPC   C2B22640  23.141   4.172   8.255
 7150POPC   C3B22641  23.137   4.224   7.955
 7150POPC   C4B22642  23.173   4.223   7.655
 7151POPC   NC322643  25.293  32.246   9.455
 7151POPC   PO422644  25.226  32.290   9.155
 7151POPC   GL122645  25.294  32.255   8.855
 7151POPC   GL222646  25.144  32.293   8.855
 7151POPC   C1A22647  25.244  32.239   8.555
 7151POPC   D2A22648  25.232  32.281   8.255
 7151POPC   C3A22649  25.247  32.225   7.955
 7151POPC   C4A22650  25.280  32.298   7.655
 7151POPC   C1B22651  25.014  32.321   8.555
 7151POPC   C2B22652  25.009  32.312   8.255
 7151POPC   C3B22653  24.978  32.357   7.955
 7151POPC   C4B22654  25.022  32.272   7.655
 7152POPC   NC322655  19.812  19.824   9.455
 7152POPC   PO422656  19.829  19.840   9.155
 7152POPC   GL122657  19.834  19.850   8.855
 7152POPC   GL222658  19.787  19.751   8.855
 7152POPC   C1A22659  19.845  19.868   8.555
 7152POPC   D2A22660  19.804  19.805   8.255
 7152POPC   C3A22661  19.843  19.819   7.955
 7152POPC   C4A22662  19.786  19.843   7.655
 7152POPC   C1B22663  19.634  19.696   8.555
 7152POPC   C2B22664  19.626  19.623   8.255
 7152POPC   C3B22665  19.643  19.677   7.955
 7152POPC   C4B22666  19.676  19.623   7.655
 7153POPC   NC322667  43.074   4.338   9.455
 7153POPC   PO422668  43.069   4.336   9.155
 7153POPC   GL122669  43.117   4.337   8.855
 7153POPC   GL222670  43.136   4.183   8.855
 7153POPC   C1A22671  43.100   4.354   8.555
 7153POPC   D2A22672  43.093   4.336   8.255
 7153POPC   C3A22673  43.110   4.310   7.955
 7153POPC   C4A22674  43.119   4.282   7.655
 7153POPC   C1B22675  43.153   4.076   8.555
 7153POPC   C2B22676  43.183   4.024   8.255
 7153POPC   C3B22677  43.201   4.048   7.955
 7153POPC   C4B22678  43.171   4.110   7.655
 7154POPC   NC322679  28.399  21.430   9.455
 7154POPC   PO422680  28.377  21.416   9.155
 7154POPC   GL122681  28.406  21.396   8.855
 7154POPC   GL222682  28.374  21.508   8.855
 7154POPC   C1A22683  28.369  21.367   8.555
 7154POPC   D2A22684  28.384  21.410   8.255
 7154POPC   C3A22685  28.352  21.377   7.955
 7154POPC   C4A22686  28.350  21.395   7.655
 7154POPC   C1B22687  28.410  21.588   8.555
 7154POPC   C2B22688  28.390  21.668   8.255
 7154POPC   C3B22689  28.437  21.669   7.955
 7154POPC   C4B22690  28.381  21.625   7.655
 7155POPC   NC322691   8.980  27.632   9.455
 7155POPC   PO422692   9.022  27.597   9.155
 7155POPC   GL122693   8.978  27.604   8.855
 7155POPC   GL222694   8.873  27.546   8.855
 7155POPC   C1A22695   8.958  27.604   8.555
 7155POPC   D2A22696   8.946  27.613   8.255
 7155POPC   C3A22697   8.932  27.577   7.955
 7155POPC   C4A22698   9.002  27.586   7.655
 7155POPC   C1B22699   8.678  27.611   8.555
 7155POPC   C2B22700   8.755  27.565   8.255
 7155POPC   C3B22701   8.755  27.606   7.955
 7155POPC   C4B22702   8.700  27.625   7.655
 7156POPC   NC322703  15.909  43.129   9.455
 7156POPC   PO422704  15.944  43.062   9.155
 7156POPC   GL122705  15.949  43.160   8.855
 7156POPC   GL222706  15.985  43.254   8.855
 7156POPC   C1A22707  15.944  43.094   8.555
 7156POPC   D2A22708  15.959  43.086   8.255
 7156POPC   C3A22709  15.948  43.101   7.955
 7156POPC   C4A22710  15.935  43.142   7.655
 7156POPC   C1B22711  16.118  43.350   8.555
 7156POPC   C2B22712  16.082  43.300   8.255
 7156POPC   C3B22713  16.040  43.350   7.955
 7156POPC   C4B22714  16.075  43.365   7.655
 7157POPC   NC322715  20.589  19.815   9.455
 7157POPC   PO422716  20.560  19.841   9.155
 7157POPC   GL122717  20.569  19.850   8.855
 7157POPC   GL222718  20.532  19.796   8.855
 7157POPC   C1A22719  20.624  19.872   8.555
 7157POPC   D2A22720  20.616  19.796   8.255
 7157POPC   C3A22721  20.646  19.848   7.955
 7157POPC   C4A22722  20.589  19.803   7.655
 7157POPC   C1B22723  20.415  19.669   8.555
 7157POPC   C2B22724  20.429  19.726   8.255
 7157POPC   C3B22725  20.429  19.735   7.955
 7157POPC   C4B22726  20.376  19.735   7.655
 7158POPC   NC322727  41.576  43.136   9.455
 7158POPC   PO422728  41.562  43.117   9.155
 7158POPC   GL122729  41.608  43.097   8.855
 7158POPC   GL222730  41.523  42.982   8.855
 7158POPC   C1A22731  41.580  43.125   8.555
 7158POPC   D2A22732  41.573  43.142   8.255
 7158POPC   C3A22733  41.584  43.146   7.955
 7158POPC   C4A22734  41.532  43.100   7.655
 7158POPC   C1B22735  41.437  42.908   8.555
 7158POPC   C2B22736  41.459  42.939   8.255
 7158POPC   C3B22737  41.475  42.851   7.955
 7158POPC   C4B22738  41.396  42.921   7.655
 7159POPC   NC322739  26.817  17.553   9.455
 7159POPC   PO422740  26.807  17.487   9.155
 7159POPC   GL122741  26.785  17.489   8.855
 7159POPC   GL222742  26.737  17.603   8.855
 7159POPC   C1A22743  26.866  17.481   8.555
 7159POPC   D2A22744  26.828  17.550   8.255
 7159POPC   C3A22745  26.794  17.493   7.955
 7159POPC   C4A22746  26.803  17.526   7.655
 7159POPC   C1B22747  26.649  17.644   8.555
 7159POPC   C2B22748  26.662  17.651   8.255
 7159POPC   C3B22749  26.652  17.694   7.955
 7159POPC   C4B22750  26.601  17.662   7.655
 7160POPC   NC322751   7.430  26.049   9.455
 7160POPC   PO422752   7.410  26.085   9.155
 7160POPC   GL122753   7.421  26.082   8.855
 7160POPC   GL222754   7.431  26.158   8.855
 7160POPC   C1A22755   7.470  26.069   8.555
 7160POPC   D2A22756   7.466  26.043   8.255
 7160POPC   C3A22757   7.427  26.065   7.955
 7160POPC   C4A22758   7.404  26.025   7.655
 7160POPC   C1B22759   7.490  26.289   8.555
 7160POPC   C2B22760   7.429  26.284   8.255
 7160POPC   C3B22761   7.451  26.326   7.955
 7160POPC   C4B22762   7.413  26.296   7.655
 7161POPC   NC322763  22.966  36.916   9.455
 7161POPC   PO422764  22.963  36.914   9.155
 7161POPC   GL122765  22.948  36.917   8.855
 7161POPC   GL222766  22.828  36.849   8.855
 7161POPC   C1A22767  22.967  36.922   8.555
 7161POPC   D2A22768  22.986  36.896   8.255
 7161POPC   C3A22769  22.936  36.927   7.955
 7161POPC   C4A22770  22.936  36.891   7.655
 7161POPC   C1B22771  22.709  36.766   8.555
 7161POPC   C2B22772  22.662  36.850   8.255
 7161POPC   C3B22773  22.747  36.833   7.955
 7161POPC   C4B22774  22.710  36.864   7.655
 7162POPC   NC322775  22.965  18.297   9.455
 7162POPC   PO422776  22.970  18.265   9.155
 7162POPC   GL122777  22.980  18.247   8.855
 7162POPC   GL222778  22.810  18.240   8.855
 7162POPC   C1A22779  22.985  18.245   8.555
 7162POPC   D2A22780  22.967  18.250   8.255
 7162POPC   C3A22781  22.912  18.330   7.955
 7162POPC   C4A22782  22.925  18.274   7.655
 7162POPC   C1B22783  22.704  18.214   8.555
 7162POPC   C2B22784  22.713  18.289   8.255
 7162POPC   C3B22785  22.732  18.222   7.955
 7162POPC   C4B22786  22.675  18.287   7.655
 7163POPC   NC322787  44.626  36.142   9.455
 7163POPC   PO422788  44.633  36.126   9.155
 7163POPC   GL122789  44.680  36.173   8.855
 7163POPC   GL222790  44.537  35.995   8.855
 7163POPC   C1A22791  44.689  36.139   8.555
 7163POPC   D2A22792  44.646  36.131   8.255
 7163POPC   C3A22793  44.668  36.109   7.955
 7163POPC   C4A22794  44.693  36.150   7.655
 7163POPC   C1B22795  44.499  35.971   8.555
 7163POPC   C2B22796  44.450  35.963   8.255
 7163POPC   C3B22797  44.510  35.909   7.955
 7163POPC   C4B22798  44.489  35.940   7.655
 7164POPC   NC322799  42.341  36.924   9.455
 7164POPC   PO422800  42.343  36.888   9.155
 7164POPC   GL122801  42.315  36.929   8.855
 7164POPC   GL222802  42.404  37.060   8.855
 7164POPC   C1A22803  42.308  36.864   8.555
 7164POPC   D2A22804  42.360  36.862   8.255
 7164POPC   C3A22805  42.287  36.883   7.955
 7164POPC   C4A22806  42.318  36.897   7.655
 7164POPC   C1B22807  42.463  37.094   8.555
 7164POPC   C2B22808  42.442  37.172   8.255
 7164POPC   C3B22809  42.396  37.096   7.955
 7164POPC   C4B22810  42.456  37.090   7.655
 7165POPC   NC322811  40.038  14.413   9.455
 7165POPC   PO422812  39.958  14.366   9.155
 7165POPC   GL122813  40.012  14.374   8.855
 7165POPC   GL222814  39.930  14.316   8.855
 7165POPC   C1A22815  40.013  14.451   8.555
 7165POPC   D2A22816  39.999  14.438   8.255
 7165POPC   C3A22817  40.055  14.417   7.955
 7165POPC   C4A22818  39.966  14.424   7.655
 7165POPC   C1B22819  39.936  14.195   8.555
 7165POPC   C2B22820  39.923  14.147   8.255
 7165POPC   C3B22821  39.960  14.204   7.955
 7165POPC   C4B22822  39.987  14.187   7.655
 7166POPC   NC322823  37.676   1.255   9.455
 7166POPC   PO422824  37.670   1.210   9.155
 7166POPC   GL122825  37.722   1.190   8.855
 7166POPC   GL222826  37.757   1.196   8.855
 7166POPC   C1A22827  37.706   1.205   8.555
 7166POPC   D2A22828  37.674   1.228   8.255
 7166POPC   C3A22829  37.639   1.247   7.955
 7166POPC   C4A22830  37.680   1.259   7.655
 7166POPC   C1B22831  37.967   1.235   8.555
 7166POPC   C2B22832  37.957   1.236   8.255
 7166POPC   C3B22833  37.969   1.204   7.955
 7166POPC   C4B22834  37.951   1.251   7.655
 7167POPC   NC322835  18.233   5.098   9.455
 7167POPC   PO422836  18.296   5.125   9.155
 7167POPC   GL122837  18.286   5.111   8.855
 7167POPC   GL222838  18.205   4.957   8.855
 7167POPC   C1A22839  18.272   5.052   8.555
 7167POPC   D2A22840  18.304   5.060   8.255
 7167POPC   C3A22841  18.258   5.099   7.955
 7167POPC   C4A22842  18.311   5.072   7.655
 7167POPC   C1B22843  18.124   4.897   8.555
 7167POPC   C2B22844  18.140   4.819   8.255
 7167POPC   C3B22845  18.200   4.904   7.955
 7167POPC   C4B22846  18.150   4.862   7.655
 7168POPC   NC322847   6.667  37.689   9.455
 7168POPC   PO422848   6.602  37.727   9.155
 7168POPC   GL122849   6.655  37.679   8.855
 7168POPC   GL222850   6.629  37.755   8.855
 7168POPC   C1A22851   6.647  37.724   8.555
 7168POPC   D2A22852   6.609  37.674   8.255
 7168POPC   C3A22853   6.597  37.681   7.955
 7168POPC   C4A22854   6.631  37.630   7.655
 7168POPC   C1B22855   6.679  37.885   8.555
 7168POPC   C2B22856   6.640  37.943   8.255
 7168POPC   C3B22857   6.700  37.908   7.955
 7168POPC   C4B22858   6.636  37.941   7.655
 7169POPC   NC322859  37.668  43.119   9.455
 7169POPC   PO422860  37.669  43.126   9.155
 7169POPC   GL122861  37.639  43.094   8.855
 7169POPC   GL222862  37.723  42.976   8.855
 7169POPC   C1A22863  37.695  43.065   8.555
 7169POPC   D2A22864  37.709  43.133   8.255
 7169POPC   C3A22865  37.680  43.083   7.955
 7169POPC   C4A22866  37.644  43.160   7.655
 7169POPC   C1B22867  37.762  42.857   8.555
 7169POPC   C2B22868  37.773  42.917   8.255
 7169POPC   C3B22869  37.769  42.874   7.955
 7169POPC   C4B22870  37.837  42.888   7.655
 7170POPC   NC322871  37.647   2.022   9.455
 7170POPC   PO422872  37.643   1.947   9.155
 7170POPC   GL122873  37.700   2.012   8.855
 7170POPC   GL222874  37.806   1.988   8.855
 7170POPC   C1A22875  37.674   2.023   8.555
 7170POPC   D2A22876  37.648   1.999   8.255
 7170POPC   C3A22877  37.702   1.991   7.955
 7170POPC   C4A22878  37.665   2.038   7.655
 7170POPC   C1B22879  37.905   2.001   8.555
 7170POPC   C2B22880  37.933   2.082   8.255
 7170POPC   C3B22881  37.967   2.053   7.955
 7170POPC   C4B22882  37.955   2.042   7.655
 7171POPC   NC322883  24.483  35.317   9.455
 7171POPC   PO422884  24.462  35.333   9.155
 7171POPC   GL122885  24.448  35.340   8.855
 7171POPC   GL222886  24.432  35.303   8.855
 7171POPC   C1A22887  24.539  35.323   8.555
 7171POPC   D2A22888  24.492  35.397   8.255
 7171POPC   C3A22889  24.474  35.353   7.955
 7171POPC   C4A22890  24.450  35.384   7.655
 7171POPC   C1B22891  24.278  35.155   8.555
 7171POPC   C2B22892  24.289  35.139   8.255
 7171POPC   C3B22893  24.330  35.187   7.955
 7171POPC   C4B22894  24.327  35.167   7.655
 7172POPC   NC322895   2.766  39.274   9.455
 7172POPC   PO422896   2.777  39.206   9.155
 7172POPC   GL122897   2.720  39.251   8.855
 7172POPC   GL222898   2.823  39.381   8.855
 7172POPC   C1A22899   2.810  39.198   8.555
 7172POPC   D2A22900   2.756  39.245   8.255
 7172POPC   C3A22901   2.809  39.266   7.955
 7172POPC   C4A22902   2.781  39.260   7.655
 7172POPC   C1B22903   2.822  39.521   8.555
 7172POPC   C2B22904   2.767  39.471   8.255
 7172POPC   C3B22905   2.842  39.501   7.955
 7172POPC   C4B22906   2.832  39.505   7.655
 7173POPC   NC322907  43.913  31.502   9.455
 7173POPC   PO422908  43.921  31.483   9.155
 7173POPC   GL122909  43.839  31.490   8.855
 7173POPC   GL222910  43.872  31.333   8.855
 7173POPC   C1A22911  43.895  31.520   8.555
 7173POPC   D2A22912  43.865  31.497   8.255
 7173POPC   C3A22913  43.909  31.454   7.955
 7173POPC   C4A22914  43.933  31.476   7.655
 7173POPC   C1B22915  43.930  31.181   8.555
 7173POPC   C2B22916  43.946  31.253   8.255
 7173POPC   C3B22917  43.914  31.182   7.955
 7173POPC   C4B22918  43.874  31.180   7.655
 7174POPC   NC322919  19.052   0.460   9.455
 7174POPC   PO422920  19.093   0.389   9.155
 7174POPC   GL122921  19.013   0.397   8.855
 7174POPC   GL222922  19.003   0.557   8.855
 7174POPC   C1A22923  19.074   0.436   8.555
 7174POPC   D2A22924  19.022   0.474   8.255
 7174POPC   C3A22925  19.099   0.424   7.955
 7174POPC   C4A22926  19.067   0.393   7.655
 7174POPC   C1B22927  18.932   0.646   8.555
 7174POPC   C2B22928  18.961   0.696   8.255
 7174POPC   C3B22929  18.947   0.692   7.955
 7174POPC   C4B22930  19.009   0.677   7.655
 7175POPC   NC322931  37.640  41.563   9.455
 7175POPC   PO422932  37.678  41.591   9.155
 7175POPC   GL122933  37.704  41.513   8.855
 7175POPC   GL222934  37.788  41.509   8.855
 7175POPC   C1A22935  37.681  41.602   8.555
 7175POPC   D2A22936  37.674  41.596   8.255
 7175POPC   C3A22937  37.722  41.559   7.955
 7175POPC   C4A22938  37.657  41.602   7.655
 7175POPC   C1B22939  37.832  41.357   8.555
 7175POPC   C2B22940  37.914  41.444   8.255
 7175POPC   C3B22941  37.864  41.399   7.955
 7175POPC   C4B22942  37.913  41.397   7.655
 7176POPC   NC322943  13.590   6.617   9.455
 7176POPC   PO422944  13.646   6.650   9.155
 7176POPC   GL122945  13.586   6.629   8.855
 7176POPC   GL222946  13.680   6.575   8.855
 7176POPC   C1A22947  13.670   6.601   8.555
 7176POPC   D2A22948  13.605   6.601   8.255
 7176POPC   C3A22949  13.582   6.663   7.955
 7176POPC   C4A22950  13.634   6.680   7.655
 7176POPC   C1B22951  13.687   6.398   8.555
 7176POPC   C2B22952  13.727   6.432   8.255
 7176POPC   C3B22953  13.779   6.437   7.955
 7176POPC   C4B22954  13.762   6.432   7.655
 7177POPC   NC322955  44.675  13.596   9.455
 7177POPC   PO422956  44.702  13.591   9.155
 7177POPC   GL122957  44.661  13.634   8.855
 7177POPC   GL222958  44.746  13.776   8.855
 7177POPC   C1A22959  44.675  13.650   8.555
 7177POPC   D2A22960  44.653  13.658   8.255
 7177POPC   C3A22961  44.614  13.601   7.955
 7177POPC   C4A22962  44.642  13.600   7.655
 7177POPC   C1B22963  44.734  13.909   8.555
 7177POPC   C2B22964  44.714  13.912   8.255
 7177POPC   C3B22965  44.731  13.841   7.955
 7177POPC   C4B22966  44.769  13.915   7.655
 7178POPC   NC322967  16.689  33.836   9.455
 7178POPC   PO422968  16.708  33.785   9.155
 7178POPC   GL122969  16.773  33.798   8.855
 7178POPC   GL222970  16.701  33.955   8.855
 7178POPC   C1A22971  16.706  33.849   8.555
 7178POPC   D2A22972  16.699  33.808   8.255
 7178POPC   C3A22973  16.770  33.784   7.955
 7178POPC   C4A22974  16.710  33.796   7.655
 7178POPC   C1B22975  16.647  34.028   8.555
 7178POPC   C2B22976  16.638  34.019   8.255
 7178POPC   C3B22977  16.640  33.996   7.955
 7178POPC   C4B22978  16.641  34.033   7.655
 7179POPC   NC322979   6.604   7.445   9.455
 7179POPC   PO422980   6.664   7.427   9.155
 7179POPC   GL122981   6.652   7.449   8.855
 7179POPC   GL222982   6.645   7.513   8.855
 7179POPC   C1A22983   6.623   7.372   8.555
 7179POPC   D2A22984   6.677   7.401   8.255
 7179POPC   C3A22985   6.631   7.457   7.955
 7179POPC   C4A22986   6.605   7.386   7.655
 7179POPC   C1B22987   6.534   7.611   8.555
 7179POPC   C2B22988   6.565   7.706   8.255
 7179POPC   C3B22989   6.522   7.687   7.955
 7179POPC   C4B22990   6.519   7.655   7.655
 7180POPC   NC322991  16.716   4.363   9.455
 7180POPC   PO422992  16.732   4.283   9.155
 7180POPC   GL122993  16.754   4.319   8.855
 7180POPC   GL222994  16.628   4.409   8.855
 7180POPC   C1A22995  16.730   4.322   8.555
 7180POPC   D2A22996  16.775   4.353   8.255
 7180POPC   C3A22997  16.723   4.294   7.955
 7180POPC   C4A22998  16.700   4.296   7.655
 7180POPC   C1B22999  16.542   4.520   8.555
 7180POPC   C2B23000  16.529   4.502   8.255
 7180POPC   C3B23001  16.505   4.485   7.955
 7180POPC   C4B23002  16.593   4.447   7.655
 7181POPC   NC323003   6.681  40.006   9.455
 7181POPC   PO423004   6.694  40.051   9.155
 7181POPC   GL123005   6.672  39.992   8.855
 7181POPC   GL223006   6.635  39.854   8.855
 7181POPC   C1A23007   6.658  40.023   8.555
 7181POPC   D2A23008   6.654  39.989   8.255
 7181POPC   C3A23009   6.656  40.008   7.955
 7181POPC   C4A23010   6.640  40.010   7.655
 7181POPC   C1B23011   6.573  39.813   8.555
 7181POPC   C2B23012   6.505  39.748   8.255
 7181POPC   C3B23013   6.519  39.798   7.955
 7181POPC   C4B23014   6.582  39.810   7.655
 7182POPC   NC323015   1.238  36.881   9.455
 7182POPC   PO423016   1.253  36.942   9.155
 7182POPC   GL123017   1.168  36.940   8.855
 7182POPC   GL223018   1.273  36.825   8.855
 7182POPC   C1A23019   1.237  36.895   8.555
 7182POPC   D2A23020   1.221  36.942   8.255
 7182POPC   C3A23021   1.198  36.882   7.955
 7182POPC   C4A23022   1.243  36.914   7.655
 7182POPC   C1B23023   1.449  36.715   8.555
 7182POPC   C2B23024   1.441  36.769   8.255
 7182POPC   C3B23025   1.378  36.751   7.955
 7182POPC   C4B23026   1.363  36.769   7.655
 7183POPC   NC323027   2.787  33.844   9.455
 7183POPC   PO423028   2.743  33.838   9.155
 7183POPC   GL123029   2.743  33.767   8.855
 7183POPC   GL223030   2.676  33.902   8.855
 7183POPC   C1A23031   2.776  33.808   8.555
 7183POPC   D2A23032   2.764  33.752   8.255
 7183POPC   C3A23033   2.792  33.815   7.955
 7183POPC   C4A23034   2.723  33.767   7.655
 7183POPC   C1B23035   2.631  34.015   8.555
 7183POPC   C2B23036   2.630  33.987   8.255
 7183POPC   C3B23037   2.643  34.056   7.955
 7183POPC   C4B23038   2.717  33.988   7.655
 7184POPC   NC323039   0.450  11.265   9.455
 7184POPC   PO423040   0.468  11.296   9.155
 7184POPC   GL123041   0.464  11.308   8.855
 7184POPC   GL223042   0.376  11.169   8.855
 7184POPC   C1A23043   0.424  11.332   8.555
 7184POPC   D2A23044   0.425  11.265   8.255
 7184POPC   C3A23045   0.417  11.295   7.955
 7184POPC   C4A23046   0.475  11.332   7.655
 7184POPC   C1B23047   0.320  11.042   8.555
 7184POPC   C2B23048   0.328  11.100   8.255
 7184POPC   C3B23049   0.354  11.100   7.955
 7184POPC   C4B23050   0.313  11.111   7.655
 7185POPC   NC323051   7.454  36.119   9.455
 7185POPC   PO423052   7.388  36.090   9.155
 7185POPC   GL123053   7.382  36.136   8.855
 7185POPC   GL223054   7.344  36.253   8.855
 7185POPC   C1A23055   7.413  36.161   8.555
 7185POPC   D2A23056   7.373  36.174   8.255
 7185POPC   C3A23057   7.445  36.132   7.955
 7185POPC   C4A23058   7.380  36.177   7.655
 7185POPC   C1B23059   7.234  36.291   8.555
 7185POPC   C2B23060   7.265  36.350   8.255
 7185POPC   C3B23061   7.315  36.300   7.955
 7185POPC   C4B23062   7.248  36.327   7.655
 7186POPC   NC323063  33.052  23.700   9.455
 7186POPC   PO423064  32.997  23.750   9.155
 7186POPC   GL123065  32.996  23.691   8.855
 7186POPC   GL223066  33.026  23.805   8.855
 7186POPC   C1A23067  33.023  23.744   8.555
 7186POPC   D2A23068  33.014  23.712   8.255
 7186POPC   C3A23069  33.041  23.724   7.955
 7186POPC   C4A23070  33.043  23.690   7.655
 7186POPC   C1B23071  32.985  23.969   8.555
 7186POPC   C2B23072  32.987  23.959   8.255
 7186POPC   C3B23073  33.042  23.928   7.955
 7186POPC   C4B23074  32.994  23.987   7.655
 7187POPC   NC323075   5.873   3.582   9.455
 7187POPC   PO423076   5.855   3.542   9.155
 7187POPC   GL123077   5.902   3.541   8.855
 7187POPC   GL223078   6.005   3.568   8.855
 7187POPC   C1A23079   5.914   3.520   8.555
 7187POPC   D2A23080   5.848   3.568   8.255
 7187POPC   C3A23081   5.908   3.569   7.955
 7187POPC   C4A23082   5.878   3.562   7.655
 7187POPC   C1B23083   6.036   3.641   8.555
 7187POPC   C2B23084   6.059   3.692   8.255
 7187POPC   C3B23085   6.057   3.646   7.955
 7187POPC   C4B23086   6.115   3.692   7.655
 7188POPC   NC323087  23.720   5.855   9.455
 7188POPC   PO423088  23.681   5.880   9.155
 7188POPC   GL123089  23.714   5.917   8.855
 7188POPC   GL223090  23.644   5.770   8.855
 7188POPC   C1A23091  23.674   5.875   8.555
 7188POPC   D2A23092  23.727   5.822   8.255
 7188POPC   C3A23093  23.695   5.916   7.955
 7188POPC   C4A23094  23.748   5.845   7.655
 7188POPC   C1B23095  23.691   5.585   8.555
 7188POPC   C2B23096  23.655   5.652   8.255
 7188POPC   C3B23097  23.611   5.631   7.955
 7188POPC   C4B23098  23.638   5.666   7.655
 7189POPC   NC323099   8.948   3.502   9.455
 7189POPC   PO423100   8.975   3.530   9.155
 7189POPC   GL123101   8.950   3.574   8.855
 7189POPC   GL223102   9.038   3.468   8.855
 7189POPC   C1A23103   8.944   3.531   8.555
 7189POPC   D2A23104   8.966   3.574   8.255
 7189POPC   C3A23105   8.965   3.511   7.955
 7189POPC   C4A23106   8.949   3.590   7.655
 7189POPC   C1B23107   9.010   3.338   8.555
 7189POPC   C2B23108   8.985   3.321   8.255
 7189POPC   C3B23109   9.047   3.254   7.955
 7189POPC   C4B23110   8.999   3.317   7.655
 7190POPC   NC323111  14.402  37.651   9.455
 7190POPC   PO423112  14.416  37.725   9.155
 7190POPC   GL123113  14.443  37.696   8.855
 7190POPC   GL223114  14.491  37.703   8.855
 7190POPC   C1A23115  14.392  37.721   8.555
 7190POPC   D2A23116  14.396  37.630   8.255
 7190POPC   C3A23117  14.413  37.691   7.955
 7190POPC   C4A23118  14.423  37.683   7.655
 7190POPC   C1B23119  14.699  37.640   8.555
 7190POPC   C2B23120  14.694  37.688   8.255
 7190POPC   C3B23121  14.696  37.703   7.955
 7190POPC   C4B23122  14.652  37.684   7.655
 7191POPC   NC323123  38.483  43.908   9.455
 7191POPC   PO423124  38.487  43.911   9.155
 7191POPC   GL123125  38.478  43.896   8.855
 7191POPC   GL223126  38.570  43.915   8.855
 7191POPC   C1A23127  38.416  43.911   8.555
 7191POPC   D2A23128  38.408  43.896   8.255
 7191POPC   C3A23129  38.474  43.869   7.955
 7191POPC   C4A23130  38.448  43.896   7.655
 7191POPC   C1B23131  38.695  44.026   8.555
 7191POPC   C2B23132  38.646  44.060   8.255
 7191POPC   C3B23133  38.668  44.031   7.955
 7191POPC   C4B23134  38.661  44.073   7.655
 7192POPC   NC323135  15.161  43.098   9.455
 7192POPC   PO423136  15.177  43.145   9.155
 7192POPC   GL123137  15.181  43.141   8.855
 7192POPC   GL223138  15.018  43.175   8.855
 7192POPC   C1A23139  15.187  43.151   8.555
 7192POPC   D2A23140  15.164  43.104   8.255
 7192POPC   C3A23141  15.195  43.095   7.955
 7192POPC   C4A23142  15.201  43.124   7.655
 7192POPC   C1B23143  14.974  43.192   8.555
 7192POPC   C2B23144  14.954  43.193   8.255
 7192POPC   C3B23145  14.981  43.179   7.955
 7192POPC   C4B23146  14.920  43.197   7.655
 7193POPC   NC323147  35.355  12.882   9.455
 7193POPC   PO423148  35.312  12.812   9.155
 7193POPC   GL123149  35.325  12.861   8.855
 7193POPC   GL223150  35.236  12.895   8.855
 7193POPC   C1A23151  35.368  12.851   8.555
 7193POPC   D2A23152  35.371  12.877   8.255
 7193POPC   C3A23153  35.365  12.834   7.955
 7193POPC   C4A23154  35.302  12.825   7.655
 7193POPC   C1B23155  35.131  12.927   8.555
 7193POPC   C2B23156  35.161  12.950   8.255
 7193POPC   C3B23157  35.113  12.952   7.955
 7193POPC   C4B23158  35.088  12.972   7.655
 7194POPC   NC323159   1.967  16.705   9.455
 7194POPC   PO423160   1.970  16.766   9.155
 7194POPC   GL123161   2.033  16.778   8.855
 7194POPC   GL223162   2.002  16.825   8.855
 7194POPC   C1A23163   1.956  16.727   8.555
 7194POPC   D2A23164   1.996  16.754   8.255
 7194POPC   C3A23165   1.973  16.696   7.955
 7194POPC   C4A23166   1.941  16.704   7.655
 7194POPC   C1B23167   1.959  17.018   8.555
 7194POPC   C2B23168   1.951  16.976   8.255
 7194POPC   C3B23169   1.961  17.006   7.955
 7194POPC   C4B23170   1.964  16.967   7.655
 7195POPC   NC323171  29.949   5.824   9.455
 7195POPC   PO423172  29.921   5.904   9.155
 7195POPC   GL123173  29.966   5.896   8.855
 7195POPC   GL223174  29.787   5.761   8.855
 7195POPC   C1A23175  29.916   5.869   8.555
 7195POPC   D2A23176  29.910   5.887   8.255
 7195POPC   C3A23177  29.930   5.889   7.955
 7195POPC   C4A23178  29.950   5.849   7.655
 7195POPC   C1B23179  29.704   5.669   8.555
 7195POPC   C2B23180  29.704   5.697   8.255
 7195POPC   C3B23181  29.691   5.727   7.955
 7195POPC   C4B23182  29.776   5.742   7.655
 7196POPC   NC323183  11.281  35.390   9.455
 7196POPC   PO423184  11.298  35.317   9.155
 7196POPC   GL123185  11.276  35.326   8.855
 7196POPC   GL223186  11.383  35.514   8.855
 7196POPC   C1A23187  11.326  35.357   8.555
 7196POPC   D2A23188  11.320  35.371   8.255
 7196POPC   C3A23189  11.330  35.381   7.955
 7196POPC   C4A23190  11.258  35.388   7.655
 7196POPC   C1B23191  11.431  35.599   8.555
 7196POPC   C2B23192  11.395  35.568   8.255
 7196POPC   C3B23193  11.372  35.629   7.955
 7196POPC   C4B23194  11.421  35.578   7.655
 7197POPC   NC323195  24.529  39.975   9.455
 7197POPC   PO423196  24.468  40.012   9.155
 7197POPC   GL123197  24.488  40.002   8.855
 7197POPC   GL223198  24.461  40.173   8.855
 7197POPC   C1A23199  24.454  40.026   8.555
 7197POPC   D2A23200  24.507  39.989   8.255
 7197POPC   C3A23201  24.508  39.965   7.955
 7197POPC   C4A23202  24.456  39.967   7.655
 7197POPC   C1B23203  24.521  40.209   8.555
 7197POPC   C2B23204  24.529  40.229   8.255
 7197POPC   C3B23205  24.533  40.232   7.955
 7197POPC   C4B23206  24.506  40.241   7.655
 7198POPC   NC323207  39.193  36.877   9.455
 7198POPC   PO423208  39.206  36.934   9.155
 7198POPC   GL123209  39.258  36.864   8.855
 7198POPC   GL223210  39.267  36.764   8.855
 7198POPC   C1A23211  39.206  36.929   8.555
 7198POPC   D2A23212  39.260  36.889   8.255
 7198POPC   C3A23213  39.260  36.899   7.955
 7198POPC   C4A23214  39.259  36.889   7.655
 7198POPC   C1B23215  39.266  36.632   8.555
 7198POPC   C2B23216  39.289  36.642   8.255
 7198POPC   C3B23217  39.315  36.638   7.955
 7198POPC   C4B23218  39.291  36.690   7.655
 7199POPC   NC323219   5.061  27.577   9.455
 7199POPC   PO423220   5.059  27.602   9.155
 7199POPC   GL123221   5.104  27.551   8.855
 7199POPC   GL223222   4.989  27.643   8.855
 7199POPC   C1A23223   5.118  27.584   8.555
 7199POPC   D2A23224   5.103  27.576   8.255
 7199POPC   C3A23225   5.051  27.554   7.955
 7199POPC   C4A23226   5.098  27.590   7.655
 7199POPC   C1B23227   4.812  27.665   8.555
 7199POPC   C2B23228   4.837  27.662   8.255
 7199POPC   C3B23229   4.891  27.675   7.955
 7199POPC   C4B23230   4.904  27.673   7.655
 7200POPC   NC323231  16.752  19.070   9.455
 7200POPC   PO423232  16.692  19.105   9.155
 7200POPC   GL123233  16.702  19.071   8.855
 7200POPC   GL223234  16.793  19.005   8.855
 7200POPC   C1A23235  16.703  19.015   8.555
 7200POPC   D2A23236  16.779  19.104   8.255
 7200POPC   C3A23237  16.735  19.052   7.955
 7200POPC   C4A23238  16.698  19.095   7.655
 7200POPC   C1B23239  16.933  18.933   8.555
 7200POPC   C2B23240  16.893  18.943   8.255
 7200POPC   C3B23241  16.895  18.915   7.955
 7200POPC   C4B23242  16.964  18.919   7.655
 7201POPC   NC323243  28.329  32.978   9.455
 7201POPC   PO423244  28.344  32.984   9.155
 7201POPC   GL123245  28.369  33.030   8.855
 7201POPC   GL223246  28.348  33.097   8.855
 7201POPC   C1A23247  28.417  32.974   8.555
 7201POPC   D2A23248  28.341  33.032   8.255
 7201POPC   C3A23249  28.384  33.005   7.955
 7201POPC   C4A23250  28.418  32.996   7.655
 7201POPC   C1B23251  28.284  33.243   8.555
 7201POPC   C2B23252  28.308  33.299   8.255
 7201POPC   C3B23253  28.285  33.294   7.955
 7201POPC   C4B23254  28.301  33.245   7.655
 7202POPC   NC323255  36.914  15.931   9.455
 7202POPC   PO423256  36.895  15.991   9.155
 7202POPC   GL123257  36.904  15.980   8.855
 7202POPC   GL223258  37.066  15.924   8.855
 7202POPC   C1A23259  36.937  15.920   8.555
 7202POPC   D2A23260  36.856  15.947   8.255
 7202POPC   C3A23261  36.891  15.988   7.955
 7202POPC   C4A23262  36.867  15.916   7.655
 7202POPC   C1B23263  37.148  15.853   8.555
 7202POPC   C2B23264  37.159  15.871   8.255
 7202POPC   C3B23265  37.192  15.927   7.955
 7202POPC   C4B23266  37.102  15.915   7.655
 7203POPC   NC323267   5.097  12.027   9.455
 7203POPC   PO423268   5.140  12.125   9.155
 7203POPC   GL123269   5.114  12.121   8.855
 7203POPC   GL223270   5.001  12.196   8.855
 7203POPC   C1A23271   5.105  12.047   8.555
 7203POPC   D2A23272   5.071  12.057   8.255
 7203POPC   C3A23273   5.130  12.088   7.955
 7203POPC   C4A23274   5.109  12.101   7.655
 7203POPC   C1B23275   4.969  12.290   8.555
 7203POPC   C2B23276   4.969  12.257   8.255
 7203POPC   C3B23277   4.892  12.239   7.955
 7203POPC   C4B23278   4.933  12.240   7.655
 7204POPC   NC323279   0.487  32.252   9.455
 7204POPC   PO423280   0.483  32.250   9.155
 7204POPC   GL123281   0.396  32.266   8.855
 7204POPC   GL223282   0.292  32.225   8.855
 7204POPC   C1A23283   0.460  32.241   8.555
 7204POPC   D2A23284   0.461  32.293   8.255
 7204POPC   C3A23285   0.396  32.279   7.955
 7204POPC   C4A23286   0.444  32.231   7.655
 7204POPC   C1B23287   0.210  32.191   8.555
 7204POPC   C2B23288   0.174  32.213   8.255
 7204POPC   C3B23289   0.220  32.177   7.955
 7204POPC   C4B23290   0.163  32.218   7.655
 7205POPC   NC323291  22.966  41.560   9.455
 7205POPC   PO423292  22.979  41.565   9.155
 7205POPC   GL123293  22.931  41.579   8.855
 7205POPC   GL223294  23.037  41.624   8.855
 7205POPC   C1A23295  22.934  41.554   8.555
 7205POPC   D2A23296  22.941  41.579   8.255
 7205POPC   C3A23297  22.930  41.534   7.955
 7205POPC   C4A23298  22.954  41.580   7.655
 7205POPC   C1B23299  23.107  41.825   8.555
 7205POPC   C2B23300  23.100  41.819   8.255
 7205POPC   C3B23301  23.015  41.785   7.955
 7205POPC   C4B23302  23.030  41.754   7.655
 7206POPC   NC323303  11.266   8.184   9.455
 7206POPC   PO423304  11.310   8.152   9.155
 7206POPC   GL123305  11.297   8.227   8.855
 7206POPC   GL223306  11.162   8.240   8.855
 7206POPC   C1A23307  11.333   8.178   8.555
 7206POPC   D2A23308  11.277   8.200   8.255
 7206POPC   C3A23309  11.334   8.163   7.955
 7206POPC   C4A23310  11.329   8.183   7.655
 7206POPC   C1B23311  11.084   8.210   8.555
 7206POPC   C2B23312  11.093   8.195   8.255
 7206POPC   C3B23313  11.030   8.219   7.955
 7206POPC   C4B23314  11.005   8.262   7.655
 7207POPC   NC323315   9.747  18.279   9.455
 7207POPC   PO423316   9.778  18.270   9.155
 7207POPC   GL123317   9.738  18.269   8.855
 7207POPC   GL223318   9.664  18.315   8.855
 7207POPC   C1A23319   9.714  18.319   8.555
 7207POPC   D2A23320   9.796  18.284   8.255
 7207POPC   C3A23321   9.781  18.312   7.955
 7207POPC   C4A23322   9.777  18.329   7.655
 7207POPC   C1B23323   9.563  18.484   8.555
 7207POPC   C2B23324   9.584  18.434   8.255
 7207POPC   C3B23325   9.596  18.393   7.955
 7207POPC   C4B23326   9.553  18.454   7.655
 7208POPC   NC323327   5.885  36.906   9.455
 7208POPC   PO423328   5.843  36.946   9.155
 7208POPC   GL123329   5.897  36.859   8.855
 7208POPC   GL223330   5.810  36.789   8.855
 7208POPC   C1A23331   5.836  36.943   8.555
 7208POPC   D2A23332   5.862  36.880   8.255
 7208POPC   C3A23333   5.913  36.886   7.955
 7208POPC   C4A23334   5.889  36.860   7.655
 7208POPC   C1B23335   5.671  36.753   8.555
 7208POPC   C2B23336   5.702  36.788   8.255
 7208POPC   C3B23337   5.650  36.779   7.955
 7208POPC   C4B23338   5.675  36.739   7.655
 7209POPC   NC323339  12.056  25.287   9.455
 7209POPC   PO423340  12.028  25.295   9.155
 7209POPC   GL123341  12.076  25.296   8.855
 7209POPC   GL223342  11.921  25.269   8.855
 7209POPC   C1A23343  12.102  25.297   8.555
 7209POPC   D2A23344  12.055  25.257   8.255
 7209POPC   C3A23345  12.049  25.291   7.955
 7209POPC   C4A23346  12.121  25.242   7.655
 7209POPC   C1B23347  11.787  25.173   8.555
 7209POPC   C2B23348  11.852  25.192   8.255
 7209POPC   C3B23349  11.817  25.190   7.955
 7209POPC   C4B23350  11.874  25.207   7.655
 7210POPC   NC323351  23.745  15.209   9.455
 7210POPC   PO423352  23.746  15.171   9.155
 7210POPC   GL123353  23.677  15.192   8.855
 7210POPC   GL223354  23.764  15.021   8.855
 7210POPC   C1A23355  23.726  15.183   8.555
 7210POPC   D2A23356  23.717  15.188   8.255
 7210POPC   C3A23357  23.724  15.189   7.955
 7210POPC   C4A23358  23.734  15.186   7.655
 7210POPC   C1B23359  23.767  14.942   8.555
 7210POPC   C2B23360  23.787  14.888   8.255
 7210POPC   C3B23361  23.694  14.957   7.955
 7210POPC   C4B23362  23.757  14.969   7.655
 7211POPC   NC323363   5.111  40.817   9.455
 7211POPC   PO423364   5.064  40.752   9.155
 7211POPC   GL123365   5.047  40.779   8.855
 7211POPC   GL223366   5.158  40.722   8.855
 7211POPC   C1A23367   5.092  40.748   8.555
 7211POPC   D2A23368   5.050  40.740   8.255
 7211POPC   C3A23369   5.128  40.813   7.955
 7211POPC   C4A23370   5.064  40.765   7.655
 7211POPC   C1B23371   5.257  40.656   8.555
 7211POPC   C2B23372   5.296  40.593   8.255
 7211POPC   C3B23373   5.297  40.643   7.955
 7211POPC   C4B23374   5.266  40.580   7.655
 7212POPC   NC323375  17.468  10.520   9.455
 7212POPC   PO423376  17.513  10.569   9.155
 7212POPC   GL123377  17.476  10.548   8.855
 7212POPC   GL223378  17.624  10.592   8.855
 7212POPC   C1A23379  17.517  10.514   8.555
 7212POPC   D2A23380  17.487  10.505   8.255
 7212POPC   C3A23381  17.491  10.491   7.955
 7212POPC   C4A23382  17.543  10.517   7.655
 7212POPC   C1B23383  17.687  10.761   8.555
 7212POPC   C2B23384  17.679  10.714   8.255
 7212POPC   C3B23385  17.665  10.758   7.955
 7212POPC   C4B23386  17.691  10.753   7.655
 7213POPC   NC323387  36.136  33.829   9.455
 7213POPC   PO423388  36.175  33.839   9.155
 7213POPC   GL123389  36.177  33.784   8.855
 7213POPC   GL223390  36.175  33.883   8.855
 7213POPC   C1A23391  36.096  33.796   8.555
 7213POPC   D2A23392  36.104  33.792   8.255
 7213POPC   C3A23393  36.118  33.770   7.955
 7213POPC   C4A23394  36.126  33.761   7.655
 7213POPC   C1B23395  36.329  33.953   8.555
 7213POPC   C2B23396  36.249  33.999   8.255
 7213POPC   C3B23397  36.261  33.955   7.955
 7213POPC   C4B23398  36.272  34.022   7.655
 7214POPC   NC323399   8.158  44.709   9.455
 7214POPC   PO423400   8.232  44.614   9.155
 7214POPC   GL123401   8.240  44.661   8.855
 7214POPC   GL223402   8.146  44.498   8.855
 7214POPC   C1A23403   8.226  44.619   8.555
 7214POPC   D2A23404   8.219  44.637   8.255
 7214POPC   C3A23405   8.234  44.627   7.955
 7214POPC   C4A23406   8.214  44.662   7.655
 7214POPC   C1B23407   8.132  44.369   8.555
 7214POPC   C2B23408   8.200  44.424   8.255
 7214POPC   C3B23409   8.183  44.422   7.955
 7214POPC   C4B23410   8.137  44.453   7.655
 7215POPC   NC323411  43.874  35.373   9.455
 7215POPC   PO423412  43.876  35.321   9.155
 7215POPC   GL123413  43.909  35.331   8.855
 7215POPC   GL223414  43.815  35.310   8.855
 7215POPC   C1A23415  43.864  35.315   8.555
 7215POPC   D2A23416  43.860  35.354   8.255
 7215POPC   C3A23417  43.864  35.313   7.955
 7215POPC   C4A23418  43.900  35.306   7.655
 7215POPC   C1B23419  43.708  35.166   8.555
 7215POPC   C2B23420  43.680  35.225   8.255
 7215POPC   C3B23421  43.715  35.154   7.955
 7215POPC   C4B23422  43.679  35.170   7.655
 7216POPC   NC323423  43.883  38.499   9.455
 7216POPC   PO423424  43.853  38.420   9.155
 7216POPC   GL123425  43.917  38.454   8.855
 7216POPC   GL223426  44.000  38.458   8.855
 7216POPC   C1A23427  43.926  38.500   8.555
 7216POPC   D2A23428  43.845  38.457   8.255
 7216POPC   C3A23429  43.889  38.468   7.955
 7216POPC   C4A23430  43.871  38.490   7.655
 7216POPC   C1B23431  44.147  38.418   8.555
 7216POPC   C2B23432  44.125  38.406   8.255
 7216POPC   C3B23433  44.181  38.473   7.955
 7216POPC   C4B23434  44.097  38.399   7.655
 7217POPC   NC323435  15.979  29.187   9.455
 7217POPC   PO423436  15.943  29.158   9.155
 7217POPC   GL123437  15.918  29.165   8.855
 7217POPC   GL223438  15.801  29.185   8.855
 7217POPC   C1A23439  15.984  29.180   8.555
 7217POPC   D2A23440  15.925  29.166   8.255
 7217POPC   C3A23441  15.992  29.133   7.955
 7217POPC   C4A23442  15.938  29.118   7.655
 7217POPC   C1B23443  15.701  29.246   8.555
 7217POPC   C2B23444  15.723  29.228   8.255
 7217POPC   C3B23445  15.766  29.224   7.955
 7217POPC   C4B23446  15.698  29.309   7.655
 7218POPC   NC323447  36.930  43.123   9.455
 7218POPC   PO423448  36.939  43.153   9.155
 7218POPC   GL123449  36.882  43.117   8.855
 7218POPC   GL223450  36.803  43.161   8.855
 7218POPC   C1A23451  36.858  43.153   8.555
 7218POPC   D2A23452  36.861  43.127   8.255
 7218POPC   C3A23453  36.902  43.074   7.955
 7218POPC   C4A23454  36.930  43.140   7.655
 7218POPC   C1B23455  36.714  43.228   8.555
 7218POPC   C2B23456  36.682  43.250   8.255
 7218POPC   C3B23457  36.705  43.215   7.955
 7218POPC   C4B23458  36.652  43.186   7.655
 7219POPC   NC323459  36.079   2.748   9.455
 7219POPC   PO423460  36.084   2.792   9.155
 7219POPC   GL123461  36.167   2.803   8.855
 7219POPC   GL223462  36.131   2.662   8.855
 7219POPC   C1A23463  36.104   2.720   8.555
 7219POPC   D2A23464  36.153   2.737   8.255
 7219POPC   C3A23465  36.096   2.748   7.955
 7219POPC   C4A23466  36.144   2.729   7.655
 7219POPC   C1B23467  36.075   2.572   8.555
 7219POPC   C2B23468  36.060   2.532   8.255
 7219POPC   C3B23469  36.019   2.544   7.955
 7219POPC   C4B23470  36.015   2.517   7.655
 7220POPC   NC323471  22.163  33.779   9.455
 7220POPC   PO423472  22.151  33.779   9.155
 7220POPC   GL123473  22.188  33.752   8.855
 7220POPC   GL223474  22.090  33.636   8.855
 7220POPC   C1A23475  22.134  33.796   8.555
 7220POPC   D2A23476  22.178  33.768   8.255
 7220POPC   C3A23477  22.128  33.807   7.955
 7220POPC   C4A23478  22.169  33.786   7.655
 7220POPC   C1B23479  22.038  33.614   8.555
 7220POPC   C2B23480  22.076  33.575   8.255
 7220POPC   C3B23481  22.103  33.567   7.955
 7220POPC   C4B23482  22.121  33.565   7.655
 7221POPC   NC323483  33.849   0.395   9.455
 7221POPC   PO423484  33.762   0.487   9.155
 7221POPC   GL123485  33.769   0.483   8.855
 7221POPC   GL223486  33.949   0.469   8.855
 7221POPC   C1A23487  33.762   0.478   8.555
 7221POPC   D2A23488  33.809   0.424   8.255
 7221POPC   C3A23489  33.794   0.463   7.955
 7221POPC   C4A23490  33.758   0.454   7.655
 7221POPC   C1B23491  34.001   0.543   8.555
 7221POPC   C2B23492  33.992   0.534   8.255
 7221POPC   C3B23493  34.014   0.561   7.955
 7221POPC   C4B23494  34.047   0.560   7.655
 7222POPC   NC323495  13.629  14.408   9.455
 7222POPC   PO423496  13.676  14.364   9.155
 7222POPC   GL123497  13.599  14.431   8.855
 7222POPC   GL223498  13.641  14.570   8.855
 7222POPC   C1A23499  13.594  14.393   8.555
 7222POPC   D2A23500  13.650  14.370   8.255
 7222POPC   C3A23501  13.588  14.413   7.955
 7222POPC   C4A23502  13.638  14.382   7.655
 7222POPC   C1B23503  13.716  14.656   8.555
 7222POPC   C2B23504  13.714  14.678   8.255
 7222POPC   C3B23505  13.707  14.599   7.955
 7222POPC   C4B23506  13.670  14.686   7.655
 7223POPC   NC323507  23.749  25.274   9.455
 7223POPC   PO423508  23.745  25.286   9.155
 7223POPC   GL123509  23.733  25.223   8.855
 7223POPC   GL223510  23.713  25.169   8.855
 7223POPC   C1A23511  23.734  25.250   8.555
 7223POPC   D2A23512  23.733  25.231   8.255
 7223POPC   C3A23513  23.687  25.228   7.955
 7223POPC   C4A23514  23.671  25.313   7.655
 7223POPC   C1B23515  23.718  25.031   8.555
 7223POPC   C2B23516  23.746  25.059   8.255
 7223POPC   C3B23517  23.742  25.051   7.955
 7223POPC   C4B23518  23.697  25.056   7.655
 7224POPC   NC323519  16.712  32.224   9.455
 7224POPC   PO423520  16.749  32.235   9.155
 7224POPC   GL123521  16.714  32.278   8.855
 7224POPC   GL223522  16.754  32.402   8.855
 7224POPC   C1A23523  16.687  32.225   8.555
 7224POPC   D2A23524  16.730  32.227   8.255
 7224POPC   C3A23525  16.740  32.224   7.955
 7224POPC   C4A23526  16.746  32.224   7.655
 7224POPC   C1B23527  16.836  32.523   8.555
 7224POPC   C2B23528  16.854  32.498   8.255
 7224POPC   C3B23529  16.801  32.472   7.955
 7224POPC   C4B23530  16.834  32.500   7.655
 7225POPC   NC323531  16.768  41.604   9.455
 7225POPC   PO423532  16.753  41.544   9.155
 7225POPC   GL123533  16.731  41.540   8.855
 7225POPC   GL223534  16.775  41.701   8.855
 7225POPC   C1A23535  16.714  41.604   8.555
 7225POPC   D2A23536  16.767  41.546   8.255
 7225POPC   C3A23537  16.760  41.548   7.955
 7225POPC   C4A23538  16.761  41.540   7.655
 7225POPC   C1B23539  16.828  41.782   8.555
 7225POPC   C2B23540  16.820  41.770   8.255
 7225POPC   C3B23541  16.807  41.765   7.955
 7225POPC   C4B23542  16.792  41.840   7.655
 7226POPC   NC323543  24.517  37.648   9.455
 7226POPC   PO423544  24.456  37.649   9.155
 7226POPC   GL123545  24.539  37.633   8.855
 7226POPC   GL223546  24.506  37.515   8.855
 7226POPC   C1A23547  24.529  37.698   8.555
 7226POPC   D2A23548  24.494  37.654   8.255
 7226POPC   C3A23549  24.471  37.686   7.955
 7226POPC   C4A23550  24.538  37.674   7.655
 7226POPC   C1B23551  24.525  37.463   8.555
 7226POPC   C2B23552  24.523  37.389   8.255
 7226POPC   C3B23553  24.537  37.445   7.955
 7226POPC   C4B23554  24.489  37.419   7.655
 7227POPC   NC323555  31.515  44.628   9.455
 7227POPC   PO423556  31.503  44.635   9.155
 7227POPC   GL123557  31.458  44.702   8.855
 7227POPC   GL223558  31.581  44.752   8.855
 7227POPC   C1A23559  31.505  44.654   8.555
 7227POPC   D2A23560  31.469  44.622   8.255
 7227POPC   C3A23561  31.479  44.647   7.955
 7227POPC   C4A23562  31.449  44.636   7.655
 7227POPC   C1B23563  31.667  44.853   8.555
 7227POPC   C2B23564  31.643  44.850   8.255
 7227POPC   C3B23565  31.610  44.794   7.955
 7227POPC   C4B23566  31.668  44.814   7.655
 7228POPC   NC323567   5.043   9.700   9.455
 7228POPC   PO423568   5.063   9.776   9.155
 7228POPC   GL123569   5.080   9.741   8.855
 7228POPC   GL223570   5.177   9.755   8.855
 7228POPC   C1A23571   5.128   9.753   8.555
 7228POPC   D2A23572   5.052   9.778   8.255
 7228POPC   C3A23573   5.125   9.699   7.955
 7228POPC   C4A23574   5.119   9.713   7.655
 7228POPC   C1B23575   5.309   9.746   8.555
 7228POPC   C2B23576   5.367   9.718   8.255
 7228POPC   C3B23577   5.303   9.676   7.955
 7228POPC   C4B23578   5.338   9.702   7.655
 7229POPC   NC323579  35.362  13.626   9.455
 7229POPC   PO423580  35.321  13.648   9.155
 7229POPC   GL123581  35.309  13.581   8.855
 7229POPC   GL223582  35.462  13.648   8.855
 7229POPC   C1A23583  35.339  13.627   8.555
 7229POPC   D2A23584  35.376  13.611   8.255
 7229POPC   C3A23585  35.316  13.671   7.955
 7229POPC   C4A23586  35.383  13.665   7.655
 7229POPC   C1B23587  35.632  13.581   8.555
 7229POPC   C2B23588  35.604  13.534   8.255
 7229POPC   C3B23589  35.556  13.566   7.955
 7229POPC   C4B23590  35.591  13.586   7.655
 7230POPC   NC323591  17.549   4.315   9.455
 7230POPC   PO423592  17.544   4.298   9.155
 7230POPC   GL123593  17.469   4.297   8.855
 7230POPC   GL223594  17.471   4.474   8.855
 7230POPC   C1A23595  17.457   4.281   8.555
 7230POPC   D2A23596  17.527   4.323   8.255
 7230POPC   C3A23597  17.532   4.313   7.955
 7230POPC   C4A23598  17.461   4.362   7.655
 7230POPC   C1B23599  17.519   4.611   8.555
 7230POPC   C2B23600  17.542   4.533   8.255
 7230POPC   C3B23601  17.516   4.539   7.955
 7230POPC   C4B23602  17.472   4.545   7.655
 7231POPC   NC323603  20.632  30.736   9.455
 7231POPC   PO423604  20.614  30.732   9.155
 7231POPC   GL123605  20.601  30.678   8.855
 7231POPC   GL223606  20.571  30.780   8.855
 7231POPC   C1A23607  20.637  30.683   8.555
 7231POPC   D2A23608  20.567  30.661   8.255
 7231POPC   C3A23609  20.651  30.712   7.955
 7231POPC   C4A23610  20.612  30.657   7.655
 7231POPC   C1B23611  20.563  30.914   8.555
 7231POPC   C2B23612  20.642  30.929   8.255
 7231POPC   C3B23613  20.595  30.964   7.955
 7231POPC   C4B23614  20.585  30.930   7.655
 7232POPC   NC323615  25.286  14.442   9.455
 7232POPC   PO423616  25.306  14.359   9.155
 7232POPC   GL123617  25.250  14.372   8.855
 7232POPC   GL223618  25.227  14.479   8.855
 7232POPC   C1A23619  25.299  14.394   8.555
 7232POPC   D2A23620  25.256  14.387   8.255
 7232POPC   C3A23621  25.260  14.434   7.955
 7232POPC   C4A23622  25.231  14.435   7.655
 7232POPC   C1B23623  25.149  14.643   8.555
 7232POPC   C2B23624  25.188  14.671   8.255
 7232POPC   C3B23625  25.146  14.643   7.955
 7232POPC   C4B23626  25.201  14.625   7.655
 7233POPC   NC323627  40.019  15.205   9.455
 7233POPC   PO423628  39.991  15.219   9.155
 7233POPC   GL123629  39.996  15.167   8.855
 7233POPC   GL223630  39.971  15.262   8.855
 7233POPC   C1A23631  39.980  15.136   8.555
 7233POPC   D2A23632  39.999  15.192   8.255
 7233POPC   C3A23633  39.977  15.181   7.955
 7233POPC   C4A23634  39.961  15.228   7.655
 7233POPC   C1B23635  39.901  15.412   8.555
 7233POPC   C2B23636  39.956  15.422   8.255
 7233POPC   C3B23637  39.975  15.412   7.955
 7233POPC   C4B23638  39.897  15.376   7.655
 7234POPC   NC323639  43.105  12.059   9.455
 7234POPC   PO423640  43.063  12.059   9.155
 7234POPC   GL123641  43.072  12.067   8.855
 7234POPC   GL223642  43.238  12.172   8.855
 7234POPC   C1A23643  43.138  12.115   8.555
 7234POPC   D2A23644  43.107  12.047   8.255
 7234POPC   C3A23645  43.088  12.083   7.955
 7234POPC   C4A23646  43.075  12.075   7.655
 7234POPC   C1B23647  43.305  12.234   8.555
 7234POPC   C2B23648  43.372  12.159   8.255
 7234POPC   C3B23649  43.354  12.175   7.955
 7234POPC   C4B23650  43.328  12.155   7.655
 7235POPC   NC323651  29.943   6.680   9.455
 7235POPC   PO423652  29.949   6.632   9.155
 7235POPC   GL123653  29.932   6.685   8.855
 7235POPC   GL223654  29.801   6.738   8.855
 7235POPC   C1A23655  29.873   6.671   8.555
 7235POPC   D2A23656  29.887   6.671   8.255
 7235POPC   C3A23657  29.892   6.656   7.955
 7235POPC   C4A23658  29.935   6.661   7.655
 7235POPC   C1B23659  29.708   6.763   8.555
 7235POPC   C2B23660  29.693   6.799   8.255
 7235POPC   C3B23661  29.733   6.791   7.955
 7235POPC   C4B23662  29.679   6.746   7.655
 7236POPC   NC323663  29.891  44.675   9.455
 7236POPC   PO423664  29.902  44.639   9.155
 7236POPC   GL123665  29.935  44.681   8.855
 7236POPC   GL223666  29.965  44.775   8.855
 7236POPC   C1A23667  29.910  44.665   8.555
 7236POPC   D2A23668  29.954  44.693   8.255
 7236POPC   C3A23669  29.898  44.635   7.955
 7236POPC   C4A23670  29.896  44.656   7.655
 7236POPC   C1B23671  29.972  44.868   8.555
 7236POPC   C2B23672  29.951  44.910   8.255
 7236POPC   C3B23673  29.962  44.879   7.955
 7236POPC   C4B23674  29.973  44.949   7.655
 7237POPC   NC323675  10.489   0.390   9.455
 7237POPC   PO423676  10.553   0.390   9.155
 7237POPC   GL123677  10.516   0.425   8.855
 7237POPC   GL223678  10.574   0.292   8.855
 7237POPC   C1A23679  10.568   0.393   8.555
 7237POPC   D2A23680  10.482   0.422   8.255
 7237POPC   C3A23681  10.555   0.410   7.955
 7237POPC   C4A23682  10.511   0.432   7.655
 7237POPC   C1B23683  10.586   0.205   8.555
 7237POPC   C2B23684  10.603   0.187   8.255
 7237POPC   C3B23685  10.605   0.196   7.955
 7237POPC   C4B23686  10.583   0.216   7.655
 7238POPC   NC323687  36.932   0.402   9.455
 7238POPC   PO423688  36.892   0.430   9.155
 7238POPC   GL123689  36.933   0.440   8.855
 7238POPC   GL223690  37.015   0.392   8.855
 7238POPC   C1A23691  36.901   0.437   8.555
 7238POPC   D2A23692  36.904   0.413   8.255
 7238POPC   C3A23693  36.875   0.421   7.955
 7238POPC   C4A23694  36.892   0.473   7.655
 7238POPC   C1B23695  37.068   0.290   8.555
 7238POPC   C2B23696  37.080   0.298   8.255
 7238POPC   C3B23697  37.054   0.281   7.955
 7238POPC   C4B23698  37.087   0.241   7.655
 7239POPC   NC323699  15.984  39.979   9.455
 7239POPC   PO423700  15.970  40.030   9.155
 7239POPC   GL123701  16.000  39.964   8.855
 7239POPC   GL223702  15.891  40.098   8.855
 7239POPC   C1A23703  15.931  39.994   8.555
 7239POPC   D2A23704  15.986  40.013   8.255
 7239POPC   C3A23705  15.952  39.991   7.955
 7239POPC   C4A23706  15.930  40.049   7.655
 7239POPC   C1B23707  15.825  40.234   8.555
 7239POPC   C2B23708  15.878  40.240   8.255
 7239POPC   C3B23709  15.856  40.264   7.955
 7239POPC   C4B23710  15.830  40.195   7.655
 7240POPC   NC323711  19.087  43.849   9.455
 7240POPC   PO423712  19.012  43.925   9.155
 7240POPC   GL123713  19.086  43.920   8.855
 7240POPC   GL223714  19.114  43.844   8.855
 7240POPC   C1A23715  19.042  43.930   8.555
 7240POPC   D2A23716  19.073  43.865   8.255
 7240POPC   C3A23717  19.079  43.934   7.955
 7240POPC   C4A23718  19.098  43.902   7.655
 7240POPC   C1B23719  19.223  43.671   8.555
 7240POPC   C2B23720  19.210  43.712   8.255
 7240POPC   C3B23721  19.210  43.683   7.955
 7240POPC   C4B23722  19.233  43.702   7.655
 7241POPC   NC323723  19.788  16.742   9.455
 7241POPC   PO423724  19.872  16.713   9.155
 7241POPC   GL123725  19.837  16.698   8.855
 7241POPC   GL223726  19.977  16.766   8.855
 7241POPC   C1A23727  19.835  16.746   8.555
 7241POPC   D2A23728  19.787  16.746   8.255
 7241POPC   C3A23729  19.866  16.738   7.955
 7241POPC   C4A23730  19.866  16.704   7.655
 7241POPC   C1B23731  20.066  16.856   8.555
 7241POPC   C2B23732  20.042  16.867   8.255
 7241POPC   C3B23733  20.105  16.828   7.955
 7241POPC   C4B23734  20.043  16.804   7.655
 7242POPC   NC323735   8.203  22.947   9.455
 7242POPC   PO423736   8.203  22.934   9.155
 7242POPC   GL123737   8.173  22.983   8.855
 7242POPC   GL223738   8.209  23.059   8.855
 7242POPC   C1A23739   8.179  22.891   8.555
 7242POPC   D2A23740   8.165  22.953   8.255
 7242POPC   C3A23741   8.221  22.972   7.955
 7242POPC   C4A23742   8.196  22.934   7.655
 7242POPC   C1B23743   8.178  23.199   8.555
 7242POPC   C2B23744   8.227  23.172   8.255
 7242POPC   C3B23745   8.207  23.216   7.955
 7242POPC   C4B23746   8.223  23.213   7.655
 7243POPC   NC323747  10.568  21.434   9.455
 7243POPC   PO423748  10.488  21.401   9.155
 7243POPC   GL123749  10.503  21.418   8.855
 7243POPC   GL223750  10.520  21.484   8.855
 7243POPC   C1A23751  10.567  21.434   8.555
 7243POPC   D2A23752  10.496  21.361   8.255
 7243POPC   C3A23753  10.566  21.391   7.955
 7243POPC   C4A23754  10.541  21.358   7.655
 7243POPC   C1B23755  10.536  21.663   8.555
 7243POPC   C2B23756  10.564  21.587   8.255
 7243POPC   C3B23757  10.578  21.663   7.955
 7243POPC   C4B23758  10.584  21.602   7.655
 7244POPC   NC323759  17.520  43.139   9.455
 7244POPC   PO423760  17.538  43.132   9.155
 7244POPC   GL123761  17.553  43.076   8.855
 7244POPC   GL223762  17.462  43.034   8.855
 7244POPC   C1A23763  17.479  43.144   8.555
 7244POPC   D2A23764  17.517  43.080   8.255
 7244POPC   C3A23765  17.549  43.064   7.955
 7244POPC   C4A23766  17.472  43.096   7.655
 7244POPC   C1B23767  17.473  42.822   8.555
 7244POPC   C2B23768  17.464  42.877   8.255
 7244POPC   C3B23769  17.504  42.843   7.955
 7244POPC   C4B23770  17.459  42.863   7.655
 7245POPC   NC323771  29.893  33.760   9.455
 7245POPC   PO423772  29.889  33.806   9.155
 7245POPC   GL123773  29.963  33.794   8.855
 7245POPC   GL223774  30.040  33.791   8.855
 7245POPC   C1A23775  29.968  33.799   8.555
 7245POPC   D2A23776  29.925  33.843   8.255
 7245POPC   C3A23777  29.905  33.845   7.955
 7245POPC   C4A23778  29.881  33.820   7.655
 7245POPC   C1B23779  30.127  33.660   8.555
 7245POPC   C2B23780  30.106  33.696   8.255
 7245POPC   C3B23781  30.179  33.670   7.955
 7245POPC   C4B23782  30.159  33.683   7.655
 7246POPC   NC323783  29.159  40.736   9.455
 7246POPC   PO423784  29.138  40.790   9.155
 7246POPC   GL123785  29.161  40.764   8.855
 7246POPC   GL223786  29.065  40.810   8.855
 7246POPC   C1A23787  29.153  40.757   8.555
 7246POPC   D2A23788  29.125  40.769   8.255
 7246POPC   C3A23789  29.156  40.796   7.955
 7246POPC   C4A23790  29.182  40.745   7.655
 7246POPC   C1B23791  28.908  40.855   8.555
 7246POPC   C2B23792  28.936  40.827   8.255
 7246POPC   C3B23793  28.899  40.813   7.955
 7246POPC   C4B23794  28.944  40.801   7.655
 7247POPC   NC323795  38.435  34.598   9.455
 7247POPC   PO423796  38.501  34.554   9.155
 7247POPC   GL123797  38.440  34.551   8.855
 7247POPC   GL223798  38.524  34.447   8.855
 7247POPC   C1A23799  38.433  34.596   8.555
 7247POPC   D2A23800  38.419  34.606   8.255
 7247POPC   C3A23801  38.423  34.601   7.955
 7247POPC   C4A23802  38.503  34.594   7.655
 7247POPC   C1B23803  38.531  34.290   8.555
 7247POPC   C2B23804  38.471  34.354   8.255
 7247POPC   C3B23805  38.477  34.364   7.955
 7247POPC   C4B23806  38.535  34.376   7.655
 7248POPC   NC323807  29.875  17.517   9.455
 7248POPC   PO423808  29.897  17.555   9.155
 7248POPC   GL123809  29.922  17.484   8.855
 7248POPC   GL223810  29.846  17.476   8.855
 7248POPC   C1A23811  29.930  17.538   8.555
 7248POPC   D2A23812  29.944  17.510   8.255
 7248POPC   C3A23813  29.915  17.519   7.955
 7248POPC   C4A23814  29.881  17.488   7.655
 7248POPC   C1B23815  29.693  17.344   8.555
 7248POPC   C2B23816  29.667  17.401   8.255
 7248POPC   C3B23817  29.717  17.365   7.955
 7248POPC   C4B23818  29.680  17.377   7.655
 7249POPC   NC323819  29.164  21.381   9.455
 7249POPC   PO423820  29.189  21.397   9.155
 7249POPC   GL123821  29.193  21.404   8.855
 7249POPC   GL223822  29.185  21.287   8.855
 7249POPC   C1A23823  29.104  21.369   8.555
 7249POPC   D2A23824  29.138  21.374   8.255
 7249POPC   C3A23825  29.159  21.342   7.955
 7249POPC   C4A23826  29.166  21.415   7.655
 7249POPC   C1B23827  29.283  21.140   8.555
 7249POPC   C2B23828  29.266  21.158   8.255
 7249POPC   C3B23829  29.287  21.127   7.955
 7249POPC   C4B23830  29.264  21.180   7.655
 7250POPC   NC323831  21.397  43.142   9.455
 7250POPC   PO423832  21.420  43.094   9.155
 7250POPC   GL123833  21.340  43.092   8.855
 7250POPC   GL223834  21.277  43.018   8.855
 7250POPC   C1A23835  21.380  43.108   8.555
 7250POPC   D2A23836  21.408  43.085   8.255
 7250POPC   C3A23837  21.339  43.075   7.955
 7250POPC   C4A23838  21.403  43.138   7.655
 7250POPC   C1B23839  21.196  42.968   8.555
 7250POPC   C2B23840  21.225  43.000   8.255
 7250POPC   C3B23841  21.168  42.948   7.955
 7250POPC   C4B23842  21.208  42.977   7.655
 7251POPC   NC323843   2.794  19.858   9.455
 7251POPC   PO423844   2.772  19.797   9.155
 7251POPC   GL123845   2.770  19.786   8.855
 7251POPC   GL223846   2.916  19.807   8.855
 7251POPC   C1A23847   2.778  19.835   8.555
 7251POPC   D2A23848   2.759  19.799   8.255
 7251POPC   C3A23849   2.807  19.883   7.955
 7251POPC   C4A23850   2.811  19.816   7.655
 7251POPC   C1B23851   2.927  19.658   8.555
 7251POPC   C2B23852   3.003  19.649   8.255
 7251POPC   C3B23853   2.950  19.674   7.955
 7251POPC   C4B23854   2.958  19.694   7.655
 7252POPC   NC323855  28.393  31.487   9.455
 7252POPC   PO423856  28.342  31.441   9.155
 7252POPC   GL123857  28.402  31.446   8.855
 7252POPC   GL223858  28.242  31.530   8.855
 7252POPC   C1A23859  28.358  31.500   8.555
 7252POPC   D2A23860  28.409  31.455   8.255
 7252POPC   C3A23861  28.399  31.517   7.955
 7252POPC   C4A23862  28.330  31.500   7.655
 7252POPC   C1B23863  28.178  31.558   8.555
 7252POPC   C2B23864  28.199  31.552   8.255
 7252POPC   C3B23865  28.156  31.556   7.955
 7252POPC   C4B23866  28.154  31.635   7.655
 7253POPC   NC323867  13.654  24.519   9.455
 7253POPC   PO423868  13.600  24.502   9.155
 7253POPC   GL123869  13.578  24.493   8.855
 7253POPC   GL223870  13.606  24.633   8.855
 7253POPC   C1A23871  13.637  24.487   8.555
 7253POPC   D2A23872  13.614  24.507   8.255
 7253POPC   C3A23873  13.637  24.500   7.955
 7253POPC   C4A23874  13.581  24.479   7.655
 7253POPC   C1B23875  13.531  24.692   8.555
 7253POPC   C2B23876  13.534  24.753   8.255
 7253POPC   C3B23877  13.620  24.775   7.955
 7253POPC   C4B23878  13.593  24.727   7.655
 7254POPC   NC323879  20.573  43.934   9.455
 7254POPC   PO423880  20.635  43.875   9.155
 7254POPC   GL123881  20.613  43.896   8.855
 7254POPC   GL223882  20.612  43.979   8.855
 7254POPC   C1A23883  20.604  43.930   8.555
 7254POPC   D2A23884  20.604  43.908   8.255
 7254POPC   C3A23885  20.624  43.866   7.955
 7254POPC   C4A23886  20.638  43.903   7.655
 7254POPC   C1B23887  20.582  44.138   8.555
 7254POPC   C2B23888  20.545  44.112   8.255
 7254POPC   C3B23889  20.523  44.105   7.955
 7254POPC   C4B23890  20.514  44.127   7.655
 7255POPC   NC323891   2.744  10.549   9.455
 7255POPC   PO423892   2.783  10.573   9.155
 7255POPC   GL123893   2.758  10.502   8.855
 7255POPC   GL223894   2.773  10.681   8.855
 7255POPC   C1A23895   2.797  10.564   8.555
 7255POPC   D2A23896   2.815  10.523   8.255
 7255POPC   C3A23897   2.739  10.573   7.955
 7255POPC   C4A23898   2.722  10.530   7.655
 7255POPC   C1B23899   2.815  10.750   8.555
 7255POPC   C2B23900   2.802  10.748   8.255
 7255POPC   C3B23901   2.745  10.785   7.955
 7255POPC   C4B23902   2.766  10.768   7.655
 7256POPC   NC323903  36.143  27.610   9.455
 7256POPC   PO423904  36.157  27.581   9.155
 7256POPC   GL123905  36.100  27.622   8.855
 7256POPC   GL223906  35.988  27.553   8.855
 7256POPC   C1A23907  36.141  27.607   8.555
 7256POPC   D2A23908  36.109  27.627   8.255
 7256POPC   C3A23909  36.149  27.626   7.955
 7256POPC   C4A23910  36.146  27.595   7.655
 7256POPC   C1B23911  35.840  27.473   8.555
 7256POPC   C2B23912  35.866  27.552   8.255
 7256POPC   C3B23913  35.892  27.552   7.955
 7256POPC   C4B23914  35.888  27.514   7.655
 7257POPC   NC323915  30.745   8.152   9.455
 7257POPC   PO423916  30.735   8.191   9.155
 7257POPC   GL123917  30.672   8.239   8.855
 7257POPC   GL223918  30.703   8.286   8.855
 7257POPC   C1A23919  30.738   8.246   8.555
 7257POPC   D2A23920  30.655   8.204   8.255
 7257POPC   C3A23921  30.703   8.222   7.955
 7257POPC   C4A23922  30.664   8.160   7.655
 7257POPC   C1B23923  30.795   8.466   8.555
 7257POPC   C2B23924  30.788   8.450   8.255
 7257POPC   C3B23925  30.798   8.440   7.955
 7257POPC   C4B23926  30.754   8.452   7.655
 7258POPC   NC323927  19.883  22.900   9.455
 7258POPC   PO423928  19.786  22.978   9.155
 7258POPC   GL123929  19.809  22.942   8.855
 7258POPC   GL223930  19.764  22.955   8.855
 7258POPC   C1A23931  19.840  22.962   8.555
 7258POPC   D2A23932  19.848  22.899   8.255
 7258POPC   C3A23933  19.842  22.899   7.955
 7258POPC   C4A23934  19.805  22.958   7.655
 7258POPC   C1B23935  19.594  23.072   8.555
 7258POPC   C2B23936  19.599  23.095   8.255
 7258POPC   C3B23937  19.572  23.031   7.955
 7258POPC   C4B23938  19.584  23.077   7.655
 7259POPC   NC323939  18.269  40.828   9.455
 7259POPC   PO423940  18.259  40.766   9.155
 7259POPC   GL123941  18.297  40.772   8.855
 7259POPC   GL223942  18.266  40.671   8.855
 7259POPC   C1A23943  18.305  40.821   8.555
 7259POPC   D2A23944  18.278  40.817   8.255
 7259POPC   C3A23945  18.309  40.813   7.955
 7259POPC   C4A23946  18.271  40.773   7.655
 7259POPC   C1B23947  18.314  40.548   8.555
 7259POPC   C2B23948  18.322  40.541   8.255
 7259POPC   C3B23949  18.327  40.562   7.955
 7259POPC   C4B23950  18.268  40.581   7.655
 7260POPC   NC323951  18.299  23.761   9.455
 7260POPC   PO423952  18.291  23.729   9.155
 7260POPC   GL123953  18.312  23.740   8.855
 7260POPC   GL223954  18.314  23.635   8.855
 7260POPC   C1A23955  18.325  23.694   8.555
 7260POPC   D2A23956  18.323  23.672   8.255
 7260POPC   C3A23957  18.256  23.671   7.955
 7260POPC   C4A23958  18.296  23.726   7.655
 7260POPC   C1B23959  18.430  23.504   8.555
 7260POPC   C2B23960  18.389  23.500   8.255
 7260POPC   C3B23961  18.397  23.480   7.955
 7260POPC   C4B23962  18.436  23.529   7.655
 7261POPC   NC323963  16.779  36.126   9.455
 7261POPC   PO423964  16.689  36.145   9.155
 7261POPC   GL123965  16.699  36.156   8.855
 7261POPC   GL223966  16.700  36.256   8.855
 7261POPC   C1A23967  16.748  36.102   8.555
 7261POPC   D2A23968  16.730  36.159   8.255
 7261POPC   C3A23969  16.705  36.104   7.955
 7261POPC   C4A23970  16.754  36.171   7.655
 7261POPC   C1B23971  16.741  36.350   8.555
 7261POPC   C2B23972  16.684  36.412   8.255
 7261POPC   C3B23973  16.738  36.396   7.955
 7261POPC   C4B23974  16.719  36.418   7.655
 7262POPC   NC323975   8.951  12.901   9.455
 7262POPC   PO423976   9.014  12.813   9.155
 7262POPC   GL123977   9.011  12.899   8.855
 7262POPC   GL223978   9.116  12.901   8.855
 7262POPC   C1A23979   9.002  12.897   8.555
 7262POPC   D2A23980   8.932  12.851   8.255
 7262POPC   C3A23981   8.923  12.884   7.955
 7262POPC   C4A23982   8.927  12.859   7.655
 7262POPC   C1B23983   9.246  12.863   8.555
 7262POPC   C2B23984   9.269  12.842   8.255
 7262POPC   C3B23985   9.255  12.888   7.955
 7262POPC   C4B23986   9.188  12.842   7.655
 7263POPC   NC323987  27.559  24.450   9.455
 7263POPC   PO423988  27.569  24.497   9.155
 7263POPC   GL123989  27.544  24.519   8.855
 7263POPC   GL223990  27.687  24.399   8.855
 7263POPC   C1A23991  27.598  24.498   8.555
 7263POPC   D2A23992  27.572  24.523   8.255
 7263POPC   C3A23993  27.616  24.503   7.955
 7263POPC   C4A23994  27.616  24.510   7.655
 7263POPC   C1B23995  27.854  24.369   8.555
 7263POPC   C2B23996  27.794  24.408   8.255
 7263POPC   C3B23997  27.802  24.392   7.955
 7263POPC   C4B23998  27.826  24.330   7.655
 7264POPC   NC323999  27.598  22.135   9.455
 7264POPC   PO424000  27.592  22.118   9.155
 7264POPC   GL124001  27.581  22.112   8.855
 7264POPC   GL224002  27.491  22.120   8.855
 7264POPC   C1A24003  27.636  22.128   8.555
 7264POPC   D2A24004  27.619  22.211   8.255
 7264POPC   C3A24005  27.567  22.181   7.955
 7264POPC   C4A24006  27.554  22.135   7.655
 7264POPC   C1B24007  27.434  21.979   8.555
 7264POPC   C2B24008  27.348  22.042   8.255
 7264POPC   C3B24009  27.378  22.040   7.955
 7264POPC   C4B24010  27.407  22.004   7.655
 7265POPC   NC324011  12.835  37.691   9.455
 7265POPC   PO424012  12.860  37.726   9.155
 7265POPC   GL124013  12.874  37.709   8.855
 7265POPC   GL224014  12.696  37.759   8.855
 7265POPC   C1A24015  12.853  37.713   8.555
 7265POPC   D2A24016  12.859  37.637   8.255
 7265POPC   C3A24017  12.855  37.677   7.955
 7265POPC   C4A24018  12.833  37.637   7.655
 7265POPC   C1B24019  12.640  37.831   8.555
 7265POPC   C2B24020  12.587  37.782   8.255
 7265POPC   C3B24021  12.670  37.817   7.955
 7265POPC   C4B24022  12.584  37.820   7.655
 7266POPC   NC324023  19.069  12.117   9.455
 7266POPC   PO424024  19.092  12.041   9.155
 7266POPC   GL124025  19.102  12.048   8.855
 7266POPC   GL224026  19.072  12.182   8.855
 7266POPC   C1A24027  19.101  12.032   8.555
 7266POPC   D2A24028  19.072  12.034   8.255
 7266POPC   C3A24029  19.088  12.049   7.955
 7266POPC   C4A24030  19.075  12.054   7.655
 7266POPC   C1B24031  19.055  12.282   8.555
 7266POPC   C2B24032  18.990  12.350   8.255
 7266POPC   C3B24033  19.053  12.322   7.955
 7266POPC   C4B24034  19.027  12.364   7.655
 7267POPC   NC324035  19.853  27.553   9.455
 7267POPC   PO424036  19.842  27.634   9.155
 7267POPC   GL124037  19.846  27.580   8.855
 7267POPC   GL224038  19.801  27.699   8.855
 7267POPC   C1A24039  19.872  27.600   8.555
 7267POPC   D2A24040  19.874  27.618   8.255
 7267POPC   C3A24041  19.841  27.566   7.955
 7267POPC   C4A24042  19.873  27.636   7.655
 7267POPC   C1B24043  19.750  27.833   8.555
 7267POPC   C2B24044  19.776  27.777   8.255
 7267POPC   C3B24045  19.741  27.829   7.955
 7267POPC   C4B24046  19.718  27.798   7.655
 7268POPC   NC324047  14.392  38.453   9.455
 7268POPC   PO424048  14.400  38.413   9.155
 7268POPC   GL124049  14.392  38.471   8.855
 7268POPC   GL224050  14.316  38.548   8.855
 7268POPC   C1A24051  14.434  38.472   8.555
 7268POPC   D2A24052  14.377  38.457   8.255
 7268POPC   C3A24053  14.399  38.491   7.955
 7268POPC   C4A24054  14.357  38.449   7.655
 7268POPC   C1B24055  14.153  38.537   8.555
 7268POPC   C2B24056  14.201  38.570   8.255
 7268POPC   C3B24057  14.129  38.534   7.955
 7268POPC   C4B24058  14.203  38.552   7.655
 7269POPC   NC324059  14.440  39.191   9.455
 7269POPC   PO424060  14.420  39.189   9.155
 7269POPC   GL124061  14.393  39.185   8.855
 7269POPC   GL224062  14.514  39.242   8.855
 7269POPC   C1A24063  14.449  39.203   8.555
 7269POPC   D2A24064  14.374  39.261   8.255
 7269POPC   C3A24065  14.370  39.233   7.955
 7269POPC   C4A24066  14.356  39.220   7.655
 7269POPC   C1B24067  14.611  39.261   8.555
 7269POPC   C2B24068  14.642  39.275   8.255
 7269POPC   C3B24069  14.604  39.264   7.955
 7269POPC   C4B24070  14.634  39.227   7.655
 7270POPC   NC324071  15.171  21.394   9.455
 7270POPC   PO424072  15.206  21.371   9.155
 7270POPC   GL124073  15.130  21.432   8.855
 7270POPC   GL224074  15.176  21.558   8.855
 7270POPC   C1A24075  15.181  21.362   8.555
 7270POPC   D2A24076  15.198  21.426   8.255
 7270POPC   C3A24077  15.219  21.397   7.955
 7270POPC   C4A24078  15.144  21.343   7.655
 7270POPC   C1B24079  15.134  21.671   8.555
 7270POPC   C2B24080  15.143  21.613   8.255
 7270POPC   C3B24081  15.126  21.636   7.955
 7270POPC   C4B24082  15.113  21.679   7.655
 7271POPC   NC324083   9.726  19.015   9.455
 7271POPC   PO424084   9.725  19.088   9.155
 7271POPC   GL124085   9.782  19.071   8.855
 7271POPC   GL224086   9.775  19.156   8.855
 7271POPC   C1A24087   9.788  19.045   8.555
 7271POPC   D2A24088   9.756  19.079   8.255
 7271POPC   C3A24089   9.761  19.022   7.955
 7271POPC   C4A24090   9.761  19.098   7.655
 7271POPC   C1B24091   9.876  19.269   8.555
 7271POPC   C2B24092   9.784  19.274   8.255
 7271POPC   C3B24093   9.786  19.308   7.955
 7271POPC   C4B24094   9.849  19.302   7.655
 7272POPC   NC324095  19.094  24.449   9.455
 7272POPC   PO424096  19.061  24.465   9.155
 7272POPC   GL124097  19.036  24.449   8.855
 7272POPC   GL224098  18.892  24.525   8.855
 7272POPC   C1A24099  19.045  24.530   8.555
 7272POPC   D2A24100  19.082  24.479   8.255
 7272POPC   C3A24101  19.055  24.497   7.955
 7272POPC   C4A24102  19.078  24.501   7.655
 7272POPC   C1B24103  18.850  24.603   8.555
 7272POPC   C2B24104  18.772  24.577   8.255
 7272POPC   C3B24105  18.806  24.554   7.955
 7272POPC   C4B24106  18.853  24.587   7.655
 7273POPC   NC324107  29.944  32.249   9.455
 7273POPC   PO424108  29.896  32.219   9.155
 7273POPC   GL124109  29.874  32.267   8.855
 7273POPC   GL224110  29.814  32.285   8.855
 7273POPC   C1A24111  29.924  32.208   8.555
 7273POPC   D2A24112  29.969  32.203   8.255
 7273POPC   C3A24113  29.961  32.287   7.955
 7273POPC   C4A24114  29.941  32.290   7.655
 7273POPC   C1B24115  29.719  32.272   8.555
 7273POPC   C2B24116  29.675  32.272   8.255
 7273POPC   C3B24117  29.629  32.233   7.955
 7273POPC   C4B24118  29.621  32.258   7.655
 7274POPC   NC324119  16.705  35.391   9.455
 7274POPC   PO424120  16.700  35.384   9.155
 7274POPC   GL124121  16.708  35.355   8.855
 7274POPC   GL224122  16.815  35.478   8.855
 7274POPC   C1A24123  16.745  35.380   8.555
 7274POPC   D2A24124  16.707  35.339   8.255
 7274POPC   C3A24125  16.706  35.382   7.955
 7274POPC   C4A24126  16.724  35.349   7.655
 7274POPC   C1B24127  16.793  35.561   8.555
 7274POPC   C2B24128  16.774  35.629   8.255
 7274POPC   C3B24129  16.795  35.570   7.955
 7274POPC   C4B24130  16.859  35.607   7.655
 7275POPC   NC324131   7.454  21.396   9.455
 7275POPC   PO424132   7.460  21.430   9.155
 7275POPC   GL124133   7.434  21.364   8.855
 7275POPC   GL224134   7.503  21.406   8.855
 7275POPC   C1A24135   7.428  21.403   8.555
 7275POPC   D2A24136   7.371  21.432   8.255
 7275POPC   C3A24137   7.445  21.384   7.955
 7275POPC   C4A24138   7.391  21.360   7.655
 7275POPC   C1B24139   7.658  21.447   8.555
 7275POPC   C2B24140   7.639  21.388   8.255
 7275POPC   C3B24141   7.694  21.450   7.955
 7275POPC   C4B24142   7.692  21.468   7.655
 7276POPC   NC324143  19.789  28.379   9.455
 7276POPC   PO424144  19.789  28.409   9.155
 7276POPC   GL124145  19.870  28.338   8.855
 7276POPC   GL224146  19.698  28.313   8.855
 7276POPC   C1A24147  19.828  28.416   8.555
 7276POPC   D2A24148  19.857  28.398   8.255
 7276POPC   C3A24149  19.816  28.354   7.955
 7276POPC   C4A24150  19.809  28.343   7.655
 7276POPC   C1B24151  19.593  28.321   8.555
 7276POPC   C2B24152  19.608  28.344   8.255
 7276POPC   C3B24153  19.539  28.354   7.955
 7276POPC   C4B24154  19.584  28.404   7.655
 7277POPC   NC324155  34.570   8.157   9.455
 7277POPC   PO424156  34.608   8.152   9.155
 7277POPC   GL124157  34.557   8.223   8.855
 7277POPC   GL224158  34.516   8.319   8.855
 7277POPC   C1A24159  34.547   8.220   8.555
 7277POPC   D2A24160  34.612   8.196   8.255
 7277POPC   C3A24161  34.607   8.179   7.955
 7277POPC   C4A24162  34.563   8.162   7.655
 7277POPC   C1B24163  34.507   8.404   8.555
 7277POPC   C2B24164  34.535   8.410   8.255
 7277POPC   C3B24165  34.523   8.412   7.955
 7277POPC   C4B24166  34.483   8.488   7.655
 7278POPC   NC324167  25.304  40.749   9.455
 7278POPC   PO424168  25.251  40.804   9.155
 7278POPC   GL124169  25.239  40.804   8.855
 7278POPC   GL224170  25.334  40.700   8.855
 7278POPC   C1A24171  25.245  40.796   8.555
 7278POPC   D2A24172  25.283  40.792   8.255
 7278POPC   C3A24173  25.300  40.819   7.955
 7278POPC   C4A24174  25.266  40.801   7.655
 7278POPC   C1B24175  25.365  40.557   8.555
 7278POPC   C2B24176  25.381  40.547   8.255
 7278POPC   C3B24177  25.293  40.567   7.955
 7278POPC   C4B24178  25.381  40.531   7.655
 7279POPC   NC324179  33.065  30.677   9.455
 7279POPC   PO424180  33.008  30.667   9.155
 7279POPC   GL124181  33.043  30.683   8.855
 7279POPC   GL224182  33.152  30.582   8.855
 7279POPC   C1A24183  32.997  30.701   8.555
 7279POPC   D2A24184  33.049  30.690   8.255
 7279POPC   C3A24185  32.987  30.741   7.955
 7279POPC   C4A24186  33.052  30.742   7.655
 7279POPC   C1B24187  33.196  30.512   8.555
 7279POPC   C2B24188  33.168  30.500   8.255
 7279POPC   C3B24189  33.196  30.534   7.955
 7279POPC   C4B24190  33.214  30.534   7.655
 7280POPC   NC324191  11.266  43.063   9.455
 7280POPC   PO424192  11.279  43.144   9.155
 7280POPC   GL124193  11.291  43.086   8.855
 7280POPC   GL224194  11.381  43.010   8.855
 7280POPC   C1A24195  11.301  43.086   8.555
 7280POPC   D2A24196  11.349  43.082   8.255
 7280POPC   C3A24197  11.308  43.077   7.955
 7280POPC   C4A24198  11.275  43.063   7.655
 7280POPC   C1B24199  11.406  42.865   8.555
 7280POPC   C2B24200  11.407  42.895   8.255
 7280POPC   C3B24201  11.432  42.890   7.955
 7280POPC   C4B24202  11.464  42.896   7.655
 7281POPC   NC324203  27.604   8.186   9.455
 7281POPC   PO424204  27.601   8.187   9.155
 7281POPC   GL124205  27.633   8.172   8.855
 7281POPC   GL224206  27.718   8.138   8.855
 7281POPC   C1A24207  27.570   8.169   8.555
 7281POPC   D2A24208  27.577   8.225   8.255
 7281POPC   C3A24209  27.610   8.207   7.955
 7281POPC   C4A24210  27.605   8.177   7.655
 7281POPC   C1B24211  27.813   8.052   8.555
 7281POPC   C2B24212  27.790   8.071   8.255
 7281POPC   C3B24213  27.744   8.051   7.955
 7281POPC   C4B24214  27.739   8.086   7.655
 7282POPC   NC324215  22.136  29.105   9.455
 7282POPC   PO424216  22.156  29.179   9.155
 7282POPC   GL124217  22.155  29.186   8.855
 7282POPC   GL224218  22.260  29.069   8.855
 7282POPC   C1A24219  22.153  29.108   8.555
 7282POPC   D2A24220  22.126  29.165   8.255
 7282POPC   C3A24221  22.181  29.180   7.955
 7282POPC   C4A24222  22.164  29.147   7.655
 7282POPC   C1B24223  22.357  28.942   8.555
 7282POPC   C2B24224  22.332  28.994   8.255
 7282POPC   C3B24225  22.360  28.956   7.955
 7282POPC   C4B24226  22.372  29.018   7.655
 7283POPC   NC324227  35.357  24.455   9.455
 7283POPC   PO424228  35.340  24.513   9.155
 7283POPC   GL124229  35.314  24.524   8.855
 7283POPC   GL224230  35.321  24.588   8.855
 7283POPC   C1A24231  35.395  24.494   8.555
 7283POPC   D2A24232  35.329  24.484   8.255
 7283POPC   C3A24233  35.368  24.473   7.955
 7283POPC   C4A24234  35.390  24.452   7.655
 7283POPC   C1B24235  35.328  24.703   8.555
 7283POPC   C2B24236  35.343  24.721   8.255
 7283POPC   C3B24237  35.296  24.733   7.955
 7283POPC   C4B24238  35.390  24.731   7.655
 7284POPC   NC324239  14.378  19.823   9.455
 7284POPC   PO424240  14.416  19.837   9.155
 7284POPC   GL124241  14.399  19.839   8.855
 7284POPC   GL224242  14.510  19.748   8.855
 7284POPC   C1A24243  14.379  19.860   8.555
 7284POPC   D2A24244  14.378  19.790   8.255
 7284POPC   C3A24245  14.357  19.864   7.955
 7284POPC   C4A24246  14.356  19.825   7.655
 7284POPC   C1B24247  14.644  19.791   8.555
 7284POPC   C2B24248  14.641  19.800   8.255
 7284POPC   C3B24249  14.675  19.780   7.955
 7284POPC   C4B24250  14.642  19.739   7.655
 7285POPC   NC324251  26.856  21.374   9.455
 7285POPC   PO424252  26.784  21.396   9.155
 7285POPC   GL124253  26.775  21.358   8.855
 7285POPC   GL224254  26.907  21.308   8.855
 7285POPC   C1A24255  26.771  21.375   8.555
 7285POPC   D2A24256  26.854  21.358   8.255
 7285POPC   C3A24257  26.863  21.392   7.955
 7285POPC   C4A24258  26.774  21.344   7.655
 7285POPC   C1B24259  27.107  21.349   8.555
 7285POPC   C2B24260  27.062  21.334   8.255
 7285POPC   C3B24261  27.067  21.342   7.955
 7285POPC   C4B24262  27.097  21.354   7.655
 7286POPC   NC324263  35.321  15.961   9.455
 7286POPC   PO424264  35.342  15.994   9.155
 7286POPC   GL124265  35.329  16.002   8.855
 7286POPC   GL224266  35.312  16.053   8.855
 7286POPC   C1A24267  35.323  15.998   8.555
 7286POPC   D2A24268  35.392  15.993   8.255
 7286POPC   C3A24269  35.390  15.971   7.955
 7286POPC   C4A24270  35.318  15.925   7.655
 7286POPC   C1B24271  35.218  16.166   8.555
 7286POPC   C2B24272  35.146  16.105   8.255
 7286POPC   C3B24273  35.158  16.184   7.955
 7286POPC   C4B24274  35.213  16.163   7.655
 7287POPC   NC324275  28.419  10.514   9.455
 7287POPC   PO424276  28.332  10.520   9.155
 7287POPC   GL124277  28.341  10.499   8.855
 7287POPC   GL224278  28.219  10.555   8.855
 7287POPC   C1A24279  28.378  10.567   8.555
 7287POPC   D2A24280  28.367  10.567   8.255
 7287POPC   C3A24281  28.368  10.532   7.955
 7287POPC   C4A24282  28.353  10.520   7.655
 7287POPC   C1B24283  28.175  10.576   8.555
 7287POPC   C2B24284  28.120  10.604   8.255
 7287POPC   C3B24285  28.108  10.620   7.955
 7287POPC   C4B24286  28.185  10.620   7.655
 7288POPC   NC324287  14.363  15.142   9.455
 7288POPC   PO424288  14.362  15.193   9.155
 7288POPC   GL124289  14.381  15.212   8.855
 7288POPC   GL224290  14.307  15.326   8.855
 7288POPC   C1A24291  14.441  15.173   8.555
 7288POPC   D2A24292  14.361  15.215   8.255
 7288POPC   C3A24293  14.448  15.147   7.955
 7288POPC   C4A24294  14.416  15.163   7.655
 7288POPC   C1B24295  14.280  15.371   8.555
 7288POPC   C2B24296  14.223  15.365   8.255
 7288POPC   C3B24297  14.242  15.413   7.955
 7288POPC   C4B24298  14.246  15.387   7.655
 7289POPC   NC324299   8.171  33.836   9.455
 7289POPC   PO424300   8.241  33.812   9.155
 7289POPC   GL124301   8.225  33.789   8.855
 7289POPC   GL224302   8.242  33.665   8.855
 7289POPC   C1A24303   8.204  33.797   8.555
 7289POPC   D2A24304   8.147  33.836   8.255
 7289POPC   C3A24305   8.188  33.831   7.955
 7289POPC   C4A24306   8.233  33.788   7.655
 7289POPC   C1B24307   8.327  33.527   8.555
 7289POPC   C2B24308   8.259  33.606   8.255
 7289POPC   C3B24309   8.300  33.526   7.955
 7289POPC   C4B24310   8.273  33.579   7.655
 7290POPC   NC324311  26.837  32.288   9.455
 7290POPC   PO424312  26.770  32.246   9.155
 7290POPC   GL124313  26.812  32.295   8.855
 7290POPC   GL224314  26.780  32.332   8.855
 7290POPC   C1A24315  26.867  32.267   8.555
 7290POPC   D2A24316  26.770  32.241   8.255
 7290POPC   C3A24317  26.828  32.246   7.955
 7290POPC   C4A24318  26.805  32.205   7.655
 7290POPC   C1B24319  26.724  32.463   8.555
 7290POPC   C2B24320  26.742  32.443   8.255
 7290POPC   C3B24321  26.768  32.458   7.955
 7290POPC   C4B24322  26.782  32.445   7.655
 7291POPC   NC324323  19.038  44.632   9.455
 7291POPC   PO424324  19.080  44.689   9.155
 7291POPC   GL124325  19.027  44.657   8.855
 7291POPC   GL224326  19.110  44.562   8.855
 7291POPC   C1A24327  19.053  44.646   8.555
 7291POPC   D2A24328  19.103  44.641   8.255
 7291POPC   C3A24329  19.081  44.709   7.955
 7291POPC   C4A24330  19.066  44.674   7.655
 7291POPC   C1B24331  19.100  44.429   8.555
 7291POPC   C2B24332  19.096  44.468   8.255
 7291POPC   C3B24333  19.087  44.461   7.955
 7291POPC   C4B24334  19.138  44.431   7.655
 7292POPC   NC324335   8.926  11.322   9.455
 7292POPC   PO424336   8.945  11.284   9.155
 7292POPC   GL124337   9.009  11.337   8.855
 7292POPC   GL224338   8.926  11.188   8.855
 7292POPC   C1A24339   9.015  11.260   8.555
 7292POPC   D2A24340   9.010  11.285   8.255
 7292POPC   C3A24341   8.971  11.324   7.955
 7292POPC   C4A24342   8.990  11.299   7.655
 7292POPC   C1B24343   8.955  11.091   8.555
 7292POPC   C2B24344   8.981  11.086   8.255
 7292POPC   C3B24345   8.917  11.020   7.955
 7292POPC   C4B24346   8.928  11.090   7.655
 7293POPC   NC324347  41.567   5.858   9.455
 7293POPC   PO424348  41.608   5.832   9.155
 7293POPC   GL124349  41.585   5.823   8.855
 7293POPC   GL224350  41.576   5.970   8.855
 7293POPC   C1A24351  41.543   5.853   8.555
 7293POPC   D2A24352  41.545   5.853   8.255
 7293POPC   C3A24353  41.582   5.851   7.955
 7293POPC   C4A24354  41.558   5.824   7.655
 7293POPC   C1B24355  41.516   6.132   8.555
 7293POPC   C2B24356  41.558   6.117   8.255
 7293POPC   C3B24357  41.573   6.142   7.955
 7293POPC   C4B24358  41.571   6.123   7.655
 7294POPC   NC324359   0.475  12.086   9.455
 7294POPC   PO424360   0.472  12.102   9.155
 7294POPC   GL124361   0.462  12.027   8.855
 7294POPC   GL224362   0.500  12.028   8.855
 7294POPC   C1A24363   0.433  12.038   8.555
 7294POPC   D2A24364   0.420  12.028   8.255
 7294POPC   C3A24365   0.433  12.057   7.955
 7294POPC   C4A24366   0.471  12.056   7.655
 7294POPC   C1B24367   0.619  11.965   8.555
 7294POPC   C2B24368   0.639  12.005   8.255
 7294POPC   C3B24369   0.651  11.991   7.955
 7294POPC   C4B24370   0.671  11.912   7.655
 7295POPC   NC324371  44.694  43.121   9.455
 7295POPC   PO424372  44.662  43.078   9.155
 7295POPC   GL124373  44.651  43.109   8.855
 7295POPC   GL224374  44.700  42.949   8.855
 7295POPC   C1A24375  44.691  43.098   8.555
 7295POPC   D2A24376  44.704  43.124   8.255
 7295POPC   C3A24377  44.626  43.114   7.955
 7295POPC   C4A24378  44.622  43.061   7.655
 7295POPC   C1B24379  44.720  42.812   8.555
 7295POPC   C2B24380  44.665  42.905   8.255
 7295POPC   C3B24381  44.635  42.867   7.955
 7295POPC   C4B24382  44.722  42.871   7.655
 7296POPC   NC324383  29.955  43.129   9.455
 7296POPC   PO424384  29.947  43.082   9.155
 7296POPC   GL124385  29.950  43.078   8.855
 7296POPC   GL224386  29.956  43.270   8.855
 7296POPC   C1A24387  29.898  43.139   8.555
 7296POPC   D2A24388  29.942  43.122   8.255
 7296POPC   C3A24389  29.876  43.062   7.955
 7296POPC   C4A24390  29.901  43.089   7.655
 7296POPC   C1B24391  29.907  43.375   8.555
 7296POPC   C2B24392  29.920  43.363   8.255
 7296POPC   C3B24393  29.914  43.403   7.955
 7296POPC   C4B24394  29.906  43.332   7.655
 7297POPC   NC324395  20.649  14.418   9.455
 7297POPC   PO424396  20.613  14.379   9.155
 7297POPC   GL124397  20.569  14.384   8.855
 7297POPC   GL224398  20.602  14.279   8.855
 7297POPC   C1A24399  20.571  14.422   8.555
 7297POPC   D2A24400  20.639  14.410   8.255
 7297POPC   C3A24401  20.574  14.402   7.955
 7297POPC   C4A24402  20.583  14.372   7.655
 7297POPC   C1B24403  20.540  14.131   8.555
 7297POPC   C2B24404  20.521  14.122   8.255
 7297POPC   C3B24405  20.610  14.189   7.955
 7297POPC   C4B24406  20.600  14.173   7.655
 7298POPC   NC324407  13.627  26.787   9.455
 7298POPC   PO424408  13.662  26.845   9.155
 7298POPC   GL124409  13.673  26.801   8.855
 7298POPC   GL224410  13.637  26.671   8.855
 7298POPC   C1A24411  13.588  26.859   8.555
 7298POPC   D2A24412  13.630  26.796   8.255
 7298POPC   C3A24413  13.637  26.813   7.955
 7298POPC   C4A24414  13.652  26.866   7.655
 7298POPC   C1B24415  13.690  26.542   8.555
 7298POPC   C2B24416  13.727  26.541   8.255
 7298POPC   C3B24417  13.735  26.533   7.955
 7298POPC   C4B24418  13.687  26.587   7.655
 7299POPC   NC324419  15.981  31.467   9.455
 7299POPC   PO424420  15.919  31.494   9.155
 7299POPC   GL124421  15.945  31.495   8.855
 7299POPC   GL224422  15.930  31.321   8.855
 7299POPC   C1A24423  16.000  31.518   8.555
 7299POPC   D2A24424  15.982  31.477   8.255
 7299POPC   C3A24425  15.981  31.512   7.955
 7299POPC   C4A24426  15.935  31.480   7.655
 7299POPC   C1B24427  15.833  31.265   8.555
 7299POPC   C2B24428  15.803  31.220   8.255
 7299POPC   C3B24429  15.772  31.294   7.955
 7299POPC   C4B24430  15.836  31.240   7.655
 7300POPC   NC324431  36.099  20.599   9.455
 7300POPC   PO424432  36.169  20.623   9.155
 7300POPC   GL124433  36.129  20.631   8.855
 7300POPC   GL224434  36.187  20.566   8.855
 7300POPC   C1A24435  36.090  20.634   8.555
 7300POPC   D2A24436  36.159  20.649   8.255
 7300POPC   C3A24437  36.176  20.590   7.955
 7300POPC   C4A24438  36.118  20.586   7.655
 7300POPC   C1B24439  36.298  20.427   8.555
 7300POPC   C2B24440  36.345  20.520   8.255
 7300POPC   C3B24441  36.362  20.439   7.955
 7300POPC   C4B24442  36.303  20.514   7.655
 7301POPC   NC324443  22.907  13.593   9.455
 7301POPC   PO424444  22.964  13.626   9.155
 7301POPC   GL124445  22.940  13.678   8.855
 7301POPC   GL224446  22.801  13.719   8.855
 7301POPC   C1A24447  22.938  13.664   8.555
 7301POPC   D2A24448  22.888  13.593   8.255
 7301POPC   C3A24449  22.924  13.647   7.955
 7301POPC   C4A24450  22.982  13.618   7.655
 7301POPC   C1B24451  22.723  13.724   8.555
 7301POPC   C2B24452  22.749  13.704   8.255
 7301POPC   C3B24453  22.681  13.771   7.955
 7301POPC   C4B24454  22.755  13.704   7.655
 7302POPC   NC324455   1.192  15.139   9.455
 7302POPC   PO424456   1.171  15.130   9.155
 7302POPC   GL124457   1.233  15.214   8.855
 7302POPC   GL224458   1.183  15.051   8.855
 7302POPC   C1A24459   1.228  15.187   8.555
 7302POPC   D2A24460   1.165  15.220   8.255
 7302POPC   C3A24461   1.196  15.187   7.955
 7302POPC   C4A24462   1.180  15.223   7.655
 7302POPC   C1B24463   1.173  14.977   8.555
 7302POPC   C2B24464   1.093  14.951   8.255
 7302POPC   C3B24465   1.103  14.987   7.955
 7302POPC   C4B24466   1.111  14.982   7.655
 7303POPC   NC324467  22.924  37.722   9.455
 7303POPC   PO424468  22.956  37.637   9.155
 7303POPC   GL124469  22.904  37.687   8.855
 7303POPC   GL224470  23.033  37.750   8.855
 7303POPC   C1A24471  22.981  37.697   8.555
 7303POPC   D2A24472  22.965  37.674   8.255
 7303POPC   C3A24473  22.975  37.684   7.955
 7303POPC   C4A24474  22.931  37.704   7.655
 7303POPC   C1B24475  23.095  37.827   8.555
 7303POPC   C2B24476  23.115  37.841   8.255
 7303POPC   C3B24477  23.154  37.877   7.955
 7303POPC   C4B24478  23.142  37.816   7.655
 7304POPC   NC324479  17.530  14.363   9.455
 7304POPC   PO424480  17.472  14.446   9.155
 7304POPC   GL124481  17.505  14.428   8.855
 7304POPC   GL224482  17.445  14.270   8.855
 7304POPC   C1A24483  17.518  14.439   8.555
 7304POPC   D2A24484  17.502  14.407   8.255
 7304POPC   C3A24485  17.516  14.447   7.955
 7304POPC   C4A24486  17.498  14.442   7.655
 7304POPC   C1B24487  17.473  14.159   8.555
 7304POPC   C2B24488  17.402  14.156   8.255
 7304POPC   C3B24489  17.496  14.142   7.955
 7304POPC   C4B24490  17.412  14.139   7.655
 7305POPC   NC324491  15.166  39.216   9.455
 7305POPC   PO424492  15.154  39.259   9.155
 7305POPC   GL124493  15.165  39.204   8.855
 7305POPC   GL224494  15.297  39.285   8.855
 7305POPC   C1A24495  15.183  39.260   8.555
 7305POPC   D2A24496  15.132  39.268   8.255
 7305POPC   C3A24497  15.210  39.247   7.955
 7305POPC   C4A24498  15.224  39.235   7.655
 7305POPC   C1B24499  15.422  39.376   8.555
 7305POPC   C2B24500  15.441  39.298   8.255
 7305POPC   C3B24501  15.428  39.317   7.955
 7305POPC   C4B24502  15.429  39.335   7.655
 7306POPC   NC324503   3.557   5.098   9.455
 7306POPC   PO424504   3.533   5.075   9.155
 7306POPC   GL124505   3.513   5.082   8.855
 7306POPC   GL224506   3.523   4.985   8.855
 7306POPC   C1A24507   3.570   5.118   8.555
 7306POPC   D2A24508   3.534   5.063   8.255
 7306POPC   C3A24509   3.589   5.125   7.955
 7306POPC   C4A24510   3.515   5.081   7.655
 7306POPC   C1B24511   3.601   4.876   8.555
 7306POPC   C2B24512   3.566   4.832   8.255
 7306POPC   C3B24513   3.596   4.883   7.955
 7306POPC   C4B24514   3.638   4.808   7.655
 7307POPC   NC324515   5.132  20.632   9.455
 7307POPC   PO424516   5.140  20.610   9.155
 7307POPC   GL124517   5.085  20.616   8.855
 7307POPC   GL224518   5.231  20.679   8.855
 7307POPC   C1A24519   5.119  20.624   8.555
 7307POPC   D2A24520   5.100  20.585   8.255
 7307POPC   C3A24521   5.060  20.606   7.955
 7307POPC   C4A24522   5.122  20.616   7.655
 7307POPC   C1B24523   5.326  20.795   8.555
 7307POPC   C2B24524   5.249  20.762   8.255
 7307POPC   C3B24525   5.288  20.764   7.955
 7307POPC   C4B24526   5.312  20.741   7.655
 7308POPC   NC324527  26.859  24.514   9.455
 7308POPC   PO424528  26.828  24.531   9.155
 7308POPC   GL124529  26.835  24.515   8.855
 7308POPC   GL224530  26.885  24.483   8.855
 7308POPC   C1A24531  26.813  24.502   8.555
 7308POPC   D2A24532  26.779  24.516   8.255
 7308POPC   C3A24533  26.775  24.495   7.955
 7308POPC   C4A24534  26.807  24.491   7.655
 7308POPC   C1B24535  27.006  24.362   8.555
 7308POPC   C2B24536  27.039  24.408   8.255
 7308POPC   C3B24537  27.095  24.392   7.955
 7308POPC   C4B24538  27.093  24.358   7.655
 7309POPC   NC324539  24.498   8.150   9.455
 7309POPC   PO424540  24.448   8.237   9.155
 7309POPC   GL124541  24.473   8.158   8.855
 7309POPC   GL224542  24.624   8.161   8.855
 7309POPC   C1A24543  24.476   8.193   8.555
 7309POPC   D2A24544  24.520   8.173   8.255
 7309POPC   C3A24545  24.456   8.174   7.955
 7309POPC   C4A24546  24.473   8.180   7.655
 7309POPC   C1B24547  24.685   8.059   8.555
 7309POPC   C2B24548  24.690   8.059   8.255
 7309POPC   C3B24549  24.737   8.083   7.955
 7309POPC   C4B24550  24.741   8.124   7.655
 7310POPC   NC324551  24.446  19.046   9.455
 7310POPC   PO424552  24.474  19.087   9.155
 7310POPC   GL124553  24.494  19.090   8.855
 7310POPC   GL224554  24.508  18.964   8.855
 7310POPC   C1A24555  24.479  19.013   8.555
 7310POPC   D2A24556  24.465  19.056   8.255
 7310POPC   C3A24557  24.455  19.061   7.955
 7310POPC   C4A24558  24.520  19.083   7.655
 7310POPC   C1B24559  24.528  18.792   8.555
 7310POPC   C2B24560  24.498  18.821   8.255
 7310POPC   C3B24561  24.504  18.833   7.955
 7310POPC   C4B24562  24.529  18.830   7.655
 7311POPC   NC324563  44.639   3.504   9.455
 7311POPC   PO424564  44.652   3.515   9.155
 7311POPC   GL124565  44.615   3.511   8.855
 7311POPC   GL224566  44.727   3.438   8.855
 7311POPC   C1A24567  44.645   3.555   8.555
 7311POPC   D2A24568  44.613   3.590   8.255
 7311POPC   C3A24569  44.640   3.528   7.955
 7311POPC   C4A24570  44.621   3.577   7.655
 7311POPC   C1B24571  44.699   3.329   8.555
 7311POPC   C2B24572  44.753   3.349   8.255
 7311POPC   C3B24573  44.775   3.322   7.955
 7311POPC   C4B24574  44.714   3.355   7.655
 7312POPC   NC324575  24.454  25.218   9.455
 7312POPC   PO424576  24.532  25.255   9.155
 7312POPC   GL124577  24.527  25.312   8.855
 7312POPC   GL224578  24.504  25.375   8.855
 7312POPC   C1A24579  24.463  25.272   8.555
 7312POPC   D2A24580  24.519  25.305   8.255
 7312POPC   C3A24581  24.489  25.256   7.955
 7312POPC   C4A24582  24.524  25.287   7.655
 7312POPC   C1B24583  24.510  25.494   8.555
 7312POPC   C2B24584  24.536  25.558   8.255
 7312POPC   C3B24585  24.496  25.516   7.955
 7312POPC   C4B24586  24.538  25.542   7.655
 7313POPC   NC324587  15.132  20.573   9.455
 7313POPC   PO424588  15.170  20.605   9.155
 7313POPC   GL124589  15.143  20.575   8.855
 7313POPC   GL224590  15.167  20.739   8.855
 7313POPC   C1A24591  15.140  20.566   8.555
 7313POPC   D2A24592  15.144  20.588   8.255
 7313POPC   C3A24593  15.227  20.613   7.955
 7313POPC   C4A24594  15.132  20.593   7.655
 7313POPC   C1B24595  15.100  20.889   8.555
 7313POPC   C2B24596  15.051  20.823   8.255
 7313POPC   C3B24597  15.133  20.866   7.955
 7313POPC   C4B24598  15.078  20.887   7.655
 7314POPC   NC324599  38.467  19.054   9.455
 7314POPC   PO424600  38.472  19.097   9.155
 7314POPC   GL124601  38.433  19.087   8.855
 7314POPC   GL224602  38.569  19.190   8.855
 7314POPC   C1A24603  38.502  19.035   8.555
 7314POPC   D2A24604  38.443  19.069   8.255
 7314POPC   C3A24605  38.421  19.016   7.955
 7314POPC   C4A24606  38.418  19.056   7.655
 7314POPC   C1B24607  38.688  19.223   8.555
 7314POPC   C2B24608  38.629  19.205   8.255
 7314POPC   C3B24609  38.630  19.190   7.955
 7314POPC   C4B24610  38.657  19.253   7.655
 7315POPC   NC324611   3.588  16.706   9.455
 7315POPC   PO424612   3.538  16.699   9.155
 7315POPC   GL124613   3.576  16.716   8.855
 7315POPC   GL224614   3.615  16.652   8.855
 7315POPC   C1A24615   3.588  16.775   8.555
 7315POPC   D2A24616   3.537  16.760   8.255
 7315POPC   C3A24617   3.535  16.777   7.955
 7315POPC   C4A24618   3.504  16.690   7.655
 7315POPC   C1B24619   3.707  16.541   8.555
 7315POPC   C2B24620   3.690  16.574   8.255
 7315POPC   C3B24621   3.729  16.553   7.955
 7315POPC   C4B24622   3.714  16.618   7.655
 7316POPC   NC324623  12.857  40.832   9.455
 7316POPC   PO424624  12.862  40.769   9.155
 7316POPC   GL124625  12.898  40.787   8.855
 7316POPC   GL224626  13.007  40.822   8.855
 7316POPC   C1A24627  12.841  40.821   8.555
 7316POPC   D2A24628  12.860  40.762   8.255
 7316POPC   C3A24629  12.810  40.807   7.955
 7316POPC   C4A24630  12.813  40.741   7.655
 7316POPC   C1B24631  13.086  40.837   8.555
 7316POPC   C2B24632  13.128  40.766   8.255
 7316POPC   C3B24633  13.128  40.756   7.955
 7316POPC   C4B24634  13.112  40.832   7.655
 7317POPC   NC324635  20.588  17.466   9.455
 7317POPC   PO424636  20.588  17.523   9.155
 7317POPC   GL124637  20.590  17.461   8.855
 7317POPC   GL224638  20.573  17.635   8.855
 7317POPC   C1A24639  20.599  17.503   8.555
 7317POPC   D2A24640  20.660  17.485   8.255
 7317POPC   C3A24641  20.586  17.471   7.955
 7317POPC   C4A24642  20.633  17.461   7.655
 7317POPC   C1B24643  20.538  17.712   8.555
 7317POPC   C2B24644  20.489  17.752   8.255
 7317POPC   C3B24645  20.484  17.737   7.955
 7317POPC   C4B24646  20.515  17.731   7.655
 7318POPC   NC324647  40.055  36.098   9.455
 7318POPC   PO424648  39.959  36.160   9.155
 7318POPC   GL124649  40.002  36.100   8.855
 7318POPC   GL224650  40.143  36.119   8.855
 7318POPC   C1A24651  39.996  36.086   8.555
 7318POPC   D2A24652  40.042  36.128   8.255
 7318POPC   C3A24653  39.980  36.162   7.955
 7318POPC   C4A24654  39.990  36.087   7.655
 7318POPC   C1B24655  40.277  36.053   8.555
 7318POPC   C2B24656  40.269  36.059   8.255
 7318POPC   C3B24657  40.204  36.006   7.955
 7318POPC   C4B24658  40.265  36.075   7.655
 7319POPC   NC324659  18.311  15.924   9.455
 7319POPC   PO424660  18.267  15.916   9.155
 7319POPC   GL124661  18.247  15.963   8.855
 7319POPC   GL224662  18.171  15.929   8.855
 7319POPC   C1A24663  18.240  15.929   8.555
 7319POPC   D2A24664  18.299  15.923   8.255
 7319POPC   C3A24665  18.299  15.961   7.955
 7319POPC   C4A24666  18.281  15.935   7.655
 7319POPC   C1B24667  18.038  15.990   8.555
 7319POPC   C2B24668  18.012  15.981   8.255
 7319POPC   C3B24669  18.078  15.949   7.955
 7319POPC   C4B24670  18.004  15.966   7.655
 7320POPC   NC324671  25.263  38.500   9.455
 7320POPC   PO424672  25.313  38.435   9.155
 7320POPC   GL124673  25.260  38.489   8.855
 7320POPC   GL224674  25.262  38.561   8.855
 7320POPC   C1A24675  25.290  38.412   8.555
 7320POPC   D2A24676  25.223  38.409   8.255
 7320POPC   C3A24677  25.283  38.472   7.955
 7320POPC   C4A24678  25.273  38.495   7.655
 7320POPC   C1B24679  25.164  38.676   8.555
 7320POPC   C2B24680  25.220  38.643   8.255
 7320POPC   C3B24681  25.225  38.662   7.955
 7320POPC   C4B24682  25.181  38.727   7.655
 7321POPC   NC324683  36.173  12.863   9.455
 7321POPC   PO424684  36.173  12.860   9.155
 7321POPC   GL124685  36.122  12.822   8.855
 7321POPC   GL224686  36.012  12.791   8.855
 7321POPC   C1A24687  36.124  12.866   8.555
 7321POPC   D2A24688  36.118  12.862   8.255
 7321POPC   C3A24689  36.149  12.851   7.955
 7321POPC   C4A24690  36.120  12.880   7.655
 7321POPC   C1B24691  35.973  12.648   8.555
 7321POPC   C2B24692  35.945  12.680   8.255
 7321POPC   C3B24693  35.983  12.703   7.955
 7321POPC   C4B24694  35.982  12.656   7.655
 7322POPC   NC324695  35.333   1.194   9.455
 7322POPC   PO424696  35.333   1.195   9.155
 7322POPC   GL124697  35.388   1.252   8.855
 7322POPC   GL224698  35.327   1.310   8.855
 7322POPC   C1A24699  35.311   1.212   8.555
 7322POPC   D2A24700  35.385   1.211   8.255
 7322POPC   C3A24701  35.304   1.240   7.955
 7322POPC   C4A24702  35.342   1.225   7.655
 7322POPC   C1B24703  35.265   1.486   8.555
 7322POPC   C2B24704  35.340   1.455   8.255
 7322POPC   C3B24705  35.356   1.433   7.955
 7322POPC   C4B24706  35.276   1.489   7.655
 7323POPC   NC324707  35.312  18.242   9.455
 7323POPC   PO424708  35.391  18.249   9.155
 7323POPC   GL124709  35.341  18.236   8.855
 7323POPC   GL224710  35.512  18.291   8.855
 7323POPC   C1A24711  35.354  18.272   8.555
 7323POPC   D2A24712  35.325  18.252   8.255
 7323POPC   C3A24713  35.382  18.305   7.955
 7323POPC   C4A24714  35.339  18.282   7.655
 7323POPC   C1B24715  35.568  18.156   8.555
 7323POPC   C2B24716  35.560  18.229   8.255
 7323POPC   C3B24717  35.602  18.224   7.955
 7323POPC   C4B24718  35.588  18.162   7.655
 7324POPC   NC324719  26.817  33.777   9.455
 7324POPC   PO424720  26.770  33.798   9.155
 7324POPC   GL124721  26.779  33.818   8.855
 7324POPC   GL224722  26.894  33.856   8.855
 7324POPC   C1A24723  26.827  33.770   8.555
 7324POPC   D2A24724  26.771  33.752   8.255
 7324POPC   C3A24725  26.815  33.822   7.955
 7324POPC   C4A24726  26.845  33.780   7.655
 7324POPC   C1B24727  27.028  33.980   8.555
 7324POPC   C2B24728  26.990  33.964   8.255
 7324POPC   C3B24729  26.950  33.990   7.955
 7324POPC   C4B24730  26.990  33.981   7.655
 7325POPC   NC324731   8.179   3.566   9.455
 7325POPC   PO424732   8.209   3.586   9.155
 7325POPC   GL124733   8.200   3.588   8.855
 7325POPC   GL224734   8.201   3.386   8.855
 7325POPC   C1A24735   8.152   3.555   8.555
 7325POPC   D2A24736   8.220   3.492   8.255
 7325POPC   C3A24737   8.180   3.527   7.955
 7325POPC   C4A24738   8.234   3.583   7.655
 7325POPC   C1B24739   8.302   3.335   8.555
 7325POPC   C2B24740   8.293   3.336   8.255
 7325POPC   C3B24741   8.248   3.301   7.955
 7325POPC   C4B24742   8.250   3.341   7.655
 7326POPC   NC324743  23.699  34.543   9.455
 7326POPC   PO424744  23.678  34.556   9.155
 7326POPC   GL124745  23.665  34.574   8.855
 7326POPC   GL224746  23.718  34.744   8.855
 7326POPC   C1A24747  23.699  34.557   8.555
 7326POPC   D2A24748  23.716  34.553   8.255
 7326POPC   C3A24749  23.733  34.537   7.955
 7326POPC   C4A24750  23.746  34.563   7.655
 7326POPC   C1B24751  23.685  34.861   8.555
 7326POPC   C2B24752  23.776  34.793   8.255
 7326POPC   C3B24753  23.748  34.865   7.955
 7326POPC   C4B24754  23.702  34.790   7.655
 7327POPC   NC324755  24.442  14.414   9.455
 7327POPC   PO424756  24.441  14.396   9.155
 7327POPC   GL124757  24.468  14.452   8.855
 7327POPC   GL224758  24.426  14.540   8.855
 7327POPC   C1A24759  24.521  14.429   8.555
 7327POPC   D2A24760  24.457  14.422   8.255
 7327POPC   C3A24761  24.449  14.418   7.955
 7327POPC   C4A24762  24.515  14.440   7.655
 7327POPC   C1B24763  24.495  14.683   8.555
 7327POPC   C2B24764  24.480  14.651   8.255
 7327POPC   C3B24765  24.454  14.688   7.955
 7327POPC   C4B24766  24.499  14.673   7.655
 7328POPC   NC324767  30.697   5.078   9.455
 7328POPC   PO424768  30.732   5.128   9.155
 7328POPC   GL124769  30.647   5.060   8.855
 7328POPC   GL224770  30.794   5.186   8.855
 7328POPC   C1A24771  30.682   5.053   8.555
 7328POPC   D2A24772  30.689   5.089   8.255
 7328POPC   C3A24773  30.746   5.043   7.955
 7328POPC   C4A24774  30.651   5.051   7.655
 7328POPC   C1B24775  30.871   5.192   8.555
 7328POPC   C2B24776  30.941   5.190   8.255
 7328POPC   C3B24777  30.856   5.223   7.955
 7328POPC   C4B24778  30.863   5.227   7.655
 7329POPC   NC324779  33.036   8.997   9.455
 7329POPC   PO424780  33.030   8.940   9.155
 7329POPC   GL124781  33.034   8.940   8.855
 7329POPC   GL224782  32.961   8.840   8.855
 7329POPC   C1A24783  33.072   9.010   8.555
 7329POPC   D2A24784  33.045   8.993   8.255
 7329POPC   C3A24785  33.027   9.002   7.955
 7329POPC   C4A24786  32.991   8.959   7.655
 7329POPC   C1B24787  32.984   8.729   8.555
 7329POPC   C2B24788  32.996   8.724   8.255
 7329POPC   C3B24789  33.009   8.701   7.955
 7329POPC   C4B24790  33.005   8.729   7.655
 7330POPC   NC324791  19.017  25.993   9.455
 7330POPC   PO424792  19.045  26.039   9.155
 7330POPC   GL124793  19.081  26.075   8.855
 7330POPC   GL224794  19.208  26.040   8.855
 7330POPC   C1A24795  19.089  26.010   8.555
 7330POPC   D2A24796  19.011  26.029   8.255
 7330POPC   C3A24797  19.011  26.074   7.955
 7330POPC   C4A24798  19.039  26.007   7.655
 7330POPC   C1B24799  19.264  25.983   8.555
 7330POPC   C2B24800  19.325  25.963   8.255
 7330POPC   C3B24801  19.315  25.951   7.955
 7330POPC   C4B24802  19.279  25.958   7.655
 7331POPC   NC324803  36.908  26.830   9.455
 7331POPC   PO424804  36.947  26.849   9.155
 7331POPC   GL124805  36.939  26.865   8.855
 7331POPC   GL224806  37.005  26.713   8.855
 7331POPC   C1A24807  36.900  26.791   8.555
 7331POPC   D2A24808  36.904  26.787   8.255
 7331POPC   C3A24809  36.860  26.848   7.955
 7331POPC   C4A24810  36.914  26.787   7.655
 7331POPC   C1B24811  37.076  26.630   8.555
 7331POPC   C2B24812  37.061  26.578   8.255
 7331POPC   C3B24813  36.998  26.565   7.955
 7331POPC   C4B24814  37.045  26.581   7.655
 7332POPC   NC324815  31.506  41.569   9.455
 7332POPC   PO424816  31.498  41.554   9.155
 7332POPC   GL124817  31.502  41.529   8.855
 7332POPC   GL224818  31.401  41.632   8.855
 7332POPC   C1A24819  31.462  41.581   8.555
 7332POPC   D2A24820  31.432  41.539   8.255
 7332POPC   C3A24821  31.452  41.597   7.955
 7332POPC   C4A24822  31.456  41.552   7.655
 7332POPC   C1B24823  31.345  41.730   8.555
 7332POPC   C2B24824  31.333  41.820   8.255
 7332POPC   C3B24825  31.383  41.824   7.955
 7332POPC   C4B24826  31.382  41.737   7.655
 7333POPC   NC324827  16.693  28.336   9.455
 7333POPC   PO424828  16.774  28.416   9.155
 7333POPC   GL124829  16.722  28.321   8.855
 7333POPC   GL224830  16.750  28.514   8.855
 7333POPC   C1A24831  16.778  28.321   8.555
 7333POPC   D2A24832  16.697  28.400   8.255
 7333POPC   C3A24833  16.765  28.404   7.955
 7333POPC   C4A24834  16.742  28.346   7.655
 7333POPC   C1B24835  16.743  28.574   8.555
 7333POPC   C2B24836  16.684  28.627   8.255
 7333POPC   C3B24837  16.742  28.655   7.955
 7333POPC   C4B24838  16.760  28.570   7.655
 7334POPC   NC324839  41.570  32.268   9.455
 7334POPC   PO424840  41.559  32.295   9.155
 7334POPC   GL124841  41.525  32.291   8.855
 7334POPC   GL224842  41.444  32.244   8.855
 7334POPC   C1A24843  41.574  32.283   8.555
 7334POPC   D2A24844  41.550  32.209   8.255
 7334POPC   C3A24845  41.516  32.231   7.955
 7334POPC   C4A24846  41.576  32.290   7.655
 7334POPC   C1B24847  41.319  32.297   8.555
 7334POPC   C2B24848  41.280  32.295   8.255
 7334POPC   C3B24849  41.267  32.263   7.955
 7334POPC   C4B24850  41.264  32.234   7.655
 7335POPC   NC324851  42.377  40.756   9.455
 7335POPC   PO424852  42.285  40.758   9.155
 7335POPC   GL124853  42.298  40.819   8.855
 7335POPC   GL224854  42.233  40.793   8.855
 7335POPC   C1A24855  42.366  40.789   8.555
 7335POPC   D2A24856  42.364  40.790   8.255
 7335POPC   C3A24857  42.363  40.825   7.955
 7335POPC   C4A24858  42.298  40.799   7.655
 7335POPC   C1B24859  42.141  40.807   8.555
 7335POPC   C2B24860  42.111  40.813   8.255
 7335POPC   C3B24861  42.080  40.876   7.955
 7335POPC   C4B24862  42.063  40.852   7.655
 7336POPC   NC324863   9.014  28.329   9.455
 7336POPC   PO424864   8.998  28.392   9.155
 7336POPC   GL124865   9.000  28.335   8.855
 7336POPC   GL224866   8.889  28.321   8.855
 7336POPC   C1A24867   8.948  28.360   8.555
 7336POPC   D2A24868   9.022  28.332   8.255
 7336POPC   C3A24869   8.926  28.343   7.955
 7336POPC   C4A24870   8.926  28.368   7.655
 7336POPC   C1B24871   8.743  28.292   8.555
 7336POPC   C2B24872   8.713  28.248   8.255
 7336POPC   C3B24873   8.713  28.256   7.955
 7336POPC   C4B24874   8.721  28.269   7.655
 7337POPC   NC324875   9.740  39.968   9.455
 7337POPC   PO424876   9.767  40.018   9.155
 7337POPC   GL124877   9.708  40.024   8.855
 7337POPC   GL224878   9.697  40.132   8.855
 7337POPC   C1A24879   9.727  40.031   8.555
 7337POPC   D2A24880   9.744  40.017   8.255
 7337POPC   C3A24881   9.718  40.026   7.955
 7337POPC   C4A24882   9.718  39.962   7.655
 7337POPC   C1B24883   9.652  40.237   8.555
 7337POPC   C2B24884   9.633  40.262   8.255
 7337POPC   C3B24885   9.626  40.240   7.955
 7337POPC   C4B24886   9.671  40.217   7.655
 7338POPC   NC324887   0.430  33.835   9.455
 7338POPC   PO424888   0.476  33.782   9.155
 7338POPC   GL124889   0.431  33.809   8.855
 7338POPC   GL224890   0.330  33.863   8.855
 7338POPC   C1A24891   0.427  33.784   8.555
 7338POPC   D2A24892   0.403  33.846   8.255
 7338POPC   C3A24893   0.443  33.839   7.955
 7338POPC   C4A24894   0.483  33.784   7.655
 7338POPC   C1B24895   0.247  34.029   8.555
 7338POPC   C2B24896   0.261  33.960   8.255
 7338POPC   C3B24897   0.291  33.938   7.955
 7338POPC   C4B24898   0.292  33.934   7.655
 7339POPC   NC324899  34.593  21.421   9.455
 7339POPC   PO424900  34.615  21.340   9.155
 7339POPC   GL124901  34.587  21.362   8.855
 7339POPC   GL224902  34.497  21.360   8.855
 7339POPC   C1A24903  34.589  21.353   8.555
 7339POPC   D2A24904  34.534  21.373   8.255
 7339POPC   C3A24905  34.585  21.358   7.955
 7339POPC   C4A24906  34.560  21.384   7.655
 7339POPC   C1B24907  34.287  21.349   8.555
 7339POPC   C2B24908  34.348  21.353   8.255
 7339POPC   C3B24909  34.369  21.373   7.955
 7339POPC   C4B24910  34.370  21.327   7.655
 7340POPC   NC324911   4.343  13.585   9.455
 7340POPC   PO424912   4.351  13.603   9.155
 7340POPC   GL124913   4.340  13.632   8.855
 7340POPC   GL224914   4.417  13.662   8.855
 7340POPC   C1A24915   4.358  13.653   8.555
 7340POPC   D2A24916   4.367  13.610   8.255
 7340POPC   C3A24917   4.304  13.623   7.955
 7340POPC   C4A24918   4.324  13.676   7.655
 7340POPC   C1B24919   4.564  13.655   8.555
 7340POPC   C2B24920   4.524  13.661   8.255
 7340POPC   C3B24921   4.561  13.575   7.955
 7340POPC   C4B24922   4.575  13.622   7.655
 7341POPC   NC324923  26.771  27.584   9.455
 7341POPC   PO424924  26.804  27.580   9.155
 7341POPC   GL124925  26.772  27.621   8.855
 7341POPC   GL224926  26.738  27.541   8.855
 7341POPC   C1A24927  26.814  27.604   8.555
 7341POPC   D2A24928  26.859  27.555   8.255
 7341POPC   C3A24929  26.805  27.628   7.955
 7341POPC   C4A24930  26.788  27.609   7.655
 7341POPC   C1B24931  26.597  27.536   8.555
 7341POPC   C2B24932  26.554  27.518   8.255
 7341POPC   C3B24933  26.603  27.524   7.955
 7341POPC   C4B24934  26.581  27.570   7.655
 7342POPC   NC324935  18.244  43.089   9.455
 7342POPC   PO424936  18.246  43.064   9.155
 7342POPC   GL124937  18.284  43.080   8.855
 7342POPC   GL224938  18.288  42.956   8.855
 7342POPC   C1A24939  18.292  43.101   8.555
 7342POPC   D2A24940  18.260  43.069   8.255
 7342POPC   C3A24941  18.260  43.122   7.955
 7342POPC   C4A24942  18.317  43.126   7.655
 7342POPC   C1B24943  18.284  42.899   8.555
 7342POPC   C2B24944  18.192  42.862   8.255
 7342POPC   C3B24945  18.250  42.914   7.955
 7342POPC   C4B24946  18.200  42.875   7.655
 7343POPC   NC324947  24.512   9.727   9.455
 7343POPC   PO424948  24.537   9.773   9.155
 7343POPC   GL124949  24.453   9.727   8.855
 7343POPC   GL224950  24.499   9.594   8.855
 7343POPC   C1A24951  24.498   9.763   8.555
 7343POPC   D2A24952  24.466   9.769   8.255
 7343POPC   C3A24953  24.509   9.727   7.955
 7343POPC   C4A24954  24.485   9.774   7.655
 7343POPC   C1B24955  24.577   9.500   8.555
 7343POPC   C2B24956  24.634   9.562   8.255
 7343POPC   C3B24957  24.582   9.510   7.955
 7343POPC   C4B24958  24.570   9.559   7.655
 7344POPC   NC324959  32.279   5.848   9.455
 7344POPC   PO424960  32.238   5.867   9.155
 7344POPC   GL124961  32.208   5.908   8.855
 7344POPC   GL224962  32.179   5.931   8.855
 7344POPC   C1A24963  32.286   5.855   8.555
 7344POPC   D2A24964  32.286   5.860   8.255
 7344POPC   C3A24965  32.296   5.904   7.955
 7344POPC   C4A24966  32.213   5.854   7.655
 7344POPC   C1B24967  31.977   5.939   8.555
 7344POPC   C2B24968  31.989   5.917   8.255
 7344POPC   C3B24969  32.044   5.913   7.955
 7344POPC   C4B24970  31.997   5.986   7.655
 7345POPC   NC324971  14.434   1.203   9.455
 7345POPC   PO424972  14.388   1.237   9.155
 7345POPC   GL124973  14.368   1.254   8.855
 7345POPC   GL224974  14.407   1.381   8.855
 7345POPC   C1A24975  14.410   1.204   8.555
 7345POPC   D2A24976  14.442   1.255   8.255
 7345POPC   C3A24977  14.414   1.239   7.955
 7345POPC   C4A24978  14.441   1.259   7.655
 7345POPC   C1B24979  14.446   1.412   8.555
 7345POPC   C2B24980  14.487   1.494   8.255
 7345POPC   C3B24981  14.513   1.418   7.955
 7345POPC   C4B24982  14.477   1.404   7.655
 7346POPC   NC324983  41.569  12.078   9.455
 7346POPC   PO424984  41.584  12.090   9.155
 7346POPC   GL124985  41.517  12.116   8.855
 7346POPC   GL224986  41.615  11.992   8.855
 7346POPC   C1A24987  41.532  12.078   8.555
 7346POPC   D2A24988  41.541  12.075   8.255
 7346POPC   C3A24989  41.559  12.110   7.955
 7346POPC   C4A24990  41.593  12.093   7.655
 7346POPC   C1B24991  41.739  11.913   8.555
 7346POPC   C2B24992  41.756  11.924   8.255
 7346POPC   C3B24993  41.736  11.882   7.955
 7346POPC   C4B24994  41.733  11.931   7.655
 7347POPC   NC324995  26.771  19.014   9.455
 7347POPC   PO424996  26.839  19.082   9.155
 7347POPC   GL124997  26.809  19.101   8.855
 7347POPC   GL224998  26.715  19.011   8.855
 7347POPC   C1A24999  26.778  19.081   8.555
 7347POPC   D2A25000  26.841  19.100   8.255
 7347POPC   C3A25001  26.828  19.041   7.955
 7347POPC   C4A25002  26.780  19.052   7.655
 7347POPC   C1B25003  26.683  18.850   8.555
 7347POPC   C2B25004  26.652  18.870   8.255
 7347POPC   C3B25005  26.655  18.884   7.955
 7347POPC   C4B25006  26.687  18.850   7.655
 7348POPC   NC325007  11.323   2.761   9.455
 7348POPC   PO425008  11.296   2.769   9.155
 7348POPC   GL125009  11.294   2.789   8.855
 7348POPC   GL225010  11.381   2.698   8.855
 7348POPC   C1A25011  11.292   2.740   8.555
 7348POPC   D2A25012  11.315   2.719   8.255
 7348POPC   C3A25013  11.323   2.771   7.955
 7348POPC   C4A25014  11.334   2.780   7.655
 7348POPC   C1B25015  11.502   2.682   8.555
 7348POPC   C2B25016  11.554   2.757   8.255
 7348POPC   C3B25017  11.588   2.764   7.955
 7348POPC   C4B25018  11.584   2.712   7.655
 7349POPC   NC325019  18.288  22.909   9.455
 7349POPC   PO425020  18.289  22.933   9.155
 7349POPC   GL125021  18.331  22.960   8.855
 7349POPC   GL225022  18.354  22.885   8.855
 7349POPC   C1A25023  18.262  22.971   8.555
 7349POPC   D2A25024  18.272  22.933   8.255
 7349POPC   C3A25025  18.277  22.911   7.955
 7349POPC   C4A25026  18.244  22.913   7.655
 7349POPC   C1B25027  18.469  22.751   8.555
 7349POPC   C2B25028  18.529  22.796   8.255
 7349POPC   C3B25029  18.512  22.755   7.955
 7349POPC   C4B25030  18.440  22.771   7.655
 7350POPC   NC325031   9.715  29.944   9.455
 7350POPC   PO425032   9.738  29.904   9.155
 7350POPC   GL125033   9.797  29.901   8.855
 7350POPC   GL225034   9.671  29.790   8.855
 7350POPC   C1A25035   9.784  29.942   8.555
 7350POPC   D2A25036   9.737  29.916   8.255
 7350POPC   C3A25037   9.754  29.935   7.955
 7350POPC   C4A25038   9.701  29.963   7.655
 7350POPC   C1B25039   9.611  29.720   8.555
 7350POPC   C2B25040   9.643  29.683   8.255
 7350POPC   C3B25041   9.610  29.751   7.955
 7350POPC   C4B25042   9.636  29.734   7.655
 7351POPC   NC325043  15.167  33.062   9.455
 7351POPC   PO425044  15.181  33.027   9.155
 7351POPC   GL125045  15.213  33.030   8.855
 7351POPC   GL225046  15.099  32.891   8.855
 7351POPC   C1A25047  15.175  32.996   8.555
 7351POPC   D2A25048  15.204  33.037   8.255
 7351POPC   C3A25049  15.153  33.050   7.955
 7351POPC   C4A25050  15.188  33.028   7.655
 7351POPC   C1B25051  15.051  32.806   8.555
 7351POPC   C2B25052  15.067  32.816   8.255
 7351POPC   C3B25053  15.009  32.853   7.955
 7351POPC   C4B25054  15.038  32.803   7.655
 7352POPC   NC325055  34.606  25.277   9.455
 7352POPC   PO425056  34.594  25.228   9.155
 7352POPC   GL125057  34.573  25.270   8.855
 7352POPC   GL225058  34.447  25.235   8.855
 7352POPC   C1A25059  34.616  25.251   8.555
 7352POPC   D2A25060  34.573  25.285   8.255
 7352POPC   C3A25061  34.609  25.282   7.955
 7352POPC   C4A25062  34.580  25.297   7.655
 7352POPC   C1B25063  34.289  25.306   8.555
 7352POPC   C2B25064  34.285  25.278   8.255
 7352POPC   C3B25065  34.278  25.329   7.955
 7352POPC   C4B25066  34.281  25.290   7.655
 7353POPC   NC325067  14.443   4.347   9.455
 7353POPC   PO425068  14.387   4.326   9.155
 7353POPC   GL125069  14.371   4.324   8.855
 7353POPC   GL225070  14.553   4.340   8.855
 7353POPC   C1A25071  14.415   4.359   8.555
 7353POPC   D2A25072  14.403   4.277   8.255
 7353POPC   C3A25073  14.364   4.297   7.955
 7353POPC   C4A25074  14.435   4.319   7.655
 7353POPC   C1B25075  14.685   4.395   8.555
 7353POPC   C2B25076  14.693   4.320   8.255
 7353POPC   C3B25077  14.619   4.395   7.955
 7353POPC   C4B25078  14.623   4.371   7.655
 7354POPC   NC325079  26.012  27.603   9.455
 7354POPC   PO425080  26.043  27.640   9.155
 7354POPC   GL125081  26.086  27.598   8.855
 7354POPC   GL225082  25.959  27.501   8.855
 7354POPC   C1A25083  26.032  27.571   8.555
 7354POPC   D2A25084  26.040  27.600   8.255
 7354POPC   C3A25085  26.003  27.591   7.955
 7354POPC   C4A25086  26.085  27.632   7.655
 7354POPC   C1B25087  25.902  27.401   8.555
 7354POPC   C2B25088  25.871  27.380   8.255
 7354POPC   C3B25089  25.813  27.460   7.955
 7354POPC   C4B25090  25.835  27.461   7.655
 7355POPC   NC325091  37.710  36.911   9.455
 7355POPC   PO425092  37.646  36.945   9.155
 7355POPC   GL125093  37.633  36.920   8.855
 7355POPC   GL225094  37.539  36.915   8.855
 7355POPC   C1A25095  37.664  36.888   8.555
 7355POPC   D2A25096  37.649  36.887   8.255
 7355POPC   C3A25097  37.664  36.862   7.955
 7355POPC   C4A25098  37.663  36.859   7.655
 7355POPC   C1B25099  37.492  37.056   8.555
 7355POPC   C2B25100  37.483  36.989   8.255
 7355POPC   C3B25101  37.426  37.039   7.955
 7355POPC   C4B25102  37.487  36.976   7.655
 7356POPC   NC325103  39.262  28.345   9.455
 7356POPC   PO425104  39.217  28.414   9.155
 7356POPC   GL125105  39.197  28.338   8.855
 7356POPC   GL225106  39.282  28.479   8.855
 7356POPC   C1A25107  39.229  28.398   8.555
 7356POPC   D2A25108  39.236  28.397   8.255
 7356POPC   C3A25109  39.276  28.360   7.955
 7356POPC   C4A25110  39.247  28.387   7.655
 7356POPC   C1B25111  39.364  28.563   8.555
 7356POPC   C2B25112  39.361  28.580   8.255
 7356POPC   C3B25113  39.329  28.581   7.955
 7356POPC   C4B25114  39.391  28.535   7.655
 7357POPC   NC325115   2.806  13.591   9.455
 7357POPC   PO425116   2.760  13.641   9.155
 7357POPC   GL125117   2.751  13.600   8.855
 7357POPC   GL225118   2.858  13.563   8.855
 7357POPC   C1A25119   2.810  13.584   8.555
 7357POPC   D2A25120   2.755  13.661   8.255
 7357POPC   C3A25121   2.761  13.600   7.955
 7357POPC   C4A25122   2.731  13.646   7.655
 7357POPC   C1B25123   3.011  13.507   8.555
 7357POPC   C2B25124   3.003  13.455   8.255
 7357POPC   C3B25125   2.988  13.525   7.955
 7357POPC   C4B25126   2.967  13.448   7.655
 7358POPC   NC325127   4.271  19.821   9.455
 7358POPC   PO425128   4.332  19.826   9.155
 7358POPC   GL125129   4.331  19.802   8.855
 7358POPC   GL225130   4.248  19.869   8.855
 7358POPC   C1A25131   4.294  19.807   8.555
 7358POPC   D2A25132   4.270  19.805   8.255
 7358POPC   C3A25133   4.336  19.786   7.955
 7358POPC   C4A25134   4.357  19.830   7.655
 7358POPC   C1B25135   4.060  19.948   8.555
 7358POPC   C2B25136   4.073  19.889   8.255
 7358POPC   C3B25137   4.094  19.940   7.955
 7358POPC   C4B25138   4.115  19.886   7.655
 7359POPC   NC325139   5.894  15.951   9.455
 7359POPC   PO425140   5.896  15.995   9.155
 7359POPC   GL125141   5.821  15.943   8.855
 7359POPC   GL225142   5.953  16.053   8.855
 7359POPC   C1A25143   5.878  15.986   8.555
 7359POPC   D2A25144   5.861  15.970   8.255
 7359POPC   C3A25145   5.846  15.964   7.955
 7359POPC   C4A25146   5.911  15.973   7.655
 7359POPC   C1B25147   6.073  16.150   8.555
 7359POPC   C2B25148   6.003  16.121   8.255
 7359POPC   C3B25149   6.044  16.112   7.955
 7359POPC   C4B25150   6.010  16.120   7.655
 7360POPC   NC325151  22.918  26.064   9.455
 7360POPC   PO425152  22.960  26.008   9.155
 7360POPC   GL125153  22.972  26.007   8.855
 7360POPC   GL225154  22.816  25.950   8.855
 7360POPC   C1A25155  22.942  26.042   8.555
 7360POPC   D2A25156  22.898  26.021   8.255
 7360POPC   C3A25157  22.986  26.085   7.955
 7360POPC   C4A25158  22.931  26.083   7.655
 7360POPC   C1B25159  22.770  25.857   8.555
 7360POPC   C2B25160  22.754  25.804   8.255
 7360POPC   C3B25161  22.809  25.881   7.955
 7360POPC   C4B25162  22.775  25.835   7.655
 7361POPC   NC325163  35.382  41.592   9.455
 7361POPC   PO425164  35.395  41.520   9.155
 7361POPC   GL125165  35.339  41.531   8.855
 7361POPC   GL225166  35.448  41.514   8.855
 7361POPC   C1A25167  35.325  41.562   8.555
 7361POPC   D2A25168  35.303  41.548   8.255
 7361POPC   C3A25169  35.329  41.530   7.955
 7361POPC   C4A25170  35.320  41.530   7.655
 7361POPC   C1B25171  35.560  41.525   8.555
 7361POPC   C2B25172  35.555  41.540   8.255
 7361POPC   C3B25173  35.622  41.573   7.955
 7361POPC   C4B25174  35.645  41.549   7.655
 7362POPC   NC325175  12.040  29.117   9.455
 7362POPC   PO425176  12.106  29.146   9.155
 7362POPC   GL125177  12.114  29.144   8.855
 7362POPC   GL225178  12.105  29.012   8.855
 7362POPC   C1A25179  12.076  29.135   8.555
 7362POPC   D2A25180  12.117  29.115   8.255
 7362POPC   C3A25181  12.108  29.175   7.955
 7362POPC   C4A25182  12.036  29.160   7.655
 7362POPC   C1B25183  12.144  28.941   8.555
 7362POPC   C2B25184  12.129  28.894   8.255
 7362POPC   C3B25185  12.114  28.893   7.955
 7362POPC   C4B25186  12.079  28.939   7.655
 7363POPC   NC325187  21.411  31.427   9.455
 7363POPC   PO425188  21.421  31.431   9.155
 7363POPC   GL125189  21.422  31.508   8.855
 7363POPC   GL225190  21.291  31.470   8.855
 7363POPC   C1A25191  21.349  31.441   8.555
 7363POPC   D2A25192  21.405  31.451   8.255
 7363POPC   C3A25193  21.374  31.457   7.955
 7363POPC   C4A25194  21.402  31.446   7.655
 7363POPC   C1B25195  21.135  31.405   8.555
 7363POPC   C2B25196  21.109  31.479   8.255
 7363POPC   C3B25197  21.178  31.415   7.955
 7363POPC   C4B25198  21.157  31.477   7.655
 7364POPC   NC325199  22.146  22.927   9.455
 7364POPC   PO425200  22.130  22.945   9.155
 7364POPC   GL125201  22.135  22.959   8.855
 7364POPC   GL225202  22.135  23.097   8.855
 7364POPC   C1A25203  22.171  22.960   8.555
 7364POPC   D2A25204  22.174  22.954   8.255
 7364POPC   C3A25205  22.164  22.958   7.955
 7364POPC   C4A25206  22.185  22.961   7.655
 7364POPC   C1B25207  22.138  23.237   8.555
 7364POPC   C2B25208  22.220  23.212   8.255
 7364POPC   C3B25209  22.166  23.209   7.955
 7364POPC   C4B25210  22.146  23.193   7.655
 7365POPC   NC325211   6.608  21.388   9.455
 7365POPC   PO425212   6.663  21.419   9.155
 7365POPC   GL125213   6.672  21.349   8.855
 7365POPC   GL225214   6.528  21.349   8.855
 7365POPC   C1A25215   6.667  21.428   8.555
 7365POPC   D2A25216   6.600  21.400   8.255
 7365POPC   C3A25217   6.680  21.431   7.955
 7365POPC   C4A25218   6.691  21.343   7.655
 7365POPC   C1B25219   6.361  21.352   8.555
 7365POPC   C2B25220   6.372  21.337   8.255
 7365POPC   C3B25221   6.354  21.354   7.955
 7365POPC   C4B25222   6.420  21.378   7.655
 7366POPC   NC325223   9.757  44.689   9.455
 7366POPC   PO425224   9.786  44.670   9.155
 7366POPC   GL125225   9.767  44.694   8.855
 7366POPC   GL225226   9.605  44.707   8.855
 7366POPC   C1A25227   9.725  44.671   8.555
 7366POPC   D2A25228   9.764  44.628   8.255
 7366POPC   C3A25229   9.724  44.700   7.955
 7366POPC   C4A25230   9.734  44.678   7.655
 7366POPC   C1B25231   9.489  44.693   8.555
 7366POPC   C2B25232   9.479  44.660   8.255
 7366POPC   C3B25233   9.545  44.695   7.955
 7366POPC   C4B25234   9.461  44.691   7.655
 7367POPC   NC325235  19.014  38.453   9.455
 7367POPC   PO425236  19.015  38.433   9.155
 7367POPC   GL125237  19.093  38.413   8.855
 7367POPC   GL225238  18.939  38.351   8.855
 7367POPC   C1A25239  19.042  38.441   8.555
 7367POPC   D2A25240  19.059  38.486   8.255
 7367POPC   C3A25241  19.030  38.454   7.955
 7367POPC   C4A25242  19.027  38.452   7.655
 7367POPC   C1B25243  18.899  38.306   8.555
 7367POPC   C2B25244  18.868  38.339   8.255
 7367POPC   C3B25245  18.815  38.270   7.955
 7367POPC   C4B25246  18.910  38.337   7.655
 7368POPC   NC325247  26.014  37.722   9.455
 7368POPC   PO425248  25.999  37.645   9.155
 7368POPC   GL125249  26.020  37.665   8.855
 7368POPC   GL225250  25.920  37.668   8.855
 7368POPC   C1A25251  26.078  37.700   8.555
 7368POPC   D2A25252  26.057  37.642   8.255
 7368POPC   C3A25253  26.065  37.639   7.955
 7368POPC   C4A25254  26.048  37.640   7.655
 7368POPC   C1B25255  25.781  37.776   8.555
 7368POPC   C2B25256  25.814  37.717   8.255
 7368POPC   C3B25257  25.812  37.688   7.955
 7368POPC   C4B25258  25.841  37.708   7.655
 7369POPC   NC325259  33.022   9.770   9.455
 7369POPC   PO425260  32.977   9.786   9.155
 7369POPC   GL125261  32.980   9.709   8.855
 7369POPC   GL225262  32.905   9.673   8.855
 7369POPC   C1A25263  33.011   9.720   8.555
 7369POPC   D2A25264  32.979   9.749   8.255
 7369POPC   C3A25265  32.987   9.722   7.955
 7369POPC   C4A25266  32.994   9.794   7.655
 7369POPC   C1B25267  32.782   9.588   8.555
 7369POPC   C2B25268  32.830   9.557   8.255
 7369POPC   C3B25269  32.799   9.598   7.955
 7369POPC   C4B25270  32.814   9.589   7.655
 7370POPC   NC325271  17.482  37.693   9.455
 7370POPC   PO425272  17.489  37.720   9.155
 7370POPC   GL125273  17.494  37.654   8.855
 7370POPC   GL225274  17.342  37.661   8.855
 7370POPC   C1A25275  17.486  37.640   8.555
 7370POPC   D2A25276  17.490  37.720   8.255
 7370POPC   C3A25277  17.463  37.658   7.955
 7370POPC   C4A25278  17.475  37.644   7.655
 7370POPC   C1B25279  17.306  37.667   8.555
 7370POPC   C2B25280  17.228  37.657   8.255
 7370POPC   C3B25281  17.286  37.690   7.955
 7370POPC   C4B25282  17.249  37.637   7.655
 7371POPC   NC325283   6.656   9.797   9.455
 7371POPC   PO425284   6.606   9.725   9.155
 7371POPC   GL125285   6.690   9.728   8.855
 7371POPC   GL225286   6.772   9.654   8.855
 7371POPC   C1A25287   6.596   9.764   8.555
 7371POPC   D2A25288   6.650   9.725   8.255
 7371POPC   C3A25289   6.660   9.787   7.955
 7371POPC   C4A25290   6.658   9.730   7.655
 7371POPC   C1B25291   6.882   9.672   8.555
 7371POPC   C2B25292   6.889   9.694   8.255
 7371POPC   C3B25293   6.842   9.701   7.955
 7371POPC   C4B25294   6.909   9.626   7.655
 7372POPC   NC325295  10.542  42.297   9.455
 7372POPC   PO425296  10.557  42.293   9.155
 7372POPC   GL125297  10.506  42.361   8.855
 7372POPC   GL225298  10.671  42.373   8.855
 7372POPC   C1A25299  10.519  42.351   8.555
 7372POPC   D2A25300  10.558  42.311   8.255
 7372POPC   C3A25301  10.563  42.301   7.955
 7372POPC   C4A25302  10.488  42.371   7.655
 7372POPC   C1B25303  10.695  42.441   8.555
 7372POPC   C2B25304  10.770  42.481   8.255
 7372POPC   C3B25305  10.734  42.476   7.955
 7372POPC   C4B25306  10.753  42.483   7.655
 7373POPC   NC325307  34.603   2.010   9.455
 7373POPC   PO425308  34.596   2.003   9.155
 7373POPC   GL125309  34.555   1.998   8.855
 7373POPC   GL225310  34.723   2.032   8.855
 7373POPC   C1A25311  34.568   2.035   8.555
 7373POPC   D2A25312  34.528   1.990   8.255
 7373POPC   C3A25313  34.536   2.034   7.955
 7373POPC   C4A25314  34.602   2.033   7.655
 7373POPC   C1B25315  34.810   2.072   8.555
 7373POPC   C2B25316  34.833   2.041   8.255
 7373POPC   C3B25317  34.822   2.133   7.955
 7373POPC   C4B25318  34.850   2.067   7.655
 7374POPC   NC325319  39.978  27.546   9.455
 7374POPC   PO425320  40.002  27.584   9.155
 7374POPC   GL125321  40.003  27.590   8.855
 7374POPC   GL225322  39.916  27.716   8.855
 7374POPC   C1A25323  40.021  27.569   8.555
 7374POPC   D2A25324  40.049  27.616   8.255
 7374POPC   C3A25325  39.986  27.568   7.955
 7374POPC   C4A25326  40.035  27.623   7.655
 7374POPC   C1B25327  39.826  27.754   8.555
 7374POPC   C2B25328  39.829  27.780   8.255
 7374POPC   C3B25329  39.837  27.813   7.955
 7374POPC   C4B25330  39.903  27.746   7.655
 7375POPC   NC325331   0.432  40.781   9.455
 7375POPC   PO425332   0.451  40.776   9.155
 7375POPC   GL125333   0.404  40.811   8.855
 7375POPC   GL225334   0.295  40.855   8.855
 7375POPC   C1A25335   0.448  40.806   8.555
 7375POPC   D2A25336   0.412  40.769   8.255
 7375POPC   C3A25337   0.467  40.813   7.955
 7375POPC   C4A25338   0.453  40.752   7.655
 7375POPC   C1B25339   0.230  40.898   8.555
 7375POPC   C2B25340   0.279  40.954   8.255
 7375POPC   C3B25341   0.277  40.980   7.955
 7375POPC   C4B25342   0.267  40.950   7.655
 7376POPC   NC325343  23.718  29.877   9.455
 7376POPC   PO425344  23.679  29.921   9.155
 7376POPC   GL125345  23.667  29.971   8.855
 7376POPC   GL225346  23.877  29.920   8.855
 7376POPC   C1A25347  23.676  29.937   8.555
 7376POPC   D2A25348  23.697  29.883   8.255
 7376POPC   C3A25349  23.694  29.880   7.955
 7376POPC   C4A25350  23.760  29.970   7.655
 7376POPC   C1B25351  23.988  29.900   8.555
 7376POPC   C2B25352  23.964  29.937   8.255
 7376POPC   C3B25353  23.915  29.913   7.955
 7376POPC   C4B25354  23.965  29.868   7.655
 7377POPC   NC325355  20.657  32.254   9.455
 7377POPC   PO425356  20.611  32.218   9.155
 7377POPC   GL125357  20.582  32.273   8.855
 7377POPC   GL225358  20.758  32.199   8.855
 7377POPC   C1A25359  20.627  32.274   8.555
 7377POPC   D2A25360  20.652  32.235   8.255
 7377POPC   C3A25361  20.577  32.276   7.955
 7377POPC   C4A25362  20.614  32.248   7.655
 7377POPC   C1B25363  20.823  32.211   8.555
 7377POPC   C2B25364  20.859  32.154   8.255
 7377POPC   C3B25365  20.805  32.156   7.955
 7377POPC   C4B25366  20.846  32.196   7.655
 7378POPC   NC325367  22.972   6.680   9.455
 7378POPC   PO425368  22.951   6.664   9.155
 7378POPC   GL125369  22.951   6.623   8.855
 7378POPC   GL225370  22.911   6.488   8.855
 7378POPC   C1A25371  22.929   6.647   8.555
 7378POPC   D2A25372  22.964   6.678   8.255
 7378POPC   C3A25373  22.930   6.688   7.955
 7378POPC   C4A25374  22.943   6.663   7.655
 7378POPC   C1B25375  22.878   6.367   8.555
 7378POPC   C2B25376  22.846   6.380   8.255
 7378POPC   C3B25377  22.880   6.458   7.955
 7378POPC   C4B25378  22.845   6.376   7.655
 7379POPC   NC325379  12.863  25.221   9.455
 7379POPC   PO425380  12.842  25.220   9.155
 7379POPC   GL125381  12.841  25.308   8.855
 7379POPC   GL225382  12.767  25.186   8.855
 7379POPC   C1A25383  12.895  25.301   8.555
 7379POPC   D2A25384  12.854  25.244   8.255
 7379POPC   C3A25385  12.815  25.270   7.955
 7379POPC   C4A25386  12.828  25.286   7.655
 7379POPC   C1B25387  12.700  25.040   8.555
 7379POPC   C2B25388  12.727  25.037   8.255
 7379POPC   C3B25389  12.670  25.111   7.955
 7379POPC   C4B25390  12.664  25.090   7.655
 7380POPC   NC325391  25.239  25.275   9.455
 7380POPC   PO425392  25.216  25.230   9.155
 7380POPC   GL125393  25.258  25.216   8.855
 7380POPC   GL225394  25.197  25.230   8.855
 7380POPC   C1A25395  25.289  25.280   8.555
 7380POPC   D2A25396  25.218  25.281   8.255
 7380POPC   C3A25397  25.281  25.305   7.955
 7380POPC   C4A25398  25.231  25.257   7.655
 7380POPC   C1B25399  24.991  25.177   8.555
 7380POPC   C2B25400  25.046  25.190   8.255
 7380POPC   C3B25401  24.986  25.177   7.955
 7380POPC   C4B25402  24.995  25.190   7.655
 7381POPC   NC325403  26.007  24.451   9.455
 7381POPC   PO425404  25.994  24.517   9.155
 7381POPC   GL125405  26.016  24.515   8.855
 7381POPC   GL225406  25.978  24.592   8.855
 7381POPC   C1A25407  26.040  24.534   8.555
 7381POPC   D2A25408  25.996  24.466   8.255
 7381POPC   C3A25409  26.024  24.532   7.955
 7381POPC   C4A25410  26.016  24.483   7.655
 7381POPC   C1B25411  25.821  24.661   8.555
 7381POPC   C2B25412  25.880  24.626   8.255
 7381POPC   C3B25413  25.865  24.667   7.955
 7381POPC   C4B25414  25.843  24.673   7.655
 7382POPC   NC325415   5.829  21.364   9.455
 7382POPC   PO425416   5.912  21.393   9.155
 7382POPC   GL125417   5.892  21.412   8.855
 7382POPC   GL225418   5.895  21.251   8.855
 7382POPC   C1A25419   5.859  21.382   8.555
 7382POPC   D2A25420   5.895  21.394   8.255
 7382POPC   C3A25421   5.906  21.377   7.955
 7382POPC   C4A25422   5.857  21.411   7.655
 7382POPC   C1B25423   5.972  21.129   8.555
 7382POPC   C2B25424   6.026  21.139   8.255
 7382POPC   C3B25425   5.940  21.150   7.955
 7382POPC   C4B25426   5.994  21.128   7.655
 7383POPC   NC325427   5.126  33.035   9.455
 7383POPC   PO425428   5.062  33.038   9.155
 7383POPC   GL125429   5.129  33.040   8.855
 7383POPC   GL225430   4.970  33.131   8.855
 7383POPC   C1A25431   5.107  33.065   8.555
 7383POPC   D2A25432   5.140  33.009   8.255
 7383POPC   C3A25433   5.053  32.991   7.955
 7383POPC   C4A25434   5.054  33.001   7.655
 7383POPC   C1B25435   4.892  33.189   8.555
 7383POPC   C2B25436   4.936  33.238   8.255
 7383POPC   C3B25437   4.902  33.153   7.955
 7383POPC   C4B25438   4.894  33.191   7.655
 7384POPC   NC325439  33.840  44.644   9.455
 7384POPC   PO425440  33.815  44.652   9.155
 7384POPC   GL125441  33.813  44.617   8.855
 7384POPC   GL225442  33.660  44.574   8.855
 7384POPC   C1A25443  33.773  44.635   8.555
 7384POPC   D2A25444  33.839  44.669   8.255
 7384POPC   C3A25445  33.768  44.676   7.955
 7384POPC   C4A25446  33.786  44.662   7.655
 7384POPC   C1B25447  33.532  44.588   8.555
 7384POPC   C2B25448  33.569  44.592   8.255
 7384POPC   C3B25449  33.580  44.573   7.955
 7384POPC   C4B25450  33.617  44.587   7.655
 7385POPC   NC325451  26.828  13.584   9.455
 7385POPC   PO425452  26.795  13.661   9.155
 7385POPC   GL125453  26.804  13.647   8.855
 7385POPC   GL225454  26.720  13.553   8.855
 7385POPC   C1A25455  26.851  13.669   8.555
 7385POPC   D2A25456  26.767  13.593   8.255
 7385POPC   C3A25457  26.795  13.617   7.955
 7385POPC   C4A25458  26.777  13.644   7.655
 7385POPC   C1B25459  26.560  13.580   8.555
 7385POPC   C2B25460  26.584  13.582   8.255
 7385POPC   C3B25461  26.554  13.531   7.955
 7385POPC   C4B25462  26.544  13.538   7.655
 7386POPC   NC325463  40.046  16.767   9.455
 7386POPC   PO425464  40.051  16.747   9.155
 7386POPC   GL125465  39.994  16.758   8.855
 7386POPC   GL225466  40.095  16.696   8.855
 7386POPC   C1A25467  40.020  16.715   8.555
 7386POPC   D2A25468  40.024  16.709   8.255
 7386POPC   C3A25469  40.016  16.709   7.955
 7386POPC   C4A25470  39.989  16.687   7.655
 7386POPC   C1B25471  40.290  16.725   8.555
 7386POPC   C2B25472  40.257  16.714   8.255
 7386POPC   C3B25473  40.306  16.727   7.955
 7386POPC   C4B25474  40.234  16.733   7.655
 7387POPC   NC325475  43.893  37.694   9.455
 7387POPC   PO425476  43.862  37.704   9.155
 7387POPC   GL125477  43.928  37.685   8.855
 7387POPC   GL225478  43.918  37.604   8.855
 7387POPC   C1A25479  43.890  37.669   8.555
 7387POPC   D2A25480  43.879  37.655   8.255
 7387POPC   C3A25481  43.919  37.673   7.955
 7387POPC   C4A25482  43.930  37.713   7.655
 7387POPC   C1B25483  43.894  37.421   8.555
 7387POPC   C2B25484  43.990  37.481   8.255
 7387POPC   C3B25485  43.931  37.388   7.955
 7387POPC   C4B25486  43.968  37.440   7.655
 7388POPC   NC325487   3.584   7.464   9.455
 7388POPC   PO425488   3.567   7.436   9.155
 7388POPC   GL125489   3.545   7.411   8.855
 7388POPC   GL225490   3.426   7.471   8.855
 7388POPC   C1A25491   3.562   7.371   8.555
 7388POPC   D2A25492   3.511   7.412   8.255
 7388POPC   C3A25493   3.501   7.458   7.955
 7388POPC   C4A25494   3.568   7.374   7.655
 7388POPC   C1B25495   3.247   7.427   8.555
 7388POPC   C2B25496   3.274   7.466   8.255
 7388POPC   C3B25497   3.268   7.491   7.955
 7388POPC   C4B25498   3.285   7.507   7.655
 7389POPC   NC325499  41.566  31.486   9.455
 7389POPC   PO425500  41.509  31.464   9.155
 7389POPC   GL125501  41.513  31.510   8.855
 7389POPC   GL225502  41.648  31.463   8.855
 7389POPC   C1A25503  41.543  31.439   8.555
 7389POPC   D2A25504  41.516  31.456   8.255
 7389POPC   C3A25505  41.577  31.479   7.955
 7389POPC   C4A25506  41.554  31.511   7.655
 7389POPC   C1B25507  41.838  31.571   8.555
 7389POPC   C2B25508  41.815  31.578   8.255
 7389POPC   C3B25509  41.780  31.512   7.955
 7389POPC   C4B25510  41.780  31.586   7.655
 7390POPC   NC325511  40.751  20.655   9.455
 7390POPC   PO425512  40.784  20.633   9.155
 7390POPC   GL125513  40.751  20.587   8.855
 7390POPC   GL225514  40.636  20.693   8.855
 7390POPC   C1A25515  40.807  20.585   8.555
 7390POPC   D2A25516  40.781  20.638   8.255
 7390POPC   C3A25517  40.822  20.598   7.955
 7390POPC   C4A25518  40.792  20.659   7.655
 7390POPC   C1B25519  40.624  20.799   8.555
 7390POPC   C2B25520  40.530  20.725   8.255
 7390POPC   C3B25521  40.544  20.745   7.955
 7390POPC   C4B25522  40.601  20.778   7.655
 7391POPC   NC325523  12.896  40.043   9.455
 7391POPC   PO425524  12.819  40.027   9.155
 7391POPC   GL125525  12.893  39.999   8.855
 7391POPC   GL225526  12.824  40.092   8.855
 7391POPC   C1A25527  12.830  39.969   8.555
 7391POPC   D2A25528  12.826  39.986   8.255
 7391POPC   C3A25529  12.860  39.984   7.955
 7391POPC   C4A25530  12.879  40.037   7.655
 7391POPC   C1B25531  12.797  40.237   8.555
 7391POPC   C2B25532  12.730  40.209   8.255
 7391POPC   C3B25533  12.787  40.286   7.955
 7391POPC   C4B25534  12.783  40.258   7.655
 7392POPC   NC325535  25.291  13.595   9.455
 7392POPC   PO425536  25.221  13.607   9.155
 7392POPC   GL125537  25.314  13.641   8.855
 7392POPC   GL225538  25.348  13.585   8.855
 7392POPC   C1A25539  25.228  13.672   8.555
 7392POPC   D2A25540  25.228  13.651   8.255
 7392POPC   C3A25541  25.272  13.629   7.955
 7392POPC   C4A25542  25.312  13.580   7.655
 7392POPC   C1B25543  25.454  13.572   8.555
 7392POPC   C2B25544  25.471  13.512   8.255
 7392POPC   C3B25545  25.483  13.520   7.955
 7392POPC   C4B25546  25.490  13.576   7.655
 7393POPC   NC325547  36.146  29.919   9.455
 7393POPC   PO425548  36.088  29.947   9.155
 7393POPC   GL125549  36.106  29.911   8.855
 7393POPC   GL225550  36.020  29.889   8.855
 7393POPC   C1A25551  36.172  29.925   8.555
 7393POPC   D2A25552  36.170  29.928   8.255
 7393POPC   C3A25553  36.091  29.876   7.955
 7393POPC   C4A25554  36.173  29.896   7.655
 7393POPC   C1B25555  35.877  29.875   8.555
 7393POPC   C2B25556  35.904  29.856   8.255
 7393POPC   C3B25557  35.892  29.872   7.955
 7393POPC   C4B25558  35.883  29.829   7.655
 7394POPC   NC325559  11.296  27.620   9.455
 7394POPC   PO425560  11.344  27.548   9.155
 7394POPC   GL125561  11.346  27.632   8.855
 7394POPC   GL225562  11.436  27.646   8.855
 7394POPC   C1A25563  11.321  27.623   8.555
 7394POPC   D2A25564  11.347  27.635   8.255
 7394POPC   C3A25565  11.315  27.570   7.955
 7394POPC   C4A25566  11.264  27.554   7.655
 7394POPC   C1B25567  11.534  27.727   8.555
 7394POPC   C2B25568  11.553  27.785   8.255
 7394POPC   C3B25569  11.481  27.707   7.955
 7394POPC   C4B25570  11.485  27.702   7.655
 7395POPC   NC325571  36.883  29.189   9.455
 7395POPC   PO425572  36.888  29.115   9.155
 7395POPC   GL125573  36.930  29.137   8.855
 7395POPC   GL225574  36.733  29.073   8.855
 7395POPC   C1A25575  36.948  29.154   8.555
 7395POPC   D2A25576  36.907  29.160   8.255
 7395POPC   C3A25577  36.938  29.131   7.955
 7395POPC   C4A25578  36.900  29.113   7.655
 7395POPC   C1B25579  36.660  29.133   8.555
 7395POPC   C2B25580  36.669  29.058   8.255
 7395POPC   C3B25581  36.647  29.118   7.955
 7395POPC   C4B25582  36.651  29.141   7.655
 7396POPC   NC325583  40.793  10.487   9.455
 7396POPC   PO425584  40.809  10.493   9.155
 7396POPC   GL125585  40.740  10.519   8.855
 7396POPC   GL225586  40.886  10.484   8.855
 7396POPC   C1A25587  40.762  10.522   8.555
 7396POPC   D2A25588  40.827  10.501   8.255
 7396POPC   C3A25589  40.744  10.532   7.955
 7396POPC   C4A25590  40.793  10.524   7.655
 7396POPC   C1B25591  41.002  10.376   8.555
 7396POPC   C2B25592  40.996  10.350   8.255
 7396POPC   C3B25593  40.989  10.315   7.955
 7396POPC   C4B25594  40.974  10.354   7.655
 7397POPC   NC325595   5.047  18.326   9.455
 7397POPC   PO425596   5.068  18.240   9.155
 7397POPC   GL125597   5.113  18.246   8.855
 7397POPC   GL225598   5.243  18.347   8.855
 7397POPC   C1A25599   5.120  18.307   8.555
 7397POPC   D2A25600   5.080  18.257   8.255
 7397POPC   C3A25601   5.083  18.276   7.955
 7397POPC   C4A25602   5.072  18.323   7.655
 7397POPC   C1B25603   5.290  18.464   8.555
 7397POPC   C2B25604   5.295  18.462   8.255
 7397POPC   C3B25605   5.299  18.449   7.955
 7397POPC   C4B25606   5.313  18.474   7.655
 7398POPC   NC325607  26.087  10.478   9.455
 7398POPC   PO425608  26.049  10.553   9.155
 7398POPC   GL125609  26.063  10.506   8.855
 7398POPC   GL225610  26.050  10.614   8.855
 7398POPC   C1A25611  26.010  10.506   8.555
 7398POPC   D2A25612  26.043  10.529   8.255
 7398POPC   C3A25613  26.081  10.533   7.955
 7398POPC   C4A25614  26.069  10.488   7.655
 7398POPC   C1B25615  25.960  10.721   8.555
 7398POPC   C2B25616  25.955  10.741   8.255
 7398POPC   C3B25617  25.973  10.737   7.955
 7398POPC   C4B25618  26.020  10.723   7.655
 7399POPC   NC325619  14.396  12.841   9.455
 7399POPC   PO425620  14.437  12.814   9.155
 7399POPC   GL125621  14.440  12.901   8.855
 7399POPC   GL225622  14.440  12.725   8.855
 7399POPC   C1A25623  14.398  12.843   8.555
 7399POPC   D2A25624  14.434  12.803   8.255
 7399POPC   C3A25625  14.438  12.901   7.955
 7399POPC   C4A25626  14.394  12.852   7.655
 7399POPC   C1B25627  14.406  12.594   8.555
 7399POPC   C2B25628  14.381  12.639   8.255
 7399POPC   C3B25629  14.443  12.623   7.955
 7399POPC   C4B25630  14.360  12.596   7.655
 7400POPC   NC325631  17.459  29.156   9.455
 7400POPC   PO425632  17.551  29.118   9.155
 7400POPC   GL125633  17.542  29.114   8.855
 7400POPC   GL225634  17.363  29.098   8.855
 7400POPC   C1A25635  17.533  29.097   8.555
 7400POPC   D2A25636  17.536  29.154   8.255
 7400POPC   C3A25637  17.499  29.109   7.955
 7400POPC   C4A25638  17.526  29.096   7.655
 7400POPC   C1B25639  17.326  29.036   8.555
 7400POPC   C2B25640  17.334  29.038   8.255
 7400POPC   C3B25641  17.328  28.973   7.955
 7400POPC   C4B25642  17.278  28.964   7.655
 7401POPC   NC325643   2.762  17.536   9.455
 7401POPC   PO425644   2.755  17.467   9.155
 7401POPC   GL125645   2.812  17.484   8.855
 7401POPC   GL225646   2.774  17.402   8.855
 7401POPC   C1A25647   2.774  17.542   8.555
 7401POPC   D2A25648   2.732  17.460   8.255
 7401POPC   C3A25649   2.753  17.534   7.955
 7401POPC   C4A25650   2.775  17.510   7.655
 7401POPC   C1B25651   2.802  17.299   8.555
 7401POPC   C2B25652   2.741  17.246   8.255
 7401POPC   C3B25653   2.723  17.217   7.955
 7401POPC   C4B25654   2.816  17.251   7.655
 7402POPC   NC325655  30.730  33.031   9.455
 7402POPC   PO425656  30.680  33.000   9.155
 7402POPC   GL125657  30.684  33.012   8.855
 7402POPC   GL225658  30.558  32.972   8.855
 7402POPC   C1A25659  30.685  33.029   8.555
 7402POPC   D2A25660  30.734  32.986   8.255
 7402POPC   C3A25661  30.727  33.054   7.955
 7402POPC   C4A25662  30.739  33.006   7.655
 7402POPC   C1B25663  30.536  32.909   8.555
 7402POPC   C2B25664  30.527  32.871   8.255
 7402POPC   C3B25665  30.553  32.825   7.955
 7402POPC   C4B25666  30.507  32.869   7.655
 7403POPC   NC325667  29.891  33.045   9.455
 7403POPC   PO425668  29.959  33.032   9.155
 7403POPC   GL125669  29.960  33.038   8.855
 7403POPC   GL225670  29.944  32.916   8.855
 7403POPC   C1A25671  29.906  33.040   8.555
 7403POPC   D2A25672  29.896  33.010   8.255
 7403POPC   C3A25673  29.903  33.028   7.955
 7403POPC   C4A25674  29.931  33.071   7.655
 7403POPC   C1B25675  30.033  32.780   8.555
 7403POPC   C2B25676  30.044  32.826   8.255
 7403POPC   C3B25677  30.045  32.802   7.955
 7403POPC   C4B25678  30.102  32.838   7.655
 7404POPC   NC325679   3.548  19.814   9.455
 7404POPC   PO425680   3.561  19.817   9.155
 7404POPC   GL125681   3.561  19.851   8.855
 7404POPC   GL225682   3.494  19.775   8.855
 7404POPC   C1A25683   3.572  19.837   8.555
 7404POPC   D2A25684   3.513  19.827   8.255
 7404POPC   C3A25685   3.571  19.845   7.955
 7404POPC   C4A25686   3.528  19.798   7.655
 7404POPC   C1B25687   3.330  19.651   8.555
 7404POPC   C2B25688   3.338  19.692   8.255
 7404POPC   C3B25689   3.313  19.692   7.955
 7404POPC   C4B25690   3.340  19.626   7.655
 7405POPC   NC325691   8.928  39.264   9.455
 7405POPC   PO425692   8.984  39.257   9.155
 7405POPC   GL125693   8.983  39.190   8.855
 7405POPC   GL225694   8.999  39.297   8.855
 7405POPC   C1A25695   8.933  39.251   8.555
 7405POPC   D2A25696   8.956  39.185   8.255
 7405POPC   C3A25697   9.016  39.208   7.955
 7405POPC   C4A25698   9.000  39.232   7.655
 7405POPC   C1B25699   9.089  39.482   8.555
 7405POPC   C2B25700   9.095  39.485   8.255
 7405POPC   C3B25701   9.070  39.446   7.955
 7405POPC   C4B25702   9.132  39.474   7.655
 7406POPC   NC325703  40.821  12.116   9.455
 7406POPC   PO425704  40.761  12.105   9.155
 7406POPC   GL125705  40.770  12.113   8.855
 7406POPC   GL225706  40.887  12.047   8.855
 7406POPC   C1A25707  40.790  12.036   8.555
 7406POPC   D2A25708  40.800  12.069   8.255
 7406POPC   C3A25709  40.734  12.094   7.955
 7406POPC   C4A25710  40.774  12.108   7.655
 7406POPC   C1B25711  40.992  12.000   8.555
 7406POPC   C2B25712  40.997  11.947   8.255
 7406POPC   C3B25713  41.031  11.909   7.955
 7406POPC   C4B25714  40.956  11.954   7.655
 7407POPC   NC325715  41.576  36.880   9.455
 7407POPC   PO425716  41.608  36.914   9.155
 7407POPC   GL125717  41.517  36.913   8.855
 7407POPC   GL225718  41.652  36.912   8.855
 7407POPC   C1A25719  41.536  36.894   8.555
 7407POPC   D2A25720  41.552  36.906   8.255
 7407POPC   C3A25721  41.580  36.911   7.955
 7407POPC   C4A25722  41.568  36.874   7.655
 7407POPC   C1B25723  41.786  36.949   8.555
 7407POPC   C2B25724  41.833  36.926   8.255
 7407POPC   C3B25725  41.806  36.938   7.955
 7407POPC   C4B25726  41.760  36.878   7.655
 7408POPC   NC325727  44.679  36.939   9.455
 7408POPC   PO425728  44.699  36.903   9.155
 7408POPC   GL125729  44.613  36.934   8.855
 7408POPC   GL225730  44.735  36.899   8.855
 7408POPC   C1A25731  44.631  36.871   8.555
 7408POPC   D2A25732  44.685  36.880   8.255
 7408POPC   C3A25733  44.686  36.897   7.955
 7408POPC   C4A25734  44.629  36.913   7.655
 7408POPC   C1B25735  44.887  36.988   8.555
 7408POPC   C2B25736  44.888  36.989   8.255
 7408POPC   C3B25737  44.944  36.976   7.955
 7408POPC   C4B25738  44.866  36.943   7.655
 7409POPC   NC325739  20.593  26.090   9.455
 7409POPC   PO425740  20.627  26.022   9.155
 7409POPC   GL125741  20.646  26.051   8.855
 7409POPC   GL225742  20.517  26.080   8.855
 7409POPC   C1A25743  20.645  26.023   8.555
 7409POPC   D2A25744  20.628  25.997   8.255
 7409POPC   C3A25745  20.652  26.070   7.955
 7409POPC   C4A25746  20.616  26.036   7.655
 7409POPC   C1B25747  20.333  26.030   8.555
 7409POPC   C2B25748  20.321  26.029   8.255
 7409POPC   C3B25749  20.336  26.017   7.955
 7409POPC   C4B25750  20.406  26.039   7.655
 7410POPC   NC325751   1.190  32.218   9.455
 7410POPC   PO425752   1.189  32.277   9.155
 7410POPC   GL125753   1.254  32.211   8.855
 7410POPC   GL225754   1.086  32.279   8.855
 7410POPC   C1A25755   1.197  32.242   8.555
 7410POPC   D2A25756   1.193  32.276   8.255
 7410POPC   C3A25757   1.226  32.288   7.955
 7410POPC   C4A25758   1.257  32.226   7.655
 7410POPC   C1B25759   0.956  32.355   8.555
 7410POPC   C2B25760   0.983  32.352   8.255
 7410POPC   C3B25761   0.966  32.392   7.955
 7410POPC   C4B25762   0.986  32.325   7.655
 7411POPC   NC325763   5.861  29.111   9.455
 7411POPC   PO425764   5.902  29.131   9.155
 7411POPC   GL125765   5.880  29.186   8.855
 7411POPC   GL225766   5.775  29.063   8.855
 7411POPC   C1A25767   5.882  29.145   8.555
 7411POPC   D2A25768   5.905  29.142   8.255
 7411POPC   C3A25769   5.872  29.095   7.955
 7411POPC   C4A25770   5.857  29.120   7.655
 7411POPC   C1B25771   5.613  29.065   8.555
 7411POPC   C2B25772   5.628  29.111   8.255
 7411POPC   C3B25773   5.596  29.069   7.955
 7411POPC   C4B25774   5.638  29.114   7.655
 7412POPC   NC325775   3.515  32.206   9.455
 7412POPC   PO425776   3.530  32.229   9.155
 7412POPC   GL125777   3.498  32.217   8.855
 7412POPC   GL225778   3.633  32.384   8.855
 7412POPC   C1A25779   3.503  32.220   8.555
 7412POPC   D2A25780   3.556  32.220   8.255
 7412POPC   C3A25781   3.546  32.289   7.955
 7412POPC   C4A25782   3.538  32.251   7.655
 7412POPC   C1B25783   3.667  32.455   8.555
 7412POPC   C2B25784   3.624  32.444   8.255
 7412POPC   C3B25785   3.591  32.488   7.955
 7412POPC   C4B25786   3.605  32.499   7.655
 7413POPC   NC325787  26.076  36.918   9.455
 7413POPC   PO425788  26.085  36.881   9.155
 7413POPC   GL125789  26.013  36.915   8.855
 7413POPC   GL225790  26.040  37.049   8.855
 7413POPC   C1A25791  26.018  36.880   8.555
 7413POPC   D2A25792  26.012  36.896   8.255
 7413POPC   C3A25793  26.066  36.934   7.955
 7413POPC   C4A25794  26.003  36.862   7.655
 7413POPC   C1B25795  26.110  37.099   8.555
 7413POPC   C2B25796  26.082  37.197   8.255
 7413POPC   C3B25797  26.100  37.186   7.955
 7413POPC   C4B25798  26.074  37.141   7.655
 7414POPC   NC325799  20.640  29.154   9.455
 7414POPC   PO425800  20.586  29.165   9.155
 7414POPC   GL125801  20.614  29.168   8.855
 7414POPC   GL225802  20.763  29.196   8.855
 7414POPC   C1A25803  20.562  29.180   8.555
 7414POPC   D2A25804  20.597  29.133   8.255
 7414POPC   C3A25805  20.615  29.188   7.955
 7414POPC   C4A25806  20.645  29.147   7.655
 7414POPC   C1B25807  20.838  29.181   8.555
 7414POPC   C2B25808  20.859  29.257   8.255
 7414POPC   C3B25809  20.830  29.259   7.955
 7414POPC   C4B25810  20.850  29.225   7.655
 7415POPC   NC325811   6.596  38.438   9.455
 7415POPC   PO425812   6.637  38.441   9.155
 7415POPC   GL125813   6.640  38.434   8.855
 7415POPC   GL225814   6.657  38.562   8.855
 7415POPC   C1A25815   6.651  38.476   8.555
 7415POPC   D2A25816   6.618  38.467   8.255
 7415POPC   C3A25817   6.615  38.441   7.955
 7415POPC   C4A25818   6.686  38.454   7.655
 7415POPC   C1B25819   6.632  38.751   8.555
 7415POPC   C2B25820   6.584  38.676   8.255
 7415POPC   C3B25821   6.661  38.697   7.955
 7415POPC   C4B25822   6.590  38.741   7.655
 7416POPC   NC325823  14.390   9.010   9.455
 7416POPC   PO425824  14.420   8.970   9.155
 7416POPC   GL125825  14.427   9.017   8.855
 7416POPC   GL225826  14.237   8.943   8.855
 7416POPC   C1A25827  14.444   9.011   8.555
 7416POPC   D2A25828  14.362   8.939   8.255
 7416POPC   C3A25829  14.362   8.984   7.955
 7416POPC   C4A25830  14.382   8.987   7.655
 7416POPC   C1B25831  14.192   8.926   8.555
 7416POPC   C2B25832  14.164   8.901   8.255
 7416POPC   C3B25833  14.175   8.899   7.955
 7416POPC   C4B25834  14.199   8.925   7.655
 7417POPC   NC325835   9.774  17.467   9.455
 7417POPC   PO425836   9.702  17.538   9.155
 7417POPC   GL125837   9.733  17.489   8.855
 7417POPC   GL225838   9.683  17.631   8.855
 7417POPC   C1A25839   9.742  17.548   8.555
 7417POPC   D2A25840   9.773  17.514   8.255
 7417POPC   C3A25841   9.706  17.545   7.955
 7417POPC   C4A25842   9.716  17.481   7.655
 7417POPC   C1B25843   9.603  17.732   8.555
 7417POPC   C2B25844   9.608  17.689   8.255
 7417POPC   C3B25845   9.588  17.758   7.955
 7417POPC   C4B25846   9.636  17.756   7.655
 7418POPC   NC325847   0.453  12.899   9.455
 7418POPC   PO425848   0.461  12.847   9.155
 7418POPC   GL125849   0.470  12.814   8.855
 7418POPC   GL225850   0.513  12.743   8.855
 7418POPC   C1A25851   0.447  12.889   8.555
 7418POPC   D2A25852   0.488  12.899   8.255
 7418POPC   C3A25853   0.469  12.833   7.955
 7418POPC   C4A25854   0.415  12.895   7.655
 7418POPC   C1B25855   0.572  12.663   8.555
 7418POPC   C2B25856   0.551  12.626   8.255
 7418POPC   C3B25857   0.593  12.684   7.955
 7418POPC   C4B25858   0.548  12.618   7.655
 7419POPC   NC325859  36.142  21.367   9.455
 7419POPC   PO425860  36.095  21.392   9.155
 7419POPC   GL125861  36.119  21.432   8.855
 7419POPC   GL225862  36.141  21.295   8.855
 7419POPC   C1A25863  36.119  21.431   8.555
 7419POPC   D2A25864  36.169  21.385   8.255
 7419POPC   C3A25865  36.120  21.422   7.955
 7419POPC   C4A25866  36.141  21.433   7.655
 7419POPC   C1B25867  36.166  21.133   8.555
 7419POPC   C2B25868  36.180  21.105   8.255
 7419POPC   C3B25869  36.104  21.172   7.955
 7419POPC   C4B25870  36.166  21.178   7.655
 7420POPC   NC325871  28.379  43.072   9.455
 7420POPC   PO425872  28.411  43.119   9.155
 7420POPC   GL125873  28.365  43.094   8.855
 7420POPC   GL225874  28.298  43.024   8.855
 7420POPC   C1A25875  28.368  43.074   8.555
 7420POPC   D2A25876  28.330  43.125   8.255
 7420POPC   C3A25877  28.320  43.143   7.955
 7420POPC   C4A25878  28.371  43.145   7.655
 7420POPC   C1B25879  28.182  42.921   8.555
 7420POPC   C2B25880  28.165  42.905   8.255
 7420POPC   C3B25881  28.244  42.970   7.955
 7420POPC   C4B25882  28.209  42.899   7.655
 7421POPC   NC325883  11.279  22.891   9.455
 7421POPC   PO425884  11.329  22.920   9.155
 7421POPC   GL125885  11.300  22.939   8.855
 7421POPC   GL225886  11.292  22.850   8.855
 7421POPC   C1A25887  11.349  22.955   8.555
 7421POPC   D2A25888  11.294  22.920   8.255
 7421POPC   C3A25889  11.306  22.904   7.955
 7421POPC   C4A25890  11.274  22.893   7.655
 7421POPC   C1B25891  11.191  22.709   8.555
 7421POPC   C2B25892  11.213  22.704   8.255
 7421POPC   C3B25893  11.235  22.752   7.955
 7421POPC   C4B25894  11.200  22.678   7.655
 7422POPC   NC325895  22.191  39.207   9.455
 7422POPC   PO425896  22.146  39.250   9.155
 7422POPC   GL125897  22.192  39.253   8.855
 7422POPC   GL225898  22.255  39.261   8.855
 7422POPC   C1A25899  22.131  39.226   8.555
 7422POPC   D2A25900  22.127  39.262   8.255
 7422POPC   C3A25901  22.209  39.193   7.955
 7422POPC   C4A25902  22.180  39.277   7.655
 7422POPC   C1B25903  22.377  39.305   8.555
 7422POPC   C2B25904  22.383  39.353   8.255
 7422POPC   C3B25905  22.386  39.373   7.955
 7422POPC   C4B25906  22.406  39.350   7.655
 7423POPC   NC325907  34.534  29.930   9.455
 7423POPC   PO425908  34.536  29.966   9.155
 7423POPC   GL125909  34.615  29.970   8.855
 7423POPC   GL225910  34.717  29.873   8.855
 7423POPC   C1A25911  34.534  29.955   8.555
 7423POPC   D2A25912  34.612  29.877   8.255
 7423POPC   C3A25913  34.558  29.926   7.955
 7423POPC   C4A25914  34.527  29.947   7.655
 7423POPC   C1B25915  34.825  29.812   8.555
 7423POPC   C2B25916  34.844  29.787   8.255
 7423POPC   C3B25917  34.825  29.852   7.955
 7423POPC   C4B25918  34.795  29.857   7.655
 7424POPC   NC325919   1.981  12.887   9.455
 7424POPC   PO425920   1.943  12.849   9.155
 7424POPC   GL125921   1.969  12.808   8.855
 7424POPC   GL225922   2.105  12.864   8.855
 7424POPC   C1A25923   1.989  12.831   8.555
 7424POPC   D2A25924   2.019  12.857   8.255
 7424POPC   C3A25925   1.960  12.811   7.955
 7424POPC   C4A25926   2.018  12.887   7.655
 7424POPC   C1B25927   2.189  12.938   8.555
 7424POPC   C2B25928   2.268  12.949   8.255
 7424POPC   C3B25929   2.215  12.898   7.955
 7424POPC   C4B25930   2.210  12.904   7.655
 7425POPC   NC325931  15.996   5.095   9.455
 7425POPC   PO425932  15.921   5.076   9.155
 7425POPC   GL125933  15.955   5.069   8.855
 7425POPC   GL225934  15.842   5.078   8.855
 7425POPC   C1A25935  15.928   5.052   8.555
 7425POPC   D2A25936  15.968   5.127   8.255
 7425POPC   C3A25937  15.949   5.102   7.955
 7425POPC   C4A25938  15.975   5.047   7.655
 7425POPC   C1B25939  15.693   5.003   8.555
 7425POPC   C2B25940  15.748   5.002   8.255
 7425POPC   C3B25941  15.762   5.030   7.955
 7425POPC   C4B25942  15.741   4.988   7.655
 7426POPC   NC325943  13.666  10.511   9.455
 7426POPC   PO425944  13.586  10.572   9.155
 7426POPC   GL125945  13.666  10.498   8.855
 7426POPC   GL225946  13.654  10.675   8.855
 7426POPC   C1A25947  13.630  10.495   8.555
 7426POPC   D2A25948  13.614  10.564   8.255
 7426POPC   C3A25949  13.627  10.538   7.955
 7426POPC   C4A25950  13.633  10.564   7.655
 7426POPC   C1B25951  13.715  10.742   8.555
 7426POPC   C2B25952  13.745  10.722   8.255
 7426POPC   C3B25953  13.681  10.740   7.955
 7426POPC   C4B25954  13.741  10.804   7.655
 7427POPC   NC325955  23.705  24.530   9.455
 7427POPC   PO425956  23.683  24.464   9.155
 7427POPC   GL125957  23.763  24.528   8.855
 7427POPC   GL225958  23.784  24.362   8.855
 7427POPC   C1A25959  23.750  24.448   8.555
 7427POPC   D2A25960  23.757  24.530   8.255
 7427POPC   C3A25961  23.737  24.532   7.955
 7427POPC   C4A25962  23.667  24.504   7.655
 7427POPC   C1B25963  23.850  24.363   8.555
 7427POPC   C2B25964  23.919  24.337   8.255
 7427POPC   C3B25965  23.904  24.312   7.955
 7427POPC   C4B25966  23.869  24.315   7.655
 7428POPC   NC325967  33.803   8.228   9.455
 7428POPC   PO425968  33.814   8.188   9.155
 7428POPC   GL125969  33.752   8.153   8.855
 7428POPC   GL225970  33.712   8.354   8.855
 7428POPC   C1A25971  33.786   8.162   8.555
 7428POPC   D2A25972  33.839   8.169   8.255
 7428POPC   C3A25973  33.794   8.233   7.955
 7428POPC   C4A25974  33.819   8.241   7.655
 7428POPC   C1B25975  33.704   8.396   8.555
 7428POPC   C2B25976  33.705   8.418   8.255
 7428POPC   C3B25977  33.731   8.427   7.955
 7428POPC   C4B25978  33.663   8.380   7.655
 7429POPC   NC325979  27.575  30.730   9.455
 7429POPC   PO425980  27.604  30.661   9.155
 7429POPC   GL125981  27.555  30.688   8.855
 7429POPC   GL225982  27.614  30.848   8.855
 7429POPC   C1A25983  27.640  30.722   8.555
 7429POPC   D2A25984  27.615  30.692   8.255
 7429POPC   C3A25985  27.621  30.651   7.955
 7429POPC   C4A25986  27.577  30.694   7.655
 7429POPC   C1B25987  27.550  30.952   8.555
 7429POPC   C2B25988  27.566  30.919   8.255
 7429POPC   C3B25989  27.585  30.989   7.955
 7429POPC   C4B25990  27.613  30.977   7.655
 7430POPC   NC325991  26.047  19.017   9.455
 7430POPC   PO425992  26.067  19.089   9.155
 7430POPC   GL125993  26.002  19.028   8.855
 7430POPC   GL225994  25.947  19.032   8.855
 7430POPC   C1A25995  26.039  19.084   8.555
 7430POPC   D2A25996  25.999  19.022   8.255
 7430POPC   C3A25997  26.050  19.075   7.955
 7430POPC   C4A25998  25.996  19.047   7.655
 7430POPC   C1B25999  25.812  18.976   8.555
 7430POPC   C2B26000  25.777  19.035   8.255
 7430POPC   C3B26001  25.793  19.043   7.955
 7430POPC   C4B26002  25.769  19.023   7.655
 7431POPC   NC326003   5.069  43.932   9.455
 7431POPC   PO426004   5.103  43.908   9.155
 7431POPC   GL126005   5.084  43.880   8.855
 7431POPC   GL226006   5.099  43.793   8.855
 7431POPC   C1A26007   5.119  43.918   8.555
 7431POPC   D2A26008   5.084  43.857   8.255
 7431POPC   C3A26009   5.118  43.839   7.955
 7431POPC   C4A26010   5.084  43.876   7.655
 7431POPC   C1B26011   5.092  43.663   8.555
 7431POPC   C2B26012   5.066  43.610   8.255
 7431POPC   C3B26013   5.057  43.673   7.955
 7431POPC   C4B26014   5.108  43.661   7.655
 7432POPC   NC326015  18.284  21.392   9.455
 7432POPC   PO426016  18.252  21.425   9.155
 7432POPC   GL126017  18.294  21.422   8.855
 7432POPC   GL226018  18.226  21.275   8.855
 7432POPC   C1A26019  18.266  21.398   8.555
 7432POPC   D2A26020  18.288  21.381   8.255
 7432POPC   C3A26021  18.249  21.409   7.955
 7432POPC   C4A26022  18.301  21.423   7.655
 7432POPC   C1B26023  18.082  21.223   8.555
 7432POPC   C2B26024  18.171  21.166   8.255
 7432POPC   C3B26025  18.147  21.183   7.955
 7432POPC   C4B26026  18.129  21.234   7.655
 7433POPC   NC326027  15.227   1.179   9.455
 7433POPC   PO426028  15.178   1.246   9.155
 7433POPC   GL126029  15.176   1.164   8.855
 7433POPC   GL226030  15.226   1.277   8.855
 7433POPC   C1A26031  15.218   1.198   8.555
 7433POPC   D2A26032  15.158   1.230   8.255
 7433POPC   C3A26033  15.166   1.187   7.955
 7433POPC   C4A26034  15.138   1.229   7.655
 7433POPC   C1B26035  15.247   1.415   8.555
 7433POPC   C2B26036  15.245   1.454   8.255
 7433POPC   C3B26037  15.242   1.464   7.955
 7433POPC   C4B26038  15.319   1.467   7.655
 7434POPC   NC326039  15.927   8.215   9.455
 7434POPC   PO426040  15.991   8.170   9.155
 7434POPC   GL126041  15.924   8.179   8.855
 7434POPC   GL226042  15.904   8.108   8.855
 7434POPC   C1A26043  15.945   8.188   8.555
 7434POPC   D2A26044  15.973   8.151   8.255
 7434POPC   C3A26045  15.927   8.207   7.955
 7434POPC   C4A26046  15.920   8.192   7.655
 7434POPC   C1B26047  15.872   7.983   8.555
 7434POPC   C2B26048  15.920   7.984   8.255
 7434POPC   C3B26049  15.944   7.944   7.955
 7434POPC   C4B26050  15.927   7.911   7.655
 7435POPC   NC326051  27.621   8.957   9.455
 7435POPC   PO426052  27.559   8.946   9.155
 7435POPC   GL126053  27.556   9.008   8.855
 7435POPC   GL226054  27.498   9.018   8.855
 7435POPC   C1A26055  27.616   8.925   8.555
 7435POPC   D2A26056  27.613   9.011   8.255
 7435POPC   C3A26057  27.549   9.003   7.955
 7435POPC   C4A26058  27.602   8.997   7.655
 7435POPC   C1B26059  27.358   8.986   8.555
 7435POPC   C2B26060  27.365   9.031   8.255
 7435POPC   C3B26061  27.357   8.985   7.955
 7435POPC   C4B26062  27.319   9.002   7.655
 7436POPC   NC326063  22.914  10.572   9.455
 7436POPC   PO426064  22.934  10.543   9.155
 7436POPC   GL126065  22.964  10.538   8.855
 7436POPC   GL226066  22.906  10.604   8.855
 7436POPC   C1A26067  22.941  10.493   8.555
 7436POPC   D2A26068  22.900  10.491   8.255
 7436POPC   C3A26069  22.971  10.505   7.955
 7436POPC   C4A26070  22.909  10.489   7.655
 7436POPC   C1B26071  22.988  10.757   8.555
 7436POPC   C2B26072  22.938  10.816   8.255
 7436POPC   C3B26073  22.910  10.750   7.955
 7436POPC   C4B26074  22.925  10.804   7.655
 7437POPC   NC326075  26.010  15.207   9.455
 7437POPC   PO426076  26.077  15.149   9.155
 7437POPC   GL126077  26.030  15.212   8.855
 7437POPC   GL226078  26.000  15.082   8.855
 7437POPC   C1A26079  25.994  15.183   8.555
 7437POPC   D2A26080  26.036  15.191   8.255
 7437POPC   C3A26081  26.089  15.168   7.955
 7437POPC   C4A26082  26.049  15.136   7.655
 7437POPC   C1B26083  25.913  14.963   8.555
 7437POPC   C2B26084  25.919  14.935   8.255
 7437POPC   C3B26085  25.965  14.895   7.955
 7437POPC   C4B26086  25.963  14.936   7.655
 7438POPC   NC326087  17.483  30.735   9.455
 7438POPC   PO426088  17.471  30.734   9.155
 7438POPC   GL126089  17.477  30.722   8.855
 7438POPC   GL226090  17.559  30.610   8.855
 7438POPC   C1A26091  17.497  30.671   8.555
 7438POPC   D2A26092  17.546  30.729   8.255
 7438POPC   C3A26093  17.517  30.689   7.955
 7438POPC   C4A26094  17.530  30.738   7.655
 7438POPC   C1B26095  17.711  30.552   8.555
 7438POPC   C2B26096  17.697  30.502   8.255
 7438POPC   C3B26097  17.672  30.485   7.955
 7438POPC   C4B26098  17.657  30.540   7.655
 7439POPC   NC326099  19.853  15.137   9.455
 7439POPC   PO426100  19.863  15.198   9.155
 7439POPC   GL126101  19.861  15.216   8.855
 7439POPC   GL226102  19.758  15.220   8.855
 7439POPC   C1A26103  19.837  15.132   8.555
 7439POPC   D2A26104  19.847  15.153   8.255
 7439POPC   C3A26105  19.846  15.218   7.955
 7439POPC   C4A26106  19.843  15.172   7.655
 7439POPC   C1B26107  19.594  15.229   8.555
 7439POPC   C2B26108  19.649  15.323   8.255
 7439POPC   C3B26109  19.596  15.234   7.955
 7439POPC   C4B26110  19.637  15.230   7.655
 7440POPC   NC326111  23.688  42.365   9.455
 7440POPC   PO426112  23.681  42.349   9.155
 7440POPC   GL126113  23.702  42.361   8.855
 7440POPC   GL226114  23.681  42.461   8.855
 7440POPC   C1A26115  23.684  42.286   8.555
 7440POPC   D2A26116  23.674  42.381   8.255
 7440POPC   C3A26117  23.693  42.312   7.955
 7440POPC   C4A26118  23.710  42.299   7.655
 7440POPC   C1B26119  23.598  42.542   8.555
 7440POPC   C2B26120  23.686  42.595   8.255
 7440POPC   C3B26121  23.686  42.578   7.955
 7440POPC   C4B26122  23.683  42.585   7.655
 7441POPC   NC326123  20.581  33.061   9.455
 7441POPC   PO426124  20.578  33.001   9.155
 7441POPC   GL126125  20.617  32.980   8.855
 7441POPC   GL226126  20.690  32.955   8.855
 7441POPC   C1A26127  20.660  33.047   8.555
 7441POPC   D2A26128  20.657  33.064   8.255
 7441POPC   C3A26129  20.649  33.057   7.955
 7441POPC   C4A26130  20.600  33.046   7.655
 7441POPC   C1B26131  20.727  32.788   8.555
 7441POPC   C2B26132  20.754  32.870   8.255
 7441POPC   C3B26133  20.739  32.866   7.955
 7441POPC   C4B26134  20.815  32.869   7.655
 7442POPC   NC326135   7.380   2.765   9.455
 7442POPC   PO426136   7.371   2.737   9.155
 7442POPC   GL126137   7.390   2.734   8.855
 7442POPC   GL226138   7.318   2.873   8.855
 7442POPC   C1A26139   7.438   2.787   8.555
 7442POPC   D2A26140   7.408   2.815   8.255
 7442POPC   C3A26141   7.461   2.774   7.955
 7442POPC   C4A26142   7.433   2.718   7.655
 7442POPC   C1B26143   7.296   2.956   8.555
 7442POPC   C2B26144   7.310   2.965   8.255
 7442POPC   C3B26145   7.292   2.950   7.955
 7442POPC   C4B26146   7.349   2.944   7.655
 7443POPC   NC326147  29.933  29.907   9.455
 7443POPC   PO426148  29.925  29.911   9.155
 7443POPC   GL126149  29.880  29.953   8.855
 7443POPC   GL226150  29.993  30.031   8.855
 7443POPC   C1A26151  29.890  29.917   8.555
 7443POPC   D2A26152  29.889  29.929   8.255
 7443POPC   C3A26153  29.890  29.913   7.955
 7443POPC   C4A26154  29.969  29.943   7.655
 7443POPC   C1B26155  30.015  30.198   8.555
 7443POPC   C2B26156  29.928  30.121   8.255
 7443POPC   C3B26157  29.925  30.149   7.955
 7443POPC   C4B26158  30.020  30.144   7.655
 7444POPC   NC326159  16.739  11.280   9.455
 7444POPC   PO426160  16.723  11.336   9.155
 7444POPC   GL126161  16.727  11.296   8.855
 7444POPC   GL226162  16.613  11.325   8.855
 7444POPC   C1A26163  16.763  11.301   8.555
 7444POPC   D2A26164  16.750  11.291   8.255
 7444POPC   C3A26165  16.696  11.318   7.955
 7444POPC   C4A26166  16.718  11.317   7.655
 7444POPC   C1B26167  16.438  11.317   8.555
 7444POPC   C2B26168  16.514  11.275   8.255
 7444POPC   C3B26169  16.434  11.285   7.955
 7444POPC   C4B26170  16.437  11.305   7.655
 7445POPC   NC326171  17.529  19.045   9.455
 7445POPC   PO426172  17.539  19.067   9.155
 7445POPC   GL126173  17.544  19.056   8.855
 7445POPC   GL226174  17.509  19.204   8.855
 7445POPC   C1A26175  17.469  19.095   8.555
 7445POPC   D2A26176  17.496  19.083   8.255
 7445POPC   C3A26177  17.463  19.086   7.955
 7445POPC   C4A26178  17.555  19.012   7.655
 7445POPC   C1B26179  17.557  19.327   8.555
 7445POPC   C2B26180  17.571  19.275   8.255
 7445POPC   C3B26181  17.566  19.349   7.955
 7445POPC   C4B26182  17.563  19.326   7.655
 7446POPC   NC326183  37.695  16.748   9.455
 7446POPC   PO426184  37.659  16.772   9.155
 7446POPC   GL126185  37.717  16.756   8.855
 7446POPC   GL226186  37.813  16.792   8.855
 7446POPC   C1A26187  37.664  16.708   8.555
 7446POPC   D2A26188  37.640  16.780   8.255
 7446POPC   C3A26189  37.726  16.714   7.955
 7446POPC   C4A26190  37.675  16.694   7.655
 7446POPC   C1B26191  37.856  16.841   8.555
 7446POPC   C2B26192  37.901  16.909   8.255
 7446POPC   C3B26193  37.850  16.832   7.955
 7446POPC   C4B26194  37.841  16.866   7.655
 7447POPC   NC326195  28.329   5.850   9.455
 7447POPC   PO426196  28.373   5.820   9.155
 7447POPC   GL126197  28.404   5.884   8.855
 7447POPC   GL226198  28.524   5.796   8.855
 7447POPC   C1A26199  28.332   5.855   8.555
 7447POPC   D2A26200  28.347   5.864   8.255
 7447POPC   C3A26201  28.387   5.893   7.955
 7447POPC   C4A26202  28.412   5.870   7.655
 7447POPC   C1B26203  28.557   5.775   8.555
 7447POPC   C2B26204  28.622   5.722   8.255
 7447POPC   C3B26205  28.602   5.741   7.955
 7447POPC   C4B26206  28.572   5.743   7.655
 7448POPC   NC326207  42.352  15.906   9.455
 7448POPC   PO426208  42.367  15.934   9.155
 7448POPC   GL126209  42.335  15.922   8.855
 7448POPC   GL226210  42.300  15.880   8.855
 7448POPC   C1A26211  42.363  15.915   8.555
 7448POPC   D2A26212  42.374  15.957   8.255
 7448POPC   C3A26213  42.317  15.942   7.955
 7448POPC   C4A26214  42.369  16.003   7.655
 7448POPC   C1B26215  42.300  15.692   8.555
 7448POPC   C2B26216  42.238  15.693   8.255
 7448POPC   C3B26217  42.268  15.708   7.955
 7448POPC   C4B26218  42.283  15.760   7.655
 7449POPC   NC326219  26.069  12.840   9.455
 7449POPC   PO426220  26.049  12.900   9.155
 7449POPC   GL126221  26.049  12.864   8.855
 7449POPC   GL226222  26.092  12.925   8.855
 7449POPC   C1A26223  26.044  12.892   8.555
 7449POPC   D2A26224  26.024  12.867   8.255
 7449POPC   C3A26225  26.068  12.807   7.955
 7449POPC   C4A26226  26.089  12.872   7.655
 7449POPC   C1B26227  26.144  13.051   8.555
 7449POPC   C2B26228  26.230  13.006   8.255
 7449POPC   C3B26229  26.232  13.057   7.955
 7449POPC   C4B26230  26.239  13.052   7.655
 7450POPC   NC326231  14.440   9.780   9.455
 7450POPC   PO426232  14.394   9.764   9.155
 7450POPC   GL126233  14.412   9.782   8.855
 7450POPC   GL226234  14.371   9.844   8.855
 7450POPC   C1A26235  14.389   9.785   8.555
 7450POPC   D2A26236  14.394   9.773   8.255
 7450POPC   C3A26237  14.434   9.715   7.955
 7450POPC   C4A26238  14.389   9.702   7.655
 7450POPC   C1B26239  14.433  10.003   8.555
 7450POPC   C2B26240  14.468   9.973   8.255
 7450POPC   C3B26241  14.470   9.985   7.955
 7450POPC   C4B26242  14.404   9.983   7.655
 7451POPC   NC326243  19.089  22.139   9.455
 7451POPC   PO426244  19.019  22.192   9.155
 7451POPC   GL126245  19.091  22.134   8.855
 7451POPC   GL226246  19.169  22.085   8.855
 7451POPC   C1A26247  19.028  22.138   8.555
 7451POPC   D2A26248  19.108  22.162   8.255
 7451POPC   C3A26249  19.104  22.162   7.955
 7451POPC   C4A26250  19.087  22.173   7.655
 7451POPC   C1B26251  19.322  22.109   8.555
 7451POPC   C2B26252  19.333  22.107   8.255
 7451POPC   C3B26253  19.322  22.106   7.955
 7451POPC   C4B26254  19.326  22.087   7.655
 7452POPC   NC326255  19.796  34.606   9.455
 7452POPC   PO426256  19.822  34.549   9.155
 7452POPC   GL126257  19.848  34.577   8.855
 7452POPC   GL226258  19.748  34.635   8.855
 7452POPC   C1A26259  19.786  34.585   8.555
 7452POPC   D2A26260  19.856  34.608   8.255
 7452POPC   C3A26261  19.866  34.625   7.955
 7452POPC   C4A26262  19.854  34.534   7.655
 7452POPC   C1B26263  19.719  34.740   8.555
 7452POPC   C2B26264  19.713  34.776   8.255
 7452POPC   C3B26265  19.670  34.781   7.955
 7452POPC   C4B26266  19.706  34.795   7.655
 7453POPC   NC326267  22.123  40.048   9.455
 7453POPC   PO426268  22.178  40.041   9.155
 7453POPC   GL126269  22.115  39.968   8.855
 7453POPC   GL226270  22.293  40.090   8.855
 7453POPC   C1A26271  22.209  39.978   8.555
 7453POPC   D2A26272  22.135  39.963   8.255
 7453POPC   C3A26273  22.126  39.974   7.955
 7453POPC   C4A26274  22.186  39.966   7.655
 7453POPC   C1B26275  22.384  40.152   8.555
 7453POPC   C2B26276  22.390  40.137   8.255
 7453POPC   C3B26277  22.387  40.147   7.955
 7453POPC   C4B26278  22.363  40.158   7.655
 7454POPC   NC326279  19.862  13.580   9.455
 7454POPC   PO426280  19.873  13.620   9.155
 7454POPC   GL126281  19.873  13.598   8.855
 7454POPC   GL226282  19.923  13.561   8.855
 7454POPC   C1A26283  19.859  13.588   8.555
 7454POPC   D2A26284  19.849  13.660   8.255
 7454POPC   C3A26285  19.822  13.676   7.955
 7454POPC   C4A26286  19.838  13.666   7.655
 7454POPC   C1B26287  20.064  13.571   8.555
 7454POPC   C2B26288  20.067  13.515   8.255
 7454POPC   C3B26289  20.057  13.475   7.955
 7454POPC   C4B26290  20.105  13.530   7.655
 7455POPC   NC326291  36.866  44.624   9.455
 7455POPC   PO426292  36.878  44.675   9.155
 7455POPC   GL126293  36.944  44.639   8.855
 7455POPC   GL226294  37.013  44.720   8.855
 7455POPC   C1A26295  36.888  44.625   8.555
 7455POPC   D2A26296  36.854  44.653   8.255
 7455POPC   C3A26297  36.951  44.709   7.955
 7455POPC   C4A26298  36.920  44.702   7.655
 7455POPC   C1B26299  37.101  44.806   8.555
 7455POPC   C2B26300  37.046  44.789   8.255
 7455POPC   C3B26301  37.075  44.825   7.955
 7455POPC   C4B26302  37.044  44.791   7.655
 7456POPC   NC326303  20.653  39.253   9.455
 7456POPC   PO426304  20.609  39.219   9.155
 7456POPC   GL126305  20.617  39.207   8.855
 7456POPC   GL226306  20.745  39.194   8.855
 7456POPC   C1A26307  20.637  39.239   8.555
 7456POPC   D2A26308  20.569  39.276   8.255
 7456POPC   C3A26309  20.599  39.229   7.955
 7456POPC   C4A26310  20.620  39.197   7.655
 7456POPC   C1B26311  20.861  39.180   8.555
 7456POPC   C2B26312  20.843  39.240   8.255
 7456POPC   C3B26313  20.856  39.256   7.955
 7456POPC   C4B26314  20.840  39.198   7.655
 7457POPC   NC326315  26.819  41.551   9.455
 7457POPC   PO426316  26.861  41.579   9.155
 7457POPC   GL126317  26.818  41.595   8.855
 7457POPC   GL226318  26.779  41.406   8.855
 7457POPC   C1A26319  26.783  41.598   8.555
 7457POPC   D2A26320  26.771  41.521   8.255
 7457POPC   C3A26321  26.796  41.525   7.955
 7457POPC   C4A26322  26.813  41.590   7.655
 7457POPC   C1B26323  26.721  41.283   8.555
 7457POPC   C2B26324  26.688  41.357   8.255
 7457POPC   C3B26325  26.713  41.316   7.955
 7457POPC   C4B26326  26.674  41.358   7.655
 7458POPC   NC326327  42.331   1.200   9.455
 7458POPC   PO426328  42.339   1.172   9.155
 7458POPC   GL126329  42.330   1.200   8.855
 7458POPC   GL226330  42.212   1.277   8.855
 7458POPC   C1A26331  42.373   1.195   8.555
 7458POPC   D2A26332  42.285   1.201   8.255
 7458POPC   C3A26333  42.361   1.233   7.955
 7458POPC   C4A26334  42.376   1.254   7.655
 7458POPC   C1B26335  42.127   1.355   8.555
 7458POPC   C2B26336  42.102   1.375   8.255
 7458POPC   C3B26337  42.151   1.314   7.955
 7458POPC   C4B26338  42.135   1.318   7.655
 7459POPC   NC326339  35.383  20.642   9.455
 7459POPC   PO426340  35.399  20.577   9.155
 7459POPC   GL126341  35.365  20.622   8.855
 7459POPC   GL226342  35.303  20.538   8.855
 7459POPC   C1A26343  35.326  20.621   8.555
 7459POPC   D2A26344  35.312  20.577   8.255
 7459POPC   C3A26345  35.381  20.592   7.955
 7459POPC   C4A26346  35.303  20.608   7.655
 7459POPC   C1B26347  35.275  20.431   8.555
 7459POPC   C2B26348  35.261  20.365   8.255
 7459POPC   C3B26349  35.296  20.343   7.955
 7459POPC   C4B26350  35.290  20.363   7.655
 7460POPC   NC326351  32.287   8.232   9.455
 7460POPC   PO426352  32.199   8.176   9.155
 7460POPC   GL126353  32.279   8.187   8.855
 7460POPC   GL226354  32.293   8.263   8.855
 7460POPC   C1A26355  32.276   8.202   8.555
 7460POPC   D2A26356  32.250   8.154   8.255
 7460POPC   C3A26357  32.281   8.207   7.955
 7460POPC   C4A26358  32.295   8.242   7.655
 7460POPC   C1B26359  32.434   8.348   8.555
 7460POPC   C2B26360  32.458   8.414   8.255
 7460POPC   C3B26361  32.381   8.372   7.955
 7460POPC   C4B26362  32.434   8.333   7.655
 7461POPC   NC326363  22.961  25.229   9.455
 7461POPC   PO426364  22.910  25.252   9.155
 7461POPC   GL126365  22.911  25.298   8.855
 7461POPC   GL226366  22.918  25.152   8.855
 7461POPC   C1A26367  22.961  25.315   8.555
 7461POPC   D2A26368  22.973  25.291   8.255
 7461POPC   C3A26369  22.928  25.298   7.955
 7461POPC   C4A26370  22.954  25.220   7.655
 7461POPC   C1B26371  22.957  25.043   8.555
 7461POPC   C2B26372  22.911  25.058   8.255
 7461POPC   C3B26373  22.874  25.030   7.955
 7461POPC   C4B26374  22.893  25.050   7.655
 7462POPC   NC326375  29.917   0.427   9.455
 7462POPC   PO426376  29.878   0.422   9.155
 7462POPC   GL126377  29.932   0.474   8.855
 7462POPC   GL226378  29.803   0.522   8.855
 7462POPC   C1A26379  29.932   0.450   8.555
 7462POPC   D2A26380  29.915   0.395   8.255
 7462POPC   C3A26381  29.910   0.468   7.955
 7462POPC   C4A26382  29.892   0.433   7.655
 7462POPC   C1B26383  29.774   0.593   8.555
 7462POPC   C2B26384  29.735   0.616   8.255
 7462POPC   C3B26385  29.707   0.643   7.955
 7462POPC   C4B26386  29.761   0.634   7.655
 7463POPC   NC326387  41.594  14.355   9.455
 7463POPC   PO426388  41.567  14.421   9.155
 7463POPC   GL126389  41.598  14.403   8.855
 7463POPC   GL226390  41.635  14.506   8.855
 7463POPC   C1A26391  41.519  14.443   8.555
 7463POPC   D2A26392  41.535  14.422   8.255
 7463POPC   C3A26393  41.586  14.413   7.955
 7463POPC   C4A26394  41.531  14.417   7.655
 7463POPC   C1B26395  41.641  14.641   8.555
 7463POPC   C2B26396  41.585  14.630   8.255
 7463POPC   C3B26397  41.650  14.641   7.955
 7463POPC   C4B26398  41.621  14.671   7.655
 7464POPC   NC326399  26.018   6.627   9.455
 7464POPC   PO426400  26.080   6.693   9.155
 7464POPC   GL126401  26.001   6.666   8.855
 7464POPC   GL226402  26.030   6.748   8.855
 7464POPC   C1A26403  26.038   6.637   8.555
 7464POPC   D2A26404  26.014   6.651   8.255
 7464POPC   C3A26405  26.068   6.641   7.955
 7464POPC   C4A26406  26.045   6.655   7.655
 7464POPC   C1B26407  26.096   6.922   8.555
 7464POPC   C2B26408  26.074   6.870   8.255
 7464POPC   C3B26409  26.085   6.922   7.955
 7464POPC   C4B26410  26.121   6.918   7.655
 7465POPC   NC326411  27.560  11.328   9.455
 7465POPC   PO426412  27.576  11.320   9.155
 7465POPC   GL126413  27.615  11.320   8.855
 7465POPC   GL226414  27.712  11.169   8.855
 7465POPC   C1A26415  27.549  11.302   8.555
 7465POPC   D2A26416  27.584  11.250   8.255
 7465POPC   C3A26417  27.635  11.320   7.955
 7465POPC   C4A26418  27.623  11.317   7.655
 7465POPC   C1B26419  27.739  11.117   8.555
 7465POPC   C2B26420  27.705  11.138   8.255
 7465POPC   C3B26421  27.744  11.050   7.955
 7465POPC   C4B26422  27.756  11.079   7.655
 7466POPC   NC326423  35.370  26.855   9.455
 7466POPC   PO426424  35.354  26.814   9.155
 7466POPC   GL126425  35.362  26.780   8.855
 7466POPC   GL226426  35.210  26.863   8.855
 7466POPC   C1A26427  35.393  26.816   8.555
 7466POPC   D2A26428  35.335  26.849   8.255
 7466POPC   C3A26429  35.336  26.823   7.955
 7466POPC   C4A26430  35.340  26.854   7.655
 7466POPC   C1B26431  35.128  26.911   8.555
 7466POPC   C2B26432  35.136  26.944   8.255
 7466POPC   C3B26433  35.169  26.880   7.955
 7466POPC   C4B26434  35.122  26.868   7.655
 7467POPC   NC326435  40.812  11.300   9.455
 7467POPC   PO426436  40.824  11.296   9.155
 7467POPC   GL126437  40.825  11.326   8.855
 7467POPC   GL226438  40.659  11.223   8.855
 7467POPC   C1A26439  40.794  11.285   8.555
 7467POPC   D2A26440  40.752  11.313   8.255
 7467POPC   C3A26441  40.747  11.328   7.955
 7467POPC   C4A26442  40.745  11.278   7.655
 7467POPC   C1B26443  40.505  11.175   8.555
 7467POPC   C2B26444  40.514  11.178   8.255
 7467POPC   C3B26445  40.583  11.218   7.955
 7467POPC   C4B26446  40.573  11.201   7.655
 7468POPC   NC326447  19.059  29.097   9.455
 7468POPC   PO426448  19.065  29.118   9.155
 7468POPC   GL126449  19.016  29.181   8.855
 7468POPC   GL226450  18.905  29.159   8.855
 7468POPC   C1A26451  19.099  29.106   8.555
 7468POPC   D2A26452  19.081  29.110   8.255
 7468POPC   C3A26453  19.101  29.136   7.955
 7468POPC   C4A26454  19.076  29.171   7.655
 7468POPC   C1B26455  18.793  29.054   8.555
 7468POPC   C2B26456  18.798  29.048   8.255
 7468POPC   C3B26457  18.829  29.061   7.955
 7468POPC   C4B26458  18.817  29.075   7.655
 7469POPC   NC326459  13.663  42.294   9.455
 7469POPC   PO426460  13.611  42.370   9.155
 7469POPC   GL126461  13.635  42.302   8.855
 7469POPC   GL226462  13.601  42.482   8.855
 7469POPC   C1A26463  13.622  42.304   8.555
 7469POPC   D2A26464  13.607  42.316   8.255
 7469POPC   C3A26465  13.626  42.373   7.955
 7469POPC   C4A26466  13.615  42.383   7.655
 7469POPC   C1B26467  13.505  42.562   8.555
 7469POPC   C2B26468  13.525  42.528   8.255
 7469POPC   C3B26469  13.580  42.605   7.955
 7469POPC   C4B26470  13.598  42.552   7.655
 7470POPC   NC326471  21.347  16.725   9.455
 7470POPC   PO426472  21.401  16.698   9.155
 7470POPC   GL126473  21.412  16.685   8.855
 7470POPC   GL226474  21.398  16.640   8.855
 7470POPC   C1A26475  21.403  16.715   8.555
 7470POPC   D2A26476  21.389  16.761   8.255
 7470POPC   C3A26477  21.417  16.750   7.955
 7470POPC   C4A26478  21.414  16.757   7.655
 7470POPC   C1B26479  21.353  16.431   8.555
 7470POPC   C2B26480  21.364  16.522   8.255
 7470POPC   C3B26481  21.362  16.525   7.955
 7470POPC   C4B26482  21.436  16.527   7.655
 7471POPC   NC326483  23.733  30.652   9.455
 7471POPC   PO426484  23.747  30.737   9.155
 7471POPC   GL126485  23.689  30.670   8.855
 7471POPC   GL226486  23.832  30.767   8.855
 7471POPC   C1A26487  23.680  30.735   8.555
 7471POPC   D2A26488  23.691  30.679   8.255
 7471POPC   C3A26489  23.748  30.648   7.955
 7471POPC   C4A26490  23.727  30.729   7.655
 7471POPC   C1B26491  23.960  30.749   8.555
 7471POPC   C2B26492  23.960  30.785   8.255
 7471POPC   C3B26493  23.921  30.781   7.955
 7471POPC   C4B26494  23.955  30.769   7.655
 7472POPC   NC326495  33.826  23.707   9.455
 7472POPC   PO426496  33.796  23.753   9.155
 7472POPC   GL126497  33.798  23.671   8.855
 7472POPC   GL226498  33.865  23.594   8.855
 7472POPC   C1A26499  33.791  23.681   8.555
 7472POPC   D2A26500  33.808  23.674   8.255
 7472POPC   C3A26501  33.817  23.669   7.955
 7472POPC   C4A26502  33.781  23.724   7.655
 7472POPC   C1B26503  33.928  23.504   8.555
 7472POPC   C2B26504  33.917  23.451   8.255
 7472POPC   C3B26505  33.843  23.438   7.955
 7472POPC   C4B26506  33.844  23.456   7.655
 7473POPC   NC326507  35.400  43.097   9.455
 7473POPC   PO426508  35.308  43.145   9.155
 7473POPC   GL126509  35.363  43.159   8.855
 7473POPC   GL226510  35.311  43.040   8.855
 7473POPC   C1A26511  35.319  43.107   8.555
 7473POPC   D2A26512  35.334  43.101   8.255
 7473POPC   C3A26513  35.399  43.083   7.955
 7473POPC   C4A26514  35.315  43.075   7.655
 7473POPC   C1B26515  35.295  42.859   8.555
 7473POPC   C2B26516  35.296  42.832   8.255
 7473POPC   C3B26517  35.226  42.919   7.955
 7473POPC   C4B26518  35.235  42.880   7.655
 7474POPC   NC326519  30.662   1.961   9.455
 7474POPC   PO426520  30.664   2.008   9.155
 7474POPC   GL126521  30.647   1.959   8.855
 7474POPC   GL226522  30.795   2.106   8.855
 7474POPC   C1A26523  30.674   2.007   8.555
 7474POPC   D2A26524  30.721   1.971   8.255
 7474POPC   C3A26525  30.661   2.002   7.955
 7474POPC   C4A26526  30.689   2.039   7.655
 7474POPC   C1B26527  30.842   2.160   8.555
 7474POPC   C2B26528  30.844   2.189   8.255
 7474POPC   C3B26529  30.910   2.143   7.955
 7474POPC   C4B26530  30.903   2.139   7.655
 7475POPC   NC326531   6.618  11.291   9.455
 7475POPC   PO426532   6.666  11.288   9.155
 7475POPC   GL126533   6.622  11.332   8.855
 7475POPC   GL226534   6.745  11.270   8.855
 7475POPC   C1A26535   6.605  11.255   8.555
 7475POPC   D2A26536   6.622  11.318   8.255
 7475POPC   C3A26537   6.680  11.328   7.955
 7475POPC   C4A26538   6.616  11.278   7.655
 7475POPC   C1B26539   6.840  11.250   8.555
 7475POPC   C2B26540   6.896  11.227   8.255
 7475POPC   C3B26541   6.908  11.173   7.955
 7475POPC   C4B26542   6.880  11.179   7.655
 7476POPC   NC326543   1.952  32.209   9.455
 7476POPC   PO426544   1.974  32.209   9.155
 7476POPC   GL126545   2.018  32.261   8.855
 7476POPC   GL226546   1.965  32.174   8.855
 7476POPC   C1A26547   1.973  32.225   8.555
 7476POPC   D2A26548   1.955  32.248   8.255
 7476POPC   C3A26549   1.983  32.214   7.955
 7476POPC   C4A26550   1.996  32.214   7.655
 7476POPC   C1B26551   1.990  32.047   8.555
 7476POPC   C2B26552   1.918  32.017   8.255
 7476POPC   C3B26553   1.948  32.002   7.955
 7476POPC   C4B26554   1.974  32.006   7.655
 7477POPC   NC326555  15.968  18.244   9.455
 7477POPC   PO426556  15.936  18.322   9.155
 7477POPC   GL126557  15.972  18.310   8.855
 7477POPC   GL226558  16.071  18.344   8.855
 7477POPC   C1A26559  15.960  18.304   8.555
 7477POPC   D2A26560  15.939  18.264   8.255
 7477POPC   C3A26561  15.962  18.236   7.955
 7477POPC   C4A26562  15.973  18.284   7.655
 7477POPC   C1B26563  16.173  18.331   8.555
 7477POPC   C2B26564  16.169  18.262   8.255
 7477POPC   C3B26565  16.190  18.258   7.955
 7477POPC   C4B26566  16.157  18.285   7.655
 7478POPC   NC326567  15.958  20.608   9.455
 7478POPC   PO426568  15.977  20.584   9.155
 7478POPC   GL126569  15.914  20.582   8.855
 7478POPC   GL226570  16.111  20.688   8.855
 7478POPC   C1A26571  15.951  20.569   8.555
 7478POPC   D2A26572  15.974  20.599   8.255
 7478POPC   C3A26573  15.953  20.608   7.955
 7478POPC   C4A26574  15.945  20.576   7.655
 7478POPC   C1B26575  16.150  20.727   8.555
 7478POPC   C2B26576  16.237  20.707   8.255
 7478POPC   C3B26577  16.156  20.709   7.955
 7478POPC   C4B26578  16.238  20.656   7.655
 7479POPC   NC326579   0.427  33.031   9.455
 7479POPC   PO426580   0.423  32.983   9.155
 7479POPC   GL126581   0.415  33.015   8.855
 7479POPC   GL226582   0.540  32.878   8.855
 7479POPC   C1A26583   0.395  32.996   8.555
 7479POPC   D2A26584   0.454  33.073   8.255
 7479POPC   C3A26585   0.416  33.006   7.955
 7479POPC   C4A26586   0.440  33.067   7.655
 7479POPC   C1B26587   0.631  32.808   8.555
 7479POPC   C2B26588   0.623  32.822   8.255
 7479POPC   C3B26589   0.608  32.812   7.955
 7479POPC   C4B26590   0.615  32.865   7.655
 7480POPC   NC326591  19.831  37.634   9.455
 7480POPC   PO426592  19.835  37.710   9.155
 7480POPC   GL126593  19.826  37.723   8.855
 7480POPC   GL226594  19.953  37.566   8.855
 7480POPC   C1A26595  19.860  37.688   8.555
 7480POPC   D2A26596  19.820  37.664   8.255
 7480POPC   C3A26597  19.882  37.703   7.955
 7480POPC   C4A26598  19.878  37.648   7.655
 7480POPC   C1B26599  20.075  37.519   8.555
 7480POPC   C2B26600  20.005  37.533   8.255
 7480POPC   C3B26601  20.026  37.582   7.955
 7480POPC   C4B26602  20.047  37.549   7.655
 7481POPC   NC326603  10.490  37.685   9.455
 7481POPC   PO426604  10.483  37.701   9.155
 7481POPC   GL126605  10.512  37.633   8.855
 7481POPC   GL226606  10.549  37.587   8.855
 7481POPC   C1A26607  10.559  37.715   8.555
 7481POPC   D2A26608  10.530  37.661   8.255
 7481POPC   C3A26609  10.541  37.701   7.955
 7481POPC   C4A26610  10.489  37.646   7.655
 7481POPC   C1B26611  10.634  37.478   8.555
 7481POPC   C2B26612  10.654  37.434   8.255
 7481POPC   C3B26613  10.689  37.468   7.955
 7481POPC   C4B26614  10.629  37.454   7.655
 7482POPC   NC326615  36.897  13.599   9.455
 7482POPC   PO426616  36.913  13.592   9.155
 7482POPC   GL126617  36.896  13.636   8.855
 7482POPC   GL226618  37.004  13.563   8.855
 7482POPC   C1A26619  36.906  13.613   8.555
 7482POPC   D2A26620  36.949  13.592   8.255
 7482POPC   C3A26621  36.881  13.628   7.955
 7482POPC   C4A26622  36.926  13.593   7.655
 7482POPC   C1B26623  37.080  13.441   8.555
 7482POPC   C2B26624  37.140  13.516   8.255
 7482POPC   C3B26625  37.066  13.476   7.955
 7482POPC   C4B26626  37.131  13.474   7.655
 7483POPC   NC326627   1.961  39.233   9.455
 7483POPC   PO426628   1.951  39.192   9.155
 7483POPC   GL126629   2.022  39.247   8.855
 7483POPC   GL226630   2.072  39.123   8.855
 7483POPC   C1A26631   1.994  39.260   8.555
 7483POPC   D2A26632   2.012  39.238   8.255
 7483POPC   C3A26633   1.980  39.194   7.955
 7483POPC   C4A26634   2.021  39.220   7.655
 7483POPC   C1B26635   2.231  39.134   8.555
 7483POPC   C2B26636   2.205  39.103   8.255
 7483POPC   C3B26637   2.205  39.140   7.955
 7483POPC   C4B26638   2.237  39.094   7.655
 7484POPC   NC326639  43.160  32.984   9.455
 7484POPC   PO426640  43.085  33.048   9.155
 7484POPC   GL126641  43.142  33.038   8.855
 7484POPC   GL226642  43.042  33.157   8.855
 7484POPC   C1A26643  43.080  33.006   8.555
 7484POPC   D2A26644  43.075  33.063   8.255
 7484POPC   C3A26645  43.071  32.991   7.955
 7484POPC   C4A26646  43.099  33.013   7.655
 7484POPC   C1B26647  43.063  33.226   8.555
 7484POPC   C2B26648  43.029  33.241   8.255
 7484POPC   C3B26649  43.027  33.233   7.955
 7484POPC   C4B26650  43.010  33.304   7.655
 7485POPC   NC326651  33.000  22.961   9.455
 7485POPC   PO426652  33.032  22.947   9.155
 7485POPC   GL126653  33.072  22.968   8.855
 7485POPC   GL226654  33.144  23.060   8.855
 7485POPC   C1A26655  33.057  22.967   8.555
 7485POPC   D2A26656  33.065  22.954   8.255
 7485POPC   C3A26657  33.069  22.940   7.955
 7485POPC   C4A26658  33.039  22.925   7.655
 7485POPC   C1B26659  33.148  23.105   8.555
 7485POPC   C2B26660  33.205  23.112   8.255
 7485POPC   C3B26661  33.194  23.104   7.955
 7485POPC   C4B26662  33.205  23.114   7.655
 7486POPC   NC326663  16.730  29.877   9.455
 7486POPC   PO426664  16.689  29.968   9.155
 7486POPC   GL126665  16.766  29.953   8.855
 7486POPC   GL226666  16.682  30.082   8.855
 7486POPC   C1A26667  16.770  29.914   8.555
 7486POPC   D2A26668  16.705  29.909   8.255
 7486POPC   C3A26669  16.697  29.936   7.955
 7486POPC   C4A26670  16.716  29.884   7.655
 7486POPC   C1B26671  16.607  30.166   8.555
 7486POPC   C2B26672  16.599  30.158   8.255
 7486POPC   C3B26673  16.669  30.199   7.955
 7486POPC   C4B26674  16.596  30.141   7.655
 7487POPC   NC326675  33.054  10.488   9.455
 7487POPC   PO426676  33.025  10.495   9.155
 7487POPC   GL126677  33.007  10.529   8.855
 7487POPC   GL226678  32.874  10.600   8.855
 7487POPC   C1A26679  33.034  10.567   8.555
 7487POPC   D2A26680  32.987  10.531   8.255
 7487POPC   C3A26681  33.053  10.495   7.955
 7487POPC   C4A26682  32.990  10.571   7.655
 7487POPC   C1B26683  32.815  10.610   8.555
 7487POPC   C2B26684  32.825  10.585   8.255
 7487POPC   C3B26685  32.824  10.667   7.955
 7487POPC   C4B26686  32.763  10.636   7.655
 7488POPC   NC326687  32.256  22.157   9.455
 7488POPC   PO426688  32.247  22.173   9.155
 7488POPC   GL126689  32.241  22.171   8.855
 7488POPC   GL226690  32.170  22.248   8.855
 7488POPC   C1A26691  32.282  22.141   8.555
 7488POPC   D2A26692  32.287  22.204   8.255
 7488POPC   C3A26693  32.230  22.117   7.955
 7488POPC   C4A26694  32.272  22.173   7.655
 7488POPC   C1B26695  32.088  22.320   8.555
 7488POPC   C2B26696  32.061  22.296   8.255
 7488POPC   C3B26697  32.023  22.337   7.955
 7488POPC   C4B26698  32.057  22.313   7.655
 7489POPC   NC326699  16.698  22.922   9.455
 7489POPC   PO426700  16.732  22.968   9.155
 7489POPC   GL126701  16.757  22.934   8.855
 7489POPC   GL226702  16.738  23.006   8.855
 7489POPC   C1A26703  16.744  22.905   8.555
 7489POPC   D2A26704  16.739  22.977   8.255
 7489POPC   C3A26705  16.741  22.932   7.955
 7489POPC   C4A26706  16.753  22.979   7.655
 7489POPC   C1B26707  16.853  23.155   8.555
 7489POPC   C2B26708  16.815  23.137   8.255
 7489POPC   C3B26709  16.888  23.138   7.955
 7489POPC   C4B26710  16.819  23.198   7.655
 7490POPC   NC326711  34.556  34.549   9.455
 7490POPC   PO426712  34.581  34.564   9.155
 7490POPC   GL126713  34.560  34.608   8.855
 7490POPC   GL226714  34.522  34.477   8.855
 7490POPC   C1A26715  34.573  34.620   8.555
 7490POPC   D2A26716  34.539  34.614   8.255
 7490POPC   C3A26717  34.571  34.527   7.955
 7490POPC   C4A26718  34.546  34.612   7.655
 7490POPC   C1B26719  34.394  34.357   8.555
 7490POPC   C2B26720  34.412  34.415   8.255
 7490POPC   C3B26721  34.385  34.382   7.955
 7490POPC   C4B26722  34.391  34.349   7.655
 7491POPC   NC326723  34.542  12.095   9.455
 7491POPC   PO426724  34.530  12.101   9.155
 7491POPC   GL126725  34.535  12.120   8.855
 7491POPC   GL226726  34.667  12.130   8.855
 7491POPC   C1A26727  34.614  12.063   8.555
 7491POPC   D2A26728  34.561  12.069   8.255
 7491POPC   C3A26729  34.549  12.118   7.955
 7491POPC   C4A26730  34.622  12.062   7.655
 7491POPC   C1B26731  34.798  12.192   8.555
 7491POPC   C2B26732  34.826  12.239   8.255
 7491POPC   C3B26733  34.846  12.140   7.955
 7491POPC   C4B26734  34.819  12.178   7.655
 7492POPC   NC326735  15.937   1.974   9.455
 7492POPC   PO426736  16.002   1.952   9.155
 7492POPC   GL126737  15.942   1.959   8.855
 7492POPC   GL226738  16.070   1.946   8.855
 7492POPC   C1A26739  15.979   1.998   8.555
 7492POPC   D2A26740  15.907   2.036   8.255
 7492POPC   C3A26741  15.999   1.992   7.955
 7492POPC   C4A26742  15.961   2.021   7.655
 7492POPC   C1B26743  16.205   2.003   8.555
 7492POPC   C2B26744  16.234   1.914   8.255
 7492POPC   C3B26745  16.235   1.971   7.955
 7492POPC   C4B26746  16.157   1.931   7.655
 7493POPC   NC326747   6.616  33.790   9.455
 7493POPC   PO426748   6.614  33.828   9.155
 7493POPC   GL126749   6.671  33.822   8.855
 7493POPC   GL226750   6.563  33.878   8.855
 7493POPC   C1A26751   6.626  33.776   8.555
 7493POPC   D2A26752   6.611  33.762   8.255
 7493POPC   C3A26753   6.634  33.838   7.955
 7493POPC   C4A26754   6.600  33.827   7.655
 7493POPC   C1B26755   6.493  33.995   8.555
 7493POPC   C2B26756   6.437  33.968   8.255
 7493POPC   C3B26757   6.494  33.980   7.955
 7493POPC   C4B26758   6.468  34.024   7.655
 7494POPC   NC326759  15.208  17.463   9.455
 7494POPC   PO426760  15.172  17.538   9.155
 7494POPC   GL126761  15.195  17.465   8.855
 7494POPC   GL226762  15.118  17.409   8.855
 7494POPC   C1A26763  15.198  17.483   8.555
 7494POPC   D2A26764  15.134  17.496   8.255
 7494POPC   C3A26765  15.222  17.480   7.955
 7494POPC   C4A26766  15.161  17.464   7.655
 7494POPC   C1B26767  15.052  17.300   8.555
 7494POPC   C2B26768  15.030  17.303   8.255
 7494POPC   C3B26769  15.033  17.254   7.955
 7494POPC   C4B26770  15.096  17.325   7.655
 7495POPC   NC326771  19.841   9.739   9.455
 7495POPC   PO426772  19.853   9.794   9.155
 7495POPC   GL126773  19.883   9.788   8.855
 7495POPC   GL226774  19.921   9.777   8.855
 7495POPC   C1A26775  19.862   9.780   8.555
 7495POPC   D2A26776  19.868   9.758   8.255
 7495POPC   C3A26777  19.872   9.699   7.955
 7495POPC   C4A26778  19.825   9.782   7.655
 7495POPC   C1B26779  20.090   9.735   8.555
 7495POPC   C2B26780  20.069   9.777   8.255
 7495POPC   C3B26781  20.120   9.740   7.955
 7495POPC   C4B26782  20.052   9.757   7.655
 7496POPC   NC326783   7.445  20.632   9.455
 7496POPC   PO426784   7.440  20.599   9.155
 7496POPC   GL126785   7.385  20.614   8.855
 7496POPC   GL226786   7.342  20.666   8.855
 7496POPC   C1A26787   7.380  20.567   8.555
 7496POPC   D2A26788   7.397  20.630   8.255
 7496POPC   C3A26789   7.447  20.653   7.955
 7496POPC   C4A26790   7.457  20.600   7.655
 7496POPC   C1B26791   7.170  20.653   8.555
 7496POPC   C2B26792   7.175  20.620   8.255
 7496POPC   C3B26793   7.136  20.588   7.955
 7496POPC   C4B26794   7.156  20.646   7.655
 7497POPC   NC326795  37.719  15.178   9.455
 7497POPC   PO426796  37.658  15.174   9.155
 7497POPC   GL126797  37.712  15.148   8.855
 7497POPC   GL226798  37.804  15.228   8.855
 7497POPC   C1A26799  37.631  15.227   8.555
 7497POPC   D2A26800  37.674  15.130   8.255
 7497POPC   C3A26801  37.680  15.222   7.955
 7497POPC   C4A26802  37.729  15.138   7.655
 7497POPC   C1B26803  37.865  15.332   8.555
 7497POPC   C2B26804  37.815  15.334   8.255
 7497POPC   C3B26805  37.867  15.395   7.955
 7497POPC   C4B26806  37.855  15.328   7.655
 7498POPC   NC326807   5.092  23.747   9.455
 7498POPC   PO426808   5.106  23.668   9.155
 7498POPC   GL126809   5.100  23.721   8.855
 7498POPC   GL226810   5.181  23.706   8.855
 7498POPC   C1A26811   5.104  23.708   8.555
 7498POPC   D2A26812   5.052  23.671   8.255
 7498POPC   C3A26813   5.075  23.723   7.955
 7498POPC   C4A26814   5.099  23.743   7.655
 7498POPC   C1B26815   5.299  23.747   8.555
 7498POPC   C2B26816   5.366  23.739   8.255
 7498POPC   C3B26817   5.376  23.761   7.955
 7498POPC   C4B26818   5.320  23.789   7.655
 7499POPC   NC326819   9.740  20.578   9.455
 7499POPC   PO426820   9.737  20.602   9.155
 7499POPC   GL126821   9.780  20.576   8.855
 7499POPC   GL226822   9.773  20.499   8.855
 7499POPC   C1A26823   9.727  20.619   8.555
 7499POPC   D2A26824   9.766  20.608   8.255
 7499POPC   C3A26825   9.725  20.599   7.955
 7499POPC   C4A26826   9.768  20.637   7.655
 7499POPC   C1B26827   9.805  20.401   8.555
 7499POPC   C2B26828   9.794  20.364   8.255
 7499POPC   C3B26829   9.880  20.389   7.955
 7499POPC   C4B26830   9.814  20.331   7.655
 7500POPC   NC326831  13.646   8.983   9.455
 7500POPC   PO426832  13.654   8.925   9.155
 7500POPC   GL126833  13.579   8.929   8.855
 7500POPC   GL226834  13.595   9.137   8.855
 7500POPC   C1A26835  13.649   8.987   8.555
 7500POPC   D2A26836  13.646   8.966   8.255
 7500POPC   C3A26837  13.623   9.015   7.955
 7500POPC   C4A26838  13.671   9.005   7.655
 7500POPC   C1B26839  13.560   9.230   8.555
 7500POPC   C2B26840  13.495   9.253   8.255
 7500POPC   C3B26841  13.537   9.228   7.955
 7500POPC   C4B26842  13.577   9.251   7.655
 7501POPC   NC326843  25.263  17.468   9.455
 7501POPC   PO426844  25.287  17.476   9.155
 7501POPC   GL126845  25.311  17.492   8.855
 7501POPC   GL226846  25.245  17.345   8.855
 7501POPC   C1A26847  25.267  17.518   8.555
 7501POPC   D2A26848  25.239  17.499   8.255
 7501POPC   C3A26849  25.225  17.479   7.955
 7501POPC   C4A26850  25.277  17.500   7.655
 7501POPC   C1B26851  25.241  17.260   8.555
 7501POPC   C2B26852  25.154  17.268   8.255
 7501POPC   C3B26853  25.227  17.311   7.955
 7501POPC   C4B26854  25.186  17.225   7.655
 7502POPC   NC326855  11.339  38.423   9.455
 7502POPC   PO426856  11.314  38.462   9.155
 7502POPC   GL126857  11.256  38.467   8.855
 7502POPC   GL226858  11.402  38.358   8.855
 7502POPC   C1A26859  11.348  38.436   8.555
 7502POPC   D2A26860  11.285  38.450   8.255
 7502POPC   C3A26861  11.264  38.443   7.955
 7502POPC   C4A26862  11.309  38.492   7.655
 7502POPC   C1B26863  11.545  38.347   8.555
 7502POPC   C2B26864  11.529  38.262   8.255
 7502POPC   C3B26865  11.476  38.269   7.955
 7502POPC   C4B26866  11.471  38.313   7.655
 7503POPC   NC326867  41.509  34.605   9.455
 7503POPC   PO426868  41.522  34.600   9.155
 7503POPC   GL126869  41.512  34.590   8.855
 7503POPC   GL226870  41.707  34.595   8.855
 7503POPC   C1A26871  41.535  34.561   8.555
 7503POPC   D2A26872  41.570  34.620   8.255
 7503POPC   C3A26873  41.553  34.587   7.955
 7503POPC   C4A26874  41.569  34.619   7.655
 7503POPC   C1B26875  41.759  34.659   8.555
 7503POPC   C2B26876  41.847  34.593   8.255
 7503POPC   C3B26877  41.807  34.657   7.955
 7503POPC   C4B26878  41.780  34.662   7.655
 7504POPC   NC326879   6.603  26.856   9.455
 7504POPC   PO426880   6.595  26.781   9.155
 7504POPC   GL126881   6.626  26.769   8.855
 7504POPC   GL226882   6.576  26.915   8.855
 7504POPC   C1A26883   6.612  26.817   8.555
 7504POPC   D2A26884   6.623  26.783   8.255
 7504POPC   C3A26885   6.637  26.786   7.955
 7504POPC   C4A26886   6.655  26.795   7.655
 7504POPC   C1B26887   6.511  27.044   8.555
 7504POPC   C2B26888   6.429  27.019   8.255
 7504POPC   C3B26889   6.509  27.015   7.955
 7504POPC   C4B26890   6.511  27.052   7.655
 7505POPC   NC326891   1.189  37.721   9.455
 7505POPC   PO426892   1.190  37.670   9.155
 7505POPC   GL126893   1.243  37.705   8.855
 7505POPC   GL226894   1.143  37.756   8.855
 7505POPC   C1A26895   1.228  37.710   8.555
 7505POPC   D2A26896   1.196  37.690   8.255
 7505POPC   C3A26897   1.231  37.698   7.955
 7505POPC   C4A26898   1.199  37.666   7.655
 7505POPC   C1B26899   1.037  37.888   8.555
 7505POPC   C2B26900   1.091  37.898   8.255
 7505POPC   C3B26901   1.004  37.824   7.955
 7505POPC   C4B26902   1.078  37.871   7.655
 7506POPC   NC326903  19.863  19.022   9.455
 7506POPC   PO426904  19.836  19.058   9.155
 7506POPC   GL126905  19.874  19.091   8.855
 7506POPC   GL226906  19.947  19.043   8.855
 7506POPC   C1A26907  19.802  19.058   8.555
 7506POPC   D2A26908  19.822  19.108   8.255
 7506POPC   C3A26909  19.802  19.057   7.955
 7506POPC   C4A26910  19.877  19.087   7.655
 7506POPC   C1B26911  20.074  18.977   8.555
 7506POPC   C2B26912  20.113  18.983   8.255
 7506POPC   C3B26913  20.030  18.984   7.955
 7506POPC   C4B26914  20.065  19.033   7.655
 7507POPC   NC326915   5.876   1.260   9.455
 7507POPC   PO426916   5.914   1.261   9.155
 7507POPC   GL126917   5.895   1.182   8.855
 7507POPC   GL226918   5.843   1.103   8.855
 7507POPC   C1A26919   5.823   1.261   8.555
 7507POPC   D2A26920   5.848   1.261   8.255
 7507POPC   C3A26921   5.889   1.214   7.955
 7507POPC   C4A26922   5.838   1.230   7.655
 7507POPC   C1B26923   5.812   0.974   8.555
 7507POPC   C2B26924   5.853   0.955   8.255
 7507POPC   C3B26925   5.873   1.005   7.955
 7507POPC   C4B26926   5.875   0.999   7.655
 7508POPC   NC326927  42.327   0.410   9.455
 7508POPC   PO426928  42.345   0.437   9.155
 7508POPC   GL126929  42.299   0.406   8.855
 7508POPC   GL226930  42.463   0.345   8.855
 7508POPC   C1A26931  42.372   0.420   8.555
 7508POPC   D2A26932  42.330   0.398   8.255
 7508POPC   C3A26933  42.307   0.443   7.955
 7508POPC   C4A26934  42.342   0.410   7.655
 7508POPC   C1B26935  42.525   0.365   8.555
 7508POPC   C2B26936  42.535   0.348   8.255
 7508POPC   C3B26937  42.544   0.366   7.955
 7508POPC   C4B26938  42.571   0.357   7.655
 7509POPC   NC326939   1.961  15.150   9.455
 7509POPC   PO426940   1.964  15.194   9.155
 7509POPC   GL126941   1.961  15.142   8.855
 7509POPC   GL226942   1.980  15.059   8.855
 7509POPC   C1A26943   1.981  15.181   8.555
 7509POPC   D2A26944   2.027  15.229   8.255
 7509POPC   C3A26945   1.978  15.177   7.955
 7509POPC   C4A26946   2.035  15.203   7.655
 7509POPC   C1B26947   1.909  14.981   8.555
 7509POPC   C2B26948   1.845  14.944   8.255
 7509POPC   C3B26949   1.855  14.963   7.955
 7509POPC   C4B26950   1.891  14.965   7.655
 7510POPC   NC326951   4.318   9.712   9.455
 7510POPC   PO426952   4.307   9.704   9.155
 7510POPC   GL126953   4.364   9.763   8.855
 7510POPC   GL226954   4.324   9.908   8.855
 7510POPC   C1A26955   4.304   9.759   8.555
 7510POPC   D2A26956   4.332   9.710   8.255
 7510POPC   C3A26957   4.321   9.769   7.955
 7510POPC   C4A26958   4.312   9.722   7.655
 7510POPC   C1B26959   4.421  10.008   8.555
 7510POPC   C2B26960   4.430   9.980   8.255
 7510POPC   C3B26961   4.437   9.951   7.955
 7510POPC   C4B26962   4.430  10.016   7.655
 7511POPC   NC326963  12.876  21.396   9.455
 7511POPC   PO426964  12.818  21.391   9.155
 7511POPC   GL126965  12.815  21.380   8.855
 7511POPC   GL226966  12.778  21.528   8.855
 7511POPC   C1A26967  12.825  21.364   8.555
 7511POPC   D2A26968  12.803  21.358   8.255
 7511POPC   C3A26969  12.826  21.402   7.955
 7511POPC   C4A26970  12.849  21.338   7.655
 7511POPC   C1B26971  12.645  21.537   8.555
 7511POPC   C2B26972  12.723  21.534   8.255
 7511POPC   C3B26973  12.643  21.592   7.955
 7511POPC   C4B26974  12.670  21.586   7.655
 7512POPC   NC326975  27.572  13.648   9.455
 7512POPC   PO426976  27.628  13.646   9.155
 7512POPC   GL126977  27.634  13.603   8.855
 7512POPC   GL226978  27.584  13.525   8.855
 7512POPC   C1A26979  27.622  13.581   8.555
 7512POPC   D2A26980  27.559  13.645   8.255
 7512POPC   C3A26981  27.568  13.661   7.955
 7512POPC   C4A26982  27.550  13.659   7.655
 7512POPC   C1B26983  27.616  13.366   8.555
 7512POPC   C2B26984  27.565  13.386   8.255
 7512POPC   C3B26985  27.576  13.389   7.955
 7512POPC   C4B26986  27.546  13.390   7.655
 7513POPC   NC326987  36.157  33.052   9.455
 7513POPC   PO426988  36.126  32.993   9.155
 7513POPC   GL126989  36.176  33.061   8.855
 7513POPC   GL226990  36.159  33.183   8.855
 7513POPC   C1A26991  36.134  33.024   8.555
 7513POPC   D2A26992  36.135  33.070   8.255
 7513POPC   C3A26993  36.163  33.040   7.955
 7513POPC   C4A26994  36.134  33.030   7.655
 7513POPC   C1B26995  36.195  33.270   8.555
 7513POPC   C2B26996  36.206  33.233   8.255
 7513POPC   C3B26997  36.212  33.311   7.955
 7513POPC   C4B26998  36.206  33.252   7.655
 7514POPC   NC326999   0.408   1.971   9.455
 7514POPC   PO427000   0.476   1.968   9.155
 7514POPC   GL127001   0.429   1.958   8.855
 7514POPC   GL227002   0.295   1.943   8.855
 7514POPC   C1A27003   0.481   1.969   8.555
 7514POPC   D2A27004   0.453   1.998   8.255
 7514POPC   C3A27005   0.423   2.025   7.955
 7514POPC   C4A27006   0.401   1.964   7.655
 7514POPC   C1B27007   0.235   1.849   8.555
 7514POPC   C2B27008   0.168   1.891   8.255
 7514POPC   C3B27009   0.169   1.835   7.955
 7514POPC   C4B27010   0.245   1.892   7.655
 7515POPC   NC327011  22.977  26.790   9.455
 7515POPC   PO427012  22.935  26.842   9.155
 7515POPC   GL127013  22.938  26.822   8.855
 7515POPC   GL227014  22.807  26.854   8.855
 7515POPC   C1A27015  22.953  26.834   8.555
 7515POPC   D2A27016  22.902  26.787   8.255
 7515POPC   C3A27017  22.950  26.792   7.955
 7515POPC   C4A27018  22.966  26.816   7.655
 7515POPC   C1B27019  22.650  26.825   8.555
 7515POPC   C2B27020  22.663  26.772   8.255
 7515POPC   C3B27021  22.722  26.857   7.955
 7515POPC   C4B27022  22.666  26.786   7.655
 7516POPC   NC327023  37.674   0.422   9.455
 7516POPC   PO427024  37.665   0.394   9.155
 7516POPC   GL127025  37.705   0.454   8.855
 7516POPC   GL227026  37.564   0.490   8.855
 7516POPC   C1A27027  37.651   0.424   8.555
 7516POPC   D2A27028  37.682   0.416   8.255
 7516POPC   C3A27029  37.692   0.483   7.955
 7516POPC   C4A27030  37.667   0.415   7.655
 7516POPC   C1B27031  37.411   0.434   8.555
 7516POPC   C2B27032  37.384   0.438   8.255
 7516POPC   C3B27033  37.400   0.464   7.955
 7516POPC   C4B27034  37.446   0.453   7.655
 7517POPC   NC327035  31.449  43.893   9.455
 7517POPC   PO427036  31.476  43.846   9.155
 7517POPC   GL127037  31.456  43.927   8.855
 7517POPC   GL227038  31.315  43.831   8.855
 7517POPC   C1A27039  31.426  43.851   8.555
 7517POPC   D2A27040  31.448  43.880   8.255
 7517POPC   C3A27041  31.433  43.888   7.955
 7517POPC   C4A27042  31.471  43.930   7.655
 7517POPC   C1B27043  31.202  43.825   8.555
 7517POPC   C2B27044  31.210  43.805   8.255
 7517POPC   C3B27045  31.248  43.777   7.955
 7517POPC   C4B27046  31.282  43.815   7.655
 7518POPC   NC327047  36.157  28.323   9.455
 7518POPC   PO427048  36.148  28.412   9.155
 7518POPC   GL127049  36.099  28.354   8.855
 7518POPC   GL227050  36.156  28.496   8.855
 7518POPC   C1A27051  36.177  28.343   8.555
 7518POPC   D2A27052  36.152  28.353   8.255
 7518POPC   C3A27053  36.142  28.365   7.955
 7518POPC   C4A27054  36.157  28.386   7.655
 7518POPC   C1B27055  36.120  28.631   8.555
 7518POPC   C2B27056  36.172  28.596   8.255
 7518POPC   C3B27057  36.171  28.625   7.955
 7518POPC   C4B27058  36.189  28.621   7.655
 7519POPC   NC327059  13.618  12.028   9.455
 7519POPC   PO427060  13.590  12.084   9.155
 7519POPC   GL127061  13.592  12.096   8.855
 7519POPC   GL227062  13.491  12.098   8.855
 7519POPC   C1A27063  13.666  12.103   8.555
 7519POPC   D2A27064  13.644  12.103   8.255
 7519POPC   C3A27065  13.667  12.050   7.955
 7519POPC   C4A27066  13.611  12.071   7.655
 7519POPC   C1B27067  13.408  12.051   8.555
 7519POPC   C2B27068  13.361  12.052   8.255
 7519POPC   C3B27069  13.412  12.054   7.955
 7519POPC   C4B27070  13.368  12.091   7.655
 7520POPC   NC327071  19.061  27.551   9.455
 7520POPC   PO427072  19.083  27.625   9.155
 7520POPC   GL127073  19.040  27.623   8.855
 7520POPC   GL227074  18.982  27.536   8.855
 7520POPC   C1A27075  19.077  27.612   8.555
 7520POPC   D2A27076  19.026  27.571   8.255
 7520POPC   C3A27077  19.095  27.590   7.955
 7520POPC   C4A27078  19.052  27.607   7.655
 7520POPC   C1B27079  18.857  27.457   8.555
 7520POPC   C2B27080  18.864  27.449   8.255
 7520POPC   C3B27081  18.845  27.450   7.955
 7520POPC   C4B27082  18.901  27.461   7.655
 7521POPC   NC327083  31.488   3.531   9.455
 7521POPC   PO427084  31.449   3.541   9.155
 7521POPC   GL127085  31.477   3.536   8.855
 7521POPC   GL227086  31.545   3.505   8.855
 7521POPC   C1A27087  31.468   3.503   8.555
 7521POPC   D2A27088  31.494   3.504   8.255
 7521POPC   C3A27089  31.442   3.569   7.955
 7521POPC   C4A27090  31.441   3.591   7.655
 7521POPC   C1B27091  31.709   3.386   8.555
 7521POPC   C2B27092  31.683   3.407   8.255
 7521POPC   C3B27093  31.728   3.423   7.955
 7521POPC   C4B27094  31.729   3.475   7.655
 7522POPC   NC327095  19.822  40.794   9.455
 7522POPC   PO427096  19.846  40.773   9.155
 7522POPC   GL127097  19.829  40.747   8.855
 7522POPC   GL227098  19.865  40.656   8.855
 7522POPC   C1A27099  19.836  40.768   8.555
 7522POPC   D2A27100  19.789  40.806   8.255
 7522POPC   C3A27101  19.806  40.823   7.955
 7522POPC   C4A27102  19.838  40.792   7.655
 7522POPC   C1B27103  19.944  40.543   8.555
 7522POPC   C2B27104  19.896  40.538   8.255
 7522POPC   C3B27105  19.881  40.502   7.955
 7522POPC   C4B27106  19.955  40.553   7.655
 7523POPC   NC327107  36.882  27.629   9.455
 7523POPC   PO427108  36.910  27.567   9.155
 7523POPC   GL127109  36.864  27.592   8.855
 7523POPC   GL227110  36.801  27.507   8.855
 7523POPC   C1A27111  36.906  27.565   8.555
 7523POPC   D2A27112  36.883  27.547   8.255
 7523POPC   C3A27113  36.912  27.628   7.955
 7523POPC   C4A27114  36.926  27.643   7.655
 7523POPC   C1B27115  36.839  27.406   8.555
 7523POPC   C2B27116  36.748  27.409   8.255
 7523POPC   C3B27117  36.775  27.417   7.955
 7523POPC   C4B27118  36.827  27.333   7.655
 7524POPC   NC327119  13.603  20.573   9.455
 7524POPC   PO427120  13.618  20.571   9.155
 7524POPC   GL127121  13.649  20.563   8.855
 7524POPC   GL227122  13.527  20.565   8.855
 7524POPC   C1A27123  13.663  20.599   8.555
 7524POPC   D2A27124  13.600  20.626   8.255
 7524POPC   C3A27125  13.658  20.614   7.955
 7524POPC   C4A27126  13.625  20.587   7.655
 7524POPC   C1B27127  13.424  20.567   8.555
 7524POPC   C2B27128  13.392  20.563   8.255
 7524POPC   C3B27129  13.417  20.570   7.955
 7524POPC   C4B27130  13.422  20.604   7.655
 7525POPC   NC327131  33.821  17.545   9.455
 7525POPC   PO427132  33.810  17.533   9.155
 7525POPC   GL127133  33.764  17.508   8.855
 7525POPC   GL227134  33.688  17.522   8.855
 7525POPC   C1A27135  33.844  17.470   8.555
 7525POPC   D2A27136  33.836  17.530   8.255
 7525POPC   C3A27137  33.814  17.511   7.955
 7525POPC   C4A27138  33.776  17.508   7.655
 7525POPC   C1B27139  33.549  17.609   8.555
 7525POPC   C2B27140  33.630  17.630   8.255
 7525POPC   C3B27141  33.629  17.633   7.955
 7525POPC   C4B27142  33.563  17.627   7.655
 7526POPC   NC327143   4.326  30.720   9.455
 7526POPC   PO427144   4.271  30.673   9.155
 7526POPC   GL127145   4.275  30.697   8.855
 7526POPC   GL227146   4.482  30.774   8.855
 7526POPC   C1A27147   4.298  30.647   8.555
 7526POPC   D2A27148   4.299  30.732   8.255
 7526POPC   C3A27149   4.358  30.714   7.955
 7526POPC   C4A27150   4.345  30.655   7.655
 7526POPC   C1B27151   4.581  30.822   8.555
 7526POPC   C2B27152   4.602  30.808   8.255
 7526POPC   C3B27153   4.537  30.785   7.955
 7526POPC   C4B27154   4.587  30.730   7.655
 7527POPC   NC327155  29.099  18.262   9.455
 7527POPC   PO427156  29.144  18.314   9.155
 7527POPC   GL127157  29.129  18.325   8.855
 7527POPC   GL227158  29.227  18.426   8.855
 7527POPC   C1A27159  29.100  18.256   8.555
 7527POPC   D2A27160  29.111  18.323   8.255
 7527POPC   C3A27161  29.129  18.286   7.955
 7527POPC   C4A27162  29.188  18.251   7.655
 7527POPC   C1B27163  29.299  18.504   8.555
 7527POPC   C2B27164  29.267  18.524   8.255
 7527POPC   C3B27165  29.283  18.439   7.955
 7527POPC   C4B27166  29.325  18.448   7.655
 7528POPC   NC327167  42.308  37.722   9.455
 7528POPC   PO427168  42.296  37.630   9.155
 7528POPC   GL127169  42.333  37.658   8.855
 7528POPC   GL227170  42.368  37.763   8.855
 7528POPC   C1A27171  42.312  37.716   8.555
 7528POPC   D2A27172  42.300  37.646   8.255
 7528POPC   C3A27173  42.375  37.667   7.955
 7528POPC   C4A27174  42.321  37.680   7.655
 7528POPC   C1B27175  42.454  37.894   8.555
 7528POPC   C2B27176  42.396  37.940   8.255
 7528POPC   C3B27177  42.424  37.908   7.955
 7528POPC   C4B27178  42.434  37.912   7.655
 7529POPC   NC327179  37.637  40.048   9.455
 7529POPC   PO427180  37.690  39.974   9.155
 7529POPC   GL127181  37.727  40.045   8.855
 7529POPC   GL227182  37.713  40.141   8.855
 7529POPC   C1A27183  37.727  39.993   8.555
 7529POPC   D2A27184  37.723  40.039   8.255
 7529POPC   C3A27185  37.671  40.043   7.955
 7529POPC   C4A27186  37.673  39.968   7.655
 7529POPC   C1B27187  37.761  40.288   8.555
 7529POPC   C2B27188  37.816  40.248   8.255
 7529POPC   C3B27189  37.738  40.270   7.955
 7529POPC   C4B27190  37.797  40.271   7.655
 7530POPC   NC327191  24.468  21.424   9.455
 7530POPC   PO427192  24.492  21.353   9.155
 7530POPC   GL127193  24.474  21.359   8.855
 7530POPC   GL227194  24.409  21.496   8.855
 7530POPC   C1A27195  24.482  21.431   8.555
 7530POPC   D2A27196  24.536  21.362   8.255
 7530POPC   C3A27197  24.515  21.342   7.955
 7530POPC   C4A27198  24.493  21.346   7.655
 7530POPC   C1B27199  24.356  21.640   8.555
 7530POPC   C2B27200  24.426  21.620   8.255
 7530POPC   C3B27201  24.436  21.605   7.955
 7530POPC   C4B27202  24.377  21.569   7.655
 7531POPC   NC327203   8.178  35.344   9.455
 7531POPC   PO427204   8.158  35.302   9.155
 7531POPC   GL127205   8.218  35.334   8.855
 7531POPC   GL227206   8.115  35.302   8.855
 7531POPC   C1A27207   8.160  35.337   8.555
 7531POPC   D2A27208   8.156  35.343   8.255
 7531POPC   C3A27209   8.247  35.360   7.955
 7531POPC   C4A27210   8.206  35.333   7.655
 7531POPC   C1B27211   7.992  35.162   8.555
 7531POPC   C2B27212   7.953  35.217   8.255
 7531POPC   C3B27213   7.995  35.175   7.955
 7531POPC   C4B27214   8.045  35.207   7.655
 7532POPC   NC327215   3.542  33.793   9.455
 7532POPC   PO427216   3.562  33.782   9.155
 7532POPC   GL127217   3.564  33.781   8.855
 7532POPC   GL227218   3.679  33.807   8.855
 7532POPC   C1A27219   3.527  33.779   8.555
 7532POPC   D2A27220   3.502  33.796   8.255
 7532POPC   C3A27221   3.530  33.815   7.955
 7532POPC   C4A27222   3.525  33.750   7.655
 7532POPC   C1B27223   3.819  33.803   8.555
 7532POPC   C2B27224   3.779  33.825   8.255
 7532POPC   C3B27225   3.788  33.894   7.955
 7532POPC   C4B27226   3.760  33.832   7.655
 7533POPC   NC327227  24.453  17.496   9.455
 7533POPC   PO427228  24.469  17.481   9.155
 7533POPC   GL127229  24.540  17.542   8.855
 7533POPC   GL227230  24.453  17.375   8.855
 7533POPC   C1A27231  24.538  17.529   8.555
 7533POPC   D2A27232  24.518  17.516   8.255
 7533POPC   C3A27233  24.443  17.469   7.955
 7533POPC   C4A27234  24.492  17.516   7.655
 7533POPC   C1B27235  24.465  17.257   8.555
 7533POPC   C2B27236  24.419  17.295   8.255
 7533POPC   C3B27237  24.450  17.226   7.955
 7533POPC   C4B27238  24.461  17.227   7.655
 7534POPC   NC327239  38.457  18.290   9.455
 7534POPC   PO427240  38.454  18.251   9.155
 7534POPC   GL127241  38.502  18.328   8.855
 7534POPC   GL227242  38.307  18.242   8.855
 7534POPC   C1A27243  38.407  18.268   8.555
 7534POPC   D2A27244  38.423  18.246   8.255
 7534POPC   C3A27245  38.492  18.285   7.955
 7534POPC   C4A27246  38.429  18.242   7.655
 7534POPC   C1B27247  38.225  18.240   8.555
 7534POPC   C2B27248  38.155  18.269   8.255
 7534POPC   C3B27249  38.180  18.304   7.955
 7534POPC   C4B27250  38.242  18.232   7.655
 7535POPC   NC327251   5.092   1.975   9.455
 7535POPC   PO427252   5.097   1.946   9.155
 7535POPC   GL127253   5.111   1.963   8.855
 7535POPC   GL227254   5.225   1.877   8.855
 7535POPC   C1A27255   5.047   2.009   8.555
 7535POPC   D2A27256   5.104   2.024   8.255
 7535POPC   C3A27257   5.100   1.956   7.955
 7535POPC   C4A27258   5.118   1.947   7.655
 7535POPC   C1B27259   5.307   1.858   8.555
 7535POPC   C2B27260   5.298   1.784   8.255
 7535POPC   C3B27261   5.308   1.809   7.955
 7535POPC   C4B27262   5.296   1.852   7.655
 7536POPC   NC327263  16.719  16.747   9.455
 7536POPC   PO427264  16.754  16.700   9.155
 7536POPC   GL127265  16.747  16.701   8.855
 7536POPC   GL227266  16.826  16.807   8.855
 7536POPC   C1A27267  16.745  16.684   8.555
 7536POPC   D2A27268  16.722  16.745   8.255
 7536POPC   C3A27269  16.740  16.745   7.955
 7536POPC   C4A27270  16.690  16.754   7.655
 7536POPC   C1B27271  16.933  16.837   8.555
 7536POPC   C2B27272  16.960  16.788   8.255
 7536POPC   C3B27273  16.962  16.856   7.955
 7536POPC   C4B27274  16.916  16.826   7.655
 7537POPC   NC327275  22.966  22.950   9.455
 7537POPC   PO427276  22.970  22.908   9.155
 7537POPC   GL127277  22.950  22.949   8.855
 7537POPC   GL227278  22.824  22.875   8.855
 7537POPC   C1A27279  22.890  22.949   8.555
 7537POPC   D2A27280  22.892  22.924   8.255
 7537POPC   C3A27281  22.930  22.903   7.955
 7537POPC   C4A27282  22.938  22.961   7.655
 7537POPC   C1B27283  22.678  22.858   8.555
 7537POPC   C2B27284  22.671  22.869   8.255
 7537POPC   C3B27285  22.668  22.909   7.955
 7537POPC   C4B27286  22.739  22.881   7.655
 7538POPC   NC327287  33.758  22.146   9.455
 7538POPC   PO427288  33.804  22.203   9.155
 7538POPC   GL127289  33.768  22.125   8.855
 7538POPC   GL227290  33.674  22.124   8.855
 7538POPC   C1A27291  33.807  22.182   8.555
 7538POPC   D2A27292  33.838  22.148   8.255
 7538POPC   C3A27293  33.811  22.166   7.955
 7538POPC   C4A27294  33.842  22.121   7.655
 7538POPC   C1B27295  33.579  22.184   8.555
 7538POPC   C2B27296  33.563  22.159   8.255
 7538POPC   C3B27297  33.543  22.170   7.955
 7538POPC   C4B27298  33.531  22.213   7.655
 7539POPC   NC327299  24.501  33.017   9.455
 7539POPC   PO427300  24.515  33.006   9.155
 7539POPC   GL127301  24.521  32.991   8.855
 7539POPC   GL227302  24.362  32.997   8.855
 7539POPC   C1A27303  24.477  32.979   8.555
 7539POPC   D2A27304  24.508  33.002   8.255
 7539POPC   C3A27305  24.528  33.030   7.955
 7539POPC   C4A27306  24.495  32.974   7.655
 7539POPC   C1B27307  24.276  32.962   8.555
 7539POPC   C2B27308  24.217  33.019   8.255
 7539POPC   C3B27309  24.251  32.943   7.955
 7539POPC   C4B27310  24.255  32.998   7.655
 7540POPC   NC327311   7.373   1.231   9.455
 7540POPC   PO427312   7.469   1.231   9.155
 7540POPC   GL127313   7.445   1.206   8.855
 7540POPC   GL227314   7.278   1.256   8.855
 7540POPC   C1A27315   7.422   1.248   8.555
 7540POPC   D2A27316   7.403   1.180   8.255
 7540POPC   C3A27317   7.416   1.227   7.955
 7540POPC   C4A27318   7.417   1.211   7.655
 7540POPC   C1B27319   7.270   1.366   8.555
 7540POPC   C2B27320   7.219   1.329   8.255
 7540POPC   C3B27321   7.235   1.319   7.955
 7540POPC   C4B27322   7.232   1.390   7.655
 7541POPC   NC327323  15.914  44.618   9.455
 7541POPC   PO427324  15.907  44.641   9.155
 7541POPC   GL127325  15.923  44.621   8.855
 7541POPC   GL227326  15.937  44.773   8.855
 7541POPC   C1A27327  15.956  44.621   8.555
 7541POPC   D2A27328  15.974  44.616   8.255
 7541POPC   C3A27329  15.959  44.710   7.955
 7541POPC   C4A27330  15.946  44.680   7.655
 7541POPC   C1B27331  15.911  44.866   8.555
 7541POPC   C2B27332  15.861  44.913   8.255
 7541POPC   C3B27333  15.897  44.894   7.955
 7541POPC   C4B27334  15.922  44.919   7.655
 7542POPC   NC327335  23.724  17.546   9.455
 7542POPC   PO427336  23.726  17.547   9.155
 7542POPC   GL127337  23.748  17.526   8.855
 7542POPC   GL227338  23.649  17.593   8.855
 7542POPC   C1A27339  23.719  17.514   8.555
 7542POPC   D2A27340  23.691  17.481   8.255
 7542POPC   C3A27341  23.763  17.495   7.955
 7542POPC   C4A27342  23.748  17.541   7.655
 7542POPC   C1B27343  23.584  17.719   8.555
 7542POPC   C2B27344  23.590  17.780   8.255
 7542POPC   C3B27345  23.657  17.726   7.955
 7542POPC   C4B27346  23.630  17.763   7.655
 7543POPC   NC327347  15.229   0.444   9.455
 7543POPC   PO427348  15.138   0.473   9.155
 7543POPC   GL127349  15.205   0.392   8.855
 7543POPC   GL227350  15.101   0.360   8.855
 7543POPC   C1A27351  15.190   0.444   8.555
 7543POPC   D2A27352  15.145   0.401   8.255
 7543POPC   C3A27353  15.207   0.438   7.955
 7543POPC   C4A27354  15.164   0.450   7.655
 7543POPC   C1B27355  15.053   0.181   8.555
 7543POPC   C2B27356  15.061   0.181   8.255
 7543POPC   C3B27357  15.007   0.189   7.955
 7543POPC   C4B27358  14.996   0.270   7.655
 7544POPC   NC327359  32.252   4.276   9.455
 7544POPC   PO427360  32.232   4.365   9.155
 7544POPC   GL127361  32.260   4.303   8.855
 7544POPC   GL227362  32.162   4.327   8.855
 7544POPC   C1A27363  32.203   4.348   8.555
 7544POPC   D2A27364  32.292   4.322   8.255
 7544POPC   C3A27365  32.245   4.312   7.955
 7544POPC   C4A27366  32.253   4.292   7.655
 7544POPC   C1B27367  32.034   4.381   8.555
 7544POPC   C2B27368  31.982   4.392   8.255
 7544POPC   C3B27369  32.021   4.433   7.955
 7544POPC   C4B27370  32.007   4.408   7.655
 7545POPC   NC327371  17.485   3.562   9.455
 7545POPC   PO427372  17.536   3.545   9.155
 7545POPC   GL127373  17.512   3.589   8.855
 7545POPC   GL227374  17.591   3.504   8.855
 7545POPC   C1A27375  17.471   3.498   8.555
 7545POPC   D2A27376  17.526   3.573   8.255
 7545POPC   C3A27377  17.463   3.554   7.955
 7545POPC   C4A27378  17.508   3.496   7.655
 7545POPC   C1B27379  17.711   3.491   8.555
 7545POPC   C2B27380  17.772   3.516   8.255
 7545POPC   C3B27381  17.783   3.495   7.955
 7545POPC   C4B27382  17.772   3.568   7.655
 7546POPC   NC327383   4.319   8.187   9.455
 7546POPC   PO427384   4.334   8.237   9.155
 7546POPC   GL127385   4.286   8.198   8.855
 7546POPC   GL227386   4.446   8.117   8.855
 7546POPC   C1A27387   4.291   8.202   8.555
 7546POPC   D2A27388   4.318   8.217   8.255
 7546POPC   C3A27389   4.272   8.164   7.955
 7546POPC   C4A27390   4.335   8.151   7.655
 7546POPC   C1B27391   4.448   7.972   8.555
 7546POPC   C2B27392   4.436   8.006   8.255
 7546POPC   C3B27393   4.447   8.052   7.955
 7546POPC   C4B27394   4.497   8.044   7.655
 7547POPC   NC327395  43.898   2.718   9.455
 7547POPC   PO427396  43.933   2.803   9.155
 7547POPC   GL127397  43.899   2.796   8.855
 7547POPC   GL227398  43.826   2.700   8.855
 7547POPC   C1A27399  43.847   2.794   8.555
 7547POPC   D2A27400  43.850   2.750   8.255
 7547POPC   C3A27401  43.880   2.720   7.955
 7547POPC   C4A27402  43.932   2.732   7.655
 7547POPC   C1B27403  43.788   2.546   8.555
 7547POPC   C2B27404  43.758   2.537   8.255
 7547POPC   C3B27405  43.779   2.558   7.955
 7547POPC   C4B27406  43.801   2.582   7.655
 7548POPC   NC327407   7.399  22.958   9.455
 7548POPC   PO427408   7.409  22.910   9.155
 7548POPC   GL127409   7.427  22.964   8.855
 7548POPC   GL227410   7.342  22.805   8.855
 7548POPC   C1A27411   7.406  22.937   8.555
 7548POPC   D2A27412   7.390  22.933   8.255
 7548POPC   C3A27413   7.421  22.988   7.955
 7548POPC   C4A27414   7.424  22.922   7.655
 7548POPC   C1B27415   7.294  22.787   8.555
 7548POPC   C2B27416   7.260  22.765   8.255
 7548POPC   C3B27417   7.208  22.736   7.955
 7548POPC   C4B27418   7.285  22.776   7.655
 7549POPC   NC327419  37.647  26.049   9.455
 7549POPC   PO427420  37.674  26.029   9.155
 7549POPC   GL127421  37.710  25.995   8.855
 7549POPC   GL227422  37.713  25.924   8.855
 7549POPC   C1A27423  37.634  26.057   8.555
 7549POPC   D2A27424  37.695  26.008   8.255
 7549POPC   C3A27425  37.653  26.089   7.955
 7549POPC   C4A27426  37.650  26.034   7.655
 7549POPC   C1B27427  37.700  25.836   8.555
 7549POPC   C2B27428  37.699  25.768   8.255
 7549POPC   C3B27429  37.733  25.816   7.955
 7549POPC   C4B27430  37.686  25.804   7.655
 7550POPC   NC327431  40.027  41.535   9.455
 7550POPC   PO427432  40.034  41.511   9.155
 7550POPC   GL127433  39.964  41.542   8.855
 7550POPC   GL227434  40.061  41.518   8.855
 7550POPC   C1A27435  40.051  41.566   8.555
 7550POPC   D2A27436  40.015  41.551   8.255
 7550POPC   C3A27437  39.989  41.524   7.955
 7550POPC   C4A27438  39.987  41.529   7.655
 7550POPC   C1B27439  40.156  41.433   8.555
 7550POPC   C2B27440  40.224  41.374   8.255
 7550POPC   C3B27441  40.162  41.442   7.955
 7550POPC   C4B27442  40.193  41.369   7.655
 7551POPC   NC327443  33.806  42.302   9.455
 7551POPC   PO427444  33.844  42.343   9.155
 7551POPC   GL127445  33.816  42.343   8.855
 7551POPC   GL227446  33.735  42.284   8.855
 7551POPC   C1A27447  33.812  42.286   8.555
 7551POPC   D2A27448  33.835  42.308   8.255
 7551POPC   C3A27449  33.765  42.323   7.955
 7551POPC   C4A27450  33.758  42.291   7.655
 7551POPC   C1B27451  33.550  42.199   8.555
 7551POPC   C2B27452  33.644  42.138   8.255
 7551POPC   C3B27453  33.639  42.152   7.955
 7551POPC   C4B27454  33.563  42.160   7.655
 7552POPC   NC327455  36.858   1.259   9.455
 7552POPC   PO427456  36.927   1.213   9.155
 7552POPC   GL127457  36.938   1.200   8.855
 7552POPC   GL227458  37.019   1.258   8.855
 7552POPC   C1A27459  36.872   1.197   8.555
 7552POPC   D2A27460  36.915   1.234   8.255
 7552POPC   C3A27461  36.937   1.258   7.955
 7552POPC   C4A27462  36.896   1.191   7.655
 7552POPC   C1B27463  37.090   1.387   8.555
 7552POPC   C2B27464  37.077   1.406   8.255
 7552POPC   C3B27465  37.142   1.334   7.955
 7552POPC   C4B27466  37.079   1.365   7.655
 7553POPC   NC327467   9.708   8.243   9.455
 7553POPC   PO427468   9.735   8.238   9.155
 7553POPC   GL127469   9.797   8.176   8.855
 7553POPC   GL227470   9.630   8.094   8.855
 7553POPC   C1A27471   9.733   8.168   8.555
 7553POPC   D2A27472   9.764   8.194   8.255
 7553POPC   C3A27473   9.729   8.208   7.955
 7553POPC   C4A27474   9.758   8.246   7.655
 7553POPC   C1B27475   9.631   8.030   8.555
 7553POPC   C2B27476   9.603   8.018   8.255
 7553POPC   C3B27477   9.600   7.974   7.955
 7553POPC   C4B27478   9.576   8.002   7.655
 7554POPC   NC327479  41.587  29.157   9.455
 7554POPC   PO427480  41.515  29.152   9.155
 7554POPC   GL127481  41.580  29.152   8.855
 7554POPC   GL227482  41.669  29.281   8.855
 7554POPC   C1A27483  41.559  29.125   8.555
 7554POPC   D2A27484  41.513  29.120   8.255
 7554POPC   C3A27485  41.598  29.119   7.955
 7554POPC   C4A27486  41.586  29.149   7.655
 7554POPC   C1B27487  41.721  29.300   8.555
 7554POPC   C2B27488  41.677  29.313   8.255
 7554POPC   C3B27489  41.733  29.378   7.955
 7554POPC   C4B27490  41.706  29.381   7.655
 7555POPC   NC327491  25.302  33.021   9.455
 7555POPC   PO427492  25.227  32.985   9.155
 7555POPC   GL127493  25.282  33.062   8.855
 7555POPC   GL227494  25.350  32.995   8.855
 7555POPC   C1A27495  25.243  33.053   8.555
 7555POPC   D2A27496  25.307  32.996   8.255
 7555POPC   C3A27497  25.263  33.060   7.955
 7555POPC   C4A27498  25.220  33.033   7.655
 7555POPC   C1B27499  25.489  33.071   8.555
 7555POPC   C2B27500  25.504  33.071   8.255
 7555POPC   C3B27501  25.540  33.063   7.955
 7555POPC   C4B27502  25.497  33.069   7.655
 7556POPC   NC327503  38.464  36.910   9.455
 7556POPC   PO427504  38.425  36.902   9.155
 7556POPC   GL127505  38.503  36.905   8.855
 7556POPC   GL227506  38.452  36.814   8.855
 7556POPC   C1A27507  38.452  36.922   8.555
 7556POPC   D2A27508  38.414  36.876   8.255
 7556POPC   C3A27509  38.434  36.891   7.955
 7556POPC   C4A27510  38.408  36.880   7.655
 7556POPC   C1B27511  38.472  36.693   8.555
 7556POPC   C2B27512  38.467  36.618   8.255
 7556POPC   C3B27513  38.420  36.691   7.955
 7556POPC   C4B27514  38.443  36.632   7.655
 7557POPC   NC327515  16.731   0.402   9.455
 7557POPC   PO427516  16.746   0.419   9.155
 7557POPC   GL127517  16.745   0.408   8.855
 7557POPC   GL227518  16.642   0.303   8.855
 7557POPC   C1A27519  16.718   0.471   8.555
 7557POPC   D2A27520  16.754   0.421   8.255
 7557POPC   C3A27521  16.754   0.427   7.955
 7557POPC   C4A27522  16.730   0.475   7.655
 7557POPC   C1B27523  16.594   0.184   8.555
 7557POPC   C2B27524  16.599   0.218   8.255
 7557POPC   C3B27525  16.582   0.179   7.955
 7557POPC   C4B27526  16.615   0.203   7.655
 7558POPC   NC327527  19.042   8.937   9.455
 7558POPC   PO427528  19.065   8.959   9.155
 7558POPC   GL127529  19.010   8.928   8.855
 7558POPC   GL227530  19.055   8.863   8.855
 7558POPC   C1A27531  19.085   9.001   8.555
 7558POPC   D2A27532  19.098   8.923   8.255
 7558POPC   C3A27533  19.095   8.924   7.955
 7558POPC   C4A27534  19.063   8.978   7.655
 7558POPC   C1B27535  19.135   8.738   8.555
 7558POPC   C2B27536  19.126   8.765   8.255
 7558POPC   C3B27537  19.128   8.714   7.955
 7558POPC   C4B27538  19.130   8.762   7.655
 7559POPC   NC327539   1.971  22.134   9.455
 7559POPC   PO427540   1.970  22.133   9.155
 7559POPC   GL127541   2.006  22.185   8.855
 7559POPC   GL227542   1.932  22.222   8.855
 7559POPC   C1A27543   1.964  22.114   8.555
 7559POPC   D2A27544   1.963  22.191   8.255
 7559POPC   C3A27545   1.975  22.129   7.955
 7559POPC   C4A27546   1.971  22.192   7.655
 7559POPC   C1B27547   1.775  22.297   8.555
 7559POPC   C2B27548   1.802  22.352   8.255
 7559POPC   C3B27549   1.785  22.337   7.955
 7559POPC   C4B27550   1.825  22.295   7.655
 7560POPC   NC327551  12.101  13.655   9.455
 7560POPC   PO427552  12.062  13.606   9.155
 7560POPC   GL127553  12.063  13.667   8.855
 7560POPC   GL227554  12.120  13.762   8.855
 7560POPC   C1A27555  12.062  13.673   8.555
 7560POPC   D2A27556  12.122  13.653   8.255
 7560POPC   C3A27557  12.121  13.636   7.955
 7560POPC   C4A27558  12.097  13.642   7.655
 7560POPC   C1B27559  12.136  13.910   8.555
 7560POPC   C2B27560  12.160  13.833   8.255
 7560POPC   C3B27561  12.123  13.916   7.955
 7560POPC   C4B27562  12.156  13.873   7.655
 7561POPC   NC327563   2.770  33.029   9.455
 7561POPC   PO427564   2.788  32.997   9.155
 7561POPC   GL127565   2.813  33.007   8.855
 7561POPC   GL227566   2.749  32.906   8.855
 7561POPC   C1A27567   2.761  32.993   8.555
 7561POPC   D2A27568   2.717  33.067   8.255
 7561POPC   C3A27569   2.759  33.005   7.955
 7561POPC   C4A27570   2.720  32.995   7.655
 7561POPC   C1B27571   2.813  32.820   8.555
 7561POPC   C2B27572   2.780  32.809   8.255
 7561POPC   C3B27573   2.819  32.734   7.955
 7561POPC   C4B27574   2.773  32.811   7.655
 7562POPC   NC327575  38.453  39.221   9.455
 7562POPC   PO427576  38.464  39.230   9.155
 7562POPC   GL127577  38.471  39.219   8.855
 7562POPC   GL227578  38.399  39.125   8.855
 7562POPC   C1A27579  38.420  39.239   8.555
 7562POPC   D2A27580  38.431  39.203   8.255
 7562POPC   C3A27581  38.495  39.269   7.955
 7562POPC   C4A27582  38.472  39.279   7.655
 7562POPC   C1B27583  38.477  38.964   8.555
 7562POPC   C2B27584  38.486  39.016   8.255
 7562POPC   C3B27585  38.477  38.992   7.955
 7562POPC   C4B27586  38.432  39.005   7.655
 7563POPC   NC327587  26.844  36.081   9.455
 7563POPC   PO427588  26.854  36.096   9.155
 7563POPC   GL127589  26.802  36.169   8.855
 7563POPC   GL227590  26.703  36.145   8.855
 7563POPC   C1A27591  26.849  36.136   8.555
 7563POPC   D2A27592  26.774  36.078   8.255
 7563POPC   C3A27593  26.848  36.098   7.955
 7563POPC   C4A27594  26.830  36.088   7.655
 7563POPC   C1B27595  26.626  36.208   8.555
 7563POPC   C2B27596  26.630  36.295   8.255
 7563POPC   C3B27597  26.552  36.248   7.955
 7563POPC   C4B27598  26.620  36.214   7.655
 7564POPC   NC327599  18.239  33.801   9.455
 7564POPC   PO427600  18.323  33.753   9.155
 7564POPC   GL127601  18.248  33.766   8.855
 7564POPC   GL227602  18.350  33.959   8.855
 7564POPC   C1A27603  18.281  33.773   8.555
 7564POPC   D2A27604  18.287  33.800   8.255
 7564POPC   C3A27605  18.293  33.772   7.955
 7564POPC   C4A27606  18.247  33.752   7.655
 7564POPC   C1B27607  18.412  34.045   8.555
 7564POPC   C2B27608  18.445  34.047   8.255
 7564POPC   C3B27609  18.409  34.011   7.955
 7564POPC   C4B27610  18.367  33.995   7.655
 7565POPC   NC327611  24.504  39.208   9.455
 7565POPC   PO427612  24.506  39.228   9.155
 7565POPC   GL127613  24.503  39.238   8.855
 7565POPC   GL227614  24.369  39.279   8.855
 7565POPC   C1A27615  24.529  39.256   8.555
 7565POPC   D2A27616  24.486  39.199   8.255
 7565POPC   C3A27617  24.443  39.228   7.955
 7565POPC   C4A27618  24.514  39.271   7.655
 7565POPC   C1B27619  24.215  39.327   8.555
 7565POPC   C2B27620  24.291  39.273   8.255
 7565POPC   C3B27621  24.197  39.247   7.955
 7565POPC   C4B27622  24.224  39.282   7.655
 7566POPC   NC327623   2.765   8.204   9.455
 7566POPC   PO427624   2.757   8.216   9.155
 7566POPC   GL127625   2.802   8.156   8.855
 7566POPC   GL227626   2.714   8.290   8.855
 7566POPC   C1A27627   2.784   8.210   8.555
 7566POPC   D2A27628   2.789   8.202   8.255
 7566POPC   C3A27629   2.809   8.170   7.955
 7566POPC   C4A27630   2.791   8.172   7.655
 7566POPC   C1B27631   2.659   8.425   8.555
 7566POPC   C2B27632   2.648   8.404   8.255
 7566POPC   C3B27633   2.663   8.414   7.955
 7566POPC   C4B27634   2.632   8.419   7.655
 7567POPC   NC327635  24.523  40.737   9.455
 7567POPC   PO427636  24.476  40.816   9.155
 7567POPC   GL127637  24.538  40.795   8.855
 7567POPC   GL227638  24.606  40.842   8.855
 7567POPC   C1A27639  24.472  40.780   8.555
 7567POPC   D2A27640  24.469  40.810   8.255
 7567POPC   C3A27641  24.492  40.776   7.955
 7567POPC   C4A27642  24.528  40.810   7.655
 7567POPC   C1B27643  24.669  41.021   8.555
 7567POPC   C2B27644  24.652  41.014   8.255
 7567POPC   C3B27645  24.666  40.959   7.955
 7567POPC   C4B27646  24.647  41.005   7.655
 7568POPC   NC327647   9.017  32.978   9.455
 7568POPC   PO427648   9.022  33.045   9.155
 7568POPC   GL127649   9.006  33.001   8.855
 7568POPC   GL227650   8.887  32.984   8.855
 7568POPC   C1A27651   8.979  33.057   8.555
 7568POPC   D2A27652   8.974  33.014   8.255
 7568POPC   C3A27653   9.007  33.045   7.955
 7568POPC   C4A27654   8.960  32.990   7.655
 7568POPC   C1B27655   8.788  32.907   8.555
 7568POPC   C2B27656   8.712  32.941   8.255
 7568POPC   C3B27657   8.769  32.968   7.955
 7568POPC   C4B27658   8.751  32.902   7.655
 7569POPC   NC327659  34.549  22.140   9.455
 7569POPC   PO427660  34.529  22.162   9.155
 7569POPC   GL127661  34.556  22.119   8.855
 7569POPC   GL227662  34.414  22.153   8.855
 7569POPC   C1A27663  34.534  22.209   8.555
 7569POPC   D2A27664  34.527  22.118   8.255
 7569POPC   C3A27665  34.527  22.173   7.955
 7569POPC   C4A27666  34.554  22.129   7.655
 7569POPC   C1B27667  34.342  22.164   8.555
 7569POPC   C2B27668  34.323  22.102   8.255
 7569POPC   C3B27669  34.306  22.171   7.955
 7569POPC   C4B27670  34.356  22.144   7.655
 7570POPC   NC327671  43.914  29.108   9.455
 7570POPC   PO427672  43.931  29.181   9.155
 7570POPC   GL127673  43.908  29.180   8.855
 7570POPC   GL227674  43.964  29.066   8.855
 7570POPC   C1A27675  43.865  29.132   8.555
 7570POPC   D2A27676  43.920  29.168   8.255
 7570POPC   C3A27677  43.894  29.154   7.955
 7570POPC   C4A27678  43.854  29.131   7.655
 7570POPC   C1B27679  44.092  28.947   8.555
 7570POPC   C2B27680  44.041  28.926   8.255
 7570POPC   C3B27681  44.092  28.942   7.955
 7570POPC   C4B27682  44.086  28.950   7.655
 7571POPC   NC327683  38.459  41.596   9.455
 7571POPC   PO427684  38.415  41.602   9.155
 7571POPC   GL127685  38.421  41.560   8.855
 7571POPC   GL227686  38.404  41.442   8.855
 7571POPC   C1A27687  38.437  41.554   8.555
 7571POPC   D2A27688  38.458  41.579   8.255
 7571POPC   C3A27689  38.422  41.579   7.955
 7571POPC   C4A27690  38.424  41.555   7.655
 7571POPC   C1B27691  38.302  41.326   8.555
 7571POPC   C2B27692  38.385  41.320   8.255
 7571POPC   C3B27693  38.360  41.296   7.955
 7571POPC   C4B27694  38.334  41.311   7.655
 7572POPC   NC327695  36.939  28.359   9.455
 7572POPC   PO427696  36.950  28.384   9.155
 7572POPC   GL127697  36.938  28.333   8.855
 7572POPC   GL227698  37.047  28.277   8.855
 7572POPC   C1A27699  36.947  28.405   8.555
 7572POPC   D2A27700  36.904  28.402   8.255
 7572POPC   C3A27701  36.910  28.399   7.955
 7572POPC   C4A27702  36.933  28.368   7.655
 7572POPC   C1B27703  37.144  28.242   8.555
 7572POPC   C2B27704  37.102  28.262   8.255
 7572POPC   C3B27705  37.100  28.268   7.955
 7572POPC   C4B27706  37.119  28.257   7.655
 7573POPC   NC327707  13.637  39.219   9.455
 7573POPC   PO427708  13.616  39.187   9.155
 7573POPC   GL127709  13.641  39.246   8.855
 7573POPC   GL227710  13.727  39.118   8.855
 7573POPC   C1A27711  13.647  39.267   8.555
 7573POPC   D2A27712  13.626  39.275   8.255
 7573POPC   C3A27713  13.656  39.239   7.955
 7573POPC   C4A27714  13.661  39.243   7.655
 7573POPC   C1B27715  13.790  38.979   8.555
 7573POPC   C2B27716  13.812  39.017   8.255
 7573POPC   C3B27717  13.794  39.051   7.955
 7573POPC   C4B27718  13.753  39.033   7.655
 7574POPC   NC327719  18.251  16.718   9.455
 7574POPC   PO427720  18.314  16.746   9.155
 7574POPC   GL127721  18.252  16.758   8.855
 7574POPC   GL227722  18.255  16.591   8.855
 7574POPC   C1A27723  18.276  16.756   8.555
 7574POPC   D2A27724  18.289  16.716   8.255
 7574POPC   C3A27725  18.251  16.751   7.955
 7574POPC   C4A27726  18.254  16.778   7.655
 7574POPC   C1B27727  18.271  16.440   8.555
 7574POPC   C2B27728  18.272  16.442   8.255
 7574POPC   C3B27729  18.269  16.495   7.955
 7574POPC   C4B27730  18.226  16.459   7.655
 7575POPC   NC327731  43.069   5.882   9.455
 7575POPC   PO427732  43.066   5.847   9.155
 7575POPC   GL127733  43.140   5.825   8.855
 7575POPC   GL227734  43.133   5.945   8.855
 7575POPC   C1A27735  43.132   5.829   8.555
 7575POPC   D2A27736  43.139   5.848   8.255
 7575POPC   C3A27737  43.085   5.885   7.955
 7575POPC   C4A27738  43.077   5.885   7.655
 7575POPC   C1B27739  43.095   6.130   8.555
 7575POPC   C2B27740  43.121   6.101   8.255
 7575POPC   C3B27741  43.079   6.151   7.955
 7575POPC   C4B27742  43.131   6.070   7.655
 7576POPC   NC327743   5.088   3.581   9.455
 7576POPC   PO427744   5.065   3.492   9.155
 7576POPC   GL127745   5.077   3.586   8.855
 7576POPC   GL227746   5.183   3.659   8.855
 7576POPC   C1A27747   5.083   3.535   8.555
 7576POPC   D2A27748   5.068   3.586   8.255
 7576POPC   C3A27749   5.051   3.497   7.955
 7576POPC   C4A27750   5.082   3.589   7.655
 7576POPC   C1B27751   5.253   3.757   8.555
 7576POPC   C2B27752   5.233   3.713   8.255
 7576POPC   C3B27753   5.211   3.776   7.955
 7576POPC   C4B27754   5.247   3.807   7.655
 7577POPC   NC327755  42.382  43.139   9.455
 7577POPC   PO427756  42.334  43.156   9.155
 7577POPC   GL127757  42.288  43.081   8.855
 7577POPC   GL227758  42.415  43.067   8.855
 7577POPC   C1A27759  42.297  43.070   8.555
 7577POPC   D2A27760  42.321  43.113   8.255
 7577POPC   C3A27761  42.314  43.153   7.955
 7577POPC   C4A27762  42.297  43.088   7.655
 7577POPC   C1B27763  42.560  42.966   8.555
 7577POPC   C2B27764  42.526  42.975   8.255
 7577POPC   C3B27765  42.598  42.991   7.955
 7577POPC   C4B27766  42.567  42.974   7.655
 7578POPC   NC327767  28.399   6.622   9.455
 7578POPC   PO427768  28.342   6.654   9.155
 7578POPC   GL127769  28.410   6.663   8.855
 7578POPC   GL227770  28.355   6.570   8.855
 7578POPC   C1A27771  28.414   6.608   8.555
 7578POPC   D2A27772  28.331   6.612   8.255
 7578POPC   C3A27773  28.408   6.637   7.955
 7578POPC   C4A27774  28.401   6.643   7.655
 7578POPC   C1B27775  28.310   6.364   8.555
 7578POPC   C2B27776  28.274   6.443   8.255
 7578POPC   C3B27777  28.342   6.418   7.955
 7578POPC   C4B27778  28.303   6.383   7.655
 7579POPC   NC327779  12.838  22.162   9.455
 7579POPC   PO427780  12.824  22.181   9.155
 7579POPC   GL127781  12.864  22.149   8.855
 7579POPC   GL227782  12.778  22.319   8.855
 7579POPC   C1A27783  12.854  22.112   8.555
 7579POPC   D2A27784  12.866  22.193   8.255
 7579POPC   C3A27785  12.857  22.185   7.955
 7579POPC   C4A27786  12.900  22.195   7.655
 7579POPC   C1B27787  12.843  22.378   8.555
 7579POPC   C2B27788  12.760  22.425   8.255
 7579POPC   C3B27789  12.784  22.366   7.955
 7579POPC   C4B27790  12.769  22.442   7.655
 7580POPC   NC327791  15.229  44.635   9.455
 7580POPC   PO427792  15.223  44.685   9.155
 7580POPC   GL127793  15.145  44.625   8.855
 7580POPC   GL227794  15.089  44.603   8.855
 7580POPC   C1A27795  15.214  44.663   8.555
 7580POPC   D2A27796  15.130  44.687   8.255
 7580POPC   C3A27797  15.222  44.651   7.955
 7580POPC   C4A27798  15.159  44.649   7.655
 7580POPC   C1B27799  14.948  44.567   8.555
 7580POPC   C2B27800  14.966  44.575   8.255
 7580POPC   C3B27801  14.943  44.564   7.955
 7580POPC   C4B27802  14.980  44.549   7.655
 7581POPC   NC327803  33.760  40.793   9.455
 7581POPC   PO427804  33.786  40.814   9.155
 7581POPC   GL127805  33.824  40.764   8.855
 7581POPC   GL227806  33.875  40.858   8.855
 7581POPC   C1A27807  33.785  40.823   8.555
 7581POPC   D2A27808  33.814  40.784   8.255
 7581POPC   C3A27809  33.769  40.790   7.955
 7581POPC   C4A27810  33.819  40.798   7.655
 7581POPC   C1B27811  34.015  40.916   8.555
 7581POPC   C2B27812  34.022  40.832   8.255
 7581POPC   C3B27813  34.074  40.880   7.955
 7581POPC   C4B27814  33.984  40.916   7.655
 7582POPC   NC327815   4.284  36.119   9.455
 7582POPC   PO427816   4.309  36.158   9.155
 7582POPC   GL127817   4.271  36.114   8.855
 7582POPC   GL227818   4.171  36.198   8.855
 7582POPC   C1A27819   4.273  36.168   8.555
 7582POPC   D2A27820   4.269  36.085   8.255
 7582POPC   C3A27821   4.300  36.119   7.955
 7582POPC   C4A27822   4.294  36.164   7.655
 7582POPC   C1B27823   4.128  36.196   8.555
 7582POPC   C2B27824   4.060  36.214   8.255
 7582POPC   C3B27825   4.032  36.177   7.955
 7582POPC   C4B27826   4.108  36.239   7.655
 7583POPC   NC327827  20.630   2.022   9.455
 7583POPC   PO427828  20.652   2.039   9.155
 7583POPC   GL127829  20.637   2.010   8.855
 7583POPC   GL227830  20.678   1.970   8.855
 7583POPC   C1A27831  20.615   1.942   8.555
 7583POPC   D2A27832  20.580   1.963   8.255
 7583POPC   C3A27833  20.643   2.032   7.955
 7583POPC   C4A27834  20.620   1.945   7.655
 7583POPC   C1B27835  20.883   1.878   8.555
 7583POPC   C2B27836  20.837   1.885   8.255
 7583POPC   C3B27837  20.798   1.903   7.955
 7583POPC   C4B27838  20.845   1.901   7.655
 7584POPC   NC327839  28.345  22.202   9.455
 7584POPC   PO427840  28.373  22.124   9.155
 7584POPC   GL127841  28.360  22.155   8.855
 7584POPC   GL227842  28.462  22.169   8.855
 7584POPC   C1A27843  28.376  22.203   8.555
 7584POPC   D2A27844  28.359  22.193   8.255
 7584POPC   C3A27845  28.385  22.118   7.955
 7584POPC   C4A27846  28.397  22.152   7.655
 7584POPC   C1B27847  28.612  22.208   8.555
 7584POPC   C2B27848  28.608  22.218   8.255
 7584POPC   C3B27849  28.656  22.169   7.955
 7584POPC   C4B27850  28.620  22.218   7.655
 7585POPC   NC327851  21.416   5.884   9.455
 7585POPC   PO427852  21.366   5.876   9.155
 7585POPC   GL127853  21.422   5.891   8.855
 7585POPC   GL227854  21.496   5.996   8.855
 7585POPC   C1A27855  21.364   5.851   8.555
 7585POPC   D2A27856  21.351   5.820   8.255
 7585POPC   C3A27857  21.373   5.914   7.955
 7585POPC   C4A27858  21.361   5.881   7.655
 7585POPC   C1B27859  21.585   6.002   8.555
 7585POPC   C2B27860  21.601   6.063   8.255
 7585POPC   C3B27861  21.519   6.034   7.955
 7585POPC   C4B27862  21.519   6.031   7.655
 7586POPC   NC327863  11.303  20.641   9.455
 7586POPC   PO427864  11.258  20.659   9.155
 7586POPC   GL127865  11.296  20.635   8.855
 7586POPC   GL227866  11.187  20.638   8.855
 7586POPC   C1A27867  11.250  20.602   8.555
 7586POPC   D2A27868  11.320  20.659   8.255
 7586POPC   C3A27869  11.308  20.647   7.955
 7586POPC   C4A27870  11.333  20.578   7.655
 7586POPC   C1B27871  11.099  20.800   8.555
 7586POPC   C2B27872  11.071  20.798   8.255
 7586POPC   C3B27873  11.061  20.732   7.955
 7586POPC   C4B27874  11.088  20.727   7.655
 7587POPC   NC327875  26.009  16.719   9.455
 7587POPC   PO427876  26.086  16.693   9.155
 7587POPC   GL127877  26.030  16.746   8.855
 7587POPC   GL227878  25.986  16.901   8.855
 7587POPC   C1A27879  26.084  16.713   8.555
 7587POPC   D2A27880  26.059  16.739   8.255
 7587POPC   C3A27881  26.085  16.752   7.955
 7587POPC   C4A27882  26.030  16.684   7.655
 7587POPC   C1B27883  25.990  16.978   8.555
 7587POPC   C2B27884  25.961  16.924   8.255
 7587POPC   C3B27885  25.941  16.930   7.955
 7587POPC   C4B27886  25.931  16.952   7.655
 7588POPC   NC327887  43.887   0.442   9.455
 7588POPC   PO427888  43.869   0.418   9.155
 7588POPC   GL127889  43.913   0.444   8.855
 7588POPC   GL227890  43.828   0.606   8.855
 7588POPC   C1A27891  43.868   0.403   8.555
 7588POPC   D2A27892  43.851   0.462   8.255
 7588POPC   C3A27893  43.842   0.426   7.955
 7588POPC   C4A27894  43.842   0.419   7.655
 7588POPC   C1B27895  43.879   0.652   8.555
 7588POPC   C2B27896  43.807   0.717   8.255
 7588POPC   C3B27897  43.842   0.730   7.955
 7588POPC   C4B27898  43.812   0.651   7.655
 7589POPC   NC327899  33.769  18.272   9.455
 7589POPC   PO427900  33.844  18.300   9.155
 7589POPC   GL127901  33.787  18.320   8.855
 7589POPC   GL227902  33.877  18.204   8.855
 7589POPC   C1A27903  33.834  18.290   8.555
 7589POPC   D2A27904  33.802  18.300   8.255
 7589POPC   C3A27905  33.809  18.285   7.955
 7589POPC   C4A27906  33.814  18.265   7.655
 7589POPC   C1B27907  33.988  18.237   8.555
 7589POPC   C2B27908  34.024  18.243   8.255
 7589POPC   C3B27909  34.043  18.228   7.955
 7589POPC   C4B27910  34.077  18.160   7.655
 7590POPC   NC327911  17.538   9.789   9.455
 7590POPC   PO427912  17.536   9.728   9.155
 7590POPC   GL127913  17.525   9.729   8.855
 7590POPC   GL227914  17.471   9.885   8.855
 7590POPC   C1A27915  17.493   9.764   8.555
 7590POPC   D2A27916  17.501   9.710   8.255
 7590POPC   C3A27917  17.540   9.719   7.955
 7590POPC   C4A27918  17.520   9.782   7.655
 7590POPC   C1B27919  17.380  10.023   8.555
 7590POPC   C2B27920  17.393   9.981   8.255
 7590POPC   C3B27921  17.388   9.984   7.955
 7590POPC   C4B27922  17.369  10.005   7.655
 7591POPC   NC327923  12.086  12.115   9.455
 7591POPC   PO427924  12.078  12.054   9.155
 7591POPC   GL127925  12.064  12.124   8.855
 7591POPC   GL227926  11.979  12.084   8.855
 7591POPC   C1A27927  12.029  12.087   8.555
 7591POPC   D2A27928  12.063  12.079   8.255
 7591POPC   C3A27929  12.033  12.088   7.955
 7591POPC   C4A27930  12.101  12.028   7.655
 7591POPC   C1B27931  11.888  12.138   8.555
 7591POPC   C2B27932  11.847  12.219   8.255
 7591POPC   C3B27933  11.799  12.138   7.955
 7591POPC   C4B27934  11.821  12.227   7.655
 7592POPC   NC327935  16.779  31.513   9.455
 7592POPC   PO427936  16.690  31.441   9.155
 7592POPC   GL127937  16.770  31.432   8.855
 7592POPC   GL227938  16.617  31.485   8.855
 7592POPC   C1A27939  16.705  31.448   8.555
 7592POPC   D2A27940  16.727  31.440   8.255
 7592POPC   C3A27941  16.717  31.511   7.955
 7592POPC   C4A27942  16.706  31.442   7.655
 7592POPC   C1B27943  16.510  31.539   8.555
 7592POPC   C2B27944  16.496  31.498   8.255
 7592POPC   C3B27945  16.507  31.472   7.955
 7592POPC   C4B27946  16.496  31.522   7.655
 7593POPC   NC327947  27.598  33.027   9.455
 7593POPC   PO427948  27.601  33.007   9.155
 7593POPC   GL127949  27.549  32.992   8.855
 7593POPC   GL227950  27.507  33.062   8.855
 7593POPC   C1A27951  27.593  33.054   8.555
 7593POPC   D2A27952  27.605  32.994   8.255
 7593POPC   C3A27953  27.640  33.018   7.955
 7593POPC   C4A27954  27.582  33.027   7.655
 7593POPC   C1B27955  27.396  33.130   8.555
 7593POPC   C2B27956  27.422  33.184   8.255
 7593POPC   C3B27957  27.433  33.203   7.955
 7593POPC   C4B27958  27.417  33.213   7.655
 7594POPC   NC327959  24.537  13.582   9.455
 7594POPC   PO427960  24.526  13.635   9.155
 7594POPC   GL127961  24.532  13.612   8.855
 7594POPC   GL227962  24.465  13.468   8.855
 7594POPC   C1A27963  24.453  13.657   8.555
 7594POPC   D2A27964  24.521  13.641   8.255
 7594POPC   C3A27965  24.454  13.642   7.955
 7594POPC   C4A27966  24.489  13.636   7.655
 7594POPC   C1B27967  24.541  13.390   8.555
 7594POPC   C2B27968  24.486  13.429   8.255
 7594POPC   C3B27969  24.532  13.357   7.955
 7594POPC   C4B27970  24.515  13.389   7.655
 7595POPC   NC327971  10.540  38.438   9.455
 7595POPC   PO427972  10.531  38.492   9.155
 7595POPC   GL127973  10.489  38.475   8.855
 7595POPC   GL227974  10.513  38.380   8.855
 7595POPC   C1A27975  10.490  38.427   8.555
 7595POPC   D2A27976  10.553  38.422   8.255
 7595POPC   C3A27977  10.507  38.415   7.955
 7595POPC   C4A27978  10.539  38.490   7.655
 7595POPC   C1B27979  10.444  38.253   8.555
 7595POPC   C2B27980  10.361  38.254   8.255
 7595POPC   C3B27981  10.358  38.237   7.955
 7595POPC   C4B27982  10.435  38.225   7.655
 7596POPC   NC327983  24.493  29.928   9.455
 7596POPC   PO427984  24.449  29.902   9.155
 7596POPC   GL127985  24.483  29.882   8.855
 7596POPC   GL227986  24.468  30.016   8.855
 7596POPC   C1A27987  24.492  29.919   8.555
 7596POPC   D2A27988  24.473  29.923   8.255
 7596POPC   C3A27989  24.526  29.943   7.955
 7596POPC   C4A27990  24.505  29.931   7.655
 7596POPC   C1B27991  24.579  30.190   8.555
 7596POPC   C2B27992  24.567  30.214   8.255
 7596POPC   C3B27993  24.580  30.200   7.955
 7596POPC   C4B27994  24.498  30.165   7.655
 7597POPC   NC327995   5.868  39.211   9.455
 7597POPC   PO427996   5.839  39.205   9.155
 7597POPC   GL127997   5.853  39.234   8.855
 7597POPC   GL227998   5.749  39.093   8.855
 7597POPC   C1A27999   5.901  39.183   8.555
 7597POPC   D2A28000   5.914  39.268   8.255
 7597POPC   C3A28001   5.857  39.214   7.955
 7597POPC   C4A28002   5.869  39.197   7.655
 7597POPC   C1B28003   5.693  39.007   8.555
 7597POPC   C2B28004   5.647  39.011   8.255
 7597POPC   C3B28005   5.724  39.030   7.955
 7597POPC   C4B28006   5.663  39.093   7.655
 7598POPC   NC328007  29.955  31.459   9.455
 7598POPC   PO428008  29.890  31.425   9.155
 7598POPC   GL128009  29.933  31.449   8.855
 7598POPC   GL228010  29.856  31.365   8.855
 7598POPC   C1A28011  29.913  31.423   8.555
 7598POPC   D2A28012  29.889  31.506   8.255
 7598POPC   C3A28013  29.961  31.520   7.955
 7598POPC   C4A28014  29.874  31.474   7.655
 7598POPC   C1B28015  29.798  31.207   8.555
 7598POPC   C2B28016  29.800  31.279   8.255
 7598POPC   C3B28017  29.869  31.223   7.955
 7598POPC   C4B28018  29.871  31.281   7.655
 7599POPC   NC328019  40.757  26.774   9.455
 7599POPC   PO428020  40.737  26.825   9.155
 7599POPC   GL128021  40.751  26.778   8.855
 7599POPC   GL228022  40.754  26.738   8.855
 7599POPC   C1A28023  40.796  26.790   8.555
 7599POPC   D2A28024  40.761  26.821   8.255
 7599POPC   C3A28025  40.788  26.817   7.955
 7599POPC   C4A28026  40.801  26.785   7.655
 7599POPC   C1B28027  40.727  26.571   8.555
 7599POPC   C2B28028  40.698  26.568   8.255
 7599POPC   C3B28029  40.737  26.557   7.955
 7599POPC   C4B28030  40.667  26.593   7.655
 7600POPC   NC328031   9.775  39.205   9.455
 7600POPC   PO428032   9.731  39.259   9.155
 7600POPC   GL128033   9.727  39.187   8.855
 7600POPC   GL228034   9.915  39.193   8.855
 7600POPC   C1A28035   9.766  39.239   8.555
 7600POPC   D2A28036   9.743  39.254   8.255
 7600POPC   C3A28037   9.741  39.229   7.955
 7600POPC   C4A28038   9.774  39.242   7.655
 7600POPC   C1B28039   9.961  39.132   8.555
 7600POPC   C2B28040  10.014  39.177   8.255
 7600POPC   C3B28041   9.966  39.159   7.955
 7600POPC   C4B28042  10.009  39.103   7.655
 7601POPC   NC328043  12.810   2.764   9.455
 7601POPC   PO428044  12.813   2.766   9.155
 7601POPC   GL128045  12.813   2.781   8.855
 7601POPC   GL228046  12.834   2.685   8.855
 7601POPC   C1A28047  12.851   2.764   8.555
 7601POPC   D2A28048  12.842   2.793   8.255
 7601POPC   C3A28049  12.855   2.776   7.955
 7601POPC   C4A28050  12.810   2.753   7.655
 7601POPC   C1B28051  12.841   2.481   8.555
 7601POPC   C2B28052  12.797   2.553   8.255
 7601POPC   C3B28053  12.799   2.515   7.955
 7601POPC   C4B28054  12.821   2.558   7.655
 7602POPC   NC328055   8.973  25.218   9.455
 7602POPC   PO428056   8.947  25.277   9.155
 7602POPC   GL128057   9.005  25.231   8.855
 7602POPC   GL228058   8.931  25.178   8.855
 7602POPC   C1A28059   9.003  25.249   8.555
 7602POPC   D2A28060   9.007  25.242   8.255
 7602POPC   C3A28061   8.995  25.293   7.955
 7602POPC   C4A28062   8.999  25.289   7.655
 7602POPC   C1B28063   8.916  25.064   8.555
 7602POPC   C2B28064   8.915  25.001   8.255
 7602POPC   C3B28065   8.935  24.972   7.955
 7602POPC   C4B28066   8.934  25.047   7.655
 7603POPC   NC328067  43.924  40.737   9.455
 7603POPC   PO428068  43.864  40.755   9.155
 7603POPC   GL128069  43.903  40.751   8.855
 7603POPC   GL228070  43.777  40.847   8.855
 7603POPC   C1A28071  43.904  40.750   8.555
 7603POPC   D2A28072  43.841  40.744   8.255
 7603POPC   C3A28073  43.876  40.806   7.955
 7603POPC   C4A28074  43.876  40.814   7.655
 7603POPC   C1B28075  43.646  40.898   8.555
 7603POPC   C2B28076  43.682  40.927   8.255
 7603POPC   C3B28077  43.656  40.919   7.955
 7603POPC   C4B28078  43.698  40.927   7.655
 7604POPC   NC328079  15.135  15.955   9.455
 7604POPC   PO428080  15.153  15.995   9.155
 7604POPC   GL128081  15.151  15.954   8.855
 7604POPC   GL228082  15.164  15.806   8.855
 7604POPC   C1A28083  15.130  15.967   8.555
 7604POPC   D2A28084  15.173  15.974   8.255
 7604POPC   C3A28085  15.144  15.993   7.955
 7604POPC   C4A28086  15.165  15.958   7.655
 7604POPC   C1B28087  15.042  15.721   8.555
 7604POPC   C2B28088  15.007  15.767   8.255
 7604POPC   C3B28089  15.010  15.712   7.955
 7604POPC   C4B28090  15.026  15.760   7.655
 7605POPC   NC328091  19.799  17.526   9.455
 7605POPC   PO428092  19.841  17.530   9.155
 7605POPC   GL128093  19.796  17.535   8.855
 7605POPC   GL228094  19.882  17.604   8.855
 7605POPC   C1A28095  19.805  17.556   8.555
 7605POPC   D2A28096  19.862  17.525   8.255
 7605POPC   C3A28097  19.880  17.532   7.955
 7605POPC   C4A28098  19.882  17.458   7.655
 7605POPC   C1B28099  19.951  17.747   8.555
 7605POPC   C2B28100  19.866  17.749   8.255
 7605POPC   C3B28101  19.875  17.777   7.955
 7605POPC   C4B28102  19.927  17.751   7.655
 7606POPC   NC328103  17.484  22.907   9.455
 7606POPC   PO428104  17.542  22.933   9.155
 7606POPC   GL128105  17.551  22.901   8.855
 7606POPC   GL228106  17.587  22.926   8.855
 7606POPC   C1A28107  17.513  22.966   8.555
 7606POPC   D2A28108  17.529  22.958   8.255
 7606POPC   C3A28109  17.555  22.957   7.955
 7606POPC   C4A28110  17.507  22.949   7.655
 7606POPC   C1B28111  17.735  22.863   8.555
 7606POPC   C2B28112  17.782  22.903   8.255
 7606POPC   C3B28113  17.712  22.878   7.955
 7606POPC   C4B28114  17.752  22.896   7.655
 7607POPC   NC328115  40.790   9.765   9.455
 7607POPC   PO428116  40.737   9.760   9.155
 7607POPC   GL128117  40.738   9.781   8.855
 7607POPC   GL228118  40.879   9.815   8.855
 7607POPC   C1A28119  40.761   9.734   8.555
 7607POPC   D2A28120  40.824   9.752   8.255
 7607POPC   C3A28121  40.735   9.773   7.955
 7607POPC   C4A28122  40.748   9.715   7.655
 7607POPC   C1B28123  40.861   9.932   8.555
 7607POPC   C2B28124  40.880   9.942   8.255
 7607POPC   C3B28125  40.948   9.949   7.955
 7607POPC   C4B28126  40.914   9.937   7.655
 7608POPC   NC328127  41.581  13.650   9.455
 7608POPC   PO428128  41.587  13.636   9.155
 7608POPC   GL128129  41.557  13.601   8.855
 7608POPC   GL228130  41.514  13.753   8.855
 7608POPC   C1A28131  41.513  13.620   8.555
 7608POPC   D2A28132  41.540  13.654   8.255
 7608POPC   C3A28133  41.585  13.661   7.955
 7608POPC   C4A28134  41.584  13.646   7.655
 7608POPC   C1B28135  41.544  13.896   8.555
 7608POPC   C2B28136  41.519  13.858   8.255
 7608POPC   C3B28137  41.590  13.848   7.955
 7608POPC   C4B28138  41.600  13.919   7.655
 7609POPC   NC328139  15.222  28.371   9.455
 7609POPC   PO428140  15.222  28.409   9.155
 7609POPC   GL128141  15.198  28.353   8.855
 7609POPC   GL228142  15.204  28.440   8.855
 7609POPC   C1A28143  15.135  28.402   8.555
 7609POPC   D2A28144  15.155  28.362   8.255
 7609POPC   C3A28145  15.219  28.364   7.955
 7609POPC   C4A28146  15.224  28.392   7.655
 7609POPC   C1B28147  15.256  28.640   8.555
 7609POPC   C2B28148  15.254  28.569   8.255
 7609POPC   C3B28149  15.232  28.590   7.955
 7609POPC   C4B28150  15.287  28.608   7.655
 7610POPC   NC328151  12.042  21.368   9.455
 7610POPC   PO428152  12.095  21.428   9.155
 7610POPC   GL128153  12.053  21.388   8.855
 7610POPC   GL228154  11.953  21.490   8.855
 7610POPC   C1A28155  12.062  21.372   8.555
 7610POPC   D2A28156  12.105  21.344   8.255
 7610POPC   C3A28157  12.100  21.386   7.955
 7610POPC   C4A28158  12.052  21.363   7.655
 7610POPC   C1B28159  11.904  21.543   8.555
 7610POPC   C2B28160  11.844  21.558   8.255
 7610POPC   C3B28161  11.846  21.585   7.955
 7610POPC   C4B28162  11.883  21.518   7.655
 7611POPC   NC328163  21.366  32.203   9.455
 7611POPC   PO428164  21.418  32.266   9.155
 7611POPC   GL128165  21.366  32.229   8.855
 7611POPC   GL228166  21.274  32.217   8.855
 7611POPC   C1A28167  21.339  32.217   8.555
 7611POPC   D2A28168  21.370  32.243   8.255
 7611POPC   C3A28169  21.343  32.241   7.955
 7611POPC   C4A28170  21.429  32.249   7.655
 7611POPC   C1B28171  21.194  32.214   8.555
 7611POPC   C2B28172  21.179  32.209   8.255
 7611POPC   C3B28173  21.119  32.121   7.955
 7611POPC   C4B28174  21.149  32.180   7.655
 7612POPC   NC328175  16.764  13.620   9.455
 7612POPC   PO428176  16.692  13.588   9.155
 7612POPC   GL128177  16.730  13.676   8.855
 7612POPC   GL228178  16.630  13.643   8.855
 7612POPC   C1A28179  16.719  13.676   8.555
 7612POPC   D2A28180  16.759  13.622   8.255
 7612POPC   C3A28181  16.688  13.667   7.955
 7612POPC   C4A28182  16.746  13.647   7.655
 7612POPC   C1B28183  16.455  13.650   8.555
 7612POPC   C2B28184  16.458  13.647   8.255
 7612POPC   C3B28185  16.452  13.654   7.955
 7612POPC   C4B28186  16.496  13.647   7.655
 7613POPC   NC328187  33.040   6.640   9.455
 7613POPC   PO428188  33.029   6.664   9.155
 7613POPC   GL128189  33.020   6.627   8.855
 7613POPC   GL228190  33.185   6.627   8.855
 7613POPC   C1A28191  32.994   6.615   8.555
 7613POPC   D2A28192  33.072   6.627   8.255
 7613POPC   C3A28193  33.068   6.684   7.955
 7613POPC   C4A28194  33.045   6.653   7.655
 7613POPC   C1B28195  33.306   6.726   8.555
 7613POPC   C2B28196  33.262   6.737   8.255
 7613POPC   C3B28197  33.236   6.734   7.955
 7613POPC   C4B28198  33.318   6.696   7.655
 7614POPC   NC328199  30.727   2.776   9.455
 7614POPC   PO428200  30.689   2.782   9.155
 7614POPC   GL128201  30.698   2.774   8.855
 7614POPC   GL228202  30.620   2.687   8.855
 7614POPC   C1A28203  30.701   2.741   8.555
 7614POPC   D2A28204  30.663   2.773   8.255
 7614POPC   C3A28205  30.675   2.815   7.955
 7614POPC   C4A28206  30.685   2.775   7.655
 7614POPC   C1B28207  30.499   2.550   8.555
 7614POPC   C2B28208  30.565   2.604   8.255
 7614POPC   C3B28209  30.511   2.563   7.955
 7614POPC   C4B28210  30.555   2.623   7.655
 7615POPC   NC328211   6.628   5.056   9.455
 7615POPC   PO428212   6.682   5.054   9.155
 7615POPC   GL128213   6.609   5.052   8.855
 7615POPC   GL228214   6.590   5.155   8.855
 7615POPC   C1A28215   6.617   5.110   8.555
 7615POPC   D2A28216   6.673   5.132   8.255
 7615POPC   C3A28217   6.603   5.114   7.955
 7615POPC   C4A28218   6.654   5.138   7.655
 7615POPC   C1B28219   6.488   5.242   8.555
 7615POPC   C2B28220   6.424   5.243   8.255
 7615POPC   C3B28221   6.413   5.292   7.955
 7615POPC   C4B28222   6.420   5.279   7.655
 7616POPC   NC328223  21.398  23.749   9.455
 7616POPC   PO428224  21.431  23.668   9.155
 7616POPC   GL128225  21.342  23.755   8.855
 7616POPC   GL228226  21.241  23.742   8.855
 7616POPC   C1A28227  21.398  23.762   8.555
 7616POPC   D2A28228  21.436  23.677   8.255
 7616POPC   C3A28229  21.391  23.677   7.955
 7616POPC   C4A28230  21.422  23.694   7.655
 7616POPC   C1B28231  21.215  23.891   8.555
 7616POPC   C2B28232  21.155  23.829   8.255
 7616POPC   C3B28233  21.189  23.833   7.955
 7616POPC   C4B28234  21.138  23.886   7.655
 7617POPC   NC328235  15.193  11.305   9.455
 7617POPC   PO428236  15.197  11.311   9.155
 7617POPC   GL128237  15.212  11.339   8.855
 7617POPC   GL228238  15.239  11.392   8.855
 7617POPC   C1A28239  15.227  11.335   8.555
 7617POPC   D2A28240  15.170  11.348   8.255
 7617POPC   C3A28241  15.134  11.257   7.955
 7617POPC   C4A28242  15.218  11.330   7.655
 7617POPC   C1B28243  15.418  11.418   8.555
 7617POPC   C2B28244  15.412  11.430   8.255
 7617POPC   C3B28245  15.347  11.464   7.955
 7617POPC   C4B28246  15.330  11.491   7.655
 7618POPC   NC328247  37.634  19.813   9.455
 7618POPC   PO428248  37.680  19.875   9.155
 7618POPC   GL128249  37.690  19.800   8.855
 7618POPC   GL228250  37.604  19.803   8.855
 7618POPC   C1A28251  37.671  19.876   8.555
 7618POPC   D2A28252  37.644  19.798   8.255
 7618POPC   C3A28253  37.694  19.879   7.955
 7618POPC   C4A28254  37.643  19.799   7.655
 7618POPC   C1B28255  37.461  19.848   8.555
 7618POPC   C2B28256  37.457  19.774   8.255
 7618POPC   C3B28257  37.410  19.812   7.955
 7618POPC   C4B28258  37.458  19.851   7.655
 7619POPC   NC328259  17.553  32.210   9.455
 7619POPC   PO428260  17.472  32.253   9.155
 7619POPC   GL128261  17.507  32.210   8.855
 7619POPC   GL228262  17.450  32.128   8.855
 7619POPC   C1A28263  17.491  32.283   8.555
 7619POPC   D2A28264  17.508  32.243   8.255
 7619POPC   C3A28265  17.548  32.237   7.955
 7619POPC   C4A28266  17.460  32.212   7.655
 7619POPC   C1B28267  17.463  31.986   8.555
 7619POPC   C2B28268  17.437  32.023   8.255
 7619POPC   C3B28269  17.428  32.058   7.955
 7619POPC   C4B28270  17.458  32.051   7.655
 7620POPC   NC328271  41.580  38.464   9.455
 7620POPC   PO428272  41.577  38.431   9.155
 7620POPC   GL128273  41.529  38.435   8.855
 7620POPC   GL228274  41.689  38.513   8.855
 7620POPC   C1A28275  41.524  38.497   8.555
 7620POPC   D2A28276  41.560  38.456   8.255
 7620POPC   C3A28277  41.511  38.502   7.955
 7620POPC   C4A28278  41.514  38.406   7.655
 7620POPC   C1B28279  41.842  38.469   8.555
 7620POPC   C2B28280  41.802  38.489   8.255
 7620POPC   C3B28281  41.772  38.540   7.955
 7620POPC   C4B28282  41.843  38.526   7.655
 7621POPC   NC328283  17.521  39.268   9.455
 7621POPC   PO428284  17.513  39.241   9.155
 7621POPC   GL128285  17.520  39.261   8.855
 7621POPC   GL228286  17.339  39.293   8.855
 7621POPC   C1A28287  17.553  39.196   8.555
 7621POPC   D2A28288  17.547  39.263   8.255
 7621POPC   C3A28289  17.487  39.271   7.955
 7621POPC   C4A28290  17.459  39.266   7.655
 7621POPC   C1B28291  17.291  39.279   8.555
 7621POPC   C2B28292  17.297  39.236   8.255
 7621POPC   C3B28293  17.215  39.286   7.955
 7621POPC   C4B28294  17.281  39.221   7.655
 7622POPC   NC328295  22.951  33.024   9.455
 7622POPC   PO428296  22.945  33.031   9.155
 7622POPC   GL128297  22.896  33.023   8.855
 7622POPC   GL228298  22.819  33.119   8.855
 7622POPC   C1A28299  22.921  33.001   8.555
 7622POPC   D2A28300  22.916  33.036   8.255
 7622POPC   C3A28301  22.969  33.060   7.955
 7622POPC   C4A28302  22.893  32.993   7.655
 7622POPC   C1B28303  22.680  33.114   8.555
 7622POPC   C2B28304  22.688  33.168   8.255
 7622POPC   C3B28305  22.767  33.202   7.955
 7622POPC   C4B28306  22.713  33.158   7.655
 7623POPC   NC328307  38.491  22.158   9.455
 7623POPC   PO428308  38.447  22.135   9.155
 7623POPC   GL128309  38.454  22.127   8.855
 7623POPC   GL228310  38.438  22.238   8.855
 7623POPC   C1A28311  38.425  22.207   8.555
 7623POPC   D2A28312  38.443  22.163   8.255
 7623POPC   C3A28313  38.463  22.159   7.955
 7623POPC   C4A28314  38.408  22.200   7.655
 7623POPC   C1B28315  38.436  22.379   8.555
 7623POPC   C2B28316  38.399  22.436   8.255
 7623POPC   C3B28317  38.444  22.379   7.955
 7623POPC   C4B28318  38.461  22.407   7.655
 7624POPC   NC328319  26.072  40.772   9.455
 7624POPC   PO428320  26.052  40.786   9.155
 7624POPC   GL128321  26.058  40.819   8.855
 7624POPC   GL228322  25.953  40.785   8.855
 7624POPC   C1A28323  26.015  40.823   8.555
 7624POPC   D2A28324  26.061  40.829   8.255
 7624POPC   C3A28325  25.992  40.800   7.955
 7624POPC   C4A28326  26.059  40.809   7.655
 7624POPC   C1B28327  25.789  40.831   8.555
 7624POPC   C2B28328  25.797  40.811   8.255
 7624POPC   C3B28329  25.778  40.831   7.955
 7624POPC   C4B28330  25.788  40.896   7.655
 7625POPC   NC328331  12.120  24.481   9.455
 7625POPC   PO428332  12.110  24.512   9.155
 7625POPC   GL128333  12.074  24.520   8.855
 7625POPC   GL228334  11.939  24.503   8.855
 7625POPC   C1A28335  12.040  24.532   8.555
 7625POPC   D2A28336  12.033  24.461   8.255
 7625POPC   C3A28337  12.094  24.486   7.955
 7625POPC   C4A28338  12.095  24.501   7.655
 7625POPC   C1B28339  11.850  24.431   8.555
 7625POPC   C2B28340  11.863  24.510   8.255
 7625POPC   C3B28341  11.793  24.497   7.955
 7625POPC   C4B28342  11.832  24.499   7.655
 7626POPC   NC328343  20.633  15.129   9.455
 7626POPC   PO428344  20.655  15.224   9.155
 7626POPC   GL128345  20.644  15.213   8.855
 7626POPC   GL228346  20.743  15.186   8.855
 7626POPC   C1A28347  20.594  15.212   8.555
 7626POPC   D2A28348  20.597  15.161   8.255
 7626POPC   C3A28349  20.657  15.226   7.955
 7626POPC   C4A28350  20.620  15.202   7.655
 7626POPC   C1B28351  20.868  15.212   8.555
 7626POPC   C2B28352  20.825  15.259   8.255
 7626POPC   C3B28353  20.827  15.249   7.955
 7626POPC   C4B28354  20.854  15.233   7.655
 7627POPC   NC328355   8.201  24.528   9.455
 7627POPC   PO428356   8.214  24.448   9.155
 7627POPC   GL128357   8.234  24.446   8.855
 7627POPC   GL228358   8.291  24.480   8.855
 7627POPC   C1A28359   8.194  24.484   8.555
 7627POPC   D2A28360   8.176  24.471   8.255
 7627POPC   C3A28361   8.171  24.482   7.955
 7627POPC   C4A28362   8.151  24.517   7.655
 7627POPC   C1B28363   8.447  24.536   8.555
 7627POPC   C2B28364   8.468  24.513   8.255
 7627POPC   C3B28365   8.456  24.506   7.955
 7627POPC   C4B28366   8.442  24.493   7.655
 7628POPC   NC328367  14.361   0.453   9.455
 7628POPC   PO428368  14.442   0.397   9.155
 7628POPC   GL128369  14.429   0.479   8.855
 7628POPC   GL228370  14.276   0.500   8.855
 7628POPC   C1A28371  14.397   0.392   8.555
 7628POPC   D2A28372  14.440   0.408   8.255
 7628POPC   C3A28373  14.358   0.396   7.955
 7628POPC   C4A28374  14.364   0.431   7.655
 7628POPC   C1B28375  14.218   0.584   8.555
 7628POPC   C2B28376  14.226   0.603   8.255
 7628POPC   C3B28377  14.221   0.615   7.955
 7628POPC   C4B28378  14.211   0.579   7.655
 7629POPC   NC328379   3.514  30.674   9.455
 7629POPC   PO428380   3.556  30.666   9.155
 7629POPC   GL128381   3.516  30.689   8.855
 7629POPC   GL228382   3.651  30.658   8.855
 7629POPC   C1A28383   3.586  30.714   8.555
 7629POPC   D2A28384   3.546  30.733   8.255
 7629POPC   C3A28385   3.540  30.737   7.955
 7629POPC   C4A28386   3.499  30.659   7.655
 7629POPC   C1B28387   3.785  30.697   8.555
 7629POPC   C2B28388   3.832  30.680   8.255
 7629POPC   C3B28389   3.788  30.656   7.955
 7629POPC   C4B28390   3.767  30.674   7.655
 7630POPC   NC328391  40.810  15.988   9.455
 7630POPC   PO428392  40.818  15.930   9.155
 7630POPC   GL128393  40.792  15.919   8.855
 7630POPC   GL228394  40.660  15.862   8.855
 7630POPC   C1A28395  40.820  15.969   8.555
 7630POPC   D2A28396  40.793  16.003   8.255
 7630POPC   C3A28397  40.808  15.990   7.955
 7630POPC   C4A28398  40.747  15.965   7.655
 7630POPC   C1B28399  40.548  15.816   8.555
 7630POPC   C2B28400  40.515  15.826   8.255
 7630POPC   C3B28401  40.547  15.846   7.955
 7630POPC   C4B28402  40.602  15.850   7.655
 7631POPC   NC328403  22.194  24.501   9.455
 7631POPC   PO428404  22.155  24.478   9.155
 7631POPC   GL128405  22.161  24.489   8.855
 7631POPC   GL228406  22.146  24.566   8.855
 7631POPC   C1A28407  22.184  24.531   8.555
 7631POPC   D2A28408  22.184  24.486   8.255
 7631POPC   C3A28409  22.119  24.486   7.955
 7631POPC   C4A28410  22.206  24.464   7.655
 7631POPC   C1B28411  22.124  24.765   8.555
 7631POPC   C2B28412  22.173  24.714   8.255
 7631POPC   C3B28413  22.143  24.714   7.955
 7631POPC   C4B28414  22.155  24.743   7.655
 7632POPC   NC328415   8.992  10.554   9.455
 7632POPC   PO428416   8.979  10.560   9.155
 7632POPC   GL128417   8.930  10.525   8.855
 7632POPC   GL228418   8.893  10.596   8.855
 7632POPC   C1A28419   8.942  10.546   8.555
 7632POPC   D2A28420   9.011  10.526   8.255
 7632POPC   C3A28421   8.949  10.546   7.955
 7632POPC   C4A28422   8.980  10.517   7.655
 7632POPC   C1B28423   8.757  10.642   8.555
 7632POPC   C2B28424   8.788  10.613   8.255
 7632POPC   C3B28425   8.698  10.657   7.955
 7632POPC   C4B28426   8.744  10.641   7.655
 7633POPC   NC328427   4.326  18.241   9.455
 7633POPC   PO428428   4.271  18.300   9.155
 7633POPC   GL128429   4.311  18.277   8.855
 7633POPC   GL228430   4.383  18.336   8.855
 7633POPC   C1A28431   4.335  18.315   8.555
 7633POPC   D2A28432   4.286  18.290   8.255
 7633POPC   C3A28433   4.331  18.246   7.955
 7633POPC   C4A28434   4.288  18.270   7.655
 7633POPC   C1B28435   4.500  18.492   8.555
 7633POPC   C2B28436   4.481  18.443   8.255
 7633POPC   C3B28437   4.502  18.486   7.955
 7633POPC   C4B28438   4.537  18.446   7.655
 7634POPC   NC328439  14.355   6.638   9.455
 7634POPC   PO428440  14.366   6.624   9.155
 7634POPC   GL128441  14.404   6.668   8.855
 7634POPC   GL228442  14.510   6.692   8.855
 7634POPC   C1A28443  14.422   6.608   8.555
 7634POPC   D2A28444  14.429   6.644   8.255
 7634POPC   C3A28445  14.361   6.605   7.955
 7634POPC   C4A28446  14.381   6.609   7.655
 7634POPC   C1B28447  14.618   6.788   8.555
 7634POPC   C2B28448  14.611   6.854   8.255
 7634POPC   C3B28449  14.612   6.857   7.955
 7634POPC   C4B28450  14.567   6.803   7.655
 7635POPC   NC328451   8.227  21.423   9.455
 7635POPC   PO428452   8.227  21.340   9.155
 7635POPC   GL128453   8.198  21.398   8.855
 7635POPC   GL228454   8.140  21.311   8.855
 7635POPC   C1A28455   8.165  21.418   8.555
 7635POPC   D2A28456   8.186  21.403   8.255
 7635POPC   C3A28457   8.180  21.426   7.955
 7635POPC   C4A28458   8.227  21.394   7.655
 7635POPC   C1B28459   8.164  21.172   8.555
 7635POPC   C2B28460   8.110  21.173   8.255
 7635POPC   C3B28461   8.164  21.141   7.955
 7635POPC   C4B28462   8.199  21.172   7.655
 7636POPC   NC328463  41.546  15.928   9.455
 7636POPC   PO428464  41.546  15.985   9.155
 7636POPC   GL128465  41.561  15.911   8.855
 7636POPC   GL228466  41.645  15.820   8.855
 7636POPC   C1A28467  41.594  15.954   8.555
 7636POPC   D2A28468  41.601  15.949   8.255
 7636POPC   C3A28469  41.526  15.938   7.955
 7636POPC   C4A28470  41.509  15.917   7.655
 7636POPC   C1B28471  41.703  15.706   8.555
 7636POPC   C2B28472  41.613  15.724   8.255
 7636POPC   C3B28473  41.612  15.735   7.955
 7636POPC   C4B28474  41.623  15.772   7.655
 7637POPC   NC328475  17.465  20.581   9.455
 7637POPC   PO428476  17.538  20.614   9.155
 7637POPC   GL128477  17.546  20.592   8.855
 7637POPC   GL228478  17.472  20.678   8.855
 7637POPC   C1A28479  17.486  20.566   8.555
 7637POPC   D2A28480  17.528  20.602   8.255
 7637POPC   C3A28481  17.540  20.594   7.955
 7637POPC   C4A28482  17.463  20.619   7.655
 7637POPC   C1B28483  17.408  20.848   8.555
 7637POPC   C2B28484  17.365  20.816   8.255
 7637POPC   C3B28485  17.346  20.838   7.955
 7637POPC   C4B28486  17.347  20.789   7.655
 7638POPC   NC328487  33.002  33.008   9.455
 7638POPC   PO428488  33.049  33.032   9.155
 7638POPC   GL128489  33.040  33.070   8.855
 7638POPC   GL228490  33.012  33.105   8.855
 7638POPC   C1A28491  33.034  33.059   8.555
 7638POPC   D2A28492  33.056  33.052   8.255
 7638POPC   C3A28493  32.996  33.030   7.955
 7638POPC   C4A28494  33.025  33.015   7.655
 7638POPC   C1B28495  32.904  33.223   8.555
 7638POPC   C2B28496  32.874  33.282   8.255
 7638POPC   C3B28497  32.930  33.216   7.955
 7638POPC   C4B28498  32.872  33.244   7.655
 7639POPC   NC328499  22.949  31.460   9.455
 7639POPC   PO428500  22.953  31.439   9.155
 7639POPC   GL128501  22.963  31.512   8.855
 7639POPC   GL228502  22.853  31.575   8.855
 7639POPC   C1A28503  22.946  31.430   8.555
 7639POPC   D2A28504  22.889  31.513   8.255
 7639POPC   C3A28505  22.911  31.432   7.955
 7639POPC   C4A28506  22.980  31.501   7.655
 7639POPC   C1B28507  22.756  31.647   8.555
 7639POPC   C2B28508  22.695  31.580   8.255
 7639POPC   C3B28509  22.687  31.614   7.955
 7639POPC   C4B28510  22.706  31.624   7.655
 7640POPC   NC328511  14.435  39.963   9.455
 7640POPC   PO428512  14.425  40.029   9.155
 7640POPC   GL128513  14.451  40.050   8.855
 7640POPC   GL228514  14.475  40.172   8.855
 7640POPC   C1A28515  14.388  39.976   8.555
 7640POPC   D2A28516  14.383  39.968   8.255
 7640POPC   C3A28517  14.413  39.989   7.955
 7640POPC   C4A28518  14.420  40.044   7.655
 7640POPC   C1B28519  14.506  40.259   8.555
 7640POPC   C2B28520  14.491  40.288   8.255
 7640POPC   C3B28521  14.494  40.213   7.955
 7640POPC   C4B28522  14.440  40.289   7.655
 7641POPC   NC328523   4.330  24.523   9.455
 7641POPC   PO428524   4.352  24.510   9.155
 7641POPC   GL128525   4.321  24.469   8.855
 7641POPC   GL228526   4.169  24.483   8.855
 7641POPC   C1A28527   4.290  24.440   8.555
 7641POPC   D2A28528   4.358  24.464   8.255
 7641POPC   C3A28529   4.335  24.467   7.955
 7641POPC   C4A28530   4.364  24.530   7.655
 7641POPC   C1B28531   4.116  24.466   8.555
 7641POPC   C2B28532   4.024  24.447   8.255
 7641POPC   C3B28533   4.091  24.472   7.955
 7641POPC   C4B28534   4.113  24.452   7.655
 7642POPC   NC328535   7.387  25.239   9.455
 7642POPC   PO428536   7.465  25.246   9.155
 7642POPC   GL128537   7.434  25.239   8.855
 7642POPC   GL228538   7.530  25.291   8.855
 7642POPC   C1A28539   7.444  25.230   8.555
 7642POPC   D2A28540   7.377  25.299   8.255
 7642POPC   C3A28541   7.442  25.289   7.955
 7642POPC   C4A28542   7.453  25.284   7.655
 7642POPC   C1B28543   7.695  25.375   8.555
 7642POPC   C2B28544   7.704  25.335   8.255
 7642POPC   C3B28545   7.679  25.305   7.955
 7642POPC   C4B28546   7.701  25.355   7.655
 7643POPC   NC328547  32.226   6.611   9.455
 7643POPC   PO428548  32.231   6.670   9.155
 7643POPC   GL128549  32.221   6.681   8.855
 7643POPC   GL228550  32.301   6.748   8.855
 7643POPC   C1A28551  32.226   6.606   8.555
 7643POPC   D2A28552  32.213   6.642   8.255
 7643POPC   C3A28553  32.219   6.664   7.955
 7643POPC   C4A28554  32.205   6.597   7.655
 7643POPC   C1B28555  32.332   6.875   8.555
 7643POPC   C2B28556  32.359   6.919   8.255
 7643POPC   C3B28557  32.376   6.849   7.955
 7643POPC   C4B28558  32.367   6.828   7.655
 7644POPC   NC328559  19.042   3.536   9.455
 7644POPC   PO428560  19.044   3.508   9.155
 7644POPC   GL128561  19.051   3.559   8.855
 7644POPC   GL228562  19.028   3.694   8.855
 7644POPC   C1A28563  19.102   3.580   8.555
 7644POPC   D2A28564  19.038   3.512   8.255
 7644POPC   C3A28565  19.095   3.562   7.955
 7644POPC   C4A28566  19.080   3.573   7.655
 7644POPC   C1B28567  19.041   3.795   8.555
 7644POPC   C2B28568  19.088   3.764   8.255
 7644POPC   C3B28569  19.080   3.815   7.955
 7644POPC   C4B28570  19.111   3.839   7.655
 7645POPC   NC328571  32.265  34.549   9.455
 7645POPC   PO428572  32.213  34.620   9.155
 7645POPC   GL128573  32.250  34.603   8.855
 7645POPC   GL228574  32.260  34.728   8.855
 7645POPC   C1A28575  32.285  34.599   8.555
 7645POPC   D2A28576  32.241  34.545   8.255
 7645POPC   C3A28577  32.259  34.553   7.955
 7645POPC   C4A28578  32.255  34.557   7.655
 7645POPC   C1B28579  32.220  34.875   8.555
 7645POPC   C2B28580  32.241  34.835   8.255
 7645POPC   C3B28581  32.190  34.793   7.955
 7645POPC   C4B28582  32.235  34.862   7.655
 7646POPC   NC328583  39.205  15.932   9.455
 7646POPC   PO428584  39.231  15.990   9.155
 7646POPC   GL128585  39.198  15.997   8.855
 7646POPC   GL228586  39.074  15.950   8.855
 7646POPC   C1A28587  39.222  15.927   8.555
 7646POPC   D2A28588  39.252  16.000   8.255
 7646POPC   C3A28589  39.191  15.910   7.955
 7646POPC   C4A28590  39.234  15.914   7.655
 7646POPC   C1B28591  39.012  15.914   8.555
 7646POPC   C2B28592  38.977  15.947   8.255
 7646POPC   C3B28593  38.993  15.918   7.955
 7646POPC   C4B28594  39.035  15.943   7.655
 7647POPC   NC328595   5.827  26.867   9.455
 7647POPC   PO428596   5.894  26.807   9.155
 7647POPC   GL128597   5.838  26.787   8.855
 7647POPC   GL228598   5.786  26.728   8.855
 7647POPC   C1A28599   5.823  26.817   8.555
 7647POPC   D2A28600   5.874  26.861   8.255
 7647POPC   C3A28601   5.835  26.803   7.955
 7647POPC   C4A28602   5.869  26.799   7.655
 7647POPC   C1B28603   5.653  26.694   8.555
 7647POPC   C2B28604   5.672  26.608   8.255
 7647POPC   C3B28605   5.654  26.626   7.955
 7647POPC   C4B28606   5.659  26.634   7.655
 7648POPC   NC328607  19.071   5.894   9.455
 7648POPC   PO428608  19.091   5.894   9.155
 7648POPC   GL128609  19.079   5.893   8.855
 7648POPC   GL228610  19.005   5.769   8.855
 7648POPC   C1A28611  19.009   5.876   8.555
 7648POPC   D2A28612  19.085   5.899   8.255
 7648POPC   C3A28613  19.052   5.859   7.955
 7648POPC   C4A28614  19.014   5.872   7.655
 7648POPC   C1B28615  18.910   5.696   8.555
 7648POPC   C2B28616  18.945   5.612   8.255
 7648POPC   C3B28617  18.922   5.692   7.955
 7648POPC   C4B28618  18.951   5.706   7.655
 7649POPC   NC328619  40.028  33.794   9.455
 7649POPC   PO428620  40.023  33.779   9.155
 7649POPC   GL128621  40.015  33.770   8.855
 7649POPC   GL228622  40.131  33.723   8.855
 7649POPC   C1A28623  40.020  33.818   8.555
 7649POPC   D2A28624  39.969  33.767   8.255
 7649POPC   C3A28625  40.034  33.840   7.955
 7649POPC   C4A28626  40.021  33.761   7.655
 7649POPC   C1B28627  40.276  33.662   8.555
 7649POPC   C2B28628  40.238  33.696   8.255
 7649POPC   C3B28629  40.233  33.739   7.955
 7649POPC   C4B28630  40.285  33.678   7.655
 7650POPC   NC328631  18.331  28.333   9.455
 7650POPC   PO428632  18.304  28.367   9.155
 7650POPC   GL128633  18.324  28.406   8.855
 7650POPC   GL228634  18.237  28.312   8.855
 7650POPC   C1A28635  18.261  28.412   8.555
 7650POPC   D2A28636  18.297  28.414   8.255
 7650POPC   C3A28637  18.281  28.353   7.955
 7650POPC   C4A28638  18.268  28.398   7.655
 7650POPC   C1B28639  18.147  28.194   8.555
 7650POPC   C2B28640  18.149  28.112   8.255
 7650POPC   C3B28641  18.130  28.169   7.955
 7650POPC   C4B28642  18.178  28.143   7.655
 7651POPC   NC328643  10.538  23.668   9.455
 7651POPC   PO428644  10.531  23.750   9.155
 7651POPC   GL128645  10.548  23.715   8.855
 7651POPC   GL228646  10.587  23.557   8.855
 7651POPC   C1A28647  10.530  23.715   8.555
 7651POPC   D2A28648  10.527  23.761   8.255
 7651POPC   C3A28649  10.562  23.758   7.955
 7651POPC   C4A28650  10.563  23.681   7.655
 7651POPC   C1B28651  10.693  23.457   8.555
 7651POPC   C2B28652  10.691  23.476   8.255
 7651POPC   C3B28653  10.665  23.480   7.955
 7651POPC   C4B28654  10.664  23.480   7.655
 7652POPC   NC328655  24.460   8.933   9.455
 7652POPC   PO428656  24.503   9.020   9.155
 7652POPC   GL128657  24.466   8.957   8.855
 7652POPC   GL228658  24.602   9.007   8.855
 7652POPC   C1A28659  24.471   8.957   8.555
 7652POPC   D2A28660  24.529   8.963   8.255
 7652POPC   C3A28661  24.512   8.928   7.955
 7652POPC   C4A28662  24.517   8.989   7.655
 7652POPC   C1B28663  24.738   9.102   8.555
 7652POPC   C2B28664  24.654   9.091   8.255
 7652POPC   C3B28665  24.663   9.101   7.955
 7652POPC   C4B28666  24.748   9.139   7.655
 7653POPC   NC328667  43.070   8.960   9.455
 7653POPC   PO428668  43.104   8.988   9.155
 7653POPC   GL128669  43.077   8.995   8.855
 7653POPC   GL228670  43.179   9.042   8.855
 7653POPC   C1A28671  43.105   8.999   8.555
 7653POPC   D2A28672  43.151   8.933   8.255
 7653POPC   C3A28673  43.096   8.945   7.955
 7653POPC   C4A28674  43.128   8.984   7.655
 7653POPC   C1B28675  43.301   9.127   8.555
 7653POPC   C2B28676  43.280   9.088   8.255
 7653POPC   C3B28677  43.337   9.161   7.955
 7653POPC   C4B28678  43.286   9.091   7.655
 7654POPC   NC328679  27.578   9.779   9.455
 7654POPC   PO428680  27.570   9.768   9.155
 7654POPC   GL128681  27.606   9.722   8.855
 7654POPC   GL228682  27.529   9.829   8.855
 7654POPC   C1A28683  27.643   9.739   8.555
 7654POPC   D2A28684  27.557   9.780   8.255
 7654POPC   C3A28685  27.634   9.729   7.955
 7654POPC   C4A28686  27.607   9.707   7.655
 7654POPC   C1B28687  27.542   9.939   8.555
 7654POPC   C2B28688  27.522   9.974   8.255
 7654POPC   C3B28689  27.511   9.982   7.955
 7654POPC   C4B28690  27.504  10.005   7.655
 7655POPC   NC328691   2.751  12.064   9.455
 7655POPC   PO428692   2.770  12.093   9.155
 7655POPC   GL128693   2.743  12.116   8.855
 7655POPC   GL228694   2.716  11.944   8.855
 7655POPC   C1A28695   2.723  12.048   8.555
 7655POPC   D2A28696   2.774  12.030   8.255
 7655POPC   C3A28697   2.813  12.061   7.955
 7655POPC   C4A28698   2.763  12.067   7.655
 7655POPC   C1B28699   2.718  11.880   8.555
 7655POPC   C2B28700   2.702  11.821   8.255
 7655POPC   C3B28701   2.739  11.862   7.955
 7655POPC   C4B28702   2.688  11.858   7.655
 7656POPC   NC328703  18.250   9.705   9.455
 7656POPC   PO428704  18.242   9.747   9.155
 7656POPC   GL128705  18.252   9.795   8.855
 7656POPC   GL228706  18.166   9.750   8.855
 7656POPC   C1A28707  18.260   9.724   8.555
 7656POPC   D2A28708  18.237   9.760   8.255
 7656POPC   C3A28709  18.316   9.775   7.955
 7656POPC   C4A28710  18.286   9.743   7.655
 7656POPC   C1B28711  18.030   9.674   8.555
 7656POPC   C2B28712  18.001   9.704   8.255
 7656POPC   C3B28713  18.058   9.746   7.955
 7656POPC   C4B28714  18.071   9.684   7.655
 7657POPC   NC328715  19.095  10.487   9.455
 7657POPC   PO428716  19.091  10.571   9.155
 7657POPC   GL128717  19.021  10.549   8.855
 7657POPC   GL228718  19.150  10.519   8.855
 7657POPC   C1A28719  19.069  10.483   8.555
 7657POPC   D2A28720  19.055  10.529   8.255
 7657POPC   C3A28721  19.097  10.509   7.955
 7657POPC   C4A28722  19.074  10.539   7.655
 7657POPC   C1B28723  19.279  10.652   8.555
 7657POPC   C2B28724  19.283  10.607   8.255
 7657POPC   C3B28725  19.339  10.564   7.955
 7657POPC   C4B28726  19.254  10.592   7.655
 7658POPC   NC328727  19.803  39.191   9.455
 7658POPC   PO428728  19.803  39.187   9.155
 7658POPC   GL128729  19.835  39.231   8.855
 7658POPC   GL228730  19.825  39.067   8.855
 7658POPC   C1A28731  19.807  39.242   8.555
 7658POPC   D2A28732  19.873  39.217   8.255
 7658POPC   C3A28733  19.817  39.217   7.955
 7658POPC   C4A28734  19.845  39.255   7.655
 7658POPC   C1B28735  19.797  38.966   8.555
 7658POPC   C2B28736  19.866  39.023   8.255
 7658POPC   C3B28737  19.805  38.935   7.955
 7658POPC   C4B28738  19.865  38.939   7.655
 7659POPC   NC328739  38.440  13.599   9.455
 7659POPC   PO428740  38.437  13.673   9.155
 7659POPC   GL128741  38.464  13.667   8.855
 7659POPC   GL228742  38.447  13.713   8.855
 7659POPC   C1A28743  38.409  13.581   8.555
 7659POPC   D2A28744  38.440  13.644   8.255
 7659POPC   C3A28745  38.474  13.650   7.955
 7659POPC   C4A28746  38.486  13.635   7.655
 7659POPC   C1B28747  38.362  13.817   8.555
 7659POPC   C2B28748  38.346  13.852   8.255
 7659POPC   C3B28749  38.390  13.892   7.955
 7659POPC   C4B28750  38.351  13.865   7.655
 7660POPC   NC328751  29.145   8.217   9.455
 7660POPC   PO428752  29.168   8.207   9.155
 7660POPC   GL128753  29.107   8.174   8.855
 7660POPC   GL228754  29.053   8.145   8.855
 7660POPC   C1A28755  29.143   8.170   8.555
 7660POPC   D2A28756  29.191   8.207   8.255
 7660POPC   C3A28757  29.180   8.178   7.955
 7660POPC   C4A28758  29.140   8.234   7.655
 7660POPC   C1B28759  29.004   8.003   8.555
 7660POPC   C2B28760  29.003   8.072   8.255
 7660POPC   C3B28761  28.961   8.028   7.955
 7660POPC   C4B28762  28.957   7.984   7.655
 7661POPC   NC328763  43.865   8.166   9.455
 7661POPC   PO428764  43.875   8.226   9.155
 7661POPC   GL128765  43.853   8.221   8.855
 7661POPC   GL228766  44.005   8.234   8.855
 7661POPC   C1A28767  43.854   8.171   8.555
 7661POPC   D2A28768  43.870   8.211   8.255
 7661POPC   C3A28769  43.874   8.225   7.955
 7661POPC   C4A28770  43.888   8.154   7.655
 7661POPC   C1B28771  44.124   8.277   8.555
 7661POPC   C2B28772  44.144   8.287   8.255
 7661POPC   C3B28773  44.083   8.252   7.955
 7661POPC   C4B28774  44.141   8.230   7.655
 7662POPC   NC328775  43.914  32.283   9.455
 7662POPC   PO428776  43.837  32.293   9.155
 7662POPC   GL128777  43.919  32.226   8.855
 7662POPC   GL228778  43.815  32.392   8.855
 7662POPC   C1A28779  43.839  32.212   8.555
 7662POPC   D2A28780  43.855  32.267   8.255
 7662POPC   C3A28781  43.875  32.207   7.955
 7662POPC   C4A28782  43.893  32.220   7.655
 7662POPC   C1B28783  43.807  32.517   8.555
 7662POPC   C2B28784  43.763  32.477   8.255
 7662POPC   C3B28785  43.834  32.480   7.955
 7662POPC   C4B28786  43.796  32.494   7.655
 7663POPC   NC328787  38.503  10.548   9.455
 7663POPC   PO428788  38.492  10.509   9.155
 7663POPC   GL128789  38.448  10.486   8.855
 7663POPC   GL228790  38.287  10.453   8.855
 7663POPC   C1A28791  38.425  10.509   8.555
 7663POPC   D2A28792  38.463  10.495   8.255
 7663POPC   C3A28793  38.422  10.548   7.955
 7663POPC   C4A28794  38.443  10.481   7.655
 7663POPC   C1B28795  38.169  10.481   8.555
 7663POPC   C2B28796  38.261  10.413   8.255
 7663POPC   C3B28797  38.258  10.441   7.955
 7663POPC   C4B28798  38.172  10.447   7.655
 7664POPC   NC328799   9.784  24.446   9.455
 7664POPC   PO428800   9.744  24.440   9.155
 7664POPC   GL128801   9.798  24.522   8.855
 7664POPC   GL228802   9.683  24.395   8.855
 7664POPC   C1A28803   9.794  24.523   8.555
 7664POPC   D2A28804   9.719  24.456   8.255
 7664POPC   C3A28805   9.764  24.532   7.955
 7664POPC   C4A28806   9.749  24.480   7.655
 7664POPC   C1B28807   9.666  24.247   8.555
 7664POPC   C2B28808   9.664  24.306   8.255
 7664POPC   C3B28809   9.588  24.280   7.955
 7664POPC   C4B28810   9.622  24.288   7.655
 7665POPC   NC328811  17.514   9.018   9.455
 7665POPC   PO428812  17.458   8.929   9.155
 7665POPC   GL128813  17.537   9.016   8.855
 7665POPC   GL228814  17.633   8.973   8.855
 7665POPC   C1A28815  17.510   8.964   8.555
 7665POPC   D2A28816  17.478   9.013   8.255
 7665POPC   C3A28817  17.474   8.941   7.955
 7665POPC   C4A28818  17.521   8.994   7.655
 7665POPC   C1B28819  17.701   9.048   8.555
 7665POPC   C2B28820  17.747   9.071   8.255
 7665POPC   C3B28821  17.767   9.071   7.955
 7665POPC   C4B28822  17.736   9.079   7.655
 7666POPC   NC328823  26.794  15.995   9.455
 7666POPC   PO428824  26.769  15.936   9.155
 7666POPC   GL128825  26.843  15.973   8.855
 7666POPC   GL228826  26.765  15.806   8.855
 7666POPC   C1A28827  26.831  15.939   8.555
 7666POPC   D2A28828  26.819  15.959   8.255
 7666POPC   C3A28829  26.777  15.958   7.955
 7666POPC   C4A28830  26.820  15.916   7.655
 7666POPC   C1B28831  26.729  15.737   8.555
 7666POPC   C2B28832  26.797  15.751   8.255
 7666POPC   C3B28833  26.799  15.749   7.955
 7666POPC   C4B28834  26.786  15.750   7.655
 7667POPC   NC328835  15.189  38.419   9.455
 7667POPC   PO428836  15.133  38.434   9.155
 7667POPC   GL128837  15.223  38.461   8.855
 7667POPC   GL228838  15.114  38.557   8.855
 7667POPC   C1A28839  15.195  38.434   8.555
 7667POPC   D2A28840  15.216  38.420   8.255
 7667POPC   C3A28841  15.186  38.406   7.955
 7667POPC   C4A28842  15.168  38.440   7.655
 7667POPC   C1B28843  14.985  38.581   8.555
 7667POPC   C2B28844  15.000  38.557   8.255
 7667POPC   C3B28845  14.922  38.619   7.955
 7667POPC   C4B28846  14.923  38.547   7.655
 7668POPC   NC328847   3.515  40.031   9.455
 7668POPC   PO428848   3.526  40.012   9.155
 7668POPC   GL128849   3.589  40.010   8.855
 7668POPC   GL228850   3.653  39.989   8.855
 7668POPC   C1A28851   3.536  39.958   8.555
 7668POPC   D2A28852   3.520  40.045   8.255
 7668POPC   C3A28853   3.579  40.056   7.955
 7668POPC   C4A28854   3.585  39.986   7.655
 7668POPC   C1B28855   3.752  40.092   8.555
 7668POPC   C2B28856   3.816  40.115   8.255
 7668POPC   C3B28857   3.785  40.102   7.955
 7668POPC   C4B28858   3.737  40.115   7.655
 7669POPC   NC328859  22.979  32.230   9.455
 7669POPC   PO428860  22.898  32.229   9.155
 7669POPC   GL128861  22.986  32.270   8.855
 7669POPC   GL228862  22.980  32.193   8.855
 7669POPC   C1A28863  22.985  32.225   8.555
 7669POPC   D2A28864  22.978  32.254   8.255
 7669POPC   C3A28865  22.929  32.208   7.955
 7669POPC   C4A28866  22.979  32.284   7.655
 7669POPC   C1B28867  23.143  32.047   8.555
 7669POPC   C2B28868  23.086  32.121   8.255
 7669POPC   C3B28869  23.102  32.098   7.955
 7669POPC   C4B28870  23.151  32.095   7.655
 7670POPC   NC328871  36.103  14.373   9.455
 7670POPC   PO428872  36.081  14.397   9.155
 7670POPC   GL128873  36.166  14.374   8.855
 7670POPC   GL228874  36.075  14.244   8.855
 7670POPC   C1A28875  36.097  14.447   8.555
 7670POPC   D2A28876  36.159  14.427   8.255
 7670POPC   C3A28877  36.144  14.438   7.955
 7670POPC   C4A28878  36.100  14.376   7.655
 7670POPC   C1B28879  36.016  14.175   8.555
 7670POPC   C2B28880  36.027  14.117   8.255
 7670POPC   C3B28881  36.100  14.179   7.955
 7670POPC   C4B28882  36.111  14.179   7.655
 7671POPC   NC328883  18.274  11.317   9.455
 7671POPC   PO428884  18.253  11.263   9.155
 7671POPC   GL128885  18.305  11.259   8.855
 7671POPC   GL228886  18.143  11.390   8.855
 7671POPC   C1A28887  18.233  11.335   8.555
 7671POPC   D2A28888  18.283  11.252   8.255
 7671POPC   C3A28889  18.263  11.324   7.955
 7671POPC   C4A28890  18.295  11.316   7.655
 7671POPC   C1B28891  18.101  11.355   8.555
 7671POPC   C2B28892  18.035  11.373   8.255
 7671POPC   C3B28893  18.085  11.379   7.955
 7671POPC   C4B28894  18.070  11.386   7.655
 7672POPC   NC328895  41.583  17.555   9.455
 7672POPC   PO428896  41.581  17.501   9.155
 7672POPC   GL128897  41.586  17.497   8.855
 7672POPC   GL228898  41.673  17.600   8.855
 7672POPC   C1A28899  41.586  17.494   8.555
 7672POPC   D2A28900  41.579  17.493   8.255
 7672POPC   C3A28901  41.598  17.530   7.955
 7672POPC   C4A28902  41.571  17.458   7.655
 7672POPC   C1B28903  41.757  17.571   8.555
 7672POPC   C2B28904  41.754  17.555   8.255
 7672POPC   C3B28905  41.744  17.586   7.955
 7672POPC   C4B28906  41.747  17.562   7.655
 7673POPC   NC328907  35.394  27.578   9.455
 7673POPC   PO428908  35.355  27.552   9.155
 7673POPC   GL128909  35.306  27.578   8.855
 7673POPC   GL228910  35.387  27.668   8.855
 7673POPC   C1A28911  35.368  27.561   8.555
 7673POPC   D2A28912  35.388  27.604   8.255
 7673POPC   C3A28913  35.339  27.603   7.955
 7673POPC   C4A28914  35.392  27.570   7.655
 7673POPC   C1B28915  35.292  27.794   8.555
 7673POPC   C2B28916  35.306  27.838   8.255
 7673POPC   C3B28917  35.301  27.795   7.955
 7673POPC   C4B28918  35.302  27.832   7.655
 7674POPC   NC328919  27.578  39.995   9.455
 7674POPC   PO428920  27.642  40.007   9.155
 7674POPC   GL128921  27.595  40.007   8.855
 7674POPC   GL228922  27.475  40.097   8.855
 7674POPC   C1A28923  27.592  40.029   8.555
 7674POPC   D2A28924  27.565  39.973   8.255
 7674POPC   C3A28925  27.572  40.009   7.955
 7674POPC   C4A28926  27.587  39.990   7.655
 7674POPC   C1B28927  27.366  40.118   8.555
 7674POPC   C2B28928  27.339  40.146   8.255
 7674POPC   C3B28929  27.415  40.122   7.955
 7674POPC   C4B28930  27.412  40.172   7.655
 7675POPC   NC328931  12.104  17.503   9.455
 7675POPC   PO428932  12.065  17.476   9.155
 7675POPC   GL128933  12.053  17.475   8.855
 7675POPC   GL228934  12.105  17.590   8.855
 7675POPC   C1A28935  12.030  17.540   8.555
 7675POPC   D2A28936  12.091  17.553   8.255
 7675POPC   C3A28937  12.091  17.494   7.955
 7675POPC   C4A28938  12.034  17.483   7.655
 7675POPC   C1B28939  12.067  17.795   8.555
 7675POPC   C2B28940  12.113  17.717   8.255
 7675POPC   C3B28941  12.093  17.767   7.955
 7675POPC   C4B28942  12.091  17.751   7.655
 7676POPC   NC328943  35.317  40.013   9.455
 7676POPC   PO428944  35.391  39.965   9.155
 7676POPC   GL128945  35.380  39.986   8.855
 7676POPC   GL228946  35.241  39.996   8.855
 7676POPC   C1A28947  35.312  40.007   8.555
 7676POPC   D2A28948  35.388  40.027   8.255
 7676POPC   C3A28949  35.375  39.982   7.955
 7676POPC   C4A28950  35.360  39.982   7.655
 7676POPC   C1B28951  35.166  39.877   8.555
 7676POPC   C2B28952  35.084  39.884   8.255
 7676POPC   C3B28953  35.157  39.904   7.955
 7676POPC   C4B28954  35.085  39.911   7.655
 7677POPC   NC328955  19.048  17.548   9.455
 7677POPC   PO428956  19.024  17.531   9.155
 7677POPC   GL128957  19.031  17.508   8.855
 7677POPC   GL228958  19.160  17.604   8.855
 7677POPC   C1A28959  19.076  17.536   8.555
 7677POPC   D2A28960  19.081  17.505   8.255
 7677POPC   C3A28961  19.019  17.538   7.955
 7677POPC   C4A28962  19.068  17.531   7.655
 7677POPC   C1B28963  19.227  17.722   8.555
 7677POPC   C2B28964  19.151  17.680   8.255
 7677POPC   C3B28965  19.246  17.716   7.955
 7677POPC   C4B28966  19.185  17.739   7.655
 7678POPC   NC328967  34.556   0.449   9.455
 7678POPC   PO428968  34.621   0.445   9.155
 7678POPC   GL128969  34.546   0.461   8.855
 7678POPC   GL228970  34.642   0.305   8.855
 7678POPC   C1A28971  34.610   0.482   8.555
 7678POPC   D2A28972  34.532   0.487   8.255
 7678POPC   C3A28973  34.561   0.443   7.955
 7678POPC   C4A28974  34.531   0.405   7.655
 7678POPC   C1B28975  34.722   0.244   8.555
 7678POPC   C2B28976  34.810   0.317   8.255
 7678POPC   C3B28977  34.754   0.308   7.955
 7678POPC   C4B28978  34.799   0.234   7.655
 7679POPC   NC328979   5.870   8.178   9.455
 7679POPC   PO428980   5.874   8.214   9.155
 7679POPC   GL128981   5.913   8.208   8.855
 7679POPC   GL228982   5.881   8.352   8.855
 7679POPC   C1A28983   5.838   8.195   8.555
 7679POPC   D2A28984   5.890   8.211   8.255
 7679POPC   C3A28985   5.891   8.174   7.955
 7679POPC   C4A28986   5.840   8.236   7.655
 7679POPC   C1B28987   5.925   8.418   8.555
 7679POPC   C2B28988   5.901   8.421   8.255
 7679POPC   C3B28989   5.933   8.487   7.955
 7679POPC   C4B28990   5.968   8.393   7.655
 7680POPC   NC328991  39.241  30.653   9.455
 7680POPC   PO428992  39.188  30.737   9.155
 7680POPC   GL128993  39.191  30.709   8.855
 7680POPC   GL228994  39.181  30.563   8.855
 7680POPC   C1A28995  39.256  30.744   8.555
 7680POPC   D2A28996  39.269  30.740   8.255
 7680POPC   C3A28997  39.259  30.694   7.955
 7680POPC   C4A28998  39.197  30.724   7.655
 7680POPC   C1B28999  39.121  30.466   8.555
 7680POPC   C2B29000  39.134  30.485   8.255
 7680POPC   C3B29001  39.142  30.437   7.955
 7680POPC   C4B29002  39.193  30.482   7.655
 7681POPC   NC329003  42.308  36.138   9.455
 7681POPC   PO429004  42.313  36.128   9.155
 7681POPC   GL129005  42.330  36.124   8.855
 7681POPC   GL229006  42.205  36.182   8.855
 7681POPC   C1A29007  42.363  36.129   8.555
 7681POPC   D2A29008  42.382  36.101   8.255
 7681POPC   C3A29009  42.332  36.125   7.955
 7681POPC   C4A29010  42.292  36.170   7.655
 7681POPC   C1B29011  42.180  36.303   8.555
 7681POPC   C2B29012  42.106  36.240   8.255
 7681POPC   C3B29013  42.103  36.289   7.955
 7681POPC   C4B29014  42.174  36.260   7.655
 7682POPC   NC329015  36.132  22.895   9.455
 7682POPC   PO429016  36.177  22.903   9.155
 7682POPC   GL129017  36.122  22.911   8.855
 7682POPC   GL229018  36.192  22.989   8.855
 7682POPC   C1A29019  36.115  22.935   8.555
 7682POPC   D2A29020  36.079  22.978   8.255
 7682POPC   C3A29021  36.097  22.950   7.955
 7682POPC   C4A29022  36.153  22.928   7.655
 7682POPC   C1B29023  36.283  23.119   8.555
 7682POPC   C2B29024  36.240  23.154   8.255
 7682POPC   C3B29025  36.326  23.096   7.955
 7682POPC   C4B29026  36.232  23.161   7.655
 7683POPC   NC329027   2.001  10.502   9.455
 7683POPC   PO429028   1.953  10.496   9.155
 7683POPC   GL129029   1.973  10.548   8.855
 7683POPC   GL229030   2.045  10.575   8.855
 7683POPC   C1A29031   1.994  10.533   8.555
 7683POPC   D2A29032   1.974  10.481   8.255
 7683POPC   C3A29033   2.031  10.558   7.955
 7683POPC   C4A29034   1.987  10.476   7.655
 7683POPC   C1B29035   2.170  10.684   8.555
 7683POPC   C2B29036   2.150  10.714   8.255
 7683POPC   C3B29037   2.170  10.717   7.955
 7683POPC   C4B29038   2.207  10.749   7.655
 7684POPC   NC329039  29.935  16.753   9.455
 7684POPC   PO429040  29.904  16.732   9.155
 7684POPC   GL129041  29.956  16.717   8.855
 7684POPC   GL229042  29.970  16.588   8.855
 7684POPC   C1A29043  29.887  16.776   8.555
 7684POPC   D2A29044  29.879  16.691   8.255
 7684POPC   C3A29045  29.883  16.705   7.955
 7684POPC   C4A29046  29.922  16.754   7.655
 7684POPC   C1B29047  29.951  16.529   8.555
 7684POPC   C2B29048  29.909  16.503   8.255
 7684POPC   C3B29049  29.909  16.476   7.955
 7684POPC   C4B29050  29.922  16.489   7.655
 7685POPC   NC329051  17.523   7.463   9.455
 7685POPC   PO429052  17.480   7.383   9.155
 7685POPC   GL129053  17.503   7.457   8.855
 7685POPC   GL229054  17.571   7.335   8.855
 7685POPC   C1A29055  17.510   7.425   8.555
 7685POPC   D2A29056  17.459   7.404   8.255
 7685POPC   C3A29057  17.490   7.415   7.955
 7685POPC   C4A29058  17.519   7.401   7.655
 7685POPC   C1B29059  17.701   7.277   8.555
 7685POPC   C2B29060  17.666   7.286   8.255
 7685POPC   C3B29061  17.724   7.309   7.955
 7685POPC   C4B29062  17.740   7.244   7.655
 7686POPC   NC329063  12.893  28.409   9.455
 7686POPC   PO429064  12.819  28.400   9.155
 7686POPC   GL129065  12.867  28.412   8.855
 7686POPC   GL229066  12.938  28.283   8.855
 7686POPC   C1A29067  12.804  28.346   8.555
 7686POPC   D2A29068  12.878  28.392   8.255
 7686POPC   C3A29069  12.858  28.404   7.955
 7686POPC   C4A29070  12.890  28.335   7.655
 7686POPC   C1B29071  12.966  28.139   8.555
 7686POPC   C2B29072  13.005  28.127   8.255
 7686POPC   C3B29073  12.966  28.168   7.955
 7686POPC   C4B29074  13.000  28.198   7.655
 7687POPC   NC329075  34.586  31.426   9.455
 7687POPC   PO429076  34.625  31.434   9.155
 7687POPC   GL129077  34.578  31.440   8.855
 7687POPC   GL229078  34.668  31.548   8.855
 7687POPC   C1A29079  34.552  31.510   8.555
 7687POPC   D2A29080  34.602  31.499   8.255
 7687POPC   C3A29081  34.610  31.468   7.955
 7687POPC   C4A29082  34.532  31.447   7.655
 7687POPC   C1B29083  34.752  31.616   8.555
 7687POPC   C2B29084  34.770  31.607   8.255
 7687POPC   C3B29085  34.789  31.645   7.955
 7687POPC   C4B29086  34.810  31.587   7.655
 7688POPC   NC329087  22.937  17.484   9.455
 7688POPC   PO429088  22.958  17.546   9.155
 7688POPC   GL129089  22.939  17.524   8.855
 7688POPC   GL229090  23.049  17.568   8.855
 7688POPC   C1A29091  22.954  17.515   8.555
 7688POPC   D2A29092  22.976  17.478   8.255
 7688POPC   C3A29093  22.957  17.533   7.955
 7688POPC   C4A29094  22.970  17.479   7.655
 7688POPC   C1B29095  23.098  17.688   8.555
 7688POPC   C2B29096  23.146  17.642   8.255
 7688POPC   C3B29097  23.164  17.672   7.955
 7688POPC   C4B29098  23.109  17.660   7.655
 7689POPC   NC329099  14.376  27.611   9.455
 7689POPC   PO429100  14.423  27.549   9.155
 7689POPC   GL129101  14.371  27.569   8.855
 7689POPC   GL229102  14.478  27.755   8.855
 7689POPC   C1A29103  14.414  27.643   8.555
 7689POPC   D2A29104  14.384  27.620   8.255
 7689POPC   C3A29105  14.394  27.578   7.955
 7689POPC   C4A29106  14.433  27.637   7.655
 7689POPC   C1B29107  14.464  27.794   8.555
 7689POPC   C2B29108  14.508  27.822   8.255
 7689POPC   C3B29109  14.487  27.790   7.955
 7689POPC   C4B29110  14.454  27.792   7.655
 7690POPC   NC329111  43.905  12.111   9.455
 7690POPC   PO429112  43.852  12.087   9.155
 7690POPC   GL129113  43.924  12.081   8.855
 7690POPC   GL229114  43.951  12.152   8.855
 7690POPC   C1A29115  43.892  12.112   8.555
 7690POPC   D2A29116  43.855  12.099   8.255
 7690POPC   C3A29117  43.916  12.080   7.955
 7690POPC   C4A29118  43.915  12.054   7.655
 7690POPC   C1B29119  44.052  12.175   8.555
 7690POPC   C2B29120  44.114  12.187   8.255
 7690POPC   C3B29121  44.113  12.181   7.955
 7690POPC   C4B29122  44.086  12.221   7.655
 7691POPC   NC329123   8.996  30.691   9.455
 7691POPC   PO429124   8.974  30.648   9.155
 7691POPC   GL129125   9.017  30.687   8.855
 7691POPC   GL229126   8.887  30.835   8.855
 7691POPC   C1A29127   8.938  30.679   8.555
 7691POPC   D2A29128   8.950  30.671   8.255
 7691POPC   C3A29129   8.948  30.688   7.955
 7691POPC   C4A29130   9.000  30.742   7.655
 7691POPC   C1B29131   8.844  30.907   8.555
 7691POPC   C2B29132   8.821  30.893   8.255
 7691POPC   C3B29133   8.818  30.962   7.955
 7691POPC   C4B29134   8.861  30.903   7.655
 7692POPC   NC329135   9.737   0.479   9.455
 7692POPC   PO429136   9.781   0.473   9.155
 7692POPC   GL129137   9.782   0.435   8.855
 7692POPC   GL229138   9.887   0.448   8.855
 7692POPC   C1A29139   9.768   0.487   8.555
 7692POPC   D2A29140   9.797   0.426   8.255
 7692POPC   C3A29141   9.787   0.409   7.955
 7692POPC   C4A29142   9.775   0.405   7.655
 7692POPC   C1B29143   9.960   0.486   8.555
 7692POPC   C2B29144   9.953   0.455   8.255
 7692POPC   C3B29145   9.959   0.493   7.955
 7692POPC   C4B29146   9.992   0.500   7.655
 7693POPC   NC329147  27.556  29.121   9.455
 7693POPC   PO429148  27.610  29.184   9.155
 7693POPC   GL129149  27.607  29.161   8.855
 7693POPC   GL229150  27.599  29.265   8.855
 7693POPC   C1A29151  27.634  29.113   8.555
 7693POPC   D2A29152  27.624  29.166   8.255
 7693POPC   C3A29153  27.565  29.133   7.955
 7693POPC   C4A29154  27.579  29.141   7.655
 7693POPC   C1B29155  27.535  29.351   8.555
 7693POPC   C2B29156  27.535  29.436   8.255
 7693POPC   C3B29157  27.599  29.356   7.955
 7693POPC   C4B29158  27.572  29.400   7.655
 7694POPC   NC329159   8.957  40.805   9.455
 7694POPC   PO429160   9.021  40.742   9.155
 7694POPC   GL129161   8.995  40.760   8.855
 7694POPC   GL229162   8.960  40.953   8.855
 7694POPC   C1A29163   8.928  40.804   8.555
 7694POPC   D2A29164   9.013  40.765   8.255
 7694POPC   C3A29165   8.994  40.773   7.955
 7694POPC   C4A29166   9.020  40.775   7.655
 7694POPC   C1B29167   8.950  41.044   8.555
 7694POPC   C2B29168   8.881  41.027   8.255
 7694POPC   C3B29169   8.964  41.059   7.955
 7694POPC   C4B29170   8.883  41.019   7.655
 7695POPC   NC329171  17.514  24.479   9.455
 7695POPC   PO429172  17.503  24.447   9.155
 7695POPC   GL129173  17.503  24.513   8.855
 7695POPC   GL229174  17.586  24.417   8.855
 7695POPC   C1A29175  17.531  24.521   8.555
 7695POPC   D2A29176  17.521  24.462   8.255
 7695POPC   C3A29177  17.526  24.501   7.955
 7695POPC   C4A29178  17.515  24.492   7.655
 7695POPC   C1B29179  17.760  24.462   8.555
 7695POPC   C2B29180  17.714  24.469   8.255
 7695POPC   C3B29181  17.697  24.446   7.955
 7695POPC   C4B29182  17.733  24.433   7.655
 7696POPC   NC329183   4.312  38.466   9.455
 7696POPC   PO429184   4.315  38.457   9.155
 7696POPC   GL129185   4.353  38.505   8.855
 7696POPC   GL229186   4.460  38.416   8.855
 7696POPC   C1A29187   4.279  38.479   8.555
 7696POPC   D2A29188   4.310  38.428   8.255
 7696POPC   C3A29189   4.321  38.452   7.955
 7696POPC   C4A29190   4.345  38.463   7.655
 7696POPC   C1B29191   4.572  38.459   8.555
 7696POPC   C2B29192   4.609  38.475   8.255
 7696POPC   C3B29193   4.595  38.395   7.955
 7696POPC   C4B29194   4.528  38.403   7.655
 7697POPC   NC329195  20.562   9.729   9.455
 7697POPC   PO429196  20.562   9.770   9.155
 7697POPC   GL129197  20.638   9.748   8.855
 7697POPC   GL229198  20.758   9.699   8.855
 7697POPC   C1A29199  20.598   9.721   8.555
 7697POPC   D2A29200  20.612   9.765   8.255
 7697POPC   C3A29201  20.571   9.789   7.955
 7697POPC   C4A29202  20.561   9.715   7.655
 7697POPC   C1B29203  20.878   9.696   8.555
 7697POPC   C2B29204  20.892   9.744   8.255
 7697POPC   C3B29205  20.884   9.738   7.955
 7697POPC   C4B29206  20.896   9.708   7.655
 7698POPC   NC329207  28.378  27.633   9.455
 7698POPC   PO429208  28.330  27.637   9.155
 7698POPC   GL129209  28.338  27.584   8.855
 7698POPC   GL229210  28.334  27.512   8.855
 7698POPC   C1A29211  28.404  27.639   8.555
 7698POPC   D2A29212  28.392  27.560   8.255
 7698POPC   C3A29213  28.380  27.591   7.955
 7698POPC   C4A29214  28.378  27.589   7.655
 7698POPC   C1B29215  28.304  27.372   8.555
 7698POPC   C2B29216  28.278  27.355   8.255
 7698POPC   C3B29217  28.296  27.304   7.955
 7698POPC   C4B29218  28.279  27.311   7.655
 7699POPC   NC329219  44.637  35.346   9.455
 7699POPC   PO429220  44.653  35.356   9.155
 7699POPC   GL129221  44.661  35.384   8.855
 7699POPC   GL229222  44.721  35.216   8.855
 7699POPC   C1A29223  44.691  35.382   8.555
 7699POPC   D2A29224  44.665  35.355   8.255
 7699POPC   C3A29225  44.667  35.318   7.955
 7699POPC   C4A29226  44.628  35.310   7.655
 7699POPC   C1B29227  44.736  35.125   8.555
 7699POPC   C2B29228  44.724  35.104   8.255
 7699POPC   C3B29229  44.759  35.097   7.955
 7699POPC   C4B29230  44.731  35.097   7.655
 7700POPC   NC329231  29.895   7.459   9.455
 7700POPC   PO429232  29.917   7.446   9.155
 7700POPC   GL129233  29.920   7.390   8.855
 7700POPC   GL229234  29.915   7.319   8.855
 7700POPC   C1A29235  29.941   7.465   8.555
 7700POPC   D2A29236  29.901   7.468   8.255
 7700POPC   C3A29237  29.924   7.437   7.955
 7700POPC   C4A29238  29.946   7.416   7.655
 7700POPC   C1B29239  30.030   7.225   8.555
 7700POPC   C2B29240  29.962   7.205   8.255
 7700POPC   C3B29241  30.007   7.186   7.955
 7700POPC   C4B29242  30.006   7.204   7.655
 7701POPC   NC329243   3.537   9.792   9.455
 7701POPC   PO429244   3.511   9.726   9.155
 7701POPC   GL129245   3.550   9.751   8.855
 7701POPC   GL229246   3.497   9.590   8.855
 7701POPC   C1A29247   3.497   9.746   8.555
 7701POPC   D2A29248   3.566   9.744   8.255
 7701POPC   C3A29249   3.533   9.710   7.955
 7701POPC   C4A29250   3.549   9.736   7.655
 7701POPC   C1B29251   3.476   9.466   8.555
 7701POPC   C2B29252   3.478   9.484   8.255
 7701POPC   C3B29253   3.477   9.494   7.955
 7701POPC   C4B29254   3.486   9.514   7.655
 7702POPC   NC329255  19.072   9.763   9.455
 7702POPC   PO429256  19.039   9.745   9.155
 7702POPC   GL129257  19.034   9.729   8.855
 7702POPC   GL229258  19.133   9.595   8.855
 7702POPC   C1A29259  19.018   9.746   8.555
 7702POPC   D2A29260  19.029   9.734   8.255
 7702POPC   C3A29261  19.024   9.704   7.955
 7702POPC   C4A29262  19.010   9.798   7.655
 7702POPC   C1B29263  19.174   9.531   8.555
 7702POPC   C2B29264  19.192   9.497   8.255
 7702POPC   C3B29265  19.123   9.556   7.955
 7702POPC   C4B29266  19.122   9.547   7.655
 7703POPC   NC329267  12.119  39.247   9.455
 7703POPC   PO429268  12.093  39.224   9.155
 7703POPC   GL129269  12.093  39.220   8.855
 7703POPC   GL229270  12.024  39.369   8.855
 7703POPC   C1A29271  12.083  39.238   8.555
 7703POPC   D2A29272  12.071  39.259   8.255
 7703POPC   C3A29273  12.030  39.266   7.955
 7703POPC   C4A29274  12.049  39.279   7.655
 7703POPC   C1B29275  11.971  39.442   8.555
 7703POPC   C2B29276  11.982  39.478   8.255
 7703POPC   C3B29277  11.958  39.489   7.955
 7703POPC   C4B29278  11.903  39.484   7.655
 7704POPC   NC329279  20.635  31.476   9.455
 7704POPC   PO429280  20.623  31.436   9.155
 7704POPC   GL129281  20.594  31.487   8.855
 7704POPC   GL229282  20.682  31.642   8.855
 7704POPC   C1A29283  20.626  31.497   8.555
 7704POPC   D2A29284  20.579  31.460   8.255
 7704POPC   C3A29285  20.629  31.477   7.955
 7704POPC   C4A29286  20.612  31.441   7.655
 7704POPC   C1B29287  20.631  31.716   8.555
 7704POPC   C2B29288  20.648  31.710   8.255
 7704POPC   C3B29289  20.689  31.715   7.955
 7704POPC   C4B29290  20.681  31.677   7.655
 7705POPC   NC329291  32.224  44.696   9.455
 7705POPC   PO429292  32.281  44.711   9.155
 7705POPC   GL129293  32.219  44.624   8.855
 7705POPC   GL229294  32.163  44.789   8.855
 7705POPC   C1A29295  32.290  44.640   8.555
 7705POPC   D2A29296  32.220  44.712   8.255
 7705POPC   C3A29297  32.281  44.658   7.955
 7705POPC   C4A29298  32.205  44.627   7.655
 7705POPC   C1B29299  32.092  44.850   8.555
 7705POPC   C2B29300  32.019  44.791   8.255
 7705POPC   C3B29301  32.075  44.780   7.955
 7705POPC   C4B29302  32.036  44.805   7.655
 7706POPC   NC329303  15.206   7.455   9.455
 7706POPC   PO429304  15.140   7.427   9.155
 7706POPC   GL129305  15.168   7.410   8.855
 7706POPC   GL229306  15.055   7.321   8.855
 7706POPC   C1A29307  15.188   7.463   8.555
 7706POPC   D2A29308  15.172   7.454   8.255
 7706POPC   C3A29309  15.217   7.417   7.955
 7706POPC   C4A29310  15.168   7.400   7.655
 7706POPC   C1B29311  14.909   7.342   8.555
 7706POPC   C2B29312  14.909   7.311   8.255
 7706POPC   C3B29313  14.964   7.290   7.955
 7706POPC   C4B29314  14.987   7.277   7.655
 7707POPC   NC329315  14.366  19.023   9.455
 7707POPC   PO429316  14.369  19.038   9.155
 7707POPC   GL129317  14.362  19.076   8.855
 7707POPC   GL229318  14.492  19.203   8.855
 7707POPC   C1A29319  14.353  19.036   8.555
 7707POPC   D2A29320  14.357  19.077   8.255
 7707POPC   C3A29321  14.391  19.055   7.955
 7707POPC   C4A29322  14.415  19.040   7.655
 7707POPC   C1B29323  14.512  19.239   8.555
 7707POPC   C2B29324  14.515  19.298   8.255
 7707POPC   C3B29325  14.499  19.328   7.955
 7707POPC   C4B29326  14.535  19.319   7.655
 7708POPC   NC329327  36.176   8.973   9.455
 7708POPC   PO429328  36.164   9.020   9.155
 7708POPC   GL129329  36.136   9.014   8.855
 7708POPC   GL229330  36.099   9.076   8.855
 7708POPC   C1A29331  36.141   8.944   8.555
 7708POPC   D2A29332  36.124   8.957   8.255
 7708POPC   C3A29333  36.116   9.005   7.955
 7708POPC   C4A29334  36.143   8.983   7.655
 7708POPC   C1B29335  36.045   9.146   8.555
 7708POPC   C2B29336  35.981   9.146   8.255
 7708POPC   C3B29337  36.018   9.201   7.955
 7708POPC   C4B29338  36.047   9.209   7.655
 7709POPC   NC329339  13.593   5.895   9.455
 7709POPC   PO429340  13.612   5.851   9.155
 7709POPC   GL129341  13.649   5.880   8.855
 7709POPC   GL229342  13.715   5.776   8.855
 7709POPC   C1A29343  13.633   5.831   8.555
 7709POPC   D2A29344  13.619   5.849   8.255
 7709POPC   C3A29345  13.608   5.875   7.955
 7709POPC   C4A29346  13.665   5.902   7.655
 7709POPC   C1B29347  13.790   5.691   8.555
 7709POPC   C2B29348  13.801   5.732   8.255
 7709POPC   C3B29349  13.800   5.687   7.955
 7709POPC   C4B29350  13.809   5.641   7.655
 7710POPC   NC329351   9.702  25.280   9.455
 7710POPC   PO429352   9.750  25.238   9.155
 7710POPC   GL129353   9.788  25.235   8.855
 7710POPC   GL229354   9.815  25.397   8.855
 7710POPC   C1A29355   9.707  25.244   8.555
 7710POPC   D2A29356   9.771  25.313   8.255
 7710POPC   C3A29357   9.782  25.254   7.955
 7710POPC   C4A29358   9.713  25.230   7.655
 7710POPC   C1B29359   9.836  25.478   8.555
 7710POPC   C2B29360   9.886  25.456   8.255
 7710POPC   C3B29361   9.873  25.459   7.955
 7710POPC   C4B29362   9.922  25.442   7.655
 7711POPC   NC329363   7.435   5.056   9.455
 7711POPC   PO429364   7.413   5.048   9.155
 7711POPC   GL129365   7.457   5.097   8.855
 7711POPC   GL229366   7.434   4.997   8.855
 7711POPC   C1A29367   7.418   5.066   8.555
 7711POPC   D2A29368   7.414   5.102   8.255
 7711POPC   C3A29369   7.382   5.069   7.955
 7711POPC   C4A29370   7.412   5.143   7.655
 7711POPC   C1B29371   7.490   4.826   8.555
 7711POPC   C2B29372   7.569   4.882   8.255
 7711POPC   C3B29373   7.528   4.819   7.955
 7711POPC   C4B29374   7.566   4.890   7.655
 7712POPC   NC329375   6.619   3.588   9.455
 7712POPC   PO429376   6.650   3.516   9.155
 7712POPC   GL129377   6.687   3.580   8.855
 7712POPC   GL229378   6.498   3.554   8.855
 7712POPC   C1A29379   6.656   3.540   8.555
 7712POPC   D2A29380   6.626   3.569   8.255
 7712POPC   C3A29381   6.664   3.508   7.955
 7712POPC   C4A29382   6.666   3.504   7.655
 7712POPC   C1B29383   6.430   3.629   8.555
 7712POPC   C2B29384   6.357   3.592   8.255
 7712POPC   C3B29385   6.376   3.589   7.955
 7712POPC   C4B29386   6.443   3.647   7.655
 7713POPC   NC329387  25.257  26.066   9.455
 7713POPC   PO429388  25.288  26.013   9.155
 7713POPC   GL129389  25.223  26.033   8.855
 7713POPC   GL229390  25.109  26.117   8.855
 7713POPC   C1A29391  25.240  26.003   8.555
 7713POPC   D2A29392  25.297  26.056   8.255
 7713POPC   C3A29393  25.307  26.028   7.955
 7713POPC   C4A29394  25.246  26.022   7.655
 7713POPC   C1B29395  25.085  26.141   8.555
 7713POPC   C2B29396  25.019  26.135   8.255
 7713POPC   C3B29397  25.010  26.195   7.955
 7713POPC   C4B29398  25.038  26.124   7.655
 7714POPC   NC329399  40.791  12.810   9.455
 7714POPC   PO429400  40.781  12.868   9.155
 7714POPC   GL129401  40.762  12.891   8.855
 7714POPC   GL229402  40.705  12.901   8.855
 7714POPC   C1A29403  40.784  12.877   8.555
 7714POPC   D2A29404  40.750  12.895   8.255
 7714POPC   C3A29405  40.760  12.884   7.955
 7714POPC   C4A29406  40.758  12.900   7.655
 7714POPC   C1B29407  40.520  12.938   8.555
 7714POPC   C2B29408  40.553  12.965   8.255
 7714POPC   C3B29409  40.563  12.984   7.955
 7714POPC   C4B29410  40.512  12.963   7.655
 7715POPC   NC329411  18.247   8.958   9.455
 7715POPC   PO429412  18.300   8.968   9.155
 7715POPC   GL129413  18.298   8.927   8.855
 7715POPC   GL229414  18.409   8.835   8.855
 7715POPC   C1A29415  18.330   9.011   8.555
 7715POPC   D2A29416  18.330   8.982   8.255
 7715POPC   C3A29417  18.245   9.007   7.955
 7715POPC   C4A29418  18.234   8.928   7.655
 7715POPC   C1B29419  18.477   8.789   8.555
 7715POPC   C2B29420  18.433   8.804   8.255
 7715POPC   C3B29421  18.496   8.753   7.955
 7715POPC   C4B29422  18.456   8.766   7.655
 7716POPC   NC329423  10.503   2.769   9.455
 7716POPC   PO429424  10.486   2.748   9.155
 7716POPC   GL129425  10.516   2.795   8.855
 7716POPC   GL229426  10.566   2.671   8.855
 7716POPC   C1A29427  10.546   2.791   8.555
 7716POPC   D2A29428  10.485   2.772   8.255
 7716POPC   C3A29429  10.499   2.754   7.955
 7716POPC   C4A29430  10.478   2.777   7.655
 7716POPC   C1B29431  10.502   2.535   8.555
 7716POPC   C2B29432  10.550   2.487   8.255
 7716POPC   C3B29433  10.515   2.521   7.955
 7716POPC   C4B29434  10.510   2.512   7.655
 7717POPC   NC329435  17.529  41.580   9.455
 7717POPC   PO429436  17.469  41.523   9.155
 7717POPC   GL129437  17.460  41.600   8.855
 7717POPC   GL229438  17.476  41.482   8.855
 7717POPC   C1A29439  17.485  41.515   8.555
 7717POPC   D2A29440  17.494  41.553   8.255
 7717POPC   C3A29441  17.551  41.535   7.955
 7717POPC   C4A29442  17.530  41.605   7.655
 7717POPC   C1B29443  17.380  41.313   8.555
 7717POPC   C2B29444  17.318  41.320   8.255
 7717POPC   C3B29445  17.312  41.348   7.955
 7717POPC   C4B29446  17.369  41.328   7.655
 7718POPC   NC329447  20.584  42.367   9.455
 7718POPC   PO429448  20.575  42.365   9.155
 7718POPC   GL129449  20.621  42.291   8.855
 7718POPC   GL229450  20.555  42.271   8.855
 7718POPC   C1A29451  20.624  42.318   8.555
 7718POPC   D2A29452  20.647  42.318   8.255
 7718POPC   C3A29453  20.576  42.302   7.955
 7718POPC   C4A29454  20.562  42.320   7.655
 7718POPC   C1B29455  20.445  42.200   8.555
 7718POPC   C2B29456  20.390  42.202   8.255
 7718POPC   C3B29457  20.386  42.117   7.955
 7718POPC   C4B29458  20.419  42.187   7.655
 7719POPC   NC329459  15.142  24.464   9.455
 7719POPC   PO429460  15.175  24.441   9.155
 7719POPC   GL129461  15.218  24.502   8.855
 7719POPC   GL229462  15.327  24.457   8.855
 7719POPC   C1A29463  15.161  24.474   8.555
 7719POPC   D2A29464  15.209  24.459   8.255
 7719POPC   C3A29465  15.163  24.534   7.955
 7719POPC   C4A29466  15.208  24.461   7.655
 7719POPC   C1B29467  15.363  24.391   8.555
 7719POPC   C2B29468  15.344  24.360   8.255
 7719POPC   C3B29469  15.340  24.345   7.955
 7719POPC   C4B29470  15.370  24.324   7.655
 7720POPC   NC329471  32.275   2.732   9.455
 7720POPC   PO429472  32.279   2.738   9.155
 7720POPC   GL129473  32.211   2.750   8.855
 7720POPC   GL229474  32.257   2.669   8.855
 7720POPC   C1A29475  32.212   2.761   8.555
 7720POPC   D2A29476  32.282   2.746   8.255
 7720POPC   C3A29477  32.284   2.788   7.955
 7720POPC   C4A29478  32.274   2.743   7.655
 7720POPC   C1B29479  32.287   2.538   8.555
 7720POPC   C2B29480  32.307   2.539   8.255
 7720POPC   C3B29481  32.329   2.503   7.955
 7720POPC   C4B29482  32.313   2.479   7.655
 7721POPC   NC329483   5.847  20.628   9.455
 7721POPC   PO429484   5.861  20.584   9.155
 7721POPC   GL129485   5.900  20.639   8.855
 7721POPC   GL229486   5.699  20.558   8.855
 7721POPC   C1A29487   5.883  20.580   8.555
 7721POPC   D2A29488   5.850  20.595   8.255
 7721POPC   C3A29489   5.880  20.654   7.955
 7721POPC   C4A29490   5.872  20.611   7.655
 7721POPC   C1B29491   5.613  20.633   8.555
 7721POPC   C2B29492   5.635  20.624   8.255
 7721POPC   C3B29493   5.647  20.632   7.955
 7721POPC   C4B29494   5.626  20.562   7.655
 7722POPC   NC329495  13.663   7.418   9.455
 7722POPC   PO429496  13.593   7.394   9.155
 7722POPC   GL129497  13.616   7.435   8.855
 7722POPC   GL229498  13.518   7.381   8.855
 7722POPC   C1A29499  13.676   7.462   8.555
 7722POPC   D2A29500  13.628   7.426   8.255
 7722POPC   C3A29501  13.670   7.464   7.955
 7722POPC   C4A29502  13.662   7.446   7.655
 7722POPC   C1B29503  13.455   7.287   8.555
 7722POPC   C2B29504  13.477   7.267   8.255
 7722POPC   C3B29505  13.442   7.216   7.955
 7722POPC   C4B29506  13.432   7.247   7.655
 7723POPC   NC329507  14.431  18.327   9.455
 7723POPC   PO429508  14.453  18.234   9.155
 7723POPC   GL129509  14.391  18.280   8.855
 7723POPC   GL229510  14.269  18.296   8.855
 7723POPC   C1A29511  14.435  18.308   8.555
 7723POPC   D2A29512  14.416  18.285   8.255
 7723POPC   C3A29513  14.367  18.283   7.955
 7723POPC   C4A29514  14.383  18.264   7.655
 7723POPC   C1B29515  14.146  18.406   8.555
 7723POPC   C2B29516  14.207  18.358   8.255
 7723POPC   C3B29517  14.203  18.372   7.955
 7723POPC   C4B29518  14.138  18.432   7.655
 7724POPC   NC329519   7.379  26.823   9.455
 7724POPC   PO429520   7.464  26.802   9.155
 7724POPC   GL129521   7.446  26.792   8.855
 7724POPC   GL229522   7.405  26.983   8.855
 7724POPC   C1A29523   7.456  26.858   8.555
 7724POPC   D2A29524   7.431  26.843   8.255
 7724POPC   C3A29525   7.386  26.835   7.955
 7724POPC   C4A29526   7.402  26.816   7.655
 7724POPC   C1B29527   7.362  27.071   8.555
 7724POPC   C2B29528   7.382  27.101   8.255
 7724POPC   C3B29529   7.364  27.021   7.955
 7724POPC   C4B29530   7.383  27.051   7.655
 7725POPC   NC329531   5.128   8.970   9.455
 7725POPC   PO429532   5.104   8.957   9.155
 7725POPC   GL129533   5.080   8.970   8.855
 7725POPC   GL229534   4.952   8.996   8.855
 7725POPC   C1A29535   5.137   8.970   8.555
 7725POPC   D2A29536   5.069   8.973   8.255
 7725POPC   C3A29537   5.095   9.004   7.955
 7725POPC   C4A29538   5.074   8.975   7.655
 7725POPC   C1B29539   4.915   9.117   8.555
 7725POPC   C2B29540   4.917   9.127   8.255
 7725POPC   C3B29541   4.886   9.086   7.955
 7725POPC   C4B29542   4.886   9.097   7.655
 7726POPC   NC329543  11.281  22.208   9.455
 7726POPC   PO429544  11.331  22.209   9.155
 7726POPC   GL129545  11.264  22.141   8.855
 7726POPC   GL229546  11.194  22.268   8.855
 7726POPC   C1A29547  11.325  22.143   8.555
 7726POPC   D2A29548  11.265  22.153   8.255
 7726POPC   C3A29549  11.272  22.164   7.955
 7726POPC   C4A29550  11.328  22.196   7.655
 7726POPC   C1B29551  11.127  22.264   8.555
 7726POPC   C2B29552  11.106  22.271   8.255
 7726POPC   C3B29553  11.106  22.326   7.955
 7726POPC   C4B29554  11.145  22.324   7.655
 7727POPC   NC329555  19.015  19.033   9.455
 7727POPC   PO429556  19.061  19.085   9.155
 7727POPC   GL129557  19.057  19.054   8.855
 7727POPC   GL229558  18.910  19.092   8.855
 7727POPC   C1A29559  19.080  19.084   8.555
 7727POPC   D2A29560  19.043  19.072   8.255
 7727POPC   C3A29561  19.050  19.108   7.955
 7727POPC   C4A29562  19.100  19.109   7.655
 7727POPC   C1B29563  18.787  19.038   8.555
 7727POPC   C2B29564  18.777  19.067   8.255
 7727POPC   C3B29565  18.810  19.071   7.955
 7727POPC   C4B29566  18.767  19.039   7.655
 7728POPC   NC329567  39.247  13.652   9.455
 7728POPC   PO429568  39.210  13.594   9.155
 7728POPC   GL129569  39.261  13.631   8.855
 7728POPC   GL229570  39.344  13.627   8.855
 7728POPC   C1A29571  39.216  13.595   8.555
 7728POPC   D2A29572  39.199  13.598   8.255
 7728POPC   C3A29573  39.255  13.660   7.955
 7728POPC   C4A29574  39.277  13.660   7.655
 7728POPC   C1B29575  39.444  13.599   8.555
 7728POPC   C2B29576  39.453  13.526   8.255
 7728POPC   C3B29577  39.486  13.591   7.955
 7728POPC   C4B29578  39.451  13.606   7.655
 7729POPC   NC329579  17.540  13.644   9.455
 7729POPC   PO429580  17.508  13.586   9.155
 7729POPC   GL129581  17.531  13.640   8.855
 7729POPC   GL229582  17.396  13.715   8.855
 7729POPC   C1A29583  17.548  13.652   8.555
 7729POPC   D2A29584  17.554  13.661   8.255
 7729POPC   C3A29585  17.516  13.655   7.955
 7729POPC   C4A29586  17.470  13.655   7.655
 7729POPC   C1B29587  17.329  13.732   8.555
 7729POPC   C2B29588  17.257  13.726   8.255
 7729POPC   C3B29589  17.322  13.749   7.955
 7729POPC   C4B29590  17.263  13.759   7.655
 7730POPC   NC329591  25.231   6.602   9.455
 7730POPC   PO429592  25.259   6.681   9.155
 7730POPC   GL129593  25.223   6.691   8.855
 7730POPC   GL229594  25.318   6.565   8.855
 7730POPC   C1A29595  25.275   6.671   8.555
 7730POPC   D2A29596  25.286   6.639   8.255
 7730POPC   C3A29597  25.312   6.630   7.955
 7730POPC   C4A29598  25.261   6.677   7.655
 7730POPC   C1B29599  25.348   6.422   8.555
 7730POPC   C2B29600  25.325   6.411   8.255
 7730POPC   C3B29601  25.334   6.372   7.955
 7730POPC   C4B29602  25.400   6.413   7.655
 7731POPC   NC329603  15.974  21.411   9.455
 7731POPC   PO429604  15.999  21.422   9.155
 7731POPC   GL129605  15.948  21.397   8.855
 7731POPC   GL229606  15.955  21.237   8.855
 7731POPC   C1A29607  15.970  21.399   8.555
 7731POPC   D2A29608  15.929  21.387   8.255
 7731POPC   C3A29609  15.911  21.401   7.955
 7731POPC   C4A29610  15.979  21.406   7.655
 7731POPC   C1B29611  15.864  21.180   8.555
 7731POPC   C2B29612  15.942  21.184   8.255
 7731POPC   C3B29613  15.953  21.160   7.955
 7731POPC   C4B29614  15.951  21.107   7.655
 7732POPC   NC329615  36.134  19.035   9.455
 7732POPC   PO429616  36.083  19.067   9.155
 7732POPC   GL129617  36.084  19.099   8.855
 7732POPC   GL229618  36.073  18.944   8.855
 7732POPC   C1A29619  36.086  19.012   8.555
 7732POPC   D2A29620  36.127  19.043   8.255
 7732POPC   C3A29621  36.135  19.081   7.955
 7732POPC   C4A29622  36.106  19.092   7.655
 7732POPC   C1B29623  35.994  18.804   8.555
 7732POPC   C2B29624  36.045  18.782   8.255
 7732POPC   C3B29625  36.006  18.801   7.955
 7732POPC   C4B29626  36.015  18.845   7.655
 7733POPC   NC329627  14.445  42.381   9.455
 7733POPC   PO429628  14.371  42.326   9.155
 7733POPC   GL129629  14.452  42.300   8.855
 7733POPC   GL229630  14.241  42.367   8.855
 7733POPC   C1A29631  14.451  42.312   8.555
 7733POPC   D2A29632  14.424  42.299   8.255
 7733POPC   C3A29633  14.449  42.302   7.955
 7733POPC   C4A29634  14.419  42.291   7.655
 7733POPC   C1B29635  14.133  42.408   8.555
 7733POPC   C2B29636  14.119  42.367   8.255
 7733POPC   C3B29637  14.115  42.341   7.955
 7733POPC   C4B29638  14.128  42.417   7.655
 7734POPC   NC329639   5.066  11.340   9.455
 7734POPC   PO429640   5.134  11.284   9.155
 7734POPC   GL129641   5.068  11.280   8.855
 7734POPC   GL229642   5.026  11.403   8.855
 7734POPC   C1A29643   5.075  11.301   8.555
 7734POPC   D2A29644   5.052  11.321   8.255
 7734POPC   C3A29645   5.065  11.313   7.955
 7734POPC   C4A29646   5.064  11.294   7.655
 7734POPC   C1B29647   5.056  11.584   8.555
 7734POPC   C2B29648   5.004  11.510   8.255
 7734POPC   C3B29649   5.007  11.543   7.955
 7734POPC   C4B29650   4.995  11.530   7.655
 7735POPC   NC329651   1.956  38.473   9.455
 7735POPC   PO429652   1.961  38.501   9.155
 7735POPC   GL129653   2.032  38.460   8.855
 7735POPC   GL229654   2.096  38.556   8.855
 7735POPC   C1A29655   2.018  38.486   8.555
 7735POPC   D2A29656   2.023  38.424   8.255
 7735POPC   C3A29657   1.959  38.440   7.955
 7735POPC   C4A29658   1.954  38.432   7.655
 7735POPC   C1B29659   2.129  38.684   8.555
 7735POPC   C2B29660   2.116  38.683   8.255
 7735POPC   C3B29661   2.098  38.633   7.955
 7735POPC   C4B29662   2.086  38.712   7.655
 7736POPC   NC329663  35.316   2.772   9.455
 7736POPC   PO429664  35.322   2.729   9.155
 7736POPC   GL129665  35.335   2.768   8.855
 7736POPC   GL229666  35.354   2.664   8.855
 7736POPC   C1A29667  35.397   2.750   8.555
 7736POPC   D2A29668  35.336   2.810   8.255
 7736POPC   C3A29669  35.370   2.742   7.955
 7736POPC   C4A29670  35.387   2.761   7.655
 7736POPC   C1B29671  35.377   2.533   8.555
 7736POPC   C2B29672  35.429   2.500   8.255
 7736POPC   C3B29673  35.415   2.538   7.955
 7736POPC   C4B29674  35.362   2.479   7.655
 7737POPC   NC329675   1.202  12.849   9.455
 7737POPC   PO429676   1.237  12.822   9.155
 7737POPC   GL129677   1.261  12.877   8.855
 7737POPC   GL229678   1.268  12.928   8.855
 7737POPC   C1A29679   1.259  12.842   8.555
 7737POPC   D2A29680   1.234  12.873   8.255
 7737POPC   C3A29681   1.260  12.845   7.955
 7737POPC   C4A29682   1.248  12.849   7.655
 7737POPC   C1B29683   1.277  13.110   8.555
 7737POPC   C2B29684   1.319  13.101   8.255
 7737POPC   C3B29685   1.288  13.090   7.955
 7737POPC   C4B29686   1.255  13.099   7.655
 7738POPC   NC329687  19.848   1.229   9.455
 7738POPC   PO429688  19.820   1.210   9.155
 7738POPC   GL129689  19.798   1.237   8.855
 7738POPC   GL229690  19.774   1.102   8.855
 7738POPC   C1A29691  19.810   1.177   8.555
 7738POPC   D2A29692  19.847   1.179   8.255
 7738POPC   C3A29693  19.874   1.216   7.955
 7738POPC   C4A29694  19.853   1.182   7.655
 7738POPC   C1B29695  19.684   1.025   8.555
 7738POPC   C2B29696  19.704   0.959   8.255
 7738POPC   C3B29697  19.713   1.046   7.955
 7738POPC   C4B29698  19.750   1.004   7.655
 7739POPC   NC329699  11.262  42.366   9.455
 7739POPC   PO429700  11.255  42.338   9.155
 7739POPC   GL129701  11.294  42.341   8.855
 7739POPC   GL229702  11.401  42.338   8.855
 7739POPC   C1A29703  11.337  42.356   8.555
 7739POPC   D2A29704  11.277  42.312   8.255
 7739POPC   C3A29705  11.316  42.297   7.955
 7739POPC   C4A29706  11.335  42.285   7.655
 7739POPC   C1B29707  11.561  42.311   8.555
 7739POPC   C2B29708  11.530  42.307   8.255
 7739POPC   C3B29709  11.521  42.322   7.955
 7739POPC   C4B29710  11.501  42.313   7.655
 7740POPC   NC329711  22.930  22.142   9.455
 7740POPC   PO429712  22.936  22.194   9.155
 7740POPC   GL129713  22.977  22.177   8.855
 7740POPC   GL229714  22.845  22.266   8.855
 7740POPC   C1A29715  22.895  22.189   8.555
 7740POPC   D2A29716  22.916  22.114   8.255
 7740POPC   C3A29717  22.894  22.127   7.955
 7740POPC   C4A29718  22.889  22.164   7.655
 7740POPC   C1B29719  22.797  22.387   8.555
 7740POPC   C2B29720  22.801  22.401   8.255
 7740POPC   C3B29721  22.813  22.363   7.955
 7740POPC   C4B29722  22.814  22.412   7.655
 7741POPC   NC329723   3.524  20.602   9.455
 7741POPC   PO429724   3.584  20.638   9.155
 7741POPC   GL129725   3.509  20.612   8.855
 7741POPC   GL229726   3.649  20.516   8.855
 7741POPC   C1A29727   3.494  20.605   8.555
 7741POPC   D2A29728   3.505  20.580   8.255
 7741POPC   C3A29729   3.517  20.580   7.955
 7741POPC   C4A29730   3.545  20.561   7.655
 7741POPC   C1B29731   3.649  20.359   8.555
 7741POPC   C2B29732   3.648  20.439   8.255
 7741POPC   C3B29733   3.643  20.361   7.955
 7741POPC   C4B29734   3.625  20.378   7.655
 7742POPC   NC329735   7.424  39.280   9.455
 7742POPC   PO429736   7.383  39.189   9.155
 7742POPC   GL129737   7.424  39.216   8.855
 7742POPC   GL229738   7.380  39.163   8.855
 7742POPC   C1A29739   7.379  39.268   8.555
 7742POPC   D2A29740   7.467  39.266   8.255
 7742POPC   C3A29741   7.447  39.258   7.955
 7742POPC   C4A29742   7.391  39.187   7.655
 7742POPC   C1B29743   7.323  39.017   8.555
 7742POPC   C2B29744   7.355  38.977   8.255
 7742POPC   C3B29745   7.370  39.025   7.955
 7742POPC   C4B29746   7.337  39.028   7.655
 7743POPC   NC329747  19.799  30.694   9.455
 7743POPC   PO429748  19.841  30.699   9.155
 7743POPC   GL129749  19.839  30.648   8.855
 7743POPC   GL229750  19.783  30.733   8.855
 7743POPC   C1A29751  19.842  30.661   8.555
 7743POPC   D2A29752  19.806  30.689   8.255
 7743POPC   C3A29753  19.872  30.664   7.955
 7743POPC   C4A29754  19.881  30.746   7.655
 7743POPC   C1B29755  19.592  30.831   8.555
 7743POPC   C2B29756  19.622  30.834   8.255
 7743POPC   C3B29757  19.642  30.899   7.955
 7743POPC   C4B29758  19.624  30.826   7.655
 7744POPC   NC329759   2.737  21.350   9.455
 7744POPC   PO429760   2.799  21.413   9.155
 7744POPC   GL129761   2.814  21.418   8.855
 7744POPC   GL229762   2.701  21.336   8.855
 7744POPC   C1A29763   2.720  21.381   8.555
 7744POPC   D2A29764   2.812  21.432   8.255
 7744POPC   C3A29765   2.775  21.405   7.955
 7744POPC   C4A29766   2.719  21.384   7.655
 7744POPC   C1B29767   2.589  21.143   8.555
 7744POPC   C2B29768   2.656  21.224   8.255
 7744POPC   C3B29769   2.634  21.182   7.955
 7744POPC   C4B29770   2.625  21.146   7.655
 7745POPC   NC329771  41.535  24.537   9.455
 7745POPC   PO429772  41.523  24.462   9.155
 7745POPC   GL129773  41.601  24.511   8.855
 7745POPC   GL229774  41.710  24.533   8.855
 7745POPC   C1A29775  41.531  24.453   8.555
 7745POPC   D2A29776  41.606  24.447   8.255
 7745POPC   C3A29777  41.523  24.446   7.955
 7745POPC   C4A29778  41.552  24.467   7.655
 7745POPC   C1B29779  41.840  24.473   8.555
 7745POPC   C2B29780  41.843  24.485   8.255
 7745POPC   C3B29781  41.836  24.521   7.955
 7745POPC   C4B29782  41.786  24.538   7.655
 7746POPC   NC329783  36.952  19.813   9.455
 7746POPC   PO429784  36.937  19.799   9.155
 7746POPC   GL129785  36.881  19.826   8.855
 7746POPC   GL229786  36.810  19.715   8.855
 7746POPC   C1A29787  36.934  19.816   8.555
 7746POPC   D2A29788  36.878  19.848   8.255
 7746POPC   C3A29789  36.862  19.836   7.955
 7746POPC   C4A29790  36.945  19.842   7.655
 7746POPC   C1B29791  36.788  19.631   8.555
 7746POPC   C2B29792  36.816  19.603   8.255
 7746POPC   C3B29793  36.799  19.574   7.955
 7746POPC   C4B29794  36.766  19.575   7.655
 7747POPC   NC329795  15.986  15.911   9.455
 7747POPC   PO429796  15.932  15.962   9.155
 7747POPC   GL129797  15.941  15.963   8.855
 7747POPC   GL229798  15.844  15.958   8.855
 7747POPC   C1A29799  15.960  15.922   8.555
 7747POPC   D2A29800  15.989  16.002   8.255
 7747POPC   C3A29801  15.919  15.913   7.955
 7747POPC   C4A29802  15.994  15.964   7.655
 7747POPC   C1B29803  15.727  16.013   8.555
 7747POPC   C2B29804  15.719  15.976   8.255
 7747POPC   C3B29805  15.675  15.991   7.955
 7747POPC   C4B29806  15.742  16.009   7.655
 7748POPC   NC329807  21.427  33.834   9.455
 7748POPC   PO429808  21.411  33.764   9.155
 7748POPC   GL129809  21.426  33.825   8.855
 7748POPC   GL229810  21.437  33.855   8.855
 7748POPC   C1A29811  21.363  33.809   8.555
 7748POPC   D2A29812  21.401  33.848   8.255
 7748POPC   C3A29813  21.422  33.782   7.955
 7748POPC   C4A29814  21.432  33.837   7.655
 7748POPC   C1B29815  21.572  34.047   8.555
 7748POPC   C2B29816  21.563  33.969   8.255
 7748POPC   C3B29817  21.565  33.996   7.955
 7748POPC   C4B29818  21.505  33.969   7.655
 7749POPC   NC329819  31.519  11.339   9.455
 7749POPC   PO429820  31.478  11.271   9.155
 7749POPC   GL129821  31.454  11.341   8.855
 7749POPC   GL229822  31.627  11.233   8.855
 7749POPC   C1A29823  31.520  11.293   8.555
 7749POPC   D2A29824  31.476  11.340   8.255
 7749POPC   C3A29825  31.496  11.338   7.955
 7749POPC   C4A29826  31.460  11.303   7.655
 7749POPC   C1B29827  31.740  11.234   8.555
 7749POPC   C2B29828  31.735  11.147   8.255
 7749POPC   C3B29829  31.727  11.207   7.955
 7749POPC   C4B29830  31.743  11.215   7.655
 7750POPC   NC329831   7.471   2.004   9.455
 7750POPC   PO429832   7.465   1.974   9.155
 7750POPC   GL129833   7.468   2.033   8.855
 7750POPC   GL229834   7.359   2.145   8.855
 7750POPC   C1A29835   7.466   2.005   8.555
 7750POPC   D2A29836   7.446   1.941   8.255
 7750POPC   C3A29837   7.411   2.004   7.955
 7750POPC   C4A29838   7.381   2.028   7.655
 7750POPC   C1B29839   7.303   2.193   8.555
 7750POPC   C2B29840   7.261   2.179   8.255
 7750POPC   C3B29841   7.263   2.239   7.955
 7750POPC   C4B29842   7.334   2.170   7.655
 7751POPC   NC329843  22.128   6.636   9.455
 7751POPC   PO429844  22.199   6.683   9.155
 7751POPC   GL129845  22.143   6.630   8.855
 7751POPC   GL229846  22.258   6.681   8.855
 7751POPC   C1A29847  22.195   6.682   8.555
 7751POPC   D2A29848  22.139   6.635   8.255
 7751POPC   C3A29849  22.114   6.649   7.955
 7751POPC   C4A29850  22.141   6.692   7.655
 7751POPC   C1B29851  22.414   6.695   8.555
 7751POPC   C2B29852  22.448   6.650   8.255
 7751POPC   C3B29853  22.426   6.709   7.955
 7751POPC   C4B29854  22.391   6.706   7.655
 7752POPC   NC329855  19.845  10.480   9.455
 7752POPC   PO429856  19.875  10.558   9.155
 7752POPC   GL129857  19.813  10.530   8.855
 7752POPC   GL229858  19.702  10.425   8.855
 7752POPC   C1A29859  19.824  10.488   8.555
 7752POPC   D2A29860  19.876  10.527   8.255
 7752POPC   C3A29861  19.859  10.508   7.955
 7752POPC   C4A29862  19.878  10.486   7.655
 7752POPC   C1B29863  19.573  10.446   8.555
 7752POPC   C2B29864  19.631  10.426   8.255
 7752POPC   C3B29865  19.631  10.385   7.955
 7752POPC   C4B29866  19.624  10.467   7.655
 7753POPC   NC329867  40.023   1.211   9.455
 7753POPC   PO429868  40.040   1.191   9.155
 7753POPC   GL129869  40.055   1.225   8.855
 7753POPC   GL229870  40.050   1.069   8.855
 7753POPC   C1A29871  39.961   1.165   8.555
 7753POPC   D2A29872  40.033   1.174   8.255
 7753POPC   C3A29873  40.013   1.232   7.955
 7753POPC   C4A29874  40.002   1.212   7.655
 7753POPC   C1B29875  40.010   1.006   8.555
 7753POPC   C2B29876  39.974   0.945   8.255
 7753POPC   C3B29877  40.041   0.942   7.955
 7753POPC   C4B29878  39.975   0.922   7.655
 7754POPC   NC329879   7.414  42.312   9.455
 7754POPC   PO429880   7.377  42.369   9.155
 7754POPC   GL129881   7.407  42.333   8.855
 7754POPC   GL229882   7.271  42.357   8.855
 7754POPC   C1A29883   7.402  42.289   8.555
 7754POPC   D2A29884   7.418  42.335   8.255
 7754POPC   C3A29885   7.375  42.362   7.955
 7754POPC   C4A29886   7.403  42.317   7.655
 7754POPC   C1B29887   7.220  42.352   8.555
 7754POPC   C2B29888   7.213  42.387   8.255
 7754POPC   C3B29889   7.157  42.429   7.955
 7754POPC   C4B29890   7.207  42.377   7.655
 7755POPC   NC329891  22.171  42.384   9.455
 7755POPC   PO429892  22.183  42.329   9.155
 7755POPC   GL129893  22.159  42.372   8.855
 7755POPC   GL229894  22.256  42.418   8.855
 7755POPC   C1A29895  22.175  42.332   8.555
 7755POPC   D2A29896  22.176  42.360   8.255
 7755POPC   C3A29897  22.171  42.289   7.955
 7755POPC   C4A29898  22.167  42.352   7.655
 7755POPC   C1B29899  22.375  42.543   8.555
 7755POPC   C2B29900  22.361  42.497   8.255
 7755POPC   C3B29901  22.357  42.555   7.955
 7755POPC   C4B29902  22.319  42.476   7.655
 7756POPC   NC329903   5.132   6.611   9.455
 7756POPC   PO429904   5.090   6.643   9.155
 7756POPC   GL129905   5.048   6.621   8.855
 7756POPC   GL229906   5.264   6.695   8.855
 7756POPC   C1A29907   5.105   6.624   8.555
 7756POPC   D2A29908   5.075   6.601   8.255
 7756POPC   C3A29909   5.068   6.610   7.955
 7756POPC   C4A29910   5.048   6.637   7.655
 7756POPC   C1B29911   5.311   6.692   8.555
 7756POPC   C2B29912   5.350   6.731   8.255
 7756POPC   C3B29913   5.372   6.742   7.955
 7756POPC   C4B29914   5.315   6.730   7.655
 7757POPC   NC329915  43.070   3.529   9.455
 7757POPC   PO429916  43.071   3.503   9.155
 7757POPC   GL129917  43.098   3.512   8.855
 7757POPC   GL229918  43.024   3.677   8.855
 7757POPC   C1A29919  43.068   3.516   8.555
 7757POPC   D2A29920  43.103   3.589   8.255
 7757POPC   C3A29921  43.102   3.519   7.955
 7757POPC   C4A29922  43.159   3.525   7.655
 7757POPC   C1B29923  42.968   3.806   8.555
 7757POPC   C2B29924  42.991   3.741   8.255
 7757POPC   C3B29925  42.976   3.747   7.955
 7757POPC   C4B29926  43.011   3.762   7.655
 7758POPC   NC329927   4.353  15.983   9.455
 7758POPC   PO429928   4.289  15.989   9.155
 7758POPC   GL129929   4.348  15.932   8.855
 7758POPC   GL229930   4.245  16.025   8.855
 7758POPC   C1A29931   4.367  15.908   8.555
 7758POPC   D2A29932   4.310  15.939   8.255
 7758POPC   C3A29933   4.336  15.939   7.955
 7758POPC   C4A29934   4.289  15.937   7.655
 7758POPC   C1B29935   4.044  16.017   8.555
 7758POPC   C2B29936   4.114  16.047   8.255
 7758POPC   C3B29937   4.096  16.052   7.955
 7758POPC   C4B29938   4.073  15.984   7.655
 7759POPC   NC329939  39.977  28.323   9.455
 7759POPC   PO429940  40.008  28.370   9.155
 7759POPC   GL129941  40.030  28.396   8.855
 7759POPC   GL229942  39.902  28.311   8.855
 7759POPC   C1A29943  39.966  28.419   8.555
 7759POPC   D2A29944  40.009  28.381   8.255
 7759POPC   C3A29945  39.964  28.399   7.955
 7759POPC   C4A29946  39.995  28.333   7.655
 7759POPC   C1B29947  39.788  28.243   8.555
 7759POPC   C2B29948  39.784  28.261   8.255
 7759POPC   C3B29949  39.752  28.294   7.955
 7759POPC   C4B29950  39.772  28.267   7.655
 7760POPC   NC329951  18.250  31.506   9.455
 7760POPC   PO429952  18.248  31.493   9.155
 7760POPC   GL129953  18.298  31.459   8.855
 7760POPC   GL229954  18.133  31.370   8.855
 7760POPC   C1A29955  18.264  31.484   8.555
 7760POPC   D2A29956  18.234  31.513   8.255
 7760POPC   C3A29957  18.313  31.514   7.955
 7760POPC   C4A29958  18.251  31.469   7.655
 7760POPC   C1B29959  18.058  31.335   8.555
 7760POPC   C2B29960  18.095  31.357   8.255
 7760POPC   C3B29961  18.103  31.403   7.955
 7760POPC   C4B29962  18.033  31.327   7.655
 7761POPC   NC329963  12.886  14.414   9.455
 7761POPC   PO429964  12.811  14.380   9.155
 7761POPC   GL129965  12.825  14.427   8.855
 7761POPC   GL229966  12.810  14.298   8.855
 7761POPC   C1A29967  12.815  14.360   8.555
 7761POPC   D2A29968  12.867  14.356   8.255
 7761POPC   C3A29969  12.835  14.370   7.955
 7761POPC   C4A29970  12.890  14.422   7.655
 7761POPC   C1B29971  12.666  14.222   8.555
 7761POPC   C2B29972  12.715  14.184   8.255
 7761POPC   C3B29973  12.702  14.249   7.955
 7761POPC   C4B29974  12.648  14.243   7.655
 7762POPC   NC329975  22.902  15.993   9.455
 7762POPC   PO429976  22.896  15.968   9.155
 7762POPC   GL129977  22.942  15.982   8.855
 7762POPC   GL229978  22.873  15.856   8.855
 7762POPC   C1A29979  22.902  15.906   8.555
 7762POPC   D2A29980  22.900  15.947   8.255
 7762POPC   C3A29981  22.911  15.959   7.955
 7762POPC   C4A29982  22.976  15.927   7.655
 7762POPC   C1B29983  22.761  15.768   8.555
 7762POPC   C2B29984  22.768  15.782   8.255
 7762POPC   C3B29985  22.807  15.732   7.955
 7762POPC   C4B29986  22.774  15.819   7.655
 7763POPC   NC329987  14.399  43.095   9.455
 7763POPC   PO429988  14.367  43.070   9.155
 7763POPC   GL129989  14.415  43.065   8.855
 7763POPC   GL229990  14.283  43.180   8.855
 7763POPC   C1A29991  14.429  43.125   8.555
 7763POPC   D2A29992  14.406  43.104   8.255
 7763POPC   C3A29993  14.383  43.063   7.955
 7763POPC   C4A29994  14.382  43.153   7.655
 7763POPC   C1B29995  14.158  43.224   8.555
 7763POPC   C2B29996  14.193  43.167   8.255
 7763POPC   C3B29997  14.126  43.221   7.955
 7763POPC   C4B29998  14.179  43.251   7.655
 7764POPC   NC329999  38.428  29.894   9.455
 7764POPC   PO430000  38.463  29.924   9.155
 7764POPC   GL130001  38.427  29.962   8.855
 7764POPC   GL230002  38.491  29.852   8.855
 7764POPC   C1A30003  38.501  29.964   8.555
 7764POPC   D2A30004  38.472  29.934   8.255
 7764POPC   C3A30005  38.414  29.936   7.955
 7764POPC   C4A30006  38.422  29.955   7.655
 7764POPC   C1B30007  38.590  29.692   8.555
 7764POPC   C2B30008  38.578  29.687   8.255
 7764POPC   C3B30009  38.641  29.760   7.955
 7764POPC   C4B30010  38.633  29.772   7.655
 7765POPC   NC330011  31.437  21.415   9.455
 7765POPC   PO430012  31.435  21.421   9.155
 7765POPC   GL130013  31.486  21.410   8.855
 7765POPC   GL230014  31.573  21.331   8.855
 7765POPC   C1A30015  31.465  21.413   8.555
 7765POPC   D2A30016  31.455  21.353   8.255
 7765POPC   C3A30017  31.505  21.352   7.955
 7765POPC   C4A30018  31.516  21.422   7.655
 7765POPC   C1B30019  31.663  21.312   8.555
 7765POPC   C2B30020  31.702  21.311   8.255
 7765POPC   C3B30021  31.709  21.272   7.955
 7765POPC   C4B30022  31.730  21.263   7.655
 7766POPC   NC330023  25.271  37.693   9.455
 7766POPC   PO430024  25.307  37.695   9.155
 7766POPC   GL130025  25.249  37.647   8.855
 7766POPC   GL230026  25.114  37.781   8.855
 7766POPC   C1A30027  25.313  37.630   8.555
 7766POPC   D2A30028  25.230  37.667   8.255
 7766POPC   C3A30029  25.310  37.641   7.955
 7766POPC   C4A30030  25.303  37.666   7.655
 7766POPC   C1B30031  25.095  37.821   8.555
 7766POPC   C2B30032  25.080  37.821   8.255
 7766POPC   C3B30033  25.073  37.849   7.955
 7766POPC   C4B30034  25.099  37.846   7.655
 7767POPC   NC330035   7.383   4.298   9.455
 7767POPC   PO430036   7.379   4.354   9.155
 7767POPC   GL130037   7.413   4.296   8.855
 7767POPC   GL230038   7.452   4.245   8.855
 7767POPC   C1A30039   7.428   4.353   8.555
 7767POPC   D2A30040   7.454   4.297   8.255
 7767POPC   C3A30041   7.462   4.274   7.955
 7767POPC   C4A30042   7.390   4.354   7.655
 7767POPC   C1B30043   7.555   4.121   8.555
 7767POPC   C2B30044   7.586   4.063   8.255
 7767POPC   C3B30045   7.505   4.067   7.955
 7767POPC   C4B30046   7.512   4.115   7.655
 7768POPC   NC330047  25.287  34.615   9.455
 7768POPC   PO430048  25.233  34.574   9.155
 7768POPC   GL130049  25.257  34.547   8.855
 7768POPC   GL230050  25.202  34.648   8.855
 7768POPC   C1A30051  25.305  34.526   8.555
 7768POPC   D2A30052  25.272  34.616   8.255
 7768POPC   C3A30053  25.221  34.579   7.955
 7768POPC   C4A30054  25.271  34.556   7.655
 7768POPC   C1B30055  25.070  34.746   8.555
 7768POPC   C2B30056  25.101  34.757   8.255
 7768POPC   C3B30057  25.069  34.780   7.955
 7768POPC   C4B30058  25.075  34.724   7.655
 7769POPC   NC330059  27.562   5.047   9.455
 7769POPC   PO430060  27.577   5.130   9.155
 7769POPC   GL130061  27.583   5.131   8.855
 7769POPC   GL230062  27.476   5.040   8.855
 7769POPC   C1A30063  27.600   5.076   8.555
 7769POPC   D2A30064  27.632   5.119   8.255
 7769POPC   C3A30065  27.605   5.141   7.955
 7769POPC   C4A30066  27.566   5.060   7.655
 7769POPC   C1B30067  27.340   4.937   8.555
 7769POPC   C2B30068  27.392   5.004   8.255
 7769POPC   C3B30069  27.327   4.968   7.955
 7769POPC   C4B30070  27.417   4.989   7.655
 7770POPC   NC330071  12.065  40.753   9.455
 7770POPC   PO430072  12.091  40.815   9.155
 7770POPC   GL130073  12.079  40.796   8.855
 7770POPC   GL230074  12.152  40.713   8.855
 7770POPC   C1A30075  12.073  40.777   8.555
 7770POPC   D2A30076  12.041  40.755   8.255
 7770POPC   C3A30077  12.026  40.806   7.955
 7770POPC   C4A30078  12.047  40.830   7.655
 7770POPC   C1B30079  12.265  40.653   8.555
 7770POPC   C2B30080  12.268  40.592   8.255
 7770POPC   C3B30081  12.252  40.651   7.955
 7770POPC   C4B30082  12.232  40.625   7.655
 7771POPC   NC330083  18.245  17.498   9.455
 7771POPC   PO430084  18.254  17.503   9.155
 7771POPC   GL130085  18.235  17.482   8.855
 7771POPC   GL230086  18.395  17.513   8.855
 7771POPC   C1A30087  18.327  17.507   8.555
 7771POPC   D2A30088  18.249  17.541   8.255
 7771POPC   C3A30089  18.242  17.531   7.955
 7771POPC   C4A30090  18.255  17.544   7.655
 7771POPC   C1B30091  18.569  17.526   8.555
 7771POPC   C2B30092  18.577  17.571   8.255
 7771POPC   C3B30093  18.537  17.500   7.955
 7771POPC   C4B30094  18.511  17.485   7.655
 7772POPC   NC330095  20.614   1.231   9.455
 7772POPC   PO430096  20.641   1.225   9.155
 7772POPC   GL130097  20.572   1.196   8.855
 7772POPC   GL230098  20.739   1.226   8.855
 7772POPC   C1A30099  20.624   1.241   8.555
 7772POPC   D2A30100  20.610   1.207   8.255
 7772POPC   C3A30101  20.594   1.175   7.955
 7772POPC   C4A30102  20.621   1.218   7.655
 7772POPC   C1B30103  20.868   1.179   8.555
 7772POPC   C2B30104  20.880   1.160   8.255
 7772POPC   C3B30105  20.841   1.167   7.955
 7772POPC   C4B30106  20.817   1.229   7.655
 7773POPC   NC330107   6.683  29.175   9.455
 7773POPC   PO430108   6.620  29.099   9.155
 7773POPC   GL130109   6.667  29.192   8.855
 7773POPC   GL230110   6.706  29.318   8.855
 7773POPC   C1A30111   6.606  29.134   8.555
 7773POPC   D2A30112   6.626  29.162   8.255
 7773POPC   C3A30113   6.677  29.107   7.955
 7773POPC   C4A30114   6.645  29.168   7.655
 7773POPC   C1B30115   6.717  29.365   8.555
 7773POPC   C2B30116   6.643  29.369   8.255
 7773POPC   C3B30117   6.684  29.426   7.955
 7773POPC   C4B30118   6.658  29.385   7.655
 7774POPC   NC330119  41.523  44.700   9.455
 7774POPC   PO430120  41.519  44.626   9.155
 7774POPC   GL130121  41.561  44.664   8.855
 7774POPC   GL230122  41.488  44.789   8.855
 7774POPC   C1A30123  41.555  44.690   8.555
 7774POPC   D2A30124  41.562  44.649   8.255
 7774POPC   C3A30125  41.523  44.710   7.955
 7774POPC   C4A30126  41.607  44.665   7.655
 7774POPC   C1B30127  41.456  44.836   8.555
 7774POPC   C2B30128  41.426  44.872   8.255
 7774POPC   C3B30129  41.402  44.868   7.955
 7774POPC   C4B30130  41.440  44.877   7.655
 7775POPC   NC330131   1.946   5.127   9.455
 7775POPC   PO430132   2.003   5.084   9.155
 7775POPC   GL130133   2.006   5.125   8.855
 7775POPC   GL230134   1.914   4.963   8.855
 7775POPC   C1A30135   1.946   5.073   8.555
 7775POPC   D2A30136   2.035   5.048   8.255
 7775POPC   C3A30137   1.984   5.100   7.955
 7775POPC   C4A30138   1.966   5.095   7.655
 7775POPC   C1B30139   1.771   4.951   8.555
 7775POPC   C2B30140   1.812   4.943   8.255
 7775POPC   C3B30141   1.779   4.945   7.955
 7775POPC   C4B30142   1.804   4.973   7.655
 7776POPC   NC330143   4.355   5.824   9.455
 7776POPC   PO430144   4.275   5.866   9.155
 7776POPC   GL130145   4.364   5.876   8.855
 7776POPC   GL230146   4.247   5.973   8.855
 7776POPC   C1A30147   4.307   5.829   8.555
 7776POPC   D2A30148   4.352   5.866   8.255
 7776POPC   C3A30149   4.347   5.887   7.955
 7776POPC   C4A30150   4.355   5.822   7.655
 7776POPC   C1B30151   4.135   6.007   8.555
 7776POPC   C2B30152   4.079   5.942   8.255
 7776POPC   C3B30153   4.108   5.996   7.955
 7776POPC   C4B30154   4.098   5.991   7.655
 7777POPC   NC330155   4.307  15.160   9.455
 7777POPC   PO430156   4.281  15.173   9.155
 7777POPC   GL130157   4.298  15.210   8.855
 7777POPC   GL230158   4.372  15.334   8.855
 7777POPC   C1A30159   4.276  15.131   8.555
 7777POPC   D2A30160   4.297  15.210   8.255
 7777POPC   C3A30161   4.284  15.193   7.955
 7777POPC   C4A30162   4.305  15.161   7.655
 7777POPC   C1B30163   4.290  15.398   8.555
 7777POPC   C2B30164   4.323  15.413   8.255
 7777POPC   C3B30165   4.295  15.391   7.955
 7777POPC   C4B30166   4.315  15.425   7.655
 7778POPC   NC330167  26.840  39.228   9.455
 7778POPC   PO430168  26.774  39.258   9.155
 7778POPC   GL130169  26.831  39.251   8.855
 7778POPC   GL230170  26.718  39.180   8.855
 7778POPC   C1A30171  26.784  39.254   8.555
 7778POPC   D2A30172  26.857  39.277   8.255
 7778POPC   C3A30173  26.780  39.215   7.955
 7778POPC   C4A30174  26.845  39.242   7.655
 7778POPC   C1B30175  26.644  39.093   8.555
 7778POPC   C2B30176  26.638  39.032   8.255
 7778POPC   C3B30177  26.693  38.999   7.955
 7778POPC   C4B30178  26.618  39.045   7.655
 7779POPC   NC330179  15.161  36.096   9.455
 7779POPC   PO430180  15.157  36.082   9.155
 7779POPC   GL130181  15.184  36.078   8.855
 7779POPC   GL230182  15.153  35.991   8.855
 7779POPC   C1A30183  15.130  36.165   8.555
 7779POPC   D2A30184  15.202  36.107   8.255
 7779POPC   C3A30185  15.193  36.163   7.955
 7779POPC   C4A30186  15.172  36.139   7.655
 7779POPC   C1B30187  15.011  35.932   8.555
 7779POPC   C2B30188  15.046  35.931   8.255
 7779POPC   C3B30189  15.078  35.921   7.955
 7779POPC   C4B30190  15.024  35.942   7.655
 7780POPC   NC330191  33.847   1.183   9.455
 7780POPC   PO430192  33.840   1.168   9.155
 7780POPC   GL130193  33.786   1.223   8.855
 7780POPC   GL230194  33.880   1.273   8.855
 7780POPC   C1A30195  33.799   1.261   8.555
 7780POPC   D2A30196  33.776   1.195   8.255
 7780POPC   C3A30197  33.753   1.184   7.955
 7780POPC   C4A30198  33.833   1.253   7.655
 7780POPC   C1B30199  34.025   1.262   8.555
 7780POPC   C2B30200  34.017   1.285   8.255
 7780POPC   C3B30201  34.077   1.285   7.955
 7780POPC   C4B30202  34.034   1.212   7.655
 7781POPC   NC330203  20.600   8.980   9.455
 7781POPC   PO430204  20.575   8.937   9.155
 7781POPC   GL130205  20.599   9.004   8.855
 7781POPC   GL230206  20.541   9.077   8.855
 7781POPC   C1A30207  20.637   9.006   8.555
 7781POPC   D2A30208  20.630   9.007   8.255
 7781POPC   C3A30209  20.605   9.021   7.955
 7781POPC   C4A30210  20.606   8.981   7.655
 7781POPC   C1B30211  20.516   9.228   8.555
 7781POPC   C2B30212  20.498   9.198   8.255
 7781POPC   C3B30213  20.496   9.149   7.955
 7781POPC   C4B30214  20.474   9.175   7.655
 7782POPC   NC330215  10.486  29.905   9.455
 7782POPC   PO430216  10.554  29.888   9.155
 7782POPC   GL130217  10.541  29.933   8.855
 7782POPC   GL230218  10.437  29.813   8.855
 7782POPC   C1A30219  10.550  29.921   8.555
 7782POPC   D2A30220  10.523  29.878   8.255
 7782POPC   C3A30221  10.546  29.921   7.955
 7782POPC   C4A30222  10.524  29.951   7.655
 7782POPC   C1B30223  10.447  29.747   8.555
 7782POPC   C2B30224  10.352  29.654   8.255
 7782POPC   C3B30225  10.382  29.744   7.955
 7782POPC   C4B30226  10.447  29.653   7.655
 7783POPC   NC330227   8.202  22.158   9.455
 7783POPC   PO430228   8.210  22.198   9.155
 7783POPC   GL130229   8.223  22.167   8.855
 7783POPC   GL230230   8.318  22.222   8.855
 7783POPC   C1A30231   8.182  22.208   8.555
 7783POPC   D2A30232   8.231  22.168   8.255
 7783POPC   C3A30233   8.240  22.194   7.955
 7783POPC   C4A30234   8.233  22.180   7.655
 7783POPC   C1B30235   8.491  22.196   8.555
 7783POPC   C2B30236   8.412  22.263   8.255
 7783POPC   C3B30237   8.437  22.251   7.955
 7783POPC   C4B30238   8.478  22.260   7.655
 7784POPC   NC330239  28.354  19.868   9.455
 7784POPC   PO430240  28.335  19.845   9.155
 7784POPC   GL130241  28.331  19.860   8.855
 7784POPC   GL230242  28.381  19.983   8.855
 7784POPC   C1A30243  28.367  19.817   8.555
 7784POPC   D2A30244  28.393  19.807   8.255
 7784POPC   C3A30245  28.382  19.826   7.955
 7784POPC   C4A30246  28.352  19.872   7.655
 7784POPC   C1B30247  28.341  20.041   8.555
 7784POPC   C2B30248  28.356  20.131   8.255
 7784POPC   C3B30249  28.346  20.115   7.955
 7784POPC   C4B30250  28.349  20.096   7.655
 7785POPC   NC330251  40.763   0.405   9.455
 7785POPC   PO430252  40.800   0.460   9.155
 7785POPC   GL130253  40.759   0.449   8.855
 7785POPC   GL230254  40.660   0.454   8.855
 7785POPC   C1A30255  40.763   0.425   8.555
 7785POPC   D2A30256  40.802   0.444   8.255
 7785POPC   C3A30257  40.829   0.408   7.955
 7785POPC   C4A30258  40.809   0.431   7.655
 7785POPC   C1B30259  40.570   0.485   8.555
 7785POPC   C2B30260  40.498   0.480   8.255
 7785POPC   C3B30261  40.542   0.533   7.955
 7785POPC   C4B30262  40.550   0.520   7.655
 7786POPC   NC330263  19.869  24.472   9.455
 7786POPC   PO430264  19.833  24.501   9.155
 7786POPC   GL130265  19.805  24.467   8.855
 7786POPC   GL230266  19.798  24.575   8.855
 7786POPC   C1A30267  19.792  24.530   8.555
 7786POPC   D2A30268  19.851  24.492   8.255
 7786POPC   C3A30269  19.844  24.494   7.955
 7786POPC   C4A30270  19.797  24.530   7.655
 7786POPC   C1B30271  19.728  24.689   8.555
 7786POPC   C2B30272  19.677  24.702   8.255
 7786POPC   C3B30273  19.724  24.734   7.955
 7786POPC   C4B30274  19.700  24.741   7.655
 7787POPC   NC330275  15.170  14.451   9.455
 7787POPC   PO430276  15.185  14.450   9.155
 7787POPC   GL130277  15.140  14.424   8.855
 7787POPC   GL230278  15.117  14.395   8.855
 7787POPC   C1A30279  15.157  14.359   8.555
 7787POPC   D2A30280  15.186  14.440   8.255
 7787POPC   C3A30281  15.202  14.391   7.955
 7787POPC   C4A30282  15.211  14.422   7.655
 7787POPC   C1B30283  14.959  14.310   8.555
 7787POPC   C2B30284  14.927  14.287   8.255
 7787POPC   C3B30285  14.961  14.286   7.955
 7787POPC   C4B30286  14.921  14.258   7.655
 7788POPC   NC330287  34.534   3.547   9.455
 7788POPC   PO430288  34.598   3.537   9.155
 7788POPC   GL130289  34.565   3.504   8.855
 7788POPC   GL230290  34.674   3.578   8.855
 7788POPC   C1A30291  34.567   3.567   8.555
 7788POPC   D2A30292  34.612   3.502   8.255
 7788POPC   C3A30293  34.589   3.503   7.955
 7788POPC   C4A30294  34.565   3.576   7.655
 7788POPC   C1B30295  34.836   3.655   8.555
 7788POPC   C2B30296  34.783   3.691   8.255
 7788POPC   C3B30297  34.760   3.674   7.955
 7788POPC   C4B30298  34.761   3.625   7.655
 7789POPC   NC330299  22.156   8.985   9.455
 7789POPC   PO430300  22.155   9.003   9.155
 7789POPC   GL130301  22.153   8.934   8.855
 7789POPC   GL230302  22.028   8.975   8.855
 7789POPC   C1A30303  22.170   8.943   8.555
 7789POPC   D2A30304  22.196   8.970   8.255
 7789POPC   C3A30305  22.145   8.961   7.955
 7789POPC   C4A30306  22.179   9.011   7.655
 7789POPC   C1B30307  21.963   9.040   8.555
 7789POPC   C2B30308  21.900   9.018   8.255
 7789POPC   C3B30309  21.923   9.040   7.955
 7789POPC   C4B30310  21.947   9.063   7.655
 7790POPC   NC330311  12.125  26.819   9.455
 7790POPC   PO430312  12.077  26.810   9.155
 7790POPC   GL130313  12.028  26.849   8.855
 7790POPC   GL230314  11.972  26.887   8.855
 7790POPC   C1A30315  12.102  26.853   8.555
 7790POPC   D2A30316  12.063  26.829   8.255
 7790POPC   C3A30317  12.034  26.818   7.955
 7790POPC   C4A30318  12.104  26.861   7.655
 7790POPC   C1B30319  11.923  27.004   8.555
 7790POPC   C2B30320  11.916  26.952   8.255
 7790POPC   C3B30321  11.917  26.984   7.955
 7790POPC   C4B30322  11.922  26.940   7.655
 7791POPC   NC330323  38.417  12.078   9.455
 7791POPC   PO430324  38.441  12.055   9.155
 7791POPC   GL130325  38.448  12.037   8.855
 7791POPC   GL230326  38.597  12.042   8.855
 7791POPC   C1A30327  38.505  12.080   8.555
 7791POPC   D2A30328  38.497  12.064   8.255
 7791POPC   C3A30329  38.440  12.047   7.955
 7791POPC   C4A30330  38.427  12.060   7.655
 7791POPC   C1B30331  38.700  11.988   8.555
 7791POPC   C2B30332  38.705  11.928   8.255
 7791POPC   C3B30333  38.623  12.002   7.955
 7791POPC   C4B30334  38.629  11.926   7.655
 7792POPC   NC330335  14.384  29.151   9.455
 7792POPC   PO430336  14.437  29.133   9.155
 7792POPC   GL130337  14.378  29.125   8.855
 7792POPC   GL230338  14.396  29.071   8.855
 7792POPC   C1A30339  14.364  29.195   8.555
 7792POPC   D2A30340  14.406  29.163   8.255
 7792POPC   C3A30341  14.417  29.120   7.955
 7792POPC   C4A30342  14.424  29.193   7.655
 7792POPC   C1B30343  14.371  28.874   8.555
 7792POPC   C2B30344  14.379  28.908   8.255
 7792POPC   C3B30345  14.359  28.915   7.955
 7792POPC   C4B30346  14.339  28.910   7.655
 7793POPC   NC330347  25.282  16.755   9.455
 7793POPC   PO430348  25.240  16.755   9.155
 7793POPC   GL130349  25.265  16.706   8.855
 7793POPC   GL230350  25.242  16.879   8.855
 7793POPC   C1A30351  25.282  16.703   8.555
 7793POPC   D2A30352  25.227  16.745   8.255
 7793POPC   C3A30353  25.280  16.756   7.955
 7793POPC   C4A30354  25.263  16.738   7.655
 7793POPC   C1B30355  25.247  16.942   8.555
 7793POPC   C2B30356  25.205  17.014   8.255
 7793POPC   C3B30357  25.219  16.951   7.955
 7793POPC   C4B30358  25.238  16.940   7.655
 7794POPC   NC330359  19.018  20.639   9.455
 7794POPC   PO430360  19.042  20.580   9.155
 7794POPC   GL130361  19.033  20.623   8.855
 7794POPC   GL230362  19.023  20.712   8.855
 7794POPC   C1A30363  19.028  20.644   8.555
 7794POPC   D2A30364  19.035  20.642   8.255
 7794POPC   C3A30365  19.054  20.636   7.955
 7794POPC   C4A30366  19.092  20.611   7.655
 7794POPC   C1B30367  19.059  20.844   8.555
 7794POPC   C2B30368  18.987  20.897   8.255
 7794POPC   C3B30369  19.028  20.869   7.955
 7794POPC   C4B30370  19.059  20.841   7.655
 7795POPC   NC330371  15.934  19.867   9.455
 7795POPC   PO430372  15.993  19.871   9.155
 7795POPC   GL130373  15.982  19.817   8.855
 7795POPC   GL230374  16.107  19.791   8.855
 7795POPC   C1A30375  16.004  19.800   8.555
 7795POPC   D2A30376  15.945  19.788   8.255
 7795POPC   C3A30377  15.911  19.808   7.955
 7795POPC   C4A30378  15.920  19.879   7.655
 7795POPC   C1B30379  16.160  19.811   8.555
 7795POPC   C2B30380  16.179  19.764   8.255
 7795POPC   C3B30381  16.232  19.822   7.955
 7795POPC   C4B30382  16.195  19.780   7.655
 7796POPC   NC330383   8.217  41.544   9.455
 7796POPC   PO430384   8.172  41.553   9.155
 7796POPC   GL130385   8.200  41.602   8.855
 7796POPC   GL230386   8.352  41.538   8.855
 7796POPC   C1A30387   8.160  41.523   8.555
 7796POPC   D2A30388   8.172  41.518   8.255
 7796POPC   C3A30389   8.229  41.605   7.955
 7796POPC   C4A30390   8.242  41.540   7.655
 7796POPC   C1B30391   8.442  41.557   8.555
 7796POPC   C2B30392   8.456  41.655   8.255
 7796POPC   C3B30393   8.393  41.581   7.955
 7796POPC   C4B30394   8.446  41.602   7.655
 7797POPC   NC330395  37.690   2.795   9.455
 7797POPC   PO430396  37.675   2.810   9.155
 7797POPC   GL130397  37.668   2.736   8.855
 7797POPC   GL230398  37.615   2.620   8.855
 7797POPC   C1A30399  37.712   2.726   8.555
 7797POPC   D2A30400  37.717   2.755   8.255
 7797POPC   C3A30401  37.708   2.780   7.955
 7797POPC   C4A30402  37.704   2.737   7.655
 7797POPC   C1B30403  37.509   2.573   8.555
 7797POPC   C2B30404  37.522   2.543   8.255
 7797POPC   C3B30405  37.583   2.571   7.955
 7797POPC   C4B30406  37.580   2.520   7.655
 7798POPC   NC330407  12.880   8.979   9.455
 7798POPC   PO430408  12.853   8.947   9.155
 7798POPC   GL130409  12.808   8.999   8.855
 7798POPC   GL230410  12.727   8.825   8.855
 7798POPC   C1A30411  12.827   9.010   8.555
 7798POPC   D2A30412  12.815   8.992   8.255
 7798POPC   C3A30413  12.867   8.982   7.955
 7798POPC   C4A30414  12.869   9.005   7.655
 7798POPC   C1B30415  12.703   8.733   8.555
 7798POPC   C2B30416  12.663   8.775   8.255
 7798POPC   C3B30417  12.668   8.814   7.955
 7798POPC   C4B30418  12.750   8.822   7.655
 7799POPC   NC330419   4.308   1.951   9.455
 7799POPC   PO430420   4.272   2.002   9.155
 7799POPC   GL130421   4.308   2.037   8.855
 7799POPC   GL230422   4.474   1.899   8.855
 7799POPC   C1A30423   4.350   1.994   8.555
 7799POPC   D2A30424   4.305   2.020   8.255
 7799POPC   C3A30425   4.283   1.960   7.955
 7799POPC   C4A30426   4.337   1.981   7.655
 7799POPC   C1B30427   4.570   1.865   8.555
 7799POPC   C2B30428   4.560   1.871   8.255
 7799POPC   C3B30429   4.571   1.869   7.955
 7799POPC   C4B30430   4.538   1.891   7.655
 7800POPC   NC330431  25.230  35.352   9.455
 7800POPC   PO430432  25.246  35.399   9.155
 7800POPC   GL130433  25.294  35.331   8.855
 7800POPC   GL230434  25.168  35.384   8.855
 7800POPC   C1A30435  25.294  35.356   8.555
 7800POPC   D2A30436  25.236  35.400   8.255
 7800POPC   C3A30437  25.225  35.372   7.955
 7800POPC   C4A30438  25.256  35.315   7.655
 7800POPC   C1B30439  25.095  35.499   8.555
 7800POPC   C2B30440  25.102  35.529   8.255
 7800POPC   C3B30441  25.064  35.454   7.955
 7800POPC   C4B30442  25.039  35.464   7.655
 7801POPC   NC330443   9.785   1.942   9.455
 7801POPC   PO430444   9.794   1.976   9.155
 7801POPC   GL130445   9.774   2.031   8.855
 7801POPC   GL230446   9.660   2.062   8.855
 7801POPC   C1A30447   9.755   2.005   8.555
 7801POPC   D2A30448   9.748   2.028   8.255
 7801POPC   C3A30449   9.721   2.021   7.955
 7801POPC   C4A30450   9.781   1.986   7.655
 7801POPC   C1B30451   9.513   2.118   8.555
 7801POPC   C2B30452   9.508   2.090   8.255
 7801POPC   C3B30453   9.545   2.082   7.955
 7801POPC   C4B30454   9.510   2.102   7.655
 7802POPC   NC330455  19.043  39.995   9.455
 7802POPC   PO430456  19.085  39.997   9.155
 7802POPC   GL130457  19.016  40.050   8.855
 7802POPC   GL230458  19.200  40.004   8.855
 7802POPC   C1A30459  19.080  39.999   8.555
 7802POPC   D2A30460  19.015  40.039   8.255
 7802POPC   C3A30461  19.103  40.016   7.955
 7802POPC   C4A30462  19.070  39.991   7.655
 7802POPC   C1B30463  19.297  40.120   8.555
 7802POPC   C2B30464  19.333  40.101   8.255
 7802POPC   C3B30465  19.253  40.134   7.955
 7802POPC   C4B30466  19.291  40.106   7.655
 7803POPC   NC330467  13.639  39.973   9.455
 7803POPC   PO430468  13.651  39.968   9.155
 7803POPC   GL130469  13.664  40.042   8.855
 7803POPC   GL230470  13.600  39.864   8.855
 7803POPC   C1A30471  13.647  40.002   8.555
 7803POPC   D2A30472  13.663  40.031   8.255
 7803POPC   C3A30473  13.597  40.055   7.955
 7803POPC   C4A30474  13.672  40.043   7.655
 7803POPC   C1B30475  13.651  39.749   8.555
 7803POPC   C2B30476  13.644  39.794   8.255
 7803POPC   C3B30477  13.621  39.714   7.955
 7803POPC   C4B30478  13.662  39.746   7.655
 7804POPC   NC330479  24.444  22.144   9.455
 7804POPC   PO430480  24.497  22.119   9.155
 7804POPC   GL130481  24.448  22.194   8.855
 7804POPC   GL230482  24.331  22.220   8.855
 7804POPC   C1A30483  24.530  22.207   8.555
 7804POPC   D2A30484  24.447  22.116   8.255
 7804POPC   C3A30485  24.484  22.176   7.955
 7804POPC   C4A30486  24.454  22.147   7.655
 7804POPC   C1B30487  24.278  22.211   8.555
 7804POPC   C2B30488  24.293  22.277   8.255
 7804POPC   C3B30489  24.220  22.265   7.955
 7804POPC   C4B30490  24.257  22.206   7.655
 7805POPC   NC330491  25.312  41.598   9.455
 7805POPC   PO430492  25.232  41.567   9.155
 7805POPC   GL130493  25.233  41.579   8.855
 7805POPC   GL230494  25.115  41.472   8.855
 7805POPC   C1A30495  25.247  41.510   8.555
 7805POPC   D2A30496  25.221  41.564   8.255
 7805POPC   C3A30497  25.286  41.590   7.955
 7805POPC   C4A30498  25.251  41.561   7.655
 7805POPC   C1B30499  25.018  41.450   8.555
 7805POPC   C2B30500  25.029  41.453   8.255
 7805POPC   C3B30501  25.039  41.473   7.955
 7805POPC   C4B30502  25.053  41.533   7.655
 7806POPC   NC330503  25.301  42.365   9.455
 7806POPC   PO430504  25.236  42.330   9.155
 7806POPC   GL130505  25.255  42.288   8.855
 7806POPC   GL230506  25.246  42.247   8.855
 7806POPC   C1A30507  25.237  42.292   8.555
 7806POPC   D2A30508  25.276  42.293   8.255
 7806POPC   C3A30509  25.261  42.332   7.955
 7806POPC   C4A30510  25.266  42.370   7.655
 7806POPC   C1B30511  25.322  42.080   8.555
 7806POPC   C2B30512  25.308  42.069   8.255
 7806POPC   C3B30513  25.306  42.101   7.955
 7806POPC   C4B30514  25.345  42.091   7.655
 7807POPC   NC330515  38.473  40.013   9.455
 7807POPC   PO430516  38.491  39.981   9.155
 7807POPC   GL130517  38.422  40.007   8.855
 7807POPC   GL230518  38.410  40.125   8.855
 7807POPC   C1A30519  38.434  39.994   8.555
 7807POPC   D2A30520  38.489  39.964   8.255
 7807POPC   C3A30521  38.505  39.974   7.955
 7807POPC   C4A30522  38.478  40.010   7.655
 7807POPC   C1B30523  38.482  40.282   8.555
 7807POPC   C2B30524  38.457  40.246   8.255
 7807POPC   C3B30525  38.464  40.283   7.955
 7807POPC   C4B30526  38.438  40.230   7.655
 7808POPC   NC330527  27.554  20.625   9.455
 7808POPC   PO430528  27.627  20.635   9.155
 7808POPC   GL130529  27.590  20.611   8.855
 7808POPC   GL230530  27.535  20.567   8.855
 7808POPC   C1A30531  27.599  20.637   8.555
 7808POPC   D2A30532  27.642  20.624   8.255
 7808POPC   C3A30533  27.623  20.617   7.955
 7808POPC   C4A30534  27.592  20.584   7.655
 7808POPC   C1B30535  27.437  20.403   8.555
 7808POPC   C2B30536  27.394  20.392   8.255
 7808POPC   C3B30537  27.446  20.396   7.955
 7808POPC   C4B30538  27.414  20.413   7.655
 7809POPC   NC330539  22.202  25.278   9.455
 7809POPC   PO430540  22.140  25.237   9.155
 7809POPC   GL130541  22.208  25.257   8.855
 7809POPC   GL230542  22.224  25.349   8.855
 7809POPC   C1A30543  22.197  25.280   8.555
 7809POPC   D2A30544  22.133  25.216   8.255
 7809POPC   C3A30545  22.150  25.302   7.955
 7809POPC   C4A30546  22.181  25.258   7.655
 7809POPC   C1B30547  22.391  25.417   8.555
 7809POPC   C2B30548  22.332  25.398   8.255
 7809POPC   C3B30549  22.385  25.442   7.955
 7809POPC   C4B30550  22.394  25.419   7.655
 7810POPC   NC330551  39.249  20.628   9.455
 7810POPC   PO430552  39.206  20.658   9.155
 7810POPC   GL130553  39.202  20.587   8.855
 7810POPC   GL230554  39.311  20.665   8.855
 7810POPC   C1A30555  39.245  20.633   8.555
 7810POPC   D2A30556  39.206  20.611   8.255
 7810POPC   C3A30557  39.235  20.608   7.955
 7810POPC   C4A30558  39.204  20.620   7.655
 7810POPC   C1B30559  39.403  20.819   8.555
 7810POPC   C2B30560  39.446  20.779   8.255
 7810POPC   C3B30561  39.460  20.774   7.955
 7810POPC   C4B30562  39.364  20.810   7.655
 7811POPC   NC330563  33.821  19.883   9.455
 7811POPC   PO430564  33.768  19.868   9.155
 7811POPC   GL130565  33.824  19.797   8.855
 7811POPC   GL230566  33.704  19.697   8.855
 7811POPC   C1A30567  33.787  19.827   8.555
 7811POPC   D2A30568  33.797  19.831   8.255
 7811POPC   C3A30569  33.775  19.879   7.955
 7811POPC   C4A30570  33.849  19.809   7.655
 7811POPC   C1B30571  33.621  19.626   8.555
 7811POPC   C2B30572  33.639  19.657   8.255
 7811POPC   C3B30573  33.661  19.618   7.955
 7811POPC   C4B30574  33.704  19.582   7.655
 7812POPC   NC330575  39.964  29.110   9.455
 7812POPC   PO430576  40.042  29.189   9.155
 7812POPC   GL130577  39.995  29.100   8.855
 7812POPC   GL230578  40.087  29.281   8.855
 7812POPC   C1A30579  40.047  29.194   8.555
 7812POPC   D2A30580  40.027  29.124   8.255
 7812POPC   C3A30581  40.004  29.095   7.955
 7812POPC   C4A30582  39.974  29.142   7.655
 7812POPC   C1B30583  40.173  29.392   8.555
 7812POPC   C2B30584  40.189  29.315   8.255
 7812POPC   C3B30585  40.110  29.382   7.955
 7812POPC   C4B30586  40.124  29.306   7.655
 7813POPC   NC330587  24.476  19.862   9.455
 7813POPC   PO430588  24.493  19.814   9.155
 7813POPC   GL130589  24.539  19.882   8.855
 7813POPC   GL230590  24.329  19.762   8.855
 7813POPC   C1A30591  24.483  19.866   8.555
 7813POPC   D2A30592  24.489  19.832   8.255
 7813POPC   C3A30593  24.452  19.811   7.955
 7813POPC   C4A30594  24.457  19.849   7.655
 7813POPC   C1B30595  24.292  19.742   8.555
 7813POPC   C2B30596  24.250  19.759   8.255
 7813POPC   C3B30597  24.201  19.778   7.955
 7813POPC   C4B30598  24.222  19.756   7.655
 7814POPC   NC330599  38.441  33.045   9.455
 7814POPC   PO430600  38.485  32.993   9.155
 7814POPC   GL130601  38.447  33.053   8.855
 7814POPC   GL230602  38.468  32.913   8.855
 7814POPC   C1A30603  38.418  33.022   8.555
 7814POPC   D2A30604  38.484  32.999   8.255
 7814POPC   C3A30605  38.474  33.026   7.955
 7814POPC   C4A30606  38.456  33.047   7.655
 7814POPC   C1B30607  38.477  32.746   8.555
 7814POPC   C2B30608  38.431  32.747   8.255
 7814POPC   C3B30609  38.489  32.777   7.955
 7814POPC   C4B30610  38.476  32.747   7.655
 7815POPC   NC330611   8.155  27.544   9.455
 7815POPC   PO430612   8.245  27.550   9.155
 7815POPC   GL130613   8.152  27.545   8.855
 7815POPC   GL230614   8.227  27.485   8.855
 7815POPC   C1A30615   8.162  27.632   8.555
 7815POPC   D2A30616   8.201  27.553   8.255
 7815POPC   C3A30617   8.223  27.586   7.955
 7815POPC   C4A30618   8.185  27.604   7.655
 7815POPC   C1B30619   8.265  27.393   8.555
 7815POPC   C2B30620   8.248  27.317   8.255
 7815POPC   C3B30621   8.285  27.369   7.955
 7815POPC   C4B30622   8.269  27.401   7.655
 7816POPC   NC330623  31.485  24.499   9.455
 7816POPC   PO430624  31.477  24.460   9.155
 7816POPC   GL130625  31.477  24.496   8.855
 7816POPC   GL230626  31.365  24.512   8.855
 7816POPC   C1A30627  31.464  24.493   8.555
 7816POPC   D2A30628  31.468  24.492   8.255
 7816POPC   C3A30629  31.506  24.529   7.955
 7816POPC   C4A30630  31.451  24.498   7.655
 7816POPC   C1B30631  31.262  24.447   8.555
 7816POPC   C2B30632  31.194  24.477   8.255
 7816POPC   C3B30633  31.178  24.413   7.955
 7816POPC   C4B30634  31.212  24.431   7.655
 7817POPC   NC330635  28.350  23.718   9.455
 7817POPC   PO430636  28.388  23.717   9.155
 7817POPC   GL130637  28.368  23.666   8.855
 7817POPC   GL230638  28.522  23.732   8.855
 7817POPC   C1A30639  28.352  23.682   8.555
 7817POPC   D2A30640  28.325  23.696   8.255
 7817POPC   C3A30641  28.338  23.689   7.955
 7817POPC   C4A30642  28.410  23.684   7.655
 7817POPC   C1B30643  28.660  23.605   8.555
 7817POPC   C2B30644  28.603  23.665   8.255
 7817POPC   C3B30645  28.632  23.659   7.955
 7817POPC   C4B30646  28.617  23.657   7.655
 7818POPC   NC330647  38.460  16.773   9.455
 7818POPC   PO430648  38.407  16.689   9.155
 7818POPC   GL130649  38.496  16.684   8.855
 7818POPC   GL230650  38.366  16.667   8.855
 7818POPC   C1A30651  38.430  16.758   8.555
 7818POPC   D2A30652  38.432  16.698   8.255
 7818POPC   C3A30653  38.442  16.749   7.955
 7818POPC   C4A30654  38.436  16.753   7.655
 7818POPC   C1B30655  38.226  16.632   8.555
 7818POPC   C2B30656  38.279  16.599   8.255
 7818POPC   C3B30657  38.233  16.638   7.955
 7818POPC   C4B30658  38.221  16.646   7.655
 7819POPC   NC330659   6.643  33.033   9.455
 7819POPC   PO430660   6.669  33.034   9.155
 7819POPC   GL130661   6.621  33.025   8.855
 7819POPC   GL230662   6.573  33.072   8.855
 7819POPC   C1A30663   6.667  33.057   8.555
 7819POPC   D2A30664   6.674  33.056   8.255
 7819POPC   C3A30665   6.678  32.985   7.955
 7819POPC   C4A30666   6.676  32.991   7.655
 7819POPC   C1B30667   6.458  33.126   8.555
 7819POPC   C2B30668   6.414  33.200   8.255
 7819POPC   C3B30669   6.445  33.189   7.955
 7819POPC   C4B30670   6.409  33.147   7.655
 7820POPC   NC330671  28.340  34.589   9.455
 7820POPC   PO430672  28.392  34.566   9.155
 7820POPC   GL130673  28.415  34.607   8.855
 7820POPC   GL230674  28.263  34.469   8.855
 7820POPC   C1A30675  28.370  34.613   8.555
 7820POPC   D2A30676  28.366  34.592   8.255
 7820POPC   C3A30677  28.379  34.567   7.955
 7820POPC   C4A30678  28.402  34.557   7.655
 7820POPC   C1B30679  28.205  34.376   8.555
 7820POPC   C2B30680  28.199  34.418   8.255
 7820POPC   C3B30681  28.241  34.380   7.955
 7820POPC   C4B30682  28.204  34.368   7.655
 7821POPC   NC330683  19.027  28.350   9.455
 7821POPC   PO430684  19.057  28.369   9.155
 7821POPC   GL130685  19.038  28.395   8.855
 7821POPC   GL230686  18.961  28.509   8.855
 7821POPC   C1A30687  19.104  28.397   8.555
 7821POPC   D2A30688  19.096  28.385   8.255
 7821POPC   C3A30689  19.046  28.380   7.955
 7821POPC   C4A30690  19.105  28.387   7.655
 7821POPC   C1B30691  18.857  28.513   8.555
 7821POPC   C2B30692  18.931  28.515   8.255
 7821POPC   C3B30693  18.913  28.563   7.955
 7821POPC   C4B30694  18.892  28.567   7.655
 7822POPC   NC330695   8.977  33.763   9.455
 7822POPC   PO430696   8.955  33.773   9.155
 7822POPC   GL130697   9.011  33.787   8.855
 7822POPC   GL230698   9.038  33.738   8.855
 7822POPC   C1A30699   9.007  33.813   8.555
 7822POPC   D2A30700   8.940  33.828   8.255
 7822POPC   C3A30701   8.952  33.783   7.955
 7822POPC   C4A30702   8.984  33.816   7.655
 7822POPC   C1B30703   9.204  33.731   8.555
 7822POPC   C2B30704   9.185  33.713   8.255
 7822POPC   C3B30705   9.233  33.706   7.955
 7822POPC   C4B30706   9.153  33.674   7.655
 7823POPC   NC330707  36.872  14.425   9.455
 7823POPC   PO430708  36.859  14.412   9.155
 7823POPC   GL130709  36.860  14.432   8.855
 7823POPC   GL230710  37.009  14.475   8.855
 7823POPC   C1A30711  36.917  14.355   8.555
 7823POPC   D2A30712  36.863  14.382   8.255
 7823POPC   C3A30713  36.924  14.385   7.955
 7823POPC   C4A30714  36.923  14.379   7.655
 7823POPC   C1B30715  37.090  14.592   8.555
 7823POPC   C2B30716  37.114  14.624   8.255
 7823POPC   C3B30717  37.027  14.598   7.955
 7823POPC   C4B30718  37.059  14.603   7.655
 7824POPC   NC330719  32.244   1.985   9.455
 7824POPC   PO430720  32.228   1.995   9.155
 7824POPC   GL130721  32.223   1.983   8.855
 7824POPC   GL230722  32.355   1.922   8.855
 7824POPC   C1A30723  32.250   2.004   8.555
 7824POPC   D2A30724  32.205   2.010   8.255
 7824POPC   C3A30725  32.233   2.032   7.955
 7824POPC   C4A30726  32.210   1.963   7.655
 7824POPC   C1B30727  32.396   1.786   8.555
 7824POPC   C2B30728  32.424   1.801   8.255
 7824POPC   C3B30729  32.448   1.835   7.955
 7824POPC   C4B30730  32.461   1.786   7.655
 7825POPC   NC330731   6.618   8.198   9.455
 7825POPC   PO430732   6.598   8.242   9.155
 7825POPC   GL130733   6.630   8.168   8.855
 7825POPC   GL230734   6.691   8.308   8.855
 7825POPC   C1A30735   6.687   8.176   8.555
 7825POPC   D2A30736   6.608   8.234   8.255
 7825POPC   C3A30737   6.638   8.155   7.955
 7825POPC   C4A30738   6.621   8.150   7.655
 7825POPC   C1B30739   6.694   8.461   8.555
 7825POPC   C2B30740   6.689   8.485   8.255
 7825POPC   C3B30741   6.668   8.447   7.955
 7825POPC   C4B30742   6.731   8.485   7.655
 7826POPC   NC330743  28.368   5.061   9.455
 7826POPC   PO430744  28.373   5.120   9.155
 7826POPC   GL130745  28.352   5.055   8.855
 7826POPC   GL230746  28.485   5.072   8.855
 7826POPC   C1A30747  28.407   5.139   8.555
 7826POPC   D2A30748  28.412   5.051   8.255
 7826POPC   C3A30749  28.411   5.062   7.955
 7826POPC   C4A30750  28.365   5.060   7.655
 7826POPC   C1B30751  28.559   4.969   8.555
 7826POPC   C2B30752  28.583   4.960   8.255
 7826POPC   C3B30753  28.603   4.965   7.955
 7826POPC   C4B30754  28.561   4.990   7.655
 7827POPC   NC330755   2.760   4.324   9.455
 7827POPC   PO430756   2.799   4.305   9.155
 7827POPC   GL130757   2.735   4.291   8.855
 7827POPC   GL230758   2.668   4.310   8.855
 7827POPC   C1A30759   2.755   4.366   8.555
 7827POPC   D2A30760   2.749   4.268   8.255
 7827POPC   C3A30761   2.766   4.328   7.955
 7827POPC   C4A30762   2.765   4.305   7.655
 7827POPC   C1B30763   2.548   4.280   8.555
 7827POPC   C2B30764   2.535   4.306   8.255
 7827POPC   C3B30765   2.495   4.293   7.955
 7827POPC   C4B30766   2.471   4.360   7.655
 7828POPC   NC330767  26.008  22.948   9.455
 7828POPC   PO430768  26.030  22.941   9.155
 7828POPC   GL130769  26.014  22.937   8.855
 7828POPC   GL230770  25.997  23.030   8.855
 7828POPC   C1A30771  25.995  22.924   8.555
 7828POPC   D2A30772  26.031  22.897   8.255
 7828POPC   C3A30773  26.058  22.941   7.955
 7828POPC   C4A30774  26.021  22.983   7.655
 7828POPC   C1B30775  25.834  23.129   8.555
 7828POPC   C2B30776  25.882  23.130   8.255
 7828POPC   C3B30777  25.864  23.126   7.955
 7828POPC   C4B30778  25.884  23.092   7.655
 7829POPC   NC330779  15.908   7.439   9.455
 7829POPC   PO430780  15.912   7.387   9.155
 7829POPC   GL130781  15.942   7.444   8.855
 7829POPC   GL230782  15.892   7.275   8.855
 7829POPC   C1A30783  15.910   7.384   8.555
 7829POPC   D2A30784  15.907   7.394   8.255
 7829POPC   C3A30785  15.949   7.393   7.955
 7829POPC   C4A30786  15.986   7.447   7.655
 7829POPC   C1B30787  15.796   7.190   8.555
 7829POPC   C2B30788  15.782   7.185   8.255
 7829POPC   C3B30789  15.756   7.264   7.955
 7829POPC   C4B30790  15.838   7.208   7.655
 7830POPC   NC330791  12.090   0.486   9.455
 7830POPC   PO430792  12.027   0.447   9.155
 7830POPC   GL130793  12.067   0.451   8.855
 7830POPC   GL230794  12.011   0.529   8.855
 7830POPC   C1A30795  12.031   0.395   8.555
 7830POPC   D2A30796  12.079   0.433   8.255
 7830POPC   C3A30797  12.070   0.464   7.955
 7830POPC   C4A30798  12.071   0.471   7.655
 7830POPC   C1B30799  11.881   0.572   8.555
 7830POPC   C2B30800  11.900   0.535   8.255
 7830POPC   C3B30801  11.837   0.568   7.955
 7830POPC   C4B30802  11.858   0.507   7.655
 7831POPC   NC330803  22.115   5.071   9.455
 7831POPC   PO430804  22.201   5.118   9.155
 7831POPC   GL130805  22.192   5.084   8.855
 7831POPC   GL230806  22.201   5.231   8.855
 7831POPC   C1A30807  22.181   5.090   8.555
 7831POPC   D2A30808  22.161   5.112   8.255
 7831POPC   C3A30809  22.151   5.075   7.955
 7831POPC   C4A30810  22.158   5.124   7.655
 7831POPC   C1B30811  22.271   5.335   8.555
 7831POPC   C2B30812  22.291   5.296   8.255
 7831POPC   C3B30813  22.318   5.317   7.955
 7831POPC   C4B30814  22.264   5.312   7.655
 7832POPC   NC330815  37.708  24.503   9.455
 7832POPC   PO430816  37.688  24.445   9.155
 7832POPC   GL130817  37.702  24.470   8.855
 7832POPC   GL230818  37.706  24.559   8.855
 7832POPC   C1A30819  37.655  24.450   8.555
 7832POPC   D2A30820  37.677  24.525   8.255
 7832POPC   C3A30821  37.709  24.440   7.955
 7832POPC   C4A30822  37.677  24.526   7.655
 7832POPC   C1B30823  37.766  24.668   8.555
 7832POPC   C2B30824  37.816  24.748   8.255
 7832POPC   C3B30825  37.753  24.726   7.955
 7832POPC   C4B30826  37.811  24.714   7.655
 7833POPC   NC330827  19.873  14.407   9.455
 7833POPC   PO430828  19.805  14.399   9.155
 7833POPC   GL130829  19.819  14.392   8.855
 7833POPC   GL230830  19.983  14.348   8.855
 7833POPC   C1A30831  19.820  14.359   8.555
 7833POPC   D2A30832  19.860  14.380   8.255
 7833POPC   C3A30833  19.883  14.449   7.955
 7833POPC   C4A30834  19.793  14.453   7.655
 7833POPC   C1B30835  20.009  14.319   8.555
 7833POPC   C2B30836  20.023  14.304   8.255
 7833POPC   C3B30837  20.052  14.284   7.955
 7833POPC   C4B30838  20.072  14.240   7.655
 7834POPC   NC330839  36.098  36.143   9.455
 7834POPC   PO430840  36.107  36.100   9.155
 7834POPC   GL130841  36.141  36.110   8.855
 7834POPC   GL230842  36.017  36.197   8.855
 7834POPC   C1A30843  36.158  36.080   8.555
 7834POPC   D2A30844  36.140  36.177   8.255
 7834POPC   C3A30845  36.094  36.097   7.955
 7834POPC   C4A30846  36.086  36.107   7.655
 7834POPC   C1B30847  35.889  36.253   8.555
 7834POPC   C2B30848  35.958  36.291   8.255
 7834POPC   C3B30849  35.924  36.281   7.955
 7834POPC   C4B30850  35.885  36.238   7.655
 7835POPC   NC330851  26.812  10.500   9.455
 7835POPC   PO430852  26.817  10.479   9.155
 7835POPC   GL130853  26.846  10.523   8.855
 7835POPC   GL230854  26.937  10.520   8.855
 7835POPC   C1A30855  26.784  10.519   8.555
 7835POPC   D2A30856  26.860  10.559   8.255
 7835POPC   C3A30857  26.829  10.574   7.955
 7835POPC   C4A30858  26.846  10.486   7.655
 7835POPC   C1B30859  27.079  10.525   8.555
 7835POPC   C2B30860  27.048  10.532   8.255
 7835POPC   C3B30861  27.016  10.514   7.955
 7835POPC   C4B30862  27.043  10.563   7.655
 7836POPC   NC330863  15.174  19.091   9.455
 7836POPC   PO430864  15.226  19.080   9.155
 7836POPC   GL130865  15.196  19.012   8.855
 7836POPC   GL230866  15.143  18.977   8.855
 7836POPC   C1A30867  15.199  19.076   8.555
 7836POPC   D2A30868  15.131  19.077   8.255
 7836POPC   C3A30869  15.225  19.018   7.955
 7836POPC   C4A30870  15.194  19.086   7.655
 7836POPC   C1B30871  15.169  18.839   8.555
 7836POPC   C2B30872  15.144  18.829   8.255
 7836POPC   C3B30873  15.097  18.857   7.955
 7836POPC   C4B30874  15.178  18.794   7.655
 7837POPC   NC330875   9.721  22.942   9.455
 7837POPC   PO430876   9.714  22.908   9.155
 7837POPC   GL130877   9.743  22.973   8.855
 7837POPC   GL230878   9.799  22.827   8.855
 7837POPC   C1A30879   9.751  22.938   8.555
 7837POPC   D2A30880   9.748  22.953   8.255
 7837POPC   C3A30881   9.718  22.890   7.955
 7837POPC   C4A30882   9.786  22.976   7.655
 7837POPC   C1B30883   9.932  22.723   8.555
 7837POPC   C2B30884   9.899  22.781   8.255
 7837POPC   C3B30885   9.897  22.756   7.955
 7837POPC   C4B30886   9.963  22.755   7.655
 7838POPC   NC330887  33.793  41.583   9.455
 7838POPC   PO430888  33.837  41.590   9.155
 7838POPC   GL130889  33.820  41.515   8.855
 7838POPC   GL230890  33.704  41.599   8.855
 7838POPC   C1A30891  33.834  41.555   8.555
 7838POPC   D2A30892  33.799  41.539   8.255
 7838POPC   C3A30893  33.780  41.563   7.955
 7838POPC   C4A30894  33.800  41.598   7.655
 7838POPC   C1B30895  33.593  41.737   8.555
 7838POPC   C2B30896  33.601  41.712   8.255
 7838POPC   C3B30897  33.619  41.783   7.955
 7838POPC   C4B30898  33.626  41.774   7.655
 7839POPC   NC330899  41.538  43.924   9.455
 7839POPC   PO430900  41.540  43.896   9.155
 7839POPC   GL130901  41.534  43.902   8.855
 7839POPC   GL230902  41.576  44.012   8.855
 7839POPC   C1A30903  41.565  43.905   8.555
 7839POPC   D2A30904  41.555  43.933   8.255
 7839POPC   C3A30905  41.511  43.924   7.955
 7839POPC   C4A30906  41.516  43.842   7.655
 7839POPC   C1B30907  41.701  44.108   8.555
 7839POPC   C2B30908  41.692  44.086   8.255
 7839POPC   C3B30909  41.662  44.094   7.955
 7839POPC   C4B30910  41.646  44.135   7.655
 7840POPC   NC330911  23.704  16.774   9.455
 7840POPC   PO430912  23.728  16.698   9.155
 7840POPC   GL130913  23.696  16.755   8.855
 7840POPC   GL230914  23.648  16.832   8.855
 7840POPC   C1A30915  23.738  16.769   8.555
 7840POPC   D2A30916  23.712  16.756   8.255
 7840POPC   C3A30917  23.668  16.691   7.955
 7840POPC   C4A30918  23.718  16.722   7.655
 7840POPC   C1B30919  23.497  16.799   8.555
 7840POPC   C2B30920  23.486  16.836   8.255
 7840POPC   C3B30921  23.459  16.853   7.955
 7840POPC   C4B30922  23.464  16.827   7.655
 7841POPC   NC330923  23.711  11.256   9.455
 7841POPC   PO430924  23.691  11.339   9.155
 7841POPC   GL130925  23.755  11.257   8.855
 7841POPC   GL230926  23.779  11.176   8.855
 7841POPC   C1A30927  23.713  11.283   8.555
 7841POPC   D2A30928  23.669  11.345   8.255
 7841POPC   C3A30929  23.743  11.279   7.955
 7841POPC   C4A30930  23.738  11.284   7.655
 7841POPC   C1B30931  23.818  11.045   8.555
 7841POPC   C2B30932  23.802  11.093   8.255
 7841POPC   C3B30933  23.812  11.062   7.955
 7841POPC   C4B30934  23.851  11.063   7.655
 7842POPC   NC330935  12.085  15.132   9.455
 7842POPC   PO430936  12.097  15.200   9.155
 7842POPC   GL130937  12.084  15.198   8.855
 7842POPC   GL230938  11.988  15.275   8.855
 7842POPC   C1A30939  12.043  15.223   8.555
 7842POPC   D2A30940  12.087  15.186   8.255
 7842POPC   C3A30941  12.096  15.132   7.955
 7842POPC   C4A30942  12.117  15.169   7.655
 7842POPC   C1B30943  11.958  15.405   8.555
 7842POPC   C2B30944  11.870  15.358   8.255
 7842POPC   C3B30945  11.955  15.337   7.955
 7842POPC   C4B30946  11.899  15.362   7.655
 7843POPC   NC330947  16.750  14.416   9.455
 7843POPC   PO430948  16.749  14.357   9.155
 7843POPC   GL130949  16.749  14.450   8.855
 7843POPC   GL230950  16.732  14.271   8.855
 7843POPC   C1A30951  16.749  14.393   8.555
 7843POPC   D2A30952  16.688  14.441   8.255
 7843POPC   C3A30953  16.729  14.358   7.955
 7843POPC   C4A30954  16.767  14.452   7.655
 7843POPC   C1B30955  16.714  14.136   8.555
 7843POPC   C2B30956  16.681  14.174   8.255
 7843POPC   C3B30957  16.713  14.202   7.955
 7843POPC   C4B30958  16.689  14.150   7.655
 7844POPC   NC330959  19.829   9.020   9.455
 7844POPC   PO430960  19.828   8.936   9.155
 7844POPC   GL130961  19.839   8.956   8.855
 7844POPC   GL230962  19.954   8.981   8.855
 7844POPC   C1A30963  19.876   8.927   8.555
 7844POPC   D2A30964  19.852   8.963   8.255
 7844POPC   C3A30965  19.847   8.932   7.955
 7844POPC   C4A30966  19.833   9.022   7.655
 7844POPC   C1B30967  20.109   8.903   8.555
 7844POPC   C2B30968  20.077   8.882   8.255
 7844POPC   C3B30969  20.073   8.933   7.955
 7844POPC   C4B30970  20.106   8.933   7.655
 7845POPC   NC330971  36.905  19.024   9.455
 7845POPC   PO430972  36.921  19.022   9.155
 7845POPC   GL130973  36.935  19.087   8.855
 7845POPC   GL230974  36.933  19.146   8.855
 7845POPC   C1A30975  36.925  19.032   8.555
 7845POPC   D2A30976  36.860  19.083   8.255
 7845POPC   C3A30977  36.869  19.046   7.955
 7845POPC   C4A30978  36.914  19.034   7.655
 7845POPC   C1B30979  36.922  19.344   8.555
 7845POPC   C2B30980  36.911  19.303   8.255
 7845POPC   C3B30981  36.975  19.270   7.955
 7845POPC   C4B30982  36.965  19.303   7.655
 7846POPC   NC330983  34.579  18.244   9.455
 7846POPC   PO430984  34.566  18.270   9.155
 7846POPC   GL130985  34.530  18.298   8.855
 7846POPC   GL230986  34.570  18.185   8.855
 7846POPC   C1A30987  34.578  18.268   8.555
 7846POPC   D2A30988  34.595  18.266   8.255
 7846POPC   C3A30989  34.539  18.252   7.955
 7846POPC   C4A30990  34.610  18.309   7.655
 7846POPC   C1B30991  34.478  18.078   8.555
 7846POPC   C2B30992  34.463  18.097   8.255
 7846POPC   C3B30993  34.453  18.030   7.955
 7846POPC   C4B30994  34.494  18.068   7.655
 7847POPC   NC330995  37.637  18.315   9.455
 7847POPC   PO430996  37.681  18.257   9.155
 7847POPC   GL130997  37.652  18.288   8.855
 7847POPC   GL230998  37.700  18.372   8.855
 7847POPC   C1A30999  37.692  18.333   8.555
 7847POPC   D2A31000  37.644  18.313   8.255
 7847POPC   C3A31001  37.699  18.293   7.955
 7847POPC   C4A31002  37.652  18.323   7.655
 7847POPC   C1B31003  37.816  18.563   8.555
 7847POPC   C2B31004  37.784  18.495   8.255
 7847POPC   C3B31005  37.760  18.497   7.955
 7847POPC   C4B31006  37.763  18.497   7.655
 7848POPC   NC331007  39.982  12.060   9.455
 7848POPC   PO431008  40.040  12.092   9.155
 7848POPC   GL131009  40.045  12.110   8.855
 7848POPC   GL231010  39.898  12.096   8.855
 7848POPC   C1A31011  39.959  12.047   8.555
 7848POPC   D2A31012  40.040  12.096   8.255
 7848POPC   C3A31013  39.978  12.035   7.955
 7848POPC   C4A31014  39.980  12.096   7.655
 7848POPC   C1B31015  39.784  12.174   8.555
 7848POPC   C2B31016  39.748  12.128   8.255
 7848POPC   C3B31017  39.755  12.183   7.955
 7848POPC   C4B31018  39.784  12.185   7.655
 7849POPC   NC331019  13.586  11.252   9.455
 7849POPC   PO431020  13.634  11.347   9.155
 7849POPC   GL131021  13.628  11.252   8.855
 7849POPC   GL231022  13.610  11.393   8.855
 7849POPC   C1A31023  13.600  11.326   8.555
 7849POPC   D2A31024  13.674  11.280   8.255
 7849POPC   C3A31025  13.638  11.292   7.955
 7849POPC   C4A31026  13.620  11.320   7.655
 7849POPC   C1B31027  13.664  11.576   8.555
 7849POPC   C2B31028  13.616  11.529   8.255
 7849POPC   C3B31029  13.665  11.526   7.955
 7849POPC   C4B31030  13.588  11.501   7.655
 7850POPC   NC331031  30.699   4.346   9.455
 7850POPC   PO431032  30.670   4.363   9.155
 7850POPC   GL131033  30.688   4.354   8.855
 7850POPC   GL231034  30.814   4.393   8.855
 7850POPC   C1A31035  30.694   4.328   8.555
 7850POPC   D2A31036  30.700   4.348   8.255
 7850POPC   C3A31037  30.702   4.333   7.955
 7850POPC   C4A31038  30.721   4.320   7.655
 7850POPC   C1B31039  30.937   4.375   8.555
 7850POPC   C2B31040  30.968   4.388   8.255
 7850POPC   C3B31041  30.913   4.374   7.955
 7850POPC   C4B31042  30.964   4.329   7.655
 7851POPC   NC331043  11.348  11.282   9.455
 7851POPC   PO431044  11.279  11.267   9.155
 7851POPC   GL131045  11.307  11.291   8.855
 7851POPC   GL231046  11.202  11.327   8.855
 7851POPC   C1A31047  11.315  11.320   8.555
 7851POPC   D2A31048  11.257  11.316   8.255
 7851POPC   C3A31049  11.277  11.347   7.955
 7851POPC   C4A31050  11.309  11.328   7.655
 7851POPC   C1B31051  11.073  11.382   8.555
 7851POPC   C2B31052  11.117  11.460   8.255
 7851POPC   C3B31053  11.057  11.441   7.955
 7851POPC   C4B31054  11.049  11.448   7.655
 7852POPC   NC331055   5.108   7.441   9.455
 7852POPC   PO431056   5.052   7.388   9.155
 7852POPC   GL131057   5.083   7.384   8.855
 7852POPC   GL231058   5.193   7.462   8.855
 7852POPC   C1A31059   5.079   7.441   8.555
 7852POPC   D2A31060   5.069   7.401   8.255
 7852POPC   C3A31061   5.071   7.374   7.955
 7852POPC   C4A31062   5.049   7.385   7.655
 7852POPC   C1B31063   5.330   7.539   8.555
 7852POPC   C2B31064   5.264   7.595   8.255
 7852POPC   C3B31065   5.282   7.587   7.955
 7852POPC   C4B31066   5.310   7.525   7.655
 7853POPC   NC331067  36.078  39.980   9.455
 7853POPC   PO431068  36.130  40.055   9.155
 7853POPC   GL131069  36.102  40.008   8.855
 7853POPC   GL231070  36.000  40.028   8.855
 7853POPC   C1A31071  36.143  40.038   8.555
 7853POPC   D2A31072  36.157  39.966   8.255
 7853POPC   C3A31073  36.171  39.978   7.955
 7853POPC   C4A31074  36.130  40.044   7.655
 7853POPC   C1B31075  35.906  40.123   8.555
 7853POPC   C2B31076  35.897  40.093   8.255
 7853POPC   C3B31077  35.914  40.092   7.955
 7853POPC   C4B31078  35.951  40.172   7.655
 7854POPC   NC331079  40.821  31.427   9.455
 7854POPC   PO431080  40.819  31.428   9.155
 7854POPC   GL131081  40.810  31.455   8.855
 7854POPC   GL231082  40.649  31.431   8.855
 7854POPC   C1A31083  40.771  31.488   8.555
 7854POPC   D2A31084  40.792  31.447   8.255
 7854POPC   C3A31085  40.772  31.460   7.955
 7854POPC   C4A31086  40.779  31.442   7.655
 7854POPC   C1B31087  40.514  31.452   8.555
 7854POPC   C2B31088  40.556  31.453   8.255
 7854POPC   C3B31089  40.586  31.446   7.955
 7854POPC   C4B31090  40.543  31.426   7.655
 7855POPC   NC331091  28.355   0.424   9.455
 7855POPC   PO431092  28.322   0.426   9.155
 7855POPC   GL131093  28.354   0.450   8.855
 7855POPC   GL231094  28.287   0.322   8.855
 7855POPC   C1A31095  28.341   0.444   8.555
 7855POPC   D2A31096  28.320   0.427   8.255
 7855POPC   C3A31097  28.336   0.408   7.955
 7855POPC   C4A31098  28.382   0.448   7.655
 7855POPC   C1B31099  28.334   0.228   8.555
 7855POPC   C2B31100  28.333   0.247   8.255
 7855POPC   C3B31101  28.320   0.211   7.955
 7855POPC   C4B31102  28.320   0.224   7.655
 7856POPC   NC331103  12.112   7.465   9.455
 7856POPC   PO431104  12.060   7.413   9.155
 7856POPC   GL131105  12.039   7.422   8.855
 7856POPC   GL231106  12.160   7.320   8.855
 7856POPC   C1A31107  12.076   7.399   8.555
 7856POPC   D2A31108  12.033   7.406   8.255
 7856POPC   C3A31109  12.117   7.465   7.955
 7856POPC   C4A31110  12.073   7.456   7.655
 7856POPC   C1B31111  12.274   7.276   8.555
 7856POPC   C2B31112  12.330   7.264   8.255
 7856POPC   C3B31113  12.259   7.277   7.955
 7856POPC   C4B31114  12.321   7.344   7.655
 7857POPC   NC331115  43.867   2.022   9.455
 7857POPC   PO431116  43.915   1.999   9.155
 7857POPC   GL131117  43.918   1.980   8.855
 7857POPC   GL231118  43.892   1.874   8.855
 7857POPC   C1A31119  43.917   1.988   8.555
 7857POPC   D2A31120  43.873   2.037   8.255
 7857POPC   C3A31121  43.892   1.968   7.955
 7857POPC   C4A31122  43.884   1.953   7.655
 7857POPC   C1B31123  43.884   1.704   8.555
 7857POPC   C2B31124  43.868   1.761   8.255
 7857POPC   C3B31125  43.898   1.701   7.955
 7857POPC   C4B31126  43.912   1.746   7.655
 7858POPC   NC331127   1.963   9.010   9.455
 7858POPC   PO431128   1.982   9.021   9.155
 7858POPC   GL131129   1.977   8.955   8.855
 7858POPC   GL231130   1.981   8.814   8.855
 7858POPC   C1A31131   1.950   9.003   8.555
 7858POPC   D2A31132   2.003   8.999   8.255
 7858POPC   C3A31133   2.021   8.928   7.955
 7858POPC   C4A31134   2.038   8.951   7.655
 7858POPC   C1B31135   1.903   8.737   8.555
 7858POPC   C2B31136   1.955   8.733   8.255
 7858POPC   C3B31137   1.912   8.694   7.955
 7858POPC   C4B31138   1.926   8.765   7.655
 7859POPC   NC331139  38.461  31.516   9.455
 7859POPC   PO431140  38.475  31.506   9.155
 7859POPC   GL131141  38.431  31.467   8.855
 7859POPC   GL231142  38.442  31.598   8.855
 7859POPC   C1A31143  38.405  31.476   8.555
 7859POPC   D2A31144  38.412  31.514   8.255
 7859POPC   C3A31145  38.447  31.439   7.955
 7859POPC   C4A31146  38.406  31.461   7.655
 7859POPC   C1B31147  38.351  31.682   8.555
 7859POPC   C2B31148  38.336  31.747   8.255
 7859POPC   C3B31149  38.392  31.728   7.955
 7859POPC   C4B31150  38.349  31.663   7.655
 7860POPC   NC331151  19.858  20.593   9.455
 7860POPC   PO431152  19.791  20.631   9.155
 7860POPC   GL131153  19.792  20.638   8.855
 7860POPC   GL231154  19.707  20.662   8.855
 7860POPC   C1A31155  19.792  20.623   8.555
 7860POPC   D2A31156  19.852  20.657   8.255
 7860POPC   C3A31157  19.800  20.629   7.955
 7860POPC   C4A31158  19.795  20.654   7.655
 7860POPC   C1B31159  19.646  20.698   8.555
 7860POPC   C2B31160  19.609  20.700   8.255
 7860POPC   C3B31161  19.579  20.727   7.955
 7860POPC   C4B31162  19.651  20.725   7.655
 7861POPC   NC331163  15.928  26.087   9.455
 7861POPC   PO431164  15.971  26.028   9.155
 7861POPC   GL131165  15.978  26.057   8.855
 7861POPC   GL231166  15.849  25.982   8.855
 7861POPC   C1A31167  15.979  26.027   8.555
 7861POPC   D2A31168  15.968  26.082   8.255
 7861POPC   C3A31169  15.927  26.037   7.955
 7861POPC   C4A31170  15.907  26.042   7.655
 7861POPC   C1B31171  15.760  25.850   8.555
 7861POPC   C2B31172  15.795  25.855   8.255
 7861POPC   C3B31173  15.787  25.903   7.955
 7861POPC   C4B31174  15.826  25.897   7.655
 7862POPC   NC331175  17.518  16.717   9.455
 7862POPC   PO431176  17.492  16.770   9.155
 7862POPC   GL131177  17.532  16.774   8.855
 7862POPC   GL231178  17.426  16.605   8.855
 7862POPC   C1A31179  17.495  16.736   8.555
 7862POPC   D2A31180  17.466  16.755   8.255
 7862POPC   C3A31181  17.546  16.705   7.955
 7862POPC   C4A31182  17.471  16.749   7.655
 7862POPC   C1B31183  17.324  16.507   8.555
 7862POPC   C2B31184  17.361  16.556   8.255
 7862POPC   C3B31185  17.358  16.588   7.955
 7862POPC   C4B31186  17.334  16.549   7.655
 7863POPC   NC331187  15.181  27.638   9.455
 7863POPC   PO431188  15.179  27.549   9.155
 7863POPC   GL131189  15.182  27.572   8.855
 7863POPC   GL231190  15.138  27.744   8.855
 7863POPC   C1A31191  15.222  27.595   8.555
 7863POPC   D2A31192  15.191  27.620   8.255
 7863POPC   C3A31193  15.218  27.560   7.955
 7863POPC   C4A31194  15.165  27.559   7.655
 7863POPC   C1B31195  15.053  27.767   8.555
 7863POPC   C2B31196  15.024  27.781   8.255
 7863POPC   C3B31197  15.083  27.781   7.955
 7863POPC   C4B31198  15.031  27.832   7.655
 7864POPC   NC331199  19.828  33.073   9.455
 7864POPC   PO431200  19.787  32.977   9.155
 7864POPC   GL131201  19.868  33.013   8.855
 7864POPC   GL231202  19.678  33.046   8.855
 7864POPC   C1A31203  19.812  32.990   8.555
 7864POPC   D2A31204  19.804  33.009   8.255
 7864POPC   C3A31205  19.800  33.071   7.955
 7864POPC   C4A31206  19.880  33.053   7.655
 7864POPC   C1B31207  19.539  33.068   8.555
 7864POPC   C2B31208  19.586  33.065   8.255
 7864POPC   C3B31209  19.589  33.081   7.955
 7864POPC   C4B31210  19.550  33.042   7.655
 7865POPC   NC331211  36.927  29.912   9.455
 7865POPC   PO431212  36.896  29.901   9.155
 7865POPC   GL131213  36.865  29.943   8.855
 7865POPC   GL231214  36.877  30.035   8.855
 7865POPC   C1A31215  36.893  29.876   8.555
 7865POPC   D2A31216  36.927  29.932   8.255
 7865POPC   C3A31217  36.936  29.932   7.955
 7865POPC   C4A31218  36.918  29.876   7.655
 7865POPC   C1B31219  36.827  30.092   8.555
 7865POPC   C2B31220  36.799  30.146   8.255
 7865POPC   C3B31221  36.776  30.180   7.955
 7865POPC   C4B31222  36.817  30.114   7.655
 7866POPC   NC331223  17.465  32.979   9.455
 7866POPC   PO431224  17.478  33.000   9.155
 7866POPC   GL131225  17.460  33.049   8.855
 7866POPC   GL231226  17.438  32.880   8.855
 7866POPC   C1A31227  17.524  33.043   8.555
 7866POPC   D2A31228  17.516  32.988   8.255
 7866POPC   C3A31229  17.501  33.024   7.955
 7866POPC   C4A31230  17.536  32.979   7.655
 7866POPC   C1B31231  17.458  32.821   8.555
 7866POPC   C2B31232  17.471  32.753   8.255
 7866POPC   C3B31233  17.399  32.811   7.955
 7866POPC   C4B31234  17.416  32.762   7.655
 7867POPC   NC331235  20.647  22.942   9.455
 7867POPC   PO431236  20.564  22.922   9.155
 7867POPC   GL131237  20.658  22.947   8.855
 7867POPC   GL231238  20.610  23.017   8.855
 7867POPC   C1A31239  20.571  22.891   8.555
 7867POPC   D2A31240  20.638  22.901   8.255
 7867POPC   C3A31241  20.649  22.984   7.955
 7867POPC   C4A31242  20.658  22.938   7.655
 7867POPC   C1B31243  20.507  23.142   8.555
 7867POPC   C2B31244  20.513  23.209   8.255
 7867POPC   C3B31245  20.537  23.207   7.955
 7867POPC   C4B31246  20.574  23.164   7.655
 7868POPC   NC331247  29.949  19.016   9.455
 7868POPC   PO431248  29.937  19.091   9.155
 7868POPC   GL131249  29.904  19.024   8.855
 7868POPC   GL231250  29.795  19.105   8.855
 7868POPC   C1A31251  29.898  19.097   8.555
 7868POPC   D2A31252  29.941  19.061   8.255
 7868POPC   C3A31253  29.944  19.107   7.955
 7868POPC   C4A31254  29.904  19.068   7.655
 7868POPC   C1B31255  29.719  19.139   8.555
 7868POPC   C2B31256  29.743  19.195   8.255
 7868POPC   C3B31257  29.692  19.134   7.955
 7868POPC   C4B31258  29.696  19.204   7.655
 7869POPC   NC331259  14.389  41.590   9.455
 7869POPC   PO431260  14.379  41.517   9.155
 7869POPC   GL131261  14.421  41.594   8.855
 7869POPC   GL231262  14.450  41.727   8.855
 7869POPC   C1A31263  14.410  41.529   8.555
 7869POPC   D2A31264  14.390  41.563   8.255
 7869POPC   C3A31265  14.360  41.559   7.955
 7869POPC   C4A31266  14.430  41.547   7.655
 7869POPC   C1B31267  14.475  41.773   8.555
 7869POPC   C2B31268  14.443  41.795   8.255
 7869POPC   C3B31269  14.428  41.785   7.955
 7869POPC   C4B31270  14.477  41.850   7.655
 7870POPC   NC331271  32.293  41.512   9.455
 7870POPC   PO431272  32.259  41.570   9.155
 7870POPC   GL131273  32.224  41.555   8.855
 7870POPC   GL231274  32.350  41.585   8.855
 7870POPC   C1A31275  32.224  41.566   8.555
 7870POPC   D2A31276  32.236  41.537   8.255
 7870POPC   C3A31277  32.243  41.600   7.955
 7870POPC   C4A31278  32.275  41.531   7.655
 7870POPC   C1B31279  32.540  41.540   8.555
 7870POPC   C2B31280  32.492  41.537   8.255
 7870POPC   C3B31281  32.454  41.556   7.955
 7870POPC   C4B31282  32.483  41.615   7.655
 7871POPC   NC331283  22.176  26.024   9.455
 7871POPC   PO431284  22.122  26.064   9.155
 7871POPC   GL131285  22.114  26.048   8.855
 7871POPC   GL231286  22.010  26.045   8.855
 7871POPC   C1A31287  22.121  26.071   8.555
 7871POPC   D2A31288  22.127  26.053   8.255
 7871POPC   C3A31289  22.119  26.085   7.955
 7871POPC   C4A31290  22.208  26.076   7.655
 7871POPC   C1B31291  21.963  26.114   8.555
 7871POPC   C2B31292  21.946  26.148   8.255
 7871POPC   C3B31293  21.937  26.150   7.955
 7871POPC   C4B31294  21.878  26.130   7.655
 7872POPC   NC331295  18.291  34.556   9.455
 7872POPC   PO431296  18.248  34.542   9.155
 7872POPC   GL131297  18.306  34.555   8.855
 7872POPC   GL231298  18.294  34.660   8.855
 7872POPC   C1A31299  18.307  34.547   8.555
 7872POPC   D2A31300  18.310  34.534   8.255
 7872POPC   C3A31301  18.274  34.535   7.955
 7872POPC   C4A31302  18.318  34.579   7.655
 7872POPC   C1B31303  18.408  34.838   8.555
 7872POPC   C2B31304  18.411  34.795   8.255
 7872POPC   C3B31305  18.378  34.772   7.955
 7872POPC   C4B31306  18.443  34.797   7.655
 7873POPC   NC331307  43.877  14.413   9.455
 7873POPC   PO431308  43.861  14.385   9.155
 7873POPC   GL131309  43.887  14.406   8.855
 7873POPC   GL231310  44.014  14.457   8.855
 7873POPC   C1A31311  43.852  14.398   8.555
 7873POPC   D2A31312  43.851  14.434   8.255
 7873POPC   C3A31313  43.846  14.451   7.955
 7873POPC   C4A31314  43.915  14.449   7.655
 7873POPC   C1B31315  44.153  14.399   8.555
 7873POPC   C2B31316  44.131  14.450   8.255
 7873POPC   C3B31317  44.166  14.384   7.955
 7873POPC   C4B31318  44.171  14.396   7.655
 7874POPC   NC331319  29.901  37.707   9.455
 7874POPC   PO431320  29.928  37.706   9.155
 7874POPC   GL131321  29.945  37.695   8.855
 7874POPC   GL231322  29.928  37.531   8.855
 7874POPC   C1A31323  29.892  37.692   8.555
 7874POPC   D2A31324  29.930  37.684   8.255
 7874POPC   C3A31325  29.897  37.697   7.955
 7874POPC   C4A31326  29.918  37.634   7.655
 7874POPC   C1B31327  29.910  37.449   8.555
 7874POPC   C2B31328  29.900  37.384   8.255
 7874POPC   C3B31329  29.910  37.429   7.955
 7874POPC   C4B31330  29.888  37.477   7.655
 7875POPC   NC331331  41.526   0.393   9.455
 7875POPC   PO431332  41.536   0.428   9.155
 7875POPC   GL131333  41.580   0.483   8.855
 7875POPC   GL231334  41.673   0.332   8.855
 7875POPC   C1A31335  41.575   0.399   8.555
 7875POPC   D2A31336  41.594   0.463   8.255
 7875POPC   C3A31337  41.562   0.471   7.955
 7875POPC   C4A31338  41.552   0.435   7.655
 7875POPC   C1B31339  41.737   0.210   8.555
 7875POPC   C2B31340  41.654   0.257   8.255
 7875POPC   C3B31341  41.655   0.265   7.955
 7875POPC   C4B31342  41.654   0.194   7.655
 7876POPC   NC331343  21.387  35.380   9.455
 7876POPC   PO431344  21.366  35.361   9.155
 7876POPC   GL131345  21.348  35.328   8.855
 7876POPC   GL231346  21.259  35.297   8.855
 7876POPC   C1A31347  21.403  35.372   8.555
 7876POPC   D2A31348  21.397  35.389   8.255
 7876POPC   C3A31349  21.345  35.323   7.955
 7876POPC   C4A31350  21.386  35.330   7.655
 7876POPC   C1B31351  21.186  35.198   8.555
 7876POPC   C2B31352  21.189  35.236   8.255
 7876POPC   C3B31353  21.122  35.261   7.955
 7876POPC   C4B31354  21.167  35.211   7.655
 7877POPC   NC331355  25.231  36.876   9.455
 7877POPC   PO431356  25.250  36.929   9.155
 7877POPC   GL131357  25.307  36.939   8.855
 7877POPC   GL231358  25.241  36.811   8.855
 7877POPC   C1A31359  25.257  36.945   8.555
 7877POPC   D2A31360  25.282  36.875   8.255
 7877POPC   C3A31361  25.267  36.859   7.955
 7877POPC   C4A31362  25.254  36.885   7.655
 7877POPC   C1B31363  25.151  36.690   8.555
 7877POPC   C2B31364  25.187  36.643   8.255
 7877POPC   C3B31365  25.180  36.676   7.955
 7877POPC   C4B31366  25.150  36.666   7.655
 7878POPC   NC331367   4.331  19.068   9.455
 7878POPC   PO431368   4.298  19.034   9.155
 7878POPC   GL131369   4.347  19.024   8.855
 7878POPC   GL231370   4.433  19.125   8.855
 7878POPC   C1A31371   4.357  19.077   8.555
 7878POPC   D2A31372   4.337  19.088   8.255
 7878POPC   C3A31373   4.327  19.038   7.955
 7878POPC   C4A31374   4.292  19.058   7.655
 7878POPC   C1B31375   4.539  19.171   8.555
 7878POPC   C2B31376   4.568  19.248   8.255
 7878POPC   C3B31377   4.505  19.235   7.955
 7878POPC   C4B31378   4.528  19.191   7.655
 7879POPC   NC331379  19.025  32.241   9.455
 7879POPC   PO431380  19.030  32.271   9.155
 7879POPC   GL131381  19.057  32.221   8.855
 7879POPC   GL231382  19.081  32.180   8.855
 7879POPC   C1A31383  19.021  32.275   8.555
 7879POPC   D2A31384  19.054  32.236   8.255
 7879POPC   C3A31385  19.036  32.215   7.955
 7879POPC   C4A31386  19.046  32.243   7.655
 7879POPC   C1B31387  19.161  32.006   8.555
 7879POPC   C2B31388  19.115  32.009   8.255
 7879POPC   C3B31389  19.182  32.039   7.955
 7879POPC   C4B31390  19.186  31.996   7.655
 7880POPC   NC331391  23.671  19.800   9.455
 7880POPC   PO431392  23.717  19.786   9.155
 7880POPC   GL131393  23.762  19.882   8.855
 7880POPC   GL231394  23.816  19.874   8.855
 7880POPC   C1A31395  23.698  19.876   8.555
 7880POPC   D2A31396  23.733  19.786   8.255
 7880POPC   C3A31397  23.670  19.850   7.955
 7880POPC   C4A31398  23.676  19.861   7.655
 7880POPC   C1B31399  23.915  19.883   8.555
 7880POPC   C2B31400  23.924  19.856   8.255
 7880POPC   C3B31401  23.981  19.900   7.955
 7880POPC   C4B31402  23.934  19.904   7.655
 7881POPC   NC331403  36.156  15.934   9.455
 7881POPC   PO431404  36.155  15.975   9.155
 7881POPC   GL131405  36.120  15.923   8.855
 7881POPC   GL231406  36.104  15.874   8.855
 7881POPC   C1A31407  36.132  15.941   8.555
 7881POPC   D2A31408  36.116  15.974   8.255
 7881POPC   C3A31409  36.176  15.978   7.955
 7881POPC   C4A31410  36.154  15.948   7.655
 7881POPC   C1B31411  36.049  15.688   8.555
 7881POPC   C2B31412  36.067  15.672   8.255
 7881POPC   C3B31413  36.000  15.728   7.955
 7881POPC   C4B31414  36.058  15.758   7.655
 7882POPC   NC331415  17.496  28.350   9.455
 7882POPC   PO431416  17.530  28.364   9.155
 7882POPC   GL131417  17.484  28.336   8.855
 7882POPC   GL231418  17.542  28.317   8.855
 7882POPC   C1A31419  17.506  28.321   8.555
 7882POPC   D2A31420  17.467  28.394   8.255
 7882POPC   C3A31421  17.495  28.387   7.955
 7882POPC   C4A31422  17.534  28.363   7.655
 7882POPC   C1B31423  17.703  28.132   8.555
 7882POPC   C2B31424  17.672  28.146   8.255
 7882POPC   C3B31425  17.677  28.127   7.955
 7882POPC   C4B31426  17.676  28.136   7.655
 7883POPC   NC331427  33.004  43.844   9.455
 7883POPC   PO431428  33.069  43.879   9.155
 7883POPC   GL131429  33.015  43.885   8.855
 7883POPC   GL231430  33.060  43.760   8.855
 7883POPC   C1A31431  33.058  43.846   8.555
 7883POPC   D2A31432  33.010  43.892   8.255
 7883POPC   C3A31433  33.060  43.890   7.955
 7883POPC   C4A31434  33.038  43.896   7.655
 7883POPC   C1B31435  33.110  43.658   8.555
 7883POPC   C2B31436  33.113  43.682   8.255
 7883POPC   C3B31437  33.170  43.622   7.955
 7883POPC   C4B31438  33.086  43.614   7.655
 7884POPC   NC331439   1.980  22.966   9.455
 7884POPC   PO431440   1.956  22.907   9.155
 7884POPC   GL131441   1.984  22.941   8.855
 7884POPC   GL231442   1.936  22.814   8.855
 7884POPC   C1A31443   1.957  22.893   8.555
 7884POPC   D2A31444   1.983  22.905   8.255
 7884POPC   C3A31445   1.980  22.957   7.955
 7884POPC   C4A31446   2.013  22.938   7.655
 7884POPC   C1B31447   1.896  22.757   8.555
 7884POPC   C2B31448   1.922  22.666   8.255
 7884POPC   C3B31449   1.900  22.737   7.955
 7884POPC   C4B31450   1.926  22.704   7.655
 7885POPC   NC331451  22.896  38.464   9.455
 7885POPC   PO431452  22.970  38.464   9.155
 7885POPC   GL131453  22.932  38.468   8.855
 7885POPC   GL231454  22.877  38.308   8.855
 7885POPC   C1A31455  22.936  38.455   8.555
 7885POPC   D2A31456  22.917  38.427   8.255
 7885POPC   C3A31457  22.928  38.494   7.955
 7885POPC   C4A31458  22.928  38.426   7.655
 7885POPC   C1B31459  22.817  38.211   8.555
 7885POPC   C2B31460  22.773  38.259   8.255
 7885POPC   C3B31461  22.784  38.217   7.955
 7885POPC   C4B31462  22.795  38.207   7.655
 7886POPC   NC331463  33.829  30.682   9.455
 7886POPC   PO431464  33.754  30.712   9.155
 7886POPC   GL131465  33.758  30.690   8.855
 7886POPC   GL231466  33.731  30.650   8.855
 7886POPC   C1A31467  33.777  30.682   8.555
 7886POPC   D2A31468  33.839  30.703   8.255
 7886POPC   C3A31469  33.841  30.648   7.955
 7886POPC   C4A31470  33.850  30.714   7.655
 7886POPC   C1B31471  33.569  30.630   8.555
 7886POPC   C2B31472  33.547  30.620   8.255
 7886POPC   C3B31473  33.575  30.637   7.955
 7886POPC   C4B31474  33.550  30.610   7.655
 7887POPC   NC331475  39.979  19.056   9.455
 7887POPC   PO431476  39.987  19.052   9.155
 7887POPC   GL131477  39.973  19.040   8.855
 7887POPC   GL231478  39.914  19.100   8.855
 7887POPC   C1A31479  39.960  19.088   8.555
 7887POPC   D2A31480  39.988  19.078   8.255
 7887POPC   C3A31481  40.024  19.061   7.955
 7887POPC   C4A31482  40.014  19.030   7.655
 7887POPC   C1B31483  39.856  19.212   8.555
 7887POPC   C2B31484  39.837  19.198   8.255
 7887POPC   C3B31485  39.779  19.190   7.955
 7887POPC   C4B31486  39.831  19.190   7.655
 7888POPC   NC331487  27.580  23.716   9.455
 7888POPC   PO431488  27.569  23.684   9.155
 7888POPC   GL131489  27.636  23.759   8.855
 7888POPC   GL231490  27.503  23.746   8.855
 7888POPC   C1A31491  27.544  23.686   8.555
 7888POPC   D2A31492  27.603  23.683   8.255
 7888POPC   C3A31493  27.577  23.744   7.955
 7888POPC   C4A31494  27.621  23.680   7.655
 7888POPC   C1B31495  27.365  23.855   8.555
 7888POPC   C2B31496  27.353  23.834   8.255
 7888POPC   C3B31497  27.381  23.794   7.955
 7888POPC   C4B31498  27.406  23.780   7.655
 7889POPC   NC331499  44.708   9.719   9.455
 7889POPC   PO431500  44.666   9.760   9.155
 7889POPC   GL131501  44.698   9.770   8.855
 7889POPC   GL231502  44.507   9.760   8.855
 7889POPC   C1A31503  44.621   9.783   8.555
 7889POPC   D2A31504  44.683   9.705   8.255
 7889POPC   C3A31505  44.646   9.727   7.955
 7889POPC   C4A31506  44.655   9.793   7.655
 7889POPC   C1B31507  44.402   9.748   8.555
 7889POPC   C2B31508  44.437   9.744   8.255
 7889POPC   C3B31509  44.422   9.798   7.955
 7889POPC   C4B31510  44.444   9.796   7.655
 7890POPC   NC331511   1.219   1.970   9.455
 7890POPC   PO431512   1.209   1.959   9.155
 7890POPC   GL131513   1.187   1.969   8.855
 7890POPC   GL231514   1.136   1.944   8.855
 7890POPC   C1A31515   1.188   2.037   8.555
 7890POPC   D2A31516   1.252   2.026   8.255
 7890POPC   C3A31517   1.224   1.958   7.955
 7890POPC   C4A31518   1.172   1.996   7.655
 7890POPC   C1B31519   0.954   1.900   8.555
 7890POPC   C2B31520   1.021   1.972   8.255
 7890POPC   C3B31521   0.945   1.901   7.955
 7890POPC   C4B31522   1.000   1.953   7.655
 7891POPC   NC331523   7.471  31.426   9.455
 7891POPC   PO431524   7.403  31.485   9.155
 7891POPC   GL131525   7.422  31.519   8.855
 7891POPC   GL231526   7.283  31.427   8.855
 7891POPC   C1A31527   7.423  31.497   8.555
 7891POPC   D2A31528   7.404  31.512   8.255
 7891POPC   C3A31529   7.468  31.475   7.955
 7891POPC   C4A31530   7.444  31.423   7.655
 7891POPC   C1B31531   7.146  31.448   8.555
 7891POPC   C2B31532   7.221  31.440   8.255
 7891POPC   C3B31533   7.210  31.445   7.955
 7891POPC   C4B31534   7.215  31.454   7.655
 7892POPC   NC331535   5.919  25.255   9.455
 7892POPC   PO431536   5.875  25.242   9.155
 7892POPC   GL131537   5.826  25.312   8.855
 7892POPC   GL231538   5.867  25.164   8.855
 7892POPC   C1A31539   5.845  25.263   8.555
 7892POPC   D2A31540   5.853  25.303   8.255
 7892POPC   C3A31541   5.905  25.264   7.955
 7892POPC   C4A31542   5.915  25.262   7.655
 7892POPC   C1B31543   5.816  25.033   8.555
 7892POPC   C2B31544   5.831  24.998   8.255
 7892POPC   C3B31545   5.880  25.003   7.955
 7892POPC   C4B31546   5.828  25.052   7.655
 7893POPC   NC331547   3.536  17.524   9.455
 7893POPC   PO431548   3.499  17.529   9.155
 7893POPC   GL131549   3.534  17.555   8.855
 7893POPC   GL231550   3.437  17.361   8.855
 7893POPC   C1A31551   3.514  17.511   8.555
 7893POPC   D2A31552   3.542  17.529   8.255
 7893POPC   C3A31553   3.554  17.524   7.955
 7893POPC   C4A31554   3.537  17.546   7.655
 7893POPC   C1B31555   3.373  17.305   8.555
 7893POPC   C2B31556   3.389  17.326   8.255
 7893POPC   C3B31557   3.398  17.337   7.955
 7893POPC   C4B31558   3.370  17.341   7.655
 7894POPC   NC331559   4.274  10.532   9.455
 7894POPC   PO431560   4.362  10.526   9.155
 7894POPC   GL131561   4.361  10.562   8.855
 7894POPC   GL231562   4.460  10.580   8.855
 7894POPC   C1A31563   4.305  10.526   8.555
 7894POPC   D2A31564   4.322  10.502   8.255
 7894POPC   C3A31565   4.310  10.565   7.955
 7894POPC   C4A31566   4.285  10.543   7.655
 7894POPC   C1B31567   4.582  10.593   8.555
 7894POPC   C2B31568   4.510  10.568   8.255
 7894POPC   C3B31569   4.563  10.609   7.955
 7894POPC   C4B31570   4.506  10.592   7.655
 7895POPC   NC331571  33.068   1.971   9.455
 7895POPC   PO431572  33.056   2.018   9.155
 7895POPC   GL131573  32.977   2.019   8.855
 7895POPC   GL231574  33.115   1.933   8.855
 7895POPC   C1A31575  33.050   1.987   8.555
 7895POPC   D2A31576  32.995   2.022   8.255
 7895POPC   C3A31577  33.020   2.021   7.955
 7895POPC   C4A31578  32.998   2.008   7.655
 7895POPC   C1B31579  33.267   1.861   8.555
 7895POPC   C2B31580  33.229   1.879   8.255
 7895POPC   C3B31581  33.240   1.795   7.955
 7895POPC   C4B31582  33.220   1.798   7.655
 7896POPC   NC331583  15.993  10.545   9.455
 7896POPC   PO431584  15.909  10.536   9.155
 7896POPC   GL131585  15.992  10.497   8.855
 7896POPC   GL231586  15.815  10.596   8.855
 7896POPC   C1A31587  15.953  10.513   8.555
 7896POPC   D2A31588  15.928  10.508   8.255
 7896POPC   C3A31589  15.945  10.519   7.955
 7896POPC   C4A31590  15.953  10.540   7.655
 7896POPC   C1B31591  15.679  10.561   8.555
 7896POPC   C2B31592  15.688  10.562   8.255
 7896POPC   C3B31593  15.690  10.632   7.955
 7896POPC   C4B31594  15.712  10.583   7.655
 7897POPC   NC331595  10.492  36.116   9.455
 7897POPC   PO431596  10.562  36.095   9.155
 7897POPC   GL131597  10.496  36.139   8.855
 7897POPC   GL231598  10.625  36.134   8.855
 7897POPC   C1A31599  10.498  36.080   8.555
 7897POPC   D2A31600  10.559  36.120   8.255
 7897POPC   C3A31601  10.509  36.090   7.955
 7897POPC   C4A31602  10.544  36.085   7.655
 7897POPC   C1B31603  10.751  36.048   8.555
 7897POPC   C2B31604  10.815  36.109   8.255
 7897POPC   C3B31605  10.812  36.036   7.955
 7897POPC   C4B31606  10.730  36.031   7.655
 7898POPC   NC331607  19.009  41.581   9.455
 7898POPC   PO431608  19.106  41.582   9.155
 7898POPC   GL131609  19.015  41.607   8.855
 7898POPC   GL231610  18.963  41.473   8.855
 7898POPC   C1A31611  19.027  41.557   8.555
 7898POPC   D2A31612  19.012  41.552   8.255
 7898POPC   C3A31613  19.047  41.601   7.955
 7898POPC   C4A31614  19.013  41.580   7.655
 7898POPC   C1B31615  18.900  41.373   8.555
 7898POPC   C2B31616  18.883  41.414   8.255
 7898POPC   C3B31617  18.872  41.439   7.955
 7898POPC   C4B31618  18.864  41.383   7.655
 7899POPC   NC331619  26.022  41.509   9.455
 7899POPC   PO431620  26.018  41.511   9.155
 7899POPC   GL131621  26.038  41.581   8.855
 7899POPC   GL231622  26.062  41.700   8.855
 7899POPC   C1A31623  26.000  41.520   8.555
 7899POPC   D2A31624  26.055  41.606   8.255
 7899POPC   C3A31625  26.045  41.553   7.955
 7899POPC   C4A31626  26.013  41.594   7.655
 7899POPC   C1B31627  26.035  41.783   8.555
 7899POPC   C2B31628  25.960  41.847   8.255
 7899POPC   C3B31629  26.025  41.775   7.955
 7899POPC   C4B31630  25.953  41.841   7.655
 7900POPC   NC331631   4.308  37.720   9.455
 7900POPC   PO431632   4.281  37.632   9.155
 7900POPC   GL131633   4.358  37.713   8.855
 7900POPC   GL231634   4.244  37.707   8.855
 7900POPC   C1A31635   4.367  37.645   8.555
 7900POPC   D2A31636   4.310  37.638   8.255
 7900POPC   C3A31637   4.268  37.680   7.955
 7900POPC   C4A31638   4.281  37.649   7.655
 7900POPC   C1B31639   4.141  37.858   8.555
 7900POPC   C2B31640   4.087  37.852   8.255
 7900POPC   C3B31641   4.102  37.810   7.955
 7900POPC   C4B31642   4.132  37.875   7.655
 7901POPC   NC331643  34.598   5.899   9.455
 7901POPC   PO431644  34.570   5.916   9.155
 7901POPC   GL131645  34.556   5.831   8.855
 7901POPC   GL231646  34.588   5.787   8.855
 7901POPC   C1A31647  34.552   5.845   8.555
 7901POPC   D2A31648  34.541   5.854   8.255
 7901POPC   C3A31649  34.587   5.895   7.955
 7901POPC   C4A31650  34.544   5.856   7.655
 7901POPC   C1B31651  34.679   5.654   8.555
 7901POPC   C2B31652  34.729   5.640   8.255
 7901POPC   C3B31653  34.708   5.616   7.955
 7901POPC   C4B31654  34.735   5.627   7.655
 7902POPC   NC331655  15.932   1.164   9.455
 7902POPC   PO431656  15.943   1.195   9.155
 7902POPC   GL131657  15.961   1.179   8.855
 7902POPC   GL231658  15.858   1.332   8.855
 7902POPC   C1A31659  15.980   1.203   8.555
 7902POPC   D2A31660  15.975   1.227   8.255
 7902POPC   C3A31661  16.003   1.251   7.955
 7902POPC   C4A31662  15.949   1.241   7.655
 7902POPC   C1B31663  15.847   1.473   8.555
 7902POPC   C2B31664  15.875   1.478   8.255
 7902POPC   C3B31665  15.885   1.439   7.955
 7902POPC   C4B31666  15.897   1.432   7.655
 7903POPC   NC331667  23.687  39.275   9.455
 7903POPC   PO431668  23.673  39.268   9.155
 7903POPC   GL131669  23.759  39.191   8.855
 7903POPC   GL231670  23.607  39.108   8.855
 7903POPC   C1A31671  23.680  39.189   8.555
 7903POPC   D2A31672  23.716  39.209   8.255
 7903POPC   C3A31673  23.726  39.187   7.955
 7903POPC   C4A31674  23.709  39.190   7.655
 7903POPC   C1B31675  23.550  39.064   8.555
 7903POPC   C2B31676  23.564  38.981   8.255
 7903POPC   C3B31677  23.543  39.000   7.955
 7903POPC   C4B31678  23.571  39.013   7.655
 7904POPC   NC331679  22.186  12.097   9.455
 7904POPC   PO431680  22.130  12.098   9.155
 7904POPC   GL131681  22.130  12.072   8.855
 7904POPC   GL231682  22.303  11.960   8.855
 7904POPC   C1A31683  22.154  12.126   8.555
 7904POPC   D2A31684  22.189  12.085   8.255
 7904POPC   C3A31685  22.115  12.105   7.955
 7904POPC   C4A31686  22.121  12.089   7.655
 7904POPC   C1B31687  22.338  11.924   8.555
 7904POPC   C2B31688  22.343  11.903   8.255
 7904POPC   C3B31689  22.395  11.946   7.955
 7904POPC   C4B31690  22.388  11.964   7.655
 7905POPC   NC331691   6.650  25.273   9.455
 7905POPC   PO431692   6.620  25.299   9.155
 7905POPC   GL131693   6.644  25.286   8.855
 7905POPC   GL231694   6.493  25.280   8.855
 7905POPC   C1A31695   6.608  25.276   8.555
 7905POPC   D2A31696   6.659  25.232   8.255
 7905POPC   C3A31697   6.617  25.259   7.955
 7905POPC   C4A31698   6.598  25.230   7.655
 7905POPC   C1B31699   6.347  25.280   8.555
 7905POPC   C2B31700   6.436  25.284   8.255
 7905POPC   C3B31701   6.383  25.245   7.955
 7905POPC   C4B31702   6.364  25.241   7.655
 7906POPC   NC331703  32.261  43.907   9.455
 7906POPC   PO431704  32.237  43.870   9.155
 7906POPC   GL131705  32.240  43.849   8.855
 7906POPC   GL231706  32.187  43.852   8.855
 7906POPC   C1A31707  32.258  43.870   8.555
 7906POPC   D2A31708  32.210  43.932   8.255
 7906POPC   C3A31709  32.225  43.932   7.955
 7906POPC   C4A31710  32.295  43.904   7.655
 7906POPC   C1B31711  32.079  43.761   8.555
 7906POPC   C2B31712  32.040  43.751   8.255
 7906POPC   C3B31713  31.996  43.782   7.955
 7906POPC   C4B31714  32.018  43.774   7.655
 7907POPC   NC331715   2.718  38.464   9.455
 7907POPC   PO431716   2.731  38.453   9.155
 7907POPC   GL131717   2.730  38.419   8.855
 7907POPC   GL231718   2.672  38.430   8.855
 7907POPC   C1A31719   2.767  38.438   8.555
 7907POPC   D2A31720   2.723  38.496   8.255
 7907POPC   C3A31721   2.806  38.440   7.955
 7907POPC   C4A31722   2.766  38.446   7.655
 7907POPC   C1B31723   2.469  38.494   8.555
 7907POPC   C2B31724   2.522  38.499   8.255
 7907POPC   C3B31725   2.469  38.512   7.955
 7907POPC   C4B31726   2.530  38.441   7.655
 7908POPC   NC331727  29.164  43.844   9.455
 7908POPC   PO431728  29.155  43.898   9.155
 7908POPC   GL131729  29.127  43.934   8.855
 7908POPC   GL231730  29.244  43.743   8.855
 7908POPC   C1A31731  29.100  43.844   8.555
 7908POPC   D2A31732  29.107  43.898   8.255
 7908POPC   C3A31733  29.123  43.922   7.955
 7908POPC   C4A31734  29.178  43.861   7.655
 7908POPC   C1B31735  29.279  43.704   8.555
 7908POPC   C2B31736  29.290  43.629   8.255
 7908POPC   C3B31737  29.257  43.632   7.955
 7908POPC   C4B31738  29.213  43.658   7.655
 7909POPC   NC331739  35.361  11.299   9.455
 7909POPC   PO431740  35.397  11.346   9.155
 7909POPC   GL131741  35.344  11.264   8.855
 7909POPC   GL231742  35.333  11.468   8.855
 7909POPC   C1A31743  35.316  11.340   8.555
 7909POPC   D2A31744  35.304  11.290   8.255
 7909POPC   C3A31745  35.306  11.335   7.955
 7909POPC   C4A31746  35.319  11.317   7.655
 7909POPC   C1B31747  35.304  11.550   8.555
 7909POPC   C2B31748  35.364  11.585   8.255
 7909POPC   C3B31749  35.388  11.597   7.955
 7909POPC   C4B31750  35.360  11.588   7.655
 7910POPC   NC331751   5.889  19.063   9.455
 7910POPC   PO431752   5.904  19.029   9.155
 7910POPC   GL131753   5.832  19.082   8.855
 7910POPC   GL231754   5.751  19.113   8.855
 7910POPC   C1A31755   5.873  19.077   8.555
 7910POPC   D2A31756   5.824  19.050   8.255
 7910POPC   C3A31757   5.881  19.062   7.955
 7910POPC   C4A31758   5.912  19.055   7.655
 7910POPC   C1B31759   5.619  19.112   8.555
 7910POPC   C2B31760   5.630  19.145   8.255
 7910POPC   C3B31761   5.678  19.182   7.955
 7910POPC   C4B31762   5.612  19.130   7.655
 7911POPC   NC331763  22.173  35.305   9.455
 7911POPC   PO431764  22.123  35.379   9.155
 7911POPC   GL131765  22.140  35.389   8.855
 7911POPC   GL231766  22.289  35.413   8.855
 7911POPC   C1A31767  22.123  35.315   8.555
 7911POPC   D2A31768  22.130  35.393   8.255
 7911POPC   C3A31769  22.195  35.345   7.955
 7911POPC   C4A31770  22.113  35.378   7.655
 7911POPC   C1B31771  22.431  35.394   8.555
 7911POPC   C2B31772  22.366  35.460   8.255
 7911POPC   C3B31773  22.426  35.477   7.955
 7911POPC   C4B31774  22.352  35.443   7.655
 7912POPC   NC331775  42.312  33.004   9.455
 7912POPC   PO431776  42.370  33.061   9.155
 7912POPC   GL131777  42.291  33.019   8.855
 7912POPC   GL231778  42.398  32.976   8.855
 7912POPC   C1A31779  42.328  32.994   8.555
 7912POPC   D2A31780  42.381  33.043   8.255
 7912POPC   C3A31781  42.297  33.033   7.955
 7912POPC   C4A31782  42.327  32.993   7.655
 7912POPC   C1B31783  42.531  32.877   8.555
 7912POPC   C2B31784  42.483  32.857   8.255
 7912POPC   C3B31785  42.537  32.815   7.955
 7912POPC   C4B31786  42.467  32.863   7.655
 7913POPC   NC331787  16.758  30.671   9.455
 7913POPC   PO431788  16.697  30.699   9.155
 7913POPC   GL131789  16.772  30.702   8.855
 7913POPC   GL231790  16.824  30.682   8.855
 7913POPC   C1A31791  16.705  30.711   8.555
 7913POPC   D2A31792  16.756  30.730   8.255
 7913POPC   C3A31793  16.720  30.674   7.955
 7913POPC   C4A31794  16.742  30.682   7.655
 7913POPC   C1B31795  17.021  30.667   8.555
 7913POPC   C2B31796  17.018  30.728   8.255
 7913POPC   C3B31797  17.015  30.697   7.955
 7913POPC   C4B31798  17.009  30.703   7.655
 7914POPC   NC331799  40.794  18.313   9.455
 7914POPC   PO431800  40.811  18.314   9.155
 7914POPC   GL131801  40.794  18.326   8.855
 7914POPC   GL231802  40.830  18.201   8.855
 7914POPC   C1A31803  40.744  18.251   8.555
 7914POPC   D2A31804  40.790  18.245   8.255
 7914POPC   C3A31805  40.794  18.316   7.955
 7914POPC   C4A31806  40.769  18.246   7.655
 7914POPC   C1B31807  41.023  18.132   8.555
 7914POPC   C2B31808  40.979  18.128   8.255
 7914POPC   C3B31809  40.951  18.145   7.955
 7914POPC   C4B31810  40.929  18.131   7.655
 7915POPC   NC331811   6.671  12.051   9.455
 7915POPC   PO431812   6.694  12.068   9.155
 7915POPC   GL131813   6.628  12.118   8.855
 7915POPC   GL231814   6.647  12.174   8.855
 7915POPC   C1A31815   6.679  12.106   8.555
 7915POPC   D2A31816   6.641  12.125   8.255
 7915POPC   C3A31817   6.633  12.035   7.955
 7915POPC   C4A31818   6.675  12.086   7.655
 7915POPC   C1B31819   6.629  12.296   8.555
 7915POPC   C2B31820   6.601  12.300   8.255
 7915POPC   C3B31821   6.574  12.327   7.955
 7915POPC   C4B31822   6.550  12.316   7.655
 7916POPC   NC331823   1.981  40.054   9.455
 7916POPC   PO431824   1.995  39.996   9.155
 7916POPC   GL131825   1.963  39.973   8.855
 7916POPC   GL231826   1.846  40.058   8.855
 7916POPC   C1A31827   2.015  40.021   8.555
 7916POPC   D2A31828   2.005  40.034   8.255
 7916POPC   C3A31829   1.999  40.038   7.955
 7916POPC   C4A31830   1.980  40.016   7.655
 7916POPC   C1B31831   1.711  40.045   8.555
 7916POPC   C2B31832   1.713  40.060   8.255
 7916POPC   C3B31833   1.750  40.074   7.955
 7916POPC   C4B31834   1.747  40.062   7.655
 7917POPC   NC331835  36.152  11.343   9.455
 7917POPC   PO431836  36.153  11.252   9.155
 7917POPC   GL131837  36.159  11.291   8.855
 7917POPC   GL231838  35.979  11.319   8.855
 7917POPC   C1A31839  36.122  11.327   8.555
 7917POPC   D2A31840  36.107  11.321   8.255
 7917POPC   C3A31841  36.129  11.317   7.955
 7917POPC   C4A31842  36.155  11.292   7.655
 7917POPC   C1B31843  35.911  11.396   8.555
 7917POPC   C2B31844  35.946  11.379   8.255
 7917POPC   C3B31845  35.854  11.410   7.955
 7917POPC   C4B31846  35.890  11.361   7.655
 7918POPC   NC331847  43.858   9.752   9.455
 7918POPC   PO431848  43.857   9.726   9.155
 7918POPC   GL131849  43.930   9.739   8.855
 7918POPC   GL231850  43.722   9.743   8.855
 7918POPC   C1A31851  43.845   9.715   8.555
 7918POPC   D2A31852  43.909   9.741   8.255
 7918POPC   C3A31853  43.881   9.723   7.955
 7918POPC   C4A31854  43.894   9.788   7.655
 7918POPC   C1B31855  43.622   9.746   8.555
 7918POPC   C2B31856  43.673   9.779   8.255
 7918POPC   C3B31857  43.647   9.723   7.955
 7918POPC   C4B31858  43.599   9.747   7.655
 7919POPC   NC331859  26.011  29.923   9.455
 7919POPC   PO431860  25.994  29.943   9.155
 7919POPC   GL131861  26.054  29.917   8.855
 7919POPC   GL231862  26.157  29.845   8.855
 7919POPC   C1A31863  26.080  29.932   8.555
 7919POPC   D2A31864  26.006  29.908   8.255
 7919POPC   C3A31865  26.046  29.935   7.955
 7919POPC   C4A31866  26.050  29.966   7.655
 7919POPC   C1B31867  26.227  29.776   8.555
 7919POPC   C2B31868  26.248  29.798   8.255
 7919POPC   C3B31869  26.289  29.861   7.955
 7919POPC   C4B31870  26.271  29.817   7.655
 7920POPC   NC331871   5.102   8.156   9.455
 7920POPC   PO431872   5.097   8.222   9.155
 7920POPC   GL131873   5.076   8.202   8.855
 7920POPC   GL231874   5.018   8.268   8.855
 7920POPC   C1A31875   5.142   8.221   8.555
 7920POPC   D2A31876   5.142   8.191   8.255
 7920POPC   C3A31877   5.114   8.210   7.955
 7920POPC   C4A31878   5.137   8.189   7.655
 7920POPC   C1B31879   4.873   8.276   8.555
 7920POPC   C2B31880   4.838   8.260   8.255
 7920POPC   C3B31881   4.830   8.230   7.955
 7920POPC   C4B31882   4.902   8.269   7.655
 7921POPC   NC331883  39.234  40.825   9.455
 7921POPC   PO431884  39.260  40.811   9.155
 7921POPC   GL131885  39.199  40.802   8.855
 7921POPC   GL231886  39.336  40.746   8.855
 7921POPC   C1A31887  39.192  40.776   8.555
 7921POPC   D2A31888  39.198  40.800   8.255
 7921POPC   C3A31889  39.202  40.803   7.955
 7921POPC   C4A31890  39.203  40.828   7.655
 7921POPC   C1B31891  39.408  40.656   8.555
 7921POPC   C2B31892  39.464  40.648   8.255
 7921POPC   C3B31893  39.453  40.629   7.955
 7921POPC   C4B31894  39.468  40.657   7.655
 7922POPC   NC331895  43.908  34.564   9.455
 7922POPC   PO431896  43.890  34.538   9.155
 7922POPC   GL131897  43.843  34.542   8.855
 7922POPC   GL231898  43.794  34.657   8.855
 7922POPC   C1A31899  43.931  34.554   8.555
 7922POPC   D2A31900  43.868  34.579   8.255
 7922POPC   C3A31901  43.841  34.569   7.955
 7922POPC   C4A31902  43.902  34.600   7.655
 7922POPC   C1B31903  43.663  34.747   8.555
 7922POPC   C2B31904  43.646  34.720   8.255
 7922POPC   C3B31905  43.657  34.740   7.955
 7922POPC   C4B31906  43.644  34.755   7.655
 7923POPC   NC331907  15.935   6.680   9.455
 7923POPC   PO431908  15.966   6.629   9.155
 7923POPC   GL131909  15.918   6.641   8.855
 7923POPC   GL231910  15.901   6.558   8.855
 7923POPC   C1A31911  15.956   6.631   8.555
 7923POPC   D2A31912  15.989   6.673   8.255
 7923POPC   C3A31913  15.939   6.619   7.955
 7923POPC   C4A31914  15.934   6.625   7.655
 7923POPC   C1B31915  15.942   6.433   8.555
 7923POPC   C2B31916  15.855   6.364   8.255
 7923POPC   C3B31917  15.937   6.441   7.955
 7923POPC   C4B31918  15.875   6.351   7.655
 7924POPC   NC331919  19.817  33.792   9.455
 7924POPC   PO431920  19.841  33.759   9.155
 7924POPC   GL131921  19.814  33.775   8.855
 7924POPC   GL231922  19.756  33.696   8.855
 7924POPC   C1A31923  19.864  33.773   8.555
 7924POPC   D2A31924  19.822  33.800   8.255
 7924POPC   C3A31925  19.866  33.832   7.955
 7924POPC   C4A31926  19.837  33.805   7.655
 7924POPC   C1B31927  19.662  33.592   8.555
 7924POPC   C2B31928  19.724  33.574   8.255
 7924POPC   C3B31929  19.726  33.557   7.955
 7924POPC   C4B31930  19.647  33.587   7.655
 7925POPC   NC331931  11.310  15.145   9.455
 7925POPC   PO431932  11.315  15.210   9.155
 7925POPC   GL131933  11.251  15.228   8.855
 7925POPC   GL231934  11.333  15.101   8.855
 7925POPC   C1A31935  11.330  15.179   8.555
 7925POPC   D2A31936  11.310  15.143   8.255
 7925POPC   C3A31937  11.288  15.212   7.955
 7925POPC   C4A31938  11.323  15.171   7.655
 7925POPC   C1B31939  11.378  14.942   8.555
 7925POPC   C2B31940  11.349  14.923   8.255
 7925POPC   C3B31941  11.352  14.954   7.955
 7925POPC   C4B31942  11.298  14.935   7.655
 7926POPC   NC331943  13.671   1.998   9.455
 7926POPC   PO431944  13.674   1.942   9.155
 7926POPC   GL131945  13.607   1.947   8.855
 7926POPC   GL231946  13.542   1.913   8.855
 7926POPC   C1A31947  13.584   1.976   8.555
 7926POPC   D2A31948  13.645   2.004   8.255
 7926POPC   C3A31949  13.617   1.977   7.955
 7926POPC   C4A31950  13.676   2.000   7.655
 7926POPC   C1B31951  13.366   1.903   8.555
 7926POPC   C2B31952  13.427   1.905   8.255
 7926POPC   C3B31953  13.401   1.966   7.955
 7926POPC   C4B31954  13.354   1.962   7.655
 7927POPC   NC331955  44.689  40.759   9.455
 7927POPC   PO431956  44.671  40.830   9.155
 7927POPC   GL131957  44.706  40.759   8.855
 7927POPC   GL231958  44.745  40.691   8.855
 7927POPC   C1A31959  44.628  40.776   8.555
 7927POPC   D2A31960  44.618  40.815   8.255
 7927POPC   C3A31961  44.640  40.766   7.955
 7927POPC   C4A31962  44.696  40.753   7.655
 7927POPC   C1B31963  44.877  40.591   8.555
 7927POPC   C2B31964  44.878  40.614   8.255
 7927POPC   C3B31965  44.863  40.615   7.955
 7927POPC   C4B31966  44.827  40.642   7.655
 7928POPC   NC331967  12.028  39.984   9.455
 7928POPC   PO431968  12.068  40.033   9.155
 7928POPC   GL131969  12.026  40.011   8.855
 7928POPC   GL231970  12.212  40.104   8.855
 7928POPC   C1A31971  12.108  40.047   8.555
 7928POPC   D2A31972  12.046  40.017   8.255
 7928POPC   C3A31973  12.061  39.986   7.955
 7928POPC   C4A31974  12.095  40.001   7.655
 7928POPC   C1B31975  12.268  40.181   8.555
 7928POPC   C2B31976  12.262  40.191   8.255
 7928POPC   C3B31977  12.298  40.202   7.955
 7928POPC   C4B31978  12.237  40.202   7.655
 7929POPC   NC331979  19.054  15.221   9.455
 7929POPC   PO431980  19.103  15.139   9.155
 7929POPC   GL131981  19.064  15.162   8.855
 7929POPC   GL231982  19.062  15.058   8.855
 7929POPC   C1A31983  19.010  15.215   8.555
 7929POPC   D2A31984  19.016  15.146   8.255
 7929POPC   C3A31985  19.065  15.131   7.955
 7929POPC   C4A31986  19.038  15.195   7.655
 7929POPC   C1B31987  19.119  14.906   8.555
 7929POPC   C2B31988  19.116  14.956   8.255
 7929POPC   C3B31989  19.049  14.901   7.955
 7929POPC   C4B31990  19.108  14.966   7.655
 7930POPC   NC331991  19.873  26.061   9.455
 7930POPC   PO431992  19.807  26.061   9.155
 7930POPC   GL131993  19.816  26.053   8.855
 7930POPC   GL231994  19.966  26.150   8.855
 7930POPC   C1A31995  19.804  26.077   8.555
 7930POPC   D2A31996  19.869  26.047   8.255
 7930POPC   C3A31997  19.805  26.003   7.955
 7930POPC   C4A31998  19.882  25.998   7.655
 7930POPC   C1B31999  19.998  26.243   8.555
 7930POPC   C2B32000  20.045  26.197   8.255
 7930POPC   C3B32001  19.952  26.210   7.955
 7930POPC   C4B32002  20.017  26.211   7.655
 7931POPC   NC332003  19.856  32.209   9.455
 7931POPC   PO432004  19.823  32.290   9.155
 7931POPC   GL132005  19.868  32.214   8.855
 7931POPC   GL232006  19.807  32.127   8.855
 7931POPC   C1A32007  19.842  32.222   8.555
 7931POPC   D2A32008  19.829  32.257   8.255
 7931POPC   C3A32009  19.857  32.214   7.955
 7931POPC   C4A32010  19.863  32.208   7.655
 7931POPC   C1B32011  19.830  32.026   8.555
 7931POPC   C2B32012  19.835  32.026   8.255
 7931POPC   C3B32013  19.850  31.983   7.955
 7931POPC   C4B32014  19.826  32.010   7.655
 7932POPC   NC332015   8.178  19.813   9.455
 7932POPC   PO432016   8.212  19.810   9.155
 7932POPC   GL132017   8.230  19.811   8.855
 7932POPC   GL232018   8.193  19.961   8.855
 7932POPC   C1A32019   8.192  19.830   8.555
 7932POPC   D2A32020   8.148  19.846   8.255
 7932POPC   C3A32021   8.239  19.789   7.955
 7932POPC   C4A32022   8.224  19.816   7.655
 7932POPC   C1B32023   8.259  20.098   8.555
 7932POPC   C2B32024   8.237  20.076   8.255
 7932POPC   C3B32025   8.203  20.104   7.955
 7932POPC   C4B32026   8.252  20.092   7.655
 7933POPC   NC332027  36.882  36.949   9.455
 7933POPC   PO432028  36.904  36.940   9.155
 7933POPC   GL132029  36.880  36.882   8.855
 7933POPC   GL232030  37.039  36.824   8.855
 7933POPC   C1A32031  36.909  36.866   8.555
 7933POPC   D2A32032  36.900  36.867   8.255
 7933POPC   C3A32033  36.886  36.925   7.955
 7933POPC   C4A32034  36.900  36.886   7.655
 7933POPC   C1B32035  37.117  36.740   8.555
 7933POPC   C2B32036  37.099  36.762   8.255
 7933POPC   C3B32037  37.079  36.734   7.955
 7933POPC   C4B32038  37.122  36.718   7.655
 7934POPC   NC332039  23.671  40.801   9.455
 7934POPC   PO432040  23.707  40.780   9.155
 7934POPC   GL132041  23.749  40.768   8.855
 7934POPC   GL232042  23.610  40.863   8.855
 7934POPC   C1A32043  23.671  40.744   8.555
 7934POPC   D2A32044  23.747  40.770   8.255
 7934POPC   C3A32045  23.717  40.757   7.955
 7934POPC   C4A32046  23.681  40.772   7.655
 7934POPC   C1B32047  23.537  41.003   8.555
 7934POPC   C2B32048  23.585  40.930   8.255
 7934POPC   C3B32049  23.544  40.991   7.955
 7934POPC   C4B32050  23.578  40.983   7.655
 7935POPC   NC332051   9.728  41.591   9.455
 7935POPC   PO432052   9.710  41.520   9.155
 7935POPC   GL132053   9.731  41.535   8.855
 7935POPC   GL232054   9.611  41.540   8.855
 7935POPC   C1A32055   9.787  41.549   8.555
 7935POPC   D2A32056   9.704  41.540   8.255
 7935POPC   C3A32057   9.773  41.571   7.955
 7935POPC   C4A32058   9.703  41.547   7.655
 7935POPC   C1B32059   9.509  41.613   8.555
 7935POPC   C2B32060   9.534  41.580   8.255
 7935POPC   C3B32061   9.547  41.615   7.955
 7935POPC   C4B32062   9.548  41.585   7.655
 7936POPC   NC332063  16.717   8.168   9.455
 7936POPC   PO432064  16.764   8.189   9.155
 7936POPC   GL132065  16.753   8.187   8.855
 7936POPC   GL232066  16.785   8.130   8.855
 7936POPC   C1A32067  16.686   8.177   8.555
 7936POPC   D2A32068  16.779   8.211   8.255
 7936POPC   C3A32069  16.749   8.220   7.955
 7936POPC   C4A32070  16.778   8.205   7.655
 7936POPC   C1B32071  16.935   8.020   8.555
 7936POPC   C2B32072  16.970   8.005   8.255
 7936POPC   C3B32073  16.941   8.058   7.955
 7936POPC   C4B32074  16.893   8.076   7.655
 7937POPC   NC332075  36.105  12.038   9.455
 7937POPC   PO432076  36.139  12.081   9.155
 7937POPC   GL132077  36.104  12.071   8.855
 7937POPC   GL232078  36.158  11.984   8.855
 7937POPC   C1A32079  36.173  12.087   8.555
 7937POPC   D2A32080  36.096  12.098   8.255
 7937POPC   C3A32081  36.133  12.096   7.955
 7937POPC   C4A32082  36.134  12.045   7.655
 7937POPC   C1B32083  36.110  11.829   8.555
 7937POPC   C2B32084  36.074  11.828   8.255
 7937POPC   C3B32085  36.083  11.780   7.955
 7937POPC   C4B32086  36.102  11.790   7.655
 7938POPC   NC332087  24.475  10.511   9.455
 7938POPC   PO432088  24.471  10.475   9.155
 7938POPC   GL132089  24.519  10.553   8.855
 7938POPC   GL232090  24.375  10.511   8.855
 7938POPC   C1A32091  24.498  10.549   8.555
 7938POPC   D2A32092  24.498  10.529   8.255
 7938POPC   C3A32093  24.494  10.487   7.955
 7938POPC   C4A32094  24.484  10.569   7.655
 7938POPC   C1B32095  24.194  10.511   8.555
 7938POPC   C2B32096  24.272  10.501   8.255
 7938POPC   C3B32097  24.252  10.522   7.955
 7938POPC   C4B32098  24.193  10.527   7.655
 7939POPC   NC332099  15.139  36.876   9.455
 7939POPC   PO432100  15.184  36.935   9.155
 7939POPC   GL132101  15.186  36.871   8.855
 7939POPC   GL232102  15.142  37.038   8.855
 7939POPC   C1A32103  15.222  36.888   8.555
 7939POPC   D2A32104  15.222  36.858   8.255
 7939POPC   C3A32105  15.207  36.945   7.955
 7939POPC   C4A32106  15.204  36.873   7.655
 7939POPC   C1B32107  15.113  37.167   8.555
 7939POPC   C2B32108  15.170  37.158   8.255
 7939POPC   C3B32109  15.094  37.109   7.955
 7939POPC   C4B32110  15.168  37.179   7.655
 7940POPC   NC332111   2.014  25.309   9.455
 7940POPC   PO432112   1.976  25.294   9.155
 7940POPC   GL132113   1.955  25.248   8.855
 7940POPC   GL232114   1.879  25.329   8.855
 7940POPC   C1A32115   2.016  25.255   8.555
 7940POPC   D2A32116   1.942  25.243   8.255
 7940POPC   C3A32117   2.033  25.277   7.955
 7940POPC   C4A32118   1.983  25.261   7.655
 7940POPC   C1B32119   1.739  25.314   8.555
 7940POPC   C2B32120   1.704  25.315   8.255
 7940POPC   C3B32121   1.733  25.346   7.955
 7940POPC   C4B32122   1.753  25.391   7.655
 7941POPC   NC332123  29.106   5.141   9.455
 7941POPC   PO432124  29.164   5.066   9.155
 7941POPC   GL132125  29.122   5.087   8.855
 7941POPC   GL232126  29.006   5.130   8.855
 7941POPC   C1A32127  29.111   5.046   8.555
 7941POPC   D2A32128  29.181   5.112   8.255
 7941POPC   C3A32129  29.138   5.060   7.955
 7941POPC   C4A32130  29.166   5.067   7.655
 7941POPC   C1B32131  28.948   5.190   8.555
 7941POPC   C2B32132  28.934   5.176   8.255
 7941POPC   C3B32133  28.959   5.237   7.955
 7941POPC   C4B32134  28.885   5.221   7.655
 7942POPC   NC332135  27.560  17.476   9.455
 7942POPC   PO432136  27.641  17.486   9.155
 7942POPC   GL132137  27.605  17.469   8.855
 7942POPC   GL232138  27.557  17.387   8.855
 7942POPC   C1A32139  27.607  17.463   8.555
 7942POPC   D2A32140  27.563  17.538   8.255
 7942POPC   C3A32141  27.636  17.551   7.955
 7942POPC   C4A32142  27.636  17.502   7.655
 7942POPC   C1B32143  27.542  17.304   8.555
 7942POPC   C2B32144  27.513  17.250   8.255
 7942POPC   C3B32145  27.514  17.228   7.955
 7942POPC   C4B32146  27.516  17.225   7.655
 7943POPC   NC332147  19.107  23.666   9.455
 7943POPC   PO432148  19.041  23.741   9.155
 7943POPC   GL132149  19.039  23.694   8.855
 7943POPC   GL232150  18.947  23.763   8.855
 7943POPC   C1A32151  19.070  23.693   8.555
 7943POPC   D2A32152  19.028  23.668   8.255
 7943POPC   C3A32153  19.061  23.694   7.955
 7943POPC   C4A32154  19.073  23.698   7.655
 7943POPC   C1B32155  18.901  23.927   8.555
 7943POPC   C2B32156  18.877  23.953   8.255
 7943POPC   C3B32157  18.902  23.864   7.955
 7943POPC   C4B32158  18.937  23.885   7.655
 7944POPC   NC332159  33.841  32.247   9.455
 7944POPC   PO432160  33.826  32.200   9.155
 7944POPC   GL132161  33.808  32.215   8.855
 7944POPC   GL232162  33.909  32.379   8.855
 7944POPC   C1A32163  33.794  32.226   8.555
 7944POPC   D2A32164  33.847  32.238   8.255
 7944POPC   C3A32165  33.805  32.250   7.955
 7944POPC   C4A32166  33.786  32.230   7.655
 7944POPC   C1B32167  34.014  32.427   8.555
 7944POPC   C2B32168  34.021  32.464   8.255
 7944POPC   C3B32169  34.028  32.442   7.955
 7944POPC   C4B32170  34.001  32.394   7.655
 7945POPC   NC332171   9.016   7.400   9.455
 7945POPC   PO432172   9.003   7.425   9.155
 7945POPC   GL132173   9.022   7.437   8.855
 7945POPC   GL232174   8.863   7.551   8.855
 7945POPC   C1A32175   8.971   7.373   8.555
 7945POPC   D2A32176   8.985   7.388   8.255
 7945POPC   C3A32177   8.972   7.386   7.955
 7945POPC   C4A32178   9.000   7.433   7.655
 7945POPC   C1B32179   8.743   7.593   8.555
 7945POPC   C2B32180   8.815   7.597   8.255
 7945POPC   C3B32181   8.830   7.623   7.955
 7945POPC   C4B32182   8.762   7.593   7.655
 7946POPC   NC332183  24.511  31.498   9.455
 7946POPC   PO432184  24.475  31.462   9.155
 7946POPC   GL132185  24.441  31.493   8.855
 7946POPC   GL232186  24.496  31.596   8.855
 7946POPC   C1A32187  24.467  31.469   8.555
 7946POPC   D2A32188  24.515  31.438   8.255
 7946POPC   C3A32189  24.452  31.507   7.955
 7946POPC   C4A32190  24.484  31.438   7.655
 7946POPC   C1B32191  24.447  31.676   8.555
 7946POPC   C2B32192  24.532  31.675   8.255
 7946POPC   C3B32193  24.472  31.761   7.955
 7946POPC   C4B32194  24.523  31.695   7.655
 7947POPC   NC332195   3.510  15.956   9.455
 7947POPC   PO432196   3.578  15.985   9.155
 7947POPC   GL132197   3.530  15.955   8.855
 7947POPC   GL232198   3.636  16.108   8.855
 7947POPC   C1A32199   3.506  15.981   8.555
 7947POPC   D2A32200   3.539  15.944   8.255
 7947POPC   C3A32201   3.565  15.931   7.955
 7947POPC   C4A32202   3.544  15.967   7.655
 7947POPC   C1B32203   3.661  16.150   8.555
 7947POPC   C2B32204   3.591  16.148   8.255
 7947POPC   C3B32205   3.662  16.168   7.955
 7947POPC   C4B32206   3.680  16.164   7.655
 7948POPC   NC332207  42.382  31.463   9.455
 7948POPC   PO432208  42.362  31.434   9.155
 7948POPC   GL132209  42.364  31.487   8.855
 7948POPC   GL232210  42.270  31.308   8.855
 7948POPC   C1A32211  42.358  31.517   8.555
 7948POPC   D2A32212  42.322  31.517   8.255
 7948POPC   C3A32213  42.298  31.433   7.955
 7948POPC   C4A32214  42.294  31.508   7.655
 7948POPC   C1B32215  42.276  31.274   8.555
 7948POPC   C2B32216  42.254  31.275   8.255
 7948POPC   C3B32217  42.310  31.238   7.955
 7948POPC   C4B32218  42.313  31.185   7.655
 7949POPC   NC332219  21.385  33.063   9.455
 7949POPC   PO432220  21.398  33.072   9.155
 7949POPC   GL132221  21.340  33.034   8.855
 7949POPC   GL232222  21.336  32.956   8.855
 7949POPC   C1A32223  21.394  33.023   8.555
 7949POPC   D2A32224  21.356  32.997   8.255
 7949POPC   C3A32225  21.412  33.067   7.955
 7949POPC   C4A32226  21.423  33.022   7.655
 7949POPC   C1B32227  21.332  32.812   8.555
 7949POPC   C2B32228  21.330  32.817   8.255
 7949POPC   C3B32229  21.315  32.829   7.955
 7949POPC   C4B32230  21.346  32.778   7.655
 7950POPC   NC332231  35.318  35.401   9.455
 7950POPC   PO432232  35.382  35.347   9.155
 7950POPC   GL132233  35.379  35.374   8.855
 7950POPC   GL232234  35.197  35.281   8.855
 7950POPC   C1A32235  35.374  35.325   8.555
 7950POPC   D2A32236  35.339  35.326   8.255
 7950POPC   C3A32237  35.364  35.353   7.955
 7950POPC   C4A32238  35.377  35.399   7.655
 7950POPC   C1B32239  35.112  35.281   8.555
 7950POPC   C2B32240  35.166  35.248   8.255
 7950POPC   C3B32241  35.146  35.264   7.955
 7950POPC   C4B32242  35.108  35.244   7.655
 7951POPC   NC332243  32.978  43.083   9.455
 7951POPC   PO432244  33.041  43.112   9.155
 7951POPC   GL132245  32.983  43.102   8.855
 7951POPC   GL232246  32.880  43.077   8.855
 7951POPC   C1A32247  33.027  43.145   8.555
 7951POPC   D2A32248  33.060  43.090   8.255
 7951POPC   C3A32249  33.044  43.115   7.955
 7951POPC   C4A32250  33.023  43.082   7.655
 7951POPC   C1B32251  32.768  43.091   8.555
 7951POPC   C2B32252  32.790  43.102   8.255
 7951POPC   C3B32253  32.786  43.074   7.955
 7951POPC   C4B32254  32.756  43.043   7.655
 7952POPC   NC332255  16.767  17.557   9.455
 7952POPC   PO432256  16.721  17.497   9.155
 7952POPC   GL132257  16.734  17.534   8.855
 7952POPC   GL232258  16.654  17.596   8.855
 7952POPC   C1A32259  16.687  17.487   8.555
 7952POPC   D2A32260  16.683  17.500   8.255
 7952POPC   C3A32261  16.731  17.536   7.955
 7952POPC   C4A32262  16.751  17.473   7.655
 7952POPC   C1B32263  16.593  17.664   8.555
 7952POPC   C2B32264  16.546  17.740   8.255
 7952POPC   C3B32265  16.528  17.686   7.955
 7952POPC   C4B32266  16.620  17.660   7.655
 7953POPC   NC332267   7.409  38.421   9.455
 7953POPC   PO432268   7.468  38.480   9.155
 7953POPC   GL132269   7.430  38.407   8.855
 7953POPC   GL232270   7.379  38.335   8.855
 7953POPC   C1A32271   7.465  38.410   8.555
 7953POPC   D2A32272   7.378  38.445   8.255
 7953POPC   C3A32273   7.421  38.442   7.955
 7953POPC   C4A32274   7.406  38.502   7.655
 7953POPC   C1B32275   7.392  38.209   8.555
 7953POPC   C2B32276   7.400  38.237   8.255
 7953POPC   C3B32277   7.432  38.209   7.955
 7953POPC   C4B32278   7.414  38.201   7.655
 7954POPC   NC332279   2.010   2.003   9.455
 7954POPC   PO432280   2.018   1.989   9.155
 7954POPC   GL132281   2.035   2.019   8.855
 7954POPC   GL232282   2.143   1.908   8.855
 7954POPC   C1A32283   2.016   1.990   8.555
 7954POPC   D2A32284   2.010   1.954   8.255
 7954POPC   C3A32285   1.961   1.978   7.955
 7954POPC   C4A32286   1.972   1.948   7.655
 7954POPC   C1B32287   2.215   1.848   8.555
 7954POPC   C2B32288   2.193   1.853   8.255
 7954POPC   C3B32289   2.195   1.866   7.955
 7954POPC   C4B32290   2.200   1.856   7.655
 7955POPC   NC332291  18.297  32.242   9.455
 7955POPC   PO432292  18.235  32.280   9.155
 7955POPC   GL132293  18.234  32.254   8.855
 7955POPC   GL232294  18.203  32.342   8.855
 7955POPC   C1A32295  18.302  32.200   8.555
 7955POPC   D2A32296  18.289  32.275   8.255
 7955POPC   C3A32297  18.270  32.265   7.955
 7955POPC   C4A32298  18.312  32.249   7.655
 7955POPC   C1B32299  18.098  32.454   8.555
 7955POPC   C2B32300  18.113  32.418   8.255
 7955POPC   C3B32301  18.123  32.427   7.955
 7955POPC   C4B32302  18.068  32.457   7.655
 7956POPC   NC332303   6.654  23.686   9.455
 7956POPC   PO432304   6.631  23.752   9.155
 7956POPC   GL132305   6.635  23.758   8.855
 7956POPC   GL232306   6.701  23.858   8.855
 7956POPC   C1A32307   6.617  23.763   8.555
 7956POPC   D2A32308   6.612  23.756   8.255
 7956POPC   C3A32309   6.669  23.669   7.955
 7956POPC   C4A32310   6.687  23.762   7.655
 7956POPC   C1B32311   6.768  23.958   8.555
 7956POPC   C2B32312   6.750  23.935   8.255
 7956POPC   C3B32313   6.831  23.894   7.955
 7956POPC   C4B32314   6.799  23.940   7.655
 7957POPC   NC332315  23.747  26.823   9.455
 7957POPC   PO432316  23.665  26.785   9.155
 7957POPC   GL132317  23.735  26.806   8.855
 7957POPC   GL232318  23.772  26.701   8.855
 7957POPC   C1A32319  23.738  26.800   8.555
 7957POPC   D2A32320  23.687  26.833   8.255
 7957POPC   C3A32321  23.678  26.789   7.955
 7957POPC   C4A32322  23.679  26.773   7.655
 7957POPC   C1B32323  23.883  26.641   8.555
 7957POPC   C2B32324  23.834  26.606   8.255
 7957POPC   C3B32325  23.833  26.657   7.955
 7957POPC   C4B32326  23.808  26.570   7.655
 7958POPC   NC332327  36.906  17.508   9.455
 7958POPC   PO432328  36.945  17.509   9.155
 7958POPC   GL132329  36.911  17.510   8.855
 7958POPC   GL232330  36.893  17.619   8.855
 7958POPC   C1A32331  36.937  17.482   8.555
 7958POPC   D2A32332  36.886  17.467   8.255
 7958POPC   C3A32333  36.923  17.555   7.955
 7958POPC   C4A32334  36.932  17.557   7.655
 7958POPC   C1B32335  36.957  17.802   8.555
 7958POPC   C2B32336  36.890  17.788   8.255
 7958POPC   C3B32337  36.913  17.723   7.955
 7958POPC   C4B32338  36.973  17.756   7.655
 7959POPC   NC332339  41.584   2.791   9.455
 7959POPC   PO432340  41.559   2.792   9.155
 7959POPC   GL132341  41.605   2.734   8.855
 7959POPC   GL232342  41.566   2.618   8.855
 7959POPC   C1A32343  41.545   2.736   8.555
 7959POPC   D2A32344  41.583   2.796   8.255
 7959POPC   C3A32345  41.585   2.810   7.955
 7959POPC   C4A32346  41.601   2.815   7.655
 7959POPC   C1B32347  41.662   2.549   8.555
 7959POPC   C2B32348  41.600   2.554   8.255
 7959POPC   C3B32349  41.655   2.561   7.955
 7959POPC   C4B32350  41.601   2.577   7.655
 7960POPC   NC332351  11.252   7.395   9.455
 7960POPC   PO432352  11.269   7.427   9.155
 7960POPC   GL132353  11.251   7.391   8.855
 7960POPC   GL232354  11.270   7.350   8.855
 7960POPC   C1A32355  11.264   7.408   8.555
 7960POPC   D2A32356  11.345   7.421   8.255
 7960POPC   C3A32357  11.344   7.441   7.955
 7960POPC   C4A32358  11.331   7.434   7.655
 7960POPC   C1B32359  11.134   7.234   8.555
 7960POPC   C2B32360  11.174   7.210   8.255
 7960POPC   C3B32361  11.134   7.184   7.955
 7960POPC   C4B32362  11.181   7.257   7.655
 7961POPC   NC332363  22.914   5.832   9.455
 7961POPC   PO432364  22.931   5.849   9.155
 7961POPC   GL132365  22.927   5.902   8.855
 7961POPC   GL232366  22.941   5.775   8.855
 7961POPC   C1A32367  22.949   5.824   8.555
 7961POPC   D2A32368  22.979   5.862   8.255
 7961POPC   C3A32369  22.922   5.894   7.955
 7961POPC   C4A32370  22.981   5.913   7.655
 7961POPC   C1B32371  22.906   5.610   8.555
 7961POPC   C2B32372  22.941   5.634   8.255
 7961POPC   C3B32373  22.877   5.641   7.955
 7961POPC   C4B32374  22.907   5.579   7.655
 7962POPC   NC332375  21.397  22.891   9.455
 7962POPC   PO432376  21.403  22.976   9.155
 7962POPC   GL132377  21.370  22.950   8.855
 7962POPC   GL232378  21.295  22.993   8.855
 7962POPC   C1A32379  21.377  22.929   8.555
 7962POPC   D2A32380  21.407  22.944   8.255
 7962POPC   C3A32381  21.407  22.940   7.955
 7962POPC   C4A32382  21.419  22.970   7.655
 7962POPC   C1B32383  21.196  23.088   8.555
 7962POPC   C2B32384  21.190  23.036   8.255
 7962POPC   C3B32385  21.172  23.051   7.955
 7962POPC   C4B32386  21.147  23.042   7.655
 7963POPC   NC332387  41.606  22.920   9.455
 7963POPC   PO432388  41.561  22.982   9.155
 7963POPC   GL132389  41.538  22.908   8.855
 7963POPC   GL232390  41.454  22.861   8.855
 7963POPC   C1A32391  41.514  22.925   8.555
 7963POPC   D2A32392  41.549  22.900   8.255
 7963POPC   C3A32393  41.584  22.933   7.955
 7963POPC   C4A32394  41.564  22.945   7.655
 7963POPC   C1B32395  41.399  22.731   8.555
 7963POPC   C2B32396  41.384  22.799   8.255
 7963POPC   C3B32397  41.344  22.706   7.955
 7963POPC   C4B32398  41.367  22.731   7.655
 7964POPC   NC332399   5.073  21.349   9.455
 7964POPC   PO432400   5.121  21.409   9.155
 7964POPC   GL132401   5.078  21.383   8.855
 7964POPC   GL232402   5.062  21.466   8.855
 7964POPC   C1A32403   5.103  21.386   8.555
 7964POPC   D2A32404   5.052  21.352   8.255
 7964POPC   C3A32405   5.139  21.341   7.955
 7964POPC   C4A32406   5.122  21.370   7.655
 7964POPC   C1B32407   4.979  21.596   8.555
 7964POPC   C2B32408   4.943  21.654   8.255
 7964POPC   C3B32409   4.998  21.620   7.955
 7964POPC   C4B32410   4.951  21.632   7.655
 7965POPC   NC332411   0.402   7.429   9.455
 7965POPC   PO432412   0.474   7.377   9.155
 7965POPC   GL132413   0.390   7.453   8.855
 7965POPC   GL232414   0.450   7.296   8.855
 7965POPC   C1A32415   0.457   7.423   8.555
 7965POPC   D2A32416   0.388   7.399   8.255
 7965POPC   C3A32417   0.409   7.469   7.955
 7965POPC   C4A32418   0.430   7.396   7.655
 7965POPC   C1B32419   0.549   7.198   8.555
 7965POPC   C2B32420   0.482   7.229   8.255
 7965POPC   C3B32421   0.535   7.131   7.955
 7965POPC   C4B32422   0.495   7.162   7.655
 7966POPC   NC332423  26.058  35.306   9.455
 7966POPC   PO432424  26.027  35.381   9.155
 7966POPC   GL132425  26.016  35.396   8.855
 7966POPC   GL232426  26.094  35.258   8.855
 7966POPC   C1A32427  25.996  35.366   8.555
 7966POPC   D2A32428  26.076  35.371   8.255
 7966POPC   C3A32429  26.066  35.340   7.955
 7966POPC   C4A32430  26.018  35.352   7.655
 7966POPC   C1B32431  26.233  35.181   8.555
 7966POPC   C2B32432  26.196  35.107   8.255
 7966POPC   C3B32433  26.185  35.129   7.955
 7966POPC   C4B32434  26.170  35.143   7.655
 7967POPC   NC332435  14.361  44.676   9.455
 7967POPC   PO432436  14.415  44.643   9.155
 7967POPC   GL132437  14.415  44.666   8.855
 7967POPC   GL232438  14.542  44.777   8.855
 7967POPC   C1A32439  14.387  44.632   8.555
 7967POPC   D2A32440  14.424  44.635   8.255
 7967POPC   C3A32441  14.376  44.642   7.955
 7967POPC   C4A32442  14.404  44.627   7.655
 7967POPC   C1B32443  14.598  44.806   8.555
 7967POPC   C2B32444  14.562  44.828   8.255
 7967POPC   C3B32445  14.572  44.828   7.955
 7967POPC   C4B32446  14.559  44.841   7.655
 7968POPC   NC332447  29.126  31.471   9.455
 7968POPC   PO432448  29.188  31.462   9.155
 7968POPC   GL132449  29.155  31.449   8.855
 7968POPC   GL232450  29.167  31.363   8.855
 7968POPC   C1A32451  29.188  31.498   8.555
 7968POPC   D2A32452  29.192  31.458   8.255
 7968POPC   C3A32453  29.150  31.492   7.955
 7968POPC   C4A32454  29.147  31.498   7.655
 7968POPC   C1B32455  29.272  31.254   8.555
 7968POPC   C2B32456  29.242  31.249   8.255
 7968POPC   C3B32457  29.215  31.218   7.955
 7968POPC   C4B32458  29.283  31.289   7.655
 7969POPC   NC332459  34.570  20.564   9.455
 7969POPC   PO432460  34.546  20.633   9.155
 7969POPC   GL132461  34.564  20.612   8.855
 7969POPC   GL232462  34.666  20.670   8.855
 7969POPC   C1A32463  34.609  20.656   8.555
 7969POPC   D2A32464  34.599  20.637   8.255
 7969POPC   C3A32465  34.624  20.599   7.955
 7969POPC   C4A32466  34.608  20.656   7.655
 7969POPC   C1B32467  34.811  20.738   8.555
 7969POPC   C2B32468  34.794  20.747   8.255
 7969POPC   C3B32469  34.787  20.732   7.955
 7969POPC   C4B32470  34.736  20.787   7.655
 7970POPC   NC332471  22.983  19.071   9.455
 7970POPC   PO432472  22.944  19.061   9.155
 7970POPC   GL132473  22.930  19.081   8.855
 7970POPC   GL232474  23.055  19.174   8.855
 7970POPC   C1A32475  22.960  19.103   8.555
 7970POPC   D2A32476  22.944  19.106   8.255
 7970POPC   C3A32477  22.978  19.011   7.955
 7970POPC   C4A32478  22.979  19.014   7.655
 7970POPC   C1B32479  23.156  19.205   8.555
 7970POPC   C2B32480  23.164  19.241   8.255
 7970POPC   C3B32481  23.111  19.221   7.955
 7970POPC   C4B32482  23.104  19.253   7.655
 7971POPC   NC332483  42.307  43.931   9.455
 7971POPC   PO432484  42.315  43.913   9.155
 7971POPC   GL132485  42.355  43.857   8.855
 7971POPC   GL232486  42.217  43.782   8.855
 7971POPC   C1A32487  42.316  43.844   8.555
 7971POPC   D2A32488  42.300  43.883   8.255
 7971POPC   C3A32489  42.287  43.935   7.955
 7971POPC   C4A32490  42.299  43.917   7.655
 7971POPC   C1B32491  42.173  43.666   8.555
 7971POPC   C2B32492  42.178  43.676   8.255
 7971POPC   C3B32493  42.175  43.674   7.955
 7971POPC   C4B32494  42.157  43.683   7.655
 7972POPC   NC332495   1.168  38.426   9.455
 7972POPC   PO432496   1.187  38.419   9.155
 7972POPC   GL132497   1.217  38.494   8.855
 7972POPC   GL232498   1.204  38.607   8.855
 7972POPC   C1A32499   1.191  38.490   8.555
 7972POPC   D2A32500   1.239  38.435   8.255
 7972POPC   C3A32501   1.256  38.468   7.955
 7972POPC   C4A32502   1.222  38.492   7.655
 7972POPC   C1B32503   1.233  38.744   8.555
 7972POPC   C2B32504   1.288  38.743   8.255
 7972POPC   C3B32505   1.196  38.718   7.955
 7972POPC   C4B32506   1.246  38.685   7.655
 7973POPC   NC332507  41.580  29.874   9.455
 7973POPC   PO432508  41.520  29.931   9.155
 7973POPC   GL132509  41.559  29.873   8.855
 7973POPC   GL232510  41.606  29.983   8.855
 7973POPC   C1A32511  41.551  29.961   8.555
 7973POPC   D2A32512  41.568  29.970   8.255
 7973POPC   C3A32513  41.512  29.962   7.955
 7973POPC   C4A32514  41.606  29.943   7.655
 7973POPC   C1B32515  41.757  30.100   8.555
 7973POPC   C2B32516  41.735  30.148   8.255
 7973POPC   C3B32517  41.683  30.159   7.955
 7973POPC   C4B32518  41.675  30.110   7.655
 7974POPC   NC332519  18.305  12.897   9.455
 7974POPC   PO432520  18.306  12.814   9.155
 7974POPC   GL132521  18.331  12.845   8.855
 7974POPC   GL232522  18.395  12.831   8.855
 7974POPC   C1A32523  18.270  12.803   8.555
 7974POPC   D2A32524  18.269  12.844   8.255
 7974POPC   C3A32525  18.331  12.851   7.955
 7974POPC   C4A32526  18.261  12.826   7.655
 7974POPC   C1B32527  18.535  12.831   8.555
 7974POPC   C2B32528  18.534  12.768   8.255
 7974POPC   C3B32529  18.528  12.795   7.955
 7974POPC   C4B32530  18.546  12.827   7.655
 7975POPC   NC332531  17.516  40.767   9.455
 7975POPC   PO432532  17.479  40.832   9.155
 7975POPC   GL132533  17.524  40.808   8.855
 7975POPC   GL232534  17.545  40.928   8.855
 7975POPC   C1A32535  17.508  40.800   8.555
 7975POPC   D2A32536  17.524  40.820   8.255
 7975POPC   C3A32537  17.526  40.819   7.955
 7975POPC   C4A32538  17.553  40.760   7.655
 7975POPC   C1B32539  17.612  41.046   8.555
 7975POPC   C2B32540  17.658  40.987   8.255
 7975POPC   C3B32541  17.619  41.001   7.955
 7975POPC   C4B32542  17.638  40.967   7.655
 7976POPC   NC332543  15.154  26.774   9.455
 7976POPC   PO432544  15.220  26.782   9.155
 7976POPC   GL132545  15.153  26.784   8.855
 7976POPC   GL232546  15.123  26.850   8.855
 7976POPC   C1A32547  15.155  26.832   8.555
 7976POPC   D2A32548  15.173  26.781   8.255
 7976POPC   C3A32549  15.202  26.844   7.955
 7976POPC   C4A32550  15.188  26.862   7.655
 7976POPC   C1B32551  15.018  27.002   8.555
 7976POPC   C2B32552  14.986  26.971   8.255
 7976POPC   C3B32553  14.930  26.962   7.955
 7976POPC   C4B32554  15.007  26.974   7.655
 7977POPC   NC332555  36.118  32.201   9.455
 7977POPC   PO432556  36.136  32.237   9.155
 7977POPC   GL132557  36.079  32.289   8.855
 7977POPC   GL232558  36.011  32.323   8.855
 7977POPC   C1A32559  36.090  32.295   8.555
 7977POPC   D2A32560  36.117  32.277   8.255
 7977POPC   C3A32561  36.170  32.239   7.955
 7977POPC   C4A32562  36.158  32.249   7.655
 7977POPC   C1B32563  35.923  32.463   8.555
 7977POPC   C2B32564  35.980  32.401   8.255
 7977POPC   C3B32565  35.989  32.399   7.955
 7977POPC   C4B32566  35.968  32.438   7.655
 7978POPC   NC332567  41.509   9.724   9.455
 7978POPC   PO432568  41.577   9.780   9.155
 7978POPC   GL132569  41.567   9.798   8.855
 7978POPC   GL232570  41.683   9.857   8.855
 7978POPC   C1A32571  41.533   9.765   8.555
 7978POPC   D2A32572  41.595   9.794   8.255
 7978POPC   C3A32573  41.545   9.718   7.955
 7978POPC   C4A32574  41.589   9.738   7.655
 7978POPC   C1B32575  41.766   9.906   8.555
 7978POPC   C2B32576  41.813   9.873   8.255
 7978POPC   C3B32577  41.809   9.917   7.955
 7978POPC   C4B32578  41.812   9.868   7.655
 7979POPC   NC332579   1.218  40.037   9.455
 7979POPC   PO432580   1.261  39.961   9.155
 7979POPC   GL132581   1.203  40.005   8.855
 7979POPC   GL232582   1.290  39.894   8.855
 7979POPC   C1A32583   1.219  40.014   8.555
 7979POPC   D2A32584   1.240  40.009   8.255
 7979POPC   C3A32585   1.209  40.019   7.955
 7979POPC   C4A32586   1.251  40.007   7.655
 7979POPC   C1B32587   1.246  39.752   8.555
 7979POPC   C2B32588   1.282  39.778   8.255
 7979POPC   C3B32589   1.331  39.733   7.955
 7979POPC   C4B32590   1.336  39.752   7.655
 7980POPC   NC332591  15.920  24.498   9.455
 7980POPC   PO432592  15.925  24.518   9.155
 7980POPC   GL132593  15.952  24.512   8.855
 7980POPC   GL232594  15.830  24.464   8.855
 7980POPC   C1A32595  15.979  24.460   8.555
 7980POPC   D2A32596  15.982  24.466   8.255
 7980POPC   C3A32597  15.918  24.529   7.955
 7980POPC   C4A32598  15.928  24.514   7.655
 7980POPC   C1B32599  15.666  24.428   8.555
 7980POPC   C2B32600  15.678  24.475   8.255
 7980POPC   C3B32601  15.752  24.459   7.955
 7980POPC   C4B32602  15.690  24.439   7.655
 7981POPC   NC332603   8.180   0.427   9.455
 7981POPC   PO432604   8.230   0.414   9.155
 7981POPC   GL132605   8.191   0.425   8.855
 7981POPC   GL232606   8.322   0.475   8.855
 7981POPC   C1A32607   8.184   0.404   8.555
 7981POPC   D2A32608   8.194   0.433   8.255
 7981POPC   C3A32609   8.184   0.423   7.955
 7981POPC   C4A32610   8.240   0.479   7.655
 7981POPC   C1B32611   8.359   0.555   8.555
 7981POPC   C2B32612   8.413   0.569   8.255
 7981POPC   C3B32613   8.402   0.570   7.955
 7981POPC   C4B32614   8.347   0.602   7.655
 7982POPC   NC332615  18.286  38.480   9.455
 7982POPC   PO432616  18.245  38.448   9.155
 7982POPC   GL132617  18.248  38.434   8.855
 7982POPC   GL232618  18.299  38.574   8.855
 7982POPC   C1A32619  18.234  38.494   8.555
 7982POPC   D2A32620  18.237  38.431   8.255
 7982POPC   C3A32621  18.319  38.444   7.955
 7982POPC   C4A32622  18.245  38.465   7.655
 7982POPC   C1B32623  18.388  38.708   8.555
 7982POPC   C2B32624  18.386  38.689   8.255
 7982POPC   C3B32625  18.377  38.637   7.955
 7982POPC   C4B32626  18.408  38.650   7.655
 7983POPC   NC332627   6.627  10.499   9.455
 7983POPC   PO432628   6.661  10.512   9.155
 7983POPC   GL132629   6.640  10.569   8.855
 7983POPC   GL232630   6.547  10.627   8.855
 7983POPC   C1A32631   6.652  10.495   8.555
 7983POPC   D2A32632   6.685  10.514   8.255
 7983POPC   C3A32633   6.661  10.495   7.955
 7983POPC   C4A32634   6.686  10.486   7.655
 7983POPC   C1B32635   6.496  10.735   8.555
 7983POPC   C2B32636   6.500  10.745   8.255
 7983POPC   C3B32637   6.480  10.719   7.955
 7983POPC   C4B32638   6.548  10.746   7.655
 7984POPC   NC332639  30.734  22.120   9.455
 7984POPC   PO432640  30.715  22.157   9.155
 7984POPC   GL132641  30.724  22.141   8.855
 7984POPC   GL232642  30.780  22.011   8.855
 7984POPC   C1A32643  30.687  22.199   8.555
 7984POPC   D2A32644  30.709  22.129   8.255
 7984POPC   C3A32645  30.685  22.189   7.955
 7984POPC   C4A32646  30.689  22.142   7.655
 7984POPC   C1B32647  30.791  21.912   8.555
 7984POPC   C2B32648  30.816  21.985   8.255
 7984POPC   C3B32649  30.773  21.922   7.955
 7984POPC   C4B32650  30.777  21.913   7.655
 7985POPC   NC332651   5.045  34.605   9.455
 7985POPC   PO432652   5.053  34.546   9.155
 7985POPC   GL132653   5.096  34.614   8.855
 7985POPC   GL232654   5.244  34.635   8.855
 7985POPC   C1A32655   5.054  34.562   8.555
 7985POPC   D2A32656   5.059  34.615   8.255
 7985POPC   C3A32657   5.117  34.558   7.955
 7985POPC   C4A32658   5.133  34.613   7.655
 7985POPC   C1B32659   5.304  34.728   8.555
 7985POPC   C2B32660   5.276  34.698   8.255
 7985POPC   C3B32661   5.266  34.707   7.955
 7985POPC   C4B32662   5.325  34.726   7.655
 7986POPC   NC332663  26.054  30.684   9.455
 7986POPC   PO432664  26.064  30.718   9.155
 7986POPC   GL132665  25.999  30.738   8.855
 7986POPC   GL232666  26.174  30.776   8.855
 7986POPC   C1A32667  26.057  30.740   8.555
 7986POPC   D2A32668  26.042  30.715   8.255
 7986POPC   C3A32669  25.999  30.734   7.955
 7986POPC   C4A32670  26.014  30.691   7.655
 7986POPC   C1B32671  26.275  30.883   8.555
 7986POPC   C2B32672  26.235  30.810   8.255
 7986POPC   C3B32673  26.266  30.872   7.955
 7986POPC   C4B32674  26.222  30.815   7.655
 7987POPC   NC332675   1.955  36.159   9.455
 7987POPC   PO432676   1.999  36.138   9.155
 7987POPC   GL132677   1.948  36.102   8.855
 7987POPC   GL232678   1.937  36.048   8.855
 7987POPC   C1A32679   1.980  36.118   8.555
 7987POPC   D2A32680   1.961  36.089   8.255
 7987POPC   C3A32681   1.987  36.113   7.955
 7987POPC   C4A32682   2.022  36.150   7.655
 7987POPC   C1B32683   1.798  35.953   8.555
 7987POPC   C2B32684   1.840  35.905   8.255
 7987POPC   C3B32685   1.815  35.939   7.955
 7987POPC   C4B32686   1.862  35.953   7.655
 7988POPC   NC332687  10.498  28.399   9.455
 7988POPC   PO432688  10.566  28.416   9.155
 7988POPC   GL132689  10.537  28.342   8.855
 7988POPC   GL232690  10.674  28.272   8.855
 7988POPC   C1A32691  10.570  28.360   8.555
 7988POPC   D2A32692  10.490  28.346   8.255
 7988POPC   C3A32693  10.540  28.371   7.955
 7988POPC   C4A32694  10.506  28.350   7.655
 7988POPC   C1B32695  10.737  28.259   8.555
 7988POPC   C2B32696  10.709  28.295   8.255
 7988POPC   C3B32697  10.741  28.241   7.955
 7988POPC   C4B32698  10.783  28.292   7.655
 7989POPC   NC332699  16.714   9.794   9.455
 7989POPC   PO432700  16.692   9.720   9.155
 7989POPC   GL132701  16.763   9.781   8.855
 7989POPC   GL232702  16.702   9.596   8.855
 7989POPC   C1A32703  16.744   9.752   8.555
 7989POPC   D2A32704  16.688   9.771   8.255
 7989POPC   C3A32705  16.706   9.782   7.955
 7989POPC   C4A32706  16.760   9.752   7.655
 7989POPC   C1B32707  16.680   9.479   8.555
 7989POPC   C2B32708  16.629   9.515   8.255
 7989POPC   C3B32709  16.723   9.456   7.955
 7989POPC   C4B32710  16.641   9.535   7.655
 7990POPC   NC332711   7.391  43.119   9.455
 7990POPC   PO432712   7.465  43.147   9.155
 7990POPC   GL132713   7.390  43.153   8.855
 7990POPC   GL232714   7.385  43.008   8.855
 7990POPC   C1A32715   7.378  43.123   8.555
 7990POPC   D2A32716   7.409  43.145   8.255
 7990POPC   C3A32717   7.414  43.111   7.955
 7990POPC   C4A32718   7.387  43.103   7.655
 7990POPC   C1B32719   7.378  42.843   8.555
 7990POPC   C2B32720   7.451  42.902   8.255
 7990POPC   C3B32721   7.419  42.904   7.955
 7990POPC   C4B32722   7.457  42.892   7.655
 7991POPC   NC332723  37.647  37.706   9.455
 7991POPC   PO432724  37.727  37.690   9.155
 7991POPC   GL132725  37.678  37.684   8.855
 7991POPC   GL232726  37.654  37.813   8.855
 7991POPC   C1A32727  37.706  37.723   8.555
 7991POPC   D2A32728  37.707  37.639   8.255
 7991POPC   C3A32729  37.715  37.682   7.955
 7991POPC   C4A32730  37.711  37.656   7.655
 7991POPC   C1B32731  37.610  37.928   8.555
 7991POPC   C2B32732  37.601  37.892   8.255
 7991POPC   C3B32733  37.522  37.951   7.955
 7991POPC   C4B32734  37.518  37.861   7.655
 7992POPC   NC332735  43.068  23.706   9.455
 7992POPC   PO432736  43.146  23.750   9.155
 7992POPC   GL132737  43.078  23.762   8.855
 7992POPC   GL232738  43.059  23.813   8.855
 7992POPC   C1A32739  43.116  23.715   8.555
 7992POPC   D2A32740  43.102  23.757   8.255
 7992POPC   C3A32741  43.070  23.697   7.955
 7992POPC   C4A32742  43.064  23.690   7.655
 7992POPC   C1B32743  43.111  23.941   8.555
 7992POPC   C2B32744  43.075  23.946   8.255
 7992POPC   C3B32745  43.084  24.000   7.955
 7992POPC   C4B32746  43.072  23.968   7.655
 7993POPC   NC332747  28.322  16.761   9.455
 7993POPC   PO432748  28.356  16.719   9.155
 7993POPC   GL132749  28.376  16.740   8.855
 7993POPC   GL232750  28.489  16.710   8.855
 7993POPC   C1A32751  28.335  16.715   8.555
 7993POPC   D2A32752  28.355  16.696   8.255
 7993POPC   C3A32753  28.382  16.705   7.955
 7993POPC   C4A32754  28.399  16.726   7.655
 7993POPC   C1B32755  28.576  16.743   8.555
 7993POPC   C2B32756  28.645  16.820   8.255
 7993POPC   C3B32757  28.634  16.757   7.955
 7993POPC   C4B32758  28.591  16.809   7.655
 7994POPC   NC332759  44.661  41.579   9.455
 7994POPC   PO432760  44.693  41.522   9.155
 7994POPC   GL132761  44.623  41.523   8.855
 7994POPC   GL232762  44.593  41.423   8.855
 7994POPC   C1A32763  44.698  41.549   8.555
 7994POPC   D2A32764  44.708  41.601   8.255
 7994POPC   C3A32765  44.656  41.539   7.955
 7994POPC   C4A32766  44.641  41.544   7.655
 7994POPC   C1B32767  44.451  41.332   8.555
 7994POPC   C2B32768  44.499  41.402   8.255
 7994POPC   C3B32769  44.477  41.394   7.955
 7994POPC   C4B32770  44.532  41.375   7.655
 7995POPC   NC332771  40.775  40.764   9.455
 7995POPC   PO432772  40.774  40.832   9.155
 7995POPC   GL132773  40.750  40.790   8.855
 7995POPC   GL232774  40.616  40.798   8.855
 7995POPC   C1A32775  40.785  40.806   8.555
 7995POPC   D2A32776  40.735  40.766   8.255
 7995POPC   C3A32777  40.762  40.759   7.955
 7995POPC   C4A32778  40.767  40.821   7.655
 7995POPC   C1B32779  40.500  40.742   8.555
 7995POPC   C2B32780  40.506  40.775   8.255
 7995POPC   C3B32781  40.561  40.745   7.955
 7995POPC   C4B32782  40.569  40.772   7.655
 7996POPC   NC332783  28.383   2.761   9.455
 7996POPC   PO432784  28.329   2.788   9.155
 7996POPC   GL132785  28.341   2.797   8.855
 7996POPC   GL232786  28.500   2.764   8.855
 7996POPC   C1A32787  28.410   2.804   8.555
 7996POPC   D2A32788  28.411   2.809   8.255
 7996POPC   C3A32789  28.381   2.785   7.955
 7996POPC   C4A32790  28.384   2.717   7.655
 7996POPC   C1B32791  28.648   2.798   8.555
 7996POPC   C2B32792  28.615   2.806   8.255
 7996POPC   C3B32793  28.656   2.746   7.955
 7996POPC   C4B32794  28.654   2.798   7.655
 7997POPC   NC332795   8.958   2.807   9.455
 7997POPC   PO432796   9.004   2.716   9.155
 7997POPC   GL132797   8.955   2.754   8.855
 7997POPC   GL232798   8.809   2.739   8.855
 7997POPC   C1A32799   8.966   2.763   8.555
 7997POPC   D2A32800   8.946   2.726   8.255
 7997POPC   C3A32801   9.002   2.801   7.955
 7997POPC   C4A32802   8.973   2.779   7.655
 7997POPC   C1B32803   8.705   2.749   8.555
 7997POPC   C2B32804   8.682   2.829   8.255
 7997POPC   C3B32805   8.697   2.824   7.955
 7997POPC   C4B32806   8.683   2.789   7.655
 7998POPC   NC332807   0.409  30.689   9.455
 7998POPC   PO432808   0.428  30.705   9.155
 7998POPC   GL132809   0.473  30.715   8.855
 7998POPC   GL232810   0.411  30.858   8.855
 7998POPC   C1A32811   0.438  30.716   8.555
 7998POPC   D2A32812   0.403  30.675   8.255
 7998POPC   C3A32813   0.428  30.668   7.955
 7998POPC   C4A32814   0.444  30.663   7.655
 7998POPC   C1B32815   0.445  30.938   8.555
 7998POPC   C2B32816   0.437  30.978   8.255
 7998POPC   C3B32817   0.427  30.901   7.955
 7998POPC   C4B32818   0.452  30.995   7.655
 7999POPC   NC332819  22.166  33.033   9.455
 7999POPC   PO432820  22.188  33.002   9.155
 7999POPC   GL132821  22.172  33.012   8.855
 7999POPC   GL232822  22.155  33.095   8.855
 7999POPC   C1A32823  22.157  33.035   8.555
 7999POPC   D2A32824  22.170  33.062   8.255
 7999POPC   C3A32825  22.150  33.069   7.955
 7999POPC   C4A32826  22.148  32.975   7.655
 7999POPC   C1B32827  22.226  33.225   8.555
 7999POPC   C2B32828  22.295  33.285   8.255
 7999POPC   C3B32829  22.271  33.296   7.955
 7999POPC   C4B32830  22.254  33.211   7.655
 8000POPC   NC332831  36.927  22.184   9.455
 8000POPC   PO432832  36.898  22.144   9.155
 8000POPC   GL132833  36.914  22.169   8.855
 8000POPC   GL232834  36.993  22.107   8.855
 8000POPC   C1A32835  36.922  22.120   8.555
 8000POPC   D2A32836  36.903  22.163   8.255
 8000POPC   C3A32837  36.854  22.175   7.955
 8000POPC   C4A32838  36.858  22.119   7.655
 8000POPC   C1B32839  37.086  21.968   8.555
 8000POPC   C2B32840  37.099  21.992   8.255
 8000POPC   C3B32841  37.105  22.006   7.955
 8000POPC   C4B32842  37.073  22.034   7.655
 8001POPC   NC332843  43.850  30.698   9.455
 8001POPC   PO432844  43.854  30.744   9.155
 8001POPC   GL132845  43.865  30.745   8.855
 8001POPC   GL232846  43.993  30.605   8.855
 8001POPC   C1A32847  43.865  30.670   8.555
 8001POPC   D2A32848  43.877  30.679   8.255
 8001POPC   C3A32849  43.846  30.690   7.955
 8001POPC   C4A32850  43.910  30.673   7.655
 8001POPC   C1B32851  43.969  30.486   8.555
 8001POPC   C2B32852  43.981  30.524   8.255
 8001POPC   C3B32853  44.028  30.447   7.955
 8001POPC   C4B32854  44.037  30.452   7.655
 8002POPC   NC332855  19.829  42.371   9.455
 8002POPC   PO432856  19.796  42.362   9.155
 8002POPC   GL132857  19.848  42.288   8.855
 8002POPC   GL232858  19.789  42.183   8.855
 8002POPC   C1A32859  19.785  42.358   8.555
 8002POPC   D2A32860  19.849  42.356   8.255
 8002POPC   C3A32861  19.882  42.347   7.955
 8002POPC   C4A32862  19.865  42.334   7.655
 8002POPC   C1B32863  19.811  42.055   8.555
 8002POPC   C2B32864  19.819  42.135   8.255
 8002POPC   C3B32865  19.757  42.072   7.955
 8002POPC   C4B32866  19.727  42.111   7.655
 8003POPC   NC332867  37.711  33.834   9.455
 8003POPC   PO432868  37.658  33.835   9.155
 8003POPC   GL132869  37.655  33.846   8.855
 8003POPC   GL232870  37.687  33.695   8.855
 8003POPC   C1A32871  37.689  33.799   8.555
 8003POPC   D2A32872  37.708  33.839   8.255
 8003POPC   C3A32873  37.647  33.841   7.955
 8003POPC   C4A32874  37.652  33.778   7.655
 8003POPC   C1B32875  37.759  33.609   8.555
 8003POPC   C2B32876  37.834  33.621   8.255
 8003POPC   C3B32877  37.765  33.561   7.955
 8003POPC   C4B32878  37.832  33.532   7.655
 8004POPC   NC332879   8.993  41.594   9.455
 8004POPC   PO432880   8.936  41.543   9.155
 8004POPC   GL132881   8.985  41.515   8.855
 8004POPC   GL232882   9.107  41.572   8.855
 8004POPC   C1A32883   9.019  41.556   8.555
 8004POPC   D2A32884   9.021  41.539   8.255
 8004POPC   C3A32885   8.970  41.522   7.955
 8004POPC   C4A32886   9.022  41.596   7.655
 8004POPC   C1B32887   9.230  41.658   8.555
 8004POPC   C2B32888   9.159  41.691   8.255
 8004POPC   C3B32889   9.203  41.656   7.955
 8004POPC   C4B32890   9.171  41.648   7.655
 8005POPC   NC332891  14.444   3.536   9.455
 8005POPC   PO432892  14.394   3.516   9.155
 8005POPC   GL132893  14.368   3.520   8.855
 8005POPC   GL232894  14.465   3.443   8.855
 8005POPC   C1A32895  14.436   3.540   8.555
 8005POPC   D2A32896  14.444   3.567   8.255
 8005POPC   C3A32897  14.417   3.582   7.955
 8005POPC   C4A32898  14.373   3.591   7.655
 8005POPC   C1B32899  14.612   3.417   8.555
 8005POPC   C2B32900  14.586   3.466   8.255
 8005POPC   C3B32901  14.666   3.453   7.955
 8005POPC   C4B32902  14.663   3.441   7.655
 8006POPC   NC332903  31.504  22.117   9.455
 8006POPC   PO432904  31.454  22.172   9.155
 8006POPC   GL132905  31.476  22.122   8.855
 8006POPC   GL232906  31.611  22.133   8.855
 8006POPC   C1A32907  31.508  22.128   8.555
 8006POPC   D2A32908  31.475  22.123   8.255
 8006POPC   C3A32909  31.505  22.183   7.955
 8006POPC   C4A32910  31.441  22.139   7.655
 8006POPC   C1B32911  31.728  22.020   8.555
 8006POPC   C2B32912  31.665  22.023   8.255
 8006POPC   C3B32913  31.680  22.032   7.955
 8006POPC   C4B32914  31.652  22.043   7.655
 8007POPC   NC332915   0.466   6.624   9.455
 8007POPC   PO432916   0.488   6.673   9.155
 8007POPC   GL132917   0.441   6.672   8.855
 8007POPC   GL232918   0.465   6.780   8.855
 8007POPC   C1A32919   0.403   6.662   8.555
 8007POPC   D2A32920   0.453   6.672   8.255
 8007POPC   C3A32921   0.475   6.613   7.955
 8007POPC   C4A32922   0.413   6.606   7.655
 8007POPC   C1B32923   0.418   6.877   8.555
 8007POPC   C2B32924   0.416   6.923   8.255
 8007POPC   C3B32925   0.456   6.915   7.955
 8007POPC   C4B32926   0.407   6.924   7.655
 8008POPC   NC332927  15.965  12.892   9.455
 8008POPC   PO432928  15.956  12.863   9.155
 8008POPC   GL132929  15.910  12.847   8.855
 8008POPC   GL232930  15.996  12.696   8.855
 8008POPC   C1A32931  15.970  12.815   8.555
 8008POPC   D2A32932  15.952  12.878   8.255
 8008POPC   C3A32933  15.973  12.884   7.955
 8008POPC   C4A32934  15.996  12.895   7.655
 8008POPC   C1B32935  16.025  12.578   8.555
 8008POPC   C2B32936  16.077  12.659   8.255
 8008POPC   C3B32937  16.039  12.654   7.955
 8008POPC   C4B32938  16.103  12.622   7.655
 8009POPC   NC332939  17.503  21.339   9.455
 8009POPC   PO432940  17.517  21.375   9.155
 8009POPC   GL132941  17.502  21.340   8.855
 8009POPC   GL232942  17.594  21.362   8.855
 8009POPC   C1A32943  17.525  21.350   8.555
 8009POPC   D2A32944  17.542  21.343   8.255
 8009POPC   C3A32945  17.531  21.381   7.955
 8009POPC   C4A32946  17.543  21.391   7.655
 8009POPC   C1B32947  17.736  21.358   8.555
 8009POPC   C2B32948  17.702  21.318   8.255
 8009POPC   C3B32949  17.728  21.284   7.955
 8009POPC   C4B32950  17.750  21.303   7.655
 8010POPC   NC332951  42.292  25.227   9.455
 8010POPC   PO432952  42.358  25.307   9.155
 8010POPC   GL132953  42.285  25.219   8.855
 8010POPC   GL232954  42.359  25.168   8.855
 8010POPC   C1A32955  42.365  25.244   8.555
 8010POPC   D2A32956  42.371  25.273   8.255
 8010POPC   C3A32957  42.298  25.312   7.955
 8010POPC   C4A32958  42.356  25.290   7.655
 8010POPC   C1B32959  42.401  25.019   8.555
 8010POPC   C2B32960  42.430  25.069   8.255
 8010POPC   C3B32961  42.468  25.037   7.955
 8010POPC   C4B32962  42.479  25.018   7.655
 8011POPC   NC332963  14.378  28.359   9.455
 8011POPC   PO432964  14.441  28.378   9.155
 8011POPC   GL132965  14.411  28.350   8.855
 8011POPC   GL232966  14.253  28.320   8.855
 8011POPC   C1A32967  14.448  28.369   8.555
 8011POPC   D2A32968  14.402  28.418   8.255
 8011POPC   C3A32969  14.360  28.399   7.955
 8011POPC   C4A32970  14.408  28.412   7.655
 8011POPC   C1B32971  14.108  28.298   8.555
 8011POPC   C2B32972  14.131  28.309   8.255
 8011POPC   C3B32973  14.142  28.306   7.955
 8011POPC   C4B32974  14.112  28.324   7.655
 8012POPC   NC332975  18.333  30.727   9.455
 8012POPC   PO432976  18.329  30.726   9.155
 8012POPC   GL132977  18.264  30.649   8.855
 8012POPC   GL232978  18.221  30.640   8.855
 8012POPC   C1A32979  18.322  30.732   8.555
 8012POPC   D2A32980  18.270  30.699   8.255
 8012POPC   C3A32981  18.283  30.685   7.955
 8012POPC   C4A32982  18.327  30.662   7.655
 8012POPC   C1B32983  18.115  30.542   8.555
 8012POPC   C2B32984  18.112  30.553   8.255
 8012POPC   C3B32985  18.124  30.468   7.955
 8012POPC   C4B32986  18.086  30.471   7.655
 8013POPC   NC332987  35.324   0.416   9.455
 8013POPC   PO432988  35.310   0.475   9.155
 8013POPC   GL132989  35.398   0.428   8.855
 8013POPC   GL232990  35.456   0.455   8.855
 8013POPC   C1A32991  35.396   0.458   8.555
 8013POPC   D2A32992  35.353   0.459   8.255
 8013POPC   C3A32993  35.319   0.409   7.955
 8013POPC   C4A32994  35.321   0.470   7.655
 8013POPC   C1B32995  35.541   0.606   8.555
 8013POPC   C2B32996  35.570   0.592   8.255
 8013POPC   C3B32997  35.538   0.588   7.955
 8013POPC   C4B32998  35.562   0.537   7.655
 8014POPC   NC332999  25.305  33.765   9.455
 8014POPC   PO433000  25.279  33.806   9.155
 8014POPC   GL133001  25.267  33.772   8.855
 8014POPC   GL233002  25.180  33.924   8.855
 8014POPC   C1A33003  25.279  33.849   8.555
 8014POPC   D2A33004  25.242  33.848   8.255
 8014POPC   C3A33005  25.216  33.790   7.955
 8014POPC   C4A33006  25.239  33.845   7.655
 8014POPC   C1B33007  25.085  33.971   8.555
 8014POPC   C2B33008  25.116  34.004   8.255
 8014POPC   C3B33009  25.112  34.035   7.955
 8014POPC   C4B33010  25.103  33.951   7.655
 8015POPC   NC333011  26.056   4.308   9.455
 8015POPC   PO433012  26.015   4.306   9.155
 8015POPC   GL133013  26.024   4.359   8.855
 8015POPC   GL233014  26.094   4.183   8.855
 8015POPC   C1A33015  26.008   4.287   8.555
 8015POPC   D2A33016  26.021   4.341   8.255
 8015POPC   C3A33017  26.026   4.336   7.955
 8015POPC   C4A33018  26.039   4.358   7.655
 8015POPC   C1B33019  26.201   4.080   8.555
 8015POPC   C2B33020  26.148   4.129   8.255
 8015POPC   C3B33021  26.120   4.056   7.955
 8015POPC   C4B33022  26.189   4.081   7.655
 8016POPC   NC333023  34.571   9.752   9.455
 8016POPC   PO433024  34.601   9.706   9.155
 8016POPC   GL133025  34.613   9.723   8.855
 8016POPC   GL233026  34.580   9.647   8.855
 8016POPC   C1A33027  34.619   9.789   8.555
 8016POPC   D2A33028  34.607   9.718   8.255
 8016POPC   C3A33029  34.588   9.743   7.955
 8016POPC   C4A33030  34.607   9.775   7.655
 8016POPC   C1B33031  34.608   9.451   8.555
 8016POPC   C2B33032  34.638   9.549   8.255
 8016POPC   C3B33033  34.619   9.490   7.955
 8016POPC   C4B33034  34.564   9.507   7.655
 8017POPC   NC333035  29.115  43.136   9.455
 8017POPC   PO433036  29.174  43.145   9.155
 8017POPC   GL133037  29.146  43.075   8.855
 8017POPC   GL233038  29.057  43.245   8.855
 8017POPC   C1A33039  29.148  43.078   8.555
 8017POPC   D2A33040  29.137  43.082   8.255
 8017POPC   C3A33041  29.113  43.108   7.955
 8017POPC   C4A33042  29.104  43.133   7.655
 8017POPC   C1B33043  29.090  43.337   8.555
 8017POPC   C2B33044  29.076  43.304   8.255
 8017POPC   C3B33045  29.007  43.312   7.955
 8017POPC   C4B33046  29.039  43.349   7.655
 8018POPC   NC333047  35.319  33.011   9.455
 8018POPC   PO433048  35.331  33.034   9.155
 8018POPC   GL133049  35.343  33.028   8.855
 8018POPC   GL233050  35.281  33.047   8.855
 8018POPC   C1A33051  35.359  33.036   8.555
 8018POPC   D2A33052  35.397  33.041   8.255
 8018POPC   C3A33053  35.326  33.038   7.955
 8018POPC   C4A33054  35.388  32.995   7.655
 8018POPC   C1B33055  35.095  33.172   8.555
 8018POPC   C2B33056  35.104  33.150   8.255
 8018POPC   C3B33057  35.164  33.124   7.955
 8018POPC   C4B33058  35.080  33.123   7.655
 8019POPC   NC333059   2.814  22.921   9.455
 8019POPC   PO433060   2.756  22.952   9.155
 8019POPC   GL133061   2.807  22.904   8.855
 8019POPC   GL233062   2.631  22.905   8.855
 8019POPC   C1A33063   2.783  22.976   8.555
 8019POPC   D2A33064   2.750  22.939   8.255
 8019POPC   C3A33065   2.777  22.969   7.955
 8019POPC   C4A33066   2.799  22.965   7.655
 8019POPC   C1B33067   2.473  22.969   8.555
 8019POPC   C2B33068   2.497  22.924   8.255
 8019POPC   C3B33069   2.563  22.949   7.955
 8019POPC   C4B33070   2.524  22.929   7.655
 8020POPC   NC333071  36.869  21.377   9.455
 8020POPC   PO433072  36.922  21.340   9.155
 8020POPC   GL133073  36.899  21.347   8.855
 8020POPC   GL233074  36.847  21.308   8.855
 8020POPC   C1A33075  36.872  21.410   8.555
 8020POPC   D2A33076  36.867  21.421   8.255
 8020POPC   C3A33077  36.889  21.354   7.955
 8020POPC   C4A33078  36.863  21.343   7.655
 8020POPC   C1B33079  36.725  21.275   8.555
 8020POPC   C2B33080  36.702  21.234   8.255
 8020POPC   C3B33081  36.717  21.257   7.955
 8020POPC   C4B33082  36.694  21.238   7.655
 8021POPC   NC333083  17.494  18.301   9.455
 8021POPC   PO433084  17.479  18.245   9.155
 8021POPC   GL133085  17.504  18.324   8.855
 8021POPC   GL233086  17.461  18.197   8.855
 8021POPC   C1A33087  17.519  18.332   8.555
 8021POPC   D2A33088  17.462  18.283   8.255
 8021POPC   C3A33089  17.460  18.305   7.955
 8021POPC   C4A33090  17.556  18.243   7.655
 8021POPC   C1B33091  17.363  18.101   8.555
 8021POPC   C2B33092  17.407  18.105   8.255
 8021POPC   C3B33093  17.399  18.035   7.955
 8021POPC   C4B33094  17.359  18.092   7.655
 8022POPC   NC333095  25.255   8.182   9.455
 8022POPC   PO433096  25.246   8.243   9.155
 8022POPC   GL133097  25.285   8.226   8.855
 8022POPC   GL233098  25.432   8.185   8.855
 8022POPC   C1A33099  25.254   8.239   8.555
 8022POPC   D2A33100  25.216   8.192   8.255
 8022POPC   C3A33101  25.231   8.185   7.955
 8022POPC   C4A33102  25.240   8.239   7.655
 8022POPC   C1B33103  25.468   8.260   8.555
 8022POPC   C2B33104  25.498   8.281   8.255
 8022POPC   C3B33105  25.554   8.240   7.955
 8022POPC   C4B33106  25.523   8.253   7.655
 8023POPC   NC333107  31.451   5.072   9.455
 8023POPC   PO433108  31.465   5.082   9.155
 8023POPC   GL133109  31.457   5.114   8.855
 8023POPC   GL233110  31.525   5.048   8.855
 8023POPC   C1A33111  31.457   5.127   8.555
 8023POPC   D2A33112  31.447   5.079   8.255
 8023POPC   C3A33113  31.472   5.106   7.955
 8023POPC   C4A33114  31.501   5.044   7.655
 8023POPC   C1B33115  31.663   4.980   8.555
 8023POPC   C2B33116  31.704   4.940   8.255
 8023POPC   C3B33117  31.657   4.970   7.955
 8023POPC   C4B33118  31.640   4.944   7.655
 8024POPC   NC333119  33.792   7.402   9.455
 8024POPC   PO433120  33.787   7.434   9.155
 8024POPC   GL133121  33.808   7.382   8.855
 8024POPC   GL233122  33.889   7.325   8.855
 8024POPC   C1A33123  33.751   7.405   8.555
 8024POPC   D2A33124  33.812   7.391   8.255
 8024POPC   C3A33125  33.758   7.443   7.955
 8024POPC   C4A33126  33.766   7.401   7.655
 8024POPC   C1B33127  33.875   7.195   8.555
 8024POPC   C2B33128  33.841   7.221   8.255
 8024POPC   C3B33129  33.874   7.154   7.955
 8024POPC   C4B33130  33.868   7.220   7.655
 8025POPC   NC333131  37.678  19.024   9.455
 8025POPC   PO433132  37.658  19.074   9.155
 8025POPC   GL133133  37.702  19.050   8.855
 8025POPC   GL233134  37.636  19.113   8.855
 8025POPC   C1A33135  37.671  19.063   8.555
 8025POPC   D2A33136  37.703  19.083   8.255
 8025POPC   C3A33137  37.695  19.105   7.955
 8025POPC   C4A33138  37.651  19.070   7.655
 8025POPC   C1B33139  37.478  19.222   8.555
 8025POPC   C2B33140  37.471  19.194   8.255
 8025POPC   C3B33141  37.477  19.226   7.955
 8025POPC   C4B33142  37.513  19.246   7.655
 8026POPC   NC333143  16.730   2.785   9.455
 8026POPC   PO433144  16.747   2.763   9.155
 8026POPC   GL133145  16.712   2.812   8.855
 8026POPC   GL233146  16.825   2.742   8.855
 8026POPC   C1A33147  16.716   2.815   8.555
 8026POPC   D2A33148  16.749   2.772   8.255
 8026POPC   C3A33149  16.740   2.787   7.955
 8026POPC   C4A33150  16.767   2.774   7.655
 8026POPC   C1B33151  16.989   2.701   8.555
 8026POPC   C2B33152  17.025   2.767   8.255
 8026POPC   C3B33153  16.939   2.741   7.955
 8026POPC   C4B33154  16.942   2.776   7.655
 8027POPC   NC333155  12.085   5.846   9.455
 8027POPC   PO433156  12.051   5.910   9.155
 8027POPC   GL133157  12.053   5.881   8.855
 8027POPC   GL233158  12.074   5.716   8.855
 8027POPC   C1A33159  12.087   5.843   8.555
 8027POPC   D2A33160  12.095   5.840   8.255
 8027POPC   C3A33161  12.125   5.842   7.955
 8027POPC   C4A33162  12.103   5.898   7.655
 8027POPC   C1B33163  11.989   5.607   8.555
 8027POPC   C2B33164  12.005   5.624   8.255
 8027POPC   C3B33165  12.040   5.623   7.955
 8027POPC   C4B33166  12.070   5.605   7.655
 8028POPC   NC333167   8.246   2.731   9.455
 8028POPC   PO433168   8.159   2.750   9.155
 8028POPC   GL133169   8.150   2.739   8.855
 8028POPC   GL233170   8.089   2.663   8.855
 8028POPC   C1A33171   8.220   2.815   8.555
 8028POPC   D2A33172   8.151   2.773   8.255
 8028POPC   C3A33173   8.173   2.774   7.955
 8028POPC   C4A33174   8.171   2.784   7.655
 8028POPC   C1B33175   8.010   2.527   8.555
 8028POPC   C2B33176   8.067   2.561   8.255
 8028POPC   C3B33177   8.074   2.557   7.955
 8028POPC   C4B33178   8.080   2.581   7.655
 8029POPC   NC333179  18.298  22.196   9.455
 8029POPC   PO433180  18.297  22.205   9.155
 8029POPC   GL133181  18.241  22.191   8.855
 8029POPC   GL233182  18.191  22.310   8.855
 8029POPC   C1A33183  18.317  22.183   8.555
 8029POPC   D2A33184  18.332  22.182   8.255
 8029POPC   C3A33185  18.249  22.204   7.955
 8029POPC   C4A33186  18.277  22.121   7.655
 8029POPC   C1B33187  18.184  22.373   8.555
 8029POPC   C2B33188  18.162  22.428   8.255
 8029POPC   C3B33189  18.167  22.432   7.955
 8029POPC   C4B33190  18.179  22.418   7.655
 8030POPC   NC333191  12.848  10.504   9.455
 8030POPC   PO433192  12.861  10.542   9.155
 8030POPC   GL133193  12.890  10.538   8.855
 8030POPC   GL233194  12.892  10.615   8.855
 8030POPC   C1A33195  12.811  10.520   8.555
 8030POPC   D2A33196  12.814  10.484   8.255
 8030POPC   C3A33197  12.869  10.490   7.955
 8030POPC   C4A33198  12.902  10.527   7.655
 8030POPC   C1B33199  12.904  10.788   8.555
 8030POPC   C2B33200  12.963  10.805   8.255
 8030POPC   C3B33201  12.918  10.731   7.955
 8030POPC   C4B33202  12.897  10.743   7.655
 8031POPC   NC333203  19.044  35.338   9.455
 8031POPC   PO433204  19.047  35.329   9.155
 8031POPC   GL133205  19.044  35.369   8.855
 8031POPC   GL233206  19.149  35.258   8.855
 8031POPC   C1A33207  19.050  35.365   8.555
 8031POPC   D2A33208  19.053  35.303   8.255
 8031POPC   C3A33209  19.020  35.396   7.955
 8031POPC   C4A33210  19.039  35.377   7.655
 8031POPC   C1B33211  19.140  35.120   8.555
 8031POPC   C2B33212  19.180  35.121   8.255
 8031POPC   C3B33213  19.123  35.129   7.955
 8031POPC   C4B33214  19.164  35.140   7.655
 8032POPC   NC333215  31.466  20.605   9.455
 8032POPC   PO433216  31.512  20.604   9.155
 8032POPC   GL133217  31.513  20.606   8.855
 8032POPC   GL233218  31.420  20.690   8.855
 8032POPC   C1A33219  31.446  20.590   8.555
 8032POPC   D2A33220  31.471  20.630   8.255
 8032POPC   C3A33221  31.504  20.646   7.955
 8032POPC   C4A33222  31.482  20.660   7.655
 8032POPC   C1B33223  31.427  20.860   8.555
 8032POPC   C2B33224  31.406  20.865   8.255
 8032POPC   C3B33225  31.392  20.835   7.955
 8032POPC   C4B33226  31.365  20.805   7.655
 8033POPC   NC333227  24.470  27.643   9.455
 8033POPC   PO433228  24.494  27.558   9.155
 8033POPC   GL133229  24.537  27.604   8.855
 8033POPC   GL233230  24.389  27.640   8.855
 8033POPC   C1A33231  24.503  27.587   8.555
 8033POPC   D2A33232  24.444  27.625   8.255
 8033POPC   C3A33233  24.525  27.624   7.955
 8033POPC   C4A33234  24.537  27.600   7.655
 8033POPC   C1B33235  24.232  27.655   8.555
 8033POPC   C2B33236  24.266  27.679   8.255
 8033POPC   C3B33237  24.250  27.634   7.955
 8033POPC   C4B33238  24.277  27.665   7.655
 8034POPC   NC333239  36.135  34.559   9.455
 8034POPC   PO433240  36.144  34.569   9.155
 8034POPC   GL133241  36.145  34.624   8.855
 8034POPC   GL233242  36.235  34.453   8.855
 8034POPC   C1A33243  36.178  34.536   8.555
 8034POPC   D2A33244  36.086  34.548   8.255
 8034POPC   C3A33245  36.082  34.582   7.955
 8034POPC   C4A33246  36.135  34.533   7.655
 8034POPC   C1B33247  36.303  34.414   8.555
 8034POPC   C2B33248  36.357  34.427   8.255
 8034POPC   C3B33249  36.332  34.369   7.955
 8034POPC   C4B33250  36.345  34.375   7.655
 8035POPC   NC333251  43.915   5.834   9.455
 8035POPC   PO433252  43.903   5.898   9.155
 8035POPC   GL133253  43.887   5.917   8.855
 8035POPC   GL233254  43.955   6.012   8.855
 8035POPC   C1A33255  43.865   5.903   8.555
 8035POPC   D2A33256  43.840   5.847   8.255
 8035POPC   C3A33257  43.891   5.843   7.955
 8035POPC   C4A33258  43.839   5.887   7.655
 8035POPC   C1B33259  43.983   6.157   8.555
 8035POPC   C2B33260  43.984   6.073   8.255
 8035POPC   C3B33261  43.952   6.097   7.955
 8035POPC   C4B33262  43.980   6.086   7.655
 8036POPC   NC333263   3.512  12.084   9.455
 8036POPC   PO433264   3.543  12.110   9.155
 8036POPC   GL133265   3.531  12.037   8.855
 8036POPC   GL233266   3.617  11.941   8.855
 8036POPC   C1A33267   3.568  12.065   8.555
 8036POPC   D2A33268   3.587  12.030   8.255
 8036POPC   C3A33269   3.540  12.111   7.955
 8036POPC   C4A33270   3.519  12.074   7.655
 8036POPC   C1B33271   3.619  11.810   8.555
 8036POPC   C2B33272   3.653  11.883   8.255
 8036POPC   C3B33273   3.658  11.839   7.955
 8036POPC   C4B33274   3.568  11.810   7.655
 8037POPC   NC333275  11.278  37.663   9.455
 8037POPC   PO433276  11.312  37.670   9.155
 8037POPC   GL133277  11.262  37.702   8.855
 8037POPC   GL233278  11.334  37.769   8.855
 8037POPC   C1A33279  11.323  37.665   8.555
 8037POPC   D2A33280  11.252  37.699   8.255
 8037POPC   C3A33281  11.315  37.679   7.955
 8037POPC   C4A33282  11.252  37.683   7.655
 8037POPC   C1B33283  11.364  37.892   8.555
 8037POPC   C2B33284  11.352  37.935   8.255
 8037POPC   C3B33285  11.344  37.926   7.955
 8037POPC   C4B33286  11.391  37.923   7.655
 8038POPC   NC333287  21.374  26.080   9.455
 8038POPC   PO433288  21.379  26.016   9.155
 8038POPC   GL133289  21.431  26.081   8.855
 8038POPC   GL233290  21.437  26.131   8.855
 8038POPC   C1A33291  21.337  26.062   8.555
 8038POPC   D2A33292  21.399  26.073   8.255
 8038POPC   C3A33293  21.337  26.078   7.955
 8038POPC   C4A33294  21.368  26.020   7.655
 8038POPC   C1B33295  21.398  26.281   8.555
 8038POPC   C2B33296  21.409  26.311   8.255
 8038POPC   C3B33297  21.478  26.318   7.955
 8038POPC   C4B33298  21.407  26.300   7.655
 8039POPC   NC333299   5.054  22.943   9.455
 8039POPC   PO433300   5.061  22.959   9.155
 8039POPC   GL133301   5.070  22.932   8.855
 8039POPC   GL233302   5.179  22.823   8.855
 8039POPC   C1A33303   5.107  22.895   8.555
 8039POPC   D2A33304   5.106  22.969   8.255
 8039POPC   C3A33305   5.112  22.903   7.955
 8039POPC   C4A33306   5.044  22.963   7.655
 8039POPC   C1B33307   5.218  22.753   8.555
 8039POPC   C2B33308   5.215  22.687   8.255
 8039POPC   C3B33309   5.230  22.691   7.955
 8039POPC   C4B33310   5.255  22.752   7.655
 8040POPC   NC333311  23.679  36.862   9.455
 8040POPC   PO433312  23.733  36.863   9.155
 8040POPC   GL133313  23.671  36.944   8.855
 8040POPC   GL233314  23.789  36.804   8.855
 8040POPC   C1A33315  23.706  36.857   8.555
 8040POPC   D2A33316  23.666  36.902   8.255
 8040POPC   C3A33317  23.718  36.945   7.955
 8040POPC   C4A33318  23.692  36.928   7.655
 8040POPC   C1B33319  23.833  36.630   8.555
 8040POPC   C2B33320  23.789  36.704   8.255
 8040POPC   C3B33321  23.842  36.666   7.955
 8040POPC   C4B33322  23.800  36.685   7.655
 8041POPC   NC333323   9.721  43.867   9.455
 8041POPC   PO433324   9.764  43.866   9.155
 8041POPC   GL133325   9.767  43.890   8.855
 8041POPC   GL233326   9.882  43.966   8.855
 8041POPC   C1A33327   9.798  43.850   8.555
 8041POPC   D2A33328   9.701  43.869   8.255
 8041POPC   C3A33329   9.789  43.858   7.955
 8041POPC   C4A33330   9.772  43.924   7.655
 8041POPC   C1B33331   9.956  44.016   8.555
 8041POPC   C2B33332   9.916  44.056   8.255
 8041POPC   C3B33333   9.896  44.067   7.955
 8041POPC   C4B33334   9.940  44.016   7.655
 8042POPC   NC333335  36.920  18.284   9.455
 8042POPC   PO433336  36.890  18.263   9.155
 8042POPC   GL133337  36.922  18.314   8.855
 8042POPC   GL233338  36.961  18.159   8.855
 8042POPC   C1A33339  36.860  18.239   8.555
 8042POPC   D2A33340  36.880  18.332   8.255
 8042POPC   C3A33341  36.871  18.255   7.955
 8042POPC   C4A33342  36.925  18.246   7.655
 8042POPC   C1B33343  36.989  18.048   8.555
 8042POPC   C2B33344  37.068  18.076   8.255
 8042POPC   C3B33345  37.025  18.087   7.955
 8042POPC   C4B33346  37.074  18.041   7.655
 8043POPC   NC333347  13.648  40.810   9.455
 8043POPC   PO433348  13.661  40.783   9.155
 8043POPC   GL133349  13.613  40.800   8.855
 8043POPC   GL233350  13.617  40.618   8.855
 8043POPC   C1A33351  13.666  40.807   8.555
 8043POPC   D2A33352  13.603  40.758   8.255
 8043POPC   C3A33353  13.620  40.758   7.955
 8043POPC   C4A33354  13.588  40.781   7.655
 8043POPC   C1B33355  13.671  40.584   8.555
 8043POPC   C2B33356  13.650  40.519   8.255
 8043POPC   C3B33357  13.707  40.519   7.955
 8043POPC   C4B33358  13.672  40.500   7.655
 8044POPC   NC333359  32.991   8.189   9.455
 8044POPC   PO433360  33.056   8.236   9.155
 8044POPC   GL133361  33.032   8.172   8.855
 8044POPC   GL233362  32.944   8.341   8.855
 8044POPC   C1A33363  32.987   8.158   8.555
 8044POPC   D2A33364  32.977   8.229   8.255
 8044POPC   C3A33365  32.977   8.162   7.955
 8044POPC   C4A33366  33.021   8.226   7.655
 8044POPC   C1B33367  32.940   8.389   8.555
 8044POPC   C2B33368  32.957   8.416   8.255
 8044POPC   C3B33369  32.966   8.398   7.955
 8044POPC   C4B33370  32.901   8.384   7.655
 8045POPC   NC333371  36.103  17.541   9.455
 8045POPC   PO433372  36.147  17.499   9.155
 8045POPC   GL133373  36.110  17.504   8.855
 8045POPC   GL233374  36.004  17.627   8.855
 8045POPC   C1A33375  36.105  17.482   8.555
 8045POPC   D2A33376  36.108  17.536   8.255
 8045POPC   C3A33377  36.177  17.512   7.955
 8045POPC   C4A33378  36.111  17.513   7.655
 8045POPC   C1B33379  35.999  17.722   8.555
 8045POPC   C2B33380  35.918  17.660   8.255
 8045POPC   C3B33381  35.904  17.652   7.955
 8045POPC   C4B33382  35.934  17.633   7.655
 8046POPC   NC333383   5.840  41.577   9.455
 8046POPC   PO433384   5.892  41.608   9.155
 8046POPC   GL133385   5.898  41.585   8.855
 8046POPC   GL233386   5.838  41.476   8.855
 8046POPC   C1A33387   5.908  41.578   8.555
 8046POPC   D2A33388   5.847  41.547   8.255
 8046POPC   C3A33389   5.837  41.528   7.955
 8046POPC   C4A33390   5.864  41.579   7.655
 8046POPC   C1B33391   5.775  41.337   8.555
 8046POPC   C2B33392   5.763  41.313   8.255
 8046POPC   C3B33393   5.841  41.327   7.955
 8046POPC   C4B33394   5.846  41.309   7.655
 8047POPC   NC333395  24.457  36.130   9.455
 8047POPC   PO433396  24.467  36.099   9.155
 8047POPC   GL133397  24.539  36.164   8.855
 8047POPC   GL233398  24.397  36.054   8.855
 8047POPC   C1A33399  24.453  36.118   8.555
 8047POPC   D2A33400  24.486  36.121   8.255
 8047POPC   C3A33401  24.522  36.102   7.955
 8047POPC   C4A33402  24.534  36.170   7.655
 8047POPC   C1B33403  24.321  35.968   8.555
 8047POPC   C2B33404  24.320  35.936   8.255
 8047POPC   C3B33405  24.299  35.905   7.955
 8047POPC   C4B33406  24.294  35.975   7.655
 8048POPC   NC333407  27.582   1.242   9.455
 8048POPC   PO433408  27.546   1.253   9.155
 8048POPC   GL133409  27.593   1.246   8.855
 8048POPC   GL233410  27.482   1.160   8.855
 8048POPC   C1A33411  27.563   1.256   8.555
 8048POPC   D2A33412  27.639   1.232   8.255
 8048POPC   C3A33413  27.638   1.172   7.955
 8048POPC   C4A33414  27.603   1.178   7.655
 8048POPC   C1B33415  27.427   1.064   8.555
 8048POPC   C2B33416  27.427   1.124   8.255
 8048POPC   C3B33417  27.399   1.121   7.955
 8048POPC   C4B33418  27.414   1.056   7.655
 8049POPC   NC333419  15.951  29.940   9.455
 8049POPC   PO433420  16.004  29.958   9.155
 8049POPC   GL133421  15.944  29.965   8.855
 8049POPC   GL233422  15.798  29.943   8.855
 8049POPC   C1A33423  15.914  29.880   8.555
 8049POPC   D2A33424  15.968  29.882   8.255
 8049POPC   C3A33425  15.974  29.944   7.955
 8049POPC   C4A33426  15.998  29.897   7.655
 8049POPC   C1B33427  15.721  30.037   8.555
 8049POPC   C2B33428  15.736  29.982   8.255
 8049POPC   C3B33429  15.769  29.994   7.955
 8049POPC   C4B33430  15.716  29.967   7.655
 8050POPC   NC333431  28.333  42.296   9.455
 8050POPC   PO433432  28.354  42.382   9.155
 8050POPC   GL133433  28.327  42.291   8.855
 8050POPC   GL233434  28.427  42.279   8.855
 8050POPC   C1A33435  28.384  42.347   8.555
 8050POPC   D2A33436  28.354  42.292   8.255
 8050POPC   C3A33437  28.407  42.293   7.955
 8050POPC   C4A33438  28.340  42.291   7.655
 8050POPC   C1B33439  28.547  42.116   8.555
 8050POPC   C2B33440  28.543  42.114   8.255
 8050POPC   C3B33441  28.525  42.142   7.955
 8050POPC   C4B33442  28.513  42.165   7.655
 8051POPC   NC333443  17.547  36.125   9.455
 8051POPC   PO433444  17.512  36.173   9.155
 8051POPC   GL133445  17.473  36.118   8.855
 8051POPC   GL233446  17.472  36.008   8.855
 8051POPC   C1A33447  17.472  36.141   8.555
 8051POPC   D2A33448  17.489  36.096   8.255
 8051POPC   C3A33449  17.537  36.175   7.955
 8051POPC   C4A33450  17.458  36.175   7.655
 8051POPC   C1B33451  17.352  35.896   8.555
 8051POPC   C2B33452  17.314  35.935   8.255
 8051POPC   C3B33453  17.391  35.962   7.955
 8051POPC   C4B33454  17.362  35.893   7.655
 8052POPC   NC333455  24.502  26.091   9.455
 8052POPC   PO433456  24.524  26.075   9.155
 8052POPC   GL133457  24.451  26.026   8.855
 8052POPC   GL233458  24.608  26.004   8.855
 8052POPC   C1A33459  24.474  26.022   8.555
 8052POPC   D2A33460  24.507  25.993   8.255
 8052POPC   C3A33461  24.509  26.017   7.955
 8052POPC   C4A33462  24.522  26.033   7.655
 8052POPC   C1B33463  24.782  26.029   8.555
 8052POPC   C2B33464  24.717  26.024   8.255
 8052POPC   C3B33465  24.740  26.004   7.955
 8052POPC   C4B33466  24.735  26.026   7.655
 8053POPC   NC333467  13.641   2.767   9.455
 8053POPC   PO433468  13.604   2.765   9.155
 8053POPC   GL133469  13.653   2.727   8.855
 8053POPC   GL233470  13.765   2.711   8.855
 8053POPC   C1A33471  13.583   2.757   8.555
 8053POPC   D2A33472  13.615   2.734   8.255
 8053POPC   C3A33473  13.599   2.762   7.955
 8053POPC   C4A33474  13.604   2.773   7.655
 8053POPC   C1B33475  13.844   2.773   8.555
 8053POPC   C2B33476  13.911   2.712   8.255
 8053POPC   C3B33477  13.917   2.707   7.955
 8053POPC   C4B33478  13.866   2.753   7.655
 8054POPC   NC333479  19.836   5.087   9.455
 8054POPC   PO433480  19.844   5.085   9.155
 8054POPC   GL133481  19.870   5.069   8.855
 8054POPC   GL233482  19.802   4.959   8.855
 8054POPC   C1A33483  19.800   5.087   8.555
 8054POPC   D2A33484  19.832   5.084   8.255
 8054POPC   C3A33485  19.860   5.108   7.955
 8054POPC   C4A33486  19.839   5.118   7.655
 8054POPC   C1B33487  19.719   4.839   8.555
 8054POPC   C2B33488  19.767   4.804   8.255
 8054POPC   C3B33489  19.786   4.829   7.955
 8054POPC   C4B33490  19.811   4.883   7.655
 8055POPC   NC333491  36.909  12.080   9.455
 8055POPC   PO433492  36.906  12.077   9.155
 8055POPC   GL133493  36.890  12.084   8.855
 8055POPC   GL233494  36.978  11.997   8.855
 8055POPC   C1A33495  36.903  12.067   8.555
 8055POPC   D2A33496  36.878  12.046   8.255
 8055POPC   C3A33497  36.948  12.031   7.955
 8055POPC   C4A33498  36.914  12.063   7.655
 8055POPC   C1B33499  37.000  11.836   8.555
 8055POPC   C2B33500  37.005  11.864   8.255
 8055POPC   C3B33501  37.090  11.871   7.955
 8055POPC   C4B33502  37.063  11.910   7.655
 8056POPC   NC333503  18.300  29.099   9.455
 8056POPC   PO433504  18.239  29.175   9.155
 8056POPC   GL133505  18.252  29.192   8.855
 8056POPC   GL233506  18.258  29.233   8.855
 8056POPC   C1A33507  18.293  29.172   8.555
 8056POPC   D2A33508  18.275  29.179   8.255
 8056POPC   C3A33509  18.280  29.183   7.955
 8056POPC   C4A33510  18.272  29.152   7.655
 8056POPC   C1B33511  18.330  29.347   8.555
 8056POPC   C2B33512  18.321  29.388   8.255
 8056POPC   C3B33513  18.308  29.412   7.955
 8056POPC   C4B33514  18.321  29.352   7.655
 8057POPC   NC333515  13.669  38.428   9.455
 8057POPC   PO433516  13.581  38.405   9.155
 8057POPC   GL133517  13.640  38.428   8.855
 8057POPC   GL233518  13.747  38.372   8.855
 8057POPC   C1A33519  13.614  38.489   8.555
 8057POPC   D2A33520  13.615  38.491   8.255
 8057POPC   C3A33521  13.661  38.428   7.955
 8057POPC   C4A33522  13.634  38.430   7.655
 8057POPC   C1B33523  13.861  38.329   8.555
 8057POPC   C2B33524  13.798  38.288   8.255
 8057POPC   C3B33525  13.873  38.340   7.955
 8057POPC   C4B33526  13.882  38.375   7.655
 8058POPC   NC333527  20.638  34.567   9.455
 8058POPC   PO433528  20.591  34.603   9.155
 8058POPC   GL133529  20.582  34.560   8.855
 8058POPC   GL233530  20.693  34.424   8.855
 8058POPC   C1A33531  20.615  34.571   8.555
 8058POPC   D2A33532  20.620  34.577   8.255
 8058POPC   C3A33533  20.597  34.604   7.955
 8058POPC   C4A33534  20.613  34.528   7.655
 8058POPC   C1B33535  20.734  34.351   8.555
 8058POPC   C2B33536  20.744  34.396   8.255
 8058POPC   C3B33537  20.702  34.369   7.955
 8058POPC   C4B33538  20.692  34.330   7.655
 8059POPC   NC333539  32.298  30.649   9.455
 8059POPC   PO433540  32.201  30.705   9.155
 8059POPC   GL133541  32.217  30.688   8.855
 8059POPC   GL233542  32.302  30.785   8.855
 8059POPC   C1A33543  32.237  30.699   8.555
 8059POPC   D2A33544  32.289  30.675   8.255
 8059POPC   C3A33545  32.281  30.716   7.955
 8059POPC   C4A33546  32.231  30.724   7.655
 8059POPC   C1B33547  32.320  30.969   8.555
 8059POPC   C2B33548  32.278  30.939   8.255
 8059POPC   C3B33549  32.284  30.989   7.955
 8059POPC   C4B33550  32.310  30.902   7.655
 8060POPC   NC333551  29.910   2.795   9.455
 8060POPC   PO433552  29.910   2.738   9.155
 8060POPC   GL133553  29.904   2.769   8.855
 8060POPC   GL233554  29.800   2.834   8.855
 8060POPC   C1A33555  29.933   2.815   8.555
 8060POPC   D2A33556  29.969   2.780   8.255
 8060POPC   C3A33557  29.937   2.763   7.955
 8060POPC   C4A33558  29.904   2.746   7.655
 8060POPC   C1B33559  29.708   2.935   8.555
 8060POPC   C2B33560  29.691   2.932   8.255
 8060POPC   C3B33561  29.775   2.889   7.955
 8060POPC   C4B33562  29.688   2.959   7.655
 8061POPC   NC333563  43.919  24.493   9.455
 8061POPC   PO433564  43.856  24.516   9.155
 8061POPC   GL133565  43.862  24.480   8.855
 8061POPC   GL233566  43.911  24.376   8.855
 8061POPC   C1A33567  43.910  24.499   8.555
 8061POPC   D2A33568  43.905  24.457   8.255
 8061POPC   C3A33569  43.910  24.533   7.955
 8061POPC   C4A33570  43.839  24.491   7.655
 8061POPC   C1B33571  43.850  24.265   8.555
 8061POPC   C2B33572  43.882  24.202   8.255
 8061POPC   C3B33573  43.882  24.215   7.955
 8061POPC   C4B33574  43.841  24.223   7.655
 8062POPC   NC333575  43.918  39.213   9.455
 8062POPC   PO433576  43.934  39.236   9.155
 8062POPC   GL133577  43.879  39.195   8.855
 8062POPC   GL233578  43.800  39.366   8.855
 8062POPC   C1A33579  43.864  39.190   8.555
 8062POPC   D2A33580  43.858  39.202   8.255
 8062POPC   C3A33581  43.924  39.235   7.955
 8062POPC   C4A33582  43.849  39.187   7.655
 8062POPC   C1B33583  43.721  39.475   8.555
 8062POPC   C2B33584  43.728  39.466   8.255
 8062POPC   C3B33585  43.736  39.500   7.955
 8062POPC   C4B33586  43.815  39.404   7.655
 8063POPC   NC333587  16.000  43.871   9.455
 8063POPC   PO433588  15.938  43.868   9.155
 8063POPC   GL133589  15.990  43.894   8.855
 8063POPC   GL233590  15.855  43.840   8.855
 8063POPC   C1A33591  15.944  43.852   8.555
 8063POPC   D2A33592  15.922  43.901   8.255
 8063POPC   C3A33593  15.947  43.916   7.955
 8063POPC   C4A33594  15.940  43.861   7.655
 8063POPC   C1B33595  15.709  43.817   8.555
 8063POPC   C2B33596  15.701  43.880   8.255
 8063POPC   C3B33597  15.716  43.796   7.955
 8063POPC   C4B33598  15.680  43.852   7.655
 8064POPC   NC333599  37.723  31.458   9.455
 8064POPC   PO433600  37.668  31.428   9.155
 8064POPC   GL133601  37.703  31.511   8.855
 8064POPC   GL233602  37.571  31.495   8.855
 8064POPC   C1A33603  37.698  31.500   8.555
 8064POPC   D2A33604  37.637  31.485   8.255
 8064POPC   C3A33605  37.710  31.424   7.955
 8064POPC   C4A33606  37.666  31.427   7.655
 8064POPC   C1B33607  37.401  31.424   8.555
 8064POPC   C2B33608  37.428  31.442   8.255
 8064POPC   C3B33609  37.437  31.425   7.955
 8064POPC   C4B33610  37.445  31.470   7.655
 8065POPC   NC333611  19.876  11.321   9.455
 8065POPC   PO433612  19.879  11.282   9.155
 8065POPC   GL133613  19.884  11.315   8.855
 8065POPC   GL233614  19.846  11.427   8.855
 8065POPC   C1A33615  19.840  11.296   8.555
 8065POPC   D2A33616  19.817  11.323   8.255
 8065POPC   C3A33617  19.838  11.320   7.955
 8065POPC   C4A33618  19.866  11.280   7.655
 8065POPC   C1B33619  19.810  11.532   8.555
 8065POPC   C2B33620  19.837  11.504   8.255
 8065POPC   C3B33621  19.847  11.571   7.955
 8065POPC   C4B33622  19.798  11.587   7.655
 8066POPC   NC333623   3.520   6.600   9.455
 8066POPC   PO433624   3.566   6.686   9.155
 8066POPC   GL133625   3.562   6.622   8.855
 8066POPC   GL233626   3.601   6.789   8.855
 8066POPC   C1A33627   3.553   6.636   8.555
 8066POPC   D2A33628   3.506   6.629   8.255
 8066POPC   C3A33629   3.584   6.606   7.955
 8066POPC   C4A33630   3.508   6.655   7.655
 8066POPC   C1B33631   3.587   6.849   8.555
 8066POPC   C2B33632   3.554   6.863   8.255
 8066POPC   C3B33633   3.629   6.887   7.955
 8066POPC   C4B33634   3.559   6.874   7.655
 8067POPC   NC333635  23.680  12.888   9.455
 8067POPC   PO433636  23.687  12.839   9.155
 8067POPC   GL133637  23.709  12.858   8.855
 8067POPC   GL233638  23.875  12.799   8.855
 8067POPC   C1A33639  23.722  12.823   8.555
 8067POPC   D2A33640  23.762  12.852   8.255
 8067POPC   C3A33641  23.670  12.829   7.955
 8067POPC   C4A33642  23.739  12.883   7.655
 8067POPC   C1B33643  23.969  12.780   8.555
 8067POPC   C2B33644  23.985  12.767   8.255
 8067POPC   C3B33645  23.984  12.743   7.955
 8067POPC   C4B33646  23.909  12.835   7.655
 8068POPC   NC333647  21.415  26.853   9.455
 8068POPC   PO433648  21.436  26.802   9.155
 8068POPC   GL133649  21.429  26.839   8.855
 8068POPC   GL233650  21.380  26.678   8.855
 8068POPC   C1A33651  21.384  26.769   8.555
 8068POPC   D2A33652  21.384  26.827   8.255
 8068POPC   C3A33653  21.341  26.837   7.955
 8068POPC   C4A33654  21.367  26.790   7.655
 8068POPC   C1B33655  21.330  26.559   8.555
 8068POPC   C2B33656  21.343  26.561   8.255
 8068POPC   C3B33657  21.289  26.593   7.955
 8068POPC   C4B33658  21.314  26.571   7.655
 8069POPC   NC333659  37.713  33.013   9.455
 8069POPC   PO433660  37.695  33.053   9.155
 8069POPC   GL133661  37.643  33.026   8.855
 8069POPC   GL233662  37.562  33.154   8.855
 8069POPC   C1A33663  37.671  33.054   8.555
 8069POPC   D2A33664  37.660  33.063   8.255
 8069POPC   C3A33665  37.723  32.982   7.955
 8069POPC   C4A33666  37.672  33.018   7.655
 8069POPC   C1B33667  37.528  33.211   8.555
 8069POPC   C2B33668  37.512  33.225   8.255
 8069POPC   C3B33669  37.521  33.165   7.955
 8069POPC   C4B33670  37.492  33.236   7.655
 8070POPC   NC333671  21.417  19.069   9.455
 8070POPC   PO433672  21.396  19.095   9.155
 8070POPC   GL133673  21.390  19.042   8.855
 8070POPC   GL233674  21.339  19.022   8.855
 8070POPC   C1A33675  21.382  19.098   8.555
 8070POPC   D2A33676  21.369  19.065   8.255
 8070POPC   C3A33677  21.365  19.094   7.955
 8070POPC   C4A33678  21.404  19.024   7.655
 8070POPC   C1B33679  21.244  18.929   8.555
 8070POPC   C2B33680  21.195  18.896   8.255
 8070POPC   C3B33681  21.166  18.914   7.955
 8070POPC   C4B33682  21.233  18.928   7.655
 8071POPC   NC333683  13.604  43.866   9.455
 8071POPC   PO433684  13.620  43.836   9.155
 8071POPC   GL133685  13.670  43.842   8.855
 8071POPC   GL233686  13.506  43.924   8.855
 8071POPC   C1A33687  13.589  43.893   8.555
 8071POPC   D2A33688  13.646  43.885   8.255
 8071POPC   C3A33689  13.670  43.839   7.955
 8071POPC   C4A33690  13.674  43.927   7.655
 8071POPC   C1B33691  13.380  43.931   8.555
 8071POPC   C2B33692  13.411  44.013   8.255
 8071POPC   C3B33693  13.442  43.959   7.955
 8071POPC   C4B33694  13.412  44.016   7.655
 8072POPC   NC333695   7.455  11.254   9.455
 8072POPC   PO433696   7.400  11.307   9.155
 8072POPC   GL133697   7.414  11.322   8.855
 8072POPC   GL233698   7.471  11.433   8.855
 8072POPC   C1A33699   7.423  11.270   8.555
 8072POPC   D2A33700   7.394  11.255   8.255
 8072POPC   C3A33701   7.446  11.320   7.955
 8072POPC   C4A33702   7.429  11.317   7.655
 8072POPC   C1B33703   7.517  11.525   8.555
 8072POPC   C2B33704   7.560  11.550   8.255
 8072POPC   C3B33705   7.500  11.557   7.955
 8072POPC   C4B33706   7.570  11.524   7.655
 8073POPC   NC333707   8.983  19.827   9.455
 8073POPC   PO433708   9.022  19.804   9.155
 8073POPC   GL133709   8.951  19.839   8.855
 8073POPC   GL233710   8.923  19.699   8.855
 8073POPC   C1A33711   9.021  19.801   8.555
 8073POPC   D2A33712   8.945  19.864   8.255
 8073POPC   C3A33713   9.013  19.881   7.955
 8073POPC   C4A33714   8.975  19.807   7.655
 8073POPC   C1B33715   8.758  19.662   8.555
 8073POPC   C2B33716   8.780  19.699   8.255
 8073POPC   C3B33717   8.810  19.663   7.955
 8073POPC   C4B33718   8.817  19.655   7.655
 8074POPC   NC333719   8.991   4.347   9.455
 8074POPC   PO433720   8.928   4.289   9.155
 8074POPC   GL133721   8.984   4.332   8.855
 8074POPC   GL233722   8.961   4.210   8.855
 8074POPC   C1A33723   8.949   4.290   8.555
 8074POPC   D2A33724   9.002   4.332   8.255
 8074POPC   C3A33725   8.980   4.317   7.955
 8074POPC   C4A33726   8.940   4.270   7.655
 8074POPC   C1B33727   8.961   4.113   8.555
 8074POPC   C2B33728   8.939   4.067   8.255
 8074POPC   C3B33729   8.988   4.104   7.955
 8074POPC   C4B33730   8.964   4.054   7.655
 8075POPC   NC333731  15.150  25.996   9.455
 8075POPC   PO433732  15.223  26.049   9.155
 8075POPC   GL133733  15.176  26.019   8.855
 8075POPC   GL233734  15.243  26.116   8.855
 8075POPC   C1A33735  15.182  26.037   8.555
 8075POPC   D2A33736  15.206  26.079   8.255
 8075POPC   C3A33737  15.223  26.058   7.955
 8075POPC   C4A33738  15.167  26.076   7.655
 8075POPC   C1B33739  15.372  26.146   8.555
 8075POPC   C2B33740  15.356  26.216   8.255
 8075POPC   C3B33741  15.399  26.169   7.955
 8075POPC   C4B33742  15.382  26.185   7.655
 8076POPC   NC333743  19.013  15.972   9.455
 8076POPC   PO433744  19.012  15.994   9.155
 8076POPC   GL133745  19.067  15.918   8.855
 8076POPC   GL233746  19.047  15.872   8.855
 8076POPC   C1A33747  19.028  15.957   8.555
 8076POPC   D2A33748  19.061  15.945   8.255
 8076POPC   C3A33749  19.040  15.963   7.955
 8076POPC   C4A33750  19.066  15.982   7.655
 8076POPC   C1B33751  18.932  15.765   8.555
 8076POPC   C2B33752  18.980  15.757   8.255
 8076POPC   C3B33753  18.976  15.681   7.955
 8076POPC   C4B33754  18.929  15.676   7.655
 8077POPC   NC333755  34.529  23.739   9.455
 8077POPC   PO433756  34.597  23.666   9.155
 8077POPC   GL133757  34.551  23.755   8.855
 8077POPC   GL233758  34.666  23.728   8.855
 8077POPC   C1A33759  34.533  23.704   8.555
 8077POPC   D2A33760  34.602  23.706   8.255
 8077POPC   C3A33761  34.569  23.679   7.955
 8077POPC   C4A33762  34.547  23.706   7.655
 8077POPC   C1B33763  34.850  23.699   8.555
 8077POPC   C2B33764  34.845  23.664   8.255
 8077POPC   C3B33765  34.811  23.658   7.955
 8077POPC   C4B33766  34.862  23.667   7.655
 8078POPC   NC333767  26.051  36.088   9.455
 8078POPC   PO433768  26.076  36.126   9.155
 8078POPC   GL133769  26.087  36.109   8.855
 8078POPC   GL233770  25.908  36.133   8.855
 8078POPC   C1A33771  26.047  36.082   8.555
 8078POPC   D2A33772  26.074  36.113   8.255
 8078POPC   C3A33773  26.022  36.174   7.955
 8078POPC   C4A33774  25.999  36.150   7.655
 8078POPC   C1B33775  25.820  36.119   8.555
 8078POPC   C2B33776  25.761  36.185   8.255
 8078POPC   C3B33777  25.779  36.125   7.955
 8078POPC   C4B33778  25.821  36.149   7.655
 8079POPC   NC333779   4.317  35.350   9.455
 8079POPC   PO433780   4.323  35.360   9.155
 8079POPC   GL133781   4.347  35.369   8.855
 8079POPC   GL233782   4.395  35.335   8.855
 8079POPC   C1A33783   4.298  35.331   8.555
 8079POPC   D2A33784   4.293  35.367   8.255
 8079POPC   C3A33785   4.325  35.334   7.955
 8079POPC   C4A33786   4.275  35.335   7.655
 8079POPC   C1B33787   4.606  35.304   8.555
 8079POPC   C2B33788   4.540  35.355   8.255
 8079POPC   C3B33789   4.535  35.349   7.955
 8079POPC   C4B33790   4.589  35.351   7.655
 8080POPC   NC333791  39.268  16.741   9.455
 8080POPC   PO433792  39.275  16.685   9.155
 8080POPC   GL133793  39.272  16.745   8.855
 8080POPC   GL233794  39.218  16.846   8.855
 8080POPC   C1A33795  39.202  16.734   8.555
 8080POPC   D2A33796  39.202  16.754   8.255
 8080POPC   C3A33797  39.275  16.726   7.955
 8080POPC   C4A33798  39.217  16.688   7.655
 8080POPC   C1B33799  39.240  17.026   8.555
 8080POPC   C2B33800  39.216  16.946   8.255
 8080POPC   C3B33801  39.200  17.018   7.955
 8080POPC   C4B33802  39.225  17.001   7.655
 8081POPC   NC333803   5.134  19.026   9.455
 8081POPC   PO433804   5.118  19.087   9.155
 8081POPC   GL133805   5.116  19.042   8.855
 8081POPC   GL233806   5.232  19.174   8.855
 8081POPC   C1A33807   5.107  19.089   8.555
 8081POPC   D2A33808   5.092  19.105   8.255
 8081POPC   C3A33809   5.070  19.093   7.955
 8081POPC   C4A33810   5.128  19.049   7.655
 8081POPC   C1B33811   5.298  19.265   8.555
 8081POPC   C2B33812   5.320  19.213   8.255
 8081POPC   C3B33813   5.333  19.193   7.955
 8081POPC   C4B33814   5.307  19.172   7.655
 8082POPC   NC333815  15.141  29.963   9.455
 8082POPC   PO433816  15.158  29.934   9.155
 8082POPC   GL133817  15.157  29.960   8.855
 8082POPC   GL233818  15.213  29.773   8.855
 8082POPC   C1A33819  15.133  29.918   8.555
 8082POPC   D2A33820  15.157  29.948   8.255
 8082POPC   C3A33821  15.157  29.893   7.955
 8082POPC   C4A33822  15.131  29.957   7.655
 8082POPC   C1B33823  15.191  29.649   8.555
 8082POPC   C2B33824  15.253  29.626   8.255
 8082POPC   C3B33825  15.201  29.640   7.955
 8082POPC   C4B33826  15.180  29.632   7.655
 8083POPC   NC333827  15.943  38.425   9.455
 8083POPC   PO433828  15.922  38.426   9.155
 8083POPC   GL133829  16.005  38.420   8.855
 8083POPC   GL233830  15.875  38.456   8.855
 8083POPC   C1A33831  15.964  38.411   8.555
 8083POPC   D2A33832  15.974  38.431   8.255
 8083POPC   C3A33833  15.908  38.499   7.955
 8083POPC   C4A33834  16.002  38.406   7.655
 8083POPC   C1B33835  15.760  38.365   8.555
 8083POPC   C2B33836  15.678  38.330   8.255
 8083POPC   C3B33837  15.681  38.328   7.955
 8083POPC   C4B33838  15.737  38.315   7.655
 8084POPC   NC333839  15.925  14.426   9.455
 8084POPC   PO433840  15.943  14.356   9.155
 8084POPC   GL133841  15.984  14.420   8.855
 8084POPC   GL233842  16.049  14.421   8.855
 8084POPC   C1A33843  15.965  14.416   8.555
 8084POPC   D2A33844  15.920  14.450   8.255
 8084POPC   C3A33845  16.004  14.430   7.955
 8084POPC   C4A33846  15.982  14.375   7.655
 8084POPC   C1B33847  16.138  14.580   8.555
 8084POPC   C2B33848  16.117  14.582   8.255
 8084POPC   C3B33849  16.197  14.550   7.955
 8084POPC   C4B33850  16.160  14.500   7.655
 8085POPC   NC333851  10.513   6.681   9.455
 8085POPC   PO433852  10.522   6.684   9.155
 8085POPC   GL133853  10.480   6.671   8.855
 8085POPC   GL233854  10.497   6.729   8.855
 8085POPC   C1A33855  10.529   6.655   8.555
 8085POPC   D2A33856  10.572   6.635   8.255
 8085POPC   C3A33857  10.513   6.605   7.955
 8085POPC   C4A33858  10.538   6.694   7.655
 8085POPC   C1B33859  10.389   6.898   8.555
 8085POPC   C2B33860  10.429   6.877   8.255
 8085POPC   C3B33861  10.383   6.863   7.955
 8085POPC   C4B33862  10.433   6.834   7.655
 8086POPC   NC333863   2.771   8.968   9.455
 8086POPC   PO433864   2.754   8.960   9.155
 8086POPC   GL133865   2.781   8.952   8.855
 8086POPC   GL233866   2.877   9.083   8.855
 8086POPC   C1A33867   2.762   8.965   8.555
 8086POPC   D2A33868   2.718   8.957   8.255
 8086POPC   C3A33869   2.792   8.950   7.955
 8086POPC   C4A33870   2.741   8.943   7.655
 8086POPC   C1B33871   2.916   9.130   8.555
 8086POPC   C2B33872   2.898   9.206   8.255
 8086POPC   C3B33873   2.954   9.168   7.955
 8086POPC   C4B33874   2.970   9.127   7.655
 8087POPC   NC333875  19.844  22.195   9.455
 8087POPC   PO433876  19.819  22.154   9.155
 8087POPC   GL133877  19.788  22.150   8.855
 8087POPC   GL233878  19.755  22.063   8.855
 8087POPC   C1A33879  19.858  22.205   8.555
 8087POPC   D2A33880  19.831  22.174   8.255
 8087POPC   C3A33881  19.840  22.127   7.955
 8087POPC   C4A33882  19.787  22.141   7.655
 8087POPC   C1B33883  19.674  21.999   8.555
 8087POPC   C2B33884  19.730  21.929   8.255
 8087POPC   C3B33885  19.684  21.918   7.955
 8087POPC   C4B33886  19.679  21.999   7.655
 8088POPC   NC333887  21.428  13.608   9.455
 8088POPC   PO433888  21.388  13.608   9.155
 8088POPC   GL133889  21.413  13.624   8.855
 8088POPC   GL233890  21.403  13.489   8.855
 8088POPC   C1A33891  21.403  13.615   8.555
 8088POPC   D2A33892  21.398  13.623   8.255
 8088POPC   C3A33893  21.362  13.611   7.955
 8088POPC   C4A33894  21.368  13.578   7.655
 8088POPC   C1B33895  21.365  13.410   8.555
 8088POPC   C2B33896  21.417  13.332   8.255
 8088POPC   C3B33897  21.387  13.413   7.955
 8088POPC   C4B33898  21.348  13.395   7.655
 8089POPC   NC333899  27.577   2.728   9.455
 8089POPC   PO433900  27.601   2.770   9.155
 8089POPC   GL133901  27.624   2.810   8.855
 8089POPC   GL233902  27.606   2.881   8.855
 8089POPC   C1A33903  27.549   2.730   8.555
 8089POPC   D2A33904  27.581   2.744   8.255
 8089POPC   C3A33905  27.549   2.767   7.955
 8089POPC   C4A33906  27.589   2.731   7.655
 8089POPC   C1B33907  27.568   2.975   8.555
 8089POPC   C2B33908  27.533   2.983   8.255
 8089POPC   C3B33909  27.548   2.975   7.955
 8089POPC   C4B33910  27.484   2.977   7.655
 8090POPC   NC333911  16.779  29.133   9.455
 8090POPC   PO433912  16.778  29.157   9.155
 8090POPC   GL133913  16.694  29.166   8.855
 8090POPC   GL233914  16.627  29.127   8.855
 8090POPC   C1A33915  16.702  29.162   8.555
 8090POPC   D2A33916  16.761  29.187   8.255
 8090POPC   C3A33917  16.745  29.146   7.955
 8090POPC   C4A33918  16.713  29.147   7.655
 8090POPC   C1B33919  16.483  29.123   8.555
 8090POPC   C2B33920  16.462  29.105   8.255
 8090POPC   C3B33921  16.445  29.156   7.955
 8090POPC   C4B33922  16.440  29.122   7.655
 8091POPC   NC333923  15.941  36.879   9.455
 8091POPC   PO433924  15.911  36.879   9.155
 8091POPC   GL133925  15.967  36.907   8.855
 8091POPC   GL233926  15.879  37.044   8.855
 8091POPC   C1A33927  15.933  36.869   8.555
 8091POPC   D2A33928  15.935  36.879   8.255
 8091POPC   C3A33929  15.927  36.888   7.955
 8091POPC   C4A33930  15.939  36.927   7.655
 8091POPC   C1B33931  15.816  37.067   8.555
 8091POPC   C2B33932  15.789  37.092   8.255
 8091POPC   C3B33933  15.816  37.109   7.955
 8091POPC   C4B33934  15.762  37.079   7.655
 8092POPC   NC333935  26.838   5.821   9.455
 8092POPC   PO433936  26.784   5.853   9.155
 8092POPC   GL133937  26.775   5.861   8.855
 8092POPC   GL233938  26.882   6.012   8.855
 8092POPC   C1A33939  26.815   5.862   8.555
 8092POPC   D2A33940  26.772   5.861   8.255
 8092POPC   C3A33941  26.797   5.884   7.955
 8092POPC   C4A33942  26.793   5.879   7.655
 8092POPC   C1B33943  26.906   6.077   8.555
 8092POPC   C2B33944  26.889   6.160   8.255
 8092POPC   C3B33945  26.857   6.105   7.955
 8092POPC   C4B33946  26.906   6.096   7.655
 8093POPC   NC333947  26.073  22.150   9.455
 8093POPC   PO433948  26.065  22.158   9.155
 8093POPC   GL133949  26.051  22.171   8.855
 8093POPC   GL233950  26.166  22.224   8.855
 8093POPC   C1A33951  26.059  22.138   8.555
 8093POPC   D2A33952  26.083  22.148   8.255
 8093POPC   C3A33953  26.058  22.200   7.955
 8093POPC   C4A33954  26.045  22.156   7.655
 8093POPC   C1B33955  26.250  22.325   8.555
 8093POPC   C2B33956  26.198  22.318   8.255
 8093POPC   C3B33957  26.199  22.281   7.955
 8093POPC   C4B33958  26.201  22.310   7.655
 8094POPC   NC333959  37.638  27.610   9.455
 8094POPC   PO433960  37.644  27.555   9.155
 8094POPC   GL133961  37.680  27.559   8.855
 8094POPC   GL233962  37.653  27.498   8.855
 8094POPC   C1A33963  37.689  27.543   8.555
 8094POPC   D2A33964  37.715  27.587   8.255
 8094POPC   C3A33965  37.671  27.546   7.955
 8094POPC   C4A33966  37.679  27.576   7.655
 8094POPC   C1B33967  37.635  27.356   8.555
 8094POPC   C2B33968  37.630  27.383   8.255
 8094POPC   C3B33969  37.616  27.345   7.955
 8094POPC   C4B33970  37.679  27.375   7.655
 8095POPC   NC333971  30.745  41.531   9.455
 8095POPC   PO433972  30.722  41.552   9.155
 8095POPC   GL133973  30.676  41.533   8.855
 8095POPC   GL233974  30.809  41.619   8.855
 8095POPC   C1A33975  30.689  41.519   8.555
 8095POPC   D2A33976  30.727  41.602   8.255
 8095POPC   C3A33977  30.735  41.565   7.955
 8095POPC   C4A33978  30.673  41.592   7.655
 8095POPC   C1B33979  30.989  41.635   8.555
 8095POPC   C2B33980  30.921  41.622   8.255
 8095POPC   C3B33981  30.945  41.616   7.955
 8095POPC   C4B33982  30.988  41.608   7.655
 8096POPC   NC333983   7.412  44.624   9.455
 8096POPC   PO433984   7.447  44.675   9.155
 8096POPC   GL133985   7.448  44.698   8.855
 8096POPC   GL233986   7.522  44.586   8.855
 8096POPC   C1A33987   7.430  44.670   8.555
 8096POPC   D2A33988   7.448  44.646   8.255
 8096POPC   C3A33989   7.460  44.701   7.955
 8096POPC   C4A33990   7.438  44.627   7.655
 8096POPC   C1B33991   7.628  44.532   8.555
 8096POPC   C2B33992   7.655  44.487   8.255
 8096POPC   C3B33993   7.617  44.484   7.955
 8096POPC   C4B33994   7.582  44.506   7.655
 8097POPC   NC333995  15.975  33.021   9.455
 8097POPC   PO433996  15.963  32.999   9.155
 8097POPC   GL133997  15.927  32.984   8.855
 8097POPC   GL233998  15.877  33.019   8.855
 8097POPC   C1A33999  15.942  33.063   8.555
 8097POPC   D2A34000  15.992  33.000   8.255
 8097POPC   C3A34001  15.975  32.997   7.955
 8097POPC   C4A34002  16.002  33.056   7.655
 8097POPC   C1B34003  15.748  33.021   8.555
 8097POPC   C2B34004  15.662  33.007   8.255
 8097POPC   C3B34005  15.745  32.938   7.955
 8097POPC   C4B34006  15.758  32.989   7.655
 8098POPC   NC334007  35.327  33.827   9.455
 8098POPC   PO434008  35.364  33.843   9.155
 8098POPC   GL134009  35.309  33.753   8.855
 8098POPC   GL234010  35.218  33.821   8.855
 8098POPC   C1A34011  35.362  33.832   8.555
 8098POPC   D2A34012  35.303  33.772   8.255
 8098POPC   C3A34013  35.367  33.762   7.955
 8098POPC   C4A34014  35.397  33.812   7.655
 8098POPC   C1B34015  35.124  33.783   8.555
 8098POPC   C2B34016  35.131  33.802   8.255
 8098POPC   C3B34017  35.053  33.757   7.955
 8098POPC   C4B34018  35.090  33.803   7.655
 8099POPC   NC334019  39.967  34.548   9.455
 8099POPC   PO434020  39.960  34.616   9.155
 8099POPC   GL134021  40.007  34.540   8.855
 8099POPC   GL234022  40.090  34.522   8.855
 8099POPC   C1A34023  39.991  34.556   8.555
 8099POPC   D2A34024  39.996  34.532   8.255
 8099POPC   C3A34025  40.034  34.562   7.955
 8099POPC   C4A34026  39.996  34.583   7.655
 8099POPC   C1B34027  40.220  34.498   8.555
 8099POPC   C2B34028  40.244  34.500   8.255
 8099POPC   C3B34029  40.238  34.425   7.955
 8099POPC   C4B34030  40.274  34.486   7.655
 8100POPC   NC334031  44.672  39.235   9.455
 8100POPC   PO434032  44.623  39.221   9.155
 8100POPC   GL134033  44.640  39.274   8.855
 8100POPC   GL234034  44.756  39.177   8.855
 8100POPC   C1A34035  44.622  39.203   8.555
 8100POPC   D2A34036  44.700  39.206   8.255
 8100POPC   C3A34037  44.681  39.214   7.955
 8100POPC   C4A34038  44.669  39.214   7.655
 8100POPC   C1B34039  44.816  39.085   8.555
 8100POPC   C2B34040  44.812  39.116   8.255
 8100POPC   C3B34041  44.865  39.049   7.955
 8100POPC   C4B34042  44.808  39.089   7.655
 8101POPC   NC334043  36.897  43.926   9.455
 8101POPC   PO434044  36.882  43.881   9.155
 8101POPC   GL134045  36.935  43.862   8.855
 8101POPC   GL234046  37.006  43.825   8.855
 8101POPC   C1A34047  36.913  43.904   8.555
 8101POPC   D2A34048  36.942  43.930   8.255
 8101POPC   C3A34049  36.885  43.887   7.955
 8101POPC   C4A34050  36.885  43.896   7.655
 8101POPC   C1B34051  37.185  43.896   8.555
 8101POPC   C2B34052  37.168  43.868   8.255
 8101POPC   C3B34053  37.198  43.875   7.955
 8101POPC   C4B34054  37.129  43.830   7.655
 8102POPC   NC334055   4.348   4.274   9.455
 8102POPC   PO434056   4.287   4.276   9.155
 8102POPC   GL134057   4.363   4.317   8.855
 8102POPC   GL234058   4.412   4.320   8.855
 8102POPC   C1A34059   4.301   4.324   8.555
 8102POPC   D2A34060   4.325   4.302   8.255
 8102POPC   C3A34061   4.283   4.316   7.955
 8102POPC   C4A34062   4.301   4.333   7.655
 8102POPC   C1B34063   4.517   4.377   8.555
 8102POPC   C2B34064   4.573   4.408   8.255
 8102POPC   C3B34065   4.608   4.374   7.955
 8102POPC   C4B34066   4.522   4.351   7.655
 8103POPC   NC334067  29.140   2.728   9.455
 8103POPC   PO434068  29.102   2.744   9.155
 8103POPC   GL134069  29.124   2.786   8.855
 8103POPC   GL234070  29.004   2.738   8.855
 8103POPC   C1A34071  29.157   2.793   8.555
 8103POPC   D2A34072  29.174   2.794   8.255
 8103POPC   C3A34073  29.184   2.788   7.955
 8103POPC   C4A34074  29.114   2.767   7.655
 8103POPC   C1B34075  28.861   2.743   8.555
 8103POPC   C2B34076  28.876   2.740   8.255
 8103POPC   C3B34077  28.879   2.756   7.955
 8103POPC   C4B34078  28.918   2.746   7.655
 8104POPC   NC334079  40.033   3.522   9.455
 8104POPC   PO434080  40.012   3.515   9.155
 8104POPC   GL134081  40.005   3.570   8.855
 8104POPC   GL234082  40.079   3.671   8.855
 8104POPC   C1A34083  40.052   3.522   8.555
 8104POPC   D2A34084  40.037   3.579   8.255
 8104POPC   C3A34085  40.044   3.582   7.955
 8104POPC   C4A34086  39.981   3.542   7.655
 8104POPC   C1B34087  40.030   3.810   8.555
 8104POPC   C2B34088  40.085   3.778   8.255
 8104POPC   C3B34089  40.012   3.794   7.955
 8104POPC   C4B34090  40.087   3.795   7.655
 8105POPC   NC334091  38.476   0.422   9.455
 8105POPC   PO434092  38.441   0.429   9.155
 8105POPC   GL134093  38.459   0.480   8.855
 8105POPC   GL234094  38.556   0.365   8.855
 8105POPC   C1A34095  38.414   0.470   8.555
 8105POPC   D2A34096  38.475   0.403   8.255
 8105POPC   C3A34097  38.437   0.458   7.955
 8105POPC   C4A34098  38.488   0.480   7.655
 8105POPC   C1B34099  38.657   0.333   8.555
 8105POPC   C2B34100  38.705   0.311   8.255
 8105POPC   C3B34101  38.709   0.349   7.955
 8105POPC   C4B34102  38.644   0.313   7.655
 8106POPC   NC334103  34.617   7.412   9.455
 8106POPC   PO434104  34.608   7.436   9.155
 8106POPC   GL134105  34.609   7.447   8.855
 8106POPC   GL234106  34.486   7.358   8.855
 8106POPC   C1A34107  34.573   7.455   8.555
 8106POPC   D2A34108  34.571   7.394   8.255
 8106POPC   C3A34109  34.535   7.416   7.955
 8106POPC   C4A34110  34.581   7.413   7.655
 8106POPC   C1B34111  34.424   7.199   8.555
 8106POPC   C2B34112  34.471   7.267   8.255
 8106POPC   C3B34113  34.406   7.190   7.955
 8106POPC   C4B34114  34.433   7.189   7.655
 8107POPC   NC334115  18.280   5.896   9.455
 8107POPC   PO434116  18.248   5.915   9.155
 8107POPC   GL134117  18.308   5.865   8.855
 8107POPC   GL234118  18.301   5.980   8.855
 8107POPC   C1A34119  18.277   5.912   8.555
 8107POPC   D2A34120  18.295   5.840   8.255
 8107POPC   C3A34121  18.287   5.862   7.955
 8107POPC   C4A34122  18.311   5.893   7.655
 8107POPC   C1B34123  18.245   6.149   8.555
 8107POPC   C2B34124  18.313   6.121   8.255
 8107POPC   C3B34125  18.323   6.081   7.955
 8107POPC   C4B34126  18.287   6.083   7.655
 8108POPC   NC334127  12.093  38.416   9.455
 8108POPC   PO434128  12.068  38.429   9.155
 8108POPC   GL134129  12.107  38.483   8.855
 8108POPC   GL234130  12.109  38.555   8.855
 8108POPC   C1A34131  12.058  38.497   8.555
 8108POPC   D2A34132  12.032  38.462   8.255
 8108POPC   C3A34133  12.095  38.460   7.955
 8108POPC   C4A34134  12.042  38.409   7.655
 8108POPC   C1B34135  12.217  38.676   8.555
 8108POPC   C2B34136  12.235  38.624   8.255
 8108POPC   C3B34137  12.187  38.701   7.955
 8108POPC   C4B34138  12.173  38.692   7.655
 8109POPC   NC334139  44.655   4.275   9.455
 8109POPC   PO434140  44.617   4.273   9.155
 8109POPC   GL134141  44.675   4.341   8.855
 8109POPC   GL234142  44.736   4.215   8.855
 8109POPC   C1A34143  44.691   4.280   8.555
 8109POPC   D2A34144  44.706   4.285   8.255
 8109POPC   C3A34145  44.648   4.311   7.955
 8109POPC   C4A34146  44.620   4.317   7.655
 8109POPC   C1B34147  44.880   4.133   8.555
 8109POPC   C2B34148  44.883   4.173   8.255
 8109POPC   C3B34149  44.883   4.120   7.955
 8109POPC   C4B34150  44.883   4.160   7.655
 8110POPC   NC334151  43.132  35.304   9.455
 8110POPC   PO434152  43.066  35.385   9.155
 8110POPC   GL134153  43.150  35.353   8.855
 8110POPC   GL234154  43.182  35.427   8.855
 8110POPC   C1A34155  43.078  35.334   8.555
 8110POPC   D2A34156  43.088  35.331   8.255
 8110POPC   C3A34157  43.149  35.380   7.955
 8110POPC   C4A34158  43.125  35.311   7.655
 8110POPC   C1B34159  43.239  35.589   8.555
 8110POPC   C2B34160  43.200  35.574   8.255
 8110POPC   C3B34161  43.208  35.573   7.955
 8110POPC   C4B34162  43.233  35.550   7.655
 8111POPC   NC334163  10.521   4.279   9.455
 8111POPC   PO434164  10.558   4.285   9.155
 8111POPC   GL134165  10.572   4.304   8.855
 8111POPC   GL234166  10.433   4.368   8.855
 8111POPC   C1A34167  10.522   4.314   8.555
 8111POPC   D2A34168  10.486   4.337   8.255
 8111POPC   C3A34169  10.526   4.341   7.955
 8111POPC   C4A34170  10.538   4.312   7.655
 8111POPC   C1B34171  10.303   4.354   8.555
 8111POPC   C2B34172  10.232   4.400   8.255
 8111POPC   C3B34173  10.298   4.384   7.955
 8111POPC   C4B34174  10.271   4.341   7.655
 8112POPC   NC334175  26.069  19.796   9.455
 8112POPC   PO434176  26.021  19.852   9.155
 8112POPC   GL134177  26.086  19.807   8.855
 8112POPC   GL234178  26.147  19.901   8.855
 8112POPC   C1A34179  26.063  19.859   8.555
 8112POPC   D2A34180  26.035  19.822   8.255
 8112POPC   C3A34181  26.055  19.879   7.955
 8112POPC   C4A34182  26.046  19.877   7.655
 8112POPC   C1B34183  26.213  19.963   8.555
 8112POPC   C2B34184  26.218  20.003   8.255
 8112POPC   C3B34185  26.282  19.950   7.955
 8112POPC   C4B34186  26.262  19.972   7.655
 8113POPC   NC334187  27.608  41.531   9.455
 8113POPC   PO434188  27.607  41.572   9.155
 8113POPC   GL134189  27.598  41.593   8.855
 8113POPC   GL234190  27.666  41.467   8.855
 8113POPC   C1A34191  27.556  41.527   8.555
 8113POPC   D2A34192  27.616  41.524   8.255
 8113POPC   C3A34193  27.566  41.531   7.955
 8113POPC   C4A34194  27.603  41.584   7.655
 8113POPC   C1B34195  27.658  41.341   8.555
 8113POPC   C2B34196  27.681  41.364   8.255
 8113POPC   C3B34197  27.643  41.318   7.955
 8113POPC   C4B34198  27.678  41.328   7.655
 8114POPC   NC334199  20.581  11.298   9.455
 8114POPC   PO434200  20.613  11.350   9.155
 8114POPC   GL134201  20.614  11.294   8.855
 8114POPC   GL234202  20.501  11.446   8.855
 8114POPC   C1A34203  20.598  11.279   8.555
 8114POPC   D2A34204  20.563  11.321   8.255
 8114POPC   C3A34205  20.578  11.266   7.955
 8114POPC   C4A34206  20.589  11.313   7.655
 8114POPC   C1B34207  20.481  11.544   8.555
 8114POPC   C2B34208  20.452  11.450   8.255
 8114POPC   C3B34209  20.411  11.476   7.955
 8114POPC   C4B34210  20.506  11.543   7.655
 8115POPC   NC334211  23.758  20.561   9.455
 8115POPC   PO434212  23.708  20.601   9.155
 8115POPC   GL134213  23.707  20.562   8.855
 8115POPC   GL234214  23.598  20.472   8.855
 8115POPC   C1A34215  23.719  20.648   8.555
 8115POPC   D2A34216  23.700  20.595   8.255
 8115POPC   C3A34217  23.683  20.610   7.955
 8115POPC   C4A34218  23.696  20.579   7.655
 8115POPC   C1B34219  23.535  20.397   8.555
 8115POPC   C2B34220  23.546  20.435   8.255
 8115POPC   C3B34221  23.562  20.383   7.955
 8115POPC   C4B34222  23.597  20.403   7.655
 8116POPC   NC334223  32.263   3.495   9.455
 8116POPC   PO434224  32.266   3.540   9.155
 8116POPC   GL134225  32.203   3.560   8.855
 8116POPC   GL234226  32.309   3.677   8.855
 8116POPC   C1A34227  32.256   3.564   8.555
 8116POPC   D2A34228  32.249   3.565   8.255
 8116POPC   C3A34229  32.243   3.570   7.955
 8116POPC   C4A34230  32.222   3.583   7.655
 8116POPC   C1B34231  32.276   3.743   8.555
 8116POPC   C2B34232  32.304   3.781   8.255
 8116POPC   C3B34233  32.299   3.788   7.955
 8116POPC   C4B34234  32.266   3.815   7.655
 8117POPC   NC334235   8.175  36.894   9.455
 8117POPC   PO434236   8.212  36.861   9.155
 8117POPC   GL134237   8.217  36.895   8.855
 8117POPC   GL234238   8.095  36.966   8.855
 8117POPC   C1A34239   8.150  36.918   8.555
 8117POPC   D2A34240   8.200  36.931   8.255
 8117POPC   C3A34241   8.164  36.949   7.955
 8117POPC   C4A34242   8.246  36.926   7.655
 8117POPC   C1B34243   7.974  37.047   8.555
 8117POPC   C2B34244   7.941  36.971   8.255
 8117POPC   C3B34245   8.007  37.016   7.955
 8117POPC   C4B34246   7.920  37.002   7.655
 8118POPC   NC334247   6.668   5.843   9.455
 8118POPC   PO434248   6.679   5.823   9.155
 8118POPC   GL134249   6.644   5.880   8.855
 8118POPC   GL234250   6.529   5.859   8.855
 8118POPC   C1A34251   6.605   5.833   8.555
 8118POPC   D2A34252   6.623   5.884   8.255
 8118POPC   C3A34253   6.614   5.833   7.955
 8118POPC   C4A34254   6.616   5.907   7.655
 8118POPC   C1B34255   6.379   5.758   8.555
 8118POPC   C2B34256   6.419   5.778   8.255
 8118POPC   C3B34257   6.451   5.774   7.955
 8118POPC   C4B34258   6.413   5.740   7.655
 8119POPC   NC334259  15.993  13.675   9.455
 8119POPC   PO434260  15.945  13.609   9.155
 8119POPC   GL134261  15.942  13.663   8.855
 8119POPC   GL234262  15.940  13.519   8.855
 8119POPC   C1A34263  15.982  13.663   8.555
 8119POPC   D2A34264  15.957  13.672   8.255
 8119POPC   C3A34265  15.919  13.672   7.955
 8119POPC   C4A34266  15.944  13.606   7.655
 8119POPC   C1B34267  15.815  13.364   8.555
 8119POPC   C2B34268  15.825  13.381   8.255
 8119POPC   C3B34269  15.840  13.405   7.955
 8119POPC   C4B34270  15.879  13.402   7.655
 8120POPC   NC334271  22.910   8.992   9.455
 8120POPC   PO434272  22.951   8.963   9.155
 8120POPC   GL134273  22.952   8.983   8.855
 8120POPC   GL234274  22.974   8.900   8.855
 8120POPC   C1A34275  22.951   8.995   8.555
 8120POPC   D2A34276  22.917   9.015   8.255
 8120POPC   C3A34277  22.965   8.937   7.955
 8120POPC   C4A34278  22.901   9.004   7.655
 8120POPC   C1B34279  23.059   8.733   8.555
 8120POPC   C2B34280  23.087   8.746   8.255
 8120POPC   C3B34281  23.047   8.799   7.955
 8120POPC   C4B34282  23.043   8.762   7.655
 8121POPC   NC334283   5.906  30.718   9.455
 8121POPC   PO434284   5.865  30.651   9.155
 8121POPC   GL134285   5.893  30.688   8.855
 8121POPC   GL234286   5.975  30.589   8.855
 8121POPC   C1A34287   5.897  30.703   8.555
 8121POPC   D2A34288   5.835  30.722   8.255
 8121POPC   C3A34289   5.880  30.707   7.955
 8121POPC   C4A34290   5.893  30.709   7.655
 8121POPC   C1B34291   5.959  30.521   8.555
 8121POPC   C2B34292   6.041  30.515   8.255
 8121POPC   C3B34293   5.953  30.512   7.955
 8121POPC   C4B34294   5.974  30.461   7.655
 8122POPC   NC334295  32.219   5.140   9.455
 8122POPC   PO434296  32.280   5.056   9.155
 8122POPC   GL134297  32.255   5.079   8.855
 8122POPC   GL234298  32.419   5.043   8.855
 8122POPC   C1A34299  32.200   5.053   8.555
 8122POPC   D2A34300  32.211   5.078   8.255
 8122POPC   C3A34301  32.219   5.066   7.955
 8122POPC   C4A34302  32.288   5.054   7.655
 8122POPC   C1B34303  32.482   5.092   8.555
 8122POPC   C2B34304  32.544   5.047   8.255
 8122POPC   C3B34305  32.460   5.060   7.955
 8122POPC   C4B34306  32.538   5.082   7.655
 8123POPC   NC334307  43.928   5.114   9.455
 8123POPC   PO434308  43.922   5.102   9.155
 8123POPC   GL134309  43.872   5.051   8.855
 8123POPC   GL234310  43.757   5.181   8.855
 8123POPC   C1A34311  43.932   5.140   8.555
 8123POPC   D2A34312  43.887   5.095   8.255
 8123POPC   C3A34313  43.908   5.060   7.955
 8123POPC   C4A34314  43.867   5.125   7.655
 8123POPC   C1B34315  43.712   5.242   8.555
 8123POPC   C2B34316  43.777   5.261   8.255
 8123POPC   C3B34317  43.717   5.249   7.955
 8123POPC   C4B34318  43.684   5.265   7.655
 8124POPC   NC334319  38.451  37.728   9.455
 8124POPC   PO434320  38.441  37.698   9.155
 8124POPC   GL134321  38.481  37.718   8.855
 8124POPC   GL234322  38.382  37.788   8.855
 8124POPC   C1A34323  38.412  37.693   8.555
 8124POPC   D2A34324  38.415  37.715   8.255
 8124POPC   C3A34325  38.481  37.667   7.955
 8124POPC   C4A34326  38.502  37.654   7.655
 8124POPC   C1B34327  38.411  37.881   8.555
 8124POPC   C2B34328  38.377  37.896   8.255
 8124POPC   C3B34329  38.409  37.964   7.955
 8124POPC   C4B34330  38.416  37.884   7.655
 8125POPC   NC334331  20.640  23.681   9.455
 8125POPC   PO434332  20.605  23.706   9.155
 8125POPC   GL134333  20.600  23.722   8.855
 8125POPC   GL234334  20.729  23.608   8.855
 8125POPC   C1A34335  20.652  23.711   8.555
 8125POPC   D2A34336  20.633  23.676   8.255
 8125POPC   C3A34337  20.568  23.669   7.955
 8125POPC   C4A34338  20.626  23.694   7.655
 8125POPC   C1B34339  20.792  23.500   8.555
 8125POPC   C2B34340  20.808  23.565   8.255
 8125POPC   C3B34341  20.809  23.556   7.955
 8125POPC   C4B34342  20.758  23.569   7.655
 8126POPC   NC334343  40.823  40.004   9.455
 8126POPC   PO434344  40.789  40.006   9.155
 8126POPC   GL134345  40.789  40.048   8.855
 8126POPC   GL234346  40.864  39.888   8.855
 8126POPC   C1A34347  40.783  40.036   8.555
 8126POPC   D2A34348  40.822  39.960   8.255
 8126POPC   C3A34349  40.817  40.024   7.955
 8126POPC   C4A34350  40.735  39.992   7.655
 8126POPC   C1B34351  40.819  39.738   8.555
 8126POPC   C2B34352  40.836  39.787   8.255
 8126POPC   C3B34353  40.882  39.800   7.955
 8126POPC   C4B34354  40.863  39.784   7.655
 8127POPC   NC334355   5.048  33.819   9.455
 8127POPC   PO434356   5.115  33.846   9.155
 8127POPC   GL134357   5.063  33.796   8.855
 8127POPC   GL234358   5.019  33.719   8.855
 8127POPC   C1A34359   5.091  33.816   8.555
 8127POPC   D2A34360   5.060  33.785   8.255
 8127POPC   C3A34361   5.048  33.793   7.955
 8127POPC   C4A34362   5.061  33.788   7.655
 8127POPC   C1B34363   4.946  33.586   8.555
 8127POPC   C2B34364   4.935  33.650   8.255
 8127POPC   C3B34365   4.878  33.607   7.955
 8127POPC   C4B34366   4.893  33.651   7.655
 8128POPC   NC334367  39.190  29.164   9.455
 8128POPC   PO434368  39.192  29.162   9.155
 8128POPC   GL134369  39.280  29.136   8.855
 8128POPC   GL234370  39.289  29.108   8.855
 8128POPC   C1A34371  39.220  29.105   8.555
 8128POPC   D2A34372  39.199  29.160   8.255
 8128POPC   C3A34373  39.211  29.114   7.955
 8128POPC   C4A34374  39.225  29.159   7.655
 8128POPC   C1B34375  39.461  28.959   8.555
 8128POPC   C2B34376  39.414  28.986   8.255
 8128POPC   C3B34377  39.454  29.011   7.955
 8128POPC   C4B34378  39.429  28.957   7.655
 8129POPC   NC334379  10.533   3.550   9.455
 8129POPC   PO434380  10.561   3.512   9.155
 8129POPC   GL134381  10.491   3.504   8.855
 8129POPC   GL234382  10.434   3.611   8.855
 8129POPC   C1A34383  10.487   3.578   8.555
 8129POPC   D2A34384  10.554   3.544   8.255
 8129POPC   C3A34385  10.484   3.549   7.955
 8129POPC   C4A34386  10.538   3.522   7.655
 8129POPC   C1B34387  10.298   3.624   8.555
 8129POPC   C2B34388  10.246   3.589   8.255
 8129POPC   C3B34389  10.294   3.653   7.955
 8129POPC   C4B34390  10.290   3.612   7.655
 8130POPC   NC334391  21.400  15.965   9.455
 8130POPC   PO434392  21.384  15.922   9.155
 8130POPC   GL134393  21.396  15.977   8.855
 8130POPC   GL234394  21.451  15.820   8.855
 8130POPC   C1A34395  21.366  15.989   8.555
 8130POPC   D2A34396  21.418  15.944   8.255
 8130POPC   C3A34397  21.428  15.995   7.955
 8130POPC   C4A34398  21.351  15.995   7.655
 8130POPC   C1B34399  21.475  15.720   8.555
 8130POPC   C2B34400  21.442  15.750   8.255
 8130POPC   C3B34401  21.483  15.768   7.955
 8130POPC   C4B34402  21.495  15.761   7.655
 8131POPC   NC334403  38.462  15.221   9.455
 8131POPC   PO434404  38.441  15.132   9.155
 8131POPC   GL134405  38.461  15.195   8.855
 8131POPC   GL234406  38.332  15.133   8.855
 8131POPC   C1A34407  38.430  15.166   8.555
 8131POPC   D2A34408  38.427  15.153   8.255
 8131POPC   C3A34409  38.462  15.207   7.955
 8131POPC   C4A34410  38.500  15.152   7.655
 8131POPC   C1B34411  38.240  15.163   8.555
 8131POPC   C2B34412  38.205  15.159   8.255
 8131POPC   C3B34413  38.175  15.157   7.955
 8131POPC   C4B34414  38.180  15.156   7.655
 8132POPC   NC334415   4.343  12.861   9.455
 8132POPC   PO434416   4.344  12.846   9.155
 8132POPC   GL134417   4.323  12.826   8.855
 8132POPC   GL234418   4.402  12.907   8.855
 8132POPC   C1A34419   4.297  12.814   8.555
 8132POPC   D2A34420   4.306  12.806   8.255
 8132POPC   C3A34421   4.316  12.848   7.955
 8132POPC   C4A34422   4.278  12.860   7.655
 8132POPC   C1B34423   4.570  12.851   8.555
 8132POPC   C2B34424   4.582  12.931   8.255
 8132POPC   C3B34425   4.598  12.926   7.955
 8132POPC   C4B34426   4.585  12.841   7.655
 8133POPC   NC334427  36.936  39.968   9.455
 8133POPC   PO434428  36.890  39.992   9.155
 8133POPC   GL134429  36.938  39.973   8.855
 8133POPC   GL234430  36.864  40.166   8.855
 8133POPC   C1A34431  36.926  40.005   8.555
 8133POPC   D2A34432  36.938  39.993   8.255
 8133POPC   C3A34433  36.874  40.045   7.955
 8133POPC   C4A34434  36.861  40.004   7.655
 8133POPC   C1B34435  36.893  40.299   8.555
 8133POPC   C2B34436  36.834  40.297   8.255
 8133POPC   C3B34437  36.833  40.212   7.955
 8133POPC   C4B34438  36.843  40.277   7.655
 8134POPC   NC334439  26.867   5.094   9.455
 8134POPC   PO434440  26.792   5.143   9.155
 8134POPC   GL134441  26.828   5.102   8.855
 8134POPC   GL234442  26.812   5.236   8.855
 8134POPC   C1A34443  26.794   5.126   8.555
 8134POPC   D2A34444  26.818   5.105   8.255
 8134POPC   C3A34445  26.771   5.058   7.955
 8134POPC   C4A34446  26.837   5.120   7.655
 8134POPC   C1B34447  26.945   5.283   8.555
 8134POPC   C2B34448  26.911   5.291   8.255
 8134POPC   C3B34449  26.945   5.279   7.955
 8134POPC   C4B34450  26.872   5.303   7.655
 8135POPC   NC334451  16.740  20.608   9.455
 8135POPC   PO434452  16.702  20.567   9.155
 8135POPC   GL134453  16.766  20.591   8.855
 8135POPC   GL234454  16.639  20.606   8.855
 8135POPC   C1A34455  16.726  20.657   8.555
 8135POPC   D2A34456  16.712  20.659   8.255
 8135POPC   C3A34457  16.726  20.590   7.955
 8135POPC   C4A34458  16.736  20.599   7.655
 8135POPC   C1B34459  16.511  20.564   8.555
 8135POPC   C2B34460  16.488  20.541   8.255
 8135POPC   C3B34461  16.458  20.540   7.955
 8135POPC   C4B34462  16.529  20.538   7.655
 8136POPC   NC334463  35.350  28.399   9.455
 8136POPC   PO434464  35.343  28.363   9.155
 8136POPC   GL134465  35.376  28.357   8.855
 8136POPC   GL234466  35.270  28.346   8.855
 8136POPC   C1A34467  35.313  28.365   8.555
 8136POPC   D2A34468  35.344  28.410   8.255
 8136POPC   C3A34469  35.344  28.341   7.955
 8136POPC   C4A34470  35.354  28.331   7.655
 8136POPC   C1B34471  35.150  28.231   8.555
 8136POPC   C2B34472  35.113  28.265   8.255
 8136POPC   C3B34473  35.143  28.238   7.955
 8136POPC   C4B34474  35.138  28.307   7.655
 8137POPC   NC334475  19.785   8.189   9.455
 8137POPC   PO434476  19.861   8.225   9.155
 8137POPC   GL134477  19.834   8.179   8.855
 8137POPC   GL234478  19.759   8.265   8.855
 8137POPC   C1A34479  19.851   8.224   8.555
 8137POPC   D2A34480  19.868   8.180   8.255
 8137POPC   C3A34481  19.830   8.157   7.955
 8137POPC   C4A34482  19.866   8.246   7.655
 8137POPC   C1B34483  19.703   8.407   8.555
 8137POPC   C2B34484  19.705   8.402   8.255
 8137POPC   C3B34485  19.775   8.453   7.955
 8137POPC   C4B34486  19.747   8.440   7.655
 8138POPC   NC334487  22.165  21.344   9.455
 8138POPC   PO434488  22.139  21.436   9.155
 8138POPC   GL134489  22.132  21.361   8.855
 8138POPC   GL234490  22.247  21.290   8.855
 8138POPC   C1A34491  22.141  21.355   8.555
 8138POPC   D2A34492  22.158  21.375   8.255
 8138POPC   C3A34493  22.163  21.356   7.955
 8138POPC   C4A34494  22.158  21.401   7.655
 8138POPC   C1B34495  22.359  21.294   8.555
 8138POPC   C2B34496  22.339  21.302   8.255
 8138POPC   C3B34497  22.428  21.250   7.955
 8138POPC   C4B34498  22.362  21.215   7.655
 8139POPC   NC334499  21.388  11.332   9.455
 8139POPC   PO434500  21.394  11.344   9.155
 8139POPC   GL134501  21.406  11.343   8.855
 8139POPC   GL234502  21.404  11.185   8.855
 8139POPC   C1A34503  21.352  11.314   8.555
 8139POPC   D2A34504  21.382  11.291   8.255
 8139POPC   C3A34505  21.367  11.270   7.955
 8139POPC   C4A34506  21.370  11.311   7.655
 8139POPC   C1B34507  21.389  11.085   8.555
 8139POPC   C2B34508  21.405  11.054   8.255
 8139POPC   C3B34509  21.367  11.031   7.955
 8139POPC   C4B34510  21.404  11.029   7.655
 8140POPC   NC334511  38.467  42.312   9.455
 8140POPC   PO434512  38.474  42.342   9.155
 8140POPC   GL134513  38.468  42.345   8.855
 8140POPC   GL234514  38.497  42.203   8.855
 8140POPC   C1A34515  38.406  42.369   8.555
 8140POPC   D2A34516  38.459  42.327   8.255
 8140POPC   C3A34517  38.420  42.379   7.955
 8140POPC   C4A34518  38.481  42.296   7.655
 8140POPC   C1B34519  38.548  42.111   8.555
 8140POPC   C2B34520  38.558  42.105   8.255
 8140POPC   C3B34521  38.576  42.116   7.955
 8140POPC   C4B34522  38.555  42.085   7.655
 8141POPC   NC334523  19.084   7.373   9.455
 8141POPC   PO434524  19.043   7.420   9.155
 8141POPC   GL134525  19.013   7.442   8.855
 8141POPC   GL234526  19.024   7.283   8.855
 8141POPC   C1A34527  19.088   7.436   8.555
 8141POPC   D2A34528  19.080   7.453   8.255
 8141POPC   C3A34529  19.034   7.385   7.955
 8141POPC   C4A34530  19.015   7.469   7.655
 8141POPC   C1B34531  18.927   7.188   8.555
 8141POPC   C2B34532  18.894   7.235   8.255
 8141POPC   C3B34533  18.962   7.207   7.955
 8141POPC   C4B34534  18.886   7.188   7.655
 8142POPC   NC334535  23.739   8.965   9.455
 8142POPC   PO434536  23.676   9.018   9.155
 8142POPC   GL134537  23.721   8.929   8.855
 8142POPC   GL234538  23.820   9.049   8.855
 8142POPC   C1A34539  23.677   8.923   8.555
 8142POPC   D2A34540  23.704   9.006   8.255
 8142POPC   C3A34541  23.682   9.016   7.955
 8142POPC   C4A34542  23.702   8.972   7.655
 8142POPC   C1B34543  23.889   9.130   8.555
 8142POPC   C2B34544  23.925   9.158   8.255
 8142POPC   C3B34545  23.910   9.167   7.955
 8142POPC   C4B34546  23.891   9.120   7.655
 8143POPC   NC334547  20.652  16.001   9.455
 8143POPC   PO434548  20.630  15.914   9.155
 8143POPC   GL134549  20.644  15.944   8.855
 8143POPC   GL234550  20.722  15.997   8.855
 8143POPC   C1A34551  20.636  15.997   8.555
 8143POPC   D2A34552  20.564  15.909   8.255
 8143POPC   C3A34553  20.570  15.926   7.955
 8143POPC   C4A34554  20.574  15.937   7.655
 8143POPC   C1B34555  20.820  16.153   8.555
 8143POPC   C2B34556  20.822  16.084   8.255
 8143POPC   C3B34557  20.787  16.089   7.955
 8143POPC   C4B34558  20.824  16.145   7.655
 8144POPC   NC334559  35.348  29.116   9.455
 8144POPC   PO434560  35.309  29.128   9.155
 8144POPC   GL134561  35.350  29.162   8.855
 8144POPC   GL234562  35.283  29.003   8.855
 8144POPC   C1A34563  35.374  29.160   8.555
 8144POPC   D2A34564  35.345  29.109   8.255
 8144POPC   C3A34565  35.399  29.155   7.955
 8144POPC   C4A34566  35.314  29.145   7.655
 8144POPC   C1B34567  35.206  28.974   8.555
 8144POPC   C2B34568  35.267  28.956   8.255
 8144POPC   C3B34569  35.218  28.959   7.955
 8144POPC   C4B34570  35.192  28.929   7.655
 8145POPC   NC334571  32.206  22.975   9.455
 8145POPC   PO434572  32.222  22.968   9.155
 8145POPC   GL134573  32.266  22.960   8.855
 8145POPC   GL234574  32.328  22.959   8.855
 8145POPC   C1A34575  32.283  22.890   8.555
 8145POPC   D2A34576  32.295  22.968   8.255
 8145POPC   C3A34577  32.207  22.919   7.955
 8145POPC   C4A34578  32.278  22.918   7.655
 8145POPC   C1B34579  32.466  23.023   8.555
 8145POPC   C2B34580  32.470  23.049   8.255
 8145POPC   C3B34581  32.451  23.054   7.955
 8145POPC   C4B34582  32.429  22.989   7.655
 8146POPC   NC334583  22.182  15.966   9.455
 8146POPC   PO434584  22.189  15.919   9.155
 8146POPC   GL134585  22.151  15.908   8.855
 8146POPC   GL234586  22.039  15.997   8.855
 8146POPC   C1A34587  22.178  15.994   8.555
 8146POPC   D2A34588  22.193  15.941   8.255
 8146POPC   C3A34589  22.147  15.937   7.955
 8146POPC   C4A34590  22.182  15.989   7.655
 8146POPC   C1B34591  21.908  16.005   8.555
 8146POPC   C2B34592  21.955  15.970   8.255
 8146POPC   C3B34593  21.923  15.971   7.955
 8146POPC   C4B34594  21.884  16.028   7.655
 8147POPC   NC334595  20.570  37.687   9.455
 8147POPC   PO434596  20.602  37.659   9.155
 8147POPC   GL134597  20.594  37.710   8.855
 8147POPC   GL234598  20.678  37.584   8.855
 8147POPC   C1A34599  20.608  37.717   8.555
 8147POPC   D2A34600  20.636  37.654   8.255
 8147POPC   C3A34601  20.618  37.714   7.955
 8147POPC   C4A34602  20.586  37.659   7.655
 8147POPC   C1B34603  20.782  37.534   8.555
 8147POPC   C2B34604  20.791  37.472   8.255
 8147POPC   C3B34605  20.793  37.472   7.955
 8147POPC   C4B34606  20.788  37.472   7.655
 8148POPC   NC334607  20.655   5.068   9.455
 8148POPC   PO434608  20.575   5.101   9.155
 8148POPC   GL134609  20.618   5.129   8.855
 8148POPC   GL234610  20.447   5.092   8.855
 8148POPC   C1A34611  20.567   5.095   8.555
 8148POPC   D2A34612  20.603   5.064   8.255
 8148POPC   C3A34613  20.635   5.047   7.955
 8148POPC   C4A34614  20.656   5.061   7.655
 8148POPC   C1B34615  20.383   5.103   8.555
 8148POPC   C2B34616  20.409   5.120   8.255
 8148POPC   C3B34617  20.394   5.107   7.955
 8148POPC   C4B34618  20.327   5.065   7.655
 8149POPC   NC334619   1.167  11.314   9.455
 8149POPC   PO434620   1.226  11.331   9.155
 8149POPC   GL134621   1.223  11.345   8.855
 8149POPC   GL234622   1.133  11.370   8.855
 8149POPC   C1A34623   1.259  11.254   8.555
 8149POPC   D2A34624   1.201  11.283   8.255
 8149POPC   C3A34625   1.209  11.276   7.955
 8149POPC   C4A34626   1.188  11.322   7.655
 8149POPC   C1B34627   0.955  11.323   8.555
 8149POPC   C2B34628   1.000  11.311   8.255
 8149POPC   C3B34629   1.007  11.379   7.955
 8149POPC   C4B34630   1.004  11.315   7.655
 8150POPC   NC334631  11.292  44.709   9.455
 8150POPC   PO434632  11.330  44.699   9.155
 8150POPC   GL134633  11.264  44.699   8.855
 8150POPC   GL234634  11.216  44.640   8.855
 8150POPC   C1A34635  11.292  44.682   8.555
 8150POPC   D2A34636  11.304  44.657   8.255
 8150POPC   C3A34637  11.306  44.691   7.955
 8150POPC   C4A34638  11.329  44.683   7.655
 8150POPC   C1B34639  11.120  44.561   8.555
 8150POPC   C2B34640  11.049  44.531   8.255
 8150POPC   C3B34641  11.062  44.600   7.955
 8150POPC   C4B34642  11.101  44.541   7.655
 8151POPC   NC334643  29.889  22.160   9.455
 8151POPC   PO434644  29.944  22.157   9.155
 8151POPC   GL134645  29.929  22.195   8.855
 8151POPC   GL234646  29.844  22.286   8.855
 8151POPC   C1A34647  29.873  22.187   8.555
 8151POPC   D2A34648  29.926  22.122   8.255
 8151POPC   C3A34649  29.878  22.203   7.955
 8151POPC   C4A34650  29.942  22.168   7.655
 8151POPC   C1B34651  29.791  22.379   8.555
 8151POPC   C2B34652  29.759  22.353   8.255
 8151POPC   C3B34653  29.747  22.399   7.955
 8151POPC   C4B34654  29.818  22.331   7.655
 8152POPC   NC334655  14.388  23.753   9.455
 8152POPC   PO434656  14.414  23.713   9.155
 8152POPC   GL134657  14.416  23.756   8.855
 8152POPC   GL234658  14.286  23.644   8.855
 8152POPC   C1A34659  14.402  23.763   8.555
 8152POPC   D2A34660  14.409  23.705   8.255
 8152POPC   C3A34661  14.358  23.746   7.955
 8152POPC   C4A34662  14.374  23.754   7.655
 8152POPC   C1B34663  14.215  23.535   8.555
 8152POPC   C2B34664  14.175  23.571   8.255
 8152POPC   C3B34665  14.144  23.600   7.955
 8152POPC   C4B34666  14.190  23.607   7.655
 8153POPC   NC334667   3.557  22.896   9.455
 8153POPC   PO434668   3.506  22.956   9.155
 8153POPC   GL134669   3.516  22.977   8.855
 8153POPC   GL234670   3.657  22.913   8.855
 8153POPC   C1A34671   3.522  22.906   8.555
 8153POPC   D2A34672   3.502  22.987   8.255
 8153POPC   C3A34673   3.583  22.948   7.955
 8153POPC   C4A34674   3.579  22.951   7.655
 8153POPC   C1B34675   3.827  23.005   8.555
 8153POPC   C2B34676   3.793  22.997   8.255
 8153POPC   C3B34677   3.781  22.990   7.955
 8153POPC   C4B34678   3.761  22.979   7.655
 8154POPC   NC334679  26.083  43.148   9.455
 8154POPC   PO434680  26.009  43.128   9.155
 8154POPC   GL134681  26.091  43.082   8.855
 8154POPC   GL234682  25.953  43.003   8.855
 8154POPC   C1A34683  26.053  43.065   8.555
 8154POPC   D2A34684  26.059  43.120   8.255
 8154POPC   C3A34685  26.050  43.146   7.955
 8154POPC   C4A34686  25.997  43.114   7.655
 8154POPC   C1B34687  25.802  42.999   8.555
 8154POPC   C2B34688  25.881  42.937   8.255
 8154POPC   C3B34689  25.807  42.966   7.955
 8154POPC   C4B34690  25.802  42.982   7.655
 8155POPC   NC334691  12.832  38.460   9.455
 8155POPC   PO434692  12.891  38.452   9.155
 8155POPC   GL134693  12.818  38.457   8.855
 8155POPC   GL234694  12.716  38.456   8.855
 8155POPC   C1A34695  12.876  38.416   8.555
 8155POPC   D2A34696  12.855  38.416   8.255
 8155POPC   C3A34697  12.873  38.476   7.955
 8155POPC   C4A34698  12.853  38.499   7.655
 8155POPC   C1B34699  12.611  38.490   8.555
 8155POPC   C2B34700  12.611  38.465   8.255
 8155POPC   C3B34701  12.568  38.507   7.955
 8155POPC   C4B34702  12.648  38.487   7.655
 8156POPC   NC334703  40.788  26.071   9.455
 8156POPC   PO434704  40.770  26.042   9.155
 8156POPC   GL134705  40.775  26.041   8.855
 8156POPC   GL234706  40.827  26.097   8.855
 8156POPC   C1A34707  40.747  26.007   8.555
 8156POPC   D2A34708  40.814  26.085   8.255
 8156POPC   C3A34709  40.822  26.009   7.955
 8156POPC   C4A34710  40.736  26.040   7.655
 8156POPC   C1B34711  40.990  26.258   8.555
 8156POPC   C2B34712  40.966  26.229   8.255
 8156POPC   C3B34713  40.937  26.231   7.955
 8156POPC   C4B34714  40.972  26.208   7.655
 8157POPC   NC334715  12.107  19.881   9.455
 8157POPC   PO434716  12.094  19.878   9.155
 8157POPC   GL134717  12.072  19.835   8.855
 8157POPC   GL234718  12.007  19.866   8.855
 8157POPC   C1A34719  12.121  19.879   8.555
 8157POPC   D2A34720  12.049  19.845   8.255
 8157POPC   C3A34721  12.115  19.789   7.955
 8157POPC   C4A34722  12.108  19.859   7.655
 8157POPC   C1B34723  11.826  19.956   8.555
 8157POPC   C2B34724  11.811  19.953   8.255
 8157POPC   C3B34725  11.888  19.930   7.955
 8157POPC   C4B34726  11.819  19.882   7.655
 8158POPC   NC334727   5.916  38.407   9.455
 8158POPC   PO434728   5.904  38.497   9.155
 8158POPC   GL134729   5.888  38.447   8.855
 8158POPC   GL234730   5.786  38.544   8.855
 8158POPC   C1A34731   5.848  38.433   8.555
 8158POPC   D2A34732   5.834  38.455   8.255
 8158POPC   C3A34733   5.899  38.503   7.955
 8158POPC   C4A34734   5.857  38.455   7.655
 8158POPC   C1B34735   5.706  38.609   8.555
 8158POPC   C2B34736   5.671  38.631   8.255
 8158POPC   C3B34737   5.754  38.656   7.955
 8158POPC   C4B34738   5.718  38.651   7.655
 8159POPC   NC334739  10.482  43.845   9.455
 8159POPC   PO434740  10.507  43.901   9.155
 8159POPC   GL134741  10.537  43.874   8.855
 8159POPC   GL234742  10.493  43.775   8.855
 8159POPC   C1A34743  10.499  43.912   8.555
 8159POPC   D2A34744  10.477  43.930   8.255
 8159POPC   C3A34745  10.551  43.879   7.955
 8159POPC   C4A34746  10.476  43.905   7.655
 8159POPC   C1B34747  10.439  43.625   8.555
 8159POPC   C2B34748  10.447  43.688   8.255
 8159POPC   C3B34749  10.472  43.597   7.955
 8159POPC   C4B34750  10.495  43.635   7.655
 8160POPC   NC334751  34.566  19.050   9.455
 8160POPC   PO434752  34.541  19.094   9.155
 8160POPC   GL134753  34.552  19.019   8.855
 8160POPC   GL234754  34.518  19.183   8.855
 8160POPC   C1A34755  34.582  19.009   8.555
 8160POPC   D2A34756  34.625  19.036   8.255
 8160POPC   C3A34757  34.568  19.079   7.955
 8160POPC   C4A34758  34.617  19.084   7.655
 8160POPC   C1B34759  34.446  19.244   8.555
 8160POPC   C2B34760  34.392  19.234   8.255
 8160POPC   C3B34761  34.425  19.302   7.955
 8160POPC   C4B34762  34.396  19.273   7.655
 8161POPC   NC334763   7.439   0.399   9.455
 8161POPC   PO434764   7.412   0.454   9.155
 8161POPC   GL134765   7.412   0.480   8.855
 8161POPC   GL234766   7.415   0.605   8.855
 8161POPC   C1A34767   7.399   0.410   8.555
 8161POPC   D2A34768   7.460   0.422   8.255
 8161POPC   C3A34769   7.437   0.403   7.955
 8161POPC   C4A34770   7.371   0.396   7.655
 8161POPC   C1B34771   7.497   0.681   8.555
 8161POPC   C2B34772   7.545   0.670   8.255
 8161POPC   C3B34773   7.455   0.654   7.955
 8161POPC   C4B34774   7.494   0.698   7.655
 8162POPC   NC334775  31.510   8.152   9.455
 8162POPC   PO434776  31.473   8.230   9.155
 8162POPC   GL134777  31.440   8.244   8.855
 8162POPC   GL234778  31.343   8.200   8.855
 8162POPC   C1A34779  31.441   8.180   8.555
 8162POPC   D2A34780  31.504   8.209   8.255
 8162POPC   C3A34781  31.520   8.234   7.955
 8162POPC   C4A34782  31.498   8.217   7.655
 8162POPC   C1B34783  31.217   8.154   8.555
 8162POPC   C2B34784  31.222   8.179   8.255
 8162POPC   C3B34785  31.224   8.127   7.955
 8162POPC   C4B34786  31.177   8.156   7.655
 8163POPC   NC334787  15.914  36.097   9.455
 8163POPC   PO434788  15.987  36.110   9.155
 8163POPC   GL134789  15.921  36.115   8.855
 8163POPC   GL234790  16.072  36.080   8.855
 8163POPC   C1A34791  15.950  36.159   8.555
 8163POPC   D2A34792  15.934  36.120   8.255
 8163POPC   C3A34793  15.989  36.080   7.955
 8163POPC   C4A34794  15.923  36.140   7.655
 8163POPC   C1B34795  16.106  35.935   8.555
 8163POPC   C2B34796  16.136  35.986   8.255
 8163POPC   C3B34797  16.112  35.986   7.955
 8163POPC   C4B34798  16.116  35.936   7.655
 8164POPC   NC334799  17.543  19.840   9.455
 8164POPC   PO434800  17.499  19.869   9.155
 8164POPC   GL134801  17.494  19.844   8.855
 8164POPC   GL234802  17.584  19.847   8.855
 8164POPC   C1A34803  17.473  19.873   8.555
 8164POPC   D2A34804  17.545  19.878   8.255
 8164POPC   C3A34805  17.461  19.862   7.955
 8164POPC   C4A34806  17.539  19.832   7.655
 8164POPC   C1B34807  17.688  19.897   8.555
 8164POPC   C2B34808  17.704  19.909   8.255
 8164POPC   C3B34809  17.698  19.948   7.955
 8164POPC   C4B34810  17.735  19.900   7.655
 8165POPC   NC334811  36.874  16.681   9.455
 8165POPC   PO434812  36.943  16.699   9.155
 8165POPC   GL134813  36.932  16.691   8.855
 8165POPC   GL234814  36.867  16.866   8.855
 8165POPC   C1A34815  36.872  16.710   8.555
 8165POPC   D2A34816  36.942  16.713   8.255
 8165POPC   C3A34817  36.908  16.705   7.955
 8165POPC   C4A34818  36.932  16.731   7.655
 8165POPC   C1B34819  36.747  16.958   8.555
 8165POPC   C2B34820  36.793  16.925   8.255
 8165POPC   C3B34821  36.756  16.941   7.955
 8165POPC   C4B34822  36.737  16.908   7.655
 8166POPC   NC334823  20.615  22.121   9.455
 8166POPC   PO434824  20.631  22.120   9.155
 8166POPC   GL134825  20.621  22.140   8.855
 8166POPC   GL234826  20.686  22.120   8.855
 8166POPC   C1A34827  20.562  22.187   8.555
 8166POPC   D2A34828  20.638  22.193   8.255
 8166POPC   C3A34829  20.617  22.194   7.955
 8166POPC   C4A34830  20.620  22.212   7.655
 8166POPC   C1B34831  20.874  22.125   8.555
 8166POPC   C2B34832  20.875  22.136   8.255
 8166POPC   C3B34833  20.890  22.150   7.955
 8166POPC   C4B34834  20.826  22.093   7.655
 8167POPC   NC334835  24.453  33.785   9.455
 8167POPC   PO434836  24.513  33.752   9.155
 8167POPC   GL134837  24.486  33.758   8.855
 8167POPC   GL234838  24.600  33.740   8.855
 8167POPC   C1A34839  24.494  33.783   8.555
 8167POPC   D2A34840  24.463  33.828   8.255
 8167POPC   C3A34841  24.506  33.769   7.955
 8167POPC   C4A34842  24.468  33.784   7.655
 8167POPC   C1B34843  24.765  33.718   8.555
 8167POPC   C2B34844  24.761  33.736   8.255
 8167POPC   C3B34845  24.720  33.742   7.955
 8167POPC   C4B34846  24.723  33.738   7.655
 8168POPC   NC334847  12.109  44.651   9.455
 8168POPC   PO434848  12.053  44.651   9.155
 8168POPC   GL134849  12.052  44.706   8.855
 8168POPC   GL234850  11.997  44.682   8.855
 8168POPC   C1A34851  12.036  44.706   8.555
 8168POPC   D2A34852  12.031  44.708   8.255
 8168POPC   C3A34853  12.034  44.693   7.955
 8168POPC   C4A34854  12.111  44.613   7.655
 8168POPC   C1B34855  11.824  44.697   8.555
 8168POPC   C2B34856  11.871  44.676   8.255
 8168POPC   C3B34857  11.872  44.675   7.955
 8168POPC   C4B34858  11.799  44.733   7.655
 8169POPC   NC334859   5.838   5.821   9.455
 8169POPC   PO434860   5.858   5.848   9.155
 8169POPC   GL134861   5.869   5.821   8.855
 8169POPC   GL234862   5.962   5.947   8.855
 8169POPC   C1A34863   5.895   5.820   8.555
 8169POPC   D2A34864   5.831   5.865   8.255
 8169POPC   C3A34865   5.850   5.893   7.955
 8169POPC   C4A34866   5.875   5.918   7.655
 8169POPC   C1B34867   6.118   6.000   8.555
 8169POPC   C2B34868   6.121   5.980   8.255
 8169POPC   C3B34869   6.112   6.024   7.955
 8169POPC   C4B34870   6.073   5.958   7.655
 8170POPC   NC334871  30.733   1.217   9.455
 8170POPC   PO434872  30.692   1.213   9.155
 8170POPC   GL134873  30.653   1.184   8.855
 8170POPC   GL234874  30.575   1.255   8.855
 8170POPC   C1A34875  30.655   1.185   8.555
 8170POPC   D2A34876  30.652   1.217   8.255
 8170POPC   C3A34877  30.737   1.230   7.955
 8170POPC   C4A34878  30.661   1.189   7.655
 8170POPC   C1B34879  30.443   1.290   8.555
 8170POPC   C2B34880  30.467   1.346   8.255
 8170POPC   C3B34881  30.474   1.287   7.955
 8170POPC   C4B34882  30.427   1.295   7.655
 8171POPC   NC334883  19.031   2.757   9.455
 8171POPC   PO434884  19.086   2.723   9.155
 8171POPC   GL134885  19.095   2.762   8.855
 8171POPC   GL234886  18.994   2.875   8.855
 8171POPC   C1A34887  19.022   2.763   8.555
 8171POPC   D2A34888  19.037   2.795   8.255
 8171POPC   C3A34889  19.065   2.740   7.955
 8171POPC   C4A34890  19.029   2.729   7.655
 8171POPC   C1B34891  18.799   2.894   8.555
 8171POPC   C2B34892  18.834   2.931   8.255
 8171POPC   C3B34893  18.863   2.901   7.955
 8171POPC   C4B34894  18.802   2.877   7.655
 8172POPC   NC334895  18.291  39.974   9.455
 8172POPC   PO434896  18.322  40.048   9.155
 8172POPC   GL134897  18.267  39.966   8.855
 8172POPC   GL234898  18.182  39.954   8.855
 8172POPC   C1A34899  18.262  40.042   8.555
 8172POPC   D2A34900  18.310  40.005   8.255
 8172POPC   C3A34901  18.284  39.960   7.955
 8172POPC   C4A34902  18.298  40.048   7.655
 8172POPC   C1B34903  18.030  39.976   8.555
 8172POPC   C2B34904  18.031  39.933   8.255
 8172POPC   C3B34905  18.037  39.998   7.955
 8172POPC   C4B34906  18.054  39.984   7.655
 8173POPC   NC334907   1.948  13.670   9.455
 8173POPC   PO434908   2.013  13.618   9.155
 8173POPC   GL134909   1.957  13.591   8.855
 8173POPC   GL234910   2.048  13.480   8.855
 8173POPC   C1A34911   1.945  13.608   8.555
 8173POPC   D2A34912   1.977  13.599   8.255
 8173POPC   C3A34913   1.960  13.673   7.955
 8173POPC   C4A34914   1.992  13.596   7.655
 8173POPC   C1B34915   2.127  13.364   8.555
 8173POPC   C2B34916   2.130  13.411   8.255
 8173POPC   C3B34917   2.156  13.423   7.955
 8173POPC   C4B34918   2.119  13.373   7.655
 8174POPC   NC334919  28.339  17.485   9.455
 8174POPC   PO434920  28.358  17.516   9.155
 8174POPC   GL134921  28.356  17.467   8.855
 8174POPC   GL234922  28.496  17.482   8.855
 8174POPC   C1A34923  28.405  17.462   8.555
 8174POPC   D2A34924  28.409  17.482   8.255
 8174POPC   C3A34925  28.338  17.504   7.955
 8174POPC   C4A34926  28.414  17.539   7.655
 8174POPC   C1B34927  28.592  17.508   8.555
 8174POPC   C2B34928  28.635  17.498   8.255
 8174POPC   C3B34929  28.662  17.508   7.955
 8174POPC   C4B34930  28.609  17.500   7.655
 8175POPC   NC334931  29.900   1.989   9.455
 8175POPC   PO434932  29.908   1.969   9.155
 8175POPC   GL134933  29.876   2.003   8.855
 8175POPC   GL234934  29.846   1.929   8.855
 8175POPC   C1A34935  29.906   2.016   8.555
 8175POPC   D2A34936  29.959   1.943   8.255
 8175POPC   C3A34937  29.938   2.028   7.955
 8175POPC   C4A34938  29.876   2.016   7.655
 8175POPC   C1B34939  29.808   1.812   8.555
 8175POPC   C2B34940  29.780   1.778   8.255
 8175POPC   C3B34941  29.733   1.767   7.955
 8175POPC   C4B34942  29.737   1.755   7.655
 8176POPC   NC334943   8.202   5.899   9.455
 8176POPC   PO434944   8.147   5.855   9.155
 8176POPC   GL134945   8.167   5.897   8.855
 8176POPC   GL234946   8.161   5.736   8.855
 8176POPC   C1A34947   8.240   5.891   8.555
 8176POPC   D2A34948   8.172   5.856   8.255
 8176POPC   C3A34949   8.176   5.847   7.955
 8176POPC   C4A34950   8.206   5.871   7.655
 8176POPC   C1B34951   8.055   5.699   8.555
 8176POPC   C2B34952   8.030   5.674   8.255
 8176POPC   C3B34953   8.032   5.671   7.955
 8176POPC   C4B34954   8.037   5.615   7.655
 8177POPC   NC334955  26.000  25.285   9.455
 8177POPC   PO434956  26.008  25.297   9.155
 8177POPC   GL134957  26.033  25.241   8.855
 8177POPC   GL234958  26.116  25.382   8.855
 8177POPC   C1A34959  26.031  25.314   8.555
 8177POPC   D2A34960  26.004  25.238   8.255
 8177POPC   C3A34961  26.039  25.280   7.955
 8177POPC   C4A34962  26.001  25.248   7.655
 8177POPC   C1B34963  26.241  25.407   8.555
 8177POPC   C2B34964  26.248  25.444   8.255
 8177POPC   C3B34965  26.249  25.431   7.955
 8177POPC   C4B34966  26.280  25.392   7.655
 8178POPC   NC334967  15.969  17.458   9.455
 8178POPC   PO434968  15.988  17.535   9.155
 8178POPC   GL134969  15.928  17.534   8.855
 8178POPC   GL234970  16.043  17.433   8.855
 8178POPC   C1A34971  15.908  17.505   8.555
 8178POPC   D2A34972  15.944  17.494   8.255
 8178POPC   C3A34973  15.933  17.492   7.955
 8178POPC   C4A34974  15.943  17.488   7.655
 8178POPC   C1B34975  16.149  17.346   8.555
 8178POPC   C2B34976  16.116  17.320   8.255
 8178POPC   C3B34977  16.092  17.276   7.955
 8178POPC   C4B34978  16.061  17.303   7.655
 8179POPC   NC334979  38.480  26.855   9.455
 8179POPC   PO434980  38.430  26.822   9.155
 8179POPC   GL134981  38.407  26.810   8.855
 8179POPC   GL234982  38.421  26.728   8.855
 8179POPC   C1A34983  38.465  26.778   8.555
 8179POPC   D2A34984  38.498  26.772   8.255
 8179POPC   C3A34985  38.434  26.849   7.955
 8179POPC   C4A34986  38.424  26.835   7.655
 8179POPC   C1B34987  38.384  26.596   8.555
 8179POPC   C2B34988  38.382  26.610   8.255
 8179POPC   C3B34989  38.341  26.565   7.955
 8179POPC   C4B34990  38.310  26.549   7.655
 8180POPC   NC334991   3.497  23.736   9.455
 8180POPC   PO434992   3.573  23.668   9.155
 8180POPC   GL134993   3.494  23.704   8.855
 8180POPC   GL234994   3.458  23.611   8.855
 8180POPC   C1A34995   3.573  23.759   8.555
 8180POPC   D2A34996   3.492  23.720   8.255
 8180POPC   C3A34997   3.571  23.683   7.955
 8180POPC   C4A34998   3.559  23.723   7.655
 8180POPC   C1B34999   3.342  23.544   8.555
 8180POPC   C2B35000   3.388  23.498   8.255
 8180POPC   C3B35001   3.346  23.486   7.955
 8180POPC   C4B35002   3.429  23.513   7.655
 8181POPC   NC335003  13.600  15.166   9.455
 8181POPC   PO435004  13.639  15.204   9.155
 8181POPC   GL135005  13.637  15.130   8.855
 8181POPC   GL235006  13.642  15.035   8.855
 8181POPC   C1A35007  13.601  15.193   8.555
 8181POPC   D2A35008  13.610  15.147   8.255
 8181POPC   C3A35009  13.669  15.137   7.955
 8181POPC   C4A35010  13.660  15.155   7.655
 8181POPC   C1B35011  13.678  14.893   8.555
 8181POPC   C2B35012  13.721  14.898   8.255
 8181POPC   C3B35013  13.718  14.909   7.955
 8181POPC   C4B35014  13.709  14.902   7.655
 8182POPC   NC335015  22.968  35.341   9.455
 8182POPC   PO435016  22.912  35.376   9.155
 8182POPC   GL135017  22.944  35.341   8.855
 8182POPC   GL235018  22.989  35.460   8.855
 8182POPC   C1A35019  22.959  35.356   8.555
 8182POPC   D2A35020  22.951  35.361   8.255
 8182POPC   C3A35021  22.960  35.302   7.955
 8182POPC   C4A35022  22.980  35.385   7.655
 8182POPC   C1B35023  22.998  35.623   8.555
 8182POPC   C2B35024  23.043  35.626   8.255
 8182POPC   C3B35025  23.031  35.561   7.955
 8182POPC   C4B35026  23.025  35.608   7.655
 8183POPC   NC335027  20.635  12.105   9.455
 8183POPC   PO435028  20.575  12.117   9.155
 8183POPC   GL135029  20.604  12.067   8.855
 8183POPC   GL235030  20.608  12.222   8.855
 8183POPC   C1A35031  20.611  12.097   8.555
 8183POPC   D2A35032  20.615  12.066   8.255
 8183POPC   C3A35033  20.571  12.095   7.955
 8183POPC   C4A35034  20.597  12.057   7.655
 8183POPC   C1B35035  20.586  12.332   8.555
 8183POPC   C2B35036  20.560  12.343   8.255
 8183POPC   C3B35037  20.534  12.326   7.955
 8183POPC   C4B35038  20.564  12.306   7.655
 8184POPC   NC335039  37.726  29.925   9.455
 8184POPC   PO435040  37.714  29.879   9.155
 8184POPC   GL135041  37.683  29.945   8.855
 8184POPC   GL235042  37.631  29.870   8.855
 8184POPC   C1A35043  37.712  29.917   8.555
 8184POPC   D2A35044  37.710  29.947   8.255
 8184POPC   C3A35045  37.677  29.888   7.955
 8184POPC   C4A35046  37.665  29.931   7.655
 8184POPC   C1B35047  37.461  29.758   8.555
 8184POPC   C2B35048  37.457  29.815   8.255
 8184POPC   C3B35049  37.462  29.778   7.955
 8184POPC   C4B35050  37.457  29.803   7.655
 8185POPC   NC335051  43.081  43.857   9.455
 8185POPC   PO435052  43.085  43.843   9.155
 8185POPC   GL135053  43.148  43.906   8.855
 8185POPC   GL235054  43.092  43.810   8.855
 8185POPC   C1A35055  43.127  43.934   8.555
 8185POPC   D2A35056  43.158  43.878   8.255
 8185POPC   C3A35057  43.100  43.932   7.955
 8185POPC   C4A35058  43.074  43.910   7.655
 8185POPC   C1B35059  43.080  43.642   8.555
 8185POPC   C2B35060  43.102  43.669   8.255
 8185POPC   C3B35061  43.106  43.654   7.955
 8185POPC   C4B35062  43.032  43.687   7.655
 8186POPC   NC335063  13.636  27.595   9.455
 8186POPC   PO435064  13.607  27.642   9.155
 8186POPC   GL135065  13.627  27.564   8.855
 8186POPC   GL235066  13.734  27.555   8.855
 8186POPC   C1A35067  13.613  27.641   8.555
 8186POPC   D2A35068  13.653  27.635   8.255
 8186POPC   C3A35069  13.583  27.603   7.955
 8186POPC   C4A35070  13.663  27.637   7.655
 8186POPC   C1B35071  13.893  27.516   8.555
 8186POPC   C2B35072  13.875  27.524   8.255
 8186POPC   C3B35073  13.860  27.501   7.955
 8186POPC   C4B35074  13.851  27.504   7.655
 8187POPC   NC335075  25.299  36.093   9.455
 8187POPC   PO435076  25.299  36.111   9.155
 8187POPC   GL135077  25.238  36.171   8.855
 8187POPC   GL235078  25.225  36.038   8.855
 8187POPC   C1A35079  25.271  36.101   8.555
 8187POPC   D2A35080  25.225  36.160   8.255
 8187POPC   C3A35081  25.266  36.139   7.955
 8187POPC   C4A35082  25.285  36.088   7.655
 8187POPC   C1B35083  25.202  35.880   8.555
 8187POPC   C2B35084  25.169  35.925   8.255
 8187POPC   C3B35085  25.221  35.858   7.955
 8187POPC   C4B35086  25.149  35.856   7.655
 8188POPC   NC335087   2.720   3.585   9.455
 8188POPC   PO435088   2.733   3.588   9.155
 8188POPC   GL135089   2.767   3.518   8.855
 8188POPC   GL235090   2.876   3.578   8.855
 8188POPC   C1A35091   2.796   3.521   8.555
 8188POPC   D2A35092   2.729   3.539   8.255
 8188POPC   C3A35093   2.736   3.498   7.955
 8188POPC   C4A35094   2.784   3.555   7.655
 8188POPC   C1B35095   3.038   3.665   8.555
 8188POPC   C2B35096   3.004   3.630   8.255
 8188POPC   C3B35097   3.039   3.680   7.955
 8188POPC   C4B35098   3.032   3.690   7.655
 8189POPC   NC335099  43.136  15.198   9.455
 8189POPC   PO435100  43.081  15.162   9.155
 8189POPC   GL135101  43.142  15.220   8.855
 8189POPC   GL235102  42.972  15.206   8.855
 8189POPC   C1A35103  43.157  15.147   8.555
 8189POPC   D2A35104  43.128  15.143   8.255
 8189POPC   C3A35105  43.134  15.226   7.955
 8189POPC   C4A35106  43.071  15.205   7.655
 8189POPC   C1B35107  42.857  15.201   8.555
 8189POPC   C2B35108  42.839  15.230   8.255
 8189POPC   C3B35109  42.817  15.243   7.955
 8189POPC   C4B35110  42.820  15.184   7.655
 8190POPC   NC335111  38.433  28.347   9.455
 8190POPC   PO435112  38.440  28.331   9.155
 8190POPC   GL135113  38.453  28.363   8.855
 8190POPC   GL235114  38.391  28.340   8.855
 8190POPC   C1A35115  38.411  28.361   8.555
 8190POPC   D2A35116  38.500  28.373   8.255
 8190POPC   C3A35117  38.493  28.388   7.955
 8190POPC   C4A35118  38.410  28.415   7.655
 8190POPC   C1B35119  38.268  28.184   8.555
 8190POPC   C2B35120  38.264  28.244   8.255
 8190POPC   C3B35121  38.257  28.190   7.955
 8190POPC   C4B35122  38.286  28.254   7.655
 8191POPC   NC335123  26.052   7.403   9.455
 8191POPC   PO435124  26.045   7.462   9.155
 8191POPC   GL135125  26.061   7.371   8.855
 8191POPC   GL235126  25.875   7.420   8.855
 8191POPC   C1A35127  26.015   7.465   8.555
 8191POPC   D2A35128  26.013   7.433   8.255
 8191POPC   C3A35129  26.083   7.429   7.955
 8191POPC   C4A35130  26.078   7.375   7.655
 8191POPC   C1B35131  25.787   7.483   8.555
 8191POPC   C2B35132  25.769   7.424   8.255
 8191POPC   C3B35133  25.800   7.502   7.955
 8191POPC   C4B35134  25.808   7.458   7.655
 8192POPC   NC335135  29.167  22.927   9.455
 8192POPC   PO435136  29.167  22.901   9.155
 8192POPC   GL135137  29.124  22.970   8.855
 8192POPC   GL235138  29.211  22.805   8.855
 8192POPC   C1A35139  29.167  22.941   8.555
 8192POPC   D2A35140  29.167  22.942   8.255
 8192POPC   C3A35141  29.181  22.954   7.955
 8192POPC   C4A35142  29.136  22.901   7.655
 8192POPC   C1B35143  29.321  22.788   8.555
 8192POPC   C2B35144  29.345  22.710   8.255
 8192POPC   C3B35145  29.344  22.691   7.955
 8192POPC   C4B35146  29.298  22.749   7.655
 8193POPC   NC335147   1.956  19.855   9.455
 8193POPC   PO435148   1.998  19.812   9.155
 8193POPC   GL135149   1.994  19.787   8.855
 8193POPC   GL235150   2.069  19.731   8.855
 8193POPC   C1A35151   1.990  19.837   8.555
 8193POPC   D2A35152   2.029  19.845   8.255
 8193POPC   C3A35153   2.003  19.884   7.955
 8193POPC   C4A35154   1.972  19.837   7.655
 8193POPC   C1B35155   2.142  19.669   8.555
 8193POPC   C2B35156   2.137  19.623   8.255
 8193POPC   C3B35157   2.173  19.637   7.955
 8193POPC   C4B35158   2.160  19.684   7.655
 8194POPC   NC335159  39.210  43.923   9.455
 8194POPC   PO435160  39.212  43.861   9.155
 8194POPC   GL135161  39.266  43.877   8.855
 8194POPC   GL235162  39.328  43.987   8.855
 8194POPC   C1A35163  39.185  43.851   8.555
 8194POPC   D2A35164  39.242  43.916   8.255
 8194POPC   C3A35165  39.206  43.899   7.955
 8194POPC   C4A35166  39.255  43.904   7.655
 8194POPC   C1B35167  39.469  43.974   8.555
 8194POPC   C2B35168  39.448  44.015   8.255
 8194POPC   C3B35169  39.450  43.957   7.955
 8194POPC   C4B35170  39.439  44.031   7.655
 8195POPC   NC335171  33.062  39.972   9.455
 8195POPC   PO435172  33.041  40.017   9.155
 8195POPC   GL135173  33.064  40.031   8.855
 8195POPC   GL235174  32.881  39.943   8.855
 8195POPC   C1A35175  33.020  40.047   8.555
 8195POPC   D2A35176  33.005  40.017   8.255
 8195POPC   C3A35177  33.039  40.029   7.955
 8195POPC   C4A35178  33.068  40.044   7.655
 8195POPC   C1B35179  32.755  39.996   8.555
 8195POPC   C2B35180  32.759  39.946   8.255
 8195POPC   C3B35181  32.805  40.000   7.955
 8195POPC   C4B35182  32.827  39.991   7.655
 8196POPC   NC335183   2.734  14.423   9.455
 8196POPC   PO435184   2.730  14.431   9.155
 8196POPC   GL135185   2.742  14.386   8.855
 8196POPC   GL235186   2.853  14.456   8.855
 8196POPC   C1A35187   2.811  14.389   8.555
 8196POPC   D2A35188   2.728  14.423   8.255
 8196POPC   C3A35189   2.781  14.365   7.955
 8196POPC   C4A35190   2.756  14.437   7.655
 8196POPC   C1B35191   3.045  14.449   8.555
 8196POPC   C2B35192   3.049  14.464   8.255
 8196POPC   C3B35193   2.961  14.406   7.955
 8196POPC   C4B35194   2.966  14.417   7.655
 8197POPC   NC335195  40.818  29.879   9.455
 8197POPC   PO435196  40.734  29.937   9.155
 8197POPC   GL135197  40.756  29.967   8.855
 8197POPC   GL235198  40.748  29.837   8.855
 8197POPC   C1A35199  40.819  29.885   8.555
 8197POPC   D2A35200  40.817  29.919   8.255
 8197POPC   C3A35201  40.737  29.920   7.955
 8197POPC   C4A35202  40.750  29.929   7.655
 8197POPC   C1B35203  40.674  29.721   8.555
 8197POPC   C2B35204  40.721  29.739   8.255
 8197POPC   C3B35205  40.648  29.695   7.955
 8197POPC   C4B35206  40.642  29.714   7.655
 8198POPC   NC335207  26.081  40.002   9.455
 8198POPC   PO435208  25.995  39.985   9.155
 8198POPC   GL135209  26.089  40.013   8.855
 8198POPC   GL235210  26.053  39.876   8.855
 8198POPC   C1A35211  26.036  40.002   8.555
 8198POPC   D2A35212  26.024  39.981   8.255
 8198POPC   C3A35213  26.013  40.008   7.955
 8198POPC   C4A35214  26.005  40.027   7.655
 8198POPC   C1B35215  26.088  39.786   8.555
 8198POPC   C2B35216  26.107  39.806   8.255
 8198POPC   C3B35217  26.143  39.758   7.955
 8198POPC   C4B35218  26.063  39.756   7.655
 8199POPC   NC335219  25.244  21.397   9.455
 8199POPC   PO435220  25.305  21.339   9.155
 8199POPC   GL135221  25.300  21.364   8.855
 8199POPC   GL235222  25.163  21.440   8.855
 8199POPC   C1A35223  25.303  21.413   8.555
 8199POPC   D2A35224  25.231  21.426   8.255
 8199POPC   C3A35225  25.313  21.397   7.955
 8199POPC   C4A35226  25.312  21.380   7.655
 8199POPC   C1B35227  25.053  21.545   8.555
 8199POPC   C2B35228  25.074  21.536   8.255
 8199POPC   C3B35229  25.036  21.523   7.955
 8199POPC   C4B35230  25.080  21.514   7.655
 8200POPC   NC335231   5.090  30.670   9.455
 8200POPC   PO435232   5.100  30.742   9.155
 8200POPC   GL135233   5.101  30.663   8.855
 8200POPC   GL235234   5.214  30.742   8.855
 8200POPC   C1A35235   5.076  30.669   8.555
 8200POPC   D2A35236   5.094  30.705   8.255
 8200POPC   C3A35237   5.076  30.683   7.955
 8200POPC   C4A35238   5.136  30.693   7.655
 8200POPC   C1B35239   5.309  30.865   8.555
 8200POPC   C2B35240   5.300  30.841   8.255
 8200POPC   C3B35241   5.307  30.798   7.955
 8200POPC   C4B35242   5.284  30.800   7.655
 8201POPC   NC335243  26.014  14.401   9.455
 8201POPC   PO435244  26.057  14.428   9.155
 8201POPC   GL135245  26.030  14.368   8.855
 8201POPC   GL235246  26.029  14.479   8.855
 8201POPC   C1A35247  26.054  14.372   8.555
 8201POPC   D2A35248  26.032  14.422   8.255
 8201POPC   C3A35249  26.007  14.386   7.955
 8201POPC   C4A35250  26.036  14.367   7.655
 8201POPC   C1B35251  26.042  14.631   8.555
 8201POPC   C2B35252  26.060  14.637   8.255
 8201POPC   C3B35253  26.083  14.688   7.955
 8201POPC   C4B35254  26.091  14.647   7.655
 8202POPC   NC335255   5.874  24.444   9.455
 8202POPC   PO435256   5.838  24.471   9.155
 8202POPC   GL135257   5.893  24.444   8.855
 8202POPC   GL235258   5.770  24.461   8.855
 8202POPC   C1A35259   5.870  24.470   8.555
 8202POPC   D2A35260   5.858  24.502   8.255
 8202POPC   C3A35261   5.844  24.485   7.955
 8202POPC   C4A35262   5.847  24.509   7.655
 8202POPC   C1B35263   5.641  24.547   8.555
 8202POPC   C2B35264   5.646  24.500   8.255
 8202POPC   C3B35265   5.572  24.501   7.955
 8202POPC   C4B35266   5.575  24.530   7.655
 8203POPC   NC335267  39.207  24.466   9.455
 8203POPC   PO435268  39.190  24.492   9.155
 8203POPC   GL135269  39.210  24.495   8.855
 8203POPC   GL235270  39.334  24.394   8.855
 8203POPC   C1A35271  39.271  24.528   8.555
 8203POPC   D2A35272  39.213  24.517   8.255
 8203POPC   C3A35273  39.212  24.496   7.955
 8203POPC   C4A35274  39.192  24.510   7.655
 8203POPC   C1B35275  39.405  24.329   8.555
 8203POPC   C2B35276  39.383  24.290   8.255
 8203POPC   C3B35277  39.406  24.268   7.955
 8203POPC   C4B35278  39.384  24.266   7.655
 8204POPC   NC335279  22.163  18.248   9.455
 8204POPC   PO435280  22.184  18.308   9.155
 8204POPC   GL135281  22.199  18.279   8.855
 8204POPC   GL235282  22.071  18.319   8.855
 8204POPC   C1A35283  22.200  18.284   8.555
 8204POPC   D2A35284  22.152  18.318   8.255
 8204POPC   C3A35285  22.177  18.287   7.955
 8204POPC   C4A35286  22.161  18.241   7.655
 8204POPC   C1B35287  21.900  18.290   8.555
 8204POPC   C2B35288  21.888  18.312   8.255
 8204POPC   C3B35289  21.930  18.307   7.955
 8204POPC   C4B35290  21.882  18.335   7.655
 8205POPC   NC335291   1.233  16.747   9.455
 8205POPC   PO435292   1.178  16.738   9.155
 8205POPC   GL135293   1.225  16.762   8.855
 8205POPC   GL235294   1.224  16.875   8.855
 8205POPC   C1A35295   1.194  16.757   8.555
 8205POPC   D2A35296   1.196  16.741   8.255
 8205POPC   C3A35297   1.255  16.723   7.955
 8205POPC   C4A35298   1.248  16.684   7.655
 8205POPC   C1B35299   1.330  16.985   8.555
 8205POPC   C2B35300   1.293  16.997   8.255
 8205POPC   C3B35301   1.271  16.923   7.955
 8205POPC   C4B35302   1.322  16.958   7.655
 8206POPC   NC335303  15.138  43.839   9.455
 8206POPC   PO435304  15.190  43.933   9.155
 8206POPC   GL135305  15.196  43.900   8.855
 8206POPC   GL235306  15.211  43.725   8.855
 8206POPC   C1A35307  15.147  43.854   8.555
 8206POPC   D2A35308  15.200  43.894   8.255
 8206POPC   C3A35309  15.152  43.928   7.955
 8206POPC   C4A35310  15.142  43.876   7.655
 8206POPC   C1B35311  15.234  43.648   8.555
 8206POPC   C2B35312  15.263  43.635   8.255
 8206POPC   C3B35313  15.243  43.686   7.955
 8206POPC   C4B35314  15.280  43.691   7.655
 8207POPC   NC335315   0.455  39.269   9.455
 8207POPC   PO435316   0.444  39.207   9.155
 8207POPC   GL135317   0.450  39.222   8.855
 8207POPC   GL235318   0.560  39.217   8.855
 8207POPC   C1A35319   0.479  39.195   8.555
 8207POPC   D2A35320   0.464  39.241   8.255
 8207POPC   C3A35321   0.461  39.260   7.955
 8207POPC   C4A35322   0.393  39.276   7.655
 8207POPC   C1B35323   0.737  39.177   8.555
 8207POPC   C2B35324   0.692  39.173   8.255
 8207POPC   C3B35325   0.692  39.182   7.955
 8207POPC   C4B35326   0.702  39.165   7.655
 8208POPC   NC335327  40.043   0.423   9.455
 8208POPC   PO435328  40.005   0.458   9.155
 8208POPC   GL135329  40.037   0.436   8.855
 8208POPC   GL235330  39.964   0.519   8.855
 8208POPC   C1A35331  40.020   0.413   8.555
 8208POPC   D2A35332  40.037   0.388   8.255
 8208POPC   C3A35333  39.985   0.423   7.955
 8208POPC   C4A35334  39.988   0.433   7.655
 8208POPC   C1B35335  39.961   0.732   8.555
 8208POPC   C2B35336  39.933   0.717   8.255
 8208POPC   C3B35337  39.940   0.726   7.955
 8208POPC   C4B35338  39.991   0.665   7.655
 8209POPC   NC335339  37.716  43.840   9.455
 8209POPC   PO435340  37.677  43.908   9.155
 8209POPC   GL135341  37.706  43.920   8.855
 8209POPC   GL235342  37.747  44.033   8.855
 8209POPC   C1A35343  37.700  43.916   8.555
 8209POPC   D2A35344  37.675  43.894   8.255
 8209POPC   C3A35345  37.694  43.919   7.955
 8209POPC   C4A35346  37.692  43.886   7.655
 8209POPC   C1B35347  37.714  44.116   8.555
 8209POPC   C2B35348  37.767  44.154   8.255
 8209POPC   C3B35349  37.712  44.130   7.955
 8209POPC   C4B35350  37.760  44.082   7.655
 8210POPC   NC335351  12.879  19.832   9.455
 8210POPC   PO435352  12.857  19.801   9.155
 8210POPC   GL135353  12.876  19.808   8.855
 8210POPC   GL235354  12.943  19.915   8.855
 8210POPC   C1A35355  12.830  19.868   8.555
 8210POPC   D2A35356  12.895  19.830   8.255
 8210POPC   C3A35357  12.823  19.842   7.955
 8210POPC   C4A35358  12.879  19.855   7.655
 8210POPC   C1B35359  13.058  19.940   8.555
 8210POPC   C2B35360  13.068  19.949   8.255
 8210POPC   C3B35361  13.066  19.951   7.955
 8210POPC   C4B35362  13.109  19.983   7.655
 8211POPC   NC335363  13.655  43.155   9.455
 8211POPC   PO435364  13.615  43.065   9.155
 8211POPC   GL135365  13.669  43.148   8.855
 8211POPC   GL235366  13.679  43.187   8.855
 8211POPC   C1A35367  13.654  43.116   8.555
 8211POPC   D2A35368  13.600  43.113   8.255
 8211POPC   C3A35369  13.677  43.134   7.955
 8211POPC   C4A35370  13.659  43.077   7.655
 8211POPC   C1B35371  13.866  43.295   8.555
 8211POPC   C2B35372  13.810  43.265   8.255
 8211POPC   C3B35373  13.830  43.271   7.955
 8211POPC   C4B35374  13.821  43.288   7.655
 8212POPC   NC335375  43.874  44.669   9.455
 8212POPC   PO435376  43.859  44.633   9.155
 8212POPC   GL135377  43.921  44.703   8.855
 8212POPC   GL235378  44.025  44.663   8.855
 8212POPC   C1A35379  43.873  44.695   8.555
 8212POPC   D2A35380  43.931  44.637   8.255
 8212POPC   C3A35381  43.911  44.671   7.955
 8212POPC   C4A35382  43.927  44.650   7.655
 8212POPC   C1B35383  44.102  44.619   8.555
 8212POPC   C2B35384  44.122  44.621   8.255
 8212POPC   C3B35385  44.137  44.624   7.955
 8212POPC   C4B35386  44.105  44.571   7.655
 8213POPC   NC335387  30.683   5.900   9.455
 8213POPC   PO435388  30.722   5.857   9.155
 8213POPC   GL135389  30.661   5.826   8.855
 8213POPC   GL235390  30.628   5.766   8.855
 8213POPC   C1A35391  30.683   5.827   8.555
 8213POPC   D2A35392  30.706   5.838   8.255
 8213POPC   C3A35393  30.690   5.901   7.955
 8213POPC   C4A35394  30.736   5.836   7.655
 8213POPC   C1B35395  30.601   5.704   8.555
 8213POPC   C2B35396  30.591   5.657   8.255
 8213POPC   C3B35397  30.563   5.663   7.955
 8213POPC   C4B35398  30.573   5.637   7.655
 8214POPC   NC335399   2.028   9.728   9.455
 8214POPC   PO435400   1.989   9.719   9.155
 8214POPC   GL135401   2.014   9.760   8.855
 8214POPC   GL235402   2.068   9.817   8.855
 8214POPC   C1A35403   2.005   9.702   8.555
 8214POPC   D2A35404   2.032   9.745   8.255
 8214POPC   C3A35405   1.997   9.725   7.955
 8214POPC   C4A35406   1.942   9.772   7.655
 8214POPC   C1B35407   2.229   9.783   8.555
 8214POPC   C2B35408   2.201   9.853   8.255
 8214POPC   C3B35409   2.225   9.807   7.955
 8214POPC   C4B35410   2.224   9.815   7.655
 8215POPC   NC335411  27.607  40.798   9.455
 8215POPC   PO435412  27.618  40.804   9.155
 8215POPC   GL135413  27.548  40.733   8.855
 8215POPC   GL235414  27.515  40.899   8.855
 8215POPC   C1A35415  27.565  40.766   8.555
 8215POPC   D2A35416  27.606  40.831   8.255
 8215POPC   C3A35417  27.564  40.780   7.955
 8215POPC   C4A35418  27.580  40.795   7.655
 8215POPC   C1B35419  27.442  40.956   8.555
 8215POPC   C2B35420  27.457  40.989   8.255
 8215POPC   C3B35421  27.485  41.035   7.955
 8215POPC   C4B35422  27.446  41.009   7.655
 8216POPC   NC335423  16.690  43.144   9.455
 8216POPC   PO435424  16.726  43.127   9.155
 8216POPC   GL135425  16.750  43.064   8.855
 8216POPC   GL235426  16.587  43.058   8.855
 8216POPC   C1A35427  16.778  43.139   8.555
 8216POPC   D2A35428  16.694  43.070   8.255
 8216POPC   C3A35429  16.768  43.072   7.955
 8216POPC   C4A35430  16.707  43.065   7.655
 8216POPC   C1B35431  16.545  42.934   8.555
 8216POPC   C2B35432  16.492  42.989   8.255
 8216POPC   C3B35433  16.507  42.967   7.955
 8216POPC   C4B35434  16.563  42.975   7.655
 8217POPC   NC335435  28.362   7.435   9.455
 8217POPC   PO435436  28.393   7.454   9.155
 8217POPC   GL135437  28.401   7.380   8.855
 8217POPC   GL235438  28.489   7.392   8.855
 8217POPC   C1A35439  28.395   7.417   8.555
 8217POPC   D2A35440  28.344   7.434   8.255
 8217POPC   C3A35441  28.388   7.415   7.955
 8217POPC   C4A35442  28.366   7.454   7.655
 8217POPC   C1B35443  28.589   7.454   8.555
 8217POPC   C2B35444  28.611   7.413   8.255
 8217POPC   C3B35445  28.581   7.454   7.955
 8217POPC   C4B35446  28.666   7.473   7.655
 8218POPC   NC335447  43.159  43.105   9.455
 8218POPC   PO435448  43.111  43.071   9.155
 8218POPC   GL135449  43.139  43.070   8.855
 8218POPC   GL235450  43.053  43.004   8.855
 8218POPC   C1A35451  43.152  43.135   8.555
 8218POPC   D2A35452  43.145  43.112   8.255
 8218POPC   C3A35453  43.156  43.080   7.955
 8218POPC   C4A35454  43.111  43.116   7.655
 8218POPC   C1B35455  43.069  42.898   8.555
 8218POPC   C2B35456  43.002  42.892   8.255
 8218POPC   C3B35457  43.062  42.837   7.955
 8218POPC   C4B35458  43.042  42.831   7.655
 8219POPC   NC335459  36.934  33.841   9.455
 8219POPC   PO435460  36.893  33.812   9.155
 8219POPC   GL135461  36.940  33.813   8.855
 8219POPC   GL235462  36.978  33.932   8.855
 8219POPC   C1A35463  36.855  33.780   8.555
 8219POPC   D2A35464  36.871  33.816   8.255
 8219POPC   C3A35465  36.912  33.846   7.955
 8219POPC   C4A35466  36.862  33.826   7.655
 8219POPC   C1B35467  37.060  33.955   8.555
 8219POPC   C2B35468  37.090  33.975   8.255
 8219POPC   C3B35469  37.019  33.966   7.955
 8219POPC   C4B35470  37.067  34.004   7.655
 8220POPC   NC335471  19.851  40.017   9.455
 8220POPC   PO435472  19.833  40.026   9.155
 8220POPC   GL135473  19.858  39.992   8.855
 8220POPC   GL235474  19.840  39.873   8.855
 8220POPC   C1A35475  19.827  40.031   8.555
 8220POPC   D2A35476  19.822  40.040   8.255
 8220POPC   C3A35477  19.823  39.969   7.955
 8220POPC   C4A35478  19.854  40.038   7.655
 8220POPC   C1B35479  19.867  39.766   8.555
 8220POPC   C2B35480  19.833  39.735   8.255
 8220POPC   C3B35481  19.907  39.772   7.955
 8220POPC   C4B35482  19.854  39.779   7.655
 8221POPC   NC335483  15.161   5.861   9.455
 8221POPC   PO435484  15.143   5.836   9.155
 8221POPC   GL135485  15.166   5.837   8.855
 8221POPC   GL235486  15.039   5.844   8.855
 8221POPC   C1A35487  15.206   5.890   8.555
 8221POPC   D2A35488  15.185   5.871   8.255
 8221POPC   C3A35489  15.145   5.834   7.955
 8221POPC   C4A35490  15.207   5.904   7.655
 8221POPC   C1B35491  14.968   5.840   8.555
 8221POPC   C2B35492  14.966   5.845   8.255
 8221POPC   C3B35493  14.961   5.831   7.955
 8221POPC   C4B35494  14.885   5.893   7.655
 8222POPC   NC335495  23.723  18.273   9.455
 8222POPC   PO435496  23.720  18.266   9.155
 8222POPC   GL135497  23.715  18.272   8.855
 8222POPC   GL235498  23.744  18.143   8.855
 8222POPC   C1A35499  23.705  18.328   8.555
 8222POPC   D2A35500  23.684  18.285   8.255
 8222POPC   C3A35501  23.732  18.321   7.955
 8222POPC   C4A35502  23.735  18.310   7.655
 8222POPC   C1B35503  23.733  18.000   8.555
 8222POPC   C2B35504  23.744  18.063   8.255
 8222POPC   C3B35505  23.691  18.065   7.955
 8222POPC   C4B35506  23.700  17.985   7.655
 8223POPC   NC335507  34.614  30.739   9.455
 8223POPC   PO435508  34.622  30.705   9.155
 8223POPC   GL135509  34.614  30.709   8.855
 8223POPC   GL235510  34.489  30.767   8.855
 8223POPC   C1A35511  34.622  30.675   8.555
 8223POPC   D2A35512  34.612  30.740   8.255
 8223POPC   C3A35513  34.605  30.657   7.955
 8223POPC   C4A35514  34.564  30.674   7.655
 8223POPC   C1B35515  34.471  30.886   8.555
 8223POPC   C2B35516  34.508  30.955   8.255
 8223POPC   C3B35517  34.450  30.931   7.955
 8223POPC   C4B35518  34.492  30.908   7.655
 8224POPC   NC335519  30.728   3.505   9.455
 8224POPC   PO435520  30.668   3.557   9.155
 8224POPC   GL135521  30.741   3.569   8.855
 8224POPC   GL235522  30.787   3.459   8.855
 8224POPC   C1A35523  30.658   3.533   8.555
 8224POPC   D2A35524  30.744   3.513   8.255
 8224POPC   C3A35525  30.697   3.552   7.955
 8224POPC   C4A35526  30.733   3.509   7.655
 8224POPC   C1B35527  30.848   3.286   8.555
 8224POPC   C2B35528  30.838   3.305   8.255
 8224POPC   C3B35529  30.847   3.360   7.955
 8224POPC   C4B35530  30.779   3.360   7.655
 8225POPC   NC335531  36.914  32.266   9.455
 8225POPC   PO435532  36.903  32.274   9.155
 8225POPC   GL135533  36.864  32.218   8.855
 8225POPC   GL235534  36.999  32.199   8.855
 8225POPC   C1A35535  36.881  32.274   8.555
 8225POPC   D2A35536  36.935  32.274   8.255
 8225POPC   C3A35537  36.874  32.252   7.955
 8225POPC   C4A35538  36.885  32.231   7.655
 8225POPC   C1B35539  37.131  32.147   8.555
 8225POPC   C2B35540  37.122  32.080   8.255
 8225POPC   C3B35541  37.088  32.132   7.955
 8225POPC   C4B35542  37.139  32.104   7.655
 8226POPC   NC335543  36.171  30.733   9.455
 8226POPC   PO435544  36.126  30.657   9.155
 8226POPC   GL135545  36.134  30.676   8.855
 8226POPC   GL235546  36.235  30.572   8.855
 8226POPC   C1A35547  36.133  30.722   8.555
 8226POPC   D2A35548  36.173  30.654   8.255
 8226POPC   C3A35549  36.121  30.718   7.955
 8226POPC   C4A35550  36.172  30.660   7.655
 8226POPC   C1B35551  36.335  30.527   8.555
 8226POPC   C2B35552  36.283  30.509   8.255
 8226POPC   C3B35553  36.344  30.539   7.955
 8226POPC   C4B35554  36.286  30.526   7.655
 8227POPC   NC335555  18.267  27.601   9.455
 8227POPC   PO435556  18.288  27.609   9.155
 8227POPC   GL135557  18.286  27.621   8.855
 8227POPC   GL235558  18.165  27.477   8.855
 8227POPC   C1A35559  18.280  27.564   8.555
 8227POPC   D2A35560  18.268  27.636   8.255
 8227POPC   C3A35561  18.273  27.629   7.955
 8227POPC   C4A35562  18.271  27.570   7.655
 8227POPC   C1B35563  18.050  27.435   8.555
 8227POPC   C2B35564  18.067  27.479   8.255
 8227POPC   C3B35565  18.037  27.432   7.955
 8227POPC   C4B35566  18.129  27.447   7.655
 8228POPC   NC335567  16.714  39.182   9.455
 8228POPC   PO435568  16.684  39.194   9.155
 8228POPC   GL135569  16.703  39.212   8.855
 8228POPC   GL235570  16.886  39.187   8.855
 8228POPC   C1A35571  16.714  39.254   8.555
 8228POPC   D2A35572  16.761  39.206   8.255
 8228POPC   C3A35573  16.740  39.233   7.955
 8228POPC   C4A35574  16.721  39.243   7.655
 8228POPC   C1B35575  16.965  39.108   8.555
 8228POPC   C2B35576  16.956  39.162   8.255
 8228POPC   C3B35577  16.996  39.092   7.955
 8228POPC   C4B35578  16.905  39.100   7.655
 8229POPC   NC335579  33.790  26.864   9.455
 8229POPC   PO435580  33.829  26.846   9.155
 8229POPC   GL135581  33.760  26.824   8.855
 8229POPC   GL235582  33.896  26.860   8.855
 8229POPC   C1A35583  33.808  26.787   8.555
 8229POPC   D2A35584  33.837  26.813   8.255
 8229POPC   C3A35585  33.756  26.865   7.955
 8229POPC   C4A35586  33.792  26.841   7.655
 8229POPC   C1B35587  34.072  26.835   8.555
 8229POPC   C2B35588  34.069  26.767   8.255
 8229POPC   C3B35589  34.024  26.811   7.955
 8229POPC   C4B35590  34.045  26.792   7.655
 8230POPC   NC335591   9.796  26.811   9.455
 8230POPC   PO435592   9.717  26.840   9.155
 8230POPC   GL135593   9.771  26.810   8.855
 8230POPC   GL235594   9.832  26.909   8.855
 8230POPC   C1A35595   9.733  26.844   8.555
 8230POPC   D2A35596   9.770  26.836   8.255
 8230POPC   C3A35597   9.737  26.832   7.955
 8230POPC   C4A35598   9.730  26.826   7.655
 8230POPC   C1B35599   9.917  26.961   8.555
 8230POPC   C2B35600   9.981  26.919   8.255
 8230POPC   C3B35601   9.922  26.929   7.955
 8230POPC   C4B35602   9.932  26.969   7.655
 8231POPC   NC335603  14.395  12.078   9.455
 8231POPC   PO435604  14.431  12.081   9.155
 8231POPC   GL135605  14.381  12.115   8.855
 8231POPC   GL235606  14.468  12.193   8.855
 8231POPC   C1A35607  14.431  12.112   8.555
 8231POPC   D2A35608  14.376  12.059   8.255
 8231POPC   C3A35609  14.355  12.082   7.955
 8231POPC   C4A35610  14.437  12.079   7.655
 8231POPC   C1B35611  14.541  12.249   8.555
 8231POPC   C2B35612  14.521  12.270   8.255
 8231POPC   C3B35613  14.513  12.346   7.955
 8231POPC   C4B35614  14.522  12.254   7.655
 8232POPC   NC335615  10.549   8.987   9.455
 8232POPC   PO435616  10.567   9.018   9.155
 8232POPC   GL135617  10.568   8.937   8.855
 8232POPC   GL235618  10.369   8.934   8.855
 8232POPC   C1A35619  10.542   9.022   8.555
 8232POPC   D2A35620  10.521   9.017   8.255
 8232POPC   C3A35621  10.518   8.973   7.955
 8232POPC   C4A35622  10.531   8.956   7.655
 8232POPC   C1B35623  10.342   8.803   8.555
 8232POPC   C2B35624  10.351   8.789   8.255
 8232POPC   C3B35625  10.360   8.836   7.955
 8232POPC   C4B35626  10.315   8.870   7.655
 8233POPC   NC335627  19.061  37.701   9.455
 8233POPC   PO435628  19.075  37.653   9.155
 8233POPC   GL135629  19.095  37.721   8.855
 8233POPC   GL235630  19.171  37.560   8.855
 8233POPC   C1A35631  19.105  37.674   8.555
 8233POPC   D2A35632  19.036  37.721   8.255
 8233POPC   C3A35633  19.066  37.641   7.955
 8233POPC   C4A35634  19.041  37.682   7.655
 8233POPC   C1B35635  19.268  37.577   8.555
 8233POPC   C2B35636  19.307  37.582   8.255
 8233POPC   C3B35637  19.220  37.536   7.955
 8233POPC   C4B35638  19.286  37.512   7.655
 8234POPC   NC335639  35.352  23.736   9.455
 8234POPC   PO435640  35.384  23.704   9.155
 8234POPC   GL135641  35.310  23.697   8.855
 8234POPC   GL235642  35.228  23.735   8.855
 8234POPC   C1A35643  35.302  23.733   8.555
 8234POPC   D2A35644  35.339  23.736   8.255
 8234POPC   C3A35645  35.377  23.709   7.955
 8234POPC   C4A35646  35.393  23.757   7.655
 8234POPC   C1B35647  35.130  23.800   8.555
 8234POPC   C2B35648  35.094  23.801   8.255
 8234POPC   C3B35649  35.168  23.770   7.955
 8234POPC   C4B35650  35.101  23.820   7.655
 8235POPC   NC335651  18.270  25.301   9.455
 8235POPC   PO435652  18.310  25.220   9.155
 8235POPC   GL135653  18.315  25.229   8.855
 8235POPC   GL235654  18.330  25.148   8.855
 8235POPC   C1A35655  18.242  25.297   8.555
 8235POPC   D2A35656  18.235  25.308   8.255
 8235POPC   C3A35657  18.307  25.277   7.955
 8235POPC   C4A35658  18.288  25.305   7.655
 8235POPC   C1B35659  18.346  24.988   8.555
 8235POPC   C2B35660  18.379  25.031   8.255
 8235POPC   C3B35661  18.352  24.995   7.955
 8235POPC   C4B35662  18.384  25.051   7.655
 8236POPC   NC335663   1.247  12.115   9.455
 8236POPC   PO435664   1.225  12.103   9.155
 8236POPC   GL135665   1.197  12.065   8.855
 8236POPC   GL235666   1.194  11.931   8.855
 8236POPC   C1A35667   1.253  12.073   8.555
 8236POPC   D2A35668   1.236  12.117   8.255
 8236POPC   C3A35669   1.244  12.076   7.955
 8236POPC   C4A35670   1.198  12.063   7.655
 8236POPC   C1B35671   1.103  11.841   8.555
 8236POPC   C2B35672   1.113  11.859   8.255
 8236POPC   C3B35673   1.057  11.879   7.955
 8236POPC   C4B35674   1.074  11.892   7.655
 8237POPC   NC335675  18.310  20.627   9.455
 8237POPC   PO435676  18.305  20.579   9.155
 8237POPC   GL135677  18.240  20.569   8.855
 8237POPC   GL235678  18.398  20.592   8.855
 8237POPC   C1A35679  18.293  20.653   8.555
 8237POPC   D2A35680  18.250  20.637   8.255
 8237POPC   C3A35681  18.301  20.605   7.955
 8237POPC   C4A35682  18.250  20.657   7.655
 8237POPC   C1B35683  18.537  20.522   8.555
 8237POPC   C2B35684  18.529  20.513   8.255
 8237POPC   C3B35685  18.545  20.462   7.955
 8237POPC   C4B35686  18.528  20.546   7.655
 8238POPC   NC335687  34.592  33.802   9.455
 8238POPC   PO435688  34.535  33.822   9.155
 8238POPC   GL135689  34.587  33.842   8.855
 8238POPC   GL235690  34.520  33.686   8.855
 8238POPC   C1A35691  34.558  33.785   8.555
 8238POPC   D2A35692  34.582  33.844   8.255
 8238POPC   C3A35693  34.560  33.788   7.955
 8238POPC   C4A35694  34.558  33.846   7.655
 8238POPC   C1B35695  34.507  33.582   8.555
 8238POPC   C2B35696  34.478  33.594   8.255
 8238POPC   C3B35697  34.488  33.572   7.955
 8238POPC   C4B35698  34.537  33.543   7.655
 8239POPC   NC335699   5.821  10.500   9.455
 8239POPC   PO435700   5.836  10.522   9.155
 8239POPC   GL135701   5.833  10.558   8.855
 8239POPC   GL235702   5.765  10.611   8.855
 8239POPC   C1A35703   5.819  10.530   8.555
 8239POPC   D2A35704   5.862  10.553   8.255
 8239POPC   C3A35705   5.896  10.549   7.955
 8239POPC   C4A35706   5.834  10.486   7.655
 8239POPC   C1B35707   5.668  10.722   8.555
 8239POPC   C2B35708   5.637  10.652   8.255
 8239POPC   C3B35709   5.662  10.696   7.955
 8239POPC   C4B35710   5.684  10.734   7.655
 8240POPC   NC335711   4.316   9.018   9.455
 8240POPC   PO435712   4.315   8.984   9.155
 8240POPC   GL135713   4.305   8.939   8.855
 8240POPC   GL235714   4.155   8.914   8.855
 8240POPC   C1A35715   4.296   8.994   8.555
 8240POPC   D2A35716   4.306   8.978   8.255
 8240POPC   C3A35717   4.287   8.982   7.955
 8240POPC   C4A35718   4.347   8.956   7.655
 8240POPC   C1B35719   4.057   8.905   8.555
 8240POPC   C2B35720   4.104   8.931   8.255
 8240POPC   C3B35721   4.037   8.948   7.955
 8240POPC   C4B35722   4.107   8.936   7.655
 8241POPC   NC335723  41.533  33.753   9.455
 8241POPC   PO435724  41.513  33.779   9.155
 8241POPC   GL135725  41.525  33.773   8.855
 8241POPC   GL235726  41.593  33.720   8.855
 8241POPC   C1A35727  41.536  33.761   8.555
 8241POPC   D2A35728  41.567  33.843   8.255
 8241POPC   C3A35729  41.534  33.798   7.955
 8241POPC   C4A35730  41.584  33.794   7.655
 8241POPC   C1B35731  41.520  33.568   8.555
 8241POPC   C2B35732  41.544  33.575   8.255
 8241POPC   C3B35733  41.516  33.562   7.955
 8241POPC   C4B35734  41.513  33.521   7.655
 8242POPC   NC335735  12.054   9.773   9.455
 8242POPC   PO435736  12.055   9.768   9.155
 8242POPC   GL135737  12.052   9.704   8.855
 8242POPC   GL235738  11.971   9.723   8.855
 8242POPC   C1A35739  12.030   9.759   8.555
 8242POPC   D2A35740  12.096   9.713   8.255
 8242POPC   C3A35741  12.089   9.792   7.955
 8242POPC   C4A35742  12.122   9.729   7.655
 8242POPC   C1B35743  11.861   9.709   8.555
 8242POPC   C2B35744  11.801   9.718   8.255
 8242POPC   C3B35745  11.810   9.772   7.955
 8242POPC   C4B35746  11.783   9.720   7.655
 8243POPC   NC335747  22.949  30.662   9.455
 8243POPC   PO435748  22.916  30.697   9.155
 8243POPC   GL135749  22.967  30.707   8.855
 8243POPC   GL235750  23.036  30.797   8.855
 8243POPC   C1A35751  22.966  30.731   8.555
 8243POPC   D2A35752  22.919  30.653   8.255
 8243POPC   C3A35753  22.956  30.657   7.955
 8243POPC   C4A35754  22.904  30.729   7.655
 8243POPC   C1B35755  23.170  30.815   8.555
 8243POPC   C2B35756  23.130  30.815   8.255
 8243POPC   C3B35757  23.102  30.877   7.955
 8243POPC   C4B35758  23.119  30.864   7.655
 8244POPC   NC335759  43.931  11.270   9.455
 8244POPC   PO435760  43.919  11.261   9.155
 8244POPC   GL135761  43.896  11.274   8.855
 8244POPC   GL235762  43.846  11.217   8.855
 8244POPC   C1A35763  43.911  11.343   8.555
 8244POPC   D2A35764  43.881  11.315   8.255
 8244POPC   C3A35765  43.908  11.279   7.955
 8244POPC   C4A35766  43.865  11.314   7.655
 8244POPC   C1B35767  43.768  11.118   8.555
 8244POPC   C2B35768  43.748  11.138   8.255
 8244POPC   C3B35769  43.708  11.066   7.955
 8244POPC   C4B35770  43.715  11.087   7.655
 8245POPC   NC335771  19.880   4.282   9.455
 8245POPC   PO435772  19.880   4.289   9.155
 8245POPC   GL135773  19.862   4.353   8.855
 8245POPC   GL235774  19.984   4.281   8.855
 8245POPC   C1A35775  19.810   4.298   8.555
 8245POPC   D2A35776  19.854   4.283   8.255
 8245POPC   C3A35777  19.831   4.279   7.955
 8245POPC   C4A35778  19.856   4.352   7.655
 8245POPC   C1B35779  20.067   4.271   8.555
 8245POPC   C2B35780  20.052   4.285   8.255
 8245POPC   C3B35781  20.082   4.277   7.955
 8245POPC   C4B35782  20.097   4.309   7.655
 8246POPC   NC335783  43.123  15.906   9.455
 8246POPC   PO435784  43.091  15.990   9.155
 8246POPC   GL135785  43.158  15.953   8.855
 8246POPC   GL235786  43.181  15.951   8.855
 8246POPC   C1A35787  43.096  15.987   8.555
 8246POPC   D2A35788  43.069  15.929   8.255
 8246POPC   C3A35789  43.154  15.953   7.955
 8246POPC   C4A35790  43.102  15.931   7.655
 8246POPC   C1B35791  43.303  16.044   8.555
 8246POPC   C2B35792  43.335  16.029   8.255
 8246POPC   C3B35793  43.308  16.049   7.955
 8246POPC   C4B35794  43.338  15.989   7.655
 8247POPC   NC335795   2.024   5.901   9.455
 8247POPC   PO435796   1.976   5.844   9.155
 8247POPC   GL135797   1.989   5.861   8.855
 8247POPC   GL235798   1.840   5.955   8.855
 8247POPC   C1A35799   1.984   5.914   8.555
 8247POPC   D2A35800   2.005   5.903   8.255
 8247POPC   C3A35801   1.983   5.820   7.955
 8247POPC   C4A35802   2.040   5.852   7.655
 8247POPC   C1B35803   1.827   6.032   8.555
 8247POPC   C2B35804   1.756   6.038   8.255
 8247POPC   C3B35805   1.745   6.053   7.955
 8247POPC   C4B35806   1.822   6.032   7.655
 8248POPC   NC335807  18.257  36.129   9.455
 8248POPC   PO435808  18.307  36.092   9.155
 8248POPC   GL135809  18.257  36.088   8.855
 8248POPC   GL235810  18.393  36.240   8.855
 8248POPC   C1A35811  18.250  36.088   8.555
 8248POPC   D2A35812  18.304  36.088   8.255
 8248POPC   C3A35813  18.330  36.092   7.955
 8248POPC   C4A35814  18.331  36.129   7.655
 8248POPC   C1B35815  18.466  36.335   8.555
 8248POPC   C2B35816  18.429  36.294   8.255
 8248POPC   C3B35817  18.452  36.352   7.955
 8248POPC   C4B35818  18.485  36.313   7.655
 8249POPC   NC335819  26.033   8.935   9.455
 8249POPC   PO435820  25.997   8.947   9.155
 8249POPC   GL135821  26.011   9.015   8.855
 8249POPC   GL235822  26.166   9.028   8.855
 8249POPC   C1A35823  26.064   8.952   8.555
 8249POPC   D2A35824  26.019   8.968   8.255
 8249POPC   C3A35825  26.031   8.991   7.955
 8249POPC   C4A35826  26.004   8.930   7.655
 8249POPC   C1B35827  26.327   8.958   8.555
 8249POPC   C2B35828  26.339   8.958   8.255
 8249POPC   C3B35829  26.251   9.032   7.955
 8249POPC   C4B35830  26.293   9.024   7.655
 8250POPC   NC335831   7.381   7.390   9.455
 8250POPC   PO435832   7.396   7.385   9.155
 8250POPC   GL135833   7.410   7.408   8.855
 8250POPC   GL235834   7.361   7.356   8.855
 8250POPC   C1A35835   7.415   7.409   8.555
 8250POPC   D2A35836   7.448   7.428   8.255
 8250POPC   C3A35837   7.456   7.397   7.955
 8250POPC   C4A35838   7.395   7.427   7.655
 8250POPC   C1B35839   7.268   7.244   8.555
 8250POPC   C2B35840   7.232   7.180   8.255
 8250POPC   C3B35841   7.281   7.247   7.955
 8250POPC   C4B35842   7.254   7.173   7.655
 8251POPC   NC335843  41.559  12.861   9.455
 8251POPC   PO435844  41.566  12.836   9.155
 8251POPC   GL135845  41.546  12.807   8.855
 8251POPC   GL235846  41.639  12.772   8.855
 8251POPC   C1A35847  41.531  12.861   8.555
 8251POPC   D2A35848  41.593  12.860   8.255
 8251POPC   C3A35849  41.552  12.869   7.955
 8251POPC   C4A35850  41.519  12.814   7.655
 8251POPC   C1B35851  41.714  12.641   8.555
 8251POPC   C2B35852  41.727  12.672   8.255
 8251POPC   C3B35853  41.745  12.650   7.955
 8251POPC   C4B35854  41.730  12.648   7.655
 8252POPC   NC335855  15.189  25.278   9.455
 8252POPC   PO435856  15.173  25.243   9.155
 8252POPC   GL135857  15.149  25.272   8.855
 8252POPC   GL235858  15.118  25.180   8.855
 8252POPC   C1A35859  15.158  25.305   8.555
 8252POPC   D2A35860  15.203  25.296   8.255
 8252POPC   C3A35861  15.141  25.219   7.955
 8252POPC   C4A35862  15.147  25.261   7.655
 8252POPC   C1B35863  15.081  25.062   8.555
 8252POPC   C2B35864  15.111  25.007   8.255
 8252POPC   C3B35865  15.120  25.025   7.955
 8252POPC   C4B35866  15.118  24.974   7.655
 8253POPC   NC335867  44.630  31.425   9.455
 8253POPC   PO435868  44.711  31.516   9.155
 8253POPC   GL135869  44.634  31.506   8.855
 8253POPC   GL235870  44.606  31.400   8.855
 8253POPC   C1A35871  44.626  31.460   8.555
 8253POPC   D2A35872  44.641  31.510   8.255
 8253POPC   C3A35873  44.679  31.459   7.955
 8253POPC   C4A35874  44.658  31.502   7.655
 8253POPC   C1B35875  44.521  31.341   8.555
 8253POPC   C2B35876  44.474  31.334   8.255
 8253POPC   C3B35877  44.529  31.281   7.955
 8253POPC   C4B35878  44.526  31.295   7.655
 8254POPC   NC335879  17.530  17.498   9.455
 8254POPC   PO435880  17.466  17.484   9.155
 8254POPC   GL135881  17.478  17.556   8.855
 8254POPC   GL235882  17.562  17.470   8.855
 8254POPC   C1A35883  17.524  17.508   8.555
 8254POPC   D2A35884  17.522  17.494   8.255
 8254POPC   C3A35885  17.467  17.534   7.955
 8254POPC   C4A35886  17.554  17.515   7.655
 8254POPC   C1B35887  17.762  17.329   8.555
 8254POPC   C2B35888  17.697  17.404   8.255
 8254POPC   C3B35889  17.671  17.349   7.955
 8254POPC   C4B35890  17.752  17.347   7.655
 8255POPC   NC335891   1.943  11.329   9.455
 8255POPC   PO435892   2.014  11.333   9.155
 8255POPC   GL135893   2.030  11.286   8.855
 8255POPC   GL235894   1.888  11.186   8.855
 8255POPC   C1A35895   1.990  11.272   8.555
 8255POPC   D2A35896   1.952  11.317   8.255
 8255POPC   C3A35897   1.993  11.293   7.955
 8255POPC   C4A35898   1.965  11.329   7.655
 8255POPC   C1B35899   1.832  11.170   8.555
 8255POPC   C2B35900   1.784  11.102   8.255
 8255POPC   C3B35901   1.772  11.173   7.955
 8255POPC   C4B35902   1.845  11.155   7.655
 8256POPC   NC335903   2.023  37.720   9.455
 8256POPC   PO435904   2.007  37.683   9.155
 8256POPC   GL135905   2.013  37.693   8.855
 8256POPC   GL235906   1.908  37.539   8.855
 8256POPC   C1A35907   1.956  37.719   8.555
 8256POPC   D2A35908   2.019  37.722   8.255
 8256POPC   C3A35909   1.941  37.673   7.955
 8256POPC   C4A35910   1.999  37.630   7.655
 8256POPC   C1B35911   1.895  37.463   8.555
 8256POPC   C2B35912   1.836  37.506   8.255
 8256POPC   C3B35913   1.828  37.469   7.955
 8256POPC   C4B35914   1.854  37.521   7.655
 8257POPC   NC335915  44.672   6.642   9.455
 8257POPC   PO435916  44.703   6.604   9.155
 8257POPC   GL135917  44.706   6.658   8.855
 8257POPC   GL235918  44.550   6.677   8.855
 8257POPC   C1A35919  44.674   6.691   8.555
 8257POPC   D2A35920  44.620   6.684   8.255
 8257POPC   C3A35921  44.642   6.643   7.955
 8257POPC   C4A35922  44.698   6.604   7.655
 8257POPC   C1B35923  44.402   6.642   8.555
 8257POPC   C2B35924  44.384   6.689   8.255
 8257POPC   C3B35925  44.432   6.671   7.955
 8257POPC   C4B35926  44.384   6.654   7.655
 8258POPC   NC335927   5.095   5.054   9.455
 8258POPC   PO435928   5.054   5.087   9.155
 8258POPC   GL135929   5.096   5.124   8.855
 8258POPC   GL235930   5.150   5.145   8.855
 8258POPC   C1A35931   5.072   5.117   8.555
 8258POPC   D2A35932   5.056   5.123   8.255
 8258POPC   C3A35933   5.047   5.068   7.955
 8258POPC   C4A35934   5.084   5.103   7.655
 8258POPC   C1B35935   5.314   5.311   8.555
 8258POPC   C2B35936   5.326   5.290   8.255
 8258POPC   C3B35937   5.275   5.302   7.955
 8258POPC   C4B35938   5.287   5.284   7.655
 8259POPC   NC335939   4.322  40.007   9.455
 8259POPC   PO435940   4.334  40.019   9.155
 8259POPC   GL135941   4.297  39.987   8.855
 8259POPC   GL235942   4.427  40.141   8.855
 8259POPC   C1A35943   4.288  39.996   8.555
 8259POPC   D2A35944   4.356  39.969   8.255
 8259POPC   C3A35945   4.270  39.988   7.955
 8259POPC   C4A35946   4.309  40.025   7.655
 8259POPC   C1B35947   4.525  40.237   8.555
 8259POPC   C2B35948   4.511  40.152   8.255
 8259POPC   C3B35949   4.500  40.225   7.955
 8259POPC   C4B35950   4.515  40.238   7.655
 8260POPC   NC335951   1.254  34.599   9.455
 8260POPC   PO435952   1.181  34.615   9.155
 8260POPC   GL135953   1.166  34.603   8.855
 8260POPC   GL235954   1.302  34.655   8.855
 8260POPC   C1A35955   1.215  34.601   8.555
 8260POPC   D2A35956   1.181  34.560   8.255
 8260POPC   C3A35957   1.165  34.595   7.955
 8260POPC   C4A35958   1.199  34.590   7.655
 8260POPC   C1B35959   1.382  34.796   8.555
 8260POPC   C2B35960   1.405  34.764   8.255
 8260POPC   C3B35961   1.385  34.779   7.955
 8260POPC   C4B35962   1.370  34.764   7.655
 8261POPC   NC335963  29.943   8.932   9.455
 8261POPC   PO435964  29.940   8.996   9.155
 8261POPC   GL135965  29.872   8.988   8.855
 8261POPC   GL235966  30.042   8.950   8.855
 8261POPC   C1A35967  29.945   8.982   8.555
 8261POPC   D2A35968  29.883   8.937   8.255
 8261POPC   C3A35969  29.897   8.930   7.955
 8261POPC   C4A35970  29.945   8.989   7.655
 8261POPC   C1B35971  30.196   8.930   8.555
 8261POPC   C2B35972  30.135   8.896   8.255
 8261POPC   C3B35973  30.140   8.889   7.955
 8261POPC   C4B35974  30.121   8.921   7.655
 8262POPC   NC335975   8.231   4.361   9.455
 8262POPC   PO435976   8.216   4.272   9.155
 8262POPC   GL135977   8.181   4.275   8.855
 8262POPC   GL235978   8.224   4.204   8.855
 8262POPC   C1A35979   8.233   4.330   8.555
 8262POPC   D2A35980   8.162   4.299   8.255
 8262POPC   C3A35981   8.178   4.360   7.955
 8262POPC   C4A35982   8.226   4.282   7.655
 8262POPC   C1B35983   8.240   4.054   8.555
 8262POPC   C2B35984   8.182   4.067   8.255
 8262POPC   C3B35985   8.207   4.058   7.955
 8262POPC   C4B35986   8.164   4.065   7.655
 8263POPC   NC335987   8.227  30.656   9.455
 8263POPC   PO435988   8.160  30.708   9.155
 8263POPC   GL135989   8.226  30.724   8.855
 8263POPC   GL235990   8.092  30.757   8.855
 8263POPC   C1A35991   8.163  30.711   8.555
 8263POPC   D2A35992   8.226  30.670   8.255
 8263POPC   C3A35993   8.161  30.686   7.955
 8263POPC   C4A35994   8.243  30.663   7.655
 8263POPC   C1B35995   7.919  30.704   8.555
 8263POPC   C2B35996   7.969  30.729   8.255
 8263POPC   C3B35997   7.977  30.779   7.955
 8263POPC   C4B35998   7.974  30.734   7.655
 8264POPC   NC335999  23.703  22.909   9.455
 8264POPC   PO436000  23.668  22.981   9.155
 8264POPC   GL136001  23.701  22.949   8.855
 8264POPC   GL236002  23.785  22.981   8.855
 8264POPC   C1A36003  23.733  22.892   8.555
 8264POPC   D2A36004  23.697  22.892   8.255
 8264POPC   C3A36005  23.693  22.953   7.955
 8264POPC   C4A36006  23.711  22.913   7.655
 8264POPC   C1B36007  23.910  23.098   8.555
 8264POPC   C2B36008  23.876  23.067   8.255
 8264POPC   C3B36009  23.932  23.073   7.955
 8264POPC   C4B36010  23.939  23.129   7.655
 8265POPC   NC336011  23.678  29.111   9.455
 8265POPC   PO436012  23.749  29.160   9.155
 8265POPC   GL136013  23.709  29.143   8.855
 8265POPC   GL236014  23.785  29.253   8.855
 8265POPC   C1A36015  23.721  29.180   8.555
 8265POPC   D2A36016  23.726  29.125   8.255
 8265POPC   C3A36017  23.706  29.135   7.955
 8265POPC   C4A36018  23.701  29.108   7.655
 8265POPC   C1B36019  23.849  29.386   8.555
 8265POPC   C2B36020  23.811  29.352   8.255
 8265POPC   C3B36021  23.825  29.376   7.955
 8265POPC   C4B36022  23.808  29.392   7.655
 8266POPC   NC336023   5.074   5.892   9.455
 8266POPC   PO436024   5.081   5.916   9.155
 8266POPC   GL136025   5.130   5.878   8.855
 8266POPC   GL236026   4.999   5.769   8.855
 8266POPC   C1A36027   5.134   5.908   8.555
 8266POPC   D2A36028   5.101   5.851   8.255
 8266POPC   C3A36029   5.109   5.910   7.955
 8266POPC   C4A36030   5.062   5.904   7.655
 8266POPC   C1B36031   4.953   5.625   8.555
 8266POPC   C2B36032   4.963   5.664   8.255
 8266POPC   C3B36033   5.019   5.614   7.955
 8266POPC   C4B36034   4.953   5.678   7.655
 8267POPC   NC336035  26.843  35.365   9.455
 8267POPC   PO436036  26.793  35.335   9.155
 8267POPC   GL136037  26.837  35.364   8.855
 8267POPC   GL236038  26.687  35.290   8.855
 8267POPC   C1A36039  26.850  35.329   8.555
 8267POPC   D2A36040  26.865  35.358   8.255
 8267POPC   C3A36041  26.857  35.401   7.955
 8267POPC   C4A36042  26.773  35.314   7.655
 8267POPC   C1B36043  26.565  35.287   8.555
 8267POPC   C2B36044  26.625  35.230   8.255
 8267POPC   C3B36045  26.577  35.309   7.955
 8267POPC   C4B36046  26.547  35.301   7.655
 8268POPC   NC336047   6.633  26.058   9.455
 8268POPC   PO436048   6.597  25.994   9.155
 8268POPC   GL136049   6.641  26.028   8.855
 8268POPC   GL236050   6.626  26.189   8.855
 8268POPC   C1A36051   6.668  25.998   8.555
 8268POPC   D2A36052   6.599  25.994   8.255
 8268POPC   C3A36053   6.677  26.069   7.955
 8268POPC   C4A36054   6.693  26.025   7.655
 8268POPC   C1B36055   6.559  26.279   8.555
 8268POPC   C2B36056   6.498  26.270   8.255
 8268POPC   C3B36057   6.488  26.304   7.955
 8268POPC   C4B36058   6.501  26.227   7.655
 8269POPC   NC336059   4.300  39.210   9.455
 8269POPC   PO436060   4.309  39.256   9.155
 8269POPC   GL136061   4.328  39.191   8.855
 8269POPC   GL236062   4.355  39.142   8.855
 8269POPC   C1A36063   4.271  39.220   8.555
 8269POPC   D2A36064   4.320  39.280   8.255
 8269POPC   C3A36065   4.346  39.208   7.955
 8269POPC   C4A36066   4.364  39.244   7.655
 8269POPC   C1B36067   4.351  39.019   8.555
 8269POPC   C2B36068   4.350  39.027   8.255
 8269POPC   C3B36069   4.291  38.989   7.955
 8269POPC   C4B36070   4.312  39.027   7.655
 8270POPC   NC336071  42.321  16.769   9.455
 8270POPC   PO436072  42.303  16.745   9.155
 8270POPC   GL136073  42.376  16.745   8.855
 8270POPC   GL236074  42.271  16.668   8.855
 8270POPC   C1A36075  42.300  16.711   8.555
 8270POPC   D2A36076  42.295  16.761   8.255
 8270POPC   C3A36077  42.346  16.696   7.955
 8270POPC   C4A36078  42.357  16.733   7.655
 8270POPC   C1B36079  42.160  16.557   8.555
 8270POPC   C2B36080  42.236  16.541   8.255
 8270POPC   C3B36081  42.224  16.539   7.955
 8270POPC   C4B36082  42.187  16.494   7.655
 8271POPC   NC336083  24.444  26.781   9.455
 8271POPC   PO436084  24.462  26.800   9.155
 8271POPC   GL136085  24.476  26.844   8.855
 8271POPC   GL236086  24.466  26.671   8.855
 8271POPC   C1A36087  24.512  26.794   8.555
 8271POPC   D2A36088  24.529  26.768   8.255
 8271POPC   C3A36089  24.471  26.801   7.955
 8271POPC   C4A36090  24.447  26.819   7.655
 8271POPC   C1B36091  24.407  26.611   8.555
 8271POPC   C2B36092  24.447  26.572   8.255
 8271POPC   C3B36093  24.489  26.604   7.955
 8271POPC   C4B36094  24.460  26.591   7.655
 8272POPC   NC336095  15.927  39.191   9.455
 8272POPC   PO436096  15.936  39.195   9.155
 8272POPC   GL136097  15.970  39.240   8.855
 8272POPC   GL236098  16.093  39.345   8.855
 8272POPC   C1A36099  15.986  39.213   8.555
 8272POPC   D2A36100  15.980  39.206   8.255
 8272POPC   C3A36101  15.941  39.206   7.955
 8272POPC   C4A36102  15.911  39.199   7.655
 8272POPC   C1B36103  16.193  39.345   8.555
 8272POPC   C2B36104  16.108  39.349   8.255
 8272POPC   C3B36105  16.166  39.376   7.955
 8272POPC   C4B36106  16.161  39.367   7.655
 8273POPC   NC336107  27.577  37.676   9.455
 8273POPC   PO436108  27.618  37.716   9.155
 8273POPC   GL136109  27.599  37.690   8.855
 8273POPC   GL236110  27.630  37.815   8.855
 8273POPC   C1A36111  27.577  37.645   8.555
 8273POPC   D2A36112  27.616  37.728   8.255
 8273POPC   C3A36113  27.570  37.662   7.955
 8273POPC   C4A36114  27.637  37.689   7.655
 8273POPC   C1B36115  27.584  37.886   8.555
 8273POPC   C2B36116  27.627  37.977   8.255
 8273POPC   C3B36117  27.555  37.909   7.955
 8273POPC   C4B36118  27.568  37.974   7.655
 8274POPC   NC336119  10.566  44.699   9.455
 8274POPC   PO436120  10.517  44.683   9.155
 8274POPC   GL136121  10.519  44.658   8.855
 8274POPC   GL236122  10.639  44.784   8.855
 8274POPC   C1A36123  10.510  44.691   8.555
 8274POPC   D2A36124  10.497  44.624   8.255
 8274POPC   C3A36125  10.481  44.645   7.955
 8274POPC   C4A36126  10.517  44.637   7.655
 8274POPC   C1B36127  10.733  44.800   8.555
 8274POPC   C2B36128  10.696  44.868   8.255
 8274POPC   C3B36129  10.711  44.871   7.955
 8274POPC   C4B36130  10.738  44.832   7.655
 8275POPC   NC336131   9.746   1.164   9.455
 8275POPC   PO436132   9.756   1.256   9.155
 8275POPC   GL136133   9.755   1.191   8.855
 8275POPC   GL236134   9.759   1.368   8.855
 8275POPC   C1A36135   9.713   1.202   8.555
 8275POPC   D2A36136   9.708   1.252   8.255
 8275POPC   C3A36137   9.708   1.166   7.955
 8275POPC   C4A36138   9.762   1.190   7.655
 8275POPC   C1B36139   9.845   1.459   8.555
 8275POPC   C2B36140   9.821   1.484   8.255
 8275POPC   C3B36141   9.802   1.426   7.955
 8275POPC   C4B36142   9.829   1.419   7.655
 8276POPC   NC336143   8.964   8.197   9.455
 8276POPC   PO436144   8.970   8.231   9.155
 8276POPC   GL136145   9.008   8.236   8.855
 8276POPC   GL236146   9.134   8.181   8.855
 8276POPC   C1A36147   8.968   8.197   8.555
 8276POPC   D2A36148   9.002   8.190   8.255
 8276POPC   C3A36149   8.986   8.160   7.955
 8276POPC   C4A36150   8.976   8.214   7.655
 8276POPC   C1B36151   9.194   8.121   8.555
 8276POPC   C2B36152   9.241   8.120   8.255
 8276POPC   C3B36153   9.242   8.142   7.955
 8276POPC   C4B36154   9.183   8.141   7.655
 8277POPC   NC336155  13.621  23.710   9.455
 8277POPC   PO436156  13.644  23.668   9.155
 8277POPC   GL136157  13.662  23.748   8.855
 8277POPC   GL236158  13.710  23.717   8.855
 8277POPC   C1A36159  13.644  23.694   8.555
 8277POPC   D2A36160  13.622  23.741   8.255
 8277POPC   C3A36161  13.591  23.710   7.955
 8277POPC   C4A36162  13.589  23.678   7.655
 8277POPC   C1B36163  13.832  23.682   8.555
 8277POPC   C2B36164  13.879  23.664   8.255
 8277POPC   C3B36165  13.902  23.671   7.955
 8277POPC   C4B36166  13.864  23.725   7.655
 8278POPC   NC336167  29.192   6.608   9.455
 8278POPC   PO436168  29.173   6.676   9.155
 8278POPC   GL136169  29.140   6.603   8.855
 8278POPC   GL236170  29.016   6.702   8.855
 8278POPC   C1A36171  29.158   6.661   8.555
 8278POPC   D2A36172  29.173   6.615   8.255
 8278POPC   C3A36173  29.179   6.691   7.955
 8278POPC   C4A36174  29.098   6.662   7.655
 8278POPC   C1B36175  28.933   6.807   8.555
 8278POPC   C2B36176  28.950   6.820   8.255
 8278POPC   C3B36177  28.932   6.784   7.955
 8278POPC   C4B36178  29.001   6.811   7.655
 8279POPC   NC336179  39.222  41.606   9.455
 8279POPC   PO436180  39.270  41.594   9.155
 8279POPC   GL136181  39.234  41.561   8.855
 8279POPC   GL236182  39.312  41.649   8.855
 8279POPC   C1A36183  39.187  41.571   8.555
 8279POPC   D2A36184  39.271  41.523   8.255
 8279POPC   C3A36185  39.247  41.529   7.955
 8279POPC   C4A36186  39.240  41.561   7.655
 8279POPC   C1B36187  39.456  41.621   8.555
 8279POPC   C2B36188  39.491  41.632   8.255
 8279POPC   C3B36189  39.416  41.633   7.955
 8279POPC   C4B36190  39.424  41.709   7.655
 8280POPC   NC336191   5.055  31.496   9.455
 8280POPC   PO436192   5.103  31.498   9.155
 8280POPC   GL136193   5.138  31.483   8.855
 8280POPC   GL236194   4.996  31.568   8.855
 8280POPC   C1A36195   5.125  31.453   8.555
 8280POPC   D2A36196   5.062  31.494   8.255
 8280POPC   C3A36197   5.084  31.467   7.955
 8280POPC   C4A36198   5.045  31.470   7.655
 8280POPC   C1B36199   4.947  31.661   8.555
 8280POPC   C2B36200   4.966  31.708   8.255
 8280POPC   C3B36201   4.926  31.687   7.955
 8280POPC   C4B36202   4.987  31.676   7.655
 8281POPC   NC336203   1.186  35.322   9.455
 8281POPC   PO436204   1.175  35.382   9.155
 8281POPC   GL136205   1.203  35.304   8.855
 8281POPC   GL236206   1.159  35.428   8.855
 8281POPC   C1A36207   1.223  35.319   8.555
 8281POPC   D2A36208   1.246  35.338   8.255
 8281POPC   C3A36209   1.174  35.346   7.955
 8281POPC   C4A36210   1.231  35.359   7.655
 8281POPC   C1B36211   1.209  35.611   8.555
 8281POPC   C2B36212   1.178  35.628   8.255
 8281POPC   C3B36213   1.188  35.596   7.955
 8281POPC   C4B36214   1.221  35.570   7.655
 8282POPC   NC336215  26.025  20.623   9.455
 8282POPC   PO436216  26.043  20.561   9.155
 8282POPC   GL136217  26.004  20.564   8.855
 8282POPC   GL236218  25.996  20.742   8.855
 8282POPC   C1A36219  26.023  20.649   8.555
 8282POPC   D2A36220  26.003  20.602   8.255
 8282POPC   C3A36221  26.013  20.565   7.955
 8282POPC   C4A36222  26.052  20.566   7.655
 8282POPC   C1B36223  26.030  20.887   8.555
 8282POPC   C2B36224  26.007  20.893   8.255
 8282POPC   C3B36225  25.989  20.846   7.955
 8282POPC   C4B36226  26.006  20.878   7.655
 8283POPC   NC336227   3.587  12.899   9.455
 8283POPC   PO436228   3.516  12.835   9.155
 8283POPC   GL136229   3.518  12.887   8.855
 8283POPC   GL236230   3.488  12.761   8.855
 8283POPC   C1A36231   3.544  12.874   8.555
 8283POPC   D2A36232   3.546  12.852   8.255
 8283POPC   C3A36233   3.579  12.877   7.955
 8283POPC   C4A36234   3.559  12.810   7.655
 8283POPC   C1B36235   3.417  12.590   8.555
 8283POPC   C2B36236   3.422  12.573   8.255
 8283POPC   C3B36237   3.453  12.612   7.955
 8283POPC   C4B36238   3.458  12.641   7.655
 8284POPC   NC336239  16.753  26.803   9.455
 8284POPC   PO436240  16.775  26.790   9.155
 8284POPC   GL136241  16.752  26.863   8.855
 8284POPC   GL236242  16.873  26.768   8.855
 8284POPC   C1A36243  16.741  26.863   8.555
 8284POPC   D2A36244  16.773  26.803   8.255
 8284POPC   C3A36245  16.769  26.795   7.955
 8284POPC   C4A36246  16.732  26.856   7.655
 8284POPC   C1B36247  16.958  26.657   8.555
 8284POPC   C2B36248  16.994  26.667   8.255
 8284POPC   C3B36249  16.925  26.667   7.955
 8284POPC   C4B36250  16.905  26.670   7.655
 8285POPC   NC336251  35.337  12.069   9.455
 8285POPC   PO436252  35.398  12.111   9.155
 8285POPC   GL136253  35.384  12.057   8.855
 8285POPC   GL236254  35.372  12.182   8.855
 8285POPC   C1A36255  35.328  12.043   8.555
 8285POPC   D2A36256  35.387  12.087   8.255
 8285POPC   C3A36257  35.311  12.038   7.955
 8285POPC   C4A36258  35.376  12.100   7.655
 8285POPC   C1B36259  35.320  12.341   8.555
 8285POPC   C2B36260  35.289  12.321   8.255
 8285POPC   C3B36261  35.250  12.369   7.955
 8285POPC   C4B36262  35.276  12.278   7.655
 8286POPC   NC336263  43.910   7.400   9.455
 8286POPC   PO436264  43.929   7.392   9.155
 8286POPC   GL136265  43.934   7.392   8.855
 8286POPC   GL236266  43.996   7.490   8.855
 8286POPC   C1A36267  43.861   7.381   8.555
 8286POPC   D2A36268  43.842   7.416   8.255
 8286POPC   C3A36269  43.851   7.407   7.955
 8286POPC   C4A36270  43.929   7.410   7.655
 8286POPC   C1B36271  44.118   7.542   8.555
 8286POPC   C2B36272  44.171   7.516   8.255
 8286POPC   C3B36273  44.076   7.517   7.955
 8286POPC   C4B36274  44.120   7.461   7.655
 8287POPC   NC336275  29.112  10.549   9.455
 8287POPC   PO436276  29.151  10.534   9.155
 8287POPC   GL136277  29.165  10.506   8.855
 8287POPC   GL236278  29.039  10.637   8.855
 8287POPC   C1A36279  29.175  10.486   8.555
 8287POPC   D2A36280  29.165  10.561   8.255
 8287POPC   C3A36281  29.127  10.561   7.955
 8287POPC   C4A36282  29.129  10.519   7.655
 8287POPC   C1B36283  29.019  10.753   8.555
 8287POPC   C2B36284  28.975  10.725   8.255
 8287POPC   C3B36285  28.948  10.686   7.955
 8287POPC   C4B36286  28.951  10.659   7.655
 8288POPC   NC336287  30.706  40.735   9.455
 8288POPC   PO436288  30.701  40.803   9.155
 8288POPC   GL136289  30.726  40.756   8.855
 8288POPC   GL236290  30.803  40.711   8.855
 8288POPC   C1A36291  30.706  40.735   8.555
 8288POPC   D2A36292  30.654  40.767   8.255
 8288POPC   C3A36293  30.664  40.777   7.955
 8288POPC   C4A36294  30.729  40.734   7.655
 8288POPC   C1B36295  30.799  40.600   8.555
 8288POPC   C2B36296  30.804  40.614   8.255
 8288POPC   C3B36297  30.862  40.593   7.955
 8288POPC   C4B36298  30.787  40.561   7.655
 8289POPC   NC336299   6.665   4.329   9.455
 8289POPC   PO436300   6.658   4.317   9.155
 8289POPC   GL136301   6.638   4.320   8.855
 8289POPC   GL236302   6.752   4.425   8.855
 8289POPC   C1A36303   6.647   4.339   8.555
 8289POPC   D2A36304   6.667   4.288   8.255
 8289POPC   C3A36305   6.613   4.309   7.955
 8289POPC   C4A36306   6.657   4.316   7.655
 8289POPC   C1B36307   6.808   4.537   8.555
 8289POPC   C2B36308   6.857   4.472   8.255
 8289POPC   C3B36309   6.799   4.542   7.955
 8289POPC   C4B36310   6.778   4.458   7.655
 8290POPC   NC336311  15.921  23.706   9.455
 8290POPC   PO436312  15.934  23.710   9.155
 8290POPC   GL136313  15.999  23.683   8.855
 8290POPC   GL236314  15.973  23.887   8.855
 8290POPC   C1A36315  15.977  23.695   8.555
 8290POPC   D2A36316  16.000  23.671   8.255
 8290POPC   C3A36317  15.982  23.708   7.955
 8290POPC   C4A36318  16.005  23.680   7.655
 8290POPC   C1B36319  15.921  24.003   8.555
 8290POPC   C2B36320  15.963  23.917   8.255
 8290POPC   C3B36321  15.893  23.957   7.955
 8290POPC   C4B36322  15.897  23.949   7.655
 8291POPC   NC336323  40.038  30.680   9.455
 8291POPC   PO436324  39.969  30.648   9.155
 8291POPC   GL136325  40.044  30.705   8.855
 8291POPC   GL236326  40.083  30.682   8.855
 8291POPC   C1A36327  39.987  30.697   8.555
 8291POPC   D2A36328  40.013  30.650   8.255
 8291POPC   C3A36329  40.022  30.655   7.955
 8291POPC   C4A36330  39.966  30.706   7.655
 8291POPC   C1B36331  40.248  30.646   8.555
 8291POPC   C2B36332  40.220  30.687   8.255
 8291POPC   C3B36333  40.299  30.641   7.955
 8291POPC   C4B36334  40.217  30.618   7.655
 8292POPC   NC336335  43.072  16.736   9.455
 8292POPC   PO436336  43.132  16.742   9.155
 8292POPC   GL136337  43.137  16.768   8.855
 8292POPC   GL236338  43.284  16.782   8.855
 8292POPC   C1A36339  43.132  16.773   8.555
 8292POPC   D2A36340  43.160  16.700   8.255
 8292POPC   C3A36341  43.137  16.705   7.955
 8292POPC   C4A36342  43.107  16.705   7.655
 8292POPC   C1B36343  43.354  16.788   8.555
 8292POPC   C2B36344  43.321  16.730   8.255
 8292POPC   C3B36345  43.335  16.708   7.955
 8292POPC   C4B36346  43.400  16.742   7.655
 8293POPC   NC336347  14.414  36.149   9.455
 8293POPC   PO436348  14.453  36.150   9.155
 8293POPC   GL136349  14.387  36.104   8.855
 8293POPC   GL236350  14.334  36.261   8.855
 8293POPC   C1A36351  14.374  36.110   8.555
 8293POPC   D2A36352  14.407  36.133   8.255
 8293POPC   C3A36353  14.395  36.136   7.955
 8293POPC   C4A36354  14.355  36.165   7.655
 8293POPC   C1B36355  14.231  36.354   8.555
 8293POPC   C2B36356  14.283  36.358   8.255
 8293POPC   C3B36357  14.251  36.354   7.955
 8293POPC   C4B36358  14.230  36.346   7.655
 8294POPC   NC336359  25.305  26.853   9.455
 8294POPC   PO436360  25.262  26.785   9.155
 8294POPC   GL136361  25.251  26.843   8.855
 8294POPC   GL236362  25.240  26.747   8.855
 8294POPC   C1A36363  25.240  26.844   8.555
 8294POPC   D2A36364  25.223  26.840   8.255
 8294POPC   C3A36365  25.256  26.813   7.955
 8294POPC   C4A36366  25.234  26.841   7.655
 8294POPC   C1B36367  25.149  26.546   8.555
 8294POPC   C2B36368  25.139  26.598   8.255
 8294POPC   C3B36369  25.228  26.542   7.955
 8294POPC   C4B36370  25.179  26.612   7.655
 8295POPC   NC336371   5.893  43.908   9.455
 8295POPC   PO436372   5.849  43.912   9.155
 8295POPC   GL136373   5.839  43.878   8.855
 8295POPC   GL236374   5.864  43.984   8.855
 8295POPC   C1A36375   5.826  43.924   8.555
 8295POPC   D2A36376   5.869  43.842   8.255
 8295POPC   C3A36377   5.865  43.865   7.955
 8295POPC   C4A36378   5.820  43.925   7.655
 8295POPC   C1B36379   5.894  44.130   8.555
 8295POPC   C2B36380   5.976  44.155   8.255
 8295POPC   C3B36381   5.936  44.099   7.955
 8295POPC   C4B36382   5.933  44.142   7.655
 8296POPC   NC336383   8.185  39.190   9.455
 8296POPC   PO436384   8.177  39.258   9.155
 8296POPC   GL136385   8.173  39.207   8.855
 8296POPC   GL236386   8.302  39.292   8.855
 8296POPC   C1A36387   8.164  39.233   8.555
 8296POPC   D2A36388   8.150  39.215   8.255
 8296POPC   C3A36389   8.200  39.193   7.955
 8296POPC   C4A36390   8.193  39.225   7.655
 8296POPC   C1B36391   8.447  39.385   8.555
 8296POPC   C2B36392   8.377  39.371   8.255
 8296POPC   C3B36393   8.387  39.335   7.955
 8296POPC   C4B36394   8.424  39.309   7.655
 8297POPC   NC336395  36.082  44.628   9.455
 8297POPC   PO436396  36.113  44.648   9.155
 8297POPC   GL136397  36.162  44.676   8.855
 8297POPC   GL236398  36.228  44.519   8.855
 8297POPC   C1A36399  36.158  44.694   8.555
 8297POPC   D2A36400  36.159  44.613   8.255
 8297POPC   C3A36401  36.098  44.669   7.955
 8297POPC   C4A36402  36.171  44.673   7.655
 8297POPC   C1B36403  36.300  44.427   8.555
 8297POPC   C2B36404  36.270  44.474   8.255
 8297POPC   C3B36405  36.244  44.454   7.955
 8297POPC   C4B36406  36.285  44.474   7.655
 8298POPC   NC336407  19.795  23.665   9.455
 8298POPC   PO436408  19.875  23.700   9.155
 8298POPC   GL136409  19.790  23.700   8.855
 8298POPC   GL236410  19.766  23.778   8.855
 8298POPC   C1A36411  19.816  23.719   8.555
 8298POPC   D2A36412  19.846  23.738   8.255
 8298POPC   C3A36413  19.839  23.762   7.955
 8298POPC   C4A36414  19.802  23.716   7.655
 8298POPC   C1B36415  19.648  23.795   8.555
 8298POPC   C2B36416  19.572  23.762   8.255
 8298POPC   C3B36417  19.620  23.842   7.955
 8298POPC   C4B36418  19.606  23.817   7.655
 8299POPC   NC336419  36.142  43.880   9.455
 8299POPC   PO436420  36.142  43.863   9.155
 8299POPC   GL136421  36.125  43.906   8.855
 8299POPC   GL236422  36.262  43.939   8.855
 8299POPC   C1A36423  36.177  43.906   8.555
 8299POPC   D2A36424  36.143  43.866   8.255
 8299POPC   C3A36425  36.092  43.873   7.955
 8299POPC   C4A36426  36.099  43.890   7.655
 8299POPC   C1B36427  36.306  44.088   8.555
 8299POPC   C2B36428  36.356  44.087   8.255
 8299POPC   C3B36429  36.283  44.085   7.955
 8299POPC   C4B36430  36.342  44.018   7.655
 8300POPC   NC336431  26.007  38.421   9.455
 8300POPC   PO436432  26.037  38.414   9.155
 8300POPC   GL136433  26.068  38.494   8.855
 8300POPC   GL236434  26.189  38.423   8.855
 8300POPC   C1A36435  26.051  38.463   8.555
 8300POPC   D2A36436  26.030  38.480   8.255
 8300POPC   C3A36437  26.035  38.480   7.955
 8300POPC   C4A36438  26.024  38.436   7.655
 8300POPC   C1B36439  26.302  38.360   8.555
 8300POPC   C2B36440  26.289  38.365   8.255
 8300POPC   C3B36441  26.293  38.289   7.955
 8300POPC   C4B36442  26.239  38.321   7.655
 8301POPC   NC336443  15.925   0.461   9.455
 8301POPC   PO436444  15.979   0.448   9.155
 8301POPC   GL136445  15.910   0.417   8.855
 8301POPC   GL236446  16.080   0.463   8.855
 8301POPC   C1A36447  15.959   0.408   8.555
 8301POPC   D2A36448  15.996   0.402   8.255
 8301POPC   C3A36449  15.962   0.487   7.955
 8301POPC   C4A36450  15.926   0.485   7.655
 8301POPC   C1B36451  16.155   0.533   8.555
 8301POPC   C2B36452  16.149   0.529   8.255
 8301POPC   C3B36453  16.182   0.508   7.955
 8301POPC   C4B36454  16.219   0.550   7.655
 8302POPC   NC336455  39.192  43.067   9.455
 8302POPC   PO436456  39.269  43.104   9.155
 8302POPC   GL136457  39.274  43.073   8.855
 8302POPC   GL236458  39.178  43.234   8.855
 8302POPC   C1A36459  39.209  43.066   8.555
 8302POPC   D2A36460  39.212  43.064   8.255
 8302POPC   C3A36461  39.182  43.146   7.955
 8302POPC   C4A36462  39.242  43.117   7.655
 8302POPC   C1B36463  39.087  43.239   8.555
 8302POPC   C2B36464  39.074  43.238   8.255
 8302POPC   C3B36465  39.082  43.275   7.955
 8302POPC   C4B36466  39.060  43.254   7.655
 8303POPC   NC336467  27.609  44.705   9.455
 8303POPC   PO436468  27.577  44.656   9.155
 8303POPC   GL136469  27.630  44.689   8.855
 8303POPC   GL236470  27.506  44.749   8.855
 8303POPC   C1A36471  27.583  44.694   8.555
 8303POPC   D2A36472  27.566  44.694   8.255
 8303POPC   C3A36473  27.640  44.686   7.955
 8303POPC   C4A36474  27.601  44.615   7.655
 8303POPC   C1B36475  27.419  44.913   8.555
 8303POPC   C2B36476  27.484  44.832   8.255
 8303POPC   C3B36477  27.483  44.857   7.955
 8303POPC   C4B36478  27.441  44.828   7.655
 8304POPC   NC336479  38.430  15.946   9.455
 8304POPC   PO436480  38.474  15.968   9.155
 8304POPC   GL136481  38.434  15.962   8.855
 8304POPC   GL236482  38.597  15.909   8.855
 8304POPC   C1A36483  38.486  15.949   8.555
 8304POPC   D2A36484  38.412  15.993   8.255
 8304POPC   C3A36485  38.489  15.986   7.955
 8304POPC   C4A36486  38.505  16.001   7.655
 8304POPC   C1B36487  38.668  15.844   8.555
 8304POPC   C2B36488  38.697  15.936   8.255
 8304POPC   C3B36489  38.702  15.911   7.955
 8304POPC   C4B36490  38.691  15.878   7.655
 8305POPC   NC336491  23.696  35.305   9.455
 8305POPC   PO436492  23.739  35.372   9.155
 8305POPC   GL136493  23.722  35.348   8.855
 8305POPC   GL236494  23.666  35.183   8.855
 8305POPC   C1A36495  23.743  35.387   8.555
 8305POPC   D2A36496  23.721  35.385   8.255
 8305POPC   C3A36497  23.673  35.326   7.955
 8305POPC   C4A36498  23.733  35.330   7.655
 8305POPC   C1B36499  23.729  35.068   8.555
 8305POPC   C2B36500  23.743  35.147   8.255
 8305POPC   C3B36501  23.673  35.132   7.955
 8305POPC   C4B36502  23.714  35.085   7.655
 8306POPC   NC336503  36.093  37.653   9.455
 8306POPC   PO436504  36.139  37.680   9.155
 8306POPC   GL136505  36.147  37.665   8.855
 8306POPC   GL236506  36.267  37.680   8.855
 8306POPC   C1A36507  36.088  37.669   8.555
 8306POPC   D2A36508  36.085  37.717   8.255
 8306POPC   C3A36509  36.107  37.709   7.955
 8306POPC   C4A36510  36.171  37.680   7.655
 8306POPC   C1B36511  36.343  37.702   8.555
 8306POPC   C2B36512  36.348  37.790   8.255
 8306POPC   C3B36513  36.335  37.722   7.955
 8306POPC   C4B36514  36.351  37.707   7.655
 8307POPC   NC336515  19.056  43.065   9.455
 8307POPC   PO436516  19.014  43.110   9.155
 8307POPC   GL136517  19.013  43.134   8.855
 8307POPC   GL236518  18.984  43.132   8.855
 8307POPC   C1A36519  19.060  43.087   8.555
 8307POPC   D2A36520  19.072  43.105   8.255
 8307POPC   C3A36521  19.041  43.129   7.955
 8307POPC   C4A36522  19.108  43.066   7.655
 8307POPC   C1B36523  18.861  43.208   8.555
 8307POPC   C2B36524  18.840  43.267   8.255
 8307POPC   C3B36525  18.859  43.281   7.955
 8307POPC   C4B36526  18.852  43.216   7.655
 8308POPC   NC336527   2.721  15.137   9.455
 8308POPC   PO436528   2.812  15.147   9.155
 8308POPC   GL136529   2.778  15.153   8.855
 8308POPC   GL236530   2.622  15.185   8.855
 8308POPC   C1A36531   2.728  15.167   8.555
 8308POPC   D2A36532   2.769  15.146   8.255
 8308POPC   C3A36533   2.777  15.227   7.955
 8308POPC   C4A36534   2.787  15.186   7.655
 8308POPC   C1B36535   2.553  15.126   8.555
 8308POPC   C2B36536   2.524  15.078   8.255
 8308POPC   C3B36537   2.529  15.085   7.955
 8308POPC   C4B36538   2.564  15.075   7.655
 8309POPC   NC336539  12.105  43.889   9.455
 8309POPC   PO436540  12.118  43.923   9.155
 8309POPC   GL136541  12.095  43.909   8.855
 8309POPC   GL236542  12.043  43.968   8.855
 8309POPC   C1A36543  12.039  43.837   8.555
 8309POPC   D2A36544  12.034  43.910   8.255
 8309POPC   C3A36545  12.065  43.903   7.955
 8309POPC   C4A36546  12.100  43.838   7.655
 8309POPC   C1B36547  12.045  44.176   8.555
 8309POPC   C2B36548  12.045  44.161   8.255
 8309POPC   C3B36549  12.008  44.092   7.955
 8309POPC   C4B36550  11.991  44.085   7.655
 8310POPC   NC336551  30.677  43.928   9.455
 8310POPC   PO436552  30.712  43.839   9.155
 8310POPC   GL136553  30.723  43.885   8.855
 8310POPC   GL236554  30.608  43.929   8.855
 8310POPC   C1A36555  30.741  43.907   8.555
 8310POPC   D2A36556  30.705  43.869   8.255
 8310POPC   C3A36557  30.706  43.923   7.955
 8310POPC   C4A36558  30.697  43.918   7.655
 8310POPC   C1B36559  30.531  44.038   8.555
 8310POPC   C2B36560  30.476  44.012   8.255
 8310POPC   C3B36561  30.512  44.030   7.955
 8310POPC   C4B36562  30.504  44.042   7.655
 8311POPC   NC336563  35.331   4.304   9.455
 8311POPC   PO436564  35.367   4.278   9.155
 8311POPC   GL136565  35.378   4.299   8.855
 8311POPC   GL236566  35.257   4.329   8.855
 8311POPC   C1A36567  35.338   4.286   8.555
 8311POPC   D2A36568  35.329   4.278   8.255
 8311POPC   C3A36569  35.362   4.340   7.955
 8311POPC   C4A36570  35.401   4.270   7.655
 8311POPC   C1B36571  35.151   4.478   8.555
 8311POPC   C2B36572  35.128   4.457   8.255
 8311POPC   C3B36573  35.137   4.449   7.955
 8311POPC   C4B36574  35.129   4.400   7.655
 8312POPC   NC336575  33.024   5.832   9.455
 8312POPC   PO436576  33.005   5.877   9.155
 8312POPC   GL136577  33.011   5.843   8.855
 8312POPC   GL236578  33.124   5.911   8.855
 8312POPC   C1A36579  32.989   5.880   8.555
 8312POPC   D2A36580  33.023   5.867   8.255
 8312POPC   C3A36581  33.046   5.846   7.955
 8312POPC   C4A36582  33.055   5.913   7.655
 8312POPC   C1B36583  33.272   5.900   8.555
 8312POPC   C2B36584  33.297   5.923   8.255
 8312POPC   C3B36585  33.229   5.905   7.955
 8312POPC   C4B36586  33.264   5.981   7.655
 8313POPC   NC336587  42.349  27.565   9.455
 8313POPC   PO436588  42.363  27.614   9.155
 8313POPC   GL136589  42.355  27.616   8.855
 8313POPC   GL236590  42.259  27.633   8.855
 8313POPC   C1A36591  42.321  27.643   8.555
 8313POPC   D2A36592  42.299  27.590   8.255
 8313POPC   C3A36593  42.362  27.605   7.955
 8313POPC   C4A36594  42.309  27.630   7.655
 8313POPC   C1B36595  42.112  27.577   8.555
 8313POPC   C2B36596  42.051  27.537   8.255
 8313POPC   C3B36597  42.080  27.571   7.955
 8313POPC   C4B36598  42.103  27.621   7.655
 8314POPC   NC336599   7.375   8.175   9.455
 8314POPC   PO436600   7.413   8.227   9.155
 8314POPC   GL136601   7.379   8.210   8.855
 8314POPC   GL236602   7.515   8.098   8.855
 8314POPC   C1A36603   7.442   8.238   8.555
 8314POPC   D2A36604   7.445   8.171   8.255
 8314POPC   C3A36605   7.449   8.178   7.955
 8314POPC   C4A36606   7.412   8.167   7.655
 8314POPC   C1B36607   7.668   8.083   8.555
 8314POPC   C2B36608   7.610   8.036   8.255
 8314POPC   C3B36609   7.615   7.996   7.955
 8314POPC   C4B36610   7.595   8.087   7.655
 8315POPC   NC336611  36.105  40.786   9.455
 8315POPC   PO436612  36.078  40.819   9.155
 8315POPC   GL136613  36.091  40.744   8.855
 8315POPC   GL236614  36.058  40.645   8.855
 8315POPC   C1A36615  36.098  40.777   8.555
 8315POPC   D2A36616  36.083  40.818   8.255
 8315POPC   C3A36617  36.156  40.827   7.955
 8315POPC   C4A36618  36.140  40.762   7.655
 8315POPC   C1B36619  35.997  40.510   8.555
 8315POPC   C2B36620  36.081  40.571   8.255
 8315POPC   C3B36621  36.037  40.507   7.955
 8315POPC   C4B36622  36.010  40.518   7.655
 8316POPC   NC336623  39.256  29.966   9.455
 8316POPC   PO436624  39.226  29.907   9.155
 8316POPC   GL136625  39.195  29.922   8.855
 8316POPC   GL236626  39.102  29.943   8.855
 8316POPC   C1A36627  39.271  29.968   8.555
 8316POPC   D2A36628  39.242  29.916   8.255
 8316POPC   C3A36629  39.187  29.874   7.955
 8316POPC   C4A36630  39.241  29.961   7.655
 8316POPC   C1B36631  39.021  29.926   8.555
 8316POPC   C2B36632  39.020  29.930   8.255
 8316POPC   C3B36633  39.017  29.945   7.955
 8316POPC   C4B36634  38.984  29.946   7.655
 8317POPC   NC336635  35.330   8.186   9.455
 8317POPC   PO436636  35.302   8.205   9.155
 8317POPC   GL136637  35.365   8.229   8.855
 8317POPC   GL236638  35.421   8.100   8.855
 8317POPC   C1A36639  35.363   8.150   8.555
 8317POPC   D2A36640  35.324   8.196   8.255
 8317POPC   C3A36641  35.345   8.193   7.955
 8317POPC   C4A36642  35.364   8.209   7.655
 8317POPC   C1B36643  35.514   8.032   8.555
 8317POPC   C2B36644  35.509   7.968   8.255
 8317POPC   C3B36645  35.543   8.041   7.955
 8317POPC   C4B36646  35.511   8.055   7.655
 8318POPC   NC336647  35.391   8.954   9.455
 8318POPC   PO436648  35.315   8.936   9.155
 8318POPC   GL136649  35.394   8.965   8.855
 8318POPC   GL236650  35.283   8.815   8.855
 8318POPC   C1A36651  35.371   8.937   8.555
 8318POPC   D2A36652  35.369   8.986   8.255
 8318POPC   C3A36653  35.379   8.982   7.955
 8318POPC   C4A36654  35.366   8.992   7.655
 8318POPC   C1B36655  35.243   8.693   8.555
 8318POPC   C2B36656  35.274   8.704   8.255
 8318POPC   C3B36657  35.246   8.774   7.955
 8318POPC   C4B36658  35.257   8.772   7.655
 8319POPC   NC336659  26.792  29.924   9.455
 8319POPC   PO436660  26.818  29.928   9.155
 8319POPC   GL136661  26.796  29.962   8.855
 8319POPC   GL236662  26.923  29.994   8.855
 8319POPC   C1A36663  26.787  29.904   8.555
 8319POPC   D2A36664  26.861  29.952   8.255
 8319POPC   C3A36665  26.767  29.873   7.955
 8319POPC   C4A36666  26.795  29.962   7.655
 8319POPC   C1B36667  27.028  29.936   8.555
 8319POPC   C2B36668  27.043  30.002   8.255
 8319POPC   C3B36669  27.019  29.938   7.955
 8319POPC   C4B36670  27.042  30.014   7.655
 8320POPC   NC336671  34.532  10.519   9.455
 8320POPC   PO436672  34.573  10.482   9.155
 8320POPC   GL136673  34.562  10.502   8.855
 8320POPC   GL236674  34.475  10.498   8.855
 8320POPC   C1A36675  34.554  10.558   8.555
 8320POPC   D2A36676  34.575  10.527   8.255
 8320POPC   C3A36677  34.605  10.522   7.955
 8320POPC   C4A36678  34.571  10.502   7.655
 8320POPC   C1B36679  34.353  10.503   8.555
 8320POPC   C2B36680  34.313  10.422   8.255
 8320POPC   C3B36681  34.331  10.512   7.955
 8320POPC   C4B36682  34.318  10.451   7.655
 8321POPC   NC336683  38.429  12.803   9.455
 8321POPC   PO436684  38.489  12.855   9.155
 8321POPC   GL136685  38.479  12.878   8.855
 8321POPC   GL236686  38.482  12.717   8.855
 8321POPC   C1A36687  38.471  12.869   8.555
 8321POPC   D2A36688  38.452  12.803   8.255
 8321POPC   C3A36689  38.422  12.846   7.955
 8321POPC   C4A36690  38.476  12.899   7.655
 8321POPC   C1B36691  38.549  12.582   8.555
 8321POPC   C2B36692  38.511  12.578   8.255
 8321POPC   C3B36693  38.520  12.599   7.955
 8321POPC   C4B36694  38.496  12.660   7.655
 8322POPC   NC336695   3.550  18.282   9.455
 8322POPC   PO436696   3.551  18.312   9.155
 8322POPC   GL136697   3.502  18.323   8.855
 8322POPC   GL236698   3.441  18.367   8.855
 8322POPC   C1A36699   3.492  18.318   8.555
 8322POPC   D2A36700   3.587  18.272   8.255
 8322POPC   C3A36701   3.583  18.236   7.955
 8322POPC   C4A36702   3.549  18.259   7.655
 8322POPC   C1B36703   3.378  18.504   8.555
 8322POPC   C2B36704   3.390  18.550   8.255
 8322POPC   C3B36705   3.398  18.517   7.955
 8322POPC   C4B36706   3.376  18.526   7.655
 8323POPC   NC336707   7.465   8.962   9.455
 8323POPC   PO436708   7.424   8.980   9.155
 8323POPC   GL136709   7.381   8.993   8.855
 8323POPC   GL236710   7.474   9.027   8.855
 8323POPC   C1A36711   7.453   8.978   8.555
 8323POPC   D2A36712   7.453   8.939   8.255
 8323POPC   C3A36713   7.396   8.939   7.955
 8323POPC   C4A36714   7.427   8.996   7.655
 8323POPC   C1B36715   7.573   9.198   8.555
 8323POPC   C2B36716   7.625   9.200   8.255
 8323POPC   C3B36717   7.538   9.148   7.955
 8323POPC   C4B36718   7.630   9.200   7.655
 8324POPC   NC336719  35.342  16.720   9.455
 8324POPC   PO436720  35.338  16.781   9.155
 8324POPC   GL136721  35.340  16.767   8.855
 8324POPC   GL236722  35.232  16.678   8.855
 8324POPC   C1A36723  35.359  16.725   8.555
 8324POPC   D2A36724  35.353  16.753   8.255
 8324POPC   C3A36725  35.320  16.761   7.955
 8324POPC   C4A36726  35.392  16.718   7.655
 8324POPC   C1B36727  35.077  16.693   8.555
 8324POPC   C2B36728  35.128  16.631   8.255
 8324POPC   C3B36729  35.077  16.639   7.955
 8324POPC   C4B36730  35.086  16.699   7.655
 8325POPC   NC336731  33.038  42.359   9.455
 8325POPC   PO436732  33.002  42.298   9.155
 8325POPC   GL136733  32.994  42.322   8.855
 8325POPC   GL236734  32.910  42.372   8.855
 8325POPC   C1A36735  33.058  42.373   8.555
 8325POPC   D2A36736  33.053  42.320   8.255
 8325POPC   C3A36737  33.007  42.310   7.955
 8325POPC   C4A36738  33.069  42.329   7.655
 8325POPC   C1B36739  32.781  42.302   8.555
 8325POPC   C2B36740  32.769  42.345   8.255
 8325POPC   C3B36741  32.746  42.290   7.955
 8325POPC   C4B36742  32.745  42.380   7.655
 8326POPC   NC336743   6.679  22.964   9.455
 8326POPC   PO436744   6.684  22.978   9.155
 8326POPC   GL136745   6.683  22.939   8.855
 8326POPC   GL236746   6.571  22.797   8.855
 8326POPC   C1A36747   6.675  22.967   8.555
 8326POPC   D2A36748   6.620  22.961   8.255
 8326POPC   C3A36749   6.649  22.894   7.955
 8326POPC   C4A36750   6.603  22.954   7.655
 8326POPC   C1B36751   6.539  22.682   8.555
 8326POPC   C2B36752   6.559  22.687   8.255
 8326POPC   C3B36753   6.577  22.669   7.955
 8326POPC   C4B36754   6.520  22.686   7.655
 8327POPC   NC336755  10.538  19.012   9.455
 8327POPC   PO436756  10.492  19.029   9.155
 8327POPC   GL136757  10.554  19.019   8.855
 8327POPC   GL236758  10.497  19.208   8.855
 8327POPC   C1A36759  10.567  19.010   8.555
 8327POPC   D2A36760  10.549  19.072   8.255
 8327POPC   C3A36761  10.514  19.053   7.955
 8327POPC   C4A36762  10.475  19.040   7.655
 8327POPC   C1B36763  10.428  19.255   8.555
 8327POPC   C2B36764  10.485  19.255   8.255
 8327POPC   C3B36765  10.459  19.343   7.955
 8327POPC   C4B36766  10.432  19.282   7.655
 8328POPC   NC336767  11.328  18.276   9.455
 8328POPC   PO436768  11.345  18.315   9.155
 8328POPC   GL136769  11.349  18.255   8.855
 8328POPC   GL236770  11.181  18.334   8.855
 8328POPC   C1A36771  11.334  18.261   8.555
 8328POPC   D2A36772  11.327  18.294   8.255
 8328POPC   C3A36773  11.341  18.327   7.955
 8328POPC   C4A36774  11.311  18.301   7.655
 8328POPC   C1B36775  11.063  18.411   8.555
 8328POPC   C2B36776  11.112  18.429   8.255
 8328POPC   C3B36777  11.132  18.388   7.955
 8328POPC   C4B36778  11.139  18.434   7.655
 8329POPC   NC336779  44.659  12.064   9.455
 8329POPC   PO436780  44.638  12.039   9.155
 8329POPC   GL136781  44.617  12.063   8.855
 8329POPC   GL236782  44.608  11.999   8.855
 8329POPC   C1A36783  44.702  12.097   8.555
 8329POPC   D2A36784  44.662  12.122   8.255
 8329POPC   C3A36785  44.644  12.080   7.955
 8329POPC   C4A36786  44.676  12.095   7.655
 8329POPC   C1B36787  44.521  11.879   8.555
 8329POPC   C2B36788  44.519  11.867   8.255
 8329POPC   C3B36789  44.485  11.840   7.955
 8329POPC   C4B36790  44.514  11.821   7.655
 8330POPC   NC336791  22.207   7.384   9.455
 8330POPC   PO436792  22.168   7.398   9.155
 8330POPC   GL136793  22.155   7.442   8.855
 8330POPC   GL236794  22.187   7.496   8.855
 8330POPC   C1A36795  22.172   7.400   8.555
 8330POPC   D2A36796  22.115   7.417   8.255
 8330POPC   C3A36797  22.121   7.447   7.955
 8330POPC   C4A36798  22.201   7.419   7.655
 8330POPC   C1B36799  22.305   7.619   8.555
 8330POPC   C2B36800  22.238   7.618   8.255
 8330POPC   C3B36801  22.266   7.690   7.955
 8330POPC   C4B36802  22.274   7.626   7.655
 8331POPC   NC336803  35.311   9.717   9.455
 8331POPC   PO436804  35.328   9.785   9.155
 8331POPC   GL136805  35.365   9.788   8.855
 8331POPC   GL236806  35.250   9.761   8.855
 8331POPC   C1A36807  35.349   9.777   8.555
 8331POPC   D2A36808  35.382   9.735   8.255
 8331POPC   C3A36809  35.303   9.710   7.955
 8331POPC   C4A36810  35.370   9.781   7.655
 8331POPC   C1B36811  35.087   9.814   8.555
 8331POPC   C2B36812  35.117   9.872   8.255
 8331POPC   C3B36813  35.079   9.810   7.955
 8331POPC   C4B36814  35.080   9.817   7.655
 8332POPC   NC336815  29.158  22.134   9.455
 8332POPC   PO436816  29.140  22.164   9.155
 8332POPC   GL136817  29.150  22.164   8.855
 8332POPC   GL236818  29.161  22.080   8.855
 8332POPC   C1A36819  29.195  22.120   8.555
 8332POPC   D2A36820  29.153  22.174   8.255
 8332POPC   C3A36821  29.178  22.133   7.955
 8332POPC   C4A36822  29.160  22.209   7.655
 8332POPC   C1B36823  29.261  21.923   8.555
 8332POPC   C2B36824  29.266  21.953   8.255
 8332POPC   C3B36825  29.227  21.972   7.955
 8332POPC   C4B36826  29.289  21.911   7.655
 8333POPC   NC336827  15.133  22.121   9.455
 8333POPC   PO436828  15.221  22.133   9.155
 8333POPC   GL136829  15.203  22.139   8.855
 8333POPC   GL236830  15.231  22.295   8.855
 8333POPC   C1A36831  15.162  22.207   8.555
 8333POPC   D2A36832  15.169  22.116   8.255
 8333POPC   C3A36833  15.196  22.180   7.955
 8333POPC   C4A36834  15.160  22.115   7.655
 8333POPC   C1B36835  15.252  22.415   8.555
 8333POPC   C2B36836  15.229  22.411   8.255
 8333POPC   C3B36837  15.260  22.438   7.955
 8333POPC   C4B36838  15.243  22.425   7.655
 8334POPC   NC336839  16.756  40.013   9.455
 8334POPC   PO436840  16.760  39.987   9.155
 8334POPC   GL136841  16.687  40.019   8.855
 8334POPC   GL236842  16.639  40.061   8.855
 8334POPC   C1A36843  16.733  40.022   8.555
 8334POPC   D2A36844  16.776  39.979   8.255
 8334POPC   C3A36845  16.757  39.977   7.955
 8334POPC   C4A36846  16.765  39.979   7.655
 8334POPC   C1B36847  16.478  40.148   8.555
 8334POPC   C2B36848  16.532  40.092   8.255
 8334POPC   C3B36849  16.460  40.144   7.955
 8334POPC   C4B36850  16.502  40.120   7.655
 8335POPC   NC336851   1.254   5.887   9.455
 8335POPC   PO436852   1.264   5.905   9.155
 8335POPC   GL136853   1.181   5.846   8.855
 8335POPC   GL236854   1.080   5.874   8.855
 8335POPC   C1A36855   1.186   5.852   8.555
 8335POPC   D2A36856   1.195   5.892   8.255
 8335POPC   C3A36857   1.236   5.884   7.955
 8335POPC   C4A36858   1.191   5.827   7.655
 8335POPC   C1B36859   1.033   5.935   8.555
 8335POPC   C2B36860   1.015   6.014   8.255
 8335POPC   C3B36861   0.976   5.945   7.955
 8335POPC   C4B36862   0.982   5.980   7.655
 8336POPC   NC336863  13.644  29.143   9.455
 8336POPC   PO436864  13.657  29.105   9.155
 8336POPC   GL136865  13.650  29.113   8.855
 8336POPC   GL236866  13.585  29.239   8.855
 8336POPC   C1A36867  13.601  29.097   8.555
 8336POPC   D2A36868  13.618  29.143   8.255
 8336POPC   C3A36869  13.638  29.143   7.955
 8336POPC   C4A36870  13.596  29.194   7.655
 8336POPC   C1B36871  13.440  29.280   8.555
 8336POPC   C2B36872  13.471  29.350   8.255
 8336POPC   C3B36873  13.462  29.368   7.955
 8336POPC   C4B36874  13.480  29.284   7.655
 8337POPC   NC336875  39.980  23.747   9.455
 8337POPC   PO436876  40.018  23.703   9.155
 8337POPC   GL136877  40.035  23.746   8.855
 8337POPC   GL236878  39.897  23.803   8.855
 8337POPC   C1A36879  40.030  23.680   8.555
 8337POPC   D2A36880  39.979  23.764   8.255
 8337POPC   C3A36881  40.042  23.745   7.955
 8337POPC   C4A36882  39.986  23.759   7.655
 8337POPC   C1B36883  39.831  23.922   8.555
 8337POPC   C2B36884  39.842  23.912   8.255
 8337POPC   C3B36885  39.803  23.932   7.955
 8337POPC   C4B36886  39.844  23.887   7.655
 8338POPC   NC336887  41.589  11.323   9.455
 8338POPC   PO436888  41.510  11.331   9.155
 8338POPC   GL136889  41.555  11.323   8.855
 8338POPC   GL236890  41.667  11.389   8.855
 8338POPC   C1A36891  41.522  11.334   8.555
 8338POPC   D2A36892  41.573  11.329   8.255
 8338POPC   C3A36893  41.579  11.285   7.955
 8338POPC   C4A36894  41.524  11.275   7.655
 8338POPC   C1B36895  41.677  11.497   8.555
 8338POPC   C2B36896  41.681  11.513   8.255
 8338POPC   C3B36897  41.669  11.548   7.955
 8338POPC   C4B36898  41.658  11.466   7.655
 8339POPC   NC336899  21.375  18.299   9.455
 8339POPC   PO436900  21.345  18.280   9.155
 8339POPC   GL136901  21.394  18.280   8.855
 8339POPC   GL236902  21.217  18.278   8.855
 8339POPC   C1A36903  21.346  18.284   8.555
 8339POPC   D2A36904  21.373  18.258   8.255
 8339POPC   C3A36905  21.424  18.276   7.955
 8339POPC   C4A36906  21.368  18.235   7.655
 8339POPC   C1B36907  21.165  18.351   8.555
 8339POPC   C2B36908  21.168  18.308   8.255
 8339POPC   C3B36909  21.107  18.271   7.955
 8339POPC   C4B36910  21.125  18.340   7.655
 8340POPC   NC336911  23.673  37.641   9.455
 8340POPC   PO436912  23.732  37.699   9.155
 8340POPC   GL136913  23.730  37.685   8.855
 8340POPC   GL236914  23.806  37.559   8.855
 8340POPC   C1A36915  23.715  37.703   8.555
 8340POPC   D2A36916  23.731  37.643   8.255
 8340POPC   C3A36917  23.761  37.691   7.955
 8340POPC   C4A36918  23.763  37.653   7.655
 8340POPC   C1B36919  23.861  37.500   8.555
 8340POPC   C2B36920  23.914  37.497   8.255
 8340POPC   C3B36921  23.927  37.538   7.955
 8340POPC   C4B36922  23.917  37.517   7.655
 8341POPC   NC336923  15.207   3.560   9.455
 8341POPC   PO436924  15.221   3.505   9.155
 8341POPC   GL136925  15.133   3.561   8.855
 8341POPC   GL236926  15.119   3.489   8.855
 8341POPC   C1A36927  15.164   3.551   8.555
 8341POPC   D2A36928  15.154   3.555   8.255
 8341POPC   C3A36929  15.212   3.526   7.955
 8341POPC   C4A36930  15.178   3.588   7.655
 8341POPC   C1B36931  14.998   3.407   8.555
 8341POPC   C2B36932  15.025   3.410   8.255
 8341POPC   C3B36933  15.020   3.354   7.955
 8341POPC   C4B36934  15.032   3.394   7.655
 8342POPC   NC336935  31.454  18.287   9.455
 8342POPC   PO436936  31.501  18.305   9.155
 8342POPC   GL136937  31.453  18.284   8.855
 8342POPC   GL236938  31.347  18.204   8.855
 8342POPC   C1A36939  31.449  18.291   8.555
 8342POPC   D2A36940  31.471  18.284   8.255
 8342POPC   C3A36941  31.441  18.237   7.955
 8342POPC   C4A36942  31.521  18.253   7.655
 8342POPC   C1B36943  31.293  18.152   8.555
 8342POPC   C2B36944  31.228  18.143   8.255
 8342POPC   C3B36945  31.243  18.200   7.955
 8342POPC   C4B36946  31.220  18.182   7.655
 8343POPC   NC336947  36.117  24.487   9.455
 8343POPC   PO436948  36.138  24.473   9.155
 8343POPC   GL136949  36.143  24.504   8.855
 8343POPC   GL236950  36.083  24.607   8.855
 8343POPC   C1A36951  36.095  24.520   8.555
 8343POPC   D2A36952  36.101  24.457   8.255
 8343POPC   C3A36953  36.142  24.447   7.955
 8343POPC   C4A36954  36.155  24.448   7.655
 8343POPC   C1B36955  35.993  24.682   8.555
 8343POPC   C2B36956  35.997  24.664   8.255
 8343POPC   C3B36957  35.945  24.660   7.955
 8343POPC   C4B36958  35.977  24.688   7.655
 8344POPC   NC336959   1.193  41.573   9.455
 8344POPC   PO436960   1.178  41.554   9.155
 8344POPC   GL136961   1.176  41.578   8.855
 8344POPC   GL236962   1.093  41.567   8.855
 8344POPC   C1A36963   1.169  41.595   8.555
 8344POPC   D2A36964   1.184  41.546   8.255
 8344POPC   C3A36965   1.205  41.538   7.955
 8344POPC   C4A36966   1.194  41.518   7.655
 8344POPC   C1B36967   1.011  41.620   8.555
 8344POPC   C2B36968   0.964  41.570   8.255
 8344POPC   C3B36969   1.000  41.568   7.955
 8344POPC   C4B36970   0.953  41.554   7.655
 8345POPC   NC336971  20.642  12.809   9.455
 8345POPC   PO436972  20.573  12.820   9.155
 8345POPC   GL136973  20.577  12.878   8.855
 8345POPC   GL236974  20.692  12.907   8.855
 8345POPC   C1A36975  20.590  12.827   8.555
 8345POPC   D2A36976  20.637  12.814   8.255
 8345POPC   C3A36977  20.592  12.861   7.955
 8345POPC   C4A36978  20.632  12.806   7.655
 8345POPC   C1B36979  20.814  13.076   8.555
 8345POPC   C2B36980  20.787  13.065   8.255
 8345POPC   C3B36981  20.748  13.043   7.955
 8345POPC   C4B36982  20.731  13.004   7.655
 8346POPC   NC336983  15.940  25.217   9.455
 8346POPC   PO436984  15.964  25.241   9.155
 8346POPC   GL136985  15.915  25.248   8.855
 8346POPC   GL236986  15.891  25.361   8.855
 8346POPC   C1A36987  15.968  25.308   8.555
 8346POPC   D2A36988  15.940  25.299   8.255
 8346POPC   C3A36989  15.991  25.247   7.955
 8346POPC   C4A36990  15.994  25.305   7.655
 8346POPC   C1B36991  15.841  25.467   8.555
 8346POPC   C2B36992  15.875  25.535   8.255
 8346POPC   C3B36993  15.855  25.527   7.955
 8346POPC   C4B36994  15.859  25.550   7.655
 8347POPC   NC336995  40.039  40.830   9.455
 8347POPC   PO436996  40.009  40.777   9.155
 8347POPC   GL136997  40.038  40.768   8.855
 8347POPC   GL236998  40.051  40.730   8.855
 8347POPC   C1A36999  40.053  40.787   8.555
 8347POPC   D2A37000  39.988  40.820   8.255
 8347POPC   C3A37001  39.976  40.815   7.955
 8347POPC   C4A37002  40.052  40.781   7.655
 8347POPC   C1B37003  40.131  40.564   8.555
 8347POPC   C2B37004  40.174  40.623   8.255
 8347POPC   C3B37005  40.186  40.623   7.955
 8347POPC   C4B37006  40.124  40.625   7.655
 8348POPC   NC337007   0.481  40.006   9.455
 8348POPC   PO437008   0.454  39.958   9.155
 8348POPC   GL137009   0.397  39.961   8.855
 8348POPC   GL237010   0.493  40.137   8.855
 8348POPC   C1A37011   0.465  39.990   8.555
 8348POPC   D2A37012   0.452  40.045   8.255
 8348POPC   C3A37013   0.394  39.993   7.955
 8348POPC   C4A37014   0.439  40.017   7.655
 8348POPC   C1B37015   0.551  40.289   8.555
 8348POPC   C2B37016   0.545  40.215   8.255
 8348POPC   C3B37017   0.517  40.199   7.955
 8348POPC   C4B37018   0.478  40.239   7.655
 8349POPC   NC337019  39.238  26.076   9.455
 8349POPC   PO437020  39.279  26.091   9.155
 8349POPC   GL137021  39.193  26.023   8.855
 8349POPC   GL237022  39.176  25.926   8.855
 8349POPC   C1A37023  39.251  26.005   8.555
 8349POPC   D2A37024  39.188  26.037   8.255
 8349POPC   C3A37025  39.222  26.069   7.955
 8349POPC   C4A37026  39.185  26.062   7.655
 8349POPC   C1B37027  39.243  25.807   8.555
 8349POPC   C2B37028  39.181  25.761   8.255
 8349POPC   C3B37029  39.234  25.758   7.955
 8349POPC   C4B37030  39.256  25.837   7.655
 8350POPC   NC337031  13.606   3.560   9.455
 8350POPC   PO437032  13.642   3.554   9.155
 8350POPC   GL137033  13.653   3.564   8.855
 8350POPC   GL237034  13.524   3.607   8.855
 8350POPC   C1A37035  13.593   3.574   8.555
 8350POPC   D2A37036  13.603   3.515   8.255
 8350POPC   C3A37037  13.631   3.505   7.955
 8350POPC   C4A37038  13.654   3.579   7.655
 8350POPC   C1B37039  13.442   3.687   8.555
 8350POPC   C2B37040  13.406   3.690   8.255
 8350POPC   C3B37041  13.458   3.723   7.955
 8350POPC   C4B37042  13.468   3.710   7.655
 8351POPC   NC337043  26.044   9.705   9.455
 8351POPC   PO437044  26.059   9.702   9.155
 8351POPC   GL137045  26.053   9.712   8.855
 8351POPC   GL237046  25.946   9.801   8.855
 8351POPC   C1A37047  26.090   9.748   8.555
 8351POPC   D2A37048  26.077   9.744   8.255
 8351POPC   C3A37049  25.992   9.714   7.955
 8351POPC   C4A37050  26.072   9.700   7.655
 8351POPC   C1B37051  25.841   9.977   8.555
 8351POPC   C2B37052  25.855   9.901   8.255
 8351POPC   C3B37053  25.883   9.884   7.955
 8351POPC   C4B37054  25.899   9.961   7.655
 8352POPC   NC337055  40.021  35.382   9.455
 8352POPC   PO437056  40.017  35.333   9.155
 8352POPC   GL137057  40.008  35.349   8.855
 8352POPC   GL237058  40.161  35.321   8.855
 8352POPC   C1A37059  39.965  35.330   8.555
 8352POPC   D2A37060  39.970  35.382   8.255
 8352POPC   C3A37061  39.966  35.390   7.955
 8352POPC   C4A37062  39.977  35.355   7.655
 8352POPC   C1B37063  40.235  35.247   8.555
 8352POPC   C2B37064  40.292  35.302   8.255
 8352POPC   C3B37065  40.197  35.233   7.955
 8352POPC   C4B37066  40.288  35.310   7.655
 8353POPC   NC337067  43.924  41.607   9.455
 8353POPC   PO437068  43.871  41.549   9.155
 8353POPC   GL137069  43.917  41.580   8.855
 8353POPC   GL237070  43.983  41.496   8.855
 8353POPC   C1A37071  43.923  41.559   8.555
 8353POPC   D2A37072  43.838  41.580   8.255
 8353POPC   C3A37073  43.923  41.541   7.955
 8353POPC   C4A37074  43.889  41.592   7.655
 8353POPC   C1B37075  44.124  41.447   8.555
 8353POPC   C2B37076  44.090  41.465   8.255
 8353POPC   C3B37077  44.064  41.432   7.955
 8353POPC   C4B37078  44.136  41.395   7.655
 8354POPC   NC337079  20.575   6.664   9.455
 8354POPC   PO437080  20.568   6.669   9.155
 8354POPC   GL137081  20.641   6.690   8.855
 8354POPC   GL237082  20.746   6.636   8.855
 8354POPC   C1A37083  20.635   6.650   8.555
 8354POPC   D2A37084  20.635   6.693   8.255
 8354POPC   C3A37085  20.592   6.625   7.955
 8354POPC   C4A37086  20.603   6.635   7.655
 8354POPC   C1B37087  20.853   6.588   8.555
 8354POPC   C2B37088  20.862   6.539   8.255
 8354POPC   C3B37089  20.828   6.543   7.955
 8354POPC   C4B37090  20.883   6.590   7.655
 8355POPC   NC337091  19.011   1.999   9.455
 8355POPC   PO437092  19.096   1.981   9.155
 8355POPC   GL137093  19.052   1.996   8.855
 8355POPC   GL237094  18.969   1.851   8.855
 8355POPC   C1A37095  19.089   2.023   8.555
 8355POPC   D2A37096  19.028   1.950   8.255
 8355POPC   C3A37097  19.039   1.975   7.955
 8355POPC   C4A37098  19.011   2.034   7.655
 8355POPC   C1B37099  18.881   1.826   8.555
 8355POPC   C2B37100  18.850   1.832   8.255
 8355POPC   C3B37101  18.875   1.795   7.955
 8355POPC   C4B37102  18.908   1.835   7.655
 8356POPC   NC337103  37.653  34.582   9.455
 8356POPC   PO437104  37.681  34.618   9.155
 8356POPC   GL137105  37.723  34.548   8.855
 8356POPC   GL237106  37.807  34.554   8.855
 8356POPC   C1A37107  37.638  34.557   8.555
 8356POPC   D2A37108  37.691  34.596   8.255
 8356POPC   C3A37109  37.662  34.547   7.955
 8356POPC   C4A37110  37.709  34.587   7.655
 8356POPC   C1B37111  37.911  34.551   8.555
 8356POPC   C2B37112  37.966  34.574   8.255
 8356POPC   C3B37113  37.974  34.533   7.955
 8356POPC   C4B37114  37.964  34.570   7.655
 8357POPC   NC337115  15.907   3.550   9.455
 8357POPC   PO437116  15.975   3.550   9.155
 8357POPC   GL137117  15.964   3.499   8.855
 8357POPC   GL237118  16.086   3.436   8.855
 8357POPC   C1A37119  15.921   3.498   8.555
 8357POPC   D2A37120  15.985   3.584   8.255
 8357POPC   C3A37121  15.970   3.550   7.955
 8357POPC   C4A37122  15.979   3.584   7.655
 8357POPC   C1B37123  16.102   3.398   8.555
 8357POPC   C2B37124  16.186   3.388   8.255
 8357POPC   C3B37125  16.174   3.348   7.955
 8357POPC   C4B37126  16.158   3.416   7.655
 8358POPC   NC337127  34.556  22.931   9.455
 8358POPC   PO437128  34.559  22.921   9.155
 8358POPC   GL137129  34.606  22.934   8.855
 8358POPC   GL237130  34.705  22.895   8.855
 8358POPC   C1A37131  34.533  22.985   8.555
 8358POPC   D2A37132  34.574  22.930   8.255
 8358POPC   C3A37133  34.591  22.906   7.955
 8358POPC   C4A37134  34.559  22.919   7.655
 8358POPC   C1B37135  34.834  22.846   8.555
 8358POPC   C2B37136  34.777  22.866   8.255
 8358POPC   C3B37137  34.768  22.809   7.955
 8358POPC   C4B37138  34.777  22.896   7.655
 8359POPC   NC337139   1.196  40.829   9.455
 8359POPC   PO437140   1.207  40.833   9.155
 8359POPC   GL137141   1.177  40.819   8.855
 8359POPC   GL237142   1.072  40.822   8.855
 8359POPC   C1A37143   1.194  40.786   8.555
 8359POPC   D2A37144   1.250  40.777   8.255
 8359POPC   C3A37145   1.205  40.751   7.955
 8359POPC   C4A37146   1.231  40.806   7.655
 8359POPC   C1B37147   0.954  40.748   8.555
 8359POPC   C2B37148   0.991  40.764   8.255
 8359POPC   C3B37149   1.011  40.777   7.955
 8359POPC   C4B37150   0.957  40.756   7.655
 8360POPC   NC337151  41.526  33.033   9.455
 8360POPC   PO437152  41.516  33.064   9.155
 8360POPC   GL137153  41.566  33.039   8.855
 8360POPC   GL237154  41.686  32.971   8.855
 8360POPC   C1A37155  41.559  33.073   8.555
 8360POPC   D2A37156  41.569  33.061   8.255
 8360POPC   C3A37157  41.509  32.976   7.955
 8360POPC   C4A37158  41.607  33.025   7.655
 8360POPC   C1B37159  41.760  32.947   8.555
 8360POPC   C2B37160  41.774  32.964   8.255
 8360POPC   C3B37161  41.763  32.976   7.955
 8360POPC   C4B37162  41.807  33.010   7.655
 8361POPC   NC337163  12.113   6.617   9.455
 8361POPC   PO437164  12.117   6.614   9.155
 8361POPC   GL137165  12.066   6.647   8.855
 8361POPC   GL237166  12.031   6.800   8.855
 8361POPC   C1A37167  12.049   6.619   8.555
 8361POPC   D2A37168  12.072   6.672   8.255
 8361POPC   C3A37169  12.111   6.654   7.955
 8361POPC   C4A37170  12.050   6.673   7.655
 8361POPC   C1B37171  12.020   6.936   8.555
 8361POPC   C2B37172  12.022   6.931   8.255
 8361POPC   C3B37173  12.091   6.908   7.955
 8361POPC   C4B37174  12.038   6.849   7.655
 8362POPC   NC337175  12.811   3.559   9.455
 8362POPC   PO437176  12.860   3.579   9.155
 8362POPC   GL137177  12.842   3.587   8.855
 8362POPC   GL237178  12.729   3.473   8.855
 8362POPC   C1A37179  12.841   3.551   8.555
 8362POPC   D2A37180  12.837   3.560   8.255
 8362POPC   C3A37181  12.896   3.498   7.955
 8362POPC   C4A37182  12.807   3.492   7.655
 8362POPC   C1B37183  12.709   3.390   8.555
 8362POPC   C2B37184  12.709   3.411   8.255
 8362POPC   C3B37185  12.703   3.353   7.955
 8362POPC   C4B37186  12.664   3.357   7.655
 8363POPC   NC337187  26.802  23.751   9.455
 8363POPC   PO437188  26.849  23.722   9.155
 8363POPC   GL137189  26.782  23.704   8.855
 8363POPC   GL237190  26.838  23.813   8.855
 8363POPC   C1A37191  26.802  23.727   8.555
 8363POPC   D2A37192  26.864  23.751   8.255
 8363POPC   C3A37193  26.768  23.730   7.955
 8363POPC   C4A37194  26.794  23.694   7.655
 8363POPC   C1B37195  26.888  23.969   8.555
 8363POPC   C2B37196  26.908  24.004   8.255
 8363POPC   C3B37197  26.871  23.984   7.955
 8363POPC   C4B37198  26.876  23.988   7.655
 8364POPC   NC337199   4.314  36.869   9.455
 8364POPC   PO437200   4.323  36.893   9.155
 8364POPC   GL137201   4.318  36.917   8.855
 8364POPC   GL237202   4.430  36.848   8.855
 8364POPC   C1A37203   4.346  36.918   8.555
 8364POPC   D2A37204   4.328  36.878   8.255
 8364POPC   C3A37205   4.269  36.895   7.955
 8364POPC   C4A37206   4.340  36.920   7.655
 8364POPC   C1B37207   4.559  36.798   8.555
 8364POPC   C2B37208   4.497  36.737   8.255
 8364POPC   C3B37209   4.476  36.747   7.955
 8364POPC   C4B37210   4.531  36.715   7.655
 8365POPC   NC337211  17.534  11.341   9.455
 8365POPC   PO437212  17.477  11.309   9.155
 8365POPC   GL137213  17.480  11.319   8.855
 8365POPC   GL237214  17.544  11.165   8.855
 8365POPC   C1A37215  17.553  11.269   8.555
 8365POPC   D2A37216  17.469  11.279   8.255
 8365POPC   C3A37217  17.501  11.319   7.955
 8365POPC   C4A37218  17.512  11.275   7.655
 8365POPC   C1B37219  17.651  11.163   8.555
 8365POPC   C2B37220  17.721  11.122   8.255
 8365POPC   C3B37221  17.639  11.079   7.955
 8365POPC   C4B37222  17.662  11.148   7.655
 8366POPC   NC337223  36.101   1.225   9.455
 8366POPC   PO437224  36.135   1.188   9.155
 8366POPC   GL137225  36.172   1.181   8.855
 8366POPC   GL237226  36.010   1.223   8.855
 8366POPC   C1A37227  36.133   1.186   8.555
 8366POPC   D2A37228  36.173   1.201   8.255
 8366POPC   C3A37229  36.089   1.264   7.955
 8366POPC   C4A37230  36.132   1.251   7.655
 8366POPC   C1B37231  35.906   1.232   8.555
 8366POPC   C2B37232  35.864   1.231   8.255
 8366POPC   C3B37233  35.853   1.216   7.955
 8366POPC   C4B37234  35.835   1.221   7.655
 8367POPC   NC337235  29.102   1.250   9.455
 8367POPC   PO437236  29.153   1.221   9.155
 8367POPC   GL137237  29.112   1.244   8.855
 8367POPC   GL237238  29.079   1.372   8.855
 8367POPC   C1A37239  29.111   1.228   8.555
 8367POPC   D2A37240  29.165   1.176   8.255
 8367POPC   C3A37241  29.167   1.210   7.955
 8367POPC   C4A37242  29.171   1.242   7.655
 8367POPC   C1B37243  29.052   1.455   8.555
 8367POPC   C2B37244  29.030   1.433   8.255
 8367POPC   C3B37245  29.077   1.399   7.955
 8367POPC   C4B37246  29.075   1.437   7.655
 8368POPC   NC337247  26.009  21.421   9.455
 8368POPC   PO437248  25.997  21.379   9.155
 8368POPC   GL137249  26.063  21.412   8.855
 8368POPC   GL237250  25.952  21.289   8.855
 8368POPC   C1A37251  26.083  21.337   8.555
 8368POPC   D2A37252  26.069  21.394   8.255
 8368POPC   C3A37253  26.004  21.429   7.955
 8368POPC   C4A37254  26.086  21.399   7.655
 8368POPC   C1B37255  25.810  21.236   8.555
 8368POPC   C2B37256  25.810  21.304   8.255
 8368POPC   C3B37257  25.849  21.302   7.955
 8368POPC   C4B37258  25.796  21.243   7.655
 8369POPC   NC337259  22.936  40.024   9.455
 8369POPC   PO437260  22.904  40.050   9.155
 8369POPC   GL137261  22.914  39.990   8.855
 8369POPC   GL237262  23.053  40.086   8.855
 8369POPC   C1A37263  22.934  40.016   8.555
 8369POPC   D2A37264  22.935  39.988   8.255
 8369POPC   C3A37265  22.936  39.967   7.955
 8369POPC   C4A37266  22.892  39.976   7.655
 8369POPC   C1B37267  23.143  40.246   8.555
 8369POPC   C2B37268  23.101  40.245   8.255
 8369POPC   C3B37269  23.106  40.165   7.955
 8369POPC   C4B37270  23.083  40.225   7.655
 8370POPC   NC337271  41.561  36.108   9.455
 8370POPC   PO437272  41.564  36.080   9.155
 8370POPC   GL137273  41.537  36.080   8.855
 8370POPC   GL237274  41.681  36.203   8.855
 8370POPC   C1A37275  41.585  36.169   8.555
 8370POPC   D2A37276  41.563  36.101   8.255
 8370POPC   C3A37277  41.525  36.151   7.955
 8370POPC   C4A37278  41.517  36.156   7.655
 8370POPC   C1B37279  41.778  36.301   8.555
 8370POPC   C2B37280  41.703  36.268   8.255
 8370POPC   C3B37281  41.748  36.301   7.955
 8370POPC   C4B37282  41.709  36.287   7.655
 8371POPC   NC337283  25.216  24.444   9.455
 8371POPC   PO437284  25.271  24.488   9.155
 8371POPC   GL137285  25.287  24.448   8.855
 8371POPC   GL237286  25.139  24.587   8.855
 8371POPC   C1A37287  25.243  24.501   8.555
 8371POPC   D2A37288  25.301  24.488   8.255
 8371POPC   C3A37289  25.307  24.467   7.955
 8371POPC   C4A37290  25.295  24.457   7.655
 8371POPC   C1B37291  25.103  24.699   8.555
 8371POPC   C2B37292  25.111  24.666   8.255
 8371POPC   C3B37293  25.055  24.682   7.955
 8371POPC   C4B37294  25.050  24.626   7.655
 8372POPC   NC337295  33.756   5.864   9.455
 8372POPC   PO437296  33.786   5.891   9.155
 8372POPC   GL137297  33.816   5.824   8.855
 8372POPC   GL237298  33.779   5.701   8.855
 8372POPC   C1A37299  33.760   5.853   8.555
 8372POPC   D2A37300  33.773   5.839   8.255
 8372POPC   C3A37301  33.785   5.904   7.955
 8372POPC   C4A37302  33.767   5.883   7.655
 8372POPC   C1B37303  33.755   5.628   8.555
 8372POPC   C2B37304  33.730   5.571   8.255
 8372POPC   C3B37305  33.774   5.658   7.955
 8372POPC   C4B37306  33.793   5.656   7.655
 8373POPC   NC337307  43.863  12.871   9.455
 8373POPC   PO437308  43.926  12.820   9.155
 8373POPC   GL137309  43.842  12.838   8.855
 8373POPC   GL237310  43.981  12.837   8.855
 8373POPC   C1A37311  43.922  12.807   8.555
 8373POPC   D2A37312  43.868  12.812   8.255
 8373POPC   C3A37313  43.905  12.875   7.955
 8373POPC   C4A37314  43.842  12.883   7.655
 8373POPC   C1B37315  44.119  12.817   8.555
 8373POPC   C2B37316  44.152  12.787   8.255
 8373POPC   C3B37317  44.168  12.813   7.955
 8373POPC   C4B37318  44.082  12.788   7.655
 8374POPC   NC337319  22.159  30.699   9.455
 8374POPC   PO437320  22.163  30.712   9.155
 8374POPC   GL137321  22.211  30.697   8.855
 8374POPC   GL237322  22.072  30.560   8.855
 8374POPC   C1A37323  22.127  30.714   8.555
 8374POPC   D2A37324  22.163  30.713   8.255
 8374POPC   C3A37325  22.128  30.664   7.955
 8374POPC   C4A37326  22.125  30.666   7.655
 8374POPC   C1B37327  21.975  30.455   8.555
 8374POPC   C2B37328  22.026  30.511   8.255
 8374POPC   C3B37329  22.000  30.534   7.955
 8374POPC   C4B37330  22.030  30.493   7.655
 8375POPC   NC337331   8.978  26.809   9.455
 8375POPC   PO437332   8.963  26.799   9.155
 8375POPC   GL137333   8.986  26.835   8.855
 8375POPC   GL237334   9.043  26.867   8.855
 8375POPC   C1A37335   8.986  26.847   8.555
 8375POPC   D2A37336   9.014  26.805   8.255
 8375POPC   C3A37337   8.971  26.797   7.955
 8375POPC   C4A37338   8.993  26.816   7.655
 8375POPC   C1B37339   9.218  26.895   8.555
 8375POPC   C2B37340   9.190  26.909   8.255
 8375POPC   C3B37341   9.225  26.960   7.955
 8375POPC   C4B37342   9.212  26.945   7.655
 8376POPC   NC337343  12.050  28.350   9.455
 8376POPC   PO437344  12.042  28.394   9.155
 8376POPC   GL137345  12.058  28.375   8.855
 8376POPC   GL237346  11.984  28.303   8.855
 8376POPC   C1A37347  12.062  28.406   8.555
 8376POPC   D2A37348  12.073  28.369   8.255
 8376POPC   C3A37349  12.079  28.415   7.955
 8376POPC   C4A37350  12.029  28.395   7.655
 8376POPC   C1B37351  11.916  28.222   8.555
 8376POPC   C2B37352  11.924  28.184   8.255
 8376POPC   C3B37353  11.841  28.241   7.955
 8376POPC   C4B37354  11.901  28.237   7.655
 8377POPC   NC337355  22.174  40.824   9.455
 8377POPC   PO437356  22.165  40.760   9.155
 8377POPC   GL137357  22.196  40.803   8.855
 8377POPC   GL237358  22.067  40.854   8.855
 8377POPC   C1A37359  22.159  40.806   8.555
 8377POPC   D2A37360  22.115  40.825   8.255
 8377POPC   C3A37361  22.179  40.777   7.955
 8377POPC   C4A37362  22.207  40.815   7.655
 8377POPC   C1B37363  22.022  41.011   8.555
 8377POPC   C2B37364  21.981  41.029   8.255
 8377POPC   C3B37365  21.993  41.031   7.955
 8377POPC   C4B37366  22.009  40.972   7.655
 8378POPC   NC337367  41.582   1.196   9.455
 8378POPC   PO437368  41.560   1.261   9.155
 8378POPC   GL137369  41.560   1.196   8.855
 8378POPC   GL237370  41.695   1.241   8.855
 8378POPC   C1A37371  41.570   1.234   8.555
 8378POPC   D2A37372  41.560   1.189   8.255
 8378POPC   C3A37373  41.604   1.199   7.955
 8378POPC   C4A37374  41.547   1.213   7.655
 8378POPC   C1B37375  41.784   1.274   8.555
 8378POPC   C2B37376  41.759   1.211   8.255
 8378POPC   C3B37377  41.852   1.194   7.955
 8378POPC   C4B37378  41.809   1.204   7.655
 8379POPC   NC337379  10.477  27.581   9.455
 8379POPC   PO437380  10.513  27.587   9.155
 8379POPC   GL137381  10.503  27.634   8.855
 8379POPC   GL237382  10.438  27.488   8.855
 8379POPC   C1A37383  10.563  27.583   8.555
 8379POPC   D2A37384  10.562  27.578   8.255
 8379POPC   C3A37385  10.559  27.550   7.955
 8379POPC   C4A37386  10.554  27.574   7.655
 8379POPC   C1B37387  10.288  27.476   8.555
 8379POPC   C2B37388  10.358  27.414   8.255
 8379POPC   C3B37389  10.310  27.401   7.955
 8379POPC   C4B37390  10.302  27.433   7.655
 8380POPC   NC337391  36.862  37.700   9.455
 8380POPC   PO437392  36.949  37.725   9.155
 8380POPC   GL137393  36.896  37.721   8.855
 8380POPC   GL237394  36.926  37.764   8.855
 8380POPC   C1A37395  36.936  37.697   8.555
 8380POPC   D2A37396  36.858  37.668   8.255
 8380POPC   C3A37397  36.880  37.633   7.955
 8380POPC   C4A37398  36.934  37.635   7.655
 8380POPC   C1B37399  36.910  37.933   8.555
 8380POPC   C2B37400  36.845  37.948   8.255
 8380POPC   C3B37401  36.846  37.971   7.955
 8380POPC   C4B37402  36.897  37.932   7.655
 8381POPC   NC337403  40.796  22.928   9.455
 8381POPC   PO437404  40.779  22.900   9.155
 8381POPC   GL137405  40.745  22.973   8.855
 8381POPC   GL237406  40.818  22.801   8.855
 8381POPC   C1A37407  40.743  22.975   8.555
 8381POPC   D2A37408  40.769  22.940   8.255
 8381POPC   C3A37409  40.806  22.970   7.955
 8381POPC   C4A37410  40.758  22.966   7.655
 8381POPC   C1B37411  40.817  22.654   8.555
 8381POPC   C2B37412  40.794  22.662   8.255
 8381POPC   C3B37413  40.780  22.661   7.955
 8381POPC   C4B37414  40.753  22.720   7.655
 8382POPC   NC337415  40.782  43.113   9.455
 8382POPC   PO437416  40.740  43.155   9.155
 8382POPC   GL137417  40.747  43.109   8.855
 8382POPC   GL237418  40.795  43.001   8.855
 8382POPC   C1A37419  40.809  43.099   8.555
 8382POPC   D2A37420  40.735  43.102   8.255
 8382POPC   C3A37421  40.780  43.121   7.955
 8382POPC   C4A37422  40.770  43.071   7.655
 8382POPC   C1B37423  40.890  42.843   8.555
 8382POPC   C2B37424  40.836  42.900   8.255
 8382POPC   C3B37425  40.815  42.844   7.955
 8382POPC   C4B37426  40.866  42.915   7.655
 8383POPC   NC337427  40.055  32.203   9.455
 8383POPC   PO437428  40.012  32.291   9.155
 8383POPC   GL137429  40.007  32.277   8.855
 8383POPC   GL237430  40.111  32.099   8.855
 8383POPC   C1A37431  39.989  32.250   8.555
 8383POPC   D2A37432  39.991  32.237   8.255
 8383POPC   C3A37433  39.986  32.272   7.955
 8383POPC   C4A37434  39.987  32.241   7.655
 8383POPC   C1B37435  40.175  31.995   8.555
 8383POPC   C2B37436  40.178  32.039   8.255
 8383POPC   C3B37437  40.177  32.070   7.955
 8383POPC   C4B37438  40.117  32.038   7.655
 8384POPC   NC337439   5.828  35.352   9.455
 8384POPC   PO437440   5.896  35.365   9.155
 8384POPC   GL137441   5.895  35.360   8.855
 8384POPC   GL237442   5.880  35.241   8.855
 8384POPC   C1A37443   5.915  35.362   8.555
 8384POPC   D2A37444   5.915  35.310   8.255
 8384POPC   C3A37445   5.913  35.354   7.955
 8384POPC   C4A37446   5.874  35.349   7.655
 8384POPC   C1B37447   5.928  35.099   8.555
 8384POPC   C2B37448   5.919  35.138   8.255
 8384POPC   C3B37449   5.873  35.092   7.955
 8384POPC   C4B37450   5.901  35.133   7.655
 8385POPC   NC337451  13.670  16.697   9.455
 8385POPC   PO437452  13.596  16.683   9.155
 8385POPC   GL137453  13.624  16.718   8.855
 8385POPC   GL237454  13.775  16.747   8.855
 8385POPC   C1A37455  13.604  16.765   8.555
 8385POPC   D2A37456  13.590  16.726   8.255
 8385POPC   C3A37457  13.616  16.768   7.955
 8385POPC   C4A37458  13.589  16.699   7.655
 8385POPC   C1B37459  13.840  16.757   8.555
 8385POPC   C2B37460  13.846  16.774   8.255
 8385POPC   C3B37461  13.846  16.738   7.955
 8385POPC   C4B37462  13.906  16.708   7.655
 8386POPC   NC337463  16.740  22.123   9.455
 8386POPC   PO437464  16.737  22.147   9.155
 8386POPC   GL137465  16.701  22.147   8.855
 8386POPC   GL237466  16.806  22.136   8.855
 8386POPC   C1A37467  16.684  22.132   8.555
 8386POPC   D2A37468  16.757  22.163   8.255
 8386POPC   C3A37469  16.706  22.132   7.955
 8386POPC   C4A37470  16.732  22.200   7.655
 8386POPC   C1B37471  16.993  22.034   8.555
 8386POPC   C2B37472  16.920  22.047   8.255
 8386POPC   C3B37473  16.968  21.994   7.955
 8386POPC   C4B37474  16.920  22.070   7.655
 8387POPC   NC337475   2.036   4.331   9.455
 8387POPC   PO437476   2.020   4.315   9.155
 8387POPC   GL137477   2.004   4.272   8.855
 8387POPC   GL237478   1.936   4.225   8.855
 8387POPC   C1A37479   1.960   4.337   8.555
 8387POPC   D2A37480   1.945   4.338   8.255
 8387POPC   C3A37481   2.003   4.343   7.955
 8387POPC   C4A37482   2.003   4.333   7.655
 8387POPC   C1B37483   1.892   4.060   8.555
 8387POPC   C2B37484   1.914   4.040   8.255
 8387POPC   C3B37485   1.934   4.113   7.955
 8387POPC   C4B37486   1.945   4.034   7.655
 8388POPC   NC337487  27.581  14.387   9.455
 8388POPC   PO437488  27.599  14.437   9.155
 8388POPC   GL137489  27.561  14.385   8.855
 8388POPC   GL237490  27.740  14.475   8.855
 8388POPC   C1A37491  27.595  14.395   8.555
 8388POPC   D2A37492  27.607  14.368   8.255
 8388POPC   C3A37493  27.635  14.447   7.955
 8388POPC   C4A37494  27.624  14.410   7.655
 8388POPC   C1B37495  27.822  14.483   8.555
 8388POPC   C2B37496  27.761  14.533   8.255
 8388POPC   C3B37497  27.856  14.485   7.955
 8388POPC   C4B37498  27.800  14.484   7.655
 8389POPC   NC337499  33.012  26.832   9.455
 8389POPC   PO437500  33.054  26.827   9.155
 8389POPC   GL137501  33.056  26.843   8.855
 8389POPC   GL237502  33.112  26.863   8.855
 8389POPC   C1A37503  33.034  26.773   8.555
 8389POPC   D2A37504  33.051  26.785   8.255
 8389POPC   C3A37505  32.985  26.866   7.955
 8389POPC   C4A37506  33.041  26.864   7.655
 8389POPC   C1B37507  33.171  27.007   8.555
 8389POPC   C2B37508  33.229  26.989   8.255
 8389POPC   C3B37509  33.203  26.989   7.955
 8389POPC   C4B37510  33.183  27.005   7.655
 8390POPC   NC337511   8.951  20.604   9.455
 8390POPC   PO437512   8.937  20.574   9.155
 8390POPC   GL137513   8.997  20.621   8.855
 8390POPC   GL237514   8.894  20.718   8.855
 8390POPC   C1A37515   9.016  20.606   8.555
 8390POPC   D2A37516   8.923  20.603   8.255
 8390POPC   C3A37517   9.014  20.591   7.955
 8390POPC   C4A37518   8.996  20.612   7.655
 8390POPC   C1B37519   8.866  20.859   8.555
 8390POPC   C2B37520   8.854  20.860   8.255
 8390POPC   C3B37521   8.800  20.844   7.955
 8390POPC   C4B37522   8.784  20.830   7.655
 8391POPC   NC337523  22.211  41.547   9.455
 8391POPC   PO437524  22.168  41.549   9.155
 8391POPC   GL137525  22.151  41.594   8.855
 8391POPC   GL237526  22.100  41.717   8.855
 8391POPC   C1A37527  22.157  41.541   8.555
 8391POPC   D2A37528  22.168  41.509   8.255
 8391POPC   C3A37529  22.166  41.583   7.955
 8391POPC   C4A37530  22.146  41.514   7.655
 8391POPC   C1B37531  22.139  41.753   8.555
 8391POPC   C2B37532  22.102  41.838   8.255
 8391POPC   C3B37533  22.133  41.758   7.955
 8391POPC   C4B37534  22.071  41.752   7.655
 8392POPC   NC337535  29.183  32.220   9.455
 8392POPC   PO437536  29.187  32.285   9.155
 8392POPC   GL137537  29.194  32.264   8.855
 8392POPC   GL237538  29.280  32.369   8.855
 8392POPC   C1A37539  29.167  32.249   8.555
 8392POPC   D2A37540  29.123  32.233   8.255
 8392POPC   C3A37541  29.169  32.228   7.955
 8392POPC   C4A37542  29.097  32.246   7.655
 8392POPC   C1B37543  29.304  32.380   8.555
 8392POPC   C2B37544  29.295  32.374   8.255
 8392POPC   C3B37545  29.362  32.457   7.955
 8392POPC   C4B37546  29.356  32.447   7.655
 8393POPC   NC337547  33.038  22.160   9.455
 8393POPC   PO437548  33.042  22.187   9.155
 8393POPC   GL137549  32.983  22.185   8.855
 8393POPC   GL237550  32.952  22.248   8.855
 8393POPC   C1A37551  32.982  22.145   8.555
 8393POPC   D2A37552  33.051  22.139   8.255
 8393POPC   C3A37553  33.068  22.188   7.955
 8393POPC   C4A37554  33.051  22.164   7.655
 8393POPC   C1B37555  32.823  22.257   8.555
 8393POPC   C2B37556  32.787  22.272   8.255
 8393POPC   C3B37557  32.844  22.237   7.955
 8393POPC   C4B37558  32.777  22.227   7.655
 8394POPC   NC337559   3.514  40.784   9.455
 8394POPC   PO437560   3.560  40.734   9.155
 8394POPC   GL137561   3.537  40.761   8.855
 8394POPC   GL237562   3.405  40.749   8.855
 8394POPC   C1A37563   3.522  40.746   8.555
 8394POPC   D2A37564   3.562  40.764   8.255
 8394POPC   C3A37565   3.581  40.785   7.955
 8394POPC   C4A37566   3.521  40.751   7.655
 8394POPC   C1B37567   3.310  40.736   8.555
 8394POPC   C2B37568   3.282  40.686   8.255
 8394POPC   C3B37569   3.321  40.730   7.955
 8394POPC   C4B37570   3.292  40.697   7.655
 8395POPC   NC337571   1.196  15.909   9.455
 8395POPC   PO437572   1.188  15.970   9.155
 8395POPC   GL137573   1.251  15.906   8.855
 8395POPC   GL237574   1.210  15.813   8.855
 8395POPC   C1A37575   1.228  15.925   8.555
 8395POPC   D2A37576   1.236  15.929   8.255
 8395POPC   C3A37577   1.226  15.952   7.955
 8395POPC   C4A37578   1.240  15.934   7.655
 8395POPC   C1B37579   1.146  15.691   8.555
 8395POPC   C2B37580   1.152  15.670   8.255
 8395POPC   C3B37581   1.156  15.740   7.955
 8395POPC   C4B37582   1.108  15.722   7.655
 8396POPC   NC337583  44.645   5.078   9.455
 8396POPC   PO437584  44.639   5.069   9.155
 8396POPC   GL137585  44.651   5.091   8.855
 8396POPC   GL237586  44.543   4.998   8.855
 8396POPC   C1A37587  44.624   5.053   8.555
 8396POPC   D2A37588  44.648   5.101   8.255
 8396POPC   C3A37589  44.651   5.046   7.955
 8396POPC   C4A37590  44.700   5.113   7.655
 8396POPC   C1B37591  44.406   4.989   8.555
 8396POPC   C2B37592  44.462   4.981   8.255
 8396POPC   C3B37593  44.427   4.954   7.955
 8396POPC   C4B37594  44.480   4.943   7.655
 8397POPC   NC337595  36.896   9.762   9.455
 8397POPC   PO437596  36.944   9.742   9.155
 8397POPC   GL137597  36.902   9.754   8.855
 8397POPC   GL237598  36.744   9.770   8.855
 8397POPC   C1A37599  36.876   9.773   8.555
 8397POPC   D2A37600  36.859   9.770   8.255
 8397POPC   C3A37601  36.893   9.754   7.955
 8397POPC   C4A37602  36.881   9.715   7.655
 8397POPC   C1B37603  36.625   9.770   8.555
 8397POPC   C2B37604  36.696   9.775   8.255
 8397POPC   C3B37605  36.617   9.761   7.955
 8397POPC   C4B37606  36.659   9.734   7.655
 8398POPC   NC337607  29.101   7.428   9.455
 8398POPC   PO437608  29.109   7.406   9.155
 8398POPC   GL137609  29.149   7.378   8.855
 8398POPC   GL237610  29.262   7.498   8.855
 8398POPC   C1A37611  29.170   7.389   8.555
 8398POPC   D2A37612  29.144   7.438   8.255
 8398POPC   C3A37613  29.176   7.427   7.955
 8398POPC   C4A37614  29.102   7.424   7.655
 8398POPC   C1B37615  29.329   7.592   8.555
 8398POPC   C2B37616  29.372   7.557   8.255
 8398POPC   C3B37617  29.291   7.606   7.955
 8398POPC   C4B37618  29.359   7.590   7.655
 8399POPC   NC337619  12.857  24.513   9.455
 8399POPC   PO437620  12.882  24.448   9.155
 8399POPC   GL137621  12.891  24.463   8.855
 8399POPC   GL237622  12.742  24.535   8.855
 8399POPC   C1A37623  12.816  24.508   8.555
 8399POPC   D2A37624  12.883  24.520   8.255
 8399POPC   C3A37625  12.848  24.461   7.955
 8399POPC   C4A37626  12.849  24.443   7.655
 8399POPC   C1B37627  12.552  24.468   8.555
 8399POPC   C2B37628  12.579  24.453   8.255
 8399POPC   C3B37629  12.611  24.494   7.955
 8399POPC   C4B37630  12.602  24.486   7.655
 8400POPC   NC337631  13.611   5.125   9.455
 8400POPC   PO437632  13.613   5.110   9.155
 8400POPC   GL137633  13.636   5.112   8.855
 8400POPC   GL237634  13.466   5.133   8.855
 8400POPC   C1A37635  13.617   5.138   8.555
 8400POPC   D2A37636  13.592   5.130   8.255
 8400POPC   C3A37637  13.665   5.106   7.955
 8400POPC   C4A37638  13.638   5.082   7.655
 8400POPC   C1B37639  13.386   5.236   8.555
 8400POPC   C2B37640  13.372   5.149   8.255
 8400POPC   C3B37641  13.379   5.219   7.955
 8400POPC   C4B37642  13.386   5.150   7.655
 8401POPC   NC337643  29.885   5.073   9.455
 8401POPC   PO437644  29.871   5.122   9.155
 8401POPC   GL137645  29.874   5.056   8.855
 8401POPC   GL237646  29.789   5.187   8.855
 8401POPC   C1A37647  29.895   5.097   8.555
 8401POPC   D2A37648  29.950   5.121   8.255
 8401POPC   C3A37649  29.883   5.129   7.955
 8401POPC   C4A37650  29.913   5.046   7.655
 8401POPC   C1B37651  29.720   5.277   8.555
 8401POPC   C2B37652  29.790   5.283   8.255
 8401POPC   C3B37653  29.709   5.308   7.955
 8401POPC   C4B37654  29.738   5.235   7.655
 8402POPC   NC337655   6.661  36.886   9.455
 8402POPC   PO437656   6.644  36.911   9.155
 8402POPC   GL137657   6.596  36.926   8.855
 8402POPC   GL237658   6.566  36.817   8.855
 8402POPC   C1A37659   6.603  36.944   8.555
 8402POPC   D2A37660   6.610  36.854   8.255
 8402POPC   C3A37661   6.658  36.933   7.955
 8402POPC   C4A37662   6.640  36.870   7.655
 8402POPC   C1B37663   6.381  36.851   8.555
 8402POPC   C2B37664   6.374  36.821   8.255
 8402POPC   C3B37665   6.456  36.815   7.955
 8402POPC   C4B37666   6.431  36.821   7.655
 8403POPC   NC337667  16.693  18.242   9.455
 8403POPC   PO437668  16.696  18.243   9.155
 8403POPC   GL137669  16.749  18.270   8.855
 8403POPC   GL237670  16.788  18.145   8.855
 8403POPC   C1A37671  16.770  18.284   8.555
 8403POPC   D2A37672  16.694  18.321   8.255
 8403POPC   C3A37673  16.752  18.274   7.955
 8403POPC   C4A37674  16.683  18.266   7.655
 8403POPC   C1B37675  16.745  18.055   8.555
 8403POPC   C2B37676  16.753  18.078   8.255
 8403POPC   C3B37677  16.806  18.062   7.955
 8403POPC   C4B37678  16.772  18.066   7.655
 8404POPC   NC337679  31.508  19.087   9.455
 8404POPC   PO437680  31.495  19.055   9.155
 8404POPC   GL137681  31.518  19.059   8.855
 8404POPC   GL237682  31.366  19.089   8.855
 8404POPC   C1A37683  31.471  19.050   8.555
 8404POPC   D2A37684  31.474  19.010   8.255
 8404POPC   C3A37685  31.519  19.048   7.955
 8404POPC   C4A37686  31.485  19.056   7.655
 8404POPC   C1B37687  31.216  19.035   8.555
 8404POPC   C2B37688  31.212  19.013   8.255
 8404POPC   C3B37689  31.188  19.095   7.955
 8404POPC   C4B37690  31.184  19.064   7.655
 8405POPC   NC337691  30.723  40.056   9.455
 8405POPC   PO437692  30.703  40.009   9.155
 8405POPC   GL137693  30.744  39.965   8.855
 8405POPC   GL237694  30.677  40.112   8.855
 8405POPC   C1A37695  30.687  39.995   8.555
 8405POPC   D2A37696  30.656  39.987   8.255
 8405POPC   C3A37697  30.662  39.982   7.955
 8405POPC   C4A37698  30.654  40.020   7.655
 8405POPC   C1B37699  30.697  40.227   8.555
 8405POPC   C2B37700  30.630  40.205   8.255
 8405POPC   C3B37701  30.641  40.291   7.955
 8405POPC   C4B37702  30.633  40.266   7.655
 8406POPC   NC337703  19.789  18.273   9.455
 8406POPC   PO437704  19.824  18.297   9.155
 8406POPC   GL137705  19.787  18.324   8.855
 8406POPC   GL237706  19.966  18.271   8.855
 8406POPC   C1A37707  19.801  18.234   8.555
 8406POPC   D2A37708  19.819  18.328   8.255
 8406POPC   C3A37709  19.838  18.287   7.955
 8406POPC   C4A37710  19.810  18.244   7.655
 8406POPC   C1B37711  20.073  18.265   8.555
 8406POPC   C2B37712  20.033  18.276   8.255
 8406POPC   C3B37713  20.057  18.237   7.955
 8406POPC   C4B37714  20.083  18.231   7.655
 8407POPC   NC337715  13.598  17.473   9.455
 8407POPC   PO437716  13.623  17.470   9.155
 8407POPC   GL137717  13.643  17.476   8.855
 8407POPC   GL237718  13.701  17.646   8.855
 8407POPC   C1A37719  13.675  17.469   8.555
 8407POPC   D2A37720  13.617  17.500   8.255
 8407POPC   C3A37721  13.607  17.465   7.955
 8407POPC   C4A37722  13.677  17.476   7.655
 8407POPC   C1B37723  13.815  17.699   8.555
 8407POPC   C2B37724  13.775  17.725   8.255
 8407POPC   C3B37725  13.817  17.684   7.955
 8407POPC   C4B37726  13.783  17.671   7.655
 8408POPC   NC337727  25.310  20.627   9.455
 8408POPC   PO437728  25.296  20.594   9.155
 8408POPC   GL137729  25.241  20.607   8.855
 8408POPC   GL237730  25.146  20.596   8.855
 8408POPC   C1A37731  25.265  20.562   8.555
 8408POPC   D2A37732  25.281  20.612   8.255
 8408POPC   C3A37733  25.253  20.598   7.955
 8408POPC   C4A37734  25.239  20.639   7.655
 8408POPC   C1B37735  25.036  20.553   8.555
 8408POPC   C2B37736  25.059  20.546   8.255
 8408POPC   C3B37737  25.020  20.561   7.955
 8408POPC   C4B37738  24.983  20.575   7.655
 8409POPC   NC337739  27.610  43.117   9.455
 8409POPC   PO437740  27.607  43.061   9.155
 8409POPC   GL137741  27.546  43.148   8.855
 8409POPC   GL237742  27.582  42.998   8.855
 8409POPC   C1A37743  27.605  43.106   8.555
 8409POPC   D2A37744  27.599  43.085   8.255
 8409POPC   C3A37745  27.609  43.141   7.955
 8409POPC   C4A37746  27.552  43.135   7.655
 8409POPC   C1B37747  27.493  42.914   8.555
 8409POPC   C2B37748  27.535  42.856   8.255
 8409POPC   C3B37749  27.521  42.842   7.955
 8409POPC   C4B37750  27.509  42.880   7.655
 8410POPC   NC337751  37.699  40.785   9.455
 8410POPC   PO437752  37.631  40.820   9.155
 8410POPC   GL137753  37.652  40.807   8.855
 8410POPC   GL237754  37.609  40.637   8.855
 8410POPC   C1A37755  37.641  40.798   8.555
 8410POPC   D2A37756  37.716  40.774   8.255
 8410POPC   C3A37757  37.727  40.801   7.955
 8410POPC   C4A37758  37.631  40.750   7.655
 8410POPC   C1B37759  37.495  40.597   8.555
 8410POPC   C2B37760  37.509  40.588   8.255
 8410POPC   C3B37761  37.531  40.606   7.955
 8410POPC   C4B37762  37.510  40.612   7.655
 8411POPC   NC337763  20.590  24.501   9.455
 8411POPC   PO437764  20.621  24.485   9.155
 8411POPC   GL137765  20.619  24.445   8.855
 8411POPC   GL237766  20.572  24.405   8.855
 8411POPC   C1A37767  20.632  24.524   8.555
 8411POPC   D2A37768  20.580  24.528   8.255
 8411POPC   C3A37769  20.603  24.538   7.955
 8411POPC   C4A37770  20.568  24.515   7.655
 8411POPC   C1B37771  20.471  24.288   8.555
 8411POPC   C2B37772  20.464  24.318   8.255
 8411POPC   C3B37773  20.466  24.329   7.955
 8411POPC   C4B37774  20.507  24.239   7.655
 8412POPC   NC337775   3.508  39.250   9.455
 8412POPC   PO437776   3.554  39.203   9.155
 8412POPC   GL137777   3.572  39.240   8.855
 8412POPC   GL237778   3.509  39.097   8.855
 8412POPC   C1A37779   3.568  39.263   8.555
 8412POPC   D2A37780   3.530  39.189   8.255
 8412POPC   C3A37781   3.589  39.186   7.955
 8412POPC   C4A37782   3.532  39.257   7.655
 8412POPC   C1B37783   3.436  38.998   8.555
 8412POPC   C2B37784   3.447  39.021   8.255
 8412POPC   C3B37785   3.407  38.993   7.955
 8412POPC   C4B37786   3.438  39.021   7.655
 8413POPC   NC337787  19.043  36.124   9.455
 8413POPC   PO437788  19.076  36.135   9.155
 8413POPC   GL137789  19.097  36.137   8.855
 8413POPC   GL237790  18.991  36.214   8.855
 8413POPC   C1A37791  19.034  36.141   8.555
 8413POPC   D2A37792  19.054  36.109   8.255
 8413POPC   C3A37793  19.105  36.169   7.955
 8413POPC   C4A37794  19.095  36.105   7.655
 8413POPC   C1B37795  18.909  36.266   8.555
 8413POPC   C2B37796  18.882  36.314   8.255
 8413POPC   C3B37797  18.828  36.298   7.955
 8413POPC   C4B37798  18.847  36.283   7.655
 8414POPC   NC337799   4.356  41.568   9.455
 8414POPC   PO437800   4.280  41.527   9.155
 8414POPC   GL137801   4.361  41.591   8.855
 8414POPC   GL237802   4.416  41.601   8.855
 8414POPC   C1A37803   4.271  41.554   8.555
 8414POPC   D2A37804   4.313  41.524   8.255
 8414POPC   C3A37805   4.280  41.516   7.955
 8414POPC   C4A37806   4.293  41.576   7.655
 8414POPC   C1B37807   4.568  41.605   8.555
 8414POPC   C2B37808   4.569  41.601   8.255
 8414POPC   C3B37809   4.561  41.588   7.955
 8414POPC   C4B37810   4.589  41.623   7.655
 8415POPC   NC337811  33.074  43.094   5.555
 8415POPC   PO437812  32.981  43.130   5.855
 8415POPC   GL137813  32.979  43.152   6.155
 8415POPC   GL237814  32.988  43.248   6.155
 8415POPC   C1A37815  33.049  43.061   6.455
 8415POPC   D2A37816  33.019  43.127   6.755
 8415POPC   C3A37817  33.028  43.105   7.055
 8415POPC   C4A37818  33.008  43.110   7.355
 8415POPC   C1B37819  32.904  43.292   6.455
 8415POPC   C2B37820  32.894  43.291   6.755
 8415POPC   C3B37821  32.926  43.357   7.055
 8415POPC   C4B37822  32.910  43.267   7.355
 8416POPC   NC337823  17.522  34.594   5.555
 8416POPC   PO437824  17.488  34.583   5.855
 8416POPC   GL137825  17.524  34.547   6.155
 8416POPC   GL237826  17.377  34.665   6.155
 8416POPC   C1A37827  17.545  34.543   6.455
 8416POPC   D2A37828  17.493  34.544   6.755
 8416POPC   C3A37829  17.541  34.601   7.055
 8416POPC   C4A37830  17.513  34.612   7.355
 8416POPC   C1B37831  17.327  34.663   6.455
 8416POPC   C2B37832  17.257  34.739   6.755
 8416POPC   C3B37833  17.313  34.695   7.055
 8416POPC   C4B37834  17.266  34.647   7.355
 8417POPC   NC337835  42.351  13.670   5.555
 8417POPC   PO437836  42.365  13.659   5.855
 8417POPC   GL137837  42.331  13.663   6.155
 8417POPC   GL237838  42.333  13.791   6.155
 8417POPC   C1A37839  42.327  13.618   6.455
 8417POPC   D2A37840  42.359  13.612   6.755
 8417POPC   C3A37841  42.288  13.674   7.055
 8417POPC   C4A37842  42.372  13.588   7.355
 8417POPC   C1B37843  42.312  13.897   6.455
 8417POPC   C2B37844  42.310  13.927   6.755
 8417POPC   C3B37845  42.307  13.927   7.055
 8417POPC   C4B37846  42.373  13.909   7.355
 8418POPC   NC337847  17.477  41.575   5.555
 8418POPC   PO437848  17.469  41.541   5.855
 8418POPC   GL137849  17.478  41.595   6.155
 8418POPC   GL237850  17.640  41.532   6.155
 8418POPC   C1A37851  17.467  41.581   6.455
 8418POPC   D2A37852  17.494  41.593   6.755
 8418POPC   C3A37853  17.499  41.560   7.055
 8418POPC   C4A37854  17.501  41.549   7.355
 8418POPC   C1B37855  17.696  41.425   6.455
 8418POPC   C2B37856  17.702  41.406   6.755
 8418POPC   C3B37857  17.726  41.420   7.055
 8418POPC   C4B37858  17.694  41.387   7.355
 8419POPC   NC337859   7.379  40.778   5.555
 8419POPC   PO437860   7.436  40.783   5.855
 8419POPC   GL137861   7.410  40.761   6.155
 8419POPC   GL237862   7.328  40.792   6.155
 8419POPC   C1A37863   7.413  40.784   6.455
 8419POPC   D2A37864   7.459  40.831   6.755
 8419POPC   C3A37865   7.417  40.786   7.055
 8419POPC   C4A37866   7.455  40.736   7.355
 8419POPC   C1B37867   7.186  40.688   6.455
 8419POPC   C2B37868   7.196  40.687   6.755
 8419POPC   C3B37869   7.183  40.670   7.055
 8419POPC   C4B37870   7.149  40.660   7.355
 8420POPC   NC337871  43.860  39.263   5.555
 8420POPC   PO437872  43.847  39.201   5.855
 8420POPC   GL137873  43.936  39.183   6.155
 8420POPC   GL237874  43.763  39.123   6.155
 8420POPC   C1A37875  43.898  39.220   6.455
 8420POPC   D2A37876  43.842  39.251   6.755
 8420POPC   C3A37877  43.927  39.259   7.055
 8420POPC   C4A37878  43.837  39.207   7.355
 8420POPC   C1B37879  43.653  39.113   6.455
 8420POPC   C2B37880  43.675  39.110   6.755
 8420POPC   C3B37881  43.655  39.100   7.055
 8420POPC   C4B37882  43.682  39.078   7.355
 8421POPC   NC337883  16.723  10.542   5.555
 8421POPC   PO437884  16.748  10.529   5.855
 8421POPC   GL137885  16.753  10.507   6.155
 8421POPC   GL237886  16.771  10.644   6.155
 8421POPC   C1A37887  16.781  10.531   6.455
 8421POPC   D2A37888  16.760  10.555   6.755
 8421POPC   C3A37889  16.715  10.527   7.055
 8421POPC   C4A37890  16.729  10.557   7.355
 8421POPC   C1B37891  16.790  10.753   6.455
 8421POPC   C2B37892  16.763  10.807   6.755
 8421POPC   C3B37893  16.844  10.749   7.055
 8421POPC   C4B37894  16.836  10.723   7.355
 8422POPC   NC337895  40.026  34.600   5.555
 8422POPC   PO437896  40.028  34.571   5.855
 8422POPC   GL137897  39.994  34.590   6.155
 8422POPC   GL237898  39.940  34.671   6.155
 8422POPC   C1A37899  40.002  34.567   6.455
 8422POPC   D2A37900  40.001  34.571   6.755
 8422POPC   C3A37901  39.963  34.592   7.055
 8422POPC   C4A37902  39.959  34.530   7.355
 8422POPC   C1B37903  39.836  34.779   6.455
 8422POPC   C2B37904  39.842  34.744   6.755
 8422POPC   C3B37905  39.893  34.819   7.055
 8422POPC   C4B37906  39.867  34.742   7.355
 8423POPC   NC337907  21.345  38.458   5.555
 8423POPC   PO437908  21.367  38.470   5.855
 8423POPC   GL137909  21.358  38.424   6.155
 8423POPC   GL237910  21.435  38.326   6.155
 8423POPC   C1A37911  21.425  38.477   6.455
 8423POPC   D2A37912  21.343  38.481   6.755
 8423POPC   C3A37913  21.430  38.415   7.055
 8423POPC   C4A37914  21.407  38.473   7.355
 8423POPC   C1B37915  21.533  38.291   6.455
 8423POPC   C2B37916  21.552  38.217   6.755
 8423POPC   C3B37917  21.571  38.248   7.055
 8423POPC   C4B37918  21.495  38.213   7.355
 8424POPC   NC337919   8.929  11.313   5.555
 8424POPC   PO437920   8.954  11.286   5.855
 8424POPC   GL137921   9.022  11.302   6.155
 8424POPC   GL237922   8.901  11.425   6.155
 8424POPC   C1A37923   8.968  11.273   6.455
 8424POPC   D2A37924   9.018  11.336   6.755
 8424POPC   C3A37925   9.010  11.311   7.055
 8424POPC   C4A37926   9.022  11.313   7.355
 8424POPC   C1B37927   8.736  11.439   6.455
 8424POPC   C2B37928   8.731  11.420   6.755
 8424POPC   C3B37929   8.735  11.407   7.055
 8424POPC   C4B37930   8.786  11.460   7.355
 8425POPC   NC337931  22.906   3.580   5.555
 8425POPC   PO437932  22.923   3.591   5.855
 8425POPC   GL137933  22.897   3.568   6.155
 8425POPC   GL237934  22.774   3.555   6.155
 8425POPC   C1A37935  22.898   3.585   6.455
 8425POPC   D2A37936  22.945   3.506   6.755
 8425POPC   C3A37937  22.912   3.520   7.055
 8425POPC   C4A37938  22.908   3.523   7.355
 8425POPC   C1B37939  22.680   3.484   6.455
 8425POPC   C2B37940  22.673   3.534   6.755
 8425POPC   C3B37941  22.684   3.525   7.055
 8425POPC   C4B37942  22.659   3.482   7.355
 8426POPC   NC337943  10.508  36.088   5.555
 8426POPC   PO437944  10.478  36.140   5.855
 8426POPC   GL137945  10.513  36.160   6.155
 8426POPC   GL237946  10.511  35.968   6.155
 8426POPC   C1A37947  10.490  36.144   6.455
 8426POPC   D2A37948  10.569  36.162   6.755
 8426POPC   C3A37949  10.514  36.129   7.055
 8426POPC   C4A37950  10.492  36.132   7.355
 8426POPC   C1B37951  10.502  35.888   6.455
 8426POPC   C2B37952  10.510  35.850   6.755
 8426POPC   C3B37953  10.476  35.844   7.055
 8426POPC   C4B37954  10.487  35.865   7.355
 8427POPC   NC337955  16.768   3.573   5.555
 8427POPC   PO437956  16.773   3.514   5.855
 8427POPC   GL137957  16.772   3.537   6.155
 8427POPC   GL237958  16.732   3.435   6.155
 8427POPC   C1A37959  16.771   3.561   6.455
 8427POPC   D2A37960  16.768   3.563   6.755
 8427POPC   C3A37961  16.707   3.492   7.055
 8427POPC   C4A37962  16.699   3.513   7.355
 8427POPC   C1B37963  16.708   3.336   6.455
 8427POPC   C2B37964  16.668   3.273   6.755
 8427POPC   C3B37965  16.721   3.324   7.055
 8427POPC   C4B37966  16.667   3.281   7.355
 8428POPC   NC337967  30.691  43.158   5.555
 8428POPC   PO437968  30.653  43.148   5.855
 8428POPC   GL137969  30.698  43.099   6.155
 8428POPC   GL237970  30.764  43.083   6.155
 8428POPC   C1A37971  30.730  43.139   6.455
 8428POPC   D2A37972  30.677  43.125   6.755
 8428POPC   C3A37973  30.649  43.118   7.055
 8428POPC   C4A37974  30.723  43.076   7.355
 8428POPC   C1B37975  30.917  42.945   6.455
 8428POPC   C2B37976  30.910  42.968   6.755
 8428POPC   C3B37977  30.896  42.998   7.055
 8428POPC   C4B37978  30.911  43.039   7.355
 8429POPC   NC337979  14.391   0.463   5.555
 8429POPC   PO437980  14.394   0.400   5.855
 8429POPC   GL137981  14.381   0.466   6.155
 8429POPC   GL237982  14.252   0.407   6.155
 8429POPC   C1A37983  14.374   0.441   6.455
 8429POPC   D2A37984  14.430   0.429   6.755
 8429POPC   C3A37985  14.414   0.397   7.055
 8429POPC   C4A37986  14.390   0.476   7.355
 8429POPC   C1B37987  14.137   0.394   6.455
 8429POPC   C2B37988  14.132   0.338   6.755
 8429POPC   C3B37989  14.202   0.371   7.055
 8429POPC   C4B37990  14.185   0.345   7.355
 8430POPC   NC337991   9.710  42.308   5.555
 8430POPC   PO437992   9.767  42.359   5.855
 8430POPC   GL137993   9.794  42.317   6.155
 8430POPC   GL237994   9.737  42.241   6.155
 8430POPC   C1A37995   9.739  42.302   6.455
 8430POPC   D2A37996   9.780  42.319   6.755
 8430POPC   C3A37997   9.772  42.297   7.055
 8430POPC   C4A37998   9.702  42.334   7.355
 8430POPC   C1B37999   9.833  42.079   6.455
 8430POPC   C2B38000   9.781  42.100   6.755
 8430POPC   C3B38001   9.801  42.142   7.055
 8430POPC   C4B38002   9.860  42.072   7.355
 8431POPC   NC338003  12.873   4.362   5.555
 8431POPC   PO438004  12.814   4.360   5.855
 8431POPC   GL138005  12.874   4.289   6.155
 8431POPC   GL238006  12.947   4.356   6.155
 8431POPC   C1A38007  12.845   4.304   6.455
 8431POPC   D2A38008  12.822   4.312   6.755
 8431POPC   C3A38009  12.806   4.336   7.055
 8431POPC   C4A38010  12.811   4.339   7.355
 8431POPC   C1B38011  13.123   4.395   6.455
 8431POPC   C2B38012  13.069   4.396   6.755
 8431POPC   C3B38013  13.138   4.330   7.055
 8431POPC   C4B38014  13.073   4.371   7.355
 8432POPC   NC338015  25.229   9.782   5.555
 8432POPC   PO438016  25.239   9.750   5.855
 8432POPC   GL138017  25.264   9.797   6.155
 8432POPC   GL238018  25.228   9.907   6.155
 8432POPC   C1A38019  25.280   9.771   6.455
 8432POPC   D2A38020  25.309   9.786   6.755
 8432POPC   C3A38021  25.221   9.775   7.055
 8432POPC   C4A38022  25.308   9.708   7.355
 8432POPC   C1B38023  25.192   9.969   6.455
 8432POPC   C2B38024  25.188   9.968   6.755
 8432POPC   C3B38025  25.182   9.966   7.055
 8432POPC   C4B38026  25.208   9.968   7.355
 8433POPC   NC338027   3.591  22.135   5.555
 8433POPC   PO438028   3.544  22.152   5.855
 8433POPC   GL138029   3.505  22.151   6.155
 8433POPC   GL238030   3.413  22.134   6.155
 8433POPC   C1A38031   3.586  22.158   6.455
 8433POPC   D2A38032   3.498  22.149   6.755
 8433POPC   C3A38033   3.566  22.202   7.055
 8433POPC   C4A38034   3.505  22.140   7.355
 8433POPC   C1B38035   3.361  22.044   6.455
 8433POPC   C2B38036   3.306  22.060   6.755
 8433POPC   C3B38037   3.299  22.018   7.055
 8433POPC   C4B38038   3.321  22.056   7.355
 8434POPC   NC338039  35.333  29.114   5.555
 8434POPC   PO438040  35.313  29.165   5.855
 8434POPC   GL138041  35.324  29.127   6.155
 8434POPC   GL238042  35.308  29.005   6.155
 8434POPC   C1A38043  35.353  29.132   6.455
 8434POPC   D2A38044  35.317  29.105   6.755
 8434POPC   C3A38045  35.399  29.188   7.055
 8434POPC   C4A38046  35.348  29.190   7.355
 8434POPC   C1B38047  35.406  28.936   6.455
 8434POPC   C2B38048  35.365  28.937   6.755
 8434POPC   C3B38049  35.349  28.906   7.055
 8434POPC   C4B38050  35.372  28.945   7.355
 8435POPC   NC338051   8.217  38.442   5.555
 8435POPC   PO438052   8.195  38.504   5.855
 8435POPC   GL138053   8.223  38.467   6.155
 8435POPC   GL238054   8.289  38.541   6.155
 8435POPC   C1A38055   8.192  38.416   6.455
 8435POPC   D2A38056   8.243  38.500   6.755
 8435POPC   C3A38057   8.196  38.420   7.055
 8435POPC   C4A38058   8.233  38.478   7.355
 8435POPC   C1B38059   8.365  38.630   6.455
 8435POPC   C2B38060   8.365  38.630   6.755
 8435POPC   C3B38061   8.416  38.575   7.055
 8435POPC   C4B38062   8.433  38.584   7.355
 8436POPC   NC338063  25.299  22.949   5.555
 8436POPC   PO438064  25.232  22.902   5.855
 8436POPC   GL138065  25.264  22.906   6.155
 8436POPC   GL238066  25.412  22.869   6.155
 8436POPC   C1A38067  25.296  22.938   6.455
 8436POPC   D2A38068  25.243  22.919   6.755
 8436POPC   C3A38069  25.308  22.974   7.055
 8436POPC   C4A38070  25.237  22.964   7.355
 8436POPC   C1B38071  25.539  22.859   6.455
 8436POPC   C2B38072  25.522  22.936   6.755
 8436POPC   C3B38073  25.492  22.899   7.055
 8436POPC   C4B38074  25.465  22.881   7.355
 8437POPC   NC338075  30.707  42.360   5.555
 8437POPC   PO438076  30.676  42.314   5.855
 8437POPC   GL138077  30.651  42.356   6.155
 8437POPC   GL238078  30.862  42.346   6.155
 8437POPC   C1A38079  30.662  42.370   6.455
 8437POPC   D2A38080  30.738  42.353   6.755
 8437POPC   C3A38081  30.660  42.308   7.055
 8437POPC   C4A38082  30.669  42.332   7.355
 8437POPC   C1B38083  30.968  42.401   6.455
 8437POPC   C2B38084  30.971  42.433   6.755
 8437POPC   C3B38085  30.904  42.420   7.055
 8437POPC   C4B38086  30.974  42.429   7.355
 8438POPC   NC338087  16.771  11.288   5.555
 8438POPC   PO438088  16.682  11.316   5.855
 8438POPC   GL138089  16.687  11.347   6.155
 8438POPC   GL238090  16.708  11.411   6.155
 8438POPC   C1A38091  16.768  11.303   6.455
 8438POPC   D2A38092  16.767  11.291   6.755
 8438POPC   C3A38093  16.740  11.291   7.055
 8438POPC   C4A38094  16.717  11.295   7.355
 8438POPC   C1B38095  16.785  11.568   6.455
 8438POPC   C2B38096  16.792  11.544   6.755
 8438POPC   C3B38097  16.789  11.506   7.055
 8438POPC   C4B38098  16.782  11.556   7.355
 8439POPC   NC338099  32.239  41.551   5.555
 8439POPC   PO438100  32.252  41.510   5.855
 8439POPC   GL138101  32.215  41.536   6.155
 8439POPC   GL238102  32.406  41.497   6.155
 8439POPC   C1A38103  32.253  41.553   6.455
 8439POPC   D2A38104  32.261  41.585   6.755
 8439POPC   C3A38105  32.266  41.552   7.055
 8439POPC   C4A38106  32.220  41.541   7.355
 8439POPC   C1B38107  32.447  41.450   6.455
 8439POPC   C2B38108  32.511  41.509   6.755
 8439POPC   C3B38109  32.495  41.455   7.055
 8439POPC   C4B38110  32.475  41.448   7.355
 8440POPC   NC338111  18.281  26.061   5.555
 8440POPC   PO438112  18.246  26.061   5.855
 8440POPC   GL138113  18.290  26.056   6.155
 8440POPC   GL238114  18.218  25.974   6.155
 8440POPC   C1A38115  18.272  26.062   6.455
 8440POPC   D2A38116  18.278  26.085   6.755
 8440POPC   C3A38117  18.266  26.039   7.055
 8440POPC   C4A38118  18.280  26.012   7.355
 8440POPC   C1B38119  18.050  25.958   6.455
 8440POPC   C2B38120  18.023  25.882   6.755
 8440POPC   C3B38121  18.033  25.904   7.055
 8440POPC   C4B38122  18.043  25.892   7.355
 8441POPC   NC338123  23.690  35.364   5.555
 8441POPC   PO438124  23.752  35.307   5.855
 8441POPC   GL138125  23.701  35.350   6.155
 8441POPC   GL238126  23.867  35.391   6.155
 8441POPC   C1A38127  23.709  35.329   6.455
 8441POPC   D2A38128  23.706  35.311   6.755
 8441POPC   C3A38129  23.729  35.353   7.055
 8441POPC   C4A38130  23.681  35.353   7.355
 8441POPC   C1B38131  23.974  35.402   6.455
 8441POPC   C2B38132  23.996  35.423   6.755
 8441POPC   C3B38133  23.997  35.411   7.055
 8441POPC   C4B38134  23.991  35.420   7.355
 8442POPC   NC338135  20.608   7.445   5.555
 8442POPC   PO438136  20.650   7.446   5.855
 8442POPC   GL138137  20.656   7.396   6.155
 8442POPC   GL238138  20.444   7.385   6.155
 8442POPC   C1A38139  20.645   7.438   6.455
 8442POPC   D2A38140  20.612   7.446   6.755
 8442POPC   C3A38141  20.654   7.372   7.055
 8442POPC   C4A38142  20.600   7.440   7.355
 8442POPC   C1B38143  20.338   7.415   6.455
 8442POPC   C2B38144  20.410   7.410   6.755
 8442POPC   C3B38145  20.369   7.328   7.055
 8442POPC   C4B38146  20.377   7.394   7.355
 8443POPC   NC338147  35.377  22.899   5.555
 8443POPC   PO438148  35.329  22.957   5.855
 8443POPC   GL138149  35.329  22.895   6.155
 8443POPC   GL238150  35.415  22.800   6.155
 8443POPC   C1A38151  35.338  22.979   6.455
 8443POPC   D2A38152  35.376  22.967   6.755
 8443POPC   C3A38153  35.316  22.895   7.055
 8443POPC   C4A38154  35.312  22.964   7.355
 8443POPC   C1B38155  35.398  22.737   6.455
 8443POPC   C2B38156  35.426  22.642   6.755
 8443POPC   C3B38157  35.415  22.642   7.055
 8443POPC   C4B38158  35.351  22.732   7.355
 8444POPC   NC338159   1.249   8.968   5.555
 8444POPC   PO438160   1.204   9.021   5.855
 8444POPC   GL138161   1.244   8.993   6.155
 8444POPC   GL238162   1.169   9.016   6.155
 8444POPC   C1A38163   1.263   8.993   6.455
 8444POPC   D2A38164   1.166   8.926   6.755
 8444POPC   C3A38165   1.233   8.931   7.055
 8444POPC   C4A38166   1.174   8.983   7.355
 8444POPC   C1B38167   1.077   9.131   6.455
 8444POPC   C2B38168   1.074   9.163   6.755
 8444POPC   C3B38169   1.050   9.105   7.055
 8444POPC   C4B38170   1.007   9.154   7.355
 8445POPC   NC338171  12.096  37.642   5.555
 8445POPC   PO438172  12.073  37.685   5.855
 8445POPC   GL138173  12.028  37.671   6.155
 8445POPC   GL238174  12.175  37.679   6.155
 8445POPC   C1A38175  12.123  37.650   6.455
 8445POPC   D2A38176  12.060  37.660   6.755
 8445POPC   C3A38177  12.064  37.723   7.055
 8445POPC   C4A38178  12.037  37.695   7.355
 8445POPC   C1B38179  12.272  37.706   6.455
 8445POPC   C2B38180  12.321  37.758   6.755
 8445POPC   C3B38181  12.339  37.760   7.055
 8445POPC   C4B38182  12.273  37.699   7.355
 8446POPC   NC338183  40.802  33.831   5.555
 8446POPC   PO438184  40.786  33.793   5.855
 8446POPC   GL138185  40.758  33.795   6.155
 8446POPC   GL238186  40.863  33.753   6.155
 8446POPC   C1A38187  40.789  33.800   6.455
 8446POPC   D2A38188  40.826  33.789   6.755
 8446POPC   C3A38189  40.800  33.753   7.055
 8446POPC   C4A38190  40.768  33.751   7.355
 8446POPC   C1B38191  40.974  33.752   6.455
 8446POPC   C2B38192  41.063  33.747   6.755
 8446POPC   C3B38193  41.010  33.697   7.055
 8446POPC   C4B38194  41.031  33.692   7.355
 8447POPC   NC338195  29.872  17.499   5.555
 8447POPC   PO438196  29.960  17.504   5.855
 8447POPC   GL138197  29.921  17.534   6.155
 8447POPC   GL238198  29.860  17.577   6.155
 8447POPC   C1A38199  29.872  17.494   6.455
 8447POPC   D2A38200  29.969  17.493   6.755
 8447POPC   C3A38201  29.935  17.497   7.055
 8447POPC   C4A38202  29.903  17.531   7.355
 8447POPC   C1B38203  29.806  17.725   6.455
 8447POPC   C2B38204  29.845  17.731   6.755
 8447POPC   C3B38205  29.806  17.795   7.055
 8447POPC   C4B38206  29.820  17.745   7.355
 8448POPC   NC338207  29.904  40.773   5.555
 8448POPC   PO438208  29.875  40.812   5.855
 8448POPC   GL138209  29.902  40.770   6.155
 8448POPC   GL238210  29.840  40.733   6.155
 8448POPC   C1A38211  29.940  40.787   6.455
 8448POPC   D2A38212  29.940  40.813   6.755
 8448POPC   C3A38213  29.890  40.735   7.055
 8448POPC   C4A38214  29.944  40.785   7.355
 8448POPC   C1B38215  29.672  40.697   6.455
 8448POPC   C2B38216  29.703  40.636   6.755
 8448POPC   C3B38217  29.740  40.663   7.055
 8448POPC   C4B38218  29.721  40.727   7.355
 8449POPC   NC338219  43.151  12.833   5.555
 8449POPC   PO438220  43.072  12.839   5.855
 8449POPC   GL138221  43.139  12.805   6.155
 8449POPC   GL238222  42.970  12.856   6.155
 8449POPC   C1A38223  43.068  12.821   6.455
 8449POPC   D2A38224  43.143  12.891   6.755
 8449POPC   C3A38225  43.100  12.886   7.055
 8449POPC   C4A38226  43.098  12.869   7.355
 8449POPC   C1B38227  42.864  12.934   6.455
 8449POPC   C2B38228  42.890  12.961   6.755
 8449POPC   C3B38229  42.877  12.980   7.055
 8449POPC   C4B38230  42.904  12.902   7.355
 8450POPC   NC338231  29.874   1.224   5.555
 8450POPC   PO438232  29.953   1.191   5.855
 8450POPC   GL138233  29.923   1.244   6.155
 8450POPC   GL238234  29.824   1.165   6.155
 8450POPC   C1A38235  29.957   1.238   6.455
 8450POPC   D2A38236  29.914   1.263   6.755
 8450POPC   C3A38237  29.959   1.259   7.055
 8450POPC   C4A38238  29.882   1.249   7.355
 8450POPC   C1B38239  29.680   1.087   6.455
 8450POPC   C2B38240  29.731   1.105   6.755
 8450POPC   C3B38241  29.692   1.096   7.055
 8450POPC   C4B38242  29.718   1.119   7.355
 8451POPC   NC338243  13.638   1.198   5.555
 8451POPC   PO438244  13.659   1.230   5.855
 8451POPC   GL138245  13.640   1.240   6.155
 8451POPC   GL238246  13.582   1.316   6.155
 8451POPC   C1A38247  13.590   1.249   6.455
 8451POPC   D2A38248  13.653   1.195   6.755
 8451POPC   C3A38249  13.590   1.204   7.055
 8451POPC   C4A38250  13.648   1.185   7.355
 8451POPC   C1B38251  13.500   1.414   6.455
 8451POPC   C2B38252  13.492   1.484   6.755
 8451POPC   C3B38253  13.555   1.396   7.055
 8451POPC   C4B38254  13.523   1.431   7.355
 8452POPC   NC338255  22.937  39.269   5.555
 8452POPC   PO438256  22.928  39.245   5.855
 8452POPC   GL138257  22.957  39.256   6.155
 8452POPC   GL238258  22.853  39.327   6.155
 8452POPC   C1A38259  22.910  39.189   6.455
 8452POPC   D2A38260  22.928  39.273   6.755
 8452POPC   C3A38261  22.973  39.265   7.055
 8452POPC   C4A38262  22.909  39.232   7.355
 8452POPC   C1B38263  22.737  39.385   6.455
 8452POPC   C2B38264  22.783  39.404   6.755
 8452POPC   C3B38265  22.758  39.404   7.055
 8452POPC   C4B38266  22.747  39.350   7.355
 8453POPC   NC338267  12.123  15.170   5.555
 8453POPC   PO438268  12.103  15.221   5.855
 8453POPC   GL138269  12.105  15.208   6.155
 8453POPC   GL238270  12.021  15.078   6.155
 8453POPC   C1A38271  12.075  15.191   6.455
 8453POPC   D2A38272  12.076  15.196   6.755
 8453POPC   C3A38273  12.089  15.191   7.055
 8453POPC   C4A38274  12.071  15.203   7.355
 8453POPC   C1B38275  11.912  14.994   6.455
 8453POPC   C2B38276  11.858  15.045   6.755
 8453POPC   C3B38277  11.914  15.062   7.055
 8453POPC   C4B38278  11.883  14.963   7.355
 8454POPC   NC338279  17.503  32.200   5.555
 8454POPC   PO438280  17.540  32.226   5.855
 8454POPC   GL138281  17.553  32.256   6.155
 8454POPC   GL238282  17.438  32.282   6.155
 8454POPC   C1A38283  17.477  32.296   6.455
 8454POPC   D2A38284  17.501  32.277   6.755
 8454POPC   C3A38285  17.516  32.295   7.055
 8454POPC   C4A38286  17.474  32.240   7.355
 8454POPC   C1B38287  17.250  32.294   6.455
 8454POPC   C2B38288  17.268  32.338   6.755
 8454POPC   C3B38289  17.275  32.361   7.055
 8454POPC   C4B38290  17.230  32.300   7.355
 8455POPC   NC338291  43.907  38.459   5.555
 8455POPC   PO438292  43.898  38.422   5.855
 8455POPC   GL138293  43.864  38.453   6.155
 8455POPC   GL238294  43.870  38.304   6.155
 8455POPC   C1A38295  43.877  38.454   6.455
 8455POPC   D2A38296  43.921  38.423   6.755
 8455POPC   C3A38297  43.892  38.438   7.055
 8455POPC   C4A38298  43.858  38.411   7.355
 8455POPC   C1B38299  43.948  38.200   6.455
 8455POPC   C2B38300  43.968  38.161   6.755
 8455POPC   C3B38301  43.895  38.186   7.055
 8455POPC   C4B38302  43.951  38.172   7.355
 8456POPC   NC338303  34.552   1.179   5.555
 8456POPC   PO438304  34.542   1.254   5.855
 8456POPC   GL138305  34.545   1.188   6.155
 8456POPC   GL238306  34.581   1.374   6.155
 8456POPC   C1A38307  34.537   1.259   6.455
 8456POPC   D2A38308  34.582   1.207   6.755
 8456POPC   C3A38309  34.534   1.170   7.055
 8456POPC   C4A38310  34.545   1.175   7.355
 8456POPC   C1B38311  34.564   1.487   6.455
 8456POPC   C2B38312  34.609   1.427   6.755
 8456POPC   C3B38313  34.571   1.499   7.055
 8456POPC   C4B38314  34.639   1.447   7.355
 8457POPC   NC338315  28.329  15.932   5.555
 8457POPC   PO438316  28.336  15.948   5.855
 8457POPC   GL138317  28.343  15.934   6.155
 8457POPC   GL238318  28.481  15.901   6.155
 8457POPC   C1A38319  28.330  15.917   6.455
 8457POPC   D2A38320  28.411  15.942   6.755
 8457POPC   C3A38321  28.340  15.951   7.055
 8457POPC   C4A38322  28.401  15.982   7.355
 8457POPC   C1B38323  28.526  15.832   6.455
 8457POPC   C2B38324  28.542  15.824   6.755
 8457POPC   C3B38325  28.514  15.823   7.055
 8457POPC   C4B38326  28.596  15.771   7.355
 8458POPC   NC338327  12.040   1.946   5.555
 8458POPC   PO438328  12.063   2.005   5.855
 8458POPC   GL138329  12.049   1.987   6.155
 8458POPC   GL238330  12.172   1.933   6.155
 8458POPC   C1A38331  12.091   1.978   6.455
 8458POPC   D2A38332  12.072   1.950   6.755
 8458POPC   C3A38333  12.095   1.997   7.055
 8458POPC   C4A38334  12.122   1.942   7.355
 8458POPC   C1B38335  12.240   1.829   6.455
 8458POPC   C2B38336  12.302   1.828   6.755
 8458POPC   C3B38337  12.295   1.821   7.055
 8458POPC   C4B38338  12.335   1.851   7.355
 8459POPC   NC338339  12.064  44.661   5.555
 8459POPC   PO438340  12.032  44.663   5.855
 8459POPC   GL138341  12.068  44.676   6.155
 8459POPC   GL238342  12.175  44.784   6.155
 8459POPC   C1A38343  12.084  44.706   6.455
 8459POPC   D2A38344  12.068  44.624   6.755
 8459POPC   C3A38345  12.108  44.667   7.055
 8459POPC   C4A38346  12.083  44.710   7.355
 8459POPC   C1B38347  12.208  44.803   6.455
 8459POPC   C2B38348  12.243  44.869   6.755
 8459POPC   C3B38349  12.211  44.843   7.055
 8459POPC   C4B38350  12.259  44.881   7.355
 8460POPC   NC338351  10.573   1.209   5.555
 8460POPC   PO438352  10.480   1.189   5.855
 8460POPC   GL138353  10.541   1.226   6.155
 8460POPC   GL238354  10.671   1.303   6.155
 8460POPC   C1A38355  10.481   1.257   6.455
 8460POPC   D2A38356  10.486   1.234   6.755
 8460POPC   C3A38357  10.524   1.185   7.055
 8460POPC   C4A38358  10.532   1.234   7.355
 8460POPC   C1B38359  10.785   1.341   6.455
 8460POPC   C2B38360  10.710   1.323   6.755
 8460POPC   C3B38361  10.803   1.291   7.055
 8460POPC   C4B38362  10.773   1.266   7.355
 8461POPC   NC338363   9.709   5.883   5.555
 8461POPC   PO438364   9.730   5.891   5.855
 8461POPC   GL138365   9.747   5.841   6.155
 8461POPC   GL238366   9.699   5.775   6.155
 8461POPC   C1A38367   9.794   5.906   6.455
 8461POPC   D2A38368   9.747   5.886   6.755
 8461POPC   C3A38369   9.727   5.890   7.055
 8461POPC   C4A38370   9.708   5.861   7.355
 8461POPC   C1B38371   9.678   5.646   6.455
 8461POPC   C2B38372   9.745   5.652   6.755
 8461POPC   C3B38373   9.700   5.643   7.055
 8461POPC   C4B38374   9.719   5.665   7.355
 8462POPC   NC338375  15.150  26.001   5.555
 8462POPC   PO438376  15.151  25.991   5.855
 8462POPC   GL138377  15.168  26.057   6.155
 8462POPC   GL238378  15.092  25.993   6.155
 8462POPC   C1A38379  15.176  26.006   6.455
 8462POPC   D2A38380  15.158  26.005   6.755
 8462POPC   C3A38381  15.221  26.031   7.055
 8462POPC   C4A38382  15.164  26.040   7.355
 8462POPC   C1B38383  14.926  25.934   6.455
 8462POPC   C2B38384  14.982  25.904   6.755
 8462POPC   C3B38385  14.942  25.877   7.055
 8462POPC   C4B38386  14.994  25.940   7.355
 8463POPC   NC338387  17.493  33.047   5.555
 8463POPC   PO438388  17.457  33.059   5.855
 8463POPC   GL138389  17.467  33.007   6.155
 8463POPC   GL238390  17.352  33.075   6.155
 8463POPC   C1A38391  17.490  33.033   6.455
 8463POPC   D2A38392  17.467  32.987   6.755
 8463POPC   C3A38393  17.545  33.050   7.055
 8463POPC   C4A38394  17.500  33.069   7.355
 8463POPC   C1B38395  17.331  33.120   6.455
 8463POPC   C2B38396  17.312  33.099   6.755
 8463POPC   C3B38397  17.247  33.139   7.055
 8463POPC   C4B38398  17.304  33.124   7.355
 8464POPC   NC338399  33.024  33.028   5.555
 8464POPC   PO438400  33.033  32.991   5.855
 8464POPC   GL138401  32.977  33.009   6.155
 8464POPC   GL238402  32.859  33.029   6.155
 8464POPC   C1A38403  32.988  32.996   6.455
 8464POPC   D2A38404  33.011  32.983   6.755
 8464POPC   C3A38405  33.038  32.982   7.055
 8464POPC   C4A38406  32.986  33.011   7.355
 8464POPC   C1B38407  32.832  33.144   6.455
 8464POPC   C2B38408  32.804  33.139   6.755
 8464POPC   C3B38409  32.753  33.095   7.055
 8464POPC   C4B38410  32.811  33.102   7.355
 8465POPC   NC338411   4.301  36.131   5.555
 8465POPC   PO438412   4.335  36.081   5.855
 8465POPC   GL138413   4.277  36.152   6.155
 8465POPC   GL238414   4.218  36.259   6.155
 8465POPC   C1A38415   4.282  36.092   6.455
 8465POPC   D2A38416   4.312  36.087   6.755
 8465POPC   C3A38417   4.315  36.131   7.055
 8465POPC   C4A38418   4.295  36.117   7.355
 8465POPC   C1B38419   4.205  36.379   6.455
 8465POPC   C2B38420   4.247  36.342   6.755
 8465POPC   C3B38421   4.241  36.330   7.055
 8465POPC   C4B38422   4.196  36.310   7.355
 8466POPC   NC338423  35.393   4.291   5.555
 8466POPC   PO438424  35.334   4.357   5.855
 8466POPC   GL138425  35.365   4.312   6.155
 8466POPC   GL238426  35.432   4.269   6.155
 8466POPC   C1A38427  35.392   4.290   6.455
 8466POPC   D2A38428  35.365   4.301   6.755
 8466POPC   C3A38429  35.303   4.330   7.055
 8466POPC   C4A38430  35.320   4.272   7.355
 8466POPC   C1B38431  35.608   4.182   6.455
 8466POPC   C2B38432  35.542   4.230   6.755
 8466POPC   C3B38433  35.542   4.186   7.055
 8466POPC   C4B38434  35.625   4.180   7.355
 8467POPC   NC338435  38.448  19.091   5.555
 8467POPC   PO438436  38.500  19.063   5.855
 8467POPC   GL138437  38.490  19.061   6.155
 8467POPC   GL238438  38.494  18.973   6.155
 8467POPC   C1A38439  38.502  19.064   6.455
 8467POPC   D2A38440  38.460  19.029   6.755
 8467POPC   C3A38441  38.468  19.068   7.055
 8467POPC   C4A38442  38.488  19.094   7.355
 8467POPC   C1B38443  38.471  18.795   6.455
 8467POPC   C2B38444  38.442  18.851   6.755
 8467POPC   C3B38445  38.413  18.826   7.055
 8467POPC   C4B38446  38.479  18.810   7.355
 8468POPC   NC338447  33.059  39.265   5.555
 8468POPC   PO438448  33.071  39.280   5.855
 8468POPC   GL138449  32.994  39.210   6.155
 8468POPC   GL238450  32.950  39.245   6.155
 8468POPC   C1A38451  32.975  39.267   6.455
 8468POPC   D2A38452  33.051  39.270   6.755
 8468POPC   C3A38453  32.990  39.230   7.055
 8468POPC   C4A38454  32.974  39.234   7.355
 8468POPC   C1B38455  32.817  39.297   6.455
 8468POPC   C2B38456  32.750  39.243   6.755
 8468POPC   C3B38457  32.785  39.298   7.055
 8468POPC   C4B38458  32.799  39.284   7.355
 8469POPC   NC338459  24.481   5.857   5.555
 8469POPC   PO438460  24.470   5.869   5.855
 8469POPC   GL138461  24.499   5.840   6.155
 8469POPC   GL238462  24.424   5.759   6.155
 8469POPC   C1A38463  24.519   5.906   6.455
 8469POPC   D2A38464  24.513   5.907   6.755
 8469POPC   C3A38465  24.507   5.824   7.055
 8469POPC   C4A38466  24.537   5.851   7.355
 8469POPC   C1B38467  24.257   5.715   6.455
 8469POPC   C2B38468  24.247   5.779   6.755
 8469POPC   C3B38469  24.322   5.766   7.055
 8469POPC   C4B38470  24.233   5.763   7.355
 8470POPC   NC338471  23.725  15.192   5.555
 8470POPC   PO438472  23.712  15.138   5.855
 8470POPC   GL138473  23.721  15.162   6.155
 8470POPC   GL238474  23.806  15.253   6.155
 8470POPC   C1A38475  23.690  15.174   6.455
 8470POPC   D2A38476  23.711  15.167   6.755
 8470POPC   C3A38477  23.745  15.216   7.055
 8470POPC   C4A38478  23.748  15.135   7.355
 8470POPC   C1B38479  23.923  15.240   6.455
 8470POPC   C2B38480  23.970  15.204   6.755
 8470POPC   C3B38481  23.993  15.252   7.055
 8470POPC   C4B38482  23.989  15.201   7.355
 8471POPC   NC338483   7.447  23.672   5.555
 8471POPC   PO438484   7.465  23.698   5.855
 8471POPC   GL138485   7.443  23.709   6.155
 8471POPC   GL238486   7.470  23.660   6.155
 8471POPC   C1A38487   7.460  23.688   6.455
 8471POPC   D2A38488   7.430  23.722   6.755
 8471POPC   C3A38489   7.441  23.667   7.055
 8471POPC   C4A38490   7.463  23.665   7.355
 8471POPC   C1B38491   7.602  23.555   6.455
 8471POPC   C2B38492   7.556  23.523   6.755
 8471POPC   C3B38493   7.621  23.567   7.055
 8471POPC   C4B38494   7.549  23.569   7.355
 8472POPC   NC338495  44.673  12.813   5.555
 8472POPC   PO438496  44.682  12.854   5.855
 8472POPC   GL138497  44.613  12.854   6.155
 8472POPC   GL238498  44.696  12.767   6.155
 8472POPC   C1A38499  44.622  12.889   6.455
 8472POPC   D2A38500  44.663  12.847   6.755
 8472POPC   C3A38501  44.705  12.858   7.055
 8472POPC   C4A38502  44.701  12.827   7.355
 8472POPC   C1B38503  44.735  12.606   6.455
 8472POPC   C2B38504  44.736  12.633   6.755
 8472POPC   C3B38505  44.719  12.622   7.055
 8472POPC   C4B38506  44.721  12.599   7.355
 8473POPC   NC338507  44.624   6.637   5.555
 8473POPC   PO438508  44.615   6.638   5.855
 8473POPC   GL138509  44.628   6.633   6.155
 8473POPC   GL238510  44.674   6.497   6.155
 8473POPC   C1A38511  44.645   6.596   6.455
 8473POPC   D2A38512  44.683   6.649   6.755
 8473POPC   C3A38513  44.688   6.677   7.055
 8473POPC   C4A38514  44.673   6.647   7.355
 8473POPC   C1B38515  44.640   6.385   6.455
 8473POPC   C2B38516  44.726   6.353   6.755
 8473POPC   C3B38517  44.665   6.356   7.055
 8473POPC   C4B38518  44.721   6.370   7.355
 8474POPC   NC338519  42.332  12.875   5.555
 8474POPC   PO438520  42.320  12.874   5.855
 8474POPC   GL138521  42.311  12.873   6.155
 8474POPC   GL238522  42.245  12.889   6.155
 8474POPC   C1A38523  42.357  12.812   6.455
 8474POPC   D2A38524  42.309  12.820   6.755
 8474POPC   C3A38525  42.345  12.878   7.055
 8474POPC   C4A38526  42.369  12.880   7.355
 8474POPC   C1B38527  42.114  12.983   6.455
 8474POPC   C2B38528  42.144  12.936   6.755
 8474POPC   C3B38529  42.071  12.926   7.055
 8474POPC   C4B38530  42.156  12.998   7.355
 8475POPC   NC338531  13.584  15.207   5.555
 8475POPC   PO438532  13.644  15.196   5.855
 8475POPC   GL138533  13.588  15.158   6.155
 8475POPC   GL238534  13.528  15.290   6.155
 8475POPC   C1A38535  13.578  15.202   6.455
 8475POPC   D2A38536  13.582  15.144   6.755
 8475POPC   C3A38537  13.628  15.205   7.055
 8475POPC   C4A38538  13.645  15.164   7.355
 8475POPC   C1B38539  13.434  15.394   6.455
 8475POPC   C2B38540  13.448  15.323   6.755
 8475POPC   C3B38541  13.440  15.336   7.055
 8475POPC   C4B38542  13.437  15.375   7.355
 8476POPC   NC338543  22.972  12.847   5.555
 8476POPC   PO438544  22.917  12.816   5.855
 8476POPC   GL138545  22.939  12.827   6.155
 8476POPC   GL238546  23.032  12.831   6.155
 8476POPC   C1A38547  22.967  12.819   6.455
 8476POPC   D2A38548  22.966  12.841   6.755
 8476POPC   C3A38549  22.973  12.829   7.055
 8476POPC   C4A38550  22.944  12.812   7.355
 8476POPC   C1B38551  23.176  12.756   6.455
 8476POPC   C2B38552  23.135  12.817   6.755
 8476POPC   C3B38553  23.228  12.819   7.055
 8476POPC   C4B38554  23.193  12.814   7.355
 8477POPC   NC338555  22.986  39.966   5.555
 8477POPC   PO438556  22.909  40.018   5.855
 8477POPC   GL138557  22.917  40.037   6.155
 8477POPC   GL238558  23.094  40.010   6.155
 8477POPC   C1A38559  22.908  40.031   6.455
 8477POPC   D2A38560  22.954  40.031   6.755
 8477POPC   C3A38561  22.946  40.035   7.055
 8477POPC   C4A38562  22.940  40.041   7.355
 8477POPC   C1B38563  23.132  39.991   6.455
 8477POPC   C2B38564  23.216  39.972   6.755
 8477POPC   C3B38565  23.138  39.906   7.055
 8477POPC   C4B38566  23.170  39.972   7.355
 8478POPC   NC338567  13.627   0.388   5.555
 8478POPC   PO438568  13.606   0.437   5.855
 8478POPC   GL138569  13.595   0.403   6.155
 8478POPC   GL238570  13.713   0.455   6.155
 8478POPC   C1A38571  13.581   0.464   6.455
 8478POPC   D2A38572  13.663   0.454   6.755
 8478POPC   C3A38573  13.626   0.435   7.055
 8478POPC   C4A38574  13.676   0.404   7.355
 8478POPC   C1B38575  13.895   0.359   6.455
 8478POPC   C2B38576  13.874   0.395   6.755
 8478POPC   C3B38577  13.876   0.414   7.055
 8478POPC   C4B38578  13.873   0.368   7.355
 8479POPC   NC338579  34.552   2.733   5.555
 8479POPC   PO438580  34.589   2.782   5.855
 8479POPC   GL138581  34.535   2.731   6.155
 8479POPC   GL238582  34.661   2.688   6.155
 8479POPC   C1A38583  34.610   2.811   6.455
 8479POPC   D2A38584  34.559   2.767   6.755
 8479POPC   C3A38585  34.567   2.803   7.055
 8479POPC   C4A38586  34.601   2.788   7.355
 8479POPC   C1B38587  34.676   2.527   6.455
 8479POPC   C2B38588  34.650   2.502   6.755
 8479POPC   C3B38589  34.672   2.514   7.055
 8479POPC   C4B38590  34.714   2.517   7.355
 8480POPC   NC338591  41.575  16.720   5.555
 8480POPC   PO438592  41.562  16.766   5.855
 8480POPC   GL138593  41.511  16.687   6.155
 8480POPC   GL238594  41.424  16.824   6.155
 8480POPC   C1A38595  41.559  16.691   6.455
 8480POPC   D2A38596  41.516  16.776   6.755
 8480POPC   C3A38597  41.544  16.731   7.055
 8480POPC   C4A38598  41.547  16.765   7.355
 8480POPC   C1B38599  41.364  16.940   6.455
 8480POPC   C2B38600  41.390  16.855   6.755
 8480POPC   C3B38601  41.386  16.900   7.055
 8480POPC   C4B38602  41.397  16.923   7.355
 8481POPC   NC338603  24.481  19.805   5.555
 8481POPC   PO438604  24.490  19.804   5.855
 8481POPC   GL138605  24.531  19.858   6.155
 8481POPC   GL238606  24.382  19.898   6.155
 8481POPC   C1A38607  24.483  19.853   6.455
 8481POPC   D2A38608  24.503  19.870   6.755
 8481POPC   C3A38609  24.457  19.856   7.055
 8481POPC   C4A38610  24.531  19.881   7.355
 8481POPC   C1B38611  24.218  19.877   6.455
 8481POPC   C2B38612  24.200  19.918   6.755
 8481POPC   C3B38613  24.269  19.906   7.055
 8481POPC   C4B38614  24.204  19.905   7.355
 8482POPC   NC338615  35.400  41.581   5.555
 8482POPC   PO438616  35.391  41.527   5.855
 8482POPC   GL138617  35.351  41.572   6.155
 8482POPC   GL238618  35.283  41.618   6.155
 8482POPC   C1A38619  35.327  41.580   6.455
 8482POPC   D2A38620  35.342  41.606   6.755
 8482POPC   C3A38621  35.391  41.570   7.055
 8482POPC   C4A38622  35.384  41.584   7.355
 8482POPC   C1B38623  35.190  41.798   6.455
 8482POPC   C2B38624  35.251  41.794   6.755
 8482POPC   C3B38625  35.250  41.812   7.055
 8482POPC   C4B38626  35.228  41.738   7.355
 8483POPC   NC338627  34.593   1.966   5.555
 8483POPC   PO438628  34.605   2.015   5.855
 8483POPC   GL138629  34.554   2.031   6.155
 8483POPC   GL238630  34.557   1.899   6.155
 8483POPC   C1A38631  34.604   2.034   6.455
 8483POPC   D2A38632  34.594   2.026   6.755
 8483POPC   C3A38633  34.575   2.006   7.055
 8483POPC   C4A38634  34.599   2.009   7.355
 8483POPC   C1B38635  34.559   1.784   6.455
 8483POPC   C2B38636  34.500   1.783   6.755
 8483POPC   C3B38637  34.491   1.699   7.055
 8483POPC   C4B38638  34.501   1.693   7.355
 8484POPC   NC338639  41.572  43.114   5.555
 8484POPC   PO438640  41.550  43.116   5.855
 8484POPC   GL138641  41.579  43.139   6.155
 8484POPC   GL238642  41.624  43.013   6.155
 8484POPC   C1A38643  41.601  43.138   6.455
 8484POPC   D2A38644  41.580  43.096   6.755
 8484POPC   C3A38645  41.596  43.063   7.055
 8484POPC   C4A38646  41.597  43.112   7.355
 8484POPC   C1B38647  41.611  42.884   6.455
 8484POPC   C2B38648  41.613  42.886   6.755
 8484POPC   C3B38649  41.608  42.880   7.055
 8484POPC   C4B38650  41.651  42.832   7.355
 8485POPC   NC338651  10.506   2.733   5.555
 8485POPC   PO438652  10.491   2.783   5.855
 8485POPC   GL138653  10.514   2.744   6.155
 8485POPC   GL238654  10.614   2.816   6.155
 8485POPC   C1A38655  10.556   2.812   6.455
 8485POPC   D2A38656  10.524   2.778   6.755
 8485POPC   C3A38657  10.558   2.771   7.055
 8485POPC   C4A38658  10.537   2.766   7.355
 8485POPC   C1B38659  10.809   2.807   6.455
 8485POPC   C2B38660  10.816   2.767   6.755
 8485POPC   C3B38661  10.782   2.735   7.055
 8485POPC   C4B38662  10.805   2.815   7.355
 8486POPC   NC338663   5.854   7.413   5.555
 8486POPC   PO438664   5.839   7.409   5.855
 8486POPC   GL138665   5.842   7.442   6.155
 8486POPC   GL238666   6.023   7.404   6.155
 8486POPC   C1A38667   5.830   7.418   6.455
 8486POPC   D2A38668   5.848   7.379   6.755
 8486POPC   C3A38669   5.846   7.413   7.055
 8486POPC   C4A38670   5.841   7.374   7.355
 8486POPC   C1B38671   6.152   7.297   6.455
 8486POPC   C2B38672   6.096   7.375   6.755
 8486POPC   C3B38673   6.121   7.373   7.055
 8486POPC   C4B38674   6.128   7.352   7.355
 8487POPC   NC338675  15.997   3.511   5.555
 8487POPC   PO438676  15.915   3.580   5.855
 8487POPC   GL138677  15.953   3.535   6.155
 8487POPC   GL238678  16.010   3.501   6.155
 8487POPC   C1A38679  15.967   3.552   6.455
 8487POPC   D2A38680  15.941   3.497   6.755
 8487POPC   C3A38681  15.962   3.530   7.055
 8487POPC   C4A38682  15.943   3.585   7.355
 8487POPC   C1B38683  16.152   3.378   6.455
 8487POPC   C2B38684  16.093   3.359   6.755
 8487POPC   C3B38685  16.105   3.395   7.055
 8487POPC   C4B38686  16.160   3.390   7.355
 8488POPC   NC338687  18.244  42.370   5.555
 8488POPC   PO438688  18.333  42.313   5.855
 8488POPC   GL138689  18.284  42.303   6.155
 8488POPC   GL238690  18.350  42.425   6.155
 8488POPC   C1A38691  18.236  42.340   6.455
 8488POPC   D2A38692  18.321  42.381   6.755
 8488POPC   C3A38693  18.281  42.299   7.055
 8488POPC   C4A38694  18.277  42.353   7.355
 8488POPC   C1B38695  18.449  42.512   6.455
 8488POPC   C2B38696  18.491  42.512   6.755
 8488POPC   C3B38697  18.474  42.478   7.055
 8488POPC   C4B38698  18.476  42.546   7.355
 8489POPC   NC338699  27.549  26.047   5.555
 8489POPC   PO438700  27.588  26.055   5.855
 8489POPC   GL138701  27.563  26.004   6.155
 8489POPC   GL238702  27.529  26.107   6.155
 8489POPC   C1A38703  27.639  26.074   6.455
 8489POPC   D2A38704  27.604  26.005   6.755
 8489POPC   C3A38705  27.596  26.062   7.055
 8489POPC   C4A38706  27.553  26.008   7.355
 8489POPC   C1B38707  27.411  26.197   6.455
 8489POPC   C2B38708  27.389  26.233   6.755
 8489POPC   C3B38709  27.406  26.210   7.055
 8489POPC   C4B38710  27.410  26.240   7.355
 8490POPC   NC338711  24.513   6.653   5.555
 8490POPC   PO438712  24.441   6.646   5.855
 8490POPC   GL138713  24.471   6.605   6.155
 8490POPC   GL238714  24.547   6.602   6.155
 8490POPC   C1A38715  24.510   6.637   6.455
 8490POPC   D2A38716  24.451   6.662   6.755
 8490POPC   C3A38717  24.445   6.629   7.055
 8490POPC   C4A38718  24.506   6.614   7.355
 8490POPC   C1B38719  24.664   6.521   6.455
 8490POPC   C2B38720  24.725   6.475   6.755
 8490POPC   C3B38721  24.746   6.510   7.055
 8490POPC   C4B38722  24.739   6.551   7.355
 8491POPC   NC338723  17.487  39.973   5.555
 8491POPC   PO438724  17.524  39.980   5.855
 8491POPC   GL138725  17.543  40.015   6.155
 8491POPC   GL238726  17.470  39.876   6.155
 8491POPC   C1A38727  17.547  39.979   6.455
 8491POPC   D2A38728  17.506  40.033   6.755
 8491POPC   C3A38729  17.533  40.010   7.055
 8491POPC   C4A38730  17.550  40.054   7.355
 8491POPC   C1B38731  17.487  39.725   6.455
 8491POPC   C2B38732  17.503  39.785   6.755
 8491POPC   C3B38733  17.448  39.797   7.055
 8491POPC   C4B38734  17.441  39.761   7.355
 8492POPC   NC338735  36.943  32.243   5.555
 8492POPC   PO438736  36.875  32.255   5.855
 8492POPC   GL138737  36.877  32.285   6.155
 8492POPC   GL238738  36.781  32.136   6.155
 8492POPC   C1A38739  36.952  32.206   6.455
 8492POPC   D2A38740  36.863  32.272   6.755
 8492POPC   C3A38741  36.876  32.228   7.055
 8492POPC   C4A38742  36.902  32.295   7.355
 8492POPC   C1B38743  36.695  32.151   6.455
 8492POPC   C2B38744  36.694  32.112   6.755
 8492POPC   C3B38745  36.697  32.155   7.055
 8492POPC   C4B38746  36.657  32.076   7.355
 8493POPC   NC338747  41.554  26.793   5.555
 8493POPC   PO438748  41.515  26.815   5.855
 8493POPC   GL138749  41.532  26.773   6.155
 8493POPC   GL238750  41.616  26.741   6.155
 8493POPC   C1A38751  41.584  26.787   6.455
 8493POPC   D2A38752  41.549  26.793   6.755
 8493POPC   C3A38753  41.540  26.860   7.055
 8493POPC   C4A38754  41.554  26.864   7.355
 8493POPC   C1B38755  41.603  26.599   6.455
 8493POPC   C2B38756  41.584  26.591   6.755
 8493POPC   C3B38757  41.658  26.552   7.055
 8493POPC   C4B38758  41.591  26.550   7.355
 8494POPC   NC338759  34.581  20.613   5.555
 8494POPC   PO438760  34.537  20.656   5.855
 8494POPC   GL138761  34.599  20.586   6.155
 8494POPC   GL238762  34.568  20.463   6.155
 8494POPC   C1A38763  34.586  20.585   6.455
 8494POPC   D2A38764  34.592  20.597   6.755
 8494POPC   C3A38765  34.612  20.592   7.055
 8494POPC   C4A38766  34.541  20.655   7.355
 8494POPC   C1B38767  34.631  20.381   6.455
 8494POPC   C2B38768  34.623  20.367   6.755
 8494POPC   C3B38769  34.592  20.408   7.055
 8494POPC   C4B38770  34.592  20.327   7.355
 8495POPC   NC338771  37.693   1.227   5.555
 8495POPC   PO438772  37.672   1.232   5.855
 8495POPC   GL138773  37.695   1.185   6.155
 8495POPC   GL238774  37.695   1.092   6.155
 8495POPC   C1A38775  37.669   1.190   6.455
 8495POPC   D2A38776  37.646   1.258   6.755
 8495POPC   C3A38777  37.683   1.178   7.055
 8495POPC   C4A38778  37.687   1.228   7.355
 8495POPC   C1B38779  37.586   0.978   6.455
 8495POPC   C2B38780  37.677   0.959   6.755
 8495POPC   C3B38781  37.665   0.950   7.055
 8495POPC   C4B38782  37.679   0.923   7.355
 8496POPC   NC338783  22.939  22.123   5.555
 8496POPC   PO438784  22.973  22.205   5.855
 8496POPC   GL138785  22.922  22.155   6.155
 8496POPC   GL238786  23.028  22.238   6.155
 8496POPC   C1A38787  22.981  22.147   6.455
 8496POPC   D2A38788  22.893  22.174   6.755
 8496POPC   C3A38789  22.979  22.139   7.055
 8496POPC   C4A38790  22.890  22.192   7.355
 8496POPC   C1B38791  23.128  22.337   6.455
 8496POPC   C2B38792  23.070  22.358   6.755
 8496POPC   C3B38793  23.112  22.317   7.055
 8496POPC   C4B38794  23.061  22.337   7.355
 8497POPC   NC338795  43.156  44.670   5.555
 8497POPC   PO438796  43.093  44.627   5.855
 8497POPC   GL138797  43.104  44.685   6.155
 8497POPC   GL238798  43.007  44.798   6.155
 8497POPC   C1A38799  43.151  44.617   6.455
 8497POPC   D2A38800  43.131  44.684   6.755
 8497POPC   C3A38801  43.068  44.664   7.055
 8497POPC   C4A38802  43.143  44.648   7.355
 8497POPC   C1B38803  43.005  44.876   6.455
 8497POPC   C2B38804  42.956  44.916   6.755
 8497POPC   C3B38805  43.031  44.862   7.055
 8497POPC   C4B38806  43.035  44.906   7.355
 8498POPC   NC338807   7.387   9.733   5.555
 8498POPC   PO438808   7.373   9.734   5.855
 8498POPC   GL138809   7.425   9.730   6.155
 8498POPC   GL238810   7.337   9.726   6.155
 8498POPC   C1A38811   7.385   9.728   6.455
 8498POPC   D2A38812   7.453   9.760   6.755
 8498POPC   C3A38813   7.390   9.726   7.055
 8498POPC   C4A38814   7.450   9.699   7.355
 8498POPC   C1B38815   7.172   9.787   6.455
 8498POPC   C2B38816   7.187   9.749   6.755
 8498POPC   C3B38817   7.157   9.776   7.055
 8498POPC   C4B38818   7.204   9.747   7.355
 8499POPC   NC338819  39.995  26.030   5.555
 8499POPC   PO438820  40.028  26.091   5.855
 8499POPC   GL138821  40.045  26.061   6.155
 8499POPC   GL238822  40.002  26.140   6.155
 8499POPC   C1A38823  39.986  26.023   6.455
 8499POPC   D2A38824  39.980  26.016   6.755
 8499POPC   C3A38825  39.975  26.051   7.055
 8499POPC   C4A38826  40.035  26.014   7.355
 8499POPC   C1B38827  40.086  26.269   6.455
 8499POPC   C2B38828  40.093  26.333   6.755
 8499POPC   C3B38829  40.071  26.239   7.055
 8499POPC   C4B38830  40.020  26.277   7.355
 8500POPC   NC338831  28.349   3.521   5.555
 8500POPC   PO438832  28.375   3.496   5.855
 8500POPC   GL138833  28.336   3.522   6.155
 8500POPC   GL238834  28.469   3.547   6.155
 8500POPC   C1A38835  28.327   3.581   6.455
 8500POPC   D2A38836  28.400   3.550   6.755
 8500POPC   C3A38837  28.398   3.513   7.055
 8500POPC   C4A38838  28.385   3.590   7.355
 8500POPC   C1B38839  28.619   3.513   6.455
 8500POPC   C2B38840  28.667   3.565   6.755
 8500POPC   C3B38841  28.651   3.478   7.055
 8500POPC   C4B38842  28.647   3.542   7.355
 8501POPC   NC338843  22.186  36.883   5.555
 8501POPC   PO438844  22.130  36.904   5.855
 8501POPC   GL138845  22.196  36.945   6.155
 8501POPC   GL238846  22.043  36.790   6.155
 8501POPC   C1A38847  22.188  36.904   6.455
 8501POPC   D2A38848  22.165  36.909   6.755
 8501POPC   C3A38849  22.142  36.865   7.055
 8501POPC   C4A38850  22.116  36.898   7.355
 8501POPC   C1B38851  22.039  36.717   6.455
 8501POPC   C2B38852  22.048  36.683   6.755
 8501POPC   C3B38853  22.050  36.667   7.055
 8501POPC   C4B38854  22.057  36.661   7.355
 8502POPC   NC338855  38.491   9.769   5.555
 8502POPC   PO438856  38.439   9.761   5.855
 8502POPC   GL138857  38.496   9.751   6.155
 8502POPC   GL238858  38.537   9.723   6.155
 8502POPC   C1A38859  38.413   9.708   6.455
 8502POPC   D2A38860  38.500   9.736   6.755
 8502POPC   C3A38861  38.413   9.727   7.055
 8502POPC   C4A38862  38.474   9.798   7.355
 8502POPC   C1B38863  38.727   9.753   6.455
 8502POPC   C2B38864  38.660   9.816   6.755
 8502POPC   C3B38865  38.711   9.788   7.055
 8502POPC   C4B38866  38.734   9.791   7.355
 8503POPC   NC338867   8.998   6.603   5.555
 8503POPC   PO438868   8.931   6.600   5.855
 8503POPC   GL138869   8.945   6.617   6.155
 8503POPC   GL238870   8.892   6.722   6.155
 8503POPC   C1A38871   8.970   6.645   6.455
 8503POPC   D2A38872   8.973   6.634   6.755
 8503POPC   C3A38873   8.923   6.665   7.055
 8503POPC   C4A38874   8.977   6.653   7.355
 8503POPC   C1B38875   8.824   6.876   6.455
 8503POPC   C2B38876   8.795   6.845   6.755
 8503POPC   C3B38877   8.846   6.833   7.055
 8503POPC   C4B38878   8.824   6.882   7.355
 8504POPC   NC338879  14.443  42.369   5.555
 8504POPC   PO438880  14.431  42.372   5.855
 8504POPC   GL138881  14.405  42.353   6.155
 8504POPC   GL238882  14.252  42.369   6.155
 8504POPC   C1A38883  14.438  42.302   6.455
 8504POPC   D2A38884  14.401  42.384   6.755
 8504POPC   C3A38885  14.424  42.312   7.055
 8504POPC   C4A38886  14.429  42.381   7.355
 8504POPC   C1B38887  14.247  42.480   6.455
 8504POPC   C2B38888  14.195  42.497   6.755
 8504POPC   C3B38889  14.248  42.476   7.055
 8504POPC   C4B38890  14.185  42.472   7.355
 8505POPC   NC338891  16.689   7.416   5.555
 8505POPC   PO438892  16.692   7.415   5.855
 8505POPC   GL138893  16.708   7.455   6.155
 8505POPC   GL238894  16.650   7.339   6.155
 8505POPC   C1A38895  16.703   7.425   6.455
 8505POPC   D2A38896  16.728   7.418   6.755
 8505POPC   C3A38897  16.747   7.401   7.055
 8505POPC   C4A38898  16.688   7.426   7.355
 8505POPC   C1B38899  16.573   7.250   6.455
 8505POPC   C2B38900  16.620   7.166   6.755
 8505POPC   C3B38901  16.638   7.165   7.055
 8505POPC   C4B38902  16.580   7.165   7.355
 8506POPC   NC338903  36.110  26.862   5.555
 8506POPC   PO438904  36.176  26.814   5.855
 8506POPC   GL138905  36.123  26.857   6.155
 8506POPC   GL238906  36.285  26.755   6.155
 8506POPC   C1A38907  36.152  26.785   6.455
 8506POPC   D2A38908  36.129  26.822   6.755
 8506POPC   C3A38909  36.175  26.775   7.055
 8506POPC   C4A38910  36.174  26.770   7.355
 8506POPC   C1B38911  36.361  26.718   6.455
 8506POPC   C2B38912  36.335  26.693   6.755
 8506POPC   C3B38913  36.332  26.690   7.055
 8506POPC   C4B38914  36.348  26.681   7.355
 8507POPC   NC338915  19.851  19.857   5.555
 8507POPC   PO438916  19.828  19.793   5.855
 8507POPC   GL138917  19.868  19.812   6.155
 8507POPC   GL238918  19.742  19.853   6.155
 8507POPC   C1A38919  19.822  19.830   6.455
 8507POPC   D2A38920  19.852  19.832   6.755
 8507POPC   C3A38921  19.820  19.824   7.055
 8507POPC   C4A38922  19.829  19.806   7.355
 8507POPC   C1B38923  19.634  19.885   6.455
 8507POPC   C2B38924  19.546  19.909   6.755
 8507POPC   C3B38925  19.641  19.922   7.055
 8507POPC   C4B38926  19.560  19.877   7.355
 8508POPC   NC338927  20.621  33.039   5.555
 8508POPC   PO438928  20.624  32.981   5.855
 8508POPC   GL138929  20.630  33.002   6.155
 8508POPC   GL238930  20.625  33.168   6.155
 8508POPC   C1A38931  20.590  33.031   6.455
 8508POPC   D2A38932  20.646  33.009   6.755
 8508POPC   C3A38933  20.568  33.008   7.055
 8508POPC   C4A38934  20.656  33.002   7.355
 8508POPC   C1B38935  20.678  33.260   6.455
 8508POPC   C2B38936  20.695  33.286   6.755
 8508POPC   C3B38937  20.702  33.238   7.055
 8508POPC   C4B38938  20.662  33.287   7.355
 8509POPC   NC338939  35.399  25.272   5.555
 8509POPC   PO438940  35.381  25.260   5.855
 8509POPC   GL138941  35.305  25.235   6.155
 8509POPC   GL238942  35.225  25.237   6.155
 8509POPC   C1A38943  35.355  25.282   6.455
 8509POPC   D2A38944  35.398  25.278   6.755
 8509POPC   C3A38945  35.365  25.261   7.055
 8509POPC   C4A38946  35.337  25.315   7.355
 8509POPC   C1B38947  35.074  25.295   6.455
 8509POPC   C2B38948  35.125  25.203   6.755
 8509POPC   C3B38949  35.143  25.269   7.055
 8509POPC   C4B38950  35.123  25.269   7.355
 8510POPC   NC338951  16.762   6.620   5.555
 8510POPC   PO438952  16.761   6.683   5.855
 8510POPC   GL138953  16.720   6.651   6.155
 8510POPC   GL238954  16.846   6.654   6.155
 8510POPC   C1A38955  16.779   6.672   6.455
 8510POPC   D2A38956  16.702   6.661   6.755
 8510POPC   C3A38957  16.763   6.625   7.055
 8510POPC   C4A38958  16.776   6.622   7.355
 8510POPC   C1B38959  17.005   6.644   6.455
 8510POPC   C2B38960  16.953   6.646   6.755
 8510POPC   C3B38961  16.963   6.669   7.055
 8510POPC   C4B38962  16.971   6.702   7.355
 8511POPC   NC338963  33.848   2.790   5.555
 8511POPC   PO438964  33.760   2.802   5.855
 8511POPC   GL138965  33.774   2.750   6.155
 8511POPC   GL238966  33.904   2.697   6.155
 8511POPC   C1A38967  33.849   2.750   6.455
 8511POPC   D2A38968  33.811   2.779   6.755
 8511POPC   C3A38969  33.771   2.813   7.055
 8511POPC   C4A38970  33.847   2.783   7.355
 8511POPC   C1B38971  34.041   2.678   6.455
 8511POPC   C2B38972  33.992   2.695   6.755
 8511POPC   C3B38973  34.026   2.694   7.055
 8511POPC   C4B38974  34.040   2.642   7.355
 8512POPC   NC338975  33.814   1.996   5.555
 8512POPC   PO438976  33.842   1.961   5.855
 8512POPC   GL138977  33.840   1.991   6.155
 8512POPC   GL238978  33.936   1.971   6.155
 8512POPC   C1A38979  33.804   2.020   6.455
 8512POPC   D2A38980  33.752   1.999   6.755
 8512POPC   C3A38981  33.767   2.014   7.055
 8512POPC   C4A38982  33.772   2.028   7.355
 8512POPC   C1B38983  34.035   2.030   6.455
 8512POPC   C2B38984  34.058   1.996   6.755
 8512POPC   C3B38985  34.092   2.013   7.055
 8512POPC   C4B38986  34.081   2.008   7.355
 8513POPC   NC338987   3.562  15.921   5.555
 8513POPC   PO438988   3.576  15.980   5.855
 8513POPC   GL138989   3.530  15.927   6.155
 8513POPC   GL238990   3.463  15.985   6.155
 8513POPC   C1A38991   3.590  15.981   6.455
 8513POPC   D2A38992   3.587  15.987   6.755
 8513POPC   C3A38993   3.516  15.933   7.055
 8513POPC   C4A38994   3.580  15.915   7.355
 8513POPC   C1B38995   3.347  16.099   6.455
 8513POPC   C2B38996   3.373  16.143   6.755
 8513POPC   C3B38997   3.345  16.149   7.055
 8513POPC   C4B38998   3.355  16.103   7.355
 8514POPC   NC338999  23.763  39.210   5.555
 8514POPC   PO439000  23.740  39.246   5.855
 8514POPC   GL139001  23.671  39.200   6.155
 8514POPC   GL239002  23.785  39.181   6.155
 8514POPC   C1A39003  23.753  39.181   6.455
 8514POPC   D2A39004  23.671  39.211   6.755
 8514POPC   C3A39005  23.684  39.206   7.055
 8514POPC   C4A39006  23.675  39.231   7.355
 8514POPC   C1B39007  23.943  39.206   6.455
 8514POPC   C2B39008  24.003  39.122   6.755
 8514POPC   C3B39009  23.906  39.138   7.055
 8514POPC   C4B39010  23.991  39.147   7.355
 8515POPC   NC339011  19.019  19.788   5.555
 8515POPC   PO439012  19.056  19.878   5.855
 8515POPC   GL139013  19.017  19.820   6.155
 8515POPC   GL239014  19.222  19.785   6.155
 8515POPC   C1A39015  19.030  19.786   6.455
 8515POPC   D2A39016  19.025  19.793   6.755
 8515POPC   C3A39017  19.062  19.822   7.055
 8515POPC   C4A39018  19.024  19.825   7.355
 8515POPC   C1B39019  19.257  19.747   6.455
 8515POPC   C2B39020  19.316  19.804   6.755
 8515POPC   C3B39021  19.261  19.800   7.055
 8515POPC   C4B39022  19.301  19.818   7.355
 8516POPC   NC339023  15.920  29.933   5.555
 8516POPC   PO439024  15.978  29.892   5.855
 8516POPC   GL139025  15.911  29.945   6.155
 8516POPC   GL239026  16.028  29.857   6.155
 8516POPC   C1A39027  15.943  29.873   6.455
 8516POPC   D2A39028  15.981  29.951   6.755
 8516POPC   C3A39029  15.955  29.967   7.055
 8516POPC   C4A39030  15.992  29.915   7.355
 8516POPC   C1B39031  16.144  29.820   6.455
 8516POPC   C2B39032  16.194  29.765   6.755
 8516POPC   C3B39033  16.127  29.818   7.055
 8516POPC   C4B39034  16.149  29.799   7.355
 8517POPC   NC339035  23.701   5.853   5.555
 8517POPC   PO439036  23.743   5.839   5.855
 8517POPC   GL139037  23.763   5.918   6.155
 8517POPC   GL239038  23.719   5.800   6.155
 8517POPC   C1A39039  23.696   5.858   6.455
 8517POPC   D2A39040  23.730   5.869   6.755
 8517POPC   C3A39041  23.706   5.908   7.055
 8517POPC   C4A39042  23.701   5.909   7.355
 8517POPC   C1B39043  23.776   5.619   6.455
 8517POPC   C2B39044  23.758   5.589   6.755
 8517POPC   C3B39045  23.778   5.610   7.055
 8517POPC   C4B39046  23.776   5.661   7.355
 8518POPC   NC339047  16.767   4.312   5.555
 8518POPC   PO439048  16.719   4.347   5.855
 8518POPC   GL139049  16.713   4.358   6.155
 8518POPC   GL239050  16.707   4.210   6.155
 8518POPC   C1A39051  16.705   4.323   6.455
 8518POPC   D2A39052  16.771   4.348   6.755
 8518POPC   C3A39053  16.743   4.275   7.055
 8518POPC   C4A39054  16.744   4.350   7.355
 8518POPC   C1B39055  16.721   4.026   6.455
 8518POPC   C2B39056  16.738   4.108   6.755
 8518POPC   C3B39057  16.673   4.029   7.055
 8518POPC   C4B39058  16.660   4.044   7.355
 8519POPC   NC339059   2.777   4.317   5.555
 8519POPC   PO439060   2.734   4.332   5.855
 8519POPC   GL139061   2.781   4.331   6.155
 8519POPC   GL239062   2.887   4.213   6.155
 8519POPC   C1A39063   2.777   4.313   6.455
 8519POPC   D2A39064   2.724   4.270   6.755
 8519POPC   C3A39065   2.768   4.339   7.055
 8519POPC   C4A39066   2.730   4.328   7.355
 8519POPC   C1B39067   2.948   4.162   6.455
 8519POPC   C2B39068   2.974   4.204   6.755
 8519POPC   C3B39069   2.935   4.178   7.055
 8519POPC   C4B39070   2.943   4.136   7.355
 8520POPC   NC339071  14.395   2.031   5.555
 8520POPC   PO439072  14.390   1.941   5.855
 8520POPC   GL139073  14.405   1.957   6.155
 8520POPC   GL239074  14.530   2.033   6.155
 8520POPC   C1A39075  14.392   2.012   6.455
 8520POPC   D2A39076  14.408   2.039   6.755
 8520POPC   C3A39077  14.387   1.941   7.055
 8520POPC   C4A39078  14.416   1.968   7.355
 8520POPC   C1B39079  14.615   2.093   6.455
 8520POPC   C2B39080  14.677   2.084   6.755
 8520POPC   C3B39081  14.643   2.060   7.055
 8520POPC   C4B39082  14.588   2.071   7.355
 8521POPC   NC339083  12.843  29.923   5.555
 8521POPC   PO439084  12.822  29.904   5.855
 8521POPC   GL139085  12.884  29.879   6.155
 8521POPC   GL239086  12.787  30.070   6.155
 8521POPC   C1A39087  12.855  29.894   6.455
 8521POPC   D2A39088  12.817  29.878   6.755
 8521POPC   C3A39089  12.827  29.947   7.055
 8521POPC   C4A39090  12.859  29.892   7.355
 8521POPC   C1B39091  12.779  30.167   6.455
 8521POPC   C2B39092  12.733  30.182   6.755
 8521POPC   C3B39093  12.710  30.192   7.055
 8521POPC   C4B39094  12.740  30.189   7.355
 8522POPC   NC339095  18.287  16.725   5.555
 8522POPC   PO439096  18.322  16.696   5.855
 8522POPC   GL139097  18.246  16.727   6.155
 8522POPC   GL239098  18.274  16.885   6.155
 8522POPC   C1A39099  18.297  16.730   6.455
 8522POPC   D2A39100  18.242  16.723   6.755
 8522POPC   C3A39101  18.293  16.766   7.055
 8522POPC   C4A39102  18.277  16.729   7.355
 8522POPC   C1B39103  18.322  16.962   6.455
 8522POPC   C2B39104  18.318  17.018   6.755
 8522POPC   C3B39105  18.345  17.009   7.055
 8522POPC   C4B39106  18.392  16.980   7.355
 8523POPC   NC339107  13.669  44.673   5.555
 8523POPC   PO439108  13.626  44.704   5.855
 8523POPC   GL139109  13.594  44.627   6.155
 8523POPC   GL239110  13.557  44.544   6.155
 8523POPC   C1A39111  13.662  44.688   6.455
 8523POPC   D2A39112  13.640  44.652   6.755
 8523POPC   C3A39113  13.663  44.656   7.055
 8523POPC   C4A39114  13.627  44.613   7.355
 8523POPC   C1B39115  13.533  44.429   6.455
 8523POPC   C2B39116  13.475  44.401   6.755
 8523POPC   C3B39117  13.529  44.405   7.055
 8523POPC   C4B39118  13.531  44.388   7.355
 8524POPC   NC339119   1.232  37.637   5.555
 8524POPC   PO439120   1.254  37.728   5.855
 8524POPC   GL139121   1.260  37.722   6.155
 8524POPC   GL239122   1.217  37.518   6.155
 8524POPC   C1A39123   1.251  37.715   6.455
 8524POPC   D2A39124   1.168  37.711   6.755
 8524POPC   C3A39125   1.176  37.707   7.055
 8524POPC   C4A39126   1.217  37.702   7.355
 8524POPC   C1B39127   1.230  37.464   6.455
 8524POPC   C2B39128   1.136  37.436   6.755
 8524POPC   C3B39129   1.215  37.445   7.055
 8524POPC   C4B39130   1.195  37.389   7.355
 8525POPC   NC339131  20.593  39.991   5.555
 8525POPC   PO439132  20.580  40.028   5.855
 8525POPC   GL139133  20.591  39.971   6.155
 8525POPC   GL239134  20.673  40.124   6.155
 8525POPC   C1A39135  20.639  40.020   6.455
 8525POPC   D2A39136  20.646  40.018   6.755
 8525POPC   C3A39137  20.564  39.986   7.055
 8525POPC   C4A39138  20.650  39.967   7.355
 8525POPC   C1B39139  20.697  40.261   6.455
 8525POPC   C2B39140  20.634  40.208   6.755
 8525POPC   C3B39141  20.678  40.301   7.055
 8525POPC   C4B39142  20.683  40.247   7.355
 8526POPC   NC339143   1.237  32.986   5.555
 8526POPC   PO439144   1.216  33.067   5.855
 8526POPC   GL139145   1.251  33.064   6.155
 8526POPC   GL239146   1.137  33.164   6.155
 8526POPC   C1A39147   1.194  33.061   6.455
 8526POPC   D2A39148   1.208  32.985   6.755
 8526POPC   C3A39149   1.211  33.038   7.055
 8526POPC   C4A39150   1.229  33.051   7.355
 8526POPC   C1B39151   1.077  33.220   6.455
 8526POPC   C2B39152   1.072  33.257   6.755
 8526POPC   C3B39153   1.118  33.260   7.055
 8526POPC   C4B39154   1.102  33.221   7.355
 8527POPC   NC339155  27.610  14.439   5.555
 8527POPC   PO439156  27.604  14.435   5.855
 8527POPC   GL139157  27.580  14.432   6.155
 8527POPC   GL239158  27.544  14.473   6.155
 8527POPC   C1A39159  27.618  14.404   6.455
 8527POPC   D2A39160  27.610  14.354   6.755
 8527POPC   C3A39161  27.574  14.446   7.055
 8527POPC   C4A39162  27.552  14.431   7.355
 8527POPC   C1B39163  27.462  14.565   6.455
 8527POPC   C2B39164  27.461  14.554   6.755
 8527POPC   C3B39165  27.427  14.592   7.055
 8527POPC   C4B39166  27.459  14.644   7.355
 8528POPC   NC339167   8.240  30.704   5.555
 8528POPC   PO439168   8.234  30.735   5.855
 8528POPC   GL139169   8.180  30.726   6.155
 8528POPC   GL239170   8.300  30.759   6.155
 8528POPC   C1A39171   8.191  30.673   6.455
 8528POPC   D2A39172   8.234  30.737   6.755
 8528POPC   C3A39173   8.234  30.714   7.055
 8528POPC   C4A39174   8.153  30.665   7.355
 8528POPC   C1B39175   8.382  30.808   6.455
 8528POPC   C2B39176   8.385  30.851   6.755
 8528POPC   C3B39177   8.377  30.819   7.055
 8528POPC   C4B39178   8.419  30.791   7.355
 8529POPC   NC339179  19.836  12.071   5.555
 8529POPC   PO439180  19.853  12.049   5.855
 8529POPC   GL139181  19.817  12.117   6.155
 8529POPC   GL239182  19.757  11.983   6.155
 8529POPC   C1A39183  19.852  12.095   6.455
 8529POPC   D2A39184  19.832  12.029   6.755
 8529POPC   C3A39185  19.862  12.122   7.055
 8529POPC   C4A39186  19.818  12.114   7.355
 8529POPC   C1B39187  19.631  11.945   6.455
 8529POPC   C2B39188  19.636  11.974   6.755
 8529POPC   C3B39189  19.566  11.989   7.055
 8529POPC   C4B39190  19.600  11.984   7.355
 8530POPC   NC339191  10.572   9.719   5.555
 8530POPC   PO439192  10.521   9.759   5.855
 8530POPC   GL139193  10.516   9.733   6.155
 8530POPC   GL239194  10.686   9.805   6.155
 8530POPC   C1A39195  10.498   9.708   6.455
 8530POPC   D2A39196  10.503   9.787   6.755
 8530POPC   C3A39197  10.550   9.710   7.055
 8530POPC   C4A39198  10.527   9.783   7.355
 8530POPC   C1B39199  10.717   9.886   6.455
 8530POPC   C2B39200  10.749   9.885   6.755
 8530POPC   C3B39201  10.774   9.817   7.055
 8530POPC   C4B39202  10.734   9.836   7.355
 8531POPC   NC339203  32.251  18.329   5.555
 8531POPC   PO439204  32.227  18.306   5.855
 8531POPC   GL139205  32.216  18.264   6.155
 8531POPC   GL239206  32.256  18.152   6.155
 8531POPC   C1A39207  32.283  18.244   6.455
 8531POPC   D2A39208  32.278  18.276   6.755
 8531POPC   C3A39209  32.266  18.238   7.055
 8531POPC   C4A39210  32.256  18.268   7.355
 8531POPC   C1B39211  32.228  18.054   6.455
 8531POPC   C2B39212  32.238  18.060   6.755
 8531POPC   C3B39213  32.266  18.011   7.055
 8531POPC   C4B39214  32.223  18.043   7.355
 8532POPC   NC339215  35.368  16.775   5.555
 8532POPC   PO439216  35.397  16.774   5.855
 8532POPC   GL139217  35.343  16.748   6.155
 8532POPC   GL239218  35.442  16.817   6.155
 8532POPC   C1A39219  35.395  16.682   6.455
 8532POPC   D2A39220  35.322  16.730   6.755
 8532POPC   C3A39221  35.356  16.745   7.055
 8532POPC   C4A39222  35.384  16.753   7.355
 8532POPC   C1B39223  35.545  16.823   6.455
 8532POPC   C2B39224  35.540  16.811   6.755
 8532POPC   C3B39225  35.614  16.818   7.055
 8532POPC   C4B39226  35.534  16.805   7.355
 8533POPC   NC339227  15.206  18.305   5.555
 8533POPC   PO439228  15.224  18.296   5.855
 8533POPC   GL139229  15.179  18.308   6.155
 8533POPC   GL239230  15.090  18.363   6.155
 8533POPC   C1A39231  15.204  18.323   6.455
 8533POPC   D2A39232  15.136  18.298   6.755
 8533POPC   C3A39233  15.214  18.292   7.055
 8533POPC   C4A39234  15.167  18.303   7.355
 8533POPC   C1B39235  14.980  18.490   6.455
 8533POPC   C2B39236  14.999  18.508   6.755
 8533POPC   C3B39237  15.018  18.462   7.055
 8533POPC   C4B39238  15.031  18.420   7.355
 8534POPC   NC339239  26.809  41.554   5.555
 8534POPC   PO439240  26.857  41.583   5.855
 8534POPC   GL139241  26.768  41.590   6.155
 8534POPC   GL239242  26.870  41.680   6.155
 8534POPC   C1A39243  26.775  41.545   6.455
 8534POPC   D2A39244  26.782  41.529   6.755
 8534POPC   C3A39245  26.774  41.563   7.055
 8534POPC   C4A39246  26.808  41.538   7.355
 8534POPC   C1B39247  26.918  41.791   6.455
 8534POPC   C2B39248  26.835  41.763   6.755
 8534POPC   C3B39249  26.922  41.781   7.055
 8534POPC   C4B39250  26.910  41.781   7.355
 8535POPC   NC339251  33.809  42.357   5.555
 8535POPC   PO439252  33.830  42.288   5.855
 8535POPC   GL139253  33.810  42.343   6.155
 8535POPC   GL239254  33.943  42.296   6.155
 8535POPC   C1A39255  33.756  42.297   6.455
 8535POPC   D2A39256  33.779  42.376   6.755
 8535POPC   C3A39257  33.840  42.292   7.055
 8535POPC   C4A39258  33.808  42.321   7.355
 8535POPC   C1B39259  34.024  42.315   6.455
 8535POPC   C2B39260  34.052  42.238   6.755
 8535POPC   C3B39261  34.072  42.304   7.055
 8535POPC   C4B39262  34.059  42.283   7.355
 8536POPC   NC339263  36.890  12.815   5.555
 8536POPC   PO439264  36.860  12.885   5.855
 8536POPC   GL139265  36.870  12.857   6.155
 8536POPC   GL239266  36.918  12.988   6.155
 8536POPC   C1A39267  36.951  12.837   6.455
 8536POPC   D2A39268  36.929  12.855   6.755
 8536POPC   C3A39269  36.944  12.881   7.055
 8536POPC   C4A39270  36.859  12.807   7.355
 8536POPC   C1B39271  37.022  13.134   6.455
 8536POPC   C2B39272  36.999  13.061   6.755
 8536POPC   C3B39273  36.929  13.131   7.055
 8536POPC   C4B39274  36.996  13.140   7.355
 8537POPC   NC339275  27.558  24.503   5.555
 8537POPC   PO439276  27.551  24.485   5.855
 8537POPC   GL139277  27.579  24.462   6.155
 8537POPC   GL239278  27.700  24.516   6.155
 8537POPC   C1A39279  27.609  24.452   6.455
 8537POPC   D2A39280  27.587  24.471   6.755
 8537POPC   C3A39281  27.616  24.468   7.055
 8537POPC   C4A39282  27.550  24.442   7.355
 8537POPC   C1B39283  27.808  24.529   6.455
 8537POPC   C2B39284  27.795  24.510   6.755
 8537POPC   C3B39285  27.821  24.520   7.055
 8537POPC   C4B39286  27.791  24.599   7.355
 8538POPC   NC339287   1.235  10.503   5.555
 8538POPC   PO439288   1.174  10.479   5.855
 8538POPC   GL139289   1.256  10.474   6.155
 8538POPC   GL239290   1.056  10.503   6.155
 8538POPC   C1A39291   1.177  10.527   6.455
 8538POPC   D2A39292   1.206  10.536   6.755
 8538POPC   C3A39293   1.251  10.542   7.055
 8538POPC   C4A39294   1.175  10.518   7.355
 8538POPC   C1B39295   0.937  10.535   6.455
 8538POPC   C2B39296   0.933  10.557   6.755
 8538POPC   C3B39297   0.979  10.507   7.055
 8538POPC   C4B39298   0.954  10.554   7.355
 8539POPC   NC339299  19.821  42.303   5.555
 8539POPC   PO439300  19.838  42.340   5.855
 8539POPC   GL139301  19.792  42.307   6.155
 8539POPC   GL239302  19.913  42.170   6.155
 8539POPC   C1A39303  19.835  42.353   6.455
 8539POPC   D2A39304  19.836  42.322   6.755
 8539POPC   C3A39305  19.790  42.296   7.055
 8539POPC   C4A39306  19.791  42.321   7.355
 8539POPC   C1B39307  19.896  42.106   6.455
 8539POPC   C2B39308  19.910  42.095   6.755
 8539POPC   C3B39309  19.917  42.044   7.055
 8539POPC   C4B39310  19.874  42.084   7.355
 8540POPC   NC339311   5.911   8.179   5.555
 8540POPC   PO439312   5.908   8.232   5.855
 8540POPC   GL139313   5.842   8.239   6.155
 8540POPC   GL239314   5.882   8.074   6.155
 8540POPC   C1A39315   5.862   8.243   6.455
 8540POPC   D2A39316   5.885   8.212   6.755
 8540POPC   C3A39317   5.866   8.148   7.055
 8540POPC   C4A39318   5.840   8.163   7.355
 8540POPC   C1B39319   5.857   7.927   6.455
 8540POPC   C2B39320   5.824   7.918   6.755
 8540POPC   C3B39321   5.870   7.990   7.055
 8540POPC   C4B39322   5.847   7.902   7.355
 8541POPC   NC339323  19.863  32.987   5.555
 8541POPC   PO439324  19.873  32.976   5.855
 8541POPC   GL139325  19.796  33.039   6.155
 8541POPC   GL239326  19.819  32.902   6.155
 8541POPC   C1A39327  19.833  32.995   6.455
 8541POPC   D2A39328  19.799  32.990   6.755
 8541POPC   C3A39329  19.818  32.998   7.055
 8541POPC   C4A39330  19.812  32.991   7.355
 8541POPC   C1B39331  19.753  32.796   6.455
 8541POPC   C2B39332  19.727  32.830   6.755
 8541POPC   C3B39333  19.757  32.831   7.055
 8541POPC   C4B39334  19.762  32.820   7.355
 8542POPC   NC339335  26.848  22.964   5.555
 8542POPC   PO439336  26.831  22.890   5.855
 8542POPC   GL139337  26.838  22.947   6.155
 8542POPC   GL239338  26.937  22.885   6.155
 8542POPC   C1A39339  26.783  22.922   6.455
 8542POPC   D2A39340  26.796  22.899   6.755
 8542POPC   C3A39341  26.827  22.922   7.055
 8542POPC   C4A39342  26.838  22.931   7.355
 8542POPC   C1B39343  26.996  22.795   6.455
 8542POPC   C2B39344  27.020  22.795   6.755
 8542POPC   C3B39345  26.990  22.742   7.055
 8542POPC   C4B39346  26.945  22.763   7.355
 8543POPC   NC339347  25.254  32.206   5.555
 8543POPC   PO439348  25.300  32.255   5.855
 8543POPC   GL139349  25.289  32.273   6.155
 8543POPC   GL239350  25.401  32.201   6.155
 8543POPC   C1A39351  25.242  32.222   6.455
 8543POPC   D2A39352  25.223  32.258   6.755
 8543POPC   C3A39353  25.295  32.234   7.055
 8543POPC   C4A39354  25.307  32.285   7.355
 8543POPC   C1B39355  25.472  32.150   6.455
 8543POPC   C2B39356  25.431  32.087   6.755
 8543POPC   C3B39357  25.516  32.120   7.055
 8543POPC   C4B39358  25.464  32.125   7.355
 8544POPC   NC339359   3.512  39.262   5.555
 8544POPC   PO439360   3.568  39.263   5.855
 8544POPC   GL139361   3.587  39.223   6.155
 8544POPC   GL239362   3.525  39.327   6.155
 8544POPC   C1A39363   3.562  39.221   6.455
 8544POPC   D2A39364   3.549  39.200   6.755
 8544POPC   C3A39365   3.550  39.205   7.055
 8544POPC   C4A39366   3.576  39.246   7.355
 8544POPC   C1B39367   3.637  39.428   6.455
 8544POPC   C2B39368   3.655  39.440   6.755
 8544POPC   C3B39369   3.567  39.484   7.055
 8544POPC   C4B39370   3.640  39.469   7.355
 8545POPC   NC339371  39.197  24.503   5.555
 8545POPC   PO439372  39.182  24.483   5.855
 8545POPC   GL139373  39.220  24.468   6.155
 8545POPC   GL239374  39.347  24.512   6.155
 8545POPC   C1A39375  39.214  24.446   6.455
 8545POPC   D2A39376  39.234  24.483   6.755
 8545POPC   C3A39377  39.216  24.491   7.055
 8545POPC   C4A39378  39.210  24.510   7.355
 8545POPC   C1B39379  39.516  24.559   6.455
 8545POPC   C2B39380  39.504  24.517   6.755
 8545POPC   C3B39381  39.473  24.476   7.055
 8545POPC   C4B39382  39.440  24.546   7.355
 8546POPC   NC339383   1.954   4.290   5.555
 8546POPC   PO439384   1.973   4.281   5.855
 8546POPC   GL139385   1.969   4.311   6.155
 8546POPC   GL239386   2.055   4.190   6.155
 8546POPC   C1A39387   1.969   4.324   6.455
 8546POPC   D2A39388   2.006   4.338   6.755
 8546POPC   C3A39389   1.994   4.312   7.055
 8546POPC   C4A39390   1.947   4.293   7.355
 8546POPC   C1B39391   2.077   4.055   6.455
 8546POPC   C2B39392   2.119   4.137   6.755
 8546POPC   C3B39393   2.084   4.111   7.055
 8546POPC   C4B39394   2.071   4.051   7.355
 8547POPC   NC339395   5.130   9.734   5.555
 8547POPC   PO439396   5.126   9.783   5.855
 8547POPC   GL139397   5.104   9.705   6.155
 8547POPC   GL239398   4.998   9.827   6.155
 8547POPC   C1A39399   5.129   9.777   6.455
 8547POPC   D2A39400   5.094   9.732   6.755
 8547POPC   C3A39401   5.107   9.757   7.055
 8547POPC   C4A39402   5.050   9.736   7.355
 8547POPC   C1B39403   5.010   9.985   6.455
 8547POPC   C2B39404   4.985   9.991   6.755
 8547POPC   C3B39405   4.980   9.938   7.055
 8547POPC   C4B39406   4.982   9.966   7.355
 8548POPC   NC339407   5.085  24.455   5.555
 8548POPC   PO439408   5.089  24.454   5.855
 8548POPC   GL139409   5.136  24.471   6.155
 8548POPC   GL239410   5.003  24.452   6.155
 8548POPC   C1A39411   5.118  24.473   6.455
 8548POPC   D2A39412   5.071  24.451   6.755
 8548POPC   C3A39413   5.049  24.480   7.055
 8548POPC   C4A39414   5.126  24.461   7.355
 8548POPC   C1B39415   4.850  24.381   6.455
 8548POPC   C2B39416   4.861  24.329   6.755
 8548POPC   C3B39417   4.876  24.315   7.055
 8548POPC   C4B39418   4.925  24.301   7.355
 8549POPC   NC339419  25.304  25.243   5.555
 8549POPC   PO439420  25.265  25.255   5.855
 8549POPC   GL139421  25.270  25.222   6.155
 8549POPC   GL239422  25.198  25.167   6.155
 8549POPC   C1A39423  25.221  25.292   6.455
 8549POPC   D2A39424  25.223  25.245   6.755
 8549POPC   C3A39425  25.292  25.230   7.055
 8549POPC   C4A39426  25.274  25.311   7.355
 8549POPC   C1B39427  25.005  25.153   6.455
 8549POPC   C2B39428  25.040  25.163   6.755
 8549POPC   C3B39429  25.005  25.194   7.055
 8549POPC   C4B39430  25.028  25.153   7.355
 8550POPC   NC339431  36.137  20.658   5.555
 8550POPC   PO439432  36.084  20.576   5.855
 8550POPC   GL139433  36.085  20.653   6.155
 8550POPC   GL239434  36.111  20.470   6.155
 8550POPC   C1A39435  36.097  20.620   6.455
 8550POPC   D2A39436  36.086  20.645   6.755
 8550POPC   C3A39437  36.166  20.604   7.055
 8550POPC   C4A39438  36.149  20.619   7.355
 8550POPC   C1B39439  36.084  20.390   6.455
 8550POPC   C2B39440  36.080  20.332   6.755
 8550POPC   C3B39441  36.070  20.401   7.055
 8550POPC   C4B39442  36.106  20.368   7.355
 8551POPC   NC339443  28.362  17.540   5.555
 8551POPC   PO439444  28.401  17.527   5.855
 8551POPC   GL139445  28.380  17.510   6.155
 8551POPC   GL239446  28.319  17.356   6.155
 8551POPC   C1A39447  28.345  17.469   6.455
 8551POPC   D2A39448  28.406  17.467   6.755
 8551POPC   C3A39449  28.408  17.488   7.055
 8551POPC   C4A39450  28.365  17.499   7.355
 8551POPC   C1B39451  28.267  17.270   6.455
 8551POPC   C2B39452  28.272  17.278   6.755
 8551POPC   C3B39453  28.267  17.321   7.055
 8551POPC   C4B39454  28.216  17.278   7.355
 8552POPC   NC339455  12.836  23.746   5.555
 8552POPC   PO439456  12.860  23.712   5.855
 8552POPC   GL139457  12.841  23.755   6.155
 8552POPC   GL239458  12.953  23.865   6.155
 8552POPC   C1A39459  12.841  23.731   6.455
 8552POPC   D2A39460  12.844  23.762   6.755
 8552POPC   C3A39461  12.858  23.691   7.055
 8552POPC   C4A39462  12.854  23.736   7.355
 8552POPC   C1B39463  12.925  23.894   6.455
 8552POPC   C2B39464  13.010  23.928   6.755
 8552POPC   C3B39465  12.972  23.911   7.055
 8552POPC   C4B39466  12.987  23.962   7.355
 8553POPC   NC339467  36.133  10.509   5.555
 8553POPC   PO439468  36.100  10.501   5.855
 8553POPC   GL139469  36.147  10.531   6.155
 8553POPC   GL239470  36.098  10.412   6.155
 8553POPC   C1A39471  36.092  10.500   6.455
 8553POPC   D2A39472  36.152  10.545   6.755
 8553POPC   C3A39473  36.103  10.554   7.055
 8553POPC   C4A39474  36.125  10.548   7.355
 8553POPC   C1B39475  36.081  10.286   6.455
 8553POPC   C2B39476  36.080  10.320   6.755
 8553POPC   C3B39477  36.117  10.314   7.055
 8553POPC   C4B39478  36.087  10.291   7.355
 8554POPC   NC339479  14.449  13.659   5.555
 8554POPC   PO439480  14.417  13.632   5.855
 8554POPC   GL139481  14.438  13.601   6.155
 8554POPC   GL239482  14.260  13.557   6.155
 8554POPC   C1A39483  14.433  13.620   6.455
 8554POPC   D2A39484  14.449  13.589   6.755
 8554POPC   C3A39485  14.415  13.641   7.055
 8554POPC   C4A39486  14.375  13.658   7.355
 8554POPC   C1B39487  14.199  13.566   6.455
 8554POPC   C2B39488  14.225  13.531   6.755
 8554POPC   C3B39489  14.152  13.475   7.055
 8554POPC   C4B39490  14.167  13.553   7.355
 8555POPC   NC339491  30.702   8.946   5.555
 8555POPC   PO439492  30.686   8.992   5.855
 8555POPC   GL139493  30.718   8.980   6.155
 8555POPC   GL239494  30.742   8.851   6.155
 8555POPC   C1A39495  30.708   9.015   6.455
 8555POPC   D2A39496  30.697   9.016   6.755
 8555POPC   C3A39497  30.662   9.003   7.055
 8555POPC   C4A39498  30.649   8.994   7.355
 8555POPC   C1B39499  30.834   8.749   6.455
 8555POPC   C2B39500  30.853   8.800   6.755
 8555POPC   C3B39501  30.894   8.796   7.055
 8555POPC   C4B39502  30.869   8.764   7.355
 8556POPC   NC339503   8.225   3.529   5.555
 8556POPC   PO439504   8.194   3.512   5.855
 8556POPC   GL139505   8.223   3.581   6.155
 8556POPC   GL239506   8.263   3.662   6.155
 8556POPC   C1A39507   8.230   3.559   6.455
 8556POPC   D2A39508   8.204   3.585   6.755
 8556POPC   C3A39509   8.159   3.564   7.055
 8556POPC   C4A39510   8.148   3.538   7.355
 8556POPC   C1B39511   8.340   3.803   6.455
 8556POPC   C2B39512   8.319   3.724   6.755
 8556POPC   C3B39513   8.295   3.782   7.055
 8556POPC   C4B39514   8.338   3.740   7.355
 8557POPC   NC339515   0.450  13.612   5.555
 8557POPC   PO439516   0.393  13.582   5.855
 8557POPC   GL139517   0.464  13.668   6.155
 8557POPC   GL239518   0.378  13.526   6.155
 8557POPC   C1A39519   0.388  13.659   6.455
 8557POPC   D2A39520   0.474  13.595   6.755
 8557POPC   C3A39521   0.432  13.631   7.055
 8557POPC   C4A39522   0.464  13.657   7.355
 8557POPC   C1B39523   0.365  13.399   6.455
 8557POPC   C2B39524   0.359  13.359   6.755
 8557POPC   C3B39525   0.349  13.407   7.055
 8557POPC   C4B39526   0.350  13.390   7.355
 8558POPC   NC339527  41.568   1.997   5.555
 8558POPC   PO439528  41.571   2.038   5.855
 8558POPC   GL139529  41.595   1.965   6.155
 8558POPC   GL239530  41.551   1.882   6.155
 8558POPC   C1A39531  41.567   2.026   6.455
 8558POPC   D2A39532  41.572   1.949   6.755
 8558POPC   C3A39533  41.548   1.961   7.055
 8558POPC   C4A39534  41.560   1.943   7.355
 8558POPC   C1B39535  41.518   1.709   6.455
 8558POPC   C2B39536  41.483   1.712   6.755
 8558POPC   C3B39537  41.496   1.707   7.055
 8558POPC   C4B39538  41.458   1.711   7.355
 8559POPC   NC339539  15.180  11.343   5.555
 8559POPC   PO439540  15.152  11.313   5.855
 8559POPC   GL139541  15.183  11.274   6.155
 8559POPC   GL239542  15.105  11.219   6.155
 8559POPC   C1A39543  15.174  11.350   6.455
 8559POPC   D2A39544  15.187  11.259   6.755
 8559POPC   C3A39545  15.210  11.292   7.055
 8559POPC   C4A39546  15.134  11.325   7.355
 8559POPC   C1B39547  14.994  11.193   6.455
 8559POPC   C2B39548  14.990  11.207   6.755
 8559POPC   C3B39549  15.010  11.202   7.055
 8559POPC   C4B39550  14.983  11.120   7.355
 8560POPC   NC339551  13.589  17.539   5.555
 8560POPC   PO439552  13.619  17.463   5.855
 8560POPC   GL139553  13.637  17.497   6.155
 8560POPC   GL239554  13.590  17.637   6.155
 8560POPC   C1A39555  13.658  17.491   6.455
 8560POPC   D2A39556  13.658  17.502   6.755
 8560POPC   C3A39557  13.585  17.481   7.055
 8560POPC   C4A39558  13.595  17.519   7.355
 8560POPC   C1B39559  13.584  17.741   6.455
 8560POPC   C2B39560  13.618  17.757   6.755
 8560POPC   C3B39561  13.642  17.774   7.055
 8560POPC   C4B39562  13.552  17.711   7.355
 8561POPC   NC339563  36.869  17.460   5.555
 8561POPC   PO439564  36.855  17.525   5.855
 8561POPC   GL139565  36.915  17.546   6.155
 8561POPC   GL239566  36.825  17.425   6.155
 8561POPC   C1A39567  36.872  17.545   6.455
 8561POPC   D2A39568  36.941  17.474   6.755
 8561POPC   C3A39569  36.888  17.479   7.055
 8561POPC   C4A39570  36.896  17.552   7.355
 8561POPC   C1B39571  36.661  17.334   6.455
 8561POPC   C2B39572  36.697  17.379   6.755
 8561POPC   C3B39573  36.672  17.406   7.055
 8561POPC   C4B39574  36.689  17.358   7.355
 8562POPC   NC339575  39.253  40.038   5.555
 8562POPC   PO439576  39.219  40.054   5.855
 8562POPC   GL139577  39.271  39.967   6.155
 8562POPC   GL239578  39.226  40.083   6.155
 8562POPC   C1A39579  39.200  39.978   6.455
 8562POPC   D2A39580  39.201  39.996   6.755
 8562POPC   C3A39581  39.215  40.037   7.055
 8562POPC   C4A39582  39.192  40.030   7.355
 8562POPC   C1B39583  39.179  40.225   6.455
 8562POPC   C2B39584  39.143  40.278   6.755
 8562POPC   C3B39585  39.149  40.200   7.055
 8562POPC   C4B39586  39.152  40.246   7.355
 8563POPC   NC339587  29.872  30.696   5.555
 8563POPC   PO439588  29.967  30.685   5.855
 8563POPC   GL139589  29.929  30.675   6.155
 8563POPC   GL239590  29.942  30.556   6.155
 8563POPC   C1A39591  29.957  30.677   6.455
 8563POPC   D2A39592  29.971  30.711   6.755
 8563POPC   C3A39593  29.941  30.736   7.055
 8563POPC   C4A39594  29.963  30.647   7.355
 8563POPC   C1B39595  30.024  30.446   6.455
 8563POPC   C2B39596  29.969  30.482   6.755
 8563POPC   C3B39597  30.039  30.479   7.055
 8563POPC   C4B39598  29.983  30.447   7.355
 8564POPC   NC339599   9.784   9.730   5.555
 8564POPC   PO439600   9.748   9.719   5.855
 8564POPC   GL139601   9.795   9.730   6.155
 8564POPC   GL239602   9.700   9.613   6.155
 8564POPC   C1A39603   9.769   9.731   6.455
 8564POPC   D2A39604   9.763   9.738   6.755
 8564POPC   C3A39605   9.734   9.722   7.055
 8564POPC   C4A39606   9.702   9.706   7.355
 8564POPC   C1B39607   9.756   9.536   6.455
 8564POPC   C2B39608   9.747   9.535   6.755
 8564POPC   C3B39609   9.677   9.470   7.055
 8564POPC   C4B39610   9.753   9.461   7.355
 8565POPC   NC339611  33.072  18.324   5.555
 8565POPC   PO439612  33.005  18.296   5.855
 8565POPC   GL139613  33.046  18.250   6.155
 8565POPC   GL239614  32.869  18.303   6.155
 8565POPC   C1A39615  33.041  18.270   6.455
 8565POPC   D2A39616  33.018  18.271   6.755
 8565POPC   C3A39617  33.067  18.323   7.055
 8565POPC   C4A39618  33.012  18.258   7.355
 8565POPC   C1B39619  32.762  18.443   6.455
 8565POPC   C2B39620  32.809  18.376   6.755
 8565POPC   C3B39621  32.775  18.426   7.055
 8565POPC   C4B39622  32.767  18.419   7.355
 8566POPC   NC339623  13.633  22.981   5.555
 8566POPC   PO439624  13.601  22.934   5.855
 8566POPC   GL139625  13.579  22.983   6.155
 8566POPC   GL239626  13.630  22.835   6.155
 8566POPC   C1A39627  13.628  22.943   6.455
 8566POPC   D2A39628  13.584  22.946   6.755
 8566POPC   C3A39629  13.667  22.897   7.055
 8566POPC   C4A39630  13.628  22.969   7.355
 8566POPC   C1B39631  13.674  22.684   6.455
 8566POPC   C2B39632  13.614  22.648   6.755
 8566POPC   C3B39633  13.619  22.693   7.055
 8566POPC   C4B39634  13.624  22.661   7.355
 8567POPC   NC339635  29.928  37.689   5.555
 8567POPC   PO439636  29.953  37.644   5.855
 8567POPC   GL139637  29.946  37.685   6.155
 8567POPC   GL239638  29.838  37.566   6.155
 8567POPC   C1A39639  29.932  37.696   6.455
 8567POPC   D2A39640  29.926  37.660   6.755
 8567POPC   C3A39641  29.945  37.690   7.055
 8567POPC   C4A39642  29.922  37.708   7.355
 8567POPC   C1B39643  29.840  37.493   6.455
 8567POPC   C2B39644  29.834  37.456   6.755
 8567POPC   C3B39645  29.836  37.509   7.055
 8567POPC   C4B39646  29.827  37.503   7.355
 8568POPC   NC339647   1.214  36.891   5.555
 8568POPC   PO439648   1.238  36.861   5.855
 8568POPC   GL139649   1.246  36.891   6.155
 8568POPC   GL239650   1.343  36.883   6.155
 8568POPC   C1A39651   1.198  36.866   6.455
 8568POPC   D2A39652   1.224  36.930   6.755
 8568POPC   C3A39653   1.195  36.856   7.055
 8568POPC   C4A39654   1.168  36.907   7.355
 8568POPC   C1B39655   1.434  36.867   6.455
 8568POPC   C2B39656   1.457  36.874   6.755
 8568POPC   C3B39657   1.485  36.945   7.055
 8568POPC   C4B39658   1.460  36.951   7.355
 8569POPC   NC339659  27.584  19.081   5.555
 8569POPC   PO439660  27.547  19.031   5.855
 8569POPC   GL139661  27.612  19.009   6.155
 8569POPC   GL239662  27.731  19.059   6.155
 8569POPC   C1A39663  27.626  19.032   6.455
 8569POPC   D2A39664  27.551  19.044   6.755
 8569POPC   C3A39665  27.574  19.088   7.055
 8569POPC   C4A39666  27.605  19.032   7.355
 8569POPC   C1B39667  27.791  19.178   6.455
 8569POPC   C2B39668  27.795  19.110   6.755
 8569POPC   C3B39669  27.799  19.136   7.055
 8569POPC   C4B39670  27.849  19.151   7.355
 8570POPC   NC339671  38.439  29.969   5.555
 8570POPC   PO439672  38.433  29.916   5.855
 8570POPC   GL139673  38.470  29.943   6.155
 8570POPC   GL239674  38.502  29.870   6.155
 8570POPC   C1A39675  38.415  29.956   6.455
 8570POPC   D2A39676  38.458  29.934   6.755
 8570POPC   C3A39677  38.468  29.906   7.055
 8570POPC   C4A39678  38.463  29.936   7.355
 8570POPC   C1B39679  38.675  29.721   6.455
 8570POPC   C2B39680  38.614  29.722   6.755
 8570POPC   C3B39681  38.645  29.699   7.055
 8570POPC   C4B39682  38.675  29.726   7.355
 8571POPC   NC339683  17.522  11.304   5.555
 8571POPC   PO439684  17.554  11.307   5.855
 8571POPC   GL139685  17.506  11.252   6.155
 8571POPC   GL239686  17.377  11.378   6.155
 8571POPC   C1A39687  17.465  11.263   6.455
 8571POPC   D2A39688  17.471  11.345   6.755
 8571POPC   C3A39689  17.526  11.264   7.055
 8571POPC   C4A39690  17.512  11.267   7.355
 8571POPC   C1B39691  17.306  11.423   6.455
 8571POPC   C2B39692  17.296  11.369   6.755
 8571POPC   C3B39693  17.302  11.363   7.055
 8571POPC   C4B39694  17.271  11.407   7.355
 8572POPC   NC339695  12.836  37.724   5.555
 8572POPC   PO439696  12.805  37.632   5.855
 8572POPC   GL139697  12.814  37.713   6.155
 8572POPC   GL239698  12.695  37.618   6.155
 8572POPC   C1A39699  12.880  37.644   6.455
 8572POPC   D2A39700  12.890  37.693   6.755
 8572POPC   C3A39701  12.855  37.656   7.055
 8572POPC   C4A39702  12.899  37.678   7.355
 8572POPC   C1B39703  12.618  37.616   6.455
 8572POPC   C2B39704  12.641  37.579   6.755
 8572POPC   C3B39705  12.625  37.575   7.055
 8572POPC   C4B39706  12.607  37.554   7.355
 8573POPC   NC339707  21.351  19.883   5.555
 8573POPC   PO439708  21.347  19.822   5.855
 8573POPC   GL139709  21.421  19.830   6.155
 8573POPC   GL239710  21.296  19.895   6.155
 8573POPC   C1A39711  21.398  19.882   6.455
 8573POPC   D2A39712  21.381  19.837   6.755
 8573POPC   C3A39713  21.410  19.788   7.055
 8573POPC   C4A39714  21.354  19.822   7.355
 8573POPC   C1B39715  21.112  19.894   6.455
 8573POPC   C2B39716  21.200  19.872   6.755
 8573POPC   C3B39717  21.119  19.911   7.055
 8573POPC   C4B39718  21.186  19.951   7.355
 8574POPC   NC339719  44.661  14.356   5.555
 8574POPC   PO439720  44.664  14.404   5.855
 8574POPC   GL139721  44.673  14.447   6.155
 8574POPC   GL239722  44.516  14.407   6.155
 8574POPC   C1A39723  44.711  14.423   6.455
 8574POPC   D2A39724  44.656  14.395   6.755
 8574POPC   C3A39725  44.636  14.418   7.055
 8574POPC   C4A39726  44.672  14.387   7.355
 8574POPC   C1B39727  44.375  14.368   6.455
 8574POPC   C2B39728  44.402  14.332   6.755
 8574POPC   C3B39729  44.423  14.347   7.055
 8574POPC   C4B39730  44.395  14.317   7.355
 8575POPC   NC339731  15.993  31.451   5.555
 8575POPC   PO439732  15.970  31.480   5.855
 8575POPC   GL139733  15.987  31.435   6.155
 8575POPC   GL239734  15.912  31.562   6.155
 8575POPC   C1A39735  15.997  31.470   6.455
 8575POPC   D2A39736  15.948  31.482   6.755
 8575POPC   C3A39737  15.911  31.470   7.055
 8575POPC   C4A39738  15.942  31.425   7.355
 8575POPC   C1B39739  15.800  31.698   6.455
 8575POPC   C2B39740  15.809  31.640   6.755
 8575POPC   C3B39741  15.798  31.711   7.055
 8575POPC   C4B39742  15.789  31.643   7.355
 8576POPC   NC339743  11.338  28.417   5.555
 8576POPC   PO439744  11.265  28.398   5.855
 8576POPC   GL139745  11.310  28.377   6.155
 8576POPC   GL239746  11.420  28.433   6.155
 8576POPC   C1A39747  11.260  28.329   6.455
 8576POPC   D2A39748  11.269  28.370   6.755
 8576POPC   C3A39749  11.330  28.417   7.055
 8576POPC   C4A39750  11.285  28.330   7.355
 8576POPC   C1B39751  11.410  28.562   6.455
 8576POPC   C2B39752  11.490  28.612   6.755
 8576POPC   C3B39753  11.409  28.590   7.055
 8576POPC   C4B39754  11.488  28.529   7.355
 8577POPC   NC339755  15.201  17.465   5.555
 8577POPC   PO439756  15.173  17.521   5.855
 8577POPC   GL139757  15.129  17.499   6.155
 8577POPC   GL239758  15.212  17.579   6.155
 8577POPC   C1A39759  15.144  17.465   6.455
 8577POPC   D2A39760  15.208  17.489   6.755
 8577POPC   C3A39761  15.157  17.547   7.055
 8577POPC   C4A39762  15.188  17.499   7.355
 8577POPC   C1B39763  15.379  17.720   6.455
 8577POPC   C2B39764  15.299  17.749   6.755
 8577POPC   C3B39765  15.317  17.690   7.055
 8577POPC   C4B39766  15.322  17.711   7.355
 8578POPC   NC339767  40.021  13.611   5.555
 8578POPC   PO439768  40.053  13.601   5.855
 8578POPC   GL139769  40.019  13.625   6.155
 8578POPC   GL239770  40.075  13.512   6.155
 8578POPC   C1A39771  39.961  13.673   6.455
 8578POPC   D2A39772  39.999  13.592   6.755
 8578POPC   C3A39773  39.987  13.612   7.055
 8578POPC   C4A39774  39.983  13.649   7.355
 8578POPC   C1B39775  40.253  13.498   6.455
 8578POPC   C2B39776  40.221  13.468   6.755
 8578POPC   C3B39777  40.173  13.480   7.055
 8578POPC   C4B39778  40.241  13.539   7.355
 8579POPC   NC339779  38.420   1.191   5.555
 8579POPC   PO439780  38.502   1.185   5.855
 8579POPC   GL139781  38.488   1.199   6.155
 8579POPC   GL239782  38.417   1.093   6.155
 8579POPC   C1A39783  38.476   1.176   6.455
 8579POPC   D2A39784  38.505   1.226   6.755
 8579POPC   C3A39785  38.426   1.189   7.055
 8579POPC   C4A39786  38.413   1.192   7.355
 8579POPC   C1B39787  38.284   1.033   6.455
 8579POPC   C2B39788  38.301   0.984   6.755
 8579POPC   C3B39789  38.328   1.015   7.055
 8579POPC   C4B39790  38.269   0.995   7.355
 8580POPC   NC339791  19.066  26.053   5.555
 8580POPC   PO439792  19.108  26.079   5.855
 8580POPC   GL139793  19.097  26.064   6.155
 8580POPC   GL239794  19.083  25.897   6.155
 8580POPC   C1A39795  19.108  26.082   6.455
 8580POPC   D2A39796  19.044  26.082   6.755
 8580POPC   C3A39797  19.010  25.998   7.055
 8580POPC   C4A39798  19.097  26.003   7.355
 8580POPC   C1B39799  19.216  25.854   6.455
 8580POPC   C2B39800  19.165  25.856   6.755
 8580POPC   C3B39801  19.217  25.799   7.055
 8580POPC   C4B39802  19.217  25.859   7.355
 8581POPC   NC339803  18.243  29.190   5.555
 8581POPC   PO439804  18.262  29.106   5.855
 8581POPC   GL139805  18.328  29.178   6.155
 8581POPC   GL239806  18.390  29.089   6.155
 8581POPC   C1A39807  18.263  29.124   6.455
 8581POPC   D2A39808  18.313  29.181   6.755
 8581POPC   C3A39809  18.327  29.183   7.055
 8581POPC   C4A39810  18.304  29.139   7.355
 8581POPC   C1B39811  18.438  28.996   6.455
 8581POPC   C2B39812  18.455  29.012   6.755
 8581POPC   C3B39813  18.445  29.000   7.055
 8581POPC   C4B39814  18.493  28.930   7.355
 8582POPC   NC339815  15.942   6.657   5.555
 8582POPC   PO439816  15.982   6.643   5.855
 8582POPC   GL139817  15.989   6.671   6.155
 8582POPC   GL239818  16.099   6.733   6.155
 8582POPC   C1A39819  15.961   6.630   6.455
 8582POPC   D2A39820  15.975   6.687   6.755
 8582POPC   C3A39821  15.970   6.651   7.055
 8582POPC   C4A39822  15.913   6.636   7.355
 8582POPC   C1B39823  16.154   6.775   6.455
 8582POPC   C2B39824  16.134   6.764   6.755
 8582POPC   C3B39825  16.198   6.761   7.055
 8582POPC   C4B39826  16.219   6.789   7.355
 8583POPC   NC339827  43.879   3.505   5.555
 8583POPC   PO439828  43.856   3.519   5.855
 8583POPC   GL139829  43.902   3.494   6.155
 8583POPC   GL239830  43.977   3.491   6.155
 8583POPC   C1A39831  43.841   3.572   6.455
 8583POPC   D2A39832  43.874   3.578   6.755
 8583POPC   C3A39833  43.845   3.572   7.055
 8583POPC   C4A39834  43.906   3.513   7.355
 8583POPC   C1B39835  44.156   3.505   6.455
 8583POPC   C2B39836  44.083   3.469   6.755
 8583POPC   C3B39837  44.115   3.495   7.055
 8583POPC   C4B39838  44.156   3.510   7.355
 8584POPC   NC339839   5.873   9.719   5.555
 8584POPC   PO439840   5.876   9.717   5.855
 8584POPC   GL139841   5.829   9.771   6.155
 8584POPC   GL239842   5.851   9.607   6.155
 8584POPC   C1A39843   5.837   9.722   6.455
 8584POPC   D2A39844   5.857   9.768   6.755
 8584POPC   C3A39845   5.857   9.749   7.055
 8584POPC   C4A39846   5.834   9.780   7.355
 8584POPC   C1B39847   5.815   9.461   6.455
 8584POPC   C2B39848   5.861   9.458   6.755
 8584POPC   C3B39849   5.784   9.507   7.055
 8584POPC   C4B39850   5.819   9.453   7.355
 8585POPC   NC339851  35.360   1.188   5.555
 8585POPC   PO439852  35.365   1.187   5.855
 8585POPC   GL139853  35.382   1.240   6.155
 8585POPC   GL239854  35.252   1.141   6.155
 8585POPC   C1A39855  35.338   1.184   6.455
 8585POPC   D2A39856  35.395   1.213   6.755
 8585POPC   C3A39857  35.382   1.216   7.055
 8585POPC   C4A39858  35.306   1.258   7.355
 8585POPC   C1B39859  35.197   0.987   6.455
 8585POPC   C2B39860  35.206   1.028   6.755
 8585POPC   C3B39861  35.146   1.032   7.055
 8585POPC   C4B39862  35.226   1.030   7.355
 8586POPC   NC339863  15.944   5.841   5.555
 8586POPC   PO439864  16.003   5.919   5.855
 8586POPC   GL139865  15.936   5.855   6.155
 8586POPC   GL239866  15.903   6.000   6.155
 8586POPC   C1A39867  15.938   5.904   6.455
 8586POPC   D2A39868  15.932   5.878   6.755
 8586POPC   C3A39869  15.909   5.843   7.055
 8586POPC   C4A39870  15.991   5.906   7.355
 8586POPC   C1B39871  15.856   6.066   6.455
 8586POPC   C2B39872  15.865   6.110   6.755
 8586POPC   C3B39873  15.819   6.064   7.055
 8586POPC   C4B39874  15.864   6.127   7.355
 8587POPC   NC339875   6.657  42.290   5.555
 8587POPC   PO439876   6.605  42.342   5.855
 8587POPC   GL139877   6.629  42.309   6.155
 8587POPC   GL239878   6.606  42.462   6.155
 8587POPC   C1A39879   6.607  42.291   6.455
 8587POPC   D2A39880   6.609  42.359   6.755
 8587POPC   C3A39881   6.690  42.288   7.055
 8587POPC   C4A39882   6.655  42.383   7.355
 8587POPC   C1B39883   6.532  42.526   6.455
 8587POPC   C2B39884   6.469  42.546   6.755
 8587POPC   C3B39885   6.517  42.565   7.055
 8587POPC   C4B39886   6.521  42.572   7.355
 8588POPC   NC339887  29.934  20.577   5.555
 8588POPC   PO439888  29.882  20.632   5.855
 8588POPC   GL139889  29.918  20.642   6.155
 8588POPC   GL239890  29.911  20.715   6.155
 8588POPC   C1A39891  29.920  20.653   6.455
 8588POPC   D2A39892  29.875  20.605   6.755
 8588POPC   C3A39893  29.939  20.585   7.055
 8588POPC   C4A39894  29.958  20.660   7.355
 8588POPC   C1B39895  29.845  20.857   6.455
 8588POPC   C2B39896  29.867  20.840   6.755
 8588POPC   C3B39897  29.856  20.905   7.055
 8588POPC   C4B39898  29.885  20.891   7.355
 8589POPC   NC339899   4.301  11.254   5.555
 8589POPC   PO439900   4.315  11.315   5.855
 8589POPC   GL139901   4.328  11.294   6.155
 8589POPC   GL239902   4.311  11.159   6.155
 8589POPC   C1A39903   4.350  11.255   6.455
 8589POPC   D2A39904   4.322  11.259   6.755
 8589POPC   C3A39905   4.357  11.339   7.055
 8589POPC   C4A39906   4.332  11.321   7.355
 8589POPC   C1B39907   4.277  11.031   6.455
 8589POPC   C2B39908   4.319  11.067   6.755
 8589POPC   C3B39909   4.288  11.092   7.055
 8589POPC   C4B39910   4.335  11.060   7.355
 8590POPC   NC339911  26.035  37.688   5.555
 8590POPC   PO439912  26.066  37.679   5.855
 8590POPC   GL139913  26.049  37.644   6.155
 8590POPC   GL239914  26.048  37.789   6.155
 8590POPC   C1A39915  25.997  37.665   6.455
 8590POPC   D2A39916  26.071  37.716   6.755
 8590POPC   C3A39917  26.087  37.705   7.055
 8590POPC   C4A39918  26.036  37.663   7.355
 8590POPC   C1B39919  25.957  37.901   6.455
 8590POPC   C2B39920  25.982  37.884   6.755
 8590POPC   C3B39921  25.963  37.895   7.055
 8590POPC   C4B39922  25.992  37.921   7.355
 8591POPC   NC339923  35.325   9.751   5.555
 8591POPC   PO439924  35.312   9.768   5.855
 8591POPC   GL139925  35.364   9.725   6.155
 8591POPC   GL239926  35.486   9.681   6.155
 8591POPC   C1A39927  35.373   9.718   6.455
 8591POPC   D2A39928  35.387   9.714   6.755
 8591POPC   C3A39929  35.354   9.703   7.055
 8591POPC   C4A39930  35.358   9.787   7.355
 8591POPC   C1B39931  35.563   9.561   6.455
 8591POPC   C2B39932  35.549   9.601   6.755
 8591POPC   C3B39933  35.515   9.551   7.055
 8591POPC   C4B39934  35.571   9.611   7.355
 8592POPC   NC339935  16.756  44.621   5.555
 8592POPC   PO439936  16.747  44.661   5.855
 8592POPC   GL139937  16.748  44.681   6.155
 8592POPC   GL239938  16.807  44.809   6.155
 8592POPC   C1A39939  16.683  44.632   6.455
 8592POPC   D2A39940  16.733  44.690   6.755
 8592POPC   C3A39941  16.744  44.616   7.055
 8592POPC   C4A39942  16.746  44.618   7.355
 8592POPC   C1B39943  16.820  44.919   6.455
 8592POPC   C2B39944  16.900  44.878   6.755
 8592POPC   C3B39945  16.881  44.893   7.055
 8592POPC   C4B39946  16.897  44.894   7.355
 8593POPC   NC339947   8.925  22.945   5.555
 8593POPC   PO439948   8.951  22.902   5.855
 8593POPC   GL139949   8.935  22.971   6.155
 8593POPC   GL239950   9.023  23.034   6.155
 8593POPC   C1A39951   8.961  22.898   6.455
 8593POPC   D2A39952   8.971  22.890   6.755
 8593POPC   C3A39953   9.015  22.938   7.055
 8593POPC   C4A39954   8.934  22.969   7.355
 8593POPC   C1B39955   9.049  23.208   6.455
 8593POPC   C2B39956   9.032  23.122   6.755
 8593POPC   C3B39957   9.093  23.214   7.055
 8593POPC   C4B39958   9.043  23.185   7.355
 8594POPC   NC339959   2.023  40.033   5.555
 8594POPC   PO439960   2.004  40.002   5.855
 8594POPC   GL139961   1.945  40.049   6.155
 8594POPC   GL239962   1.972  40.165   6.155
 8594POPC   C1A39963   1.957  40.035   6.455
 8594POPC   D2A39964   2.022  39.997   6.755
 8594POPC   C3A39965   1.978  39.957   7.055
 8594POPC   C4A39966   2.011  40.019   7.355
 8594POPC   C1B39967   2.073  40.259   6.455
 8594POPC   C2B39968   2.095  40.254   6.755
 8594POPC   C3B39969   2.003  40.226   7.055
 8594POPC   C4B39970   2.009  40.241   7.355
 8595POPC   NC339971  22.126   9.013   5.555
 8595POPC   PO439972  22.161   8.937   5.855
 8595POPC   GL139973  22.123   8.983   6.155
 8595POPC   GL239974  22.269   8.887   6.155
 8595POPC   C1A39975  22.189   8.942   6.455
 8595POPC   D2A39976  22.125   8.965   6.755
 8595POPC   C3A39977  22.185   8.929   7.055
 8595POPC   C4A39978  22.154   8.968   7.355
 8595POPC   C1B39979  22.393   8.881   6.455
 8595POPC   C2B39980  22.439   8.873   6.755
 8595POPC   C3B39981  22.365   8.921   7.055
 8595POPC   C4B39982  22.438   8.851   7.355
 8596POPC   NC339983  19.853  24.506   5.555
 8596POPC   PO439984  19.836  24.527   5.855
 8596POPC   GL139985  19.812  24.459   6.155
 8596POPC   GL239986  19.680  24.408   6.155
 8596POPC   C1A39987  19.825  24.447   6.455
 8596POPC   D2A39988  19.860  24.495   6.755
 8596POPC   C3A39989  19.845  24.456   7.055
 8596POPC   C4A39990  19.810  24.458   7.355
 8596POPC   C1B39991  19.591  24.361   6.455
 8596POPC   C2B39992  19.642  24.365   6.755
 8596POPC   C3B39993  19.565  24.368   7.055
 8596POPC   C4B39994  19.636  24.385   7.355
 8597POPC   NC339995  16.686  15.208   5.555
 8597POPC   PO439996  16.703  15.193   5.855
 8597POPC   GL139997  16.755  15.193   6.155
 8597POPC   GL239998  16.670  15.302   6.155
 8597POPC   C1A39999  16.724  15.164   6.455
 8597POPC   D2A40000  16.755  15.177   6.755
 8597POPC   C3A40001  16.711  15.178   7.055
 8597POPC   C4A40002  16.691  15.202   7.355
 8597POPC   C1B40003  16.707  15.454   6.455
 8597POPC   C2B40004  16.670  15.476   6.755
 8597POPC   C3B40005  16.710  15.446   7.055
 8597POPC   C4B40006  16.730  15.447   7.355
 8598POPC   NC340007  39.202  18.261   5.555
 8598POPC   PO440008  39.232  18.239   5.855
 8598POPC   GL140009  39.265  18.267   6.155
 8598POPC   GL240010  39.348  18.230   6.155
 8598POPC   C1A40011  39.208  18.256   6.455
 8598POPC   D2A40012  39.239  18.272   6.755
 8598POPC   C3A40013  39.255  18.315   7.055
 8598POPC   C4A40014  39.215  18.246   7.355
 8598POPC   C1B40015  39.410  18.138   6.455
 8598POPC   C2B40016  39.420  18.175   6.755
 8598POPC   C3B40017  39.399  18.142   7.055
 8598POPC   C4B40018  39.484  18.171   7.355
 8599POPC   NC340019   7.432  43.906   5.555
 8599POPC   PO440020   7.412  43.905   5.855
 8599POPC   GL140021   7.382  43.912   6.155
 8599POPC   GL240022   7.288  43.852   6.155
 8599POPC   C1A40023   7.432  43.906   6.455
 8599POPC   D2A40024   7.465  43.892   6.755
 8599POPC   C3A40025   7.467  43.872   7.055
 8599POPC   C4A40026   7.423  43.848   7.355
 8599POPC   C1B40027   7.226  43.810   6.455
 8599POPC   C2B40028   7.166  43.785   6.755
 8599POPC   C3B40029   7.206  43.827   7.055
 8599POPC   C4B40030   7.185  43.826   7.355
 8600POPC   NC340031  33.006   6.601   5.555
 8600POPC   PO440032  32.981   6.669   5.855
 8600POPC   GL140033  33.021   6.616   6.155
 8600POPC   GL240034  33.104   6.684   6.155
 8600POPC   C1A40035  33.002   6.645   6.455
 8600POPC   D2A40036  33.028   6.691   6.755
 8600POPC   C3A40037  32.991   6.649   7.055
 8600POPC   C4A40038  33.036   6.616   7.355
 8600POPC   C1B40039  33.269   6.629   6.455
 8600POPC   C2B40040  33.303   6.649   6.755
 8600POPC   C3B40041  33.297   6.588   7.055
 8600POPC   C4B40042  33.293   6.668   7.355
 8601POPC   NC340043  26.780  12.054   5.555
 8601POPC   PO440044  26.850  12.031   5.855
 8601POPC   GL140045  26.781  12.083   6.155
 8601POPC   GL240046  26.677  12.089   6.155
 8601POPC   C1A40047  26.801  12.028   6.455
 8601POPC   D2A40048  26.847  12.030   6.755
 8601POPC   C3A40049  26.865  12.050   7.055
 8601POPC   C4A40050  26.847  12.046   7.355
 8601POPC   C1B40051  26.541  12.050   6.455
 8601POPC   C2B40052  26.594  12.110   6.755
 8601POPC   C3B40053  26.527  12.024   7.055
 8601POPC   C4B40054  26.564  12.049   7.355
 8602POPC   NC340055  36.134  15.953   5.555
 8602POPC   PO440056  36.107  15.975   5.855
 8602POPC   GL140057  36.083  15.922   6.155
 8602POPC   GL240058  36.021  16.077   6.155
 8602POPC   C1A40059  36.085  15.993   6.455
 8602POPC   D2A40060  36.109  15.925   6.755
 8602POPC   C3A40061  36.123  15.962   7.055
 8602POPC   C4A40062  36.113  15.966   7.355
 8602POPC   C1B40063  35.973  16.130   6.455
 8602POPC   C2B40064  36.009  16.189   6.755
 8602POPC   C3B40065  35.922  16.127   7.055
 8602POPC   C4B40066  35.919  16.135   7.355
 8603POPC   NC340067   6.688  35.395   5.555
 8603POPC   PO440068   6.633  35.328   5.855
 8603POPC   GL140069   6.596  35.387   6.155
 8603POPC   GL240070   6.755  35.382   6.155
 8603POPC   C1A40071   6.682  35.321   6.455
 8603POPC   D2A40072   6.639  35.386   6.755
 8603POPC   C3A40073   6.689  35.401   7.055
 8603POPC   C4A40074   6.633  35.315   7.355
 8603POPC   C1B40075   6.896  35.288   6.455
 8603POPC   C2B40076   6.861  35.289   6.755
 8603POPC   C3B40077   6.934  35.344   7.055
 8603POPC   C4B40078   6.864  35.343   7.355
 8604POPC   NC340079  15.951  14.413   5.555
 8604POPC   PO440080  15.976  14.451   5.855
 8604POPC   GL140081  15.925  14.451   6.155
 8604POPC   GL240082  16.054  14.497   6.155
 8604POPC   C1A40083  15.941  14.438   6.455
 8604POPC   D2A40084  15.925  14.390   6.755
 8604POPC   C3A40085  15.982  14.355   7.055
 8604POPC   C4A40086  15.954  14.393   7.355
 8604POPC   C1B40087  16.093  14.582   6.455
 8604POPC   C2B40088  16.114  14.557   6.755
 8604POPC   C3B40089  16.149  14.583   7.055
 8604POPC   C4B40090  16.090  14.624   7.355
 8605POPC   NC340091  11.310  25.231   5.555
 8605POPC   PO440092  11.289  25.276   5.855
 8605POPC   GL140093  11.346  25.309   6.155
 8605POPC   GL240094  11.188  25.408   6.155
 8605POPC   C1A40095  11.305  25.250   6.455
 8605POPC   D2A40096  11.322  25.286   6.755
 8605POPC   C3A40097  11.330  25.275   7.055
 8605POPC   C4A40098  11.299  25.237   7.355
 8605POPC   C1B40099  11.182  25.457   6.455
 8605POPC   C2B40100  11.190  25.449   6.755
 8605POPC   C3B40101  11.160  25.494   7.055
 8605POPC   C4B40102  11.184  25.464   7.355
 8606POPC   NC340103  29.953  43.103   5.555
 8606POPC   PO440104  29.895  43.088   5.855
 8606POPC   GL140105  29.883  43.153   6.155
 8606POPC   GL240106  29.769  43.101   6.155
 8606POPC   C1A40107  29.886  43.144   6.455
 8606POPC   D2A40108  29.896  43.097   6.755
 8606POPC   C3A40109  29.933  43.086   7.055
 8606POPC   C4A40110  29.895  43.111   7.355
 8606POPC   C1B40111  29.665  43.098   6.455
 8606POPC   C2B40112  29.633  43.145   6.755
 8606POPC   C3B40113  29.628  43.103   7.055
 8606POPC   C4B40114  29.673  43.177   7.355
 8607POPC   NC340115  40.798  26.781   5.555
 8607POPC   PO440116  40.813  26.808   5.855
 8607POPC   GL140117  40.831  26.816   6.155
 8607POPC   GL240118  40.768  26.964   6.155
 8607POPC   C1A40119  40.816  26.815   6.455
 8607POPC   D2A40120  40.808  26.809   6.755
 8607POPC   C3A40121  40.802  26.799   7.055
 8607POPC   C4A40122  40.832  26.824   7.355
 8607POPC   C1B40123  40.675  27.066   6.455
 8607POPC   C2B40124  40.712  27.093   6.755
 8607POPC   C3B40125  40.648  27.039   7.055
 8607POPC   C4B40126  40.688  27.021   7.355
 8608POPC   NC340127  33.063  23.714   5.555
 8608POPC   PO440128  33.069  23.748   5.855
 8608POPC   GL140129  32.990  23.753   6.155
 8608POPC   GL240130  33.110  23.688   6.155
 8608POPC   C1A40131  33.014  23.688   6.455
 8608POPC   D2A40132  33.015  23.738   6.755
 8608POPC   C3A40133  32.986  23.675   7.055
 8608POPC   C4A40134  32.976  23.715   7.355
 8608POPC   C1B40135  33.219  23.669   6.455
 8608POPC   C2B40136  33.293  23.619   6.755
 8608POPC   C3B40137  33.274  23.653   7.055
 8608POPC   C4B40138  33.292  23.604   7.355
 8609POPC   NC340139  26.019   7.414   5.555
 8609POPC   PO440140  26.030   7.399   5.855
 8609POPC   GL140141  26.059   7.379   6.155
 8609POPC   GL240142  26.039   7.251   6.155
 8609POPC   C1A40143  26.010   7.467   6.455
 8609POPC   D2A40144  26.076   7.389   6.755
 8609POPC   C3A40145  26.038   7.443   7.055
 8609POPC   C4A40146  26.065   7.430   7.355
 8609POPC   C1B40147  26.084   7.160   6.455
 8609POPC   C2B40148  26.119   7.205   6.755
 8609POPC   C3B40149  26.083   7.202   7.055
 8609POPC   C4B40150  26.125   7.143   7.355
 8610POPC   NC340151  15.993  12.895   5.555
 8610POPC   PO440152  15.916  12.846   5.855
 8610POPC   GL140153  15.918  12.831   6.155
 8610POPC   GL240154  15.910  12.759   6.155
 8610POPC   C1A40155  15.971  12.852   6.455
 8610POPC   D2A40156  15.910  12.866   6.755
 8610POPC   C3A40157  15.913  12.889   7.055
 8610POPC   C4A40158  15.939  12.834   7.355
 8610POPC   C1B40159  15.922  12.614   6.455
 8610POPC   C2B40160  15.915  12.652   6.755
 8610POPC   C3B40161  15.887  12.578   7.055
 8610POPC   C4B40162  15.944  12.653   7.355
 8611POPC   NC340163   5.891  26.774   5.555
 8611POPC   PO440164   5.824  26.813   5.855
 8611POPC   GL140165   5.837  26.850   6.155
 8611POPC   GL240166   5.998  26.839   6.155
 8611POPC   C1A40167   5.912  26.848   6.455
 8611POPC   D2A40168   5.827  26.769   6.755
 8611POPC   C3A40169   5.827  26.833   7.055
 8611POPC   C4A40170   5.875  26.853   7.355
 8611POPC   C1B40171   6.129  26.940   6.455
 8611POPC   C2B40172   6.089  26.926   6.755
 8611POPC   C3B40173   6.087  26.888   7.055
 8611POPC   C4B40174   6.137  26.899   7.355
 8612POPC   NC340175  33.836   8.203   5.555
 8612POPC   PO440176  33.789   8.173   5.855
 8612POPC   GL140177  33.753   8.147   6.155
 8612POPC   GL240178  33.872   8.102   6.155
 8612POPC   C1A40179  33.844   8.182   6.455
 8612POPC   D2A40180  33.787   8.227   6.755
 8612POPC   C3A40181  33.753   8.227   7.055
 8612POPC   C4A40182  33.791   8.204   7.355
 8612POPC   C1B40183  33.953   7.963   6.455
 8612POPC   C2B40184  33.958   7.977   6.755
 8612POPC   C3B40185  33.902   7.965   7.055
 8612POPC   C4B40186  33.917   7.946   7.355
 8613POPC   NC340187  29.165  44.670   5.555
 8613POPC   PO440188  29.148  44.695   5.855
 8613POPC   GL140189  29.119  44.651   6.155
 8613POPC   GL240190  29.187  44.562   6.155
 8613POPC   C1A40191  29.192  44.675   6.455
 8613POPC   D2A40192  29.176  44.647   6.755
 8613POPC   C3A40193  29.169  44.663   7.055
 8613POPC   C4A40194  29.134  44.660   7.355
 8613POPC   C1B40195  29.270  44.414   6.455
 8613POPC   C2B40196  29.278  44.459   6.755
 8613POPC   C3B40197  29.281  44.437   7.055
 8613POPC   C4B40198  29.325  44.483   7.355
 8614POPC   NC340199  21.364  27.548   5.555
 8614POPC   PO440200  21.352  27.632   5.855
 8614POPC   GL140201  21.385  27.548   6.155
 8614POPC   GL240202  21.455  27.516   6.155
 8614POPC   C1A40203  21.361  27.567   6.455
 8614POPC   D2A40204  21.420  27.579   6.755
 8614POPC   C3A40205  21.355  27.599   7.055
 8614POPC   C4A40206  21.418  27.592   7.355
 8614POPC   C1B40207  21.621  27.470   6.455
 8614POPC   C2B40208  21.645  27.456   6.755
 8614POPC   C3B40209  21.600  27.515   7.055
 8614POPC   C4B40210  21.651  27.465   7.355
 8615POPC   NC340211  36.879   1.209   5.555
 8615POPC   PO440212  36.902   1.263   5.855
 8615POPC   GL140213  36.881   1.210   6.155
 8615POPC   GL240214  36.774   1.117   6.155
 8615POPC   C1A40215  36.860   1.206   6.455
 8615POPC   D2A40216  36.866   1.212   6.755
 8615POPC   C3A40217  36.893   1.178   7.055
 8615POPC   C4A40218  36.913   1.223   7.355
 8615POPC   C1B40219  36.710   1.038   6.455
 8615POPC   C2B40220  36.730   1.079   6.755
 8615POPC   C3B40221  36.710   1.034   7.055
 8615POPC   C4B40222  36.745   1.047   7.355
 8616POPC   NC340223  12.863  15.143   5.555
 8616POPC   PO440224  12.900  15.160   5.855
 8616POPC   GL140225  12.890  15.134   6.155
 8616POPC   GL240226  12.915  15.055   6.155
 8616POPC   C1A40227  12.865  15.205   6.455
 8616POPC   D2A40228  12.836  15.157   6.755
 8616POPC   C3A40229  12.836  15.203   7.055
 8616POPC   C4A40230  12.847  15.204   7.355
 8616POPC   C1B40231  12.982  14.929   6.455
 8616POPC   C2B40232  12.929  14.958   6.755
 8616POPC   C3B40233  12.999  14.981   7.055
 8616POPC   C4B40234  12.983  14.947   7.355
 8617POPC   NC340235   6.641  10.567   5.555
 8617POPC   PO440236   6.660  10.567   5.855
 8617POPC   GL140237   6.599  10.545   6.155
 8617POPC   GL240238   6.708  10.635   6.155
 8617POPC   C1A40239   6.654  10.560   6.455
 8617POPC   D2A40240   6.685  10.538   6.755
 8617POPC   C3A40241   6.657  10.569   7.055
 8617POPC   C4A40242   6.667  10.557   7.355
 8617POPC   C1B40243   6.808  10.659   6.455
 8617POPC   C2B40244   6.832  10.684   6.755
 8617POPC   C3B40245   6.878  10.637   7.055
 8617POPC   C4B40246   6.859  10.653   7.355
 8618POPC   NC340247  14.386   6.646   5.555
 8618POPC   PO440248  14.366   6.600   5.855
 8618POPC   GL140249  14.361   6.658   6.155
 8618POPC   GL240250  14.329   6.610   6.155
 8618POPC   C1A40251  14.367   6.652   6.455
 8618POPC   D2A40252  14.441   6.622   6.755
 8618POPC   C3A40253  14.401   6.671   7.055
 8618POPC   C4A40254  14.361   6.649   7.355
 8618POPC   C1B40255  14.248   6.486   6.455
 8618POPC   C2B40256  14.208   6.453   6.755
 8618POPC   C3B40257  14.262   6.448   7.055
 8618POPC   C4B40258  14.260   6.494   7.355
 8619POPC   NC340259  25.264  22.150   5.555
 8619POPC   PO440260  25.268  22.195   5.855
 8619POPC   GL140261  25.278  22.191   6.155
 8619POPC   GL240262  25.303  22.021   6.155
 8619POPC   C1A40263  25.267  22.161   6.455
 8619POPC   D2A40264  25.314  22.153   6.755
 8619POPC   C3A40265  25.275  22.161   7.055
 8619POPC   C4A40266  25.238  22.181   7.355
 8619POPC   C1B40267  25.381  21.941   6.455
 8619POPC   C2B40268  25.380  21.921   6.755
 8619POPC   C3B40269  25.425  22.003   7.055
 8619POPC   C4B40270  25.378  21.945   7.355
 8620POPC   NC340271  26.798  26.043   5.555
 8620POPC   PO440272  26.867  26.065   5.855
 8620POPC   GL140273  26.849  26.050   6.155
 8620POPC   GL240274  26.961  26.047   6.155
 8620POPC   C1A40275  26.836  25.997   6.455
 8620POPC   D2A40276  26.783  26.066   6.755
 8620POPC   C3A40277  26.836  26.018   7.055
 8620POPC   C4A40278  26.770  26.085   7.355
 8620POPC   C1B40279  27.058  25.934   6.455
 8620POPC   C2B40280  27.055  25.913   6.755
 8620POPC   C3B40281  27.052  25.948   7.055
 8620POPC   C4B40282  27.092  25.933   7.355
 8621POPC   NC340283  23.718  18.286   5.555
 8621POPC   PO440284  23.692  18.285   5.855
 8621POPC   GL140285  23.731  18.249   6.155
 8621POPC   GL240286  23.632  18.213   6.155
 8621POPC   C1A40287  23.675  18.323   6.455
 8621POPC   D2A40288  23.710  18.258   6.755
 8621POPC   C3A40289  23.750  18.295   7.055
 8621POPC   C4A40290  23.709  18.258   7.355
 8621POPC   C1B40291  23.620  18.013   6.455
 8621POPC   C2B40292  23.632  18.030   6.755
 8621POPC   C3B40293  23.661  18.020   7.055
 8621POPC   C4B40294  23.626  18.041   7.355
 8622POPC   NC340295  25.264  39.962   5.555
 8622POPC   PO440296  25.257  39.996   5.855
 8622POPC   GL140297  25.225  40.038   6.155
 8622POPC   GL240298  25.381  39.905   6.155
 8622POPC   C1A40299  25.265  39.996   6.455
 8622POPC   D2A40300  25.294  39.997   6.755
 8622POPC   C3A40301  25.281  40.040   7.055
 8622POPC   C4A40302  25.241  40.054   7.355
 8622POPC   C1B40303  25.500  39.811   6.455
 8622POPC   C2B40304  25.473  39.852   6.755
 8622POPC   C3B40305  25.500  39.834   7.055
 8622POPC   C4B40306  25.491  39.809   7.355
 8623POPC   NC340307  19.819   8.160   5.555
 8623POPC   PO440308  19.801   8.237   5.855
 8623POPC   GL140309  19.847   8.148   6.155
 8623POPC   GL240310  19.820   8.067   6.155
 8623POPC   C1A40311  19.795   8.220   6.455
 8623POPC   D2A40312  19.853   8.212   6.755
 8623POPC   C3A40313  19.833   8.176   7.055
 8623POPC   C4A40314  19.882   8.211   7.355
 8623POPC   C1B40315  19.791   7.920   6.455
 8623POPC   C2B40316  19.812   7.992   6.755
 8623POPC   C3B40317  19.779   7.974   7.055
 8623POPC   C4B40318  19.791   7.925   7.355
 8624POPC   NC340319  18.241   5.081   5.555
 8624POPC   PO440320  18.259   5.109   5.855
 8624POPC   GL140321  18.279   5.099   6.155
 8624POPC   GL240322  18.408   5.155   6.155
 8624POPC   C1A40323  18.309   5.123   6.455
 8624POPC   D2A40324  18.315   5.100   6.755
 8624POPC   C3A40325  18.238   5.044   7.055
 8624POPC   C4A40326  18.266   5.051   7.355
 8624POPC   C1B40327  18.452   5.275   6.455
 8624POPC   C2B40328  18.487   5.286   6.755
 8624POPC   C3B40329  18.506   5.238   7.055
 8624POPC   C4B40330  18.438   5.235   7.355
 8625POPC   NC340331  16.690  25.284   5.555
 8625POPC   PO440332  16.748  25.285   5.855
 8625POPC   GL140333  16.755  25.242   6.155
 8625POPC   GL240334  16.580  25.300   6.155
 8625POPC   C1A40335  16.764  25.312   6.455
 8625POPC   D2A40336  16.771  25.288   6.755
 8625POPC   C3A40337  16.682  25.222   7.055
 8625POPC   C4A40338  16.698  25.273   7.355
 8625POPC   C1B40339  16.552  25.420   6.455
 8625POPC   C2B40340  16.508  25.413   6.755
 8625POPC   C3B40341  16.500  25.429   7.055
 8625POPC   C4B40342  16.568  25.383   7.355
 8626POPC   NC340343  30.710   2.735   5.555
 8626POPC   PO440344  30.739   2.780   5.855
 8626POPC   GL140345  30.744   2.791   6.155
 8626POPC   GL240346  30.682   2.922   6.155
 8626POPC   C1A40347  30.697   2.785   6.455
 8626POPC   D2A40348  30.728   2.774   6.755
 8626POPC   C3A40349  30.653   2.722   7.055
 8626POPC   C4A40350  30.745   2.749   7.355
 8626POPC   C1B40351  30.668   2.988   6.455
 8626POPC   C2B40352  30.708   3.018   6.755
 8626POPC   C3B40353  30.681   2.977   7.055
 8626POPC   C4B40354  30.650   3.044   7.355
 8627POPC   NC340355  36.137  34.572   5.555
 8627POPC   PO440356  36.167  34.568   5.855
 8627POPC   GL140357  36.144  34.583   6.155
 8627POPC   GL240358  35.990  34.663   6.155
 8627POPC   C1A40359  36.172  34.553   6.455
 8627POPC   D2A40360  36.167  34.582   6.755
 8627POPC   C3A40361  36.127  34.528   7.055
 8627POPC   C4A40362  36.082  34.547   7.355
 8627POPC   C1B40363  35.845  34.623   6.455
 8627POPC   C2B40364  35.934  34.636   6.755
 8627POPC   C3B40365  35.854  34.665   7.055
 8627POPC   C4B40366  35.900  34.625   7.355
 8628POPC   NC340367  39.279  28.339   5.555
 8628POPC   PO440368  39.275  28.357   5.855
 8628POPC   GL140369  39.201  28.417   6.155
 8628POPC   GL240370  39.399  28.382   6.155
 8628POPC   C1A40371  39.224  28.343   6.455
 8628POPC   D2A40372  39.251  28.332   6.755
 8628POPC   C3A40373  39.182  28.332   7.055
 8628POPC   C4A40374  39.225  28.323   7.355
 8628POPC   C1B40375  39.446  28.422   6.455
 8628POPC   C2B40376  39.514  28.361   6.755
 8628POPC   C3B40377  39.456  28.395   7.055
 8628POPC   C4B40378  39.523  28.353   7.355
 8629POPC   NC340379   8.150  19.788   5.555
 8629POPC   PO440380   8.199  19.808   5.855
 8629POPC   GL140381   8.221  19.793   6.155
 8629POPC   GL240382   8.356  19.837   6.155
 8629POPC   C1A40383   8.201  19.842   6.455
 8629POPC   D2A40384   8.233  19.821   6.755
 8629POPC   C3A40385   8.233  19.809   7.055
 8629POPC   C4A40386   8.155  19.826   7.355
 8629POPC   C1B40387   8.408  19.720   6.455
 8629POPC   C2B40388   8.445  19.810   6.755
 8629POPC   C3B40389   8.445  19.786   7.055
 8629POPC   C4B40390   8.463  19.754   7.355
 8630POPC   NC340391   6.678  26.040   5.555
 8630POPC   PO440392   6.660  26.019   5.855
 8630POPC   GL140393   6.672  25.997   6.155
 8630POPC   GL240394   6.710  26.139   6.155
 8630POPC   C1A40395   6.651  26.002   6.455
 8630POPC   D2A40396   6.678  26.076   6.755
 8630POPC   C3A40397   6.686  26.000   7.055
 8630POPC   C4A40398   6.688  26.049   7.355
 8630POPC   C1B40399   6.668  26.270   6.455
 8630POPC   C2B40400   6.692  26.263   6.755
 8630POPC   C3B40401   6.709  26.239   7.055
 8630POPC   C4B40402   6.684  26.296   7.355
 8631POPC   NC340403  12.031   9.767   5.555
 8631POPC   PO440404  12.054   9.773   5.855
 8631POPC   GL140405  12.097   9.781   6.155
 8631POPC   GL240406  12.123   9.888   6.155
 8631POPC   C1A40407  12.107   9.784   6.455
 8631POPC   D2A40408  12.073   9.725   6.755
 8631POPC   C3A40409  12.102   9.709   7.055
 8631POPC   C4A40410  12.064   9.702   7.355
 8631POPC   C1B40411  12.227   9.904   6.455
 8631POPC   C2B40412  12.264   9.989   6.755
 8631POPC   C3B40413  12.221   9.990   7.055
 8631POPC   C4B40414  12.246   9.920   7.355
 8632POPC   NC340415  25.222  11.309   5.555
 8632POPC   PO440416  25.279  11.324   5.855
 8632POPC   GL140417  25.233  11.344   6.155
 8632POPC   GL240418  25.188  11.370   6.155
 8632POPC   C1A40419  25.249  11.288   6.455
 8632POPC   D2A40420  25.295  11.259   6.755
 8632POPC   C3A40421  25.284  11.327   7.055
 8632POPC   C4A40422  25.268  11.310   7.355
 8632POPC   C1B40423  25.046  11.428   6.455
 8632POPC   C2B40424  25.063  11.421   6.755
 8632POPC   C3B40425  25.034  11.439   7.055
 8632POPC   C4B40426  25.031  11.416   7.355
 8633POPC   NC340427  20.603   9.015   5.555
 8633POPC   PO440428  20.590   8.991   5.855
 8633POPC   GL140429  20.560   9.000   6.155
 8633POPC   GL240430  20.571   9.054   6.155
 8633POPC   C1A40431  20.657   8.953   6.455
 8633POPC   D2A40432  20.635   8.979   6.755
 8633POPC   C3A40433  20.578   8.973   7.055
 8633POPC   C4A40434  20.598   8.928   7.355
 8633POPC   C1B40435  20.632   9.235   6.455
 8633POPC   C2B40436  20.567   9.178   6.755
 8633POPC   C3B40437  20.554   9.213   7.055
 8633POPC   C4B40438  20.568   9.215   7.355
 8634POPC   NC340439  12.895  43.858   5.555
 8634POPC   PO440440  12.876  43.853   5.855
 8634POPC   GL140441  12.897  43.905   6.155
 8634POPC   GL240442  12.950  43.799   6.155
 8634POPC   C1A40443  12.848  43.925   6.455
 8634POPC   D2A40444  12.804  43.882   6.755
 8634POPC   C3A40445  12.856  43.904   7.055
 8634POPC   C4A40446  12.815  43.892   7.355
 8634POPC   C1B40447  13.077  43.725   6.455
 8634POPC   C2B40448  13.015  43.761   6.755
 8634POPC   C3B40449  13.085  43.691   7.055
 8634POPC   C4B40450  13.094  43.763   7.355
 8635POPC   NC340451  22.964  20.590   5.555
 8635POPC   PO440452  22.928  20.581   5.855
 8635POPC   GL140453  22.896  20.574   6.155
 8635POPC   GL240454  23.078  20.726   6.155
 8635POPC   C1A40455  22.961  20.609   6.455
 8635POPC   D2A40456  22.897  20.657   6.755
 8635POPC   C3A40457  22.964  20.633   7.055
 8635POPC   C4A40458  22.923  20.610   7.355
 8635POPC   C1B40459  23.144  20.753   6.455
 8635POPC   C2B40460  23.190  20.751   6.755
 8635POPC   C3B40461  23.146  20.772   7.055
 8635POPC   C4B40462  23.159  20.707   7.355
 8636POPC   NC340463  40.733  40.037   5.555
 8636POPC   PO440464  40.735  40.024   5.855
 8636POPC   GL140465  40.742  40.012   6.155
 8636POPC   GL240466  40.706  39.934   6.155
 8636POPC   C1A40467  40.747  39.999   6.455
 8636POPC   D2A40468  40.765  40.034   6.755
 8636POPC   C3A40469  40.779  39.973   7.055
 8636POPC   C4A40470  40.807  40.019   7.355
 8636POPC   C1B40471  40.553  39.930   6.455
 8636POPC   C2B40472  40.579  39.912   6.755
 8636POPC   C3B40473  40.536  39.879   7.055
 8636POPC   C4B40474  40.534  39.905   7.355
 8637POPC   NC340475  35.369  26.859   5.555
 8637POPC   PO440476  35.319  26.847   5.855
 8637POPC   GL140477  35.398  26.839   6.155
 8637POPC   GL240478  35.406  26.970   6.155
 8637POPC   C1A40479  35.377  26.781   6.455
 8637POPC   D2A40480  35.340  26.823   6.755
 8637POPC   C3A40481  35.318  26.833   7.055
 8637POPC   C4A40482  35.329  26.778   7.355
 8637POPC   C1B40483  35.436  27.016   6.455
 8637POPC   C2B40484  35.474  27.014   6.755
 8637POPC   C3B40485  35.450  27.028   7.055
 8637POPC   C4B40486  35.485  27.039   7.355
 8638POPC   NC340487   5.083  43.863   5.555
 8638POPC   PO440488   5.142  43.854   5.855
 8638POPC   GL140489   5.126  43.935   6.155
 8638POPC   GL240490   5.078  43.764   6.155
 8638POPC   C1A40491   5.085  43.903   6.455
 8638POPC   D2A40492   5.064  43.844   6.755
 8638POPC   C3A40493   5.112  43.861   7.055
 8638POPC   C4A40494   5.081  43.913   7.355
 8638POPC   C1B40495   5.086  43.639   6.455
 8638POPC   C2B40496   5.034  43.675   6.755
 8638POPC   C3B40497   5.019  43.647   7.055
 8638POPC   C4B40498   5.035  43.645   7.355
 8639POPC   NC340499  20.580  17.555   5.555
 8639POPC   PO440500  20.634  17.551   5.855
 8639POPC   GL140501  20.583  17.522   6.155
 8639POPC   GL240502  20.521  17.578   6.155
 8639POPC   C1A40503  20.611  17.531   6.455
 8639POPC   D2A40504  20.654  17.505   6.755
 8639POPC   C3A40505  20.592  17.508   7.055
 8639POPC   C4A40506  20.644  17.506   7.355
 8639POPC   C1B40507  20.400  17.682   6.455
 8639POPC   C2B40508  20.399  17.668   6.755
 8639POPC   C3B40509  20.401  17.700   7.055
 8639POPC   C4B40510  20.415  17.683   7.355
 8640POPC   NC340511  20.599  13.655   5.555
 8640POPC   PO440512  20.578  13.621   5.855
 8640POPC   GL140513  20.610  13.621   6.155
 8640POPC   GL240514  20.664  13.460   6.155
 8640POPC   C1A40515  20.631  13.595   6.455
 8640POPC   D2A40516  20.626  13.673   6.755
 8640POPC   C3A40517  20.628  13.589   7.055
 8640POPC   C4A40518  20.567  13.647   7.355
 8640POPC   C1B40519  20.687  13.364   6.455
 8640POPC   C2B40520  20.649  13.351   6.755
 8640POPC   C3B40521  20.702  13.370   7.055
 8640POPC   C4B40522  20.667  13.437   7.355
 8641POPC   NC340523  41.595   1.182   5.555
 8641POPC   PO440524  41.574   1.172   5.855
 8641POPC   GL140525  41.563   1.261   6.155
 8641POPC   GL240526  41.719   1.191   6.155
 8641POPC   C1A40527  41.510   1.250   6.455
 8641POPC   D2A40528  41.579   1.176   6.755
 8641POPC   C3A40529  41.561   1.174   7.055
 8641POPC   C4A40530  41.509   1.183   7.355
 8641POPC   C1B40531  41.811   1.114   6.455
 8641POPC   C2B40532  41.835   1.121   6.755
 8641POPC   C3B40533  41.847   1.120   7.055
 8641POPC   C4B40534  41.781   1.098   7.355
 8642POPC   NC340535  15.198   8.155   5.555
 8642POPC   PO440536  15.141   8.230   5.855
 8642POPC   GL140537  15.169   8.191   6.155
 8642POPC   GL240538  15.309   8.170   6.155
 8642POPC   C1A40539  15.227   8.176   6.455
 8642POPC   D2A40540  15.219   8.211   6.755
 8642POPC   C3A40541  15.148   8.213   7.055
 8642POPC   C4A40542  15.188   8.200   7.355
 8642POPC   C1B40543  15.413   8.031   6.455
 8642POPC   C2B40544  15.422   8.066   6.755
 8642POPC   C3B40545  15.410   8.085   7.055
 8642POPC   C4B40546  15.372   8.043   7.355
 8643POPC   NC340547  27.640  35.375   5.555
 8643POPC   PO440548  27.635  35.314   5.855
 8643POPC   GL140549  27.576  35.400   6.155
 8643POPC   GL240550  27.603  35.199   6.155
 8643POPC   C1A40551  27.566  35.312   6.455
 8643POPC   D2A40552  27.570  35.389   6.755
 8643POPC   C3A40553  27.552  35.344   7.055
 8643POPC   C4A40554  27.557  35.375   7.355
 8643POPC   C1B40555  27.560  35.066   6.455
 8643POPC   C2B40556  27.560  35.143   6.755
 8643POPC   C3B40557  27.565  35.152   7.055
 8643POPC   C4B40558  27.578  35.119   7.355
 8644POPC   NC340559  37.662  32.205   5.555
 8644POPC   PO440560  37.657  32.232   5.855
 8644POPC   GL140561  37.694  32.225   6.155
 8644POPC   GL240562  37.628  32.361   6.155
 8644POPC   C1A40563  37.703  32.284   6.455
 8644POPC   D2A40564  37.709  32.250   6.755
 8644POPC   C3A40565  37.710  32.226   7.055
 8644POPC   C4A40566  37.722  32.261   7.355
 8644POPC   C1B40567  37.625  32.524   6.455
 8644POPC   C2B40568  37.620  32.472   6.755
 8644POPC   C3B40569  37.616  32.510   7.055
 8644POPC   C4B40570  37.607  32.472   7.355
 8645POPC   NC340571  15.168  38.420   5.555
 8645POPC   PO440572  15.169  38.447   5.855
 8645POPC   GL140573  15.198  38.476   6.155
 8645POPC   GL240574  15.217  38.608   6.155
 8645POPC   C1A40575  15.169  38.415   6.455
 8645POPC   D2A40576  15.132  38.481   6.755
 8645POPC   C3A40577  15.205  38.474   7.055
 8645POPC   C4A40578  15.164  38.488   7.355
 8645POPC   C1B40579  15.180  38.734   6.455
 8645POPC   C2B40580  15.189  38.660   6.755
 8645POPC   C3B40581  15.218  38.657   7.055
 8645POPC   C4B40582  15.256  38.738   7.355
 8646POPC   NC340583  36.880  20.589   5.555
 8646POPC   PO440584  36.912  20.567   5.855
 8646POPC   GL140585  36.874  20.587   6.155
 8646POPC   GL240586  36.815  20.469   6.155
 8646POPC   C1A40587  36.895  20.659   6.455
 8646POPC   D2A40588  36.932  20.614   6.755
 8646POPC   C3A40589  36.936  20.562   7.055
 8646POPC   C4A40590  36.882  20.623   7.355
 8646POPC   C1B40591  36.821  20.370   6.455
 8646POPC   C2B40592  36.749  20.399   6.755
 8646POPC   C3B40593  36.782  20.407   7.055
 8646POPC   C4B40594  36.798  20.438   7.355
 8647POPC   NC340595  11.251  22.123   5.555
 8647POPC   PO440596  11.287  22.141   5.855
 8647POPC   GL140597  11.310  22.129   6.155
 8647POPC   GL240598  11.207  22.225   6.155
 8647POPC   C1A40599  11.268  22.118   6.455
 8647POPC   D2A40600  11.330  22.190   6.755
 8647POPC   C3A40601  11.283  22.176   7.055
 8647POPC   C4A40602  11.311  22.208   7.355
 8647POPC   C1B40603  11.137  22.362   6.455
 8647POPC   C2B40604  11.184  22.405   6.755
 8647POPC   C3B40605  11.217  22.423   7.055
 8647POPC   C4B40606  11.148  22.363   7.355
 8648POPC   NC340607  24.522  23.702   5.555
 8648POPC   PO440608  24.445  23.702   5.855
 8648POPC   GL140609  24.461  23.680   6.155
 8648POPC   GL240610  24.356  23.612   6.155
 8648POPC   C1A40611  24.473  23.709   6.455
 8648POPC   D2A40612  24.516  23.713   6.755
 8648POPC   C3A40613  24.481  23.719   7.055
 8648POPC   C4A40614  24.539  23.722   7.355
 8648POPC   C1B40615  24.270  23.543   6.455
 8648POPC   C2B40616  24.282  23.518   6.755
 8648POPC   C3B40617  24.298  23.568   7.055
 8648POPC   C4B40618  24.277  23.531   7.355
 8649POPC   NC340619  32.227  34.588   5.555
 8649POPC   PO440620  32.284  34.588   5.855
 8649POPC   GL140621  32.262  34.597   6.155
 8649POPC   GL240622  32.173  34.620   6.155
 8649POPC   C1A40623  32.266  34.557   6.455
 8649POPC   D2A40624  32.231  34.572   6.755
 8649POPC   C3A40625  32.202  34.537   7.055
 8649POPC   C4A40626  32.280  34.611   7.355
 8649POPC   C1B40627  32.066  34.768   6.455
 8649POPC   C2B40628  32.036  34.792   6.755
 8649POPC   C3B40629  32.025  34.784   7.055
 8649POPC   C4B40630  32.060  34.740   7.355
 8650POPC   NC340631  26.012  29.113   5.555
 8650POPC   PO440632  26.078  29.107   5.855
 8650POPC   GL140633  26.049  29.188   6.155
 8650POPC   GL240634  26.215  29.134   6.155
 8650POPC   C1A40635  26.085  29.164   6.455
 8650POPC   D2A40636  26.053  29.189   6.755
 8650POPC   C3A40637  26.055  29.112   7.055
 8650POPC   C4A40638  26.068  29.192   7.355
 8650POPC   C1B40639  26.256  29.159   6.455
 8650POPC   C2B40640  26.330  29.201   6.755
 8650POPC   C3B40641  26.319  29.172   7.055
 8650POPC   C4B40642  26.264  29.195   7.355
 8651POPC   NC340643  37.716  15.913   5.555
 8651POPC   PO440644  37.682  15.978   5.855
 8651POPC   GL140645  37.644  15.941   6.155
 8651POPC   GL240646  37.838  15.994   6.155
 8651POPC   C1A40647  37.694  16.001   6.455
 8651POPC   D2A40648  37.691  15.949   6.755
 8651POPC   C3A40649  37.708  15.963   7.055
 8651POPC   C4A40650  37.700  15.948   7.355
 8651POPC   C1B40651  37.960  16.018   6.455
 8651POPC   C2B40652  37.894  16.016   6.755
 8651POPC   C3B40653  37.942  16.032   7.055
 8651POPC   C4B40654  37.913  16.058   7.355
 8652POPC   NC340655  32.235  22.951   5.555
 8652POPC   PO440656  32.234  22.903   5.855
 8652POPC   GL140657  32.254  22.962   6.155
 8652POPC   GL240658  32.133  23.028   6.155
 8652POPC   C1A40659  32.278  22.911   6.455
 8652POPC   D2A40660  32.243  22.889   6.755
 8652POPC   C3A40661  32.204  22.894   7.055
 8652POPC   C4A40662  32.245  22.946   7.355
 8652POPC   C1B40663  32.012  23.037   6.455
 8652POPC   C2B40664  32.002  23.024   6.755
 8652POPC   C3B40665  32.031  23.099   7.055
 8652POPC   C4B40666  32.056  23.102   7.355
 8653POPC   NC340667  29.164  21.381   5.555
 8653POPC   PO440668  29.146  21.338   5.855
 8653POPC   GL140669  29.192  21.426   6.155
 8653POPC   GL240670  29.027  21.345   6.155
 8653POPC   C1A40671  29.131  21.407   6.455
 8653POPC   D2A40672  29.135  21.362   6.755
 8653POPC   C3A40673  29.142  21.391   7.055
 8653POPC   C4A40674  29.181  21.435   7.355
 8653POPC   C1B40675  28.918  21.269   6.455
 8653POPC   C2B40676  28.949  21.218   6.755
 8653POPC   C3B40677  28.927  21.242   7.055
 8653POPC   C4B40678  28.939  21.272   7.355
 8654POPC   NC340679   6.624  23.686   5.555
 8654POPC   PO440680   6.608  23.710   5.855
 8654POPC   GL140681   6.643  23.705   6.155
 8654POPC   GL240682   6.703  23.860   6.155
 8654POPC   C1A40683   6.694  23.741   6.455
 8654POPC   D2A40684   6.599  23.731   6.755
 8654POPC   C3A40685   6.643  23.675   7.055
 8654POPC   C4A40686   6.684  23.743   7.355
 8654POPC   C1B40687   6.749  23.889   6.455
 8654POPC   C2B40688   6.735  23.889   6.755
 8654POPC   C3B40689   6.746  23.889   7.055
 8654POPC   C4B40690   6.738  23.961   7.355
 8655POPC   NC340691  17.457   7.451   5.555
 8655POPC   PO440692  17.504   7.461   5.855
 8655POPC   GL140693  17.479   7.465   6.155
 8655POPC   GL240694  17.633   7.406   6.155
 8655POPC   C1A40695  17.496   7.375   6.455
 8655POPC   D2A40696  17.503   7.407   6.755
 8655POPC   C3A40697  17.495   7.437   7.055
 8655POPC   C4A40698  17.505   7.410   7.355
 8655POPC   C1B40699  17.783   7.360   6.455
 8655POPC   C2B40700  17.770   7.380   6.755
 8655POPC   C3B40701  17.755   7.376   7.055
 8655POPC   C4B40702  17.702   7.346   7.355
 8656POPC   NC340703  38.434  33.849   5.555
 8656POPC   PO440704  38.429  33.848   5.855
 8656POPC   GL140705  38.459  33.819   6.155
 8656POPC   GL240706  38.305  33.730   6.155
 8656POPC   C1A40707  38.448  33.850   6.455
 8656POPC   D2A40708  38.435  33.793   6.755
 8656POPC   C3A40709  38.474  33.836   7.055
 8656POPC   C4A40710  38.418  33.803   7.355
 8656POPC   C1B40711  38.268  33.673   6.455
 8656POPC   C2B40712  38.253  33.730   6.755
 8656POPC   C3B40713  38.248  33.688   7.055
 8656POPC   C4B40714  38.242  33.675   7.355
 8657POPC   NC340715   3.533   8.174   5.555
 8657POPC   PO440716   3.583   8.163   5.855
 8657POPC   GL140717   3.527   8.218   6.155
 8657POPC   GL240718   3.402   8.096   6.155
 8657POPC   C1A40719   3.506   8.176   6.455
 8657POPC   D2A40720   3.519   8.237   6.755
 8657POPC   C3A40721   3.502   8.173   7.055
 8657POPC   C4A40722   3.530   8.156   7.355
 8657POPC   C1B40723   3.355   8.022   6.455
 8657POPC   C2B40724   3.390   8.010   6.755
 8657POPC   C3B40725   3.339   7.998   7.055
 8657POPC   C4B40726   3.317   8.066   7.355
 8658POPC   NC340727  18.314  18.239   5.555
 8658POPC   PO440728  18.316  18.295   5.855
 8658POPC   GL140729  18.257  18.328   6.155
 8658POPC   GL240730  18.331  18.171   6.155
 8658POPC   C1A40731  18.283  18.241   6.455
 8658POPC   D2A40732  18.324  18.304   6.755
 8658POPC   C3A40733  18.276  18.268   7.055
 8658POPC   C4A40734  18.325  18.294   7.355
 8658POPC   C1B40735  18.316  18.053   6.455
 8658POPC   C2B40736  18.299  17.989   6.755
 8658POPC   C3B40737  18.317  18.077   7.055
 8658POPC   C4B40738  18.280  18.030   7.355
 8659POPC   NC340739  25.282   6.662   5.555
 8659POPC   PO440740  25.222   6.600   5.855
 8659POPC   GL140741  25.283   6.601   6.155
 8659POPC   GL240742  25.117   6.562   6.155
 8659POPC   C1A40743  25.262   6.652   6.455
 8659POPC   D2A40744  25.228   6.683   6.755
 8659POPC   C3A40745  25.262   6.638   7.055
 8659POPC   C4A40746  25.284   6.640   7.355
 8659POPC   C1B40747  25.089   6.542   6.455
 8659POPC   C2B40748  25.047   6.502   6.755
 8659POPC   C3B40749  25.055   6.541   7.055
 8659POPC   C4B40750  25.018   6.474   7.355
 8660POPC   NC340751  37.704  30.669   5.555
 8660POPC   PO440752  37.721  30.699   5.855
 8660POPC   GL140753  37.676  30.706   6.155
 8660POPC   GL240754  37.604  30.709   6.155
 8660POPC   C1A40755  37.676  30.729   6.455
 8660POPC   D2A40756  37.655  30.657   6.755
 8660POPC   C3A40757  37.640  30.742   7.055
 8660POPC   C4A40758  37.639  30.741   7.355
 8660POPC   C1B40759  37.384  30.694   6.455
 8660POPC   C2B40760  37.439  30.690   6.755
 8660POPC   C3B40761  37.383  30.693   7.055
 8660POPC   C4B40762  37.410  30.714   7.355
 8661POPC   NC340763  44.692  10.508   5.555
 8661POPC   PO440764  44.691  10.548   5.855
 8661POPC   GL140765  44.624  10.487   6.155
 8661POPC   GL240766  44.729  10.628   6.155
 8661POPC   C1A40767  44.704  10.488   6.455
 8661POPC   D2A40768  44.623  10.503   6.755
 8661POPC   C3A40769  44.625  10.514   7.055
 8661POPC   C4A40770  44.660  10.536   7.355
 8661POPC   C1B40771  44.841  10.622   6.455
 8661POPC   C2B40772  44.851  10.681   6.755
 8661POPC   C3B40773  44.896  10.598   7.055
 8661POPC   C4B40774  44.868  10.593   7.355
 8662POPC   NC340775  42.308  31.424   5.555
 8662POPC   PO440776  42.310  31.446   5.855
 8662POPC   GL140777  42.381  31.445   6.155
 8662POPC   GL240778  42.260  31.522   6.155
 8662POPC   C1A40779  42.312  31.464   6.455
 8662POPC   D2A40780  42.347  31.516   6.755
 8662POPC   C3A40781  42.296  31.478   7.055
 8662POPC   C4A40782  42.299  31.485   7.355
 8662POPC   C1B40783  42.110  31.660   6.455
 8662POPC   C2B40784  42.175  31.609   6.755
 8662POPC   C3B40785  42.190  31.610   7.055
 8662POPC   C4B40786  42.186  31.620   7.355
 8663POPC   NC340787  43.089  30.652   5.555
 8663POPC   PO440788  43.120  30.746   5.855
 8663POPC   GL140789  43.071  30.660   6.155
 8663POPC   GL240790  43.008  30.536   6.155
 8663POPC   C1A40791  43.124  30.701   6.455
 8663POPC   D2A40792  43.076  30.662   6.755
 8663POPC   C3A40793  43.108  30.655   7.055
 8663POPC   C4A40794  43.128  30.659   7.355
 8663POPC   C1B40795  43.028  30.421   6.455
 8663POPC   C2B40796  42.991  30.422   6.755
 8663POPC   C3B40797  43.024  30.427   7.055
 8663POPC   C4B40798  43.033  30.452   7.355
 8664POPC   NC340799  28.339  39.274   5.555
 8664POPC   PO440800  28.347  39.261   5.855
 8664POPC   GL140801  28.396  39.234   6.155
 8664POPC   GL240802  28.400  39.304   6.155
 8664POPC   C1A40803  28.391  39.210   6.455
 8664POPC   D2A40804  28.323  39.233   6.755
 8664POPC   C3A40805  28.328  39.257   7.055
 8664POPC   C4A40806  28.411  39.197   7.355
 8664POPC   C1B40807  28.512  39.485   6.455
 8664POPC   C2B40808  28.482  39.459   6.755
 8664POPC   C3B40809  28.511  39.483   7.055
 8664POPC   C4B40810  28.507  39.440   7.355
 8665POPC   NC340811  15.195  44.613   5.555
 8665POPC   PO440812  15.213  44.702   5.855
 8665POPC   GL140813  15.167  44.671   6.155
 8665POPC   GL240814  15.047  44.674   6.155
 8665POPC   C1A40815  15.150  44.696   6.455
 8665POPC   D2A40816  15.163  44.697   6.755
 8665POPC   C3A40817  15.211  44.630   7.055
 8665POPC   C4A40818  15.183  44.690   7.355
 8665POPC   C1B40819  14.969  44.696   6.455
 8665POPC   C2B40820  14.914  44.712   6.755
 8665POPC   C3B40821  14.907  44.650   7.055
 8665POPC   C4B40822  14.947  44.658   7.355
 8666POPC   NC340823  26.795  38.417   5.555
 8666POPC   PO440824  26.806  38.463   5.855
 8666POPC   GL140825  26.824  38.438   6.155
 8666POPC   GL240826  26.709  38.388   6.155
 8666POPC   C1A40827  26.823  38.412   6.455
 8666POPC   D2A40828  26.805  38.422   6.755
 8666POPC   C3A40829  26.776  38.434   7.055
 8666POPC   C4A40830  26.819  38.436   7.355
 8666POPC   C1B40831  26.567  38.372   6.455
 8666POPC   C2B40832  26.557  38.336   6.755
 8666POPC   C3B40833  26.615  38.431   7.055
 8666POPC   C4B40834  26.541  38.335   7.355
 8667POPC   NC340835  24.457  41.607   5.555
 8667POPC   PO440836  24.477  41.524   5.855
 8667POPC   GL140837  24.448  41.601   6.155
 8667POPC   GL240838  24.570  41.459   6.155
 8667POPC   C1A40839  24.462  41.603   6.455
 8667POPC   D2A40840  24.461  41.526   6.755
 8667POPC   C3A40841  24.493  41.599   7.055
 8667POPC   C4A40842  24.523  41.529   7.355
 8667POPC   C1B40843  24.633  41.325   6.455
 8667POPC   C2B40844  24.578  41.311   6.755
 8667POPC   C3B40845  24.572  41.383   7.055
 8667POPC   C4B40846  24.576  41.353   7.355
 8668POPC   NC340847   7.379  18.332   5.555
 8668POPC   PO440848   7.428  18.281   5.855
 8668POPC   GL140849   7.397  18.323   6.155
 8668POPC   GL240850   7.375  18.201   6.155
 8668POPC   C1A40851   7.376  18.262   6.455
 8668POPC   D2A40852   7.453  18.259   6.755
 8668POPC   C3A40853   7.385  18.302   7.055
 8668POPC   C4A40854   7.418  18.303   7.355
 8668POPC   C1B40855   7.372  18.046   6.455
 8668POPC   C2B40856   7.320  18.017   6.755
 8668POPC   C3B40857   7.380  18.073   7.055
 8668POPC   C4B40858   7.328  18.001   7.355
 8669POPC   NC340859  30.671  40.043   5.555
 8669POPC   PO440860  30.683  39.957   5.855
 8669POPC   GL140861  30.703  40.009   6.155
 8669POPC   GL240862  30.805  40.013   6.155
 8669POPC   C1A40863  30.704  40.017   6.455
 8669POPC   D2A40864  30.728  40.036   6.755
 8669POPC   C3A40865  30.664  39.974   7.055
 8669POPC   C4A40866  30.729  40.055   7.355
 8669POPC   C1B40867  30.978  40.015   6.455
 8669POPC   C2B40868  30.951  40.010   6.755
 8669POPC   C3B40869  30.899  39.982   7.055
 8669POPC   C4B40870  30.915  40.007   7.355
 8670POPC   NC340871  19.105  40.765   5.555
 8670POPC   PO440872  19.090  40.792   5.855
 8670POPC   GL140873  19.056  40.803   6.155
 8670POPC   GL240874  18.907  40.755   6.155
 8670POPC   C1A40875  19.069  40.821   6.455
 8670POPC   D2A40876  19.040  40.758   6.755
 8670POPC   C3A40877  19.079  40.796   7.055
 8670POPC   C4A40878  19.046  40.737   7.355
 8670POPC   C1B40879  18.793  40.683   6.455
 8670POPC   C2B40880  18.849  40.688   6.755
 8670POPC   C3B40881  18.852  40.671   7.055
 8670POPC   C4B40882  18.818  40.676   7.355
 8671POPC   NC340883  43.867  41.549   5.555
 8671POPC   PO440884  43.912  41.510   5.855
 8671POPC   GL140885  43.854  41.535   6.155
 8671POPC   GL240886  43.760  41.600   6.155
 8671POPC   C1A40887  43.872  41.552   6.455
 8671POPC   D2A40888  43.900  41.510   6.755
 8671POPC   C3A40889  43.907  41.534   7.055
 8671POPC   C4A40890  43.886  41.551   7.355
 8671POPC   C1B40891  43.672  41.613   6.455
 8671POPC   C2B40892  43.621  41.617   6.755
 8671POPC   C3B40893  43.643  41.531   7.055
 8671POPC   C4B40894  43.645  41.577   7.355
 8672POPC   NC340895  14.416  26.076   5.555
 8672POPC   PO440896  14.403  26.084   5.855
 8672POPC   GL140897  14.406  26.076   6.155
 8672POPC   GL240898  14.419  26.162   6.155
 8672POPC   C1A40899  14.417  26.089   6.455
 8672POPC   D2A40900  14.404  26.052   6.755
 8672POPC   C3A40901  14.431  25.995   7.055
 8672POPC   C4A40902  14.359  26.067   7.355
 8672POPC   C1B40903  14.445  26.278   6.455
 8672POPC   C2B40904  14.540  26.252   6.755
 8672POPC   C3B40905  14.454  26.312   7.055
 8672POPC   C4B40906  14.496  26.315   7.355
 8673POPC   NC340907  13.638   7.395   5.555
 8673POPC   PO440908  13.626   7.381   5.855
 8673POPC   GL140909  13.595   7.425   6.155
 8673POPC   GL240910  13.717   7.422   6.155
 8673POPC   C1A40911  13.597   7.453   6.455
 8673POPC   D2A40912  13.660   7.373   6.755
 8673POPC   C3A40913  13.641   7.400   7.055
 8673POPC   C4A40914  13.631   7.404   7.355
 8673POPC   C1B40915  13.883   7.381   6.455
 8673POPC   C2B40916  13.907   7.379   6.755
 8673POPC   C3B40917  13.909   7.382   7.055
 8673POPC   C4B40918  13.910   7.334   7.355
 8674POPC   NC340919  19.029   0.397   5.555
 8674POPC   PO440920  19.022   0.427   5.855
 8674POPC   GL140921  19.033   0.469   6.155
 8674POPC   GL240922  19.188   0.482   6.155
 8674POPC   C1A40923  19.043   0.432   6.455
 8674POPC   D2A40924  19.016   0.477   6.755
 8674POPC   C3A40925  19.098   0.474   7.055
 8674POPC   C4A40926  19.073   0.451   7.355
 8674POPC   C1B40927  19.259   0.634   6.455
 8674POPC   C2B40928  19.242   0.598   6.755
 8674POPC   C3B40929  19.210   0.628   7.055
 8674POPC   C4B40930  19.214   0.610   7.355
 8675POPC   NC340931   1.949   9.734   5.555
 8675POPC   PO440932   2.000   9.754   5.855
 8675POPC   GL140933   2.024   9.766   6.155
 8675POPC   GL240934   2.080   9.770   6.155
 8675POPC   C1A40935   1.997   9.794   6.455
 8675POPC   D2A40936   1.991   9.748   6.755
 8675POPC   C3A40937   1.977   9.749   7.055
 8675POPC   C4A40938   2.022   9.737   7.355
 8675POPC   C1B40939   2.204   9.828   6.455
 8675POPC   C2B40940   2.197   9.849   6.755
 8675POPC   C3B40941   2.247   9.822   7.055
 8675POPC   C4B40942   2.232   9.894   7.355
 8676POPC   NC340943  12.069  26.022   5.555
 8676POPC   PO440944  12.075  26.004   5.855
 8676POPC   GL140945  12.051  26.083   6.155
 8676POPC   GL240946  11.936  26.035   6.155
 8676POPC   C1A40947  12.074  25.992   6.455
 8676POPC   D2A40948  12.083  26.074   6.755
 8676POPC   C3A40949  12.034  26.014   7.055
 8676POPC   C4A40950  12.103  26.063   7.355
 8676POPC   C1B40951  11.810  26.054   6.455
 8676POPC   C2B40952  11.817  26.055   6.755
 8676POPC   C3B40953  11.826  26.015   7.055
 8676POPC   C4B40954  11.780  26.022   7.355
 8677POPC   NC340955  15.219  16.762   5.555
 8677POPC   PO440956  15.142  16.746   5.855
 8677POPC   GL140957  15.161  16.714   6.155
 8677POPC   GL240958  15.135  16.794   6.155
 8677POPC   C1A40959  15.148  16.711   6.455
 8677POPC   D2A40960  15.209  16.712   6.755
 8677POPC   C3A40961  15.174  16.756   7.055
 8677POPC   C4A40962  15.170  16.768   7.355
 8677POPC   C1B40963  14.975  16.970   6.455
 8677POPC   C2B40964  15.015  16.968   6.755
 8677POPC   C3B40965  15.051  16.943   7.055
 8677POPC   C4B40966  15.050  16.946   7.355
 8678POPC   NC340967  26.769   9.759   5.555
 8678POPC   PO440968  26.862   9.721   5.855
 8678POPC   GL140969  26.788   9.745   6.155
 8678POPC   GL240970  26.791   9.660   6.155
 8678POPC   C1A40971  26.780   9.709   6.455
 8678POPC   D2A40972  26.846   9.740   6.755
 8678POPC   C3A40973  26.805   9.707   7.055
 8678POPC   C4A40974  26.797   9.786   7.355
 8678POPC   C1B40975  26.832   9.500   6.455
 8678POPC   C2B40976  26.826   9.472   6.755
 8678POPC   C3B40977  26.894   9.526   7.055
 8678POPC   C4B40978  26.899   9.487   7.355
 8679POPC   NC340979  23.698  21.377   5.555
 8679POPC   PO440980  23.712  21.367   5.855
 8679POPC   GL140981  23.688  21.346   6.155
 8679POPC   GL240982  23.570  21.293   6.155
 8679POPC   C1A40983  23.678  21.369   6.455
 8679POPC   D2A40984  23.680  21.376   6.755
 8679POPC   C3A40985  23.714  21.425   7.055
 8679POPC   C4A40986  23.679  21.415   7.355
 8679POPC   C1B40987  23.495  21.272   6.455
 8679POPC   C2B40988  23.442  21.282   6.755
 8679POPC   C3B40989  23.458  21.237   7.055
 8679POPC   C4B40990  23.536  21.274   7.355
 8680POPC   NC340991   9.769  23.749   5.555
 8680POPC   PO440992   9.756  23.746   5.855
 8680POPC   GL140993   9.706  23.742   6.155
 8680POPC   GL240994   9.640  23.699   6.155
 8680POPC   C1A40995   9.751  23.734   6.455
 8680POPC   D2A40996   9.775  23.703   6.755
 8680POPC   C3A40997   9.767  23.727   7.055
 8680POPC   C4A40998   9.755  23.749   7.355
 8680POPC   C1B40999   9.473  23.717   6.455
 8680POPC   C2B41000   9.497  23.754   6.755
 8680POPC   C3B41001   9.536  23.762   7.055
 8680POPC   C4B41002   9.519  23.745   7.355
 8681POPC   NC341003  27.602  44.625   5.555
 8681POPC   PO441004  27.572  44.648   5.855
 8681POPC   GL141005  27.548  44.632   6.155
 8681POPC   GL241006  27.502  44.628   6.155
 8681POPC   C1A41007  27.602  44.659   6.455
 8681POPC   D2A41008  27.580  44.643   6.755
 8681POPC   C3A41009  27.612  44.708   7.055
 8681POPC   C4A41010  27.579  44.630   7.355
 8681POPC   C1B41011  27.387  44.498   6.455
 8681POPC   C2B41012  27.376  44.510   6.755
 8681POPC   C3B41013  27.418  44.516   7.055
 8681POPC   C4B41014  27.411  44.515   7.355
 8682POPC   NC341015  12.880   3.515   5.555
 8682POPC   PO441016  12.803   3.534   5.855
 8682POPC   GL141017  12.834   3.497   6.155
 8682POPC   GL241018  12.705   3.569   6.155
 8682POPC   C1A41019  12.887   3.494   6.455
 8682POPC   D2A41020  12.819   3.547   6.755
 8682POPC   C3A41021  12.858   3.568   7.055
 8682POPC   C4A41022  12.838   3.588   7.355
 8682POPC   C1B41023  12.607   3.560   6.455
 8682POPC   C2B41024  12.597   3.539   6.755
 8682POPC   C3B41025  12.596   3.547   7.055
 8682POPC   C4B41026  12.637   3.623   7.355
 8683POPC   NC341027  11.325  15.189   5.555
 8683POPC   PO441028  11.285  15.185   5.855
 8683POPC   GL141029  11.279  15.180   6.155
 8683POPC   GL241030  11.252  15.321   6.155
 8683POPC   C1A41031  11.305  15.136   6.455
 8683POPC   D2A41032  11.332  15.207   6.755
 8683POPC   C3A41033  11.318  15.224   7.055
 8683POPC   C4A41034  11.315  15.147   7.355
 8683POPC   C1B41035  11.146  15.405   6.455
 8683POPC   C2B41036  11.135  15.357   6.755
 8683POPC   C3B41037  11.200  15.382   7.055
 8683POPC   C4B41038  11.194  15.386   7.355
 8684POPC   NC341039  38.435  37.694   5.555
 8684POPC   PO441040  38.454  37.668   5.855
 8684POPC   GL141041  38.418  37.651   6.155
 8684POPC   GL241042  38.584  37.746   6.155
 8684POPC   C1A41043  38.479  37.719   6.455
 8684POPC   D2A41044  38.435  37.705   6.755
 8684POPC   C3A41045  38.407  37.656   7.055
 8684POPC   C4A41046  38.413  37.728   7.355
 8684POPC   C1B41047  38.703  37.859   6.455
 8684POPC   C2B41048  38.633  37.813   6.755
 8684POPC   C3B41049  38.686  37.860   7.055
 8684POPC   C4B41050  38.623  37.841   7.355
 8685POPC   NC341051  36.879  27.602   5.555
 8685POPC   PO441052  36.930  27.623   5.855
 8685POPC   GL141053  36.877  27.571   6.155
 8685POPC   GL241054  36.929  27.436   6.155
 8685POPC   C1A41055  36.926  27.544   6.455
 8685POPC   D2A41056  36.904  27.640   6.755
 8685POPC   C3A41057  36.867  27.559   7.055
 8685POPC   C4A41058  36.929  27.583   7.355
 8685POPC   C1B41059  36.983  27.409   6.455
 8685POPC   C2B41060  36.996  27.360   6.755
 8685POPC   C3B41061  37.013  27.413   7.055
 8685POPC   C4B41062  37.045  27.325   7.355
 8686POPC   NC341063  42.321  15.133   5.555
 8686POPC   PO441064  42.298  15.162   5.855
 8686POPC   GL141065  42.353  15.177   6.155
 8686POPC   GL241066  42.439  15.081   6.155
 8686POPC   C1A41067  42.374  15.142   6.455
 8686POPC   D2A41068  42.352  15.140   6.755
 8686POPC   C3A41069  42.293  15.187   7.055
 8686POPC   C4A41070  42.330  15.136   7.355
 8686POPC   C1B41071  42.541  15.022   6.455
 8686POPC   C2B41072  42.531  14.976   6.755
 8686POPC   C3B41073  42.522  15.054   7.055
 8686POPC   C4B41074  42.534  15.004   7.355
 8687POPC   NC341075  16.772  29.923   5.555
 8687POPC   PO441076  16.746  29.883   5.855
 8687POPC   GL141077  16.715  29.926   6.155
 8687POPC   GL241078  16.662  29.815   6.155
 8687POPC   C1A41079  16.739  29.887   6.455
 8687POPC   D2A41080  16.777  29.951   6.755
 8687POPC   C3A41081  16.685  29.937   7.055
 8687POPC   C4A41082  16.743  29.902   7.355
 8687POPC   C1B41083  16.565  29.670   6.455
 8687POPC   C2B41084  16.603  29.746   6.755
 8687POPC   C3B41085  16.653  29.716   7.055
 8687POPC   C4B41086  16.586  29.716   7.355
 8688POPC   NC341087  17.505  30.734   5.555
 8688POPC   PO441088  17.514  30.697   5.855
 8688POPC   GL141089  17.507  30.734   6.155
 8688POPC   GL241090  17.540  30.850   6.155
 8688POPC   C1A41091  17.457  30.677   6.455
 8688POPC   D2A41092  17.482  30.686   6.755
 8688POPC   C3A41093  17.522  30.670   7.055
 8688POPC   C4A41094  17.545  30.671   7.355
 8688POPC   C1B41095  17.439  30.952   6.455
 8688POPC   C2B41096  17.521  30.925   6.755
 8688POPC   C3B41097  17.454  30.979   7.055
 8688POPC   C4B41098  17.454  30.955   7.355
 8689POPC   NC341099  17.508  14.397   5.555
 8689POPC   PO441100  17.466  14.372   5.855
 8689POPC   GL141101  17.550  14.440   6.155
 8689POPC   GL241102  17.616  14.484   6.155
 8689POPC   C1A41103  17.497  14.354   6.455
 8689POPC   D2A41104  17.459  14.355   6.755
 8689POPC   C3A41105  17.484  14.392   7.055
 8689POPC   C4A41106  17.497  14.391   7.355
 8689POPC   C1B41107  17.705  14.519   6.455
 8689POPC   C2B41108  17.730  14.558   6.755
 8689POPC   C3B41109  17.694  14.483   7.055
 8689POPC   C4B41110  17.770  14.472   7.355
 8690POPC   NC341111  40.036  11.256   5.555
 8690POPC   PO441112  39.999  11.252   5.855
 8690POPC   GL141113  40.023  11.275   6.155
 8690POPC   GL241114  40.018  11.465   6.155
 8690POPC   C1A41115  40.010  11.278   6.455
 8690POPC   D2A41116  39.989  11.339   6.755
 8690POPC   C3A41117  40.043  11.281   7.055
 8690POPC   C4A41118  39.978  11.337   7.355
 8690POPC   C1B41119  40.024  11.503   6.455
 8690POPC   C2B41120  40.099  11.554   6.755
 8690POPC   C3B41121  40.010  11.537   7.055
 8690POPC   C4B41122  40.040  11.561   7.355
 8691POPC   NC341123  19.845  36.128   5.555
 8691POPC   PO441124  19.799  36.165   5.855
 8691POPC   GL141125  19.799  36.126   6.155
 8691POPC   GL241126  19.977  36.009   6.155
 8691POPC   C1A41127  19.830  36.091   6.455
 8691POPC   D2A41128  19.831  36.115   6.755
 8691POPC   C3A41129  19.825  36.137   7.055
 8691POPC   C4A41130  19.787  36.122   7.355
 8691POPC   C1B41131  20.006  36.002   6.455
 8691POPC   C2B41132  20.006  35.946   6.755
 8691POPC   C3B41133  20.003  35.943   7.055
 8691POPC   C4B41134  20.015  36.007   7.355
 8692POPC   NC341135  15.914   4.289   5.555
 8692POPC   PO441136  15.916   4.298   5.855
 8692POPC   GL141137  15.952   4.275   6.155
 8692POPC   GL241138  15.802   4.263   6.155
 8692POPC   C1A41139  15.974   4.285   6.455
 8692POPC   D2A41140  15.963   4.300   6.755
 8692POPC   C3A41141  16.004   4.336   7.055
 8692POPC   C4A41142  15.984   4.354   7.355
 8692POPC   C1B41143  15.777   4.227   6.455
 8692POPC   C2B41144  15.727   4.194   6.755
 8692POPC   C3B41145  15.781   4.192   7.055
 8692POPC   C4B41146  15.770   4.238   7.355
 8693POPC   NC341147  32.279   7.468   5.555
 8693POPC   PO441148  32.269   7.426   5.855
 8693POPC   GL141149  32.213   7.371   6.155
 8693POPC   GL241150  32.108   7.443   6.155
 8693POPC   C1A41151  32.266   7.466   6.455
 8693POPC   D2A41152  32.201   7.454   6.755
 8693POPC   C3A41153  32.288   7.409   7.055
 8693POPC   C4A41154  32.294   7.383   7.355
 8693POPC   C1B41155  31.994   7.559   6.455
 8693POPC   C2B41156  31.995   7.550   6.755
 8693POPC   C3B41157  32.000   7.474   7.055
 8693POPC   C4B41158  31.984   7.544   7.355
 8694POPC   NC341159   8.993  19.876   5.555
 8694POPC   PO441160   8.970  19.831   5.855
 8694POPC   GL141161   9.021  19.788   6.155
 8694POPC   GL241162   8.868  19.715   6.155
 8694POPC   C1A41163   8.950  19.807   6.455
 8694POPC   D2A41164   8.969  19.850   6.755
 8694POPC   C3A41165   8.976  19.799   7.055
 8694POPC   C4A41166   9.004  19.883   7.355
 8694POPC   C1B41167   8.888  19.578   6.455
 8694POPC   C2B41168   8.836  19.566   6.755
 8694POPC   C3B41169   8.900  19.577   7.055
 8694POPC   C4B41170   8.841  19.578   7.355
 8695POPC   NC341171  32.247   0.472   5.555
 8695POPC   PO441172  32.199   0.394   5.855
 8695POPC   GL141173  32.282   0.464   6.155
 8695POPC   GL241174  32.210   0.285   6.155
 8695POPC   C1A41175  32.219   0.471   6.455
 8695POPC   D2A41176  32.208   0.453   6.755
 8695POPC   C3A41177  32.290   0.442   7.055
 8695POPC   C4A41178  32.198   0.411   7.355
 8695POPC   C1B41179  32.134   0.169   6.455
 8695POPC   C2B41180  32.218   0.171   6.755
 8695POPC   C3B41181  32.156   0.153   7.055
 8695POPC   C4B41182  32.161   0.150   7.355
 8696POPC   NC341183   5.143   5.111   5.555
 8696POPC   PO441184   5.100   5.071   5.855
 8696POPC   GL141185   5.140   5.079   6.155
 8696POPC   GL241186   5.078   4.943   6.155
 8696POPC   C1A41187   5.072   5.117   6.455
 8696POPC   D2A41188   5.081   5.066   6.755
 8696POPC   C3A41189   5.117   5.112   7.055
 8696POPC   C4A41190   5.051   5.121   7.355
 8696POPC   C1B41191   5.019   4.802   6.455
 8696POPC   C2B41192   5.025   4.882   6.755
 8696POPC   C3B41193   5.108   4.864   7.055
 8696POPC   C4B41194   5.041   4.866   7.355
 8697POPC   NC341195  20.578  43.143   5.555
 8697POPC   PO441196  20.633  43.091   5.855
 8697POPC   GL141197  20.631  43.091   6.155
 8697POPC   GL241198  20.636  43.213   6.155
 8697POPC   C1A41199  20.624  43.110   6.455
 8697POPC   D2A41200  20.627  43.144   6.755
 8697POPC   C3A41201  20.627  43.132   7.055
 8697POPC   C4A41202  20.619  43.124   7.355
 8697POPC   C1B41203  20.594  43.333   6.455
 8697POPC   C2B41204  20.558  43.320   6.755
 8697POPC   C3B41205  20.567  43.390   7.055
 8697POPC   C4B41206  20.547  43.340   7.355
 8698POPC   NC341207   0.404  40.754   5.555
 8698POPC   PO441208   0.476  40.791   5.855
 8698POPC   GL141209   0.411  40.783   6.155
 8698POPC   GL241210   0.431  40.914   6.155
 8698POPC   C1A41211   0.474  40.734   6.455
 8698POPC   D2A41212   0.446  40.742   6.755
 8698POPC   C3A41213   0.435  40.734   7.055
 8698POPC   C4A41214   0.477  40.765   7.355
 8698POPC   C1B41215   0.498  41.007   6.455
 8698POPC   C2B41216   0.511  41.063   6.755
 8698POPC   C3B41217   0.475  41.041   7.055
 8698POPC   C4B41218   0.459  41.027   7.355
 8699POPC   NC341219   9.714  29.894   5.555
 8699POPC   PO441220   9.701  29.945   5.855
 8699POPC   GL141221   9.737  29.959   6.155
 8699POPC   GL241222   9.827  29.958   6.155
 8699POPC   C1A41223   9.781  29.877   6.455
 8699POPC   D2A41224   9.790  29.961   6.755
 8699POPC   C3A41225   9.746  29.897   7.055
 8699POPC   C4A41226   9.755  29.938   7.355
 8699POPC   C1B41227   9.993  29.929   6.455
 8699POPC   C2B41228   9.995  29.907   6.755
 8699POPC   C3B41229  10.014  29.894   7.055
 8699POPC   C4B41230   9.981  29.946   7.355
 8700POPC   NC341231   0.456  32.202   5.555
 8700POPC   PO441232   0.434  32.295   5.855
 8700POPC   GL141233   0.413  32.270   6.155
 8700POPC   GL241234   0.416  32.389   6.155
 8700POPC   C1A41235   0.429  32.238   6.455
 8700POPC   D2A41236   0.427  32.293   6.755
 8700POPC   C3A41237   0.396  32.250   7.055
 8700POPC   C4A41238   0.416  32.205   7.355
 8700POPC   C1B41239   0.344  32.496   6.455
 8700POPC   C2B41240   0.358  32.431   6.755
 8700POPC   C3B41241   0.365  32.432   7.055
 8700POPC   C4B41242   0.294  32.486   7.355
 8701POPC   NC341243  22.142   8.221   5.555
 8701POPC   PO441244  22.204   8.172   5.855
 8701POPC   GL141245  22.145   8.227   6.155
 8701POPC   GL241246  22.119   8.064   6.155
 8701POPC   C1A41247  22.151   8.236   6.455
 8701POPC   D2A41248  22.122   8.154   6.755
 8701POPC   C3A41249  22.120   8.221   7.055
 8701POPC   C4A41250  22.202   8.166   7.355
 8701POPC   C1B41251  21.983   7.963   6.455
 8701POPC   C2B41252  21.986   8.018   6.755
 8701POPC   C3B41253  22.005   7.970   7.055
 8701POPC   C4B41254  21.955   8.045   7.355
 8702POPC   NC341255  21.425  42.300   5.555
 8702POPC   PO441256  21.341  42.294   5.855
 8702POPC   GL141257  21.401  42.357   6.155
 8702POPC   GL241258  21.278  42.461   6.155
 8702POPC   C1A41259  21.424  42.311   6.455
 8702POPC   D2A41260  21.393  42.309   6.755
 8702POPC   C3A41261  21.394  42.320   7.055
 8702POPC   C4A41262  21.336  42.320   7.355
 8702POPC   C1B41263  21.214  42.459   6.455
 8702POPC   C2B41264  21.145  42.526   6.755
 8702POPC   C3B41265  21.155  42.440   7.055
 8702POPC   C4B41266  21.141  42.456   7.355
 8703POPC   NC341267  34.596  23.752   5.555
 8703POPC   PO441268  34.590  23.723   5.855
 8703POPC   GL141269  34.588  23.670   6.155
 8703POPC   GL241270  34.622  23.879   6.155
 8703POPC   C1A41271  34.579  23.668   6.455
 8703POPC   D2A41272  34.526  23.690   6.755
 8703POPC   C3A41273  34.540  23.762   7.055
 8703POPC   C4A41274  34.582  23.743   7.355
 8703POPC   C1B41275  34.618  23.979   6.455
 8703POPC   C2B41276  34.667  23.993   6.755
 8703POPC   C3B41277  34.630  23.904   7.055
 8703POPC   C4B41278  34.615  24.002   7.355
 8704POPC   NC341279  16.698   8.939   5.555
 8704POPC   PO441280  16.763   8.943   5.855
 8704POPC   GL141281  16.740   8.962   6.155
 8704POPC   GL241282  16.690   8.841   6.155
 8704POPC   C1A41283  16.724   8.977   6.455
 8704POPC   D2A41284  16.683   9.000   6.755
 8704POPC   C3A41285  16.728   8.944   7.055
 8704POPC   C4A41286  16.702   9.011   7.355
 8704POPC   C1B41287  16.560   8.800   6.455
 8704POPC   C2B41288  16.597   8.758   6.755
 8704POPC   C3B41289  16.521   8.756   7.055
 8704POPC   C4B41290  16.575   8.750   7.355
 8705POPC   NC341291  39.273  25.223   5.555
 8705POPC   PO441292  39.279  25.225   5.855
 8705POPC   GL141293  39.237  25.268   6.155
 8705POPC   GL241294  39.337  25.174   6.155
 8705POPC   C1A41295  39.186  25.273   6.455
 8705POPC   D2A41296  39.231  25.302   6.755
 8705POPC   C3A41297  39.228  25.258   7.055
 8705POPC   C4A41298  39.255  25.261   7.355
 8705POPC   C1B41299  39.323  25.038   6.455
 8705POPC   C2B41300  39.392  25.079   6.755
 8705POPC   C3B41301  39.373  25.093   7.055
 8705POPC   C4B41302  39.407  25.094   7.355
 8706POPC   NC341303  38.476  35.324   5.555
 8706POPC   PO441304  38.418  35.378   5.855
 8706POPC   GL141305  38.456  35.400   6.155
 8706POPC   GL241306  38.308  35.312   6.155
 8706POPC   C1A41307  38.440  35.353   6.455
 8706POPC   D2A41308  38.474  35.311   6.755
 8706POPC   C3A41309  38.492  35.393   7.055
 8706POPC   C4A41310  38.505  35.396   7.355
 8706POPC   C1B41311  38.225  35.206   6.455
 8706POPC   C2B41312  38.307  35.210   6.755
 8706POPC   C3B41313  38.248  35.170   7.055
 8706POPC   C4B41314  38.289  35.163   7.355
 8707POPC   NC341315  41.519  36.921   5.555
 8707POPC   PO441316  41.605  36.902   5.855
 8707POPC   GL141317  41.604  36.926   6.155
 8707POPC   GL241318  41.592  37.007   6.155
 8707POPC   C1A41319  41.604  36.924   6.455
 8707POPC   D2A41320  41.527  36.940   6.755
 8707POPC   C3A41321  41.566  36.889   7.055
 8707POPC   C4A41322  41.580  36.890   7.355
 8707POPC   C1B41323  41.741  37.162   6.455
 8707POPC   C2B41324  41.707  37.102   6.755
 8707POPC   C3B41325  41.671  37.110   7.055
 8707POPC   C4B41326  41.694  37.140   7.355
 8708POPC   NC341327  23.672  36.101   5.555
 8708POPC   PO441328  23.754  36.105   5.855
 8708POPC   GL141329  23.729  36.116   6.155
 8708POPC   GL241330  23.853  36.052   6.155
 8708POPC   C1A41331  23.704  36.124   6.455
 8708POPC   D2A41332  23.668  36.078   6.755
 8708POPC   C3A41333  23.689  36.131   7.055
 8708POPC   C4A41334  23.716  36.146   7.355
 8708POPC   C1B41335  23.941  36.037   6.455
 8708POPC   C2B41336  23.892  35.982   6.755
 8708POPC   C3B41337  23.957  35.982   7.055
 8708POPC   C4B41338  23.968  36.043   7.355
 8709POPC   NC341339  25.284  35.328   5.555
 8709POPC   PO441340  25.235  35.386   5.855
 8709POPC   GL141341  25.267  35.378   6.155
 8709POPC   GL241342  25.173  35.433   6.155
 8709POPC   C1A41343  25.259  35.328   6.455
 8709POPC   D2A41344  25.218  35.366   6.755
 8709POPC   C3A41345  25.315  35.323   7.055
 8709POPC   C4A41346  25.282  35.353   7.355
 8709POPC   C1B41347  25.139  35.596   6.455
 8709POPC   C2B41348  25.151  35.574   6.755
 8709POPC   C3B41349  25.112  35.561   7.055
 8709POPC   C4B41350  25.111  35.599   7.355
 8710POPC   NC341351  39.977  44.655   5.555
 8710POPC   PO441352  40.041  44.702   5.855
 8710POPC   GL141353  39.959  44.639   6.155
 8710POPC   GL241354  40.051  44.767   6.155
 8710POPC   C1A41355  40.051  44.645   6.455
 8710POPC   D2A41356  40.046  44.698   6.755
 8710POPC   C3A41357  40.021  44.625   7.055
 8710POPC   C4A41358  40.017  44.686   7.355
 8710POPC   C1B41359  40.133  44.905   6.455
 8710POPC   C2B41360  40.104  44.859   6.755
 8710POPC   C3B41361  40.148  44.931   7.055
 8710POPC   C4B41362  40.166  44.879   7.355
 8711POPC   NC341363   5.910  27.588   5.555
 8711POPC   PO441364   5.917  27.571   5.855
 8711POPC   GL141365   5.871  27.605   6.155
 8711POPC   GL241366   5.829  27.501   6.155
 8711POPC   C1A41367   5.838  27.595   6.455
 8711POPC   D2A41368   5.885  27.567   6.755
 8711POPC   C3A41369   5.831  27.603   7.055
 8711POPC   C4A41370   5.854  27.643   7.355
 8711POPC   C1B41371   5.837  27.305   6.455
 8711POPC   C2B41372   5.909  27.321   6.755
 8711POPC   C3B41373   5.911  27.356   7.055
 8711POPC   C4B41374   5.840  27.340   7.355
 8712POPC   NC341375   2.759  10.486   5.555
 8712POPC   PO441376   2.794  10.521   5.855
 8712POPC   GL141377   2.791  10.487   6.155
 8712POPC   GL241378   2.839  10.666   6.155
 8712POPC   C1A41379   2.721  10.530   6.455
 8712POPC   D2A41380   2.750  10.521   6.755
 8712POPC   C3A41381   2.814  10.555   7.055
 8712POPC   C4A41382   2.776  10.536   7.355
 8712POPC   C1B41383   2.913  10.721   6.455
 8712POPC   C2B41384   2.898  10.762   6.755
 8712POPC   C3B41385   2.869  10.736   7.055
 8712POPC   C4B41386   2.910  10.790   7.355
 8713POPC   NC341387  27.573  22.940   5.555
 8713POPC   PO441388  27.629  22.935   5.855
 8713POPC   GL141389  27.560  22.944   6.155
 8713POPC   GL241390  27.478  22.816   6.155
 8713POPC   C1A41391  27.552  22.904   6.455
 8713POPC   D2A41392  27.594  22.933   6.755
 8713POPC   C3A41393  27.618  22.900   7.055
 8713POPC   C4A41394  27.595  22.912   7.355
 8713POPC   C1B41395  27.342  22.838   6.455
 8713POPC   C2B41396  27.353  22.785   6.755
 8713POPC   C3B41397  27.401  22.795   7.055
 8713POPC   C4B41398  27.360  22.740   7.355
 8714POPC   NC341399  36.940  23.706   5.555
 8714POPC   PO441400  36.937  23.687   5.855
 8714POPC   GL141401  36.867  23.713   6.155
 8714POPC   GL241402  36.973  23.691   6.155
 8714POPC   C1A41403  36.926  23.730   6.455
 8714POPC   D2A41404  36.944  23.740   6.755
 8714POPC   C3A41405  36.920  23.705   7.055
 8714POPC   C4A41406  36.919  23.667   7.355
 8714POPC   C1B41407  37.095  23.622   6.455
 8714POPC   C2B41408  37.160  23.598   6.755
 8714POPC   C3B41409  37.109  23.564   7.055
 8714POPC   C4B41410  37.171  23.599   7.355
 8715POPC   NC341411  19.013  31.495   5.555
 8715POPC   PO441412  19.026  31.441   5.855
 8715POPC   GL141413  19.018  31.476   6.155
 8715POPC   GL241414  19.101  31.586   6.155
 8715POPC   C1A41415  19.074  31.433   6.455
 8715POPC   D2A41416  19.105  31.471   6.755
 8715POPC   C3A41417  19.025  31.519   7.055
 8715POPC   C4A41418  19.078  31.493   7.355
 8715POPC   C1B41419  19.098  31.758   6.455
 8715POPC   C2B41420  19.120  31.665   6.755
 8715POPC   C3B41421  19.098  31.737   7.055
 8715POPC   C4B41422  19.178  31.663   7.355
 8716POPC   NC341423  14.421  29.936   5.555
 8716POPC   PO441424  14.368  29.909   5.855
 8716POPC   GL141425  14.449  29.918   6.155
 8716POPC   GL241426  14.355  30.068   6.155
 8716POPC   C1A41427  14.453  29.924   6.455
 8716POPC   D2A41428  14.430  29.964   6.755
 8716POPC   C3A41429  14.384  29.969   7.055
 8716POPC   C4A41430  14.364  29.924   7.355
 8716POPC   C1B41431  14.269  30.176   6.455
 8716POPC   C2B41432  14.348  30.198   6.755
 8716POPC   C3B41433  14.306  30.105   7.055
 8716POPC   C4B41434  14.276  30.159   7.355
 8717POPC   NC341435  21.390  13.613   5.555
 8717POPC   PO441436  21.407  13.628   5.855
 8717POPC   GL141437  21.348  13.667   6.155
 8717POPC   GL241438  21.500  13.713   6.155
 8717POPC   C1A41439  21.403  13.580   6.455
 8717POPC   D2A41440  21.365  13.663   6.755
 8717POPC   C3A41441  21.338  13.651   7.055
 8717POPC   C4A41442  21.408  13.610   7.355
 8717POPC   C1B41443  21.640  13.763   6.455
 8717POPC   C2B41444  21.652  13.777   6.755
 8717POPC   C3B41445  21.594  13.721   7.055
 8717POPC   C4B41446  21.632  13.715   7.355
 8718POPC   NC341447   1.184   6.678   5.555
 8718POPC   PO441448   1.204   6.618   5.855
 8718POPC   GL141449   1.251   6.627   6.155
 8718POPC   GL241450   1.344   6.704   6.155
 8718POPC   C1A41451   1.171   6.614   6.455
 8718POPC   D2A41452   1.261   6.622   6.755
 8718POPC   C3A41453   1.193   6.633   7.055
 8718POPC   C4A41454   1.177   6.607   7.355
 8718POPC   C1B41455   1.484   6.706   6.455
 8718POPC   C2B41456   1.428   6.712   6.755
 8718POPC   C3B41457   1.417   6.795   7.055
 8718POPC   C4B41458   1.472   6.794   7.355
 8719POPC   NC341459  14.399  22.210   5.555
 8719POPC   PO441460  14.379  22.118   5.855
 8719POPC   GL141461  14.415  22.138   6.155
 8719POPC   GL241462  14.295  22.115   6.155
 8719POPC   C1A41463  14.419  22.172   6.455
 8719POPC   D2A41464  14.428  22.165   6.755
 8719POPC   C3A41465  14.449  22.210   7.055
 8719POPC   C4A41466  14.436  22.179   7.355
 8719POPC   C1B41467  14.150  22.098   6.455
 8719POPC   C2B41468  14.127  22.079   6.755
 8719POPC   C3B41469  14.203  22.118   7.055
 8719POPC   C4B41470  14.187  22.077   7.355
 8720POPC   NC341471  29.880  41.583   5.555
 8720POPC   PO441472  29.955  41.542   5.855
 8720POPC   GL141473  29.938  41.527   6.155
 8720POPC   GL241474  29.781  41.459   6.155
 8720POPC   C1A41475  29.967  41.560   6.455
 8720POPC   D2A41476  29.936  41.534   6.755
 8720POPC   C3A41477  29.906  41.604   7.055
 8720POPC   C4A41478  29.970  41.509   7.355
 8720POPC   C1B41479  29.665  41.464   6.455
 8720POPC   C2B41480  29.725  41.371   6.755
 8720POPC   C3B41481  29.737  41.441   7.055
 8720POPC   C4B41482  29.718  41.459   7.355
 8721POPC   NC341483  29.098  17.543   5.555
 8721POPC   PO441484  29.149  17.458   5.855
 8721POPC   GL141485  29.113  17.491   6.155
 8721POPC   GL241486  29.244  17.527   6.155
 8721POPC   C1A41487  29.159  17.544   6.455
 8721POPC   D2A41488  29.155  17.517   6.755
 8721POPC   C3A41489  29.180  17.544   7.055
 8721POPC   C4A41490  29.171  17.503   7.355
 8721POPC   C1B41491  29.412  17.485   6.455
 8721POPC   C2B41492  29.430  17.461   6.755
 8721POPC   C3B41493  29.368  17.475   7.055
 8721POPC   C4B41494  29.406  17.494   7.355
 8722POPC   NC341495   9.000   5.108   5.555
 8722POPC   PO441496   8.943   5.074   5.855
 8722POPC   GL141497   8.967   5.084   6.155
 8722POPC   GL241498   9.037   5.233   6.155
 8722POPC   C1A41499   8.927   5.084   6.455
 8722POPC   D2A41500   8.954   5.051   6.755
 8722POPC   C3A41501   9.022   5.132   7.055
 8722POPC   C4A41502   8.932   5.101   7.355
 8722POPC   C1B41503   9.146   5.312   6.455
 8722POPC   C2B41504   9.137   5.326   6.755
 8722POPC   C3B41505   9.102   5.333   7.055
 8722POPC   C4B41506   9.134   5.259   7.355
 8723POPC   NC341507  39.254  37.692   5.555
 8723POPC   PO441508  39.248  37.699   5.855
 8723POPC   GL141509  39.277  37.632   6.155
 8723POPC   GL241510  39.328  37.802   6.155
 8723POPC   C1A41511  39.192  37.644   6.455
 8723POPC   D2A41512  39.263  37.696   6.755
 8723POPC   C3A41513  39.280  37.692   7.055
 8723POPC   C4A41514  39.208  37.679   7.355
 8723POPC   C1B41515  39.482  37.841   6.455
 8723POPC   C2B41516  39.390  37.803   6.755
 8723POPC   C3B41517  39.422  37.829   7.055
 8723POPC   C4B41518  39.389  37.793   7.355
 8724POPC   NC341519  44.622  44.702   5.555
 8724POPC   PO441520  44.621  44.647   5.855
 8724POPC   GL141521  44.642  44.624   6.155
 8724POPC   GL241522  44.560  44.729   6.155
 8724POPC   C1A41523  44.619  44.708   6.455
 8724POPC   D2A41524  44.618  44.630   6.755
 8724POPC   C3A41525  44.692  44.709   7.055
 8724POPC   C4A41526  44.645  44.620   7.355
 8724POPC   C1B41527  44.457  44.752   6.455
 8724POPC   C2B41528  44.441  44.753   6.755
 8724POPC   C3B41529  44.444  44.746   7.055
 8724POPC   C4B41530  44.421  44.764   7.355
 8725POPC   NC341531   9.785  27.583   5.555
 8725POPC   PO441532   9.786  27.543   5.855
 8725POPC   GL141533   9.741  27.589   6.155
 8725POPC   GL241534   9.613  27.623   6.155
 8725POPC   C1A41535   9.756  27.628   6.455
 8725POPC   D2A41536   9.732  27.553   6.755
 8725POPC   C3A41537   9.717  27.616   7.055
 8725POPC   C4A41538   9.705  27.623   7.355
 8725POPC   C1B41539   9.462  27.537   6.455
 8725POPC   C2B41540   9.522  27.537   6.755
 8725POPC   C3B41541   9.479  27.583   7.055
 8725POPC   C4B41542   9.500  27.589   7.355
 8726POPC   NC341543  35.384  12.854   5.555
 8726POPC   PO441544  35.377  12.889   5.855
 8726POPC   GL141545  35.363  12.840   6.155
 8726POPC   GL241546  35.450  12.724   6.155
 8726POPC   C1A41547  35.306  12.836   6.455
 8726POPC   D2A41548  35.306  12.802   6.755
 8726POPC   C3A41549  35.380  12.822   7.055
 8726POPC   C4A41550  35.324  12.849   7.355
 8726POPC   C1B41551  35.554  12.690   6.455
 8726POPC   C2B41552  35.491  12.672   6.755
 8726POPC   C3B41553  35.492  12.669   7.055
 8726POPC   C4B41554  35.521  12.669   7.355
 8727POPC   NC341555   1.165  16.704   5.555
 8727POPC   PO441556   1.218  16.736   5.855
 8727POPC   GL141557   1.176  16.688   6.155
 8727POPC   GL241558   1.169  16.581   6.155
 8727POPC   C1A41559   1.219  16.725   6.455
 8727POPC   D2A41560   1.181  16.692   6.755
 8727POPC   C3A41561   1.210  16.737   7.055
 8727POPC   C4A41562   1.175  16.768   7.355
 8727POPC   C1B41563   1.199  16.495   6.455
 8727POPC   C2B41564   1.227  16.445   6.755
 8727POPC   C3B41565   1.207  16.441   7.055
 8727POPC   C4B41566   1.138  16.521   7.355
 8728POPC   NC341567  43.155  24.503   5.555
 8728POPC   PO441568  43.144  24.474   5.855
 8728POPC   GL141569  43.125  24.450   6.155
 8728POPC   GL241570  43.028  24.556   6.155
 8728POPC   C1A41571  43.154  24.517   6.455
 8728POPC   D2A41572  43.094  24.449   6.755
 8728POPC   C3A41573  43.063  24.450   7.055
 8728POPC   C4A41574  43.098  24.519   7.355
 8728POPC   C1B41575  42.974  24.680   6.455
 8728POPC   C2B41576  42.932  24.656   6.755
 8728POPC   C3B41577  42.940  24.696   7.055
 8728POPC   C4B41578  42.891  24.659   7.355
 8729POPC   NC341579  38.427  22.944   5.555
 8729POPC   PO441580  38.412  22.893   5.855
 8729POPC   GL141581  38.447  22.975   6.155
 8729POPC   GL241582  38.499  23.075   6.155
 8729POPC   C1A41583  38.489  22.948   6.455
 8729POPC   D2A41584  38.418  22.960   6.755
 8729POPC   C3A41585  38.434  22.945   7.055
 8729POPC   C4A41586  38.456  22.895   7.355
 8729POPC   C1B41587  38.621  23.150   6.455
 8729POPC   C2B41588  38.600  23.116   6.755
 8729POPC   C3B41589  38.672  23.120   7.055
 8729POPC   C4B41590  38.644  23.147   7.355
 8730POPC   NC341591  17.533  17.545   5.555
 8730POPC   PO441592  17.521  17.540   5.855
 8730POPC   GL141593  17.473  17.466   6.155
 8730POPC   GL241594  17.595  17.495   6.155
 8730POPC   C1A41595  17.481  17.537   6.455
 8730POPC   D2A41596  17.479  17.499   6.755
 8730POPC   C3A41597  17.486  17.537   7.055
 8730POPC   C4A41598  17.466  17.500   7.355
 8730POPC   C1B41599  17.749  17.519   6.455
 8730POPC   C2B41600  17.715  17.545   6.755
 8730POPC   C3B41601  17.782  17.499   7.055
 8730POPC   C4B41602  17.721  17.553   7.355
 8731POPC   NC341603  13.658  41.520   5.555
 8731POPC   PO441604  13.607  41.551   5.855
 8731POPC   GL141605  13.594  41.532   6.155
 8731POPC   GL241606  13.542  41.465   6.155
 8731POPC   C1A41607  13.595  41.601   6.455
 8731POPC   D2A41608  13.600  41.562   6.755
 8731POPC   C3A41609  13.621  41.551   7.055
 8731POPC   C4A41610  13.615  41.579   7.355
 8731POPC   C1B41611  13.542  41.301   6.455
 8731POPC   C2B41612  13.548  41.271   6.755
 8731POPC   C3B41613  13.565  41.276   7.055
 8731POPC   C4B41614  13.540  41.348   7.355
 8732POPC   NC341615  35.317  18.265   5.555
 8732POPC   PO441616  35.385  18.280   5.855
 8732POPC   GL141617  35.341  18.256   6.155
 8732POPC   GL241618  35.433  18.243   6.155
 8732POPC   C1A41619  35.356  18.293   6.455
 8732POPC   D2A41620  35.400  18.316   6.755
 8732POPC   C3A41621  35.321  18.302   7.055
 8732POPC   C4A41622  35.381  18.247   7.355
 8732POPC   C1B41623  35.610  18.158   6.455
 8732POPC   C2B41624  35.581  18.191   6.755
 8732POPC   C3B41625  35.614  18.193   7.055
 8732POPC   C4B41626  35.534  18.192   7.355
 8733POPC   NC341627  20.647  39.252   5.555
 8733POPC   PO441628  20.647  39.195   5.855
 8733POPC   GL141629  20.634  39.190   6.155
 8733POPC   GL241630  20.631  39.084   6.155
 8733POPC   C1A41631  20.658  39.247   6.455
 8733POPC   D2A41632  20.605  39.241   6.755
 8733POPC   C3A41633  20.654  39.278   7.055
 8733POPC   C4A41634  20.611  39.253   7.355
 8733POPC   C1B41635  20.584  39.017   6.455
 8733POPC   C2B41636  20.601  38.960   6.755
 8733POPC   C3B41637  20.548  38.938   7.055
 8733POPC   C4B41638  20.581  39.028   7.355
 8734POPC   NC341639  33.782  19.841   5.555
 8734POPC   PO441640  33.758  19.868   5.855
 8734POPC   GL141641  33.834  19.803   6.155
 8734POPC   GL241642  33.862  19.761   6.155
 8734POPC   C1A41643  33.834  19.851   6.455
 8734POPC   D2A41644  33.842  19.833   6.755
 8734POPC   C3A41645  33.761  19.836   7.055
 8734POPC   C4A41646  33.766  19.855   7.355
 8734POPC   C1B41647  33.933  19.660   6.455
 8734POPC   C2B41648  33.988  19.609   6.755
 8734POPC   C3B41649  33.947  19.670   7.055
 8734POPC   C4B41650  33.942  19.607   7.355
 8735POPC   NC341651  24.483  12.115   5.555
 8735POPC   PO441652  24.514  12.124   5.855
 8735POPC   GL141653  24.489  12.104   6.155
 8735POPC   GL241654  24.416  12.044   6.155
 8735POPC   C1A41655  24.508  12.053   6.455
 8735POPC   D2A41656  24.509  12.069   6.755
 8735POPC   C3A41657  24.454  12.030   7.055
 8735POPC   C4A41658  24.462  12.062   7.355
 8735POPC   C1B41659  24.219  12.036   6.455
 8735POPC   C2B41660  24.286  11.962   6.755
 8735POPC   C3B41661  24.272  11.993   7.055
 8735POPC   C4B41662  24.267  12.028   7.355
 8736POPC   NC341663  33.024   0.392   5.555
 8736POPC   PO441664  33.030   0.429   5.855
 8736POPC   GL141665  33.072   0.484   6.155
 8736POPC   GL241666  32.936   0.401   6.155
 8736POPC   C1A41667  33.012   0.413   6.455
 8736POPC   D2A41668  33.045   0.445   6.755
 8736POPC   C3A41669  33.013   0.399   7.055
 8736POPC   C4A41670  33.012   0.437   7.355
 8736POPC   C1B41671  32.787   0.393   6.455
 8736POPC   C2B41672  32.769   0.405   6.755
 8736POPC   C3B41673  32.742   0.462   7.055
 8736POPC   C4B41674  32.809   0.459   7.355
 8737POPC   NC341675  22.211  19.867   5.555
 8737POPC   PO441676  22.159  19.846   5.855
 8737POPC   GL141677  22.143  19.835   6.155
 8737POPC   GL241678  22.171  19.718   6.155
 8737POPC   C1A41679  22.160  19.873   6.455
 8737POPC   D2A41680  22.177  19.802   6.755
 8737POPC   C3A41681  22.172  19.855   7.055
 8737POPC   C4A41682  22.167  19.811   7.355
 8737POPC   C1B41683  22.207  19.570   6.455
 8737POPC   C2B41684  22.221  19.562   6.755
 8737POPC   C3B41685  22.212  19.601   7.055
 8737POPC   C4B41686  22.272  19.602   7.355
 8738POPC   NC341687  36.878  22.944   5.555
 8738POPC   PO441688  36.924  22.902   5.855
 8738POPC   GL141689  36.899  22.933   6.155
 8738POPC   GL241690  37.014  22.965   6.155
 8738POPC   C1A41691  36.861  22.923   6.455
 8738POPC   D2A41692  36.928  22.932   6.755
 8738POPC   C3A41693  36.867  22.948   7.055
 8738POPC   C4A41694  36.895  22.945   7.355
 8738POPC   C1B41695  37.113  22.956   6.455
 8738POPC   C2B41696  37.152  22.947   6.755
 8738POPC   C3B41697  37.149  22.968   7.055
 8738POPC   C4B41698  37.103  22.989   7.355
 8739POPC   NC341699  17.494  22.940   5.555
 8739POPC   PO441700  17.460  22.942   5.855
 8739POPC   GL141701  17.543  22.901   6.155
 8739POPC   GL241702  17.639  22.947   6.155
 8739POPC   C1A41703  17.551  22.890   6.455
 8739POPC   D2A41704  17.480  22.983   6.755
 8739POPC   C3A41705  17.460  22.914   7.055
 8739POPC   C4A41706  17.461  22.917   7.355
 8739POPC   C1B41707  17.710  22.986   6.455
 8739POPC   C2B41708  17.751  22.912   6.755
 8739POPC   C3B41709  17.709  22.943   7.055
 8739POPC   C4B41710  17.741  22.995   7.355
 8740POPC   NC341711  29.110  43.087   5.555
 8740POPC   PO441712  29.126  43.096   5.855
 8740POPC   GL141713  29.192  43.080   6.155
 8740POPC   GL241714  29.219  43.185   6.155
 8740POPC   C1A41715  29.187  43.137   6.455
 8740POPC   D2A41716  29.157  43.072   6.755
 8740POPC   C3A41717  29.145  43.107   7.055
 8740POPC   C4A41718  29.159  43.145   7.355
 8740POPC   C1B41719  29.369  43.308   6.455
 8740POPC   C2B41720  29.341  43.321   6.755
 8740POPC   C3B41721  29.367  43.328   7.055
 8740POPC   C4B41722  29.282  43.267   7.355
 8741POPC   NC341723  40.738  32.257   5.555
 8741POPC   PO441724  40.817  32.214   5.855
 8741POPC   GL141725  40.776  32.200   6.155
 8741POPC   GL241726  40.855  32.299   6.155
 8741POPC   C1A41727  40.792  32.278   6.455
 8741POPC   D2A41728  40.742  32.228   6.755
 8741POPC   C3A41729  40.788  32.212   7.055
 8741POPC   C4A41730  40.756  32.226   7.355
 8741POPC   C1B41731  40.974  32.341   6.455
 8741POPC   C2B41732  40.976  32.413   6.755
 8741POPC   C3B41733  41.030  32.409   7.055
 8741POPC   C4B41734  41.010  32.353   7.355
 8742POPC   NC341735  14.375  37.676   5.555
 8742POPC   PO441736  14.435  37.669   5.855
 8742POPC   GL141737  14.451  37.690   6.155
 8742POPC   GL241738  14.290  37.783   6.155
 8742POPC   C1A41739  14.445  37.677   6.455
 8742POPC   D2A41740  14.439  37.665   6.755
 8742POPC   C3A41741  14.451  37.660   7.055
 8742POPC   C4A41742  14.416  37.650   7.355
 8742POPC   C1B41743  14.233  37.845   6.455
 8742POPC   C2B41744  14.202  37.878   6.755
 8742POPC   C3B41745  14.230  37.886   7.055
 8742POPC   C4B41746  14.205  37.862   7.355
 8743POPC   NC341747  27.555  16.715   5.555
 8743POPC   PO441748  27.580  16.739   5.855
 8743POPC   GL141749  27.565  16.756   6.155
 8743POPC   GL241750  27.477  16.682   6.155
 8743POPC   C1A41751  27.558  16.743   6.455
 8743POPC   D2A41752  27.606  16.748   6.755
 8743POPC   C3A41753  27.559  16.695   7.055
 8743POPC   C4A41754  27.553  16.703   7.355
 8743POPC   C1B41755  27.338  16.714   6.455
 8743POPC   C2B41756  27.387  16.697   6.755
 8743POPC   C3B41757  27.382  16.768   7.055
 8743POPC   C4B41758  27.319  16.684   7.355
 8744POPC   NC341759  40.750  14.413   5.555
 8744POPC   PO441760  40.830  14.414   5.855
 8744POPC   GL141761  40.750  14.435   6.155
 8744POPC   GL241762  40.662  14.443   6.155
 8744POPC   C1A41763  40.763  14.355   6.455
 8744POPC   D2A41764  40.806  14.376   6.755
 8744POPC   C3A41765  40.739  14.444   7.055
 8744POPC   C4A41766  40.787  14.439   7.355
 8744POPC   C1B41767  40.606  14.551   6.455
 8744POPC   C2B41768  40.635  14.544   6.755
 8744POPC   C3B41769  40.561  14.528   7.055
 8744POPC   C4B41770  40.536  14.567   7.355
 8745POPC   NC341771  42.347  39.232   5.555
 8745POPC   PO441772  42.379  39.221   5.855
 8745POPC   GL141773  42.379  39.202   6.155
 8745POPC   GL241774  42.456  39.171   6.155
 8745POPC   C1A41775  42.354  39.205   6.455
 8745POPC   D2A41776  42.340  39.258   6.755
 8745POPC   C3A41777  42.311  39.229   7.055
 8745POPC   C4A41778  42.307  39.207   7.355
 8745POPC   C1B41779  42.463  39.098   6.455
 8745POPC   C2B41780  42.461  39.024   6.755
 8745POPC   C3B41781  42.535  39.027   7.055
 8745POPC   C4B41782  42.527  39.033   7.355
 8746POPC   NC341783  30.683  44.682   5.555
 8746POPC   PO441784  30.665  44.689   5.855
 8746POPC   GL141785  30.714  44.672   6.155
 8746POPC   GL241786  30.583  44.739   6.155
 8746POPC   C1A41787  30.739  44.666   6.455
 8746POPC   D2A41788  30.665  44.680   6.755
 8746POPC   C3A41789  30.715  44.708   7.055
 8746POPC   C4A41790  30.744  44.701   7.355
 8746POPC   C1B41791  30.567  44.863   6.455
 8746POPC   C2B41792  30.503  44.814   6.755
 8746POPC   C3B41793  30.507  44.851   7.055
 8746POPC   C4B41794  30.484  44.893   7.355
 8747POPC   NC341795  10.490  22.924   5.555
 8747POPC   PO441796  10.563  22.890   5.855
 8747POPC   GL141797  10.504  22.979   6.155
 8747POPC   GL241798  10.413  23.067   6.155
 8747POPC   C1A41799  10.533  22.937   6.455
 8747POPC   D2A41800  10.527  22.918   6.755
 8747POPC   C3A41801  10.558  22.967   7.055
 8747POPC   C4A41802  10.536  22.949   7.355
 8747POPC   C1B41803  10.362  23.151   6.455
 8747POPC   C2B41804  10.349  23.134   6.755
 8747POPC   C3B41805  10.368  23.180   7.055
 8747POPC   C4B41806  10.395  23.159   7.355
 8748POPC   NC341807  12.057  18.258   5.555
 8748POPC   PO441808  12.084  18.274   5.855
 8748POPC   GL141809  12.099  18.253   6.155
 8748POPC   GL241810  11.954  18.281   6.155
 8748POPC   C1A41811  12.062  18.285   6.455
 8748POPC   D2A41812  12.107  18.262   6.755
 8748POPC   C3A41813  12.061  18.288   7.055
 8748POPC   C4A41814  12.087  18.315   7.355
 8748POPC   C1B41815  11.824  18.311   6.455
 8748POPC   C2B41816  11.857  18.337   6.755
 8748POPC   C3B41817  11.812  18.282   7.055
 8748POPC   C4B41818  11.841  18.297   7.355
 8749POPC   NC341819   8.183  33.069   5.555
 8749POPC   PO441820   8.154  33.034   5.855
 8749POPC   GL141821   8.183  33.018   6.155
 8749POPC   GL241822   8.321  33.080   6.155
 8749POPC   C1A41823   8.152  32.998   6.455
 8749POPC   D2A41824   8.218  33.019   6.755
 8749POPC   C3A41825   8.202  33.057   7.055
 8749POPC   C4A41826   8.189  33.068   7.355
 8749POPC   C1B41827   8.440  33.112   6.455
 8749POPC   C2B41828   8.480  33.115   6.755
 8749POPC   C3B41829   8.392  33.110   7.055
 8749POPC   C4B41830   8.402  33.056   7.355
 8750POPC   NC341831  23.759  29.150   5.555
 8750POPC   PO441832  23.693  29.176   5.855
 8750POPC   GL141833  23.718  29.177   6.155
 8750POPC   GL241834  23.554  29.177   6.155
 8750POPC   C1A41835  23.708  29.104   6.455
 8750POPC   D2A41836  23.710  29.158   6.755
 8750POPC   C3A41837  23.749  29.189   7.055
 8750POPC   C4A41838  23.739  29.097   7.355
 8750POPC   C1B41839  23.501  29.153   6.455
 8750POPC   C2B41840  23.472  29.183   6.755
 8750POPC   C3B41841  23.501  29.156   7.055
 8750POPC   C4B41842  23.503  29.182   7.355
 8751POPC   NC341843  29.965  21.367   5.555
 8751POPC   PO441844  29.890  21.404   5.855
 8751POPC   GL141845  29.899  21.409   6.155
 8751POPC   GL241846  29.952  21.538   6.155
 8751POPC   C1A41847  29.968  21.401   6.455
 8751POPC   D2A41848  29.915  21.391   6.755
 8751POPC   C3A41849  29.881  21.414   7.055
 8751POPC   C4A41850  29.953  21.375   7.355
 8751POPC   C1B41851  29.940  21.677   6.455
 8751POPC   C2B41852  29.965  21.643   6.755
 8751POPC   C3B41853  29.979  21.654   7.055
 8751POPC   C4B41854  29.922  21.597   7.355
 8752POPC   NC341855  19.793  40.028   5.555
 8752POPC   PO441856  19.786  39.978   5.855
 8752POPC   GL141857  19.858  39.989   6.155
 8752POPC   GL241858  19.756  39.959   6.155
 8752POPC   C1A41859  19.813  39.964   6.455
 8752POPC   D2A41860  19.795  39.969   6.755
 8752POPC   C3A41861  19.826  40.023   7.055
 8752POPC   C4A41862  19.852  39.999   7.355
 8752POPC   C1B41863  19.653  39.810   6.455
 8752POPC   C2B41864  19.671  39.811   6.755
 8752POPC   C3B41865  19.623  39.832   7.055
 8752POPC   C4B41866  19.635  39.875   7.355
 8753POPC   NC341867  13.664  26.787   5.555
 8753POPC   PO441868  13.640  26.864   5.855
 8753POPC   GL141869  13.587  26.783   6.155
 8753POPC   GL241870  13.491  26.750   6.155
 8753POPC   C1A41871  13.663  26.791   6.455
 8753POPC   D2A41872  13.592  26.834   6.755
 8753POPC   C3A41873  13.671  26.794   7.055
 8753POPC   C4A41874  13.611  26.846   7.355
 8753POPC   C1B41875  13.372  26.702   6.455
 8753POPC   C2B41876  13.465  26.705   6.755
 8753POPC   C3B41877  13.383  26.666   7.055
 8753POPC   C4B41878  13.430  26.720   7.355
 8754POPC   NC341879  42.347  23.691   5.555
 8754POPC   PO441880  42.317  23.763   5.855
 8754POPC   GL141881  42.297  23.702   6.155
 8754POPC   GL241882  42.265  23.612   6.155
 8754POPC   C1A41883  42.371  23.689   6.455
 8754POPC   D2A41884  42.294  23.719   6.755
 8754POPC   C3A41885  42.313  23.666   7.055
 8754POPC   C4A41886  42.286  23.665   7.355
 8754POPC   C1B41887  42.224  23.528   6.455
 8754POPC   C2B41888  42.210  23.474   6.755
 8754POPC   C3B41889  42.271  23.496   7.055
 8754POPC   C4B41890  42.207  23.482   7.355
 8755POPC   NC341891  12.029   6.676   5.555
 8755POPC   PO441892  12.051   6.605   5.855
 8755POPC   GL141893  12.026   6.606   6.155
 8755POPC   GL241894  12.119   6.719   6.155
 8755POPC   C1A41895  12.107   6.609   6.455
 8755POPC   D2A41896  12.084   6.674   6.755
 8755POPC   C3A41897  12.099   6.633   7.055
 8755POPC   C4A41898  12.114   6.600   7.355
 8755POPC   C1B41899  12.234   6.856   6.455
 8755POPC   C2B41900  12.153   6.881   6.755
 8755POPC   C3B41901  12.208   6.835   7.055
 8755POPC   C4B41902  12.247   6.900   7.355
 8756POPC   NC341903  40.736  38.482   5.555
 8756POPC   PO441904  40.812  38.420   5.855
 8756POPC   GL141905  40.737  38.434   6.155
 8756POPC   GL241906  40.688  38.574   6.155
 8756POPC   C1A41907  40.768  38.407   6.455
 8756POPC   D2A41908  40.755  38.467   6.755
 8756POPC   C3A41909  40.795  38.471   7.055
 8756POPC   C4A41910  40.820  38.409   7.355
 8756POPC   C1B41911  40.609  38.604   6.455
 8756POPC   C2B41912  40.630  38.596   6.755
 8756POPC   C3B41913  40.589  38.657   7.055
 8756POPC   C4B41914  40.634  38.632   7.355
 8757POPC   NC341915  29.157  33.799   5.555
 8757POPC   PO441916  29.186  33.848   5.855
 8757POPC   GL141917  29.135  33.836   6.155
 8757POPC   GL241918  29.043  33.736   6.155
 8757POPC   C1A41919  29.167  33.802   6.455
 8757POPC   D2A41920  29.165  33.763   6.755
 8757POPC   C3A41921  29.190  33.770   7.055
 8757POPC   C4A41922  29.106  33.847   7.355
 8757POPC   C1B41923  28.909  33.783   6.455
 8757POPC   C2B41924  28.895  33.733   6.755
 8757POPC   C3B41925  28.875  33.777   7.055
 8757POPC   C4B41926  28.868  33.741   7.355
 8758POPC   NC341927   4.344   7.379   5.555
 8758POPC   PO441928   4.314   7.385   5.855
 8758POPC   GL141929   4.338   7.429   6.155
 8758POPC   GL241930   4.240   7.351   6.155
 8758POPC   C1A41931   4.311   7.468   6.455
 8758POPC   D2A41932   4.276   7.445   6.755
 8758POPC   C3A41933   4.297   7.436   7.055
 8758POPC   C4A41934   4.331   7.446   7.355
 8758POPC   C1B41935   4.176   7.260   6.455
 8758POPC   C2B41936   4.188   7.215   6.755
 8758POPC   C3B41937   4.205   7.162   7.055
 8758POPC   C4B41938   4.191   7.181   7.355
 8759POPC   NC341939   2.796   5.097   5.555
 8759POPC   PO441940   2.773   5.098   5.855
 8759POPC   GL141941   2.774   5.055   6.155
 8759POPC   GL241942   2.859   5.204   6.155
 8759POPC   C1A41943   2.783   5.050   6.455
 8759POPC   D2A41944   2.790   5.056   6.755
 8759POPC   C3A41945   2.722   5.083   7.055
 8759POPC   C4A41946   2.736   5.063   7.355
 8759POPC   C1B41947   2.891   5.309   6.455
 8759POPC   C2B41948   2.857   5.276   6.755
 8759POPC   C3B41949   2.911   5.298   7.055
 8759POPC   C4B41950   2.901   5.280   7.355
 8760POPC   NC341951  26.075  18.285   5.555
 8760POPC   PO441952  26.033  18.331   5.855
 8760POPC   GL141953  26.020  18.257   6.155
 8760POPC   GL241954  25.980  18.335   6.155
 8760POPC   C1A41955  26.061  18.311   6.455
 8760POPC   D2A41956  26.022  18.309   6.755
 8760POPC   C3A41957  25.999  18.330   7.055
 8760POPC   C4A41958  26.080  18.237   7.355
 8760POPC   C1B41959  25.850  18.398   6.455
 8760POPC   C2B41960  25.790  18.426   6.755
 8760POPC   C3B41961  25.810  18.412   7.055
 8760POPC   C4B41962  25.785  18.458   7.355
 8761POPC   NC341963  25.259   5.847   5.555
 8761POPC   PO441964  25.264   5.893   5.855
 8761POPC   GL141965  25.222   5.866   6.155
 8761POPC   GL241966  25.155   5.960   6.155
 8761POPC   C1A41967  25.288   5.879   6.455
 8761POPC   D2A41968  25.233   5.919   6.755
 8761POPC   C3A41969  25.228   5.882   7.055
 8761POPC   C4A41970  25.226   5.835   7.355
 8761POPC   C1B41971  25.085   5.993   6.455
 8761POPC   C2B41972  25.118   6.048   6.755
 8761POPC   C3B41973  25.071   6.071   7.055
 8761POPC   C4B41974  25.059   5.996   7.355
 8762POPC   NC341975   5.854  22.179   5.555
 8762POPC   PO441976   5.864  22.194   5.855
 8762POPC   GL141977   5.913  22.194   6.155
 8762POPC   GL241978   5.983  22.093   6.155
 8762POPC   C1A41979   5.832  22.201   6.455
 8762POPC   D2A41980   5.856  22.160   6.755
 8762POPC   C3A41981   5.842  22.126   7.055
 8762POPC   C4A41982   5.908  22.199   7.355
 8762POPC   C1B41983   5.996  21.968   6.455
 8762POPC   C2B41984   5.968  21.912   6.755
 8762POPC   C3B41985   6.051  21.944   7.055
 8762POPC   C4B41986   6.052  21.920   7.355
 8763POPC   NC341987  24.521   8.928   5.555
 8763POPC   PO441988  24.536   9.003   5.855
 8763POPC   GL141989  24.518   9.012   6.155
 8763POPC   GL241990  24.567   8.918   6.155
 8763POPC   C1A41991  24.494   9.020   6.455
 8763POPC   D2A41992  24.525   8.985   6.755
 8763POPC   C3A41993  24.479   8.970   7.055
 8763POPC   C4A41994  24.449   8.943   7.355
 8763POPC   C1B41995  24.693   8.895   6.455
 8763POPC   C2B41996  24.750   8.904   6.755
 8763POPC   C3B41997  24.725   8.925   7.055
 8763POPC   C4B41998  24.759   8.957   7.355
 8764POPC   NC341999  43.882   1.993   5.555
 8764POPC   PO442000  43.843   2.023   5.855
 8764POPC   GL142001  43.899   1.964   6.155
 8764POPC   GL242002  44.020   1.971   6.155
 8764POPC   C1A42003  43.836   1.945   6.455
 8764POPC   D2A42004  43.907   1.958   6.755
 8764POPC   C3A42005  43.892   1.966   7.055
 8764POPC   C4A42006  43.929   1.952   7.355
 8764POPC   C1B42007  44.086   1.874   6.455
 8764POPC   C2B42008  44.127   1.825   6.755
 8764POPC   C3B42009  44.131   1.877   7.055
 8764POPC   C4B42010  44.140   1.885   7.355
 8765POPC   NC342011  32.298  43.919   5.555
 8765POPC   PO442012  32.286  43.866   5.855
 8765POPC   GL142013  32.257  43.876   6.155
 8765POPC   GL242014  32.210  43.966   6.155
 8765POPC   C1A42015  32.247  43.850   6.455
 8765POPC   D2A42016  32.267  43.892   6.755
 8765POPC   C3A42017  32.262  43.844   7.055
 8765POPC   C4A42018  32.245  43.884   7.355
 8765POPC   C1B42019  32.118  44.118   6.455
 8765POPC   C2B42020  32.101  44.070   6.755
 8765POPC   C3B42021  32.104  44.060   7.055
 8765POPC   C4B42022  32.083  44.024   7.355
 8766POPC   NC342023  23.698  12.066   5.555
 8766POPC   PO442024  23.693  12.062   5.855
 8766POPC   GL142025  23.733  12.118   6.155
 8766POPC   GL242026  23.756  11.953   6.155
 8766POPC   C1A42027  23.705  12.046   6.455
 8766POPC   D2A42028  23.716  12.050   6.755
 8766POPC   C3A42029  23.739  12.081   7.055
 8766POPC   C4A42030  23.751  12.108   7.355
 8766POPC   C1B42031  23.800  11.818   6.455
 8766POPC   C2B42032  23.784  11.834   6.755
 8766POPC   C3B42033  23.767  11.862   7.055
 8766POPC   C4B42034  23.782  11.795   7.355
 8767POPC   NC342035  11.325  27.581   5.555
 8767POPC   PO442036  11.255  27.584   5.855
 8767POPC   GL142037  11.281  27.574   6.155
 8767POPC   GL242038  11.300  27.436   6.155
 8767POPC   C1A42039  11.297  27.584   6.455
 8767POPC   D2A42040  11.274  27.632   6.755
 8767POPC   C3A42041  11.268  27.560   7.055
 8767POPC   C4A42042  11.302  27.569   7.355
 8767POPC   C1B42043  11.346  27.383   6.455
 8767POPC   C2B42044  11.397  27.308   6.755
 8767POPC   C3B42045  11.358  27.350   7.055
 8767POPC   C4B42046  11.384  27.388   7.355
 8768POPC   NC342047   1.952  34.618   5.555
 8768POPC   PO442048   2.008  34.565   5.855
 8768POPC   GL142049   2.037  34.614   6.155
 8768POPC   GL242050   2.096  34.485   6.155
 8768POPC   C1A42051   2.008  34.619   6.455
 8768POPC   D2A42052   1.959  34.533   6.755
 8768POPC   C3A42053   2.016  34.568   7.055
 8768POPC   C4A42054   1.961  34.610   7.355
 8768POPC   C1B42055   2.194  34.452   6.455
 8768POPC   C2B42056   2.224  34.448   6.755
 8768POPC   C3B42057   2.233  34.482   7.055
 8768POPC   C4B42058   2.150  34.397   7.355
 8769POPC   NC342059  21.420  33.847   5.555
 8769POPC   PO442060  21.358  33.773   5.855
 8769POPC   GL142061  21.378  33.847   6.155
 8769POPC   GL242062  21.476  33.813   6.155
 8769POPC   C1A42063  21.427  33.823   6.455
 8769POPC   D2A42064  21.380  33.837   6.755
 8769POPC   C3A42065  21.425  33.763   7.055
 8769POPC   C4A42066  21.435  33.769   7.355
 8769POPC   C1B42067  21.624  33.789   6.455
 8769POPC   C2B42068  21.639  33.814   6.755
 8769POPC   C3B42069  21.660  33.793   7.055
 8769POPC   C4B42070  21.645  33.766   7.355
 8770POPC   NC342071  26.826  43.895   5.555
 8770POPC   PO442072  26.787  43.844   5.855
 8770POPC   GL142073  26.829  43.870   6.155
 8770POPC   GL242074  26.727  43.967   6.155
 8770POPC   C1A42075  26.794  43.935   6.455
 8770POPC   D2A42076  26.830  43.891   6.755
 8770POPC   C3A42077  26.820  43.873   7.055
 8770POPC   C4A42078  26.781  43.838   7.355
 8770POPC   C1B42079  26.700  44.063   6.455
 8770POPC   C2B42080  26.696  44.074   6.755
 8770POPC   C3B42081  26.620  44.130   7.055
 8770POPC   C4B42082  26.651  44.073   7.355
 8771POPC   NC342083  22.171  22.946   5.555
 8771POPC   PO442084  22.122  22.957   5.855
 8771POPC   GL142085  22.160  22.957   6.155
 8771POPC   GL242086  22.048  22.944   6.155
 8771POPC   C1A42087  22.158  22.892   6.455
 8771POPC   D2A42088  22.200  22.924   6.755
 8771POPC   C3A42089  22.206  22.946   7.055
 8771POPC   C4A42090  22.198  22.937   7.355
 8771POPC   C1B42091  21.928  22.917   6.455
 8771POPC   C2B42092  21.910  22.902   6.755
 8771POPC   C3B42093  21.968  22.882   7.055
 8771POPC   C4B42094  21.911  22.837   7.355
 8772POPC   NC342095  29.942  42.332   5.555
 8772POPC   PO442096  29.881  42.305   5.855
 8772POPC   GL142097  29.934  42.341   6.155
 8772POPC   GL242098  30.047  42.387   6.155
 8772POPC   C1A42099  29.946  42.293   6.455
 8772POPC   D2A42100  29.888  42.377   6.755
 8772POPC   C3A42101  29.948  42.370   7.055
 8772POPC   C4A42102  29.950  42.289   7.355
 8772POPC   C1B42103  30.127  42.479   6.455
 8772POPC   C2B42104  30.124  42.432   6.755
 8772POPC   C3B42105  30.145  42.479   7.055
 8772POPC   C4B42106  30.149  42.455   7.355
 8773POPC   NC342107  27.618   6.662   5.555
 8773POPC   PO442108  27.564   6.641   5.855
 8773POPC   GL142109  27.568   6.597   6.155
 8773POPC   GL242110  27.524   6.805   6.155
 8773POPC   C1A42111  27.641   6.604   6.455
 8773POPC   D2A42112  27.556   6.614   6.755
 8773POPC   C3A42113  27.594   6.621   7.055
 8773POPC   C4A42114  27.582   6.631   7.355
 8773POPC   C1B42115  27.542   6.897   6.455
 8773POPC   C2B42116  27.573   6.911   6.755
 8773POPC   C3B42117  27.507   6.865   7.055
 8773POPC   C4B42118  27.499   6.932   7.355
 8774POPC   NC342119  20.566  16.751   5.555
 8774POPC   PO442120  20.604  16.744   5.855
 8774POPC   GL142121  20.653  16.760   6.155
 8774POPC   GL242122  20.576  16.789   6.155
 8774POPC   C1A42123  20.626  16.738   6.455
 8774POPC   D2A42124  20.579  16.699   6.755
 8774POPC   C3A42125  20.568  16.695   7.055
 8774POPC   C4A42126  20.645  16.713   7.355
 8774POPC   C1B42127  20.403  16.920   6.455
 8774POPC   C2B42128  20.395  16.891   6.755
 8774POPC   C3B42129  20.468  16.880   7.055
 8774POPC   C4B42130  20.422  16.920   7.355
 8775POPC   NC342131  25.222  19.032   5.555
 8775POPC   PO442132  25.296  19.029   5.855
 8775POPC   GL142133  25.222  19.011   6.155
 8775POPC   GL242134  25.168  19.013   6.155
 8775POPC   C1A42135  25.259  19.049   6.455
 8775POPC   D2A42136  25.237  19.084   6.755
 8775POPC   C3A42137  25.276  19.022   7.055
 8775POPC   C4A42138  25.235  19.028   7.355
 8775POPC   C1B42139  25.022  19.059   6.455
 8775POPC   C2B42140  25.051  19.042   6.755
 8775POPC   C3B42141  24.974  19.030   7.055
 8775POPC   C4B42142  24.986  18.986   7.355
 8776POPC   NC342143  26.792  37.692   5.555
 8776POPC   PO442144  26.853  37.726   5.855
 8776POPC   GL142145  26.771  37.718   6.155
 8776POPC   GL242146  26.890  37.532   6.155
 8776POPC   C1A42147  26.806  37.726   6.455
 8776POPC   D2A42148  26.792  37.694   6.755
 8776POPC   C3A42149  26.779  37.701   7.055
 8776POPC   C4A42150  26.848  37.701   7.355
 8776POPC   C1B42151  26.870  37.418   6.455
 8776POPC   C2B42152  26.880  37.441   6.755
 8776POPC   C3B42153  26.899  37.408   7.055
 8776POPC   C4B42154  26.913  37.482   7.355
 8777POPC   NC342155   1.958  38.440   5.555
 8777POPC   PO442156   1.966  38.467   5.855
 8777POPC   GL142157   1.965  38.470   6.155
 8777POPC   GL242158   1.901  38.461   6.155
 8777POPC   C1A42159   2.023  38.473   6.455
 8777POPC   D2A42160   1.962  38.468   6.755
 8777POPC   C3A42161   1.960  38.502   7.055
 8777POPC   C4A42162   1.992  38.434   7.355
 8777POPC   C1B42163   1.783  38.426   6.455
 8777POPC   C2B42164   1.751  38.374   6.755
 8777POPC   C3B42165   1.695  38.379   7.055
 8777POPC   C4B42166   1.708  38.392   7.355
 8778POPC   NC342167  12.809  40.768   5.555
 8778POPC   PO442168  12.895  40.760   5.855
 8778POPC   GL142169  12.884  40.741   6.155
 8778POPC   GL242170  12.714  40.833   6.155
 8778POPC   C1A42171  12.875  40.821   6.455
 8778POPC   D2A42172  12.836  40.778   6.755
 8778POPC   C3A42173  12.889  40.804   7.055
 8778POPC   C4A42174  12.863  40.762   7.355
 8778POPC   C1B42175  12.574  40.916   6.455
 8778POPC   C2B42176  12.662  40.852   6.755
 8778POPC   C3B42177  12.613  40.833   7.055
 8778POPC   C4B42178  12.658  40.865   7.355
 8779POPC   NC342179   5.043  17.474   5.555
 8779POPC   PO442180   5.046  17.465   5.855
 8779POPC   GL142181   5.088  17.527   6.155
 8779POPC   GL242182   4.985  17.426   6.155
 8779POPC   C1A42183   5.125  17.535   6.455
 8779POPC   D2A42184   5.128  17.472   6.755
 8779POPC   C3A42185   5.102  17.513   7.055
 8779POPC   C4A42186   5.118  17.519   7.355
 8779POPC   C1B42187   4.900  17.356   6.455
 8779POPC   C2B42188   4.891  17.390   6.755
 8779POPC   C3B42189   4.878  17.412   7.055
 8779POPC   C4B42190   4.917  17.390   7.355
 8780POPC   NC342191   7.399  22.211   5.555
 8780POPC   PO442192   7.386  22.123   5.855
 8780POPC   GL142193   7.389  22.148   6.155
 8780POPC   GL242194   7.351  22.279   6.155
 8780POPC   C1A42195   7.432  22.209   6.455
 8780POPC   D2A42196   7.419  22.155   6.755
 8780POPC   C3A42197   7.405  22.211   7.055
 8780POPC   C4A42198   7.447  22.200   7.355
 8780POPC   C1B42199   7.391  22.375   6.455
 8780POPC   C2B42200   7.340  22.433   6.755
 8780POPC   C3B42201   7.415  22.443   7.055
 8780POPC   C4B42202   7.389  22.369   7.355
 8781POPC   NC342203  18.316   9.021   5.555
 8781POPC   PO442204  18.261   8.965   5.855
 8781POPC   GL142205  18.254   8.959   6.155
 8781POPC   GL242206  18.161   9.003   6.155
 8781POPC   C1A42207  18.276   9.017   6.455
 8781POPC   D2A42208  18.268   8.949   6.755
 8781POPC   C3A42209  18.288   8.941   7.055
 8781POPC   C4A42210  18.318   9.007   7.355
 8781POPC   C1B42211  18.040   9.139   6.455
 8781POPC   C2B42212  18.089   9.106   6.755
 8781POPC   C3B42213  18.119   9.078   7.055
 8781POPC   C4B42214  18.050   9.102   7.355
 8782POPC   NC342215   3.515  22.952   5.555
 8782POPC   PO442216   3.519  22.968   5.855
 8782POPC   GL142217   3.542  22.905   6.155
 8782POPC   GL242218   3.391  22.920   6.155
 8782POPC   C1A42219   3.563  22.905   6.455
 8782POPC   D2A42220   3.534  22.983   6.755
 8782POPC   C3A42221   3.525  22.958   7.055
 8782POPC   C4A42222   3.570  22.954   7.355
 8782POPC   C1B42223   3.284  22.923   6.455
 8782POPC   C2B42224   3.254  23.001   6.755
 8782POPC   C3B42225   3.317  22.934   7.055
 8782POPC   C4B42226   3.263  22.964   7.355
 8783POPC   NC342227  22.153   2.794   5.555
 8783POPC   PO442228  22.175   2.752   5.855
 8783POPC   GL142229  22.179   2.793   6.155
 8783POPC   GL242230  22.140   2.930   6.155
 8783POPC   C1A42231  22.166   2.758   6.455
 8783POPC   D2A42232  22.201   2.718   6.755
 8783POPC   C3A42233  22.163   2.754   7.055
 8783POPC   C4A42234  22.190   2.808   7.355
 8783POPC   C1B42235  22.221   2.966   6.455
 8783POPC   C2B42236  22.251   3.044   6.755
 8783POPC   C3B42237  22.179   3.025   7.055
 8783POPC   C4B42238  22.255   3.021   7.355
 8784POPC   NC342239  38.413  30.727   5.555
 8784POPC   PO442240  38.461  30.672   5.855
 8784POPC   GL142241  38.491  30.656   6.155
 8784POPC   GL242242  38.604  30.789   6.155
 8784POPC   C1A42243  38.479  30.735   6.455
 8784POPC   D2A42244  38.474  30.657   6.755
 8784POPC   C3A42245  38.462  30.670   7.055
 8784POPC   C4A42246  38.470  30.674   7.355
 8784POPC   C1B42247  38.649  30.778   6.455
 8784POPC   C2B42248  38.685  30.755   6.755
 8784POPC   C3B42249  38.734  30.783   7.055
 8784POPC   C4B42250  38.710  30.787   7.355
 8785POPC   NC342251  21.424  32.210   5.555
 8785POPC   PO442252  21.353  32.234   5.855
 8785POPC   GL142253  21.366  32.297   6.155
 8785POPC   GL242254  21.302  32.134   6.155
 8785POPC   C1A42255  21.362  32.203   6.455
 8785POPC   D2A42256  21.381  32.241   6.755
 8785POPC   C3A42257  21.416  32.295   7.055
 8785POPC   C4A42258  21.356  32.202   7.355
 8785POPC   C1B42259  21.162  32.095   6.455
 8785POPC   C2B42260  21.209  32.070   6.755
 8785POPC   C3B42261  21.241  32.030   7.055
 8785POPC   C4B42262  21.178  32.044   7.355
 8786POPC   NC342263  41.551  43.887   5.555
 8786POPC   PO442264  41.531  43.932   5.855
 8786POPC   GL142265  41.546  43.845   6.155
 8786POPC   GL242266  41.716  43.915   6.155
 8786POPC   C1A42267  41.531  43.838   6.455
 8786POPC   D2A42268  41.564  43.883   6.755
 8786POPC   C3A42269  41.584  43.881   7.055
 8786POPC   C4A42270  41.595  43.880   7.355
 8786POPC   C1B42271  41.794  43.969   6.455
 8786POPC   C2B42272  41.829  43.982   6.755
 8786POPC   C3B42273  41.804  43.976   7.055
 8786POPC   C4B42274  41.773  43.930   7.355
 8787POPC   NC342275   7.384   2.728   5.555
 8787POPC   PO442276   7.423   2.783   5.855
 8787POPC   GL142277   7.420   2.761   6.155
 8787POPC   GL242278   7.514   2.669   6.155
 8787POPC   C1A42279   7.392   2.726   6.455
 8787POPC   D2A42280   7.377   2.736   6.755
 8787POPC   C3A42281   7.400   2.814   7.055
 8787POPC   C4A42282   7.401   2.740   7.355
 8787POPC   C1B42283   7.542   2.553   6.455
 8787POPC   C2B42284   7.547   2.531   6.755
 8787POPC   C3B42285   7.565   2.601   7.055
 8787POPC   C4B42286   7.563   2.535   7.355
 8788POPC   NC342287  22.904   5.054   5.555
 8788POPC   PO442288  22.975   5.053   5.855
 8788POPC   GL142289  22.963   5.133   6.155
 8788POPC   GL242290  22.829   5.214   6.155
 8788POPC   C1A42291  22.975   5.045   6.455
 8788POPC   D2A42292  22.913   5.119   6.755
 8788POPC   C3A42293  22.891   5.101   7.055
 8788POPC   C4A42294  22.921   5.082   7.355
 8788POPC   C1B42295  22.828   5.256   6.455
 8788POPC   C2B42296  22.813   5.293   6.755
 8788POPC   C3B42297  22.743   5.310   7.055
 8788POPC   C4B42298  22.798   5.278   7.355
 8789POPC   NC342299  13.606   3.533   5.555
 8789POPC   PO442300  13.596   3.573   5.855
 8789POPC   GL142301  13.617   3.513   6.155
 8789POPC   GL242302  13.519   3.567   6.155
 8789POPC   C1A42303  13.606   3.526   6.455
 8789POPC   D2A42304  13.579   3.525   6.755
 8789POPC   C3A42305  13.599   3.526   7.055
 8789POPC   C4A42306  13.610   3.502   7.355
 8789POPC   C1B42307  13.392   3.546   6.455
 8789POPC   C2B42308  13.338   3.554   6.755
 8789POPC   C3B42309  13.358   3.475   7.055
 8789POPC   C4B42310  13.368   3.490   7.355
 8790POPC   NC342311  16.711  19.082   5.555
 8790POPC   PO442312  16.694  19.094   5.855
 8790POPC   GL142313  16.705  19.094   6.155
 8790POPC   GL242314  16.601  19.007   6.155
 8790POPC   C1A42315  16.772  19.023   6.455
 8790POPC   D2A42316  16.689  19.026   6.755
 8790POPC   C3A42317  16.704  19.066   7.055
 8790POPC   C4A42318  16.758  19.083   7.355
 8790POPC   C1B42319  16.496  18.912   6.455
 8790POPC   C2B42320  16.467  18.902   6.755
 8790POPC   C3B42321  16.482  18.917   7.055
 8790POPC   C4B42322  16.500  18.930   7.355
 8791POPC   NC342323  22.172  12.893   5.555
 8791POPC   PO442324  22.211  12.888   5.855
 8791POPC   GL142325  22.115  12.897   6.155
 8791POPC   GL242326  22.294  12.909   6.155
 8791POPC   C1A42327  22.189  12.832   6.455
 8791POPC   D2A42328  22.174  12.901   6.755
 8791POPC   C3A42329  22.156  12.881   7.055
 8791POPC   C4A42330  22.169  12.850   7.355
 8791POPC   C1B42331  22.338  12.959   6.455
 8791POPC   C2B42332  22.401  12.999   6.755
 8791POPC   C3B42333  22.365  12.979   7.055
 8791POPC   C4B42334  22.405  12.983   7.355
 8792POPC   NC342335  43.083  33.765   5.555
 8792POPC   PO442336  43.081  33.841   5.855
 8792POPC   GL142337  43.113  33.762   6.155
 8792POPC   GL242338  43.088  33.948   6.155
 8792POPC   C1A42339  43.098  33.825   6.455
 8792POPC   D2A42340  43.066  33.812   6.755
 8792POPC   C3A42341  43.150  33.760   7.055
 8792POPC   C4A42342  43.138  33.842   7.355
 8792POPC   C1B42343  43.054  34.036   6.455
 8792POPC   C2B42344  43.081  34.014   6.755
 8792POPC   C3B42345  43.015  34.085   7.055
 8792POPC   C4B42346  43.068  34.054   7.355
 8793POPC   NC342347  16.777   1.225   5.555
 8793POPC   PO442348  16.759   1.179   5.855
 8793POPC   GL142349  16.750   1.196   6.155
 8793POPC   GL242350  16.856   1.314   6.155
 8793POPC   C1A42351  16.752   1.240   6.455
 8793POPC   D2A42352  16.734   1.191   6.755
 8793POPC   C3A42353  16.711   1.208   7.055
 8793POPC   C4A42354  16.697   1.212   7.355
 8793POPC   C1B42355  16.917   1.340   6.455
 8793POPC   C2B42356  16.926   1.346   6.755
 8793POPC   C3B42357  16.925   1.322   7.055
 8793POPC   C4B42358  16.912   1.311   7.355
 8794POPC   NC342359  22.923  33.074   5.555
 8794POPC   PO442360  22.934  33.031   5.855
 8794POPC   GL142361  22.907  33.037   6.155
 8794POPC   GL242362  23.099  33.037   6.155
 8794POPC   C1A42363  22.898  33.032   6.455
 8794POPC   D2A42364  22.914  33.014   6.755
 8794POPC   C3A42365  22.915  33.042   7.055
 8794POPC   C4A42366  22.914  32.990   7.355
 8794POPC   C1B42367  23.183  33.093   6.455
 8794POPC   C2B42368  23.209  33.055   6.755
 8794POPC   C3B42369  23.201  33.076   7.055
 8794POPC   C4B42370  23.203  33.093   7.355
 8795POPC   NC342371  18.315   4.314   5.555
 8795POPC   PO442372  18.236   4.328   5.855
 8795POPC   GL142373  18.294   4.333   6.155
 8795POPC   GL242374  18.178   4.410   6.155
 8795POPC   C1A42375  18.254   4.284   6.455
 8795POPC   D2A42376  18.294   4.350   6.755
 8795POPC   C3A42377  18.331   4.335   7.055
 8795POPC   C4A42378  18.291   4.317   7.355
 8795POPC   C1B42379  18.089   4.510   6.455
 8795POPC   C2B42380  18.032   4.432   6.755
 8795POPC   C3B42381  18.085   4.438   7.055
 8795POPC   C4B42382  18.055   4.492   7.355
 8796POPC   NC342383  30.698  43.866   5.555
 8796POPC   PO442384  30.705  43.901   5.855
 8796POPC   GL142385  30.720  43.914   6.155
 8796POPC   GL242386  30.659  43.996   6.155
 8796POPC   C1A42387  30.744  43.895   6.455
 8796POPC   D2A42388  30.704  43.847   6.755
 8796POPC   C3A42389  30.699  43.841   7.055
 8796POPC   C4A42390  30.745  43.914   7.355
 8796POPC   C1B42391  30.652  44.166   6.455
 8796POPC   C2B42392  30.671  44.183   6.755
 8796POPC   C3B42393  30.710  44.143   7.055
 8796POPC   C4B42394  30.644  44.153   7.355
 8797POPC   NC342395  32.270   8.206   5.555
 8797POPC   PO442396  32.283   8.149   5.855
 8797POPC   GL142397  32.238   8.202   6.155
 8797POPC   GL242398  32.118   8.214   6.155
 8797POPC   C1A42399  32.258   8.154   6.455
 8797POPC   D2A42400  32.282   8.220   6.755
 8797POPC   C3A42401  32.292   8.163   7.055
 8797POPC   C4A42402  32.286   8.151   7.355
 8797POPC   C1B42403  32.026   8.287   6.455
 8797POPC   C2B42404  32.051   8.340   6.755
 8797POPC   C3B42405  32.066   8.278   7.055
 8797POPC   C4B42406  32.046   8.288   7.355
 8798POPC   NC342407  36.099  12.087   5.555
 8798POPC   PO442408  36.135  12.034   5.855
 8798POPC   GL142409  36.160  12.086   6.155
 8798POPC   GL242410  36.243  12.095   6.155
 8798POPC   C1A42411  36.167  12.088   6.455
 8798POPC   D2A42412  36.104  12.069   6.755
 8798POPC   C3A42413  36.100  12.124   7.055
 8798POPC   C4A42414  36.147  12.049   7.355
 8798POPC   C1B42415  36.336  12.048   6.455
 8798POPC   C2B42416  36.396  12.062   6.755
 8798POPC   C3B42417  36.356  12.046   7.055
 8798POPC   C4B42418  36.419  12.031   7.355
 8799POPC   NC342419  15.935  10.565   5.555
 8799POPC   PO442420  15.983  10.528   5.855
 8799POPC   GL142421  15.957  10.528   6.155
 8799POPC   GL242422  15.836  10.500   6.155
 8799POPC   C1A42423  15.930  10.504   6.455
 8799POPC   D2A42424  15.957  10.544   6.755
 8799POPC   C3A42425  15.912  10.496   7.055
 8799POPC   C4A42426  15.922  10.516   7.355
 8799POPC   C1B42427  15.676  10.489   6.455
 8799POPC   C2B42428  15.717  10.508   6.755
 8799POPC   C3B42429  15.686  10.455   7.055
 8799POPC   C4B42430  15.742  10.497   7.355
 8800POPC   NC342431  44.664  40.822   5.555
 8800POPC   PO442432  44.690  40.753   5.855
 8800POPC   GL142433  44.687  40.756   6.155
 8800POPC   GL242434  44.553  40.851   6.155
 8800POPC   C1A42435  44.700  40.765   6.455
 8800POPC   D2A42436  44.685  40.741   6.755
 8800POPC   C3A42437  44.664  40.779   7.055
 8800POPC   C4A42438  44.628  40.799   7.355
 8800POPC   C1B42439  44.447  40.899   6.455
 8800POPC   C2B42440  44.397  40.880   6.755
 8800POPC   C3B42441  44.390  40.858   7.055
 8800POPC   C4B42442  44.377  40.817   7.355
 8801POPC   NC342443  25.237  38.433   5.555
 8801POPC   PO442444  25.287  38.415   5.855
 8801POPC   GL142445  25.218  38.474   6.155
 8801POPC   GL242446  25.195  38.524   6.155
 8801POPC   C1A42447  25.288  38.488   6.455
 8801POPC   D2A42448  25.264  38.437   6.755
 8801POPC   C3A42449  25.262  38.460   7.055
 8801POPC   C4A42450  25.296  38.438   7.355
 8801POPC   C1B42451  25.177  38.641   6.455
 8801POPC   C2B42452  25.215  38.669   6.755
 8801POPC   C3B42453  25.174  38.712   7.055
 8801POPC   C4B42454  25.197  38.711   7.355
 8802POPC   NC342455  32.998   8.232   5.555
 8802POPC   PO442456  33.027   8.207   5.855
 8802POPC   GL142457  33.039   8.158   6.155
 8802POPC   GL242458  33.110   8.058   6.155
 8802POPC   C1A42459  33.051   8.208   6.455
 8802POPC   D2A42460  32.976   8.244   6.755
 8802POPC   C3A42461  33.071   8.184   7.055
 8802POPC   C4A42462  32.982   8.210   7.355
 8802POPC   C1B42463  33.116   7.952   6.455
 8802POPC   C2B42464  33.101   7.977   6.755
 8802POPC   C3B42465  33.092   8.007   7.055
 8802POPC   C4B42466  33.162   7.946   7.355
 8803POPC   NC342467   2.767  38.424   5.555
 8803POPC   PO442468   2.732  38.477   5.855
 8803POPC   GL142469   2.779  38.459   6.155
 8803POPC   GL242470   2.913  38.494   6.155
 8803POPC   C1A42471   2.779  38.490   6.455
 8803POPC   D2A42472   2.811  38.483   6.755
 8803POPC   C3A42473   2.746  38.481   7.055
 8803POPC   C4A42474   2.736  38.437   7.355
 8803POPC   C1B42475   2.963  38.601   6.455
 8803POPC   C2B42476   2.985  38.600   6.755
 8803POPC   C3B42477   2.919  38.614   7.055
 8803POPC   C4B42478   2.990  38.651   7.355
 8804POPC   NC342479  39.216  26.819   5.555
 8804POPC   PO442480  39.240  26.813   5.855
 8804POPC   GL142481  39.237  26.815   6.155
 8804POPC   GL242482  39.221  26.935   6.155
 8804POPC   C1A42483  39.271  26.809   6.455
 8804POPC   D2A42484  39.258  26.851   6.755
 8804POPC   C3A42485  39.221  26.773   7.055
 8804POPC   C4A42486  39.204  26.838   7.355
 8804POPC   C1B42487  39.319  27.044   6.455
 8804POPC   C2B42488  39.288  27.058   6.755
 8804POPC   C3B42489  39.284  27.095   7.055
 8804POPC   C4B42490  39.305  27.068   7.355
 8805POPC   NC342491  36.104  43.085   5.555
 8805POPC   PO442492  36.145  43.107   5.855
 8805POPC   GL142493  36.121  43.119   6.155
 8805POPC   GL242494  36.146  43.265   6.155
 8805POPC   C1A42495  36.109  43.078   6.455
 8805POPC   D2A42496  36.146  43.126   6.755
 8805POPC   C3A42497  36.172  43.100   7.055
 8805POPC   C4A42498  36.115  43.096   7.355
 8805POPC   C1B42499  36.188  43.357   6.455
 8805POPC   C2B42500  36.171  43.347   6.755
 8805POPC   C3B42501  36.176  43.338   7.055
 8805POPC   C4B42502  36.122  43.377   7.355
 8806POPC   NC342503   0.415  33.061   5.555
 8806POPC   PO442504   0.399  33.028   5.855
 8806POPC   GL142505   0.483  33.052   6.155
 8806POPC   GL242506   0.526  33.126   6.155
 8806POPC   C1A42507   0.414  33.026   6.455
 8806POPC   D2A42508   0.452  33.040   6.755
 8806POPC   C3A42509   0.409  32.985   7.055
 8806POPC   C4A42510   0.442  33.008   7.355
 8806POPC   C1B42511   0.627  33.217   6.455
 8806POPC   C2B42512   0.654  33.120   6.755
 8806POPC   C3B42513   0.632  33.147   7.055
 8806POPC   C4B42514   0.651  33.170   7.355
 8807POPC   NC342515  24.444  27.579   5.555
 8807POPC   PO442516  24.460  27.597   5.855
 8807POPC   GL142517  24.491  27.602   6.155
 8807POPC   GL242518  24.508  27.742   6.155
 8807POPC   C1A42519  24.520  27.642   6.455
 8807POPC   D2A42520  24.501  27.566   6.755
 8807POPC   C3A42521  24.491  27.640   7.055
 8807POPC   C4A42522  24.455  27.552   7.355
 8807POPC   C1B42523  24.477  27.800   6.455
 8807POPC   C2B42524  24.432  27.885   6.755
 8807POPC   C3B42525  24.509  27.865   7.055
 8807POPC   C4B42526  24.427  27.805   7.355
 8808POPC   NC342527   0.438   3.530   5.555
 8808POPC   PO442528   0.474   3.514   5.855
 8808POPC   GL142529   0.475   3.522   6.155
 8808POPC   GL242530   0.570   3.561   6.155
 8808POPC   C1A42531   0.467   3.571   6.455
 8808POPC   D2A42532   0.413   3.525   6.755
 8808POPC   C3A42533   0.427   3.495   7.055
 8808POPC   C4A42534   0.414   3.537   7.355
 8808POPC   C1B42535   0.688   3.561   6.455
 8808POPC   C2B42536   0.713   3.571   6.755
 8808POPC   C3B42537   0.690   3.543   7.055
 8808POPC   C4B42538   0.701   3.579   7.355
 8809POPC   NC342539  26.814   8.241   5.555
 8809POPC   PO442540  26.800   8.234   5.855
 8809POPC   GL142541  26.854   8.159   6.155
 8809POPC   GL242542  26.888   8.272   6.155
 8809POPC   C1A42543  26.799   8.148   6.455
 8809POPC   D2A42544  26.799   8.173   6.755
 8809POPC   C3A42545  26.778   8.160   7.055
 8809POPC   C4A42546  26.840   8.191   7.355
 8809POPC   C1B42547  27.078   8.271   6.455
 8809POPC   C2B42548  27.085   8.266   6.755
 8809POPC   C3B42549  27.076   8.342   7.055
 8809POPC   C4B42550  27.084   8.288   7.355
 8810POPC   NC342551  26.856  29.948   5.555
 8810POPC   PO442552  26.820  29.948   5.855
 8810POPC   GL142553  26.806  29.938   6.155
 8810POPC   GL242554  26.691  29.871   6.155
 8810POPC   C1A42555  26.859  29.935   6.455
 8810POPC   D2A42556  26.779  29.916   6.755
 8810POPC   C3A42557  26.806  29.966   7.055
 8810POPC   C4A42558  26.782  29.887   7.355
 8810POPC   C1B42559  26.622  29.823   6.455
 8810POPC   C2B42560  26.629  29.840   6.755
 8810POPC   C3B42561  26.623  29.850   7.055
 8810POPC   C4B42562  26.540  29.867   7.355
 8811POPC   NC342563  19.091   6.691   5.555
 8811POPC   PO442564  19.070   6.600   5.855
 8811POPC   GL142565  19.094   6.611   6.155
 8811POPC   GL242566  19.057   6.806   6.155
 8811POPC   C1A42567  19.015   6.665   6.455
 8811POPC   D2A42568  19.106   6.670   6.755
 8811POPC   C3A42569  19.073   6.615   7.055
 8811POPC   C4A42570  19.053   6.670   7.355
 8811POPC   C1B42571  18.973   6.838   6.455
 8811POPC   C2B42572  18.970   6.872   6.755
 8811POPC   C3B42573  18.918   6.888   7.055
 8811POPC   C4B42574  18.976   6.905   7.355
 8812POPC   NC342575   4.299   9.789   5.555
 8812POPC   PO442576   4.287   9.701   5.855
 8812POPC   GL142577   4.356   9.755   6.155
 8812POPC   GL242578   4.257   9.866   6.155
 8812POPC   C1A42579   4.338   9.746   6.455
 8812POPC   D2A42580   4.331   9.734   6.755
 8812POPC   C3A42581   4.294   9.744   7.055
 8812POPC   C4A42582   4.289   9.741   7.355
 8812POPC   C1B42583   4.281  10.000   6.455
 8812POPC   C2B42584   4.241   9.944   6.755
 8812POPC   C3B42585   4.260  10.037   7.055
 8812POPC   C4B42586   4.292   9.992   7.355
 8813POPC   NC342587  32.236  19.100   5.555
 8813POPC   PO442588  32.219  19.052   5.855
 8813POPC   GL142589  32.288  19.024   6.155
 8813POPC   GL242590  32.379  18.952   6.155
 8813POPC   C1A42591  32.231  19.065   6.455
 8813POPC   D2A42592  32.273  19.013   6.755
 8813POPC   C3A42593  32.228  19.049   7.055
 8813POPC   C4A42594  32.289  19.045   7.355
 8813POPC   C1B42595  32.514  18.903   6.455
 8813POPC   C2B42596  32.512  18.950   6.755
 8813POPC   C3B42597  32.420  18.961   7.055
 8813POPC   C4B42598  32.427  18.909   7.355
 8814POPC   NC342599  26.834  31.483   5.555
 8814POPC   PO442600  26.829  31.463   5.855
 8814POPC   GL142601  26.810  31.510   6.155
 8814POPC   GL242602  26.888  31.381   6.155
 8814POPC   C1A42603  26.827  31.490   6.455
 8814POPC   D2A42604  26.812  31.484   6.755
 8814POPC   C3A42605  26.774  31.502   7.055
 8814POPC   C4A42606  26.788  31.470   7.355
 8814POPC   C1B42607  27.023  31.335   6.455
 8814POPC   C2B42608  27.036  31.395   6.755
 8814POPC   C3B42609  26.983  31.336   7.055
 8814POPC   C4B42610  27.041  31.328   7.355
 8815POPC   NC342611  33.784  24.510   5.555
 8815POPC   PO442612  33.769  24.494   5.855
 8815POPC   GL142613  33.841  24.496   6.155
 8815POPC   GL242614  33.913  24.621   6.155
 8815POPC   C1A42615  33.822  24.478   6.455
 8815POPC   D2A42616  33.820  24.530   6.755
 8815POPC   C3A42617  33.847  24.466   7.055
 8815POPC   C4A42618  33.785  24.523   7.355
 8815POPC   C1B42619  34.003  24.715   6.455
 8815POPC   C2B42620  33.990  24.643   6.755
 8815POPC   C3B42621  33.975  24.639   7.055
 8815POPC   C4B42622  33.906  24.727   7.355
 8816POPC   NC342623  39.266  22.956   5.555
 8816POPC   PO442624  39.270  22.895   5.855
 8816POPC   GL142625  39.259  22.928   6.155
 8816POPC   GL242626  39.301  23.011   6.155
 8816POPC   C1A42627  39.191  22.938   6.455
 8816POPC   D2A42628  39.223  22.964   6.755
 8816POPC   C3A42629  39.186  22.901   7.055
 8816POPC   C4A42630  39.198  22.970   7.355
 8816POPC   C1B42631  39.354  23.119   6.455
 8816POPC   C2B42632  39.374  23.081   6.755
 8816POPC   C3B42633  39.396  23.113   7.055
 8816POPC   C4B42634  39.367  23.137   7.355
 8817POPC   NC342635  34.596   8.161   5.555
 8817POPC   PO442636  34.584   8.217   5.855
 8817POPC   GL142637  34.588   8.199   6.155
 8817POPC   GL242638  34.717   8.217   6.155
 8817POPC   C1A42639  34.607   8.198   6.455
 8817POPC   D2A42640  34.619   8.238   6.755
 8817POPC   C3A42641  34.559   8.223   7.055
 8817POPC   C4A42642  34.598   8.200   7.355
 8817POPC   C1B42643  34.821   8.184   6.455
 8817POPC   C2B42644  34.803   8.206   6.755
 8817POPC   C3B42645  34.795   8.125   7.055
 8817POPC   C4B42646  34.839   8.162   7.355
 8818POPC   NC342647   5.890   2.013   5.555
 8818POPC   PO442648   5.882   1.988   5.855
 8818POPC   GL142649   5.824   2.005   6.155
 8818POPC   GL242650   5.916   1.911   6.155
 8818POPC   C1A42651   5.883   2.028   6.455
 8818POPC   D2A42652   5.885   1.975   6.755
 8818POPC   C3A42653   5.858   2.023   7.055
 8818POPC   C4A42654   5.828   2.035   7.355
 8818POPC   C1B42655   5.979   1.767   6.455
 8818POPC   C2B42656   5.990   1.746   6.755
 8818POPC   C3B42657   5.999   1.785   7.055
 8818POPC   C4B42658   6.037   1.741   7.355
 8819POPC   NC342659  35.336  34.595   5.555
 8819POPC   PO442660  35.350  34.551   5.855
 8819POPC   GL142661  35.315  34.597   6.155
 8819POPC   GL242662  35.362  34.684   6.155
 8819POPC   C1A42663  35.330  34.572   6.455
 8819POPC   D2A42664  35.335  34.608   6.755
 8819POPC   C3A42665  35.323  34.535   7.055
 8819POPC   C4A42666  35.330  34.623   7.355
 8819POPC   C1B42667  35.389  34.818   6.455
 8819POPC   C2B42668  35.382  34.839   6.755
 8819POPC   C3B42669  35.402  34.856   7.055
 8819POPC   C4B42670  35.409  34.871   7.355
 8820POPC   NC342671  13.627  19.036   5.555
 8820POPC   PO442672  13.653  19.031   5.855
 8820POPC   GL142673  13.630  19.049   6.155
 8820POPC   GL242674  13.546  18.987   6.155
 8820POPC   C1A42675  13.619  19.061   6.455
 8820POPC   D2A42676  13.605  19.107   6.755
 8820POPC   C3A42677  13.643  19.072   7.055
 8820POPC   C4A42678  13.653  19.050   7.355
 8820POPC   C1B42679  13.380  19.028   6.455
 8820POPC   C2B42680  13.423  19.037   6.755
 8820POPC   C3B42681  13.367  19.029   7.055
 8820POPC   C4B42682  13.395  18.992   7.355
 8821POPC   NC342683  13.610   2.024   5.555
 8821POPC   PO442684  13.597   2.022   5.855
 8821POPC   GL142685  13.654   2.035   6.155
 8821POPC   GL242686  13.673   2.083   6.155
 8821POPC   C1A42687  13.608   1.943   6.455
 8821POPC   D2A42688  13.611   1.977   6.755
 8821POPC   C3A42689  13.581   2.015   7.055
 8821POPC   C4A42690  13.587   1.994   7.355
 8821POPC   C1B42691  13.733   2.222   6.455
 8821POPC   C2B42692  13.728   2.220   6.755
 8821POPC   C3B42693  13.693   2.226   7.055
 8821POPC   C4B42694  13.693   2.232   7.355
 8822POPC   NC342695  44.683  31.494   5.555
 8822POPC   PO442696  44.649  31.510   5.855
 8822POPC   GL142697  44.612  31.466   6.155
 8822POPC   GL242698  44.623  31.630   6.155
 8822POPC   C1A42699  44.696  31.496   6.455
 8822POPC   D2A42700  44.677  31.439   6.755
 8822POPC   C3A42701  44.615  31.519   7.055
 8822POPC   C4A42702  44.636  31.462   7.355
 8822POPC   C1B42703  44.632  31.717   6.455
 8822POPC   C2B42704  44.597  31.759   6.755
 8822POPC   C3B42705  44.560  31.759   7.055
 8822POPC   C4B42706  44.625  31.708   7.355
 8823POPC   NC342707  15.914   5.099   5.555
 8823POPC   PO442708  15.928   5.120   5.855
 8823POPC   GL142709  15.913   5.129   6.155
 8823POPC   GL242710  15.941   4.938   6.155
 8823POPC   C1A42711  15.952   5.112   6.455
 8823POPC   D2A42712  15.941   5.074   6.755
 8823POPC   C3A42713  15.945   5.064   7.055
 8823POPC   C4A42714  15.906   5.058   7.355
 8823POPC   C1B42715  16.052   4.852   6.455
 8823POPC   C2B42716  16.010   4.890   6.755
 8823POPC   C3B42717  15.994   4.855   7.055
 8823POPC   C4B42718  16.063   4.814   7.355
 8824POPC   NC342719  16.754  29.126   5.555
 8824POPC   PO442720  16.684  29.105   5.855
 8824POPC   GL142721  16.777  29.105   6.155
 8824POPC   GL242722  16.796  29.072   6.155
 8824POPC   C1A42723  16.693  29.167   6.455
 8824POPC   D2A42724  16.749  29.155   6.755
 8824POPC   C3A42725  16.773  29.191   7.055
 8824POPC   C4A42726  16.746  29.113   7.355
 8824POPC   C1B42727  16.834  28.969   6.455
 8824POPC   C2B42728  16.827  28.934   6.755
 8824POPC   C3B42729  16.879  28.952   7.055
 8824POPC   C4B42730  16.875  28.961   7.355
 8825POPC   NC342731  19.825   6.651   5.555
 8825POPC   PO442732  19.883   6.639   5.855
 8825POPC   GL142733  19.793   6.664   6.155
 8825POPC   GL242734  19.892   6.583   6.155
 8825POPC   C1A42735  19.859   6.631   6.455
 8825POPC   D2A42736  19.806   6.662   6.755
 8825POPC   C3A42737  19.883   6.631   7.055
 8825POPC   C4A42738  19.851   6.678   7.355
 8825POPC   C1B42739  20.088   6.507   6.455
 8825POPC   C2B42740  20.070   6.552   6.755
 8825POPC   C3B42741  20.016   6.478   7.055
 8825POPC   C4B42742  20.002   6.533   7.355
 8826POPC   NC342743  13.604   4.337   5.555
 8826POPC   PO442744  13.671   4.301   5.855
 8826POPC   GL142745  13.672   4.303   6.155
 8826POPC   GL242746  13.709   4.396   6.155
 8826POPC   C1A42747  13.581   4.336   6.455
 8826POPC   D2A42748  13.633   4.288   6.755
 8826POPC   C3A42749  13.664   4.343   7.055
 8826POPC   C4A42750  13.670   4.336   7.355
 8826POPC   C1B42751  13.820   4.401   6.455
 8826POPC   C2B42752  13.902   4.428   6.755
 8826POPC   C3B42753  13.871   4.424   7.055
 8826POPC   C4B42754  13.812   4.450   7.355
 8827POPC   NC342755  41.517   2.718   5.555
 8827POPC   PO442756  41.606   2.814   5.855
 8827POPC   GL142757  41.543   2.731   6.155
 8827POPC   GL242758  41.440   2.767   6.155
 8827POPC   C1A42759  41.560   2.754   6.455
 8827POPC   D2A42760  41.526   2.783   6.755
 8827POPC   C3A42761  41.544   2.769   7.055
 8827POPC   C4A42762  41.565   2.731   7.355
 8827POPC   C1B42763  41.291   2.778   6.455
 8827POPC   C2B42764  41.278   2.779   6.755
 8827POPC   C3B42765  41.273   2.748   7.055
 8827POPC   C4B42766  41.333   2.752   7.355
 8828POPC   NC342767   5.849  31.469   5.555
 8828POPC   PO442768   5.858  31.498   5.855
 8828POPC   GL142769   5.901  31.429   6.155
 8828POPC   GL242770   5.735  31.477   6.155
 8828POPC   C1A42771   5.838  31.429   6.455
 8828POPC   D2A42772   5.874  31.428   6.755
 8828POPC   C3A42773   5.873  31.505   7.055
 8828POPC   C4A42774   5.881  31.460   7.355
 8828POPC   C1B42775   5.597  31.378   6.455
 8828POPC   C2B42776   5.608  31.423   6.755
 8828POPC   C3B42777   5.637  31.418   7.055
 8828POPC   C4B42778   5.587  31.410   7.355
 8829POPC   NC342779  25.315  40.738   5.555
 8829POPC   PO442780  25.300  40.776   5.855
 8829POPC   GL142781  25.223  40.830   6.155
 8829POPC   GL242782  25.235  40.610   6.155
 8829POPC   C1A42783  25.286  40.756   6.455
 8829POPC   D2A42784  25.310  40.734   6.755
 8829POPC   C3A42785  25.273  40.795   7.055
 8829POPC   C4A42786  25.256  40.748   7.355
 8829POPC   C1B42787  25.265  40.534   6.455
 8829POPC   C2B42788  25.234  40.503   6.755
 8829POPC   C3B42789  25.183  40.508   7.055
 8829POPC   C4B42790  25.187  40.560   7.355
 8830POPC   NC342791  34.567  44.702   5.555
 8830POPC   PO442792  34.542  44.656   5.855
 8830POPC   GL142793  34.538  44.650   6.155
 8830POPC   GL242794  34.675  44.603   6.155
 8830POPC   C1A42795  34.569  44.619   6.455
 8830POPC   D2A42796  34.612  44.627   6.755
 8830POPC   C3A42797  34.605  44.614   7.055
 8830POPC   C4A42798  34.570  44.711   7.355
 8830POPC   C1B42799  34.813  44.593   6.455
 8830POPC   C2B42800  34.793  44.534   6.755
 8830POPC   C3B42801  34.847  44.630   7.055
 8830POPC   C4B42802  34.853  44.607   7.355
 8831POPC   NC342803  12.051   3.570   5.555
 8831POPC   PO442804  12.119   3.531   5.855
 8831POPC   GL142805  12.102   3.505   6.155
 8831POPC   GL242806  12.007   3.387   6.155
 8831POPC   C1A42807  12.087   3.512   6.455
 8831POPC   D2A42808  12.108   3.568   6.755
 8831POPC   C3A42809  12.124   3.586   7.055
 8831POPC   C4A42810  12.027   3.576   7.355
 8831POPC   C1B42811  11.986   3.355   6.455
 8831POPC   C2B42812  11.990   3.305   6.755
 8831POPC   C3B42813  11.981   3.291   7.055
 8831POPC   C4B42814  12.025   3.270   7.355
 8832POPC   NC342815  20.614  33.797   5.555
 8832POPC   PO442816  20.658  33.796   5.855
 8832POPC   GL142817  20.570  33.816   6.155
 8832POPC   GL242818  20.609  33.721   6.155
 8832POPC   C1A42819  20.657  33.802   6.455
 8832POPC   D2A42820  20.578  33.771   6.755
 8832POPC   C3A42821  20.583  33.827   7.055
 8832POPC   C4A42822  20.650  33.796   7.355
 8832POPC   C1B42823  20.587  33.547   6.455
 8832POPC   C2B42824  20.564  33.522   6.755
 8832POPC   C3B42825  20.598  33.528   7.055
 8832POPC   C4B42826  20.622  33.549   7.355
 8833POPC   NC342827  22.917   8.166   5.555
 8833POPC   PO442828  22.975   8.211   5.855
 8833POPC   GL142829  22.914   8.159   6.155
 8833POPC   GL242830  22.895   8.119   6.155
 8833POPC   C1A42831  22.948   8.244   6.455
 8833POPC   D2A42832  22.894   8.157   6.755
 8833POPC   C3A42833  22.917   8.151   7.055
 8833POPC   C4A42834  22.949   8.216   7.355
 8833POPC   C1B42835  22.850   8.003   6.455
 8833POPC   C2B42836  22.876   7.997   6.755
 8833POPC   C3B42837  22.883   8.000   7.055
 8833POPC   C4B42838  22.863   8.003   7.355
 8834POPC   NC342839  12.836   9.750   5.555
 8834POPC   PO442840  12.862   9.789   5.855
 8834POPC   GL142841  12.819   9.764   6.155
 8834POPC   GL242842  12.893   9.838   6.155
 8834POPC   C1A42843  12.852   9.722   6.455
 8834POPC   D2A42844  12.825   9.772   6.755
 8834POPC   C3A42845  12.845   9.788   7.055
 8834POPC   C4A42846  12.864   9.796   7.355
 8834POPC   C1B42847  13.020  10.011   6.455
 8834POPC   C2B42848  12.984   9.966   6.755
 8834POPC   C3B42849  13.008   9.920   7.055
 8834POPC   C4B42850  12.938   9.996   7.355
 8835POPC   NC342851  36.907  33.840   5.555
 8835POPC   PO442852  36.902  33.821   5.855
 8835POPC   GL142853  36.858  33.758   6.155
 8835POPC   GL242854  37.041  33.876   6.155
 8835POPC   C1A42855  36.873  33.842   6.455
 8835POPC   D2A42856  36.888  33.822   6.755
 8835POPC   C3A42857  36.880  33.774   7.055
 8835POPC   C4A42858  36.941  33.762   7.355
 8835POPC   C1B42859  37.087  33.949   6.455
 8835POPC   C2B42860  37.079  33.939   6.755
 8835POPC   C3B42861  37.092  33.939   7.055
 8835POPC   C4B42862  37.119  33.919   7.355
 8836POPC   NC342863  14.379  12.110   5.555
 8836POPC   PO442864  14.381  12.066   5.855
 8836POPC   GL142865  14.438  12.074   6.155
 8836POPC   GL242866  14.269  11.982   6.155
 8836POPC   C1A42867  14.451  12.054   6.455
 8836POPC   D2A42868  14.404  12.109   6.755
 8836POPC   C3A42869  14.449  12.108   7.055
 8836POPC   C4A42870  14.412  12.111   7.355
 8836POPC   C1B42871  14.186  11.856   6.455
 8836POPC   C2B42872  14.237  11.924   6.755
 8836POPC   C3B42873  14.249  11.933   7.055
 8836POPC   C4B42874  14.194  11.873   7.355
 8837POPC   NC342875  15.952  18.292   5.555
 8837POPC   PO442876  15.991  18.302   5.855
 8837POPC   GL142877  15.951  18.257   6.155
 8837POPC   GL242878  16.033  18.153   6.155
 8837POPC   C1A42879  15.975  18.252   6.455
 8837POPC   D2A42880  15.917  18.306   6.755
 8837POPC   C3A42881  15.965  18.271   7.055
 8837POPC   C4A42882  15.947  18.295   7.355
 8837POPC   C1B42883  16.096  18.097   6.455
 8837POPC   C2B42884  16.080  18.035   6.755
 8837POPC   C3B42885  16.123  18.090   7.055
 8837POPC   C4B42886  16.143  18.124   7.355
 8838POPC   NC342887  43.127  15.940   5.555
 8838POPC   PO442888  43.082  15.984   5.855
 8838POPC   GL142889  43.085  15.988   6.155
 8838POPC   GL242890  43.176  16.027   6.155
 8838POPC   C1A42891  43.066  15.996   6.455
 8838POPC   D2A42892  43.068  15.930   6.755
 8838POPC   C3A42893  43.126  15.956   7.055
 8838POPC   C4A42894  43.122  15.995   7.355
 8838POPC   C1B42895  43.220  16.221   6.455
 8838POPC   C2B42896  43.128  16.229   6.755
 8838POPC   C3B42897  43.161  16.187   7.055
 8838POPC   C4B42898  43.220  16.219   7.355
 8839POPC   NC342899  20.652   3.548   5.555
 8839POPC   PO442900  20.636   3.511   5.855
 8839POPC   GL142901  20.641   3.549   6.155
 8839POPC   GL242902  20.609   3.657   6.155
 8839POPC   C1A42903  20.561   3.553   6.455
 8839POPC   D2A42904  20.592   3.497   6.755
 8839POPC   C3A42905  20.563   3.582   7.055
 8839POPC   C4A42906  20.648   3.508   7.355
 8839POPC   C1B42907  20.538   3.813   6.455
 8839POPC   C2B42908  20.497   3.806   6.755
 8839POPC   C3B42909  20.546   3.801   7.055
 8839POPC   C4B42910  20.564   3.738   7.355
 8840POPC   NC342911  13.602  15.908   5.555
 8840POPC   PO442912  13.610  15.922   5.855
 8840POPC   GL142913  13.598  15.922   6.155
 8840POPC   GL242914  13.739  15.944   6.155
 8840POPC   C1A42915  13.611  15.966   6.455
 8840POPC   D2A42916  13.660  15.974   6.755
 8840POPC   C3A42917  13.629  15.948   7.055
 8840POPC   C4A42918  13.651  15.945   7.355
 8840POPC   C1B42919  13.908  15.929   6.455
 8840POPC   C2B42920  13.868  15.943   6.755
 8840POPC   C3B42921  13.838  15.929   7.055
 8840POPC   C4B42922  13.835  16.007   7.355
 8841POPC   NC342923  18.327  29.874   5.555
 8841POPC   PO442924  18.288  29.961   5.855
 8841POPC   GL142925  18.275  29.939   6.155
 8841POPC   GL242926  18.362  29.840   6.155
 8841POPC   C1A42927  18.237  29.874   6.455
 8841POPC   D2A42928  18.281  29.932   6.755
 8841POPC   C3A42929  18.238  29.952   7.055
 8841POPC   C4A42930  18.238  29.893   7.355
 8841POPC   C1B42931  18.519  29.843   6.455
 8841POPC   C2B42932  18.500  29.860   6.755
 8841POPC   C3B42933  18.538  29.872   7.055
 8841POPC   C4B42934  18.521  29.793   7.355
 8842POPC   NC342935   8.996  21.434   5.555
 8842POPC   PO442936   8.926  21.357   5.855
 8842POPC   GL142937   8.998  21.407   6.155
 8842POPC   GL242938   8.848  21.448   6.155
 8842POPC   C1A42939   8.960  21.368   6.455
 8842POPC   D2A42940   8.992  21.396   6.755
 8842POPC   C3A42941   8.983  21.342   7.055
 8842POPC   C4A42942   8.944  21.418   7.355
 8842POPC   C1B42943   8.761  21.468   6.455
 8842POPC   C2B42944   8.794  21.521   6.755
 8842POPC   C3B42945   8.726  21.451   7.055
 8842POPC   C4B42946   8.756  21.500   7.355
 8843POPC   NC342947  43.895   2.802   5.555
 8843POPC   PO442948  43.863   2.770   5.855
 8843POPC   GL142949  43.883   2.815   6.155
 8843POPC   GL242950  43.782   2.882   6.155
 8843POPC   C1A42951  43.895   2.813   6.455
 8843POPC   D2A42952  43.862   2.799   6.755
 8843POPC   C3A42953  43.858   2.790   7.055
 8843POPC   C4A42954  43.866   2.780   7.355
 8843POPC   C1B42955  43.691   2.919   6.455
 8843POPC   C2B42956  43.735   2.895   6.755
 8843POPC   C3B42957  43.660   2.911   7.055
 8843POPC   C4B42958  43.730   2.923   7.355
 8844POPC   NC342959   8.930   2.034   5.555
 8844POPC   PO442960   8.973   1.978   5.855
 8844POPC   GL142961   9.014   1.989   6.155
 8844POPC   GL242962   9.003   1.866   6.155
 8844POPC   C1A42963   8.956   2.028   6.455
 8844POPC   D2A42964   8.942   2.039   6.755
 8844POPC   C3A42965   9.019   2.015   7.055
 8844POPC   C4A42966   9.022   2.006   7.355
 8844POPC   C1B42967   9.008   1.728   6.455
 8844POPC   C2B42968   9.060   1.729   6.755
 8844POPC   C3B42969   9.042   1.745   7.055
 8844POPC   C4B42970   9.049   1.782   7.355
 8845POPC   NC342971  24.452  19.028   5.555
 8845POPC   PO442972  24.444  19.097   5.855
 8845POPC   GL142973  24.537  19.053   6.155
 8845POPC   GL242974  24.352  19.086   6.155
 8845POPC   C1A42975  24.450  19.091   6.455
 8845POPC   D2A42976  24.531  19.074   6.755
 8845POPC   C3A42977  24.513  19.056   7.055
 8845POPC   C4A42978  24.517  19.097   7.355
 8845POPC   C1B42979  24.265  19.081   6.455
 8845POPC   C2B42980  24.199  19.046   6.755
 8845POPC   C3B42981  24.222  19.123   7.055
 8845POPC   C4B42982  24.272  19.125   7.355
 8846POPC   NC342983  18.326  19.875   5.555
 8846POPC   PO442984  18.297  19.817   5.855
 8846POPC   GL142985  18.328  19.818   6.155
 8846POPC   GL242986  18.186  19.822   6.155
 8846POPC   C1A42987  18.306  19.877   6.455
 8846POPC   D2A42988  18.245  19.812   6.755
 8846POPC   C3A42989  18.263  19.864   7.055
 8846POPC   C4A42990  18.280  19.836   7.355
 8846POPC   C1B42991  18.086  19.773   6.455
 8846POPC   C2B42992  18.031  19.836   6.755
 8846POPC   C3B42993  17.988  19.745   7.055
 8846POPC   C4B42994  17.996  19.778   7.355
 8847POPC   NC342995   3.538   9.767   5.555
 8847POPC   PO442996   3.543   9.723   5.855
 8847POPC   GL142997   3.585   9.749   6.155
 8847POPC   GL242998   3.393   9.762   6.155
 8847POPC   C1A42999   3.493   9.700   6.455
 8847POPC   D2A43000   3.559   9.794   6.755
 8847POPC   C3A43001   3.496   9.761   7.055
 8847POPC   C4A43002   3.497   9.745   7.355
 8847POPC   C1B43003   3.341   9.707   6.455
 8847POPC   C2B43004   3.309   9.751   6.755
 8847POPC   C3B43005   3.277   9.695   7.055
 8847POPC   C4B43006   3.282   9.712   7.355
 8848POPC   NC343007   6.615  41.572   5.555
 8848POPC   PO443008   6.662  41.578   5.855
 8848POPC   GL143009   6.650  41.546   6.155
 8848POPC   GL243010   6.715  41.489   6.155
 8848POPC   C1A43011   6.649  41.532   6.455
 8848POPC   D2A43012   6.659  41.513   6.755
 8848POPC   C3A43013   6.600  41.603   7.055
 8848POPC   C4A43014   6.661  41.559   7.355
 8848POPC   C1B43015   6.818  41.455   6.455
 8848POPC   C2B43016   6.818  41.417   6.755
 8848POPC   C3B43017   6.900  41.446   7.055
 8848POPC   C4B43018   6.856  41.480   7.355
 8849POPC   NC343019   7.432  31.463   5.555
 8849POPC   PO443020   7.435  31.440   5.855
 8849POPC   GL143021   7.465  31.440   6.155
 8849POPC   GL243022   7.291  31.481   6.155
 8849POPC   C1A43023   7.440  31.466   6.455
 8849POPC   D2A43024   7.389  31.449   6.755
 8849POPC   C3A43025   7.457  31.482   7.055
 8849POPC   C4A43026   7.386  31.494   7.355
 8849POPC   C1B43027   7.210  31.504   6.455
 8849POPC   C2B43028   7.160  31.461   6.755
 8849POPC   C3B43029   7.212  31.496   7.055
 8849POPC   C4B43030   7.192  31.485   7.355
 8850POPC   NC343031  20.568  12.046   5.555
 8850POPC   PO443032  20.572  12.114   5.855
 8850POPC   GL143033  20.569  12.044   6.155
 8850POPC   GL243034  20.479  12.065   6.155
 8850POPC   C1A43035  20.644  12.119   6.455
 8850POPC   D2A43036  20.658  12.037   6.755
 8850POPC   C3A43037  20.603  12.034   7.055
 8850POPC   C4A43038  20.623  12.081   7.355
 8850POPC   C1B43039  20.429  11.993   6.455
 8850POPC   C2B43040  20.417  11.958   6.755
 8850POPC   C3B43041  20.339  11.966   7.055
 8850POPC   C4B43042  20.412  11.975   7.355
 8851POPC   NC343043   8.228  40.749   5.555
 8851POPC   PO443044   8.204  40.755   5.855
 8851POPC   GL143045   8.152  40.763   6.155
 8851POPC   GL243046   8.246  40.900   6.155
 8851POPC   C1A43047   8.230  40.766   6.455
 8851POPC   D2A43048   8.232  40.796   6.755
 8851POPC   C3A43049   8.221  40.769   7.055
 8851POPC   C4A43050   8.238  40.819   7.355
 8851POPC   C1B43051   8.238  41.024   6.455
 8851POPC   C2B43052   8.280  41.075   6.755
 8851POPC   C3B43053   8.228  41.071   7.055
 8851POPC   C4B43054   8.251  41.023   7.355
 8852POPC   NC343055   5.835  29.131   5.555
 8852POPC   PO443056   5.859  29.144   5.855
 8852POPC   GL143057   5.912  29.186   6.155
 8852POPC   GL243058   5.874  29.055   6.155
 8852POPC   C1A43059   5.837  29.152   6.455
 8852POPC   D2A43060   5.872  29.158   6.755
 8852POPC   C3A43061   5.871  29.136   7.055
 8852POPC   C4A43062   5.826  29.184   7.355
 8852POPC   C1B43063   5.892  28.892   6.455
 8852POPC   C2B43064   5.860  28.855   6.755
 8852POPC   C3B43065   5.835  28.874   7.055
 8852POPC   C4B43066   5.846  28.900   7.355
 8853POPC   NC343067  38.439  40.825   5.555
 8853POPC   PO443068  38.497  40.773   5.855
 8853POPC   GL143069  38.478  40.785   6.155
 8853POPC   GL243070  38.388  40.695   6.155
 8853POPC   C1A43071  38.408  40.825   6.455
 8853POPC   D2A43072  38.434  40.795   6.755
 8853POPC   C3A43073  38.498  40.797   7.055
 8853POPC   C4A43074  38.431  40.795   7.355
 8853POPC   C1B43075  38.401  40.589   6.455
 8853POPC   C2B43076  38.326  40.544   6.755
 8853POPC   C3B43077  38.361  40.600   7.055
 8853POPC   C4B43078  38.387  40.577   7.355
 8854POPC   NC343079  27.584  27.582   5.555
 8854POPC   PO443080  27.557  27.577   5.855
 8854POPC   GL143081  27.628  27.640   6.155
 8854POPC   GL243082  27.436  27.545   6.155
 8854POPC   C1A43083  27.563  27.636   6.455
 8854POPC   D2A43084  27.635  27.609   6.755
 8854POPC   C3A43085  27.627  27.558   7.055
 8854POPC   C4A43086  27.598  27.630   7.355
 8854POPC   C1B43087  27.373  27.571   6.455
 8854POPC   C2B43088  27.371  27.573   6.755
 8854POPC   C3B43089  27.380  27.594   7.055
 8854POPC   C4B43090  27.379  27.595   7.355
 8855POPC   NC343091  33.757  28.387   5.555
 8855POPC   PO443092  33.801  28.355   5.855
 8855POPC   GL143093  33.809  28.320   6.155
 8855POPC   GL243094  33.805  28.445   6.155
 8855POPC   C1A43095  33.754  28.404   6.455
 8855POPC   D2A43096  33.835  28.322   6.755
 8855POPC   C3A43097  33.795  28.408   7.055
 8855POPC   C4A43098  33.828  28.360   7.355
 8855POPC   C1B43099  33.789  28.652   6.455
 8855POPC   C2B43100  33.771  28.640   6.755
 8855POPC   C3B43101  33.769  28.609   7.055
 8855POPC   C4B43102  33.722  28.644   7.355
 8856POPC   NC343103  33.008   1.198   5.555
 8856POPC   PO443104  33.047   1.258   5.855
 8856POPC   GL143105  33.035   1.257   6.155
 8856POPC   GL243106  33.085   1.255   6.155
 8856POPC   C1A43107  33.019   1.231   6.455
 8856POPC   D2A43108  32.977   1.237   6.755
 8856POPC   C3A43109  33.055   1.244   7.055
 8856POPC   C4A43110  33.023   1.206   7.355
 8856POPC   C1B43111  33.177   1.324   6.455
 8856POPC   C2B43112  33.190   1.335   6.755
 8856POPC   C3B43113  33.215   1.335   7.055
 8856POPC   C4B43114  33.253   1.398   7.355
 8857POPC   NC343115  33.051   7.461   5.555
 8857POPC   PO443116  32.992   7.465   5.855
 8857POPC   GL143117  33.073   7.445   6.155
 8857POPC   GL243118  32.958   7.392   6.155
 8857POPC   C1A43119  32.993   7.463   6.455
 8857POPC   D2A43120  32.992   7.410   6.755
 8857POPC   C3A43121  33.052   7.433   7.055
 8857POPC   C4A43122  33.059   7.438   7.355
 8857POPC   C1B43123  32.794   7.267   6.455
 8857POPC   C2B43124  32.861   7.278   6.755
 8857POPC   C3B43125  32.779   7.238   7.055
 8857POPC   C4B43126  32.838   7.295   7.355
 8858POPC   NC343127  10.555  29.144   5.555
 8858POPC   PO443128  10.499  29.150   5.855
 8858POPC   GL143129  10.533  29.100   6.155
 8858POPC   GL243130  10.627  29.052   6.155
 8858POPC   C1A43131  10.488  29.169   6.455
 8858POPC   D2A43132  10.476  29.130   6.755
 8858POPC   C3A43133  10.507  29.152   7.055
 8858POPC   C4A43134  10.517  29.178   7.355
 8858POPC   C1B43135  10.631  28.902   6.455
 8858POPC   C2B43136  10.663  28.914   6.755
 8858POPC   C3B43137  10.639  28.906   7.055
 8858POPC   C4B43138  10.602  28.919   7.355
 8859POPC   NC343139  28.400   6.629   5.555
 8859POPC   PO443140  28.336   6.629   5.855
 8859POPC   GL143141  28.385   6.682   6.155
 8859POPC   GL243142  28.226   6.606   6.155
 8859POPC   C1A43143  28.363   6.650   6.455
 8859POPC   D2A43144  28.349   6.634   6.755
 8859POPC   C3A43145  28.366   6.678   7.055
 8859POPC   C4A43146  28.380   6.607   7.355
 8859POPC   C1B43147  28.208   6.515   6.455
 8859POPC   C2B43148  28.163   6.500   6.755
 8859POPC   C3B43149  28.162   6.494   7.055
 8859POPC   C4B43150  28.216   6.496   7.355
 8860POPC   NC343151   0.417   4.284   5.555
 8860POPC   PO443152   0.402   4.362   5.855
 8860POPC   GL143153   0.449   4.297   6.155
 8860POPC   GL243154   0.406   4.190   6.155
 8860POPC   C1A43155   0.391   4.295   6.455
 8860POPC   D2A43156   0.488   4.296   6.755
 8860POPC   C3A43157   0.439   4.284   7.055
 8860POPC   C4A43158   0.428   4.281   7.355
 8860POPC   C1B43159   0.359   4.090   6.455
 8860POPC   C2B43160   0.396   4.095   6.755
 8860POPC   C3B43161   0.429   4.038   7.055
 8860POPC   C4B43162   0.402   4.058   7.355
 8861POPC   NC343163   2.006   5.902   5.555
 8861POPC   PO443164   1.964   5.916   5.855
 8861POPC   GL143165   2.031   5.841   6.155
 8861POPC   GL243166   2.050   5.778   6.155
 8861POPC   C1A43167   2.001   5.848   6.455
 8861POPC   D2A43168   1.963   5.858   6.755
 8861POPC   C3A43169   1.972   5.851   7.055
 8861POPC   C4A43170   2.037   5.882   7.355
 8861POPC   C1B43171   2.017   5.668   6.455
 8861POPC   C2B43172   2.039   5.668   6.755
 8861POPC   C3B43173   2.076   5.587   7.055
 8861POPC   C4B43174   2.006   5.582   7.355
 8862POPC   NC343175  37.646  14.360   5.555
 8862POPC   PO443176  37.675  14.374   5.855
 8862POPC   GL143177  37.729  14.397   6.155
 8862POPC   GL243178  37.645  14.485   6.155
 8862POPC   C1A43179  37.705  14.379   6.455
 8862POPC   D2A43180  37.631  14.416   6.755
 8862POPC   C3A43181  37.677  14.446   7.055
 8862POPC   C4A43182  37.658  14.392   7.355
 8862POPC   C1B43183  37.585  14.614   6.455
 8862POPC   C2B43184  37.565  14.586   6.755
 8862POPC   C3B43185  37.552  14.644   7.055
 8862POPC   C4B43186  37.541  14.630   7.355
 8863POPC   NC343187  38.449  17.466   5.555
 8863POPC   PO443188  38.472  17.503   5.855
 8863POPC   GL143189  38.461  17.527   6.155
 8863POPC   GL243190  38.420  17.372   6.155
 8863POPC   C1A43191  38.470  17.504   6.455
 8863POPC   D2A43192  38.502  17.550   6.755
 8863POPC   C3A43193  38.490  17.531   7.055
 8863POPC   C4A43194  38.416  17.460   7.355
 8863POPC   C1B43195  38.451  17.226   6.455
 8863POPC   C2B43196  38.399  17.296   6.755
 8863POPC   C3B43197  38.467  17.238   7.055
 8863POPC   C4B43198  38.440  17.221   7.355
 8864POPC   NC343199  33.012  33.792   5.555
 8864POPC   PO443200  33.019  33.816   5.855
 8864POPC   GL143201  33.052  33.804   6.155
 8864POPC   GL243202  32.946  33.671   6.155
 8864POPC   C1A43203  32.987  33.818   6.455
 8864POPC   D2A43204  33.012  33.762   6.755
 8864POPC   C3A43205  32.974  33.757   7.055
 8864POPC   C4A43206  33.058  33.818   7.355
 8864POPC   C1B43207  32.957  33.538   6.455
 8864POPC   C2B43208  32.969  33.545   6.755
 8864POPC   C3B43209  32.921  33.551   7.055
 8864POPC   C4B43210  32.963  33.533   7.355
 8865POPC   NC343211  40.746   8.990   5.555
 8865POPC   PO443212  40.822   8.939   5.855
 8865POPC   GL143213  40.769   8.998   6.155
 8865POPC   GL243214  40.905   9.009   6.155
 8865POPC   C1A43215  40.826   9.010   6.455
 8865POPC   D2A43216  40.742   8.967   6.755
 8865POPC   C3A43217  40.773   8.945   7.055
 8865POPC   C4A43218  40.762   8.923   7.355
 8865POPC   C1B43219  41.009   9.159   6.455
 8865POPC   C2B43220  41.016   9.179   6.755
 8865POPC   C3B43221  40.936   9.108   7.055
 8865POPC   C4B43222  40.957   9.114   7.355
 8866POPC   NC343223  27.588  33.016   5.555
 8866POPC   PO443224  27.600  33.055   5.855
 8866POPC   GL143225  27.561  33.002   6.155
 8866POPC   GL243226  27.517  32.915   6.155
 8866POPC   C1A43227  27.580  33.048   6.455
 8866POPC   D2A43228  27.548  33.058   6.755
 8866POPC   C3A43229  27.641  33.012   7.055
 8866POPC   C4A43230  27.567  33.030   7.355
 8866POPC   C1B43231  27.430  32.866   6.455
 8866POPC   C2B43232  27.481  32.818   6.755
 8866POPC   C3B43233  27.472  32.844   7.055
 8866POPC   C4B43234  27.400  32.811   7.355
 8867POPC   NC343235  14.397  24.441   5.555
 8867POPC   PO443236  14.389  24.474   5.855
 8867POPC   GL143237  14.375  24.517   6.155
 8867POPC   GL243238  14.274  24.541   6.155
 8867POPC   C1A43239  14.418  24.502   6.455
 8867POPC   D2A43240  14.422  24.532   6.755
 8867POPC   C3A43241  14.363  24.441   7.055
 8867POPC   C4A43242  14.404  24.476   7.355
 8867POPC   C1B43243  14.185  24.543   6.455
 8867POPC   C2B43244  14.164  24.511   6.755
 8867POPC   C3B43245  14.135  24.519   7.055
 8867POPC   C4B43246  14.130  24.536   7.355
 8868POPC   NC343247  26.066  11.338   5.555
 8868POPC   PO443248  26.050  11.333   5.855
 8868POPC   GL143249  26.033  11.308   6.155
 8868POPC   GL243250  26.147  11.250   6.155
 8868POPC   C1A43251  26.034  11.326   6.455
 8868POPC   D2A43252  26.061  11.340   6.755
 8868POPC   C3A43253  26.055  11.304   7.055
 8868POPC   C4A43254  26.003  11.311   7.355
 8868POPC   C1B43255  26.307  11.228   6.455
 8868POPC   C2B43256  26.239  11.306   6.755
 8868POPC   C3B43257  26.318  11.260   7.055
 8868POPC   C4B43258  26.299  11.259   7.355
 8869POPC   NC343259  42.359  12.069   5.555
 8869POPC   PO443260  42.374  12.028   5.855
 8869POPC   GL143261  42.379  12.038   6.155
 8869POPC   GL243262  42.454  12.047   6.155
 8869POPC   C1A43263  42.369  12.087   6.455
 8869POPC   D2A43264  42.299  12.046   6.755
 8869POPC   C3A43265  42.307  12.045   7.055
 8869POPC   C4A43266  42.312  12.064   7.355
 8869POPC   C1B43267  42.537  12.086   6.455
 8869POPC   C2B43268  42.562  12.015   6.755
 8869POPC   C3B43269  42.549  12.028   7.055
 8869POPC   C4B43270  42.581  12.063   7.355
 8870POPC   NC343271   4.334   8.924   5.555
 8870POPC   PO443272   4.298   8.948   5.855
 8870POPC   GL143273   4.282   8.935   6.155
 8870POPC   GL243274   4.329   9.103   6.155
 8870POPC   C1A43275   4.313   8.937   6.455
 8870POPC   D2A43276   4.322   9.017   6.755
 8870POPC   C3A43277   4.269   8.942   7.055
 8870POPC   C4A43278   4.361   9.004   7.355
 8870POPC   C1B43279   4.349   9.215   6.455
 8870POPC   C2B43280   4.330   9.181   6.755
 8870POPC   C3B43281   4.371   9.225   7.055
 8870POPC   C4B43282   4.379   9.266   7.355
 8871POPC   NC343283  28.331  34.553   5.555
 8871POPC   PO443284  28.407  34.570   5.855
 8871POPC   GL143285  28.418  34.564   6.155
 8871POPC   GL243286  28.467  34.586   6.155
 8871POPC   C1A43287  28.359  34.625   6.455
 8871POPC   D2A43288  28.379  34.561   6.755
 8871POPC   C3A43289  28.345  34.541   7.055
 8871POPC   C4A43290  28.334  34.528   7.355
 8871POPC   C1B43291  28.643  34.517   6.455
 8871POPC   C2B43292  28.636  34.603   6.755
 8871POPC   C3B43293  28.665  34.567   7.055
 8871POPC   C4B43294  28.624  34.515   7.355
 8872POPC   NC343295  31.463   8.169   5.555
 8872POPC   PO443296  31.449   8.151   5.855
 8872POPC   GL143297  31.439   8.236   6.155
 8872POPC   GL243298  31.583   8.313   6.155
 8872POPC   C1A43299  31.448   8.152   6.455
 8872POPC   D2A43300  31.508   8.212   6.755
 8872POPC   C3A43301  31.429   8.148   7.055
 8872POPC   C4A43302  31.520   8.201   7.355
 8872POPC   C1B43303  31.662   8.402   6.455
 8872POPC   C2B43304  31.644   8.368   6.755
 8872POPC   C3B43305  31.708   8.329   7.055
 8872POPC   C4B43306  31.639   8.359   7.355
 8873POPC   NC343307  29.151   5.123   5.555
 8873POPC   PO443308  29.130   5.107   5.855
 8873POPC   GL143309  29.157   5.112   6.155
 8873POPC   GL243310  29.191   5.158   6.155
 8873POPC   C1A43311  29.167   5.114   6.455
 8873POPC   D2A43312  29.176   5.067   6.755
 8873POPC   C3A43313  29.181   5.045   7.055
 8873POPC   C4A43314  29.186   5.101   7.355
 8873POPC   C1B43315  29.322   5.238   6.455
 8873POPC   C2B43316  29.340   5.315   6.755
 8873POPC   C3B43317  29.309   5.252   7.055
 8873POPC   C4B43318  29.372   5.226   7.355
 8874POPC   NC343319  36.890  41.519   5.555
 8874POPC   PO443320  36.872  41.603   5.855
 8874POPC   GL143321  36.859  41.530   6.155
 8874POPC   GL243322  37.014  41.455   6.155
 8874POPC   C1A43323  36.922  41.558   6.455
 8874POPC   D2A43324  36.858  41.565   6.755
 8874POPC   C3A43325  36.928  41.552   7.055
 8874POPC   C4A43326  36.865  41.519   7.355
 8874POPC   C1B43327  37.159  41.463   6.455
 8874POPC   C2B43328  37.115  41.486   6.755
 8874POPC   C3B43329  37.141  41.454   7.055
 8874POPC   C4B43330  37.177  41.416   7.355
 8875POPC   NC343331   8.180  26.784   5.555
 8875POPC   PO443332   8.214  26.786   5.855
 8875POPC   GL143333   8.230  26.864   6.155
 8875POPC   GL243334   8.118  26.884   6.155
 8875POPC   C1A43335   8.212  26.828   6.455
 8875POPC   D2A43336   8.150  26.842   6.755
 8875POPC   C3A43337   8.208  26.832   7.055
 8875POPC   C4A43338   8.213  26.844   7.355
 8875POPC   C1B43339   8.130  27.031   6.455
 8875POPC   C2B43340   8.112  27.003   6.755
 8875POPC   C3B43341   8.092  27.069   7.055
 8875POPC   C4B43342   8.112  27.008   7.355
 8876POPC   NC343343  37.723  43.145   5.555
 8876POPC   PO443344  37.689  43.129   5.855
 8876POPC   GL143345  37.669  43.117   6.155
 8876POPC   GL243346  37.578  43.143   6.155
 8876POPC   C1A43347  37.719  43.125   6.455
 8876POPC   D2A43348  37.673  43.140   6.755
 8876POPC   C3A43349  37.700  43.095   7.055
 8876POPC   C4A43350  37.695  43.115   7.355
 8876POPC   C1B43351  37.462  43.194   6.455
 8876POPC   C2B43352  37.418  43.164   6.755
 8876POPC   C3B43353  37.405  43.124   7.055
 8876POPC   C4B43354  37.434  43.129   7.355
 8877POPC   NC343355  12.061  43.843   5.555
 8877POPC   PO443356  12.062  43.891   5.855
 8877POPC   GL143357  12.116  43.877   6.155
 8877POPC   GL243358  12.052  43.798   6.155
 8877POPC   C1A43359  12.094  43.894   6.455
 8877POPC   D2A43360  12.072  43.858   6.755
 8877POPC   C3A43361  12.051  43.925   7.055
 8877POPC   C4A43362  12.111  43.905   7.355
 8877POPC   C1B43363  11.917  43.666   6.455
 8877POPC   C2B43364  11.910  43.703   6.755
 8877POPC   C3B43365  11.935  43.667   7.055
 8877POPC   C4B43366  11.906  43.695   7.355
 8878POPC   NC343367   5.102  32.200   5.555
 8878POPC   PO443368   5.121  32.262   5.855
 8878POPC   GL143369   5.051  32.251   6.155
 8878POPC   GL243370   5.206  32.266   6.155
 8878POPC   C1A43371   5.103  32.235   6.455
 8878POPC   D2A43372   5.105  32.266   6.755
 8878POPC   C3A43373   5.057  32.231   7.055
 8878POPC   C4A43374   5.073  32.270   7.355
 8878POPC   C1B43375   5.288  32.372   6.455
 8878POPC   C2B43376   5.296  32.356   6.755
 8878POPC   C3B43377   5.319  32.376   7.055
 8878POPC   C4B43378   5.330  32.345   7.355
 8879POPC   NC343379   6.653  34.542   5.555
 8879POPC   PO443380   6.600  34.587   5.855
 8879POPC   GL143381   6.674  34.585   6.155
 8879POPC   GL243382   6.733  34.465   6.155
 8879POPC   C1A43383   6.685  34.610   6.455
 8879POPC   D2A43384   6.621  34.558   6.755
 8879POPC   C3A43385   6.662  34.534   7.055
 8879POPC   C4A43386   6.598  34.602   7.355
 8879POPC   C1B43387   6.790  34.332   6.455
 8879POPC   C2B43388   6.756  34.362   6.755
 8879POPC   C3B43389   6.770  34.380   7.055
 8879POPC   C4B43390   6.730  34.323   7.355
 8880POPC   NC343391  12.869  11.279   5.555
 8880POPC   PO443392  12.876  11.341   5.855
 8880POPC   GL143393  12.807  11.337   6.155
 8880POPC   GL243394  12.992  11.277   6.155
 8880POPC   C1A43395  12.883  11.338   6.455
 8880POPC   D2A43396  12.887  11.342   6.755
 8880POPC   C3A43397  12.854  11.279   7.055
 8880POPC   C4A43398  12.852  11.337   7.355
 8880POPC   C1B43399  13.067  11.187   6.455
 8880POPC   C2B43400  13.111  11.212   6.755
 8880POPC   C3B43401  13.059  11.190   7.055
 8880POPC   C4B43402  13.107  11.207   7.355
 8881POPC   NC343403  36.919  12.066   5.555
 8881POPC   PO443404  36.929  12.026   5.855
 8881POPC   GL143405  36.855  12.051   6.155
 8881POPC   GL243406  36.938  12.000   6.155
 8881POPC   C1A43407  36.863  12.051   6.455
 8881POPC   D2A43408  36.934  12.056   6.755
 8881POPC   C3A43409  36.944  12.056   7.055
 8881POPC   C4A43410  36.908  12.052   7.355
 8881POPC   C1B43411  36.991  11.806   6.455
 8881POPC   C2B43412  37.051  11.817   6.755
 8881POPC   C3B43413  37.048  11.811   7.055
 8881POPC   C4B43414  36.993  11.817   7.355
 8882POPC   NC343415  35.312  31.475   5.555
 8882POPC   PO443416  35.374  31.450   5.855
 8882POPC   GL143417  35.390  31.490   6.155
 8882POPC   GL243418  35.196  31.504   6.155
 8882POPC   C1A43419  35.371  31.428   6.455
 8882POPC   D2A43420  35.370  31.450   6.755
 8882POPC   C3A43421  35.370  31.492   7.055
 8882POPC   C4A43422  35.347  31.472   7.355
 8882POPC   C1B43423  35.101  31.441   6.455
 8882POPC   C2B43424  35.147  31.496   6.755
 8882POPC   C3B43425  35.052  31.512   7.055
 8882POPC   C4B43426  35.069  31.449   7.355
 8883POPC   NC343427  41.537  40.036   5.555
 8883POPC   PO443428  41.554  39.992   5.855
 8883POPC   GL143429  41.512  39.964   6.155
 8883POPC   GL243430  41.471  40.088   6.155
 8883POPC   C1A43431  41.553  40.050   6.455
 8883POPC   D2A43432  41.593  40.036   6.755
 8883POPC   C3A43433  41.576  39.978   7.055
 8883POPC   C4A43434  41.586  39.995   7.355
 8883POPC   C1B43435  41.403  40.259   6.455
 8883POPC   C2B43436  41.381  40.257   6.755
 8883POPC   C3B43437  41.468  40.266   7.055
 8883POPC   C4B43438  41.423  40.179   7.355
 8884POPC   NC343439  27.596  31.518   5.555
 8884POPC   PO443440  27.584  31.433   5.855
 8884POPC   GL143441  27.633  31.427   6.155
 8884POPC   GL243442  27.677  31.615   6.155
 8884POPC   C1A43443  27.597  31.514   6.455
 8884POPC   D2A43444  27.588  31.492   6.755
 8884POPC   C3A43445  27.546  31.432   7.055
 8884POPC   C4A43446  27.581  31.462   7.355
 8884POPC   C1B43447  27.737  31.692   6.455
 8884POPC   C2B43448  27.777  31.710   6.755
 8884POPC   C3B43449  27.748  31.675   7.055
 8884POPC   C4B43450  27.783  31.621   7.355
 8885POPC   NC343451  34.553  34.617   5.555
 8885POPC   PO443452  34.557  34.607   5.855
 8885POPC   GL143453  34.553  34.532   6.155
 8885POPC   GL243454  34.653  34.439   6.155
 8885POPC   C1A43455  34.531  34.593   6.455
 8885POPC   D2A43456  34.579  34.593   6.755
 8885POPC   C3A43457  34.547  34.621   7.055
 8885POPC   C4A43458  34.570  34.543   7.355
 8885POPC   C1B43459  34.674  34.314   6.455
 8885POPC   C2B43460  34.705  34.378   6.755
 8885POPC   C3B43461  34.709  34.339   7.055
 8885POPC   C4B43462  34.741  34.400   7.355
 8886POPC   NC343463  24.455  40.043   5.555
 8886POPC   PO443464  24.489  40.001   5.855
 8886POPC   GL143465  24.528  40.054   6.155
 8886POPC   GL243466  24.345  39.972   6.155
 8886POPC   C1A43467  24.469  39.994   6.455
 8886POPC   D2A43468  24.526  40.019   6.755
 8886POPC   C3A43469  24.539  39.990   7.055
 8886POPC   C4A43470  24.484  39.996   7.355
 8886POPC   C1B43471  24.246  39.836   6.455
 8886POPC   C2B43472  24.275  39.893   6.755
 8886POPC   C3B43473  24.306  39.827   7.055
 8886POPC   C4B43474  24.259  39.849   7.355
 8887POPC   NC343475  35.302  20.571   5.555
 8887POPC   PO443476  35.395  20.569   5.855
 8887POPC   GL143477  35.358  20.568   6.155
 8887POPC   GL243478  35.526  20.657   6.155
 8887POPC   C1A43479  35.321  20.621   6.455
 8887POPC   D2A43480  35.324  20.650   6.755
 8887POPC   C3A43481  35.380  20.634   7.055
 8887POPC   C4A43482  35.348  20.624   7.355
 8887POPC   C1B43483  35.580  20.656   6.455
 8887POPC   C2B43484  35.629  20.599   6.755
 8887POPC   C3B43485  35.624  20.628   7.055
 8887POPC   C4B43486  35.558  20.610   7.355
 8888POPC   NC343487  39.195  30.738   5.555
 8888POPC   PO443488  39.211  30.720   5.855
 8888POPC   GL143489  39.209  30.661   6.155
 8888POPC   GL243490  39.350  30.789   6.155
 8888POPC   C1A43491  39.281  30.714   6.455
 8888POPC   D2A43492  39.183  30.695   6.755
 8888POPC   C3A43493  39.204  30.675   7.055
 8888POPC   C4A43494  39.256  30.738   7.355
 8888POPC   C1B43495  39.426  30.810   6.455
 8888POPC   C2B43496  39.472  30.762   6.755
 8888POPC   C3B43497  39.506  30.763   7.055
 8888POPC   C4B43498  39.496  30.812   7.355
 8889POPC   NC343499  37.650   8.156   5.555
 8889POPC   PO443500  37.661   8.195   5.855
 8889POPC   GL143501  37.680   8.181   6.155
 8889POPC   GL243502  37.775   8.295   6.155
 8889POPC   C1A43503  37.712   8.153   6.455
 8889POPC   D2A43504  37.643   8.173   6.755
 8889POPC   C3A43505  37.677   8.245   7.055
 8889POPC   C4A43506  37.682   8.182   7.355
 8889POPC   C1B43507  37.843   8.387   6.455
 8889POPC   C2B43508  37.851   8.376   6.755
 8889POPC   C3B43509  37.896   8.388   7.055
 8889POPC   C4B43510  37.897   8.341   7.355
 8890POPC   NC343511   1.193  13.655   5.555
 8890POPC   PO443512   1.232  13.597   5.855
 8890POPC   GL143513   1.179  13.624   6.155
 8890POPC   GL243514   1.314  13.599   6.155
 8890POPC   C1A43515   1.233  13.607   6.455
 8890POPC   D2A43516   1.168  13.677   6.755
 8890POPC   C3A43517   1.189  13.616   7.055
 8890POPC   C4A43518   1.250  13.649   7.355
 8890POPC   C1B43519   1.450  13.672   6.455
 8890POPC   C2B43520   1.489  13.668   6.755
 8890POPC   C3B43521   1.449  13.677   7.055
 8890POPC   C4B43522   1.420  13.622   7.355
 8891POPC   NC343523  15.950  26.818   5.555
 8891POPC   PO443524  15.949  26.821   5.855
 8891POPC   GL143525  15.933  26.846   6.155
 8891POPC   GL243526  15.826  26.841   6.155
 8891POPC   C1A43527  15.941  26.826   6.455
 8891POPC   D2A43528  15.944  26.773   6.755
 8891POPC   C3A43529  15.999  26.839   7.055
 8891POPC   C4A43530  15.921  26.798   7.355
 8891POPC   C1B43531  15.728  26.936   6.455
 8891POPC   C2B43532  15.787  26.987   6.755
 8891POPC   C3B43533  15.734  26.905   7.055
 8891POPC   C4B43534  15.713  26.957   7.355
 8892POPC   NC343535  28.364  31.516   5.555
 8892POPC   PO443536  28.389  31.485   5.855
 8892POPC   GL143537  28.330  31.452   6.155
 8892POPC   GL243538  28.266  31.399   6.155
 8892POPC   C1A43539  28.367  31.441   6.455
 8892POPC   D2A43540  28.365  31.449   6.755
 8892POPC   C3A43541  28.358  31.441   7.055
 8892POPC   C4A43542  28.367  31.463   7.355
 8892POPC   C1B43543  28.198  31.310   6.455
 8892POPC   C2B43544  28.179  31.272   6.755
 8892POPC   C3B43545  28.161  31.240   7.055
 8892POPC   C4B43546  28.176  31.317   7.355
 8893POPC   NC343547  18.310   9.765   5.555
 8893POPC   PO443548  18.258   9.729   5.855
 8893POPC   GL143549  18.240   9.739   6.155
 8893POPC   GL243550  18.227   9.606   6.155
 8893POPC   C1A43551  18.279   9.726   6.455
 8893POPC   D2A43552  18.309   9.796   6.755
 8893POPC   C3A43553  18.311   9.713   7.055
 8893POPC   C4A43554  18.311   9.732   7.355
 8893POPC   C1B43555  18.185   9.459   6.455
 8893POPC   C2B43556  18.181   9.460   6.755
 8893POPC   C3B43557  18.274   9.474   7.055
 8893POPC   C4B43558  18.274   9.552   7.355
 8894POPC   NC343559  29.160   2.743   5.555
 8894POPC   PO443560  29.128   2.752   5.855
 8894POPC   GL143561  29.168   2.791   6.155
 8894POPC   GL243562  29.178   2.664   6.155
 8894POPC   C1A43563  29.180   2.803   6.455
 8894POPC   D2A43564  29.134   2.727   6.755
 8894POPC   C3A43565  29.141   2.724   7.055
 8894POPC   C4A43566  29.104   2.752   7.355
 8894POPC   C1B43567  29.134   2.515   6.455
 8894POPC   C2B43568  29.124   2.477   6.755
 8894POPC   C3B43569  29.126   2.485   7.055
 8894POPC   C4B43570  29.193   2.485   7.355
 8895POPC   NC343571   7.374  29.932   5.555
 8895POPC   PO443572   7.458  29.877   5.855
 8895POPC   GL143573   7.440  29.905   6.155
 8895POPC   GL243574   7.430  29.754   6.155
 8895POPC   C1A43575   7.470  29.878   6.455
 8895POPC   D2A43576   7.416  29.922   6.755
 8895POPC   C3A43577   7.422  29.900   7.055
 8895POPC   C4A43578   7.420  29.936   7.355
 8895POPC   C1B43579   7.468  29.668   6.455
 8895POPC   C2B43580   7.407  29.653   6.755
 8895POPC   C3B43581   7.469  29.691   7.055
 8895POPC   C4B43582   7.397  29.634   7.355
 8896POPC   NC343583   2.000  33.811   5.555
 8896POPC   PO443584   1.991  33.760   5.855
 8896POPC   GL143585   1.975  33.794   6.155
 8896POPC   GL243586   1.850  33.743   6.155
 8896POPC   C1A43587   1.941  33.848   6.455
 8896POPC   D2A43588   1.955  33.772   6.755
 8896POPC   C3A43589   1.951  33.786   7.055
 8896POPC   C4A43590   2.029  33.804   7.355
 8896POPC   C1B43591   1.738  33.677   6.455
 8896POPC   C2B43592   1.738  33.738   6.755
 8896POPC   C3B43593   1.789  33.760   7.055
 8896POPC   C4B43594   1.762  33.755   7.355
 8897POPC   NC343595  28.399   7.395   5.555
 8897POPC   PO443596  28.360   7.425   5.855
 8897POPC   GL143597  28.343   7.467   6.155
 8897POPC   GL243598  28.360   7.589   6.155
 8897POPC   C1A43599  28.337   7.421   6.455
 8897POPC   D2A43600  28.382   7.420   6.755
 8897POPC   C3A43601  28.351   7.416   7.055
 8897POPC   C4A43602  28.350   7.381   7.355
 8897POPC   C1B43603  28.424   7.653   6.455
 8897POPC   C2B43604  28.336   7.642   6.755
 8897POPC   C3B43605  28.388   7.679   7.055
 8897POPC   C4B43606  28.364   7.622   7.355
 8898POPC   NC343607  35.313  15.911   5.555
 8898POPC   PO443608  35.358  15.922   5.855
 8898POPC   GL143609  35.343  15.925   6.155
 8898POPC   GL243610  35.285  16.070   6.155
 8898POPC   C1A43611  35.325  15.999   6.455
 8898POPC   D2A43612  35.367  15.983   6.755
 8898POPC   C3A43613  35.340  15.937   7.055
 8898POPC   C4A43614  35.327  15.984   7.355
 8898POPC   C1B43615  35.201  16.169   6.455
 8898POPC   C2B43616  35.219  16.131   6.755
 8898POPC   C3B43617  35.180  16.150   7.055
 8898POPC   C4B43618  35.188  16.089   7.355
 8899POPC   NC343619   8.963  44.680   5.555
 8899POPC   PO443620   8.947  44.674   5.855
 8899POPC   GL143621   8.928  44.622   6.155
 8899POPC   GL243622   9.103  44.752   6.155
 8899POPC   C1A43623   8.926  44.659   6.455
 8899POPC   D2A43624   9.018  44.679   6.755
 8899POPC   C3A43625   9.004  44.673   7.055
 8899POPC   C4A43626   8.957  44.639   7.355
 8899POPC   C1B43627   9.155  44.837   6.455
 8899POPC   C2B43628   9.171  44.831   6.755
 8899POPC   C3B43629   9.210  44.774   7.055
 8899POPC   C4B43630   9.192  44.814   7.355
 8900POPC   NC343631   5.912   2.808   5.555
 8900POPC   PO443632   5.828   2.769   5.855
 8900POPC   GL143633   5.890   2.782   6.155
 8900POPC   GL243634   5.746   2.632   6.155
 8900POPC   C1A43635   5.903   2.814   6.455
 8900POPC   D2A43636   5.900   2.793   6.755
 8900POPC   C3A43637   5.872   2.741   7.055
 8900POPC   C4A43638   5.869   2.734   7.355
 8900POPC   C1B43639   5.760   2.602   6.455
 8900POPC   C2B43640   5.762   2.571   6.755
 8900POPC   C3B43641   5.770   2.520   7.055
 8900POPC   C4B43642   5.723   2.590   7.355
 8901POPC   NC343643   8.940  33.820   5.555
 8901POPC   PO443644   8.986  33.753   5.855
 8901POPC   GL143645   8.952  33.808   6.155
 8901POPC   GL243646   8.910  33.876   6.155
 8901POPC   C1A43647   8.974  33.840   6.455
 8901POPC   D2A43648   8.991  33.795   6.755
 8901POPC   C3A43649   8.935  33.830   7.055
 8901POPC   C4A43650   8.978  33.843   7.355
 8901POPC   C1B43651   8.772  33.962   6.455
 8901POPC   C2B43652   8.767  33.962   6.755
 8901POPC   C3B43653   8.758  33.978   7.055
 8901POPC   C4B43654   8.798  33.940   7.355
 8902POPC   NC343655  12.890  41.531   5.555
 8902POPC   PO443656  12.813  41.529   5.855
 8902POPC   GL143657  12.900  41.590   6.155
 8902POPC   GL243658  12.787  41.523   6.155
 8902POPC   C1A43659  12.828  41.520   6.455
 8902POPC   D2A43660  12.889  41.559   6.755
 8902POPC   C3A43661  12.893  41.572   7.055
 8902POPC   C4A43662  12.812  41.520   7.355
 8902POPC   C1B43663  12.654  41.411   6.455
 8902POPC   C2B43664  12.664  41.454   6.755
 8902POPC   C3B43665  12.660  41.422   7.055
 8902POPC   C4B43666  12.593  41.466   7.355
 8903POPC   NC343667   0.399  37.644   5.555
 8903POPC   PO443668   0.406  37.677   5.855
 8903POPC   GL143669   0.407  37.718   6.155
 8903POPC   GL243670   0.485  37.756   6.155
 8903POPC   C1A43671   0.485  37.726   6.455
 8903POPC   D2A43672   0.411  37.661   6.755
 8903POPC   C3A43673   0.401  37.669   7.055
 8903POPC   C4A43674   0.393  37.724   7.355
 8903POPC   C1B43675   0.616  37.851   6.455
 8903POPC   C2B43676   0.630  37.862   6.755
 8903POPC   C3B43677   0.635  37.907   7.055
 8903POPC   C4B43678   0.638  37.905   7.355
 8904POPC   NC343679  16.716  27.565   5.555
 8904POPC   PO443680  16.702  27.588   5.855
 8904POPC   GL143681  16.739  27.578   6.155
 8904POPC   GL243682  16.711  27.455   6.155
 8904POPC   C1A43683  16.744  27.623   6.455
 8904POPC   D2A43684  16.748  27.620   6.755
 8904POPC   C3A43685  16.692  27.566   7.055
 8904POPC   C4A43686  16.686  27.621   7.355
 8904POPC   C1B43687  16.731  27.308   6.455
 8904POPC   C2B43688  16.701  27.383   6.755
 8904POPC   C3B43689  16.678  27.385   7.055
 8904POPC   C4B43690  16.659  27.321   7.355
 8905POPC   NC343691  36.139  25.284   5.555
 8905POPC   PO443692  36.158  25.262   5.855
 8905POPC   GL143693  36.122  25.248   6.155
 8905POPC   GL243694  36.162  25.116   6.155
 8905POPC   C1A43695  36.167  25.253   6.455
 8905POPC   D2A43696  36.177  25.256   6.755
 8905POPC   C3A43697  36.127  25.302   7.055
 8905POPC   C4A43698  36.132  25.217   7.355
 8905POPC   C1B43699  36.233  25.051   6.455
 8905POPC   C2B43700  36.210  25.002   6.755
 8905POPC   C3B43701  36.228  25.027   7.055
 8905POPC   C4B43702  36.175  25.072   7.355
 8906POPC   NC343703  22.942  19.847   5.555
 8906POPC   PO443704  22.911  19.791   5.855
 8906POPC   GL143705  22.938  19.793   6.155
 8906POPC   GL243706  23.021  19.723   6.155
 8906POPC   C1A43707  22.953  19.839   6.455
 8906POPC   D2A43708  22.937  19.837   6.755
 8906POPC   C3A43709  22.927  19.824   7.055
 8906POPC   C4A43710  22.956  19.816   7.355
 8906POPC   C1B43711  23.042  19.588   6.455
 8906POPC   C2B43712  23.083  19.591   6.755
 8906POPC   C3B43713  23.012  19.624   7.055
 8906POPC   C4B43714  23.055  19.600   7.355
 8907POPC   NC343715  19.826  29.095   5.555
 8907POPC   PO443716  19.883  29.182   5.855
 8907POPC   GL143717  19.809  29.153   6.155
 8907POPC   GL243718  19.970  29.199   6.155
 8907POPC   C1A43719  19.871  29.180   6.455
 8907POPC   D2A43720  19.826  29.164   6.755
 8907POPC   C3A43721  19.805  29.097   7.055
 8907POPC   C4A43722  19.849  29.101   7.355
 8907POPC   C1B43723  20.069  29.270   6.455
 8907POPC   C2B43724  20.059  29.253   6.755
 8907POPC   C3B43725  20.015  29.230   7.055
 8907POPC   C4B43726  20.080  29.285   7.355
 8908POPC   NC343727  27.556  19.856   5.555
 8908POPC   PO443728  27.627  19.801   5.855
 8908POPC   GL143729  27.558  19.851   6.155
 8908POPC   GL243730  27.547  19.662   6.155
 8908POPC   C1A43731  27.594  19.790   6.455
 8908POPC   D2A43732  27.595  19.879   6.755
 8908POPC   C3A43733  27.637  19.830   7.055
 8908POPC   C4A43734  27.616  19.798   7.355
 8908POPC   C1B43735  27.563  19.588   6.455
 8908POPC   C2B43736  27.556  19.573   6.755
 8908POPC   C3B43737  27.600  19.542   7.055
 8908POPC   C4B43738  27.586  19.552   7.355
 8909POPC   NC343739  10.484  19.812   5.555
 8909POPC   PO443740  10.502  19.853   5.855
 8909POPC   GL143741  10.554  19.835   6.155
 8909POPC   GL243742  10.636  19.810   6.155
 8909POPC   C1A43743  10.518  19.834   6.455
 8909POPC   D2A43744  10.490  19.882   6.755
 8909POPC   C3A43745  10.486  19.825   7.055
 8909POPC   C4A43746  10.558  19.858   7.355
 8909POPC   C1B43747  10.811  19.814   6.455
 8909POPC   C2B43748  10.736  19.781   6.755
 8909POPC   C3B43749  10.723  19.747   7.055
 8909POPC   C4B43750  10.795  19.733   7.355
 8910POPC   NC343751  31.472  11.251   5.555
 8910POPC   PO443752  31.430  11.277   5.855
 8910POPC   GL143753  31.488  11.305   6.155
 8910POPC   GL243754  31.544  11.422   6.155
 8910POPC   C1A43755  31.447  11.327   6.455
 8910POPC   D2A43756  31.443  11.319   6.755
 8910POPC   C3A43757  31.497  11.252   7.055
 8910POPC   C4A43758  31.463  11.265   7.355
 8910POPC   C1B43759  31.649  11.509   6.455
 8910POPC   C2B43760  31.613  11.494   6.755
 8910POPC   C3B43761  31.604  11.478   7.055
 8910POPC   C4B43762  31.637  11.440   7.355
 8911POPC   NC343763  29.186  22.153   5.555
 8911POPC   PO443764  29.144  22.138   5.855
 8911POPC   GL143765  29.161  22.206   6.155
 8911POPC   GL243766  29.096  22.332   6.155
 8911POPC   C1A43767  29.164  22.159   6.455
 8911POPC   D2A43768  29.162  22.126   6.755
 8911POPC   C3A43769  29.139  22.112   7.055
 8911POPC   C4A43770  29.144  22.131   7.355
 8911POPC   C1B43771  29.163  22.420   6.455
 8911POPC   C2B43772  29.156  22.454   6.755
 8911POPC   C3B43773  29.111  22.376   7.055
 8911POPC   C4B43774  29.148  22.392   7.355
 8912POPC   NC343775  27.581  34.608   5.555
 8912POPC   PO443776  27.633  34.573   5.855
 8912POPC   GL143777  27.557  34.602   6.155
 8912POPC   GL243778  27.558  34.676   6.155
 8912POPC   C1A43779  27.642  34.587   6.455
 8912POPC   D2A43780  27.594  34.539   6.755
 8912POPC   C3A43781  27.561  34.574   7.055
 8912POPC   C4A43782  27.642  34.541   7.355
 8912POPC   C1B43783  27.620  34.779   6.455
 8912POPC   C2B43784  27.536  34.838   6.755
 8912POPC   C3B43785  27.570  34.857   7.055
 8912POPC   C4B43786  27.625  34.832   7.355
 8913POPC   NC343787  10.572  39.969   5.555
 8913POPC   PO443788  10.483  39.961   5.855
 8913POPC   GL143789  10.508  39.972   6.155
 8913POPC   GL243790  10.392  39.989   6.155
 8913POPC   C1A43791  10.545  40.050   6.455
 8913POPC   D2A43792  10.552  40.049   6.755
 8913POPC   C3A43793  10.564  40.055   7.055
 8913POPC   C4A43794  10.520  39.977   7.355
 8913POPC   C1B43795  10.292  40.023   6.455
 8913POPC   C2B43796  10.269  40.046   6.755
 8913POPC   C3B43797  10.295  39.993   7.055
 8913POPC   C4B43798  10.321  40.058   7.355
 8914POPC   NC343799  13.666  11.300   5.555
 8914POPC   PO443800  13.625  11.280   5.855
 8914POPC   GL143801  13.590  11.327   6.155
 8914POPC   GL243802  13.720  11.388   6.155
 8914POPC   C1A43803  13.646  11.347   6.455
 8914POPC   D2A43804  13.619  11.279   6.755
 8914POPC   C3A43805  13.646  11.301   7.055
 8914POPC   C4A43806  13.615  11.324   7.355
 8914POPC   C1B43807  13.847  11.425   6.455
 8914POPC   C2B43808  13.811  11.439   6.755
 8914POPC   C3B43809  13.856  11.457   7.055
 8914POPC   C4B43810  13.858  11.477   7.355
 8915POPC   NC343811  16.685  37.632   5.555
 8915POPC   PO443812  16.755  37.708   5.855
 8915POPC   GL143813  16.723  37.687   6.155
 8915POPC   GL243814  16.663  37.566   6.155
 8915POPC   C1A43815  16.688  37.676   6.455
 8915POPC   D2A43816  16.689  37.643   6.755
 8915POPC   C3A43817  16.685  37.712   7.055
 8915POPC   C4A43818  16.749  37.666   7.355
 8915POPC   C1B43819  16.516  37.559   6.455
 8915POPC   C2B43820  16.488  37.511   6.755
 8915POPC   C3B43821  16.495  37.561   7.055
 8915POPC   C4B43822  16.468  37.546   7.355
 8916POPC   NC343823  26.038  12.847   5.555
 8916POPC   PO443824  26.026  12.867   5.855
 8916POPC   GL143825  26.083  12.841   6.155
 8916POPC   GL243826  26.023  12.778   6.155
 8916POPC   C1A43827  26.084  12.844   6.455
 8916POPC   D2A43828  26.050  12.899   6.755
 8916POPC   C3A43829  26.062  12.865   7.055
 8916POPC   C4A43830  26.070  12.894   7.355
 8916POPC   C1B43831  25.947  12.601   6.455
 8916POPC   C2B43832  25.924  12.612   6.755
 8916POPC   C3B43833  25.921  12.607   7.055
 8916POPC   C4B43834  25.899  12.641   7.355
 8917POPC   NC343835  18.329  10.543   5.555
 8917POPC   PO443836  18.300  10.491   5.855
 8917POPC   GL143837  18.294  10.492   6.155
 8917POPC   GL243838  18.390  10.611   6.155
 8917POPC   C1A43839  18.242  10.536   6.455
 8917POPC   D2A43840  18.269  10.508   6.755
 8917POPC   C3A43841  18.281  10.528   7.055
 8917POPC   C4A43842  18.268  10.535   7.355
 8917POPC   C1B43843  18.564  10.644   6.455
 8917POPC   C2B43844  18.531  10.559   6.755
 8917POPC   C3B43845  18.555  10.645   7.055
 8917POPC   C4B43846  18.507  10.631   7.355
 8918POPC   NC343847  21.367  12.051   5.555
 8918POPC   PO443848  21.349  12.065   5.855
 8918POPC   GL143849  21.422  12.102   6.155
 8918POPC   GL243850  21.497  12.184   6.155
 8918POPC   C1A43851  21.404  12.036   6.455
 8918POPC   D2A43852  21.346  12.060   6.755
 8918POPC   C3A43853  21.415  12.086   7.055
 8918POPC   C4A43854  21.394  12.072   7.355
 8918POPC   C1B43855  21.640  12.201   6.455
 8918POPC   C2B43856  21.569  12.207   6.755
 8918POPC   C3B43857  21.648  12.220   7.055
 8918POPC   C4B43858  21.631  12.226   7.355
 8919POPC   NC343859  38.468   8.925   5.555
 8919POPC   PO443860  38.453   9.010   5.855
 8919POPC   GL143861  38.486   8.981   6.155
 8919POPC   GL243862  38.359   8.976   6.155
 8919POPC   C1A43863  38.489   9.012   6.455
 8919POPC   D2A43864  38.499   8.963   6.755
 8919POPC   C3A43865  38.502   8.985   7.055
 8919POPC   C4A43866  38.411   9.012   7.355
 8919POPC   C1B43867  38.169   8.915   6.455
 8919POPC   C2B43868  38.207   8.932   6.755
 8919POPC   C3B43869  38.242   8.960   7.055
 8919POPC   C4B43870  38.233   8.877   7.355
 8920POPC   NC343871  26.028  32.979   5.555
 8920POPC   PO443872  26.066  33.046   5.855
 8920POPC   GL143873  26.044  33.031   6.155
 8920POPC   GL243874  26.113  32.949   6.155
 8920POPC   C1A43875  26.020  33.012   6.455
 8920POPC   D2A43876  26.028  33.036   6.755
 8920POPC   C3A43877  26.075  33.050   7.055
 8920POPC   C4A43878  26.035  33.066   7.355
 8920POPC   C1B43879  26.161  32.829   6.455
 8920POPC   C2B43880  26.241  32.807   6.755
 8920POPC   C3B43881  26.198  32.780   7.055
 8920POPC   C4B43882  26.174  32.823   7.355
 8921POPC   NC343883  19.858   1.229   5.555
 8921POPC   PO443884  19.876   1.176   5.855
 8921POPC   GL143885  19.838   1.229   6.155
 8921POPC   GL243886  19.985   1.135   6.155
 8921POPC   C1A43887  19.853   1.204   6.455
 8921POPC   D2A43888  19.787   1.190   6.755
 8921POPC   C3A43889  19.847   1.172   7.055
 8921POPC   C4A43890  19.835   1.173   7.355
 8921POPC   C1B43891  20.018   1.116   6.455
 8921POPC   C2B43892  20.062   1.159   6.755
 8921POPC   C3B43893  20.049   1.113   7.055
 8921POPC   C4B43894  20.019   1.108   7.355
 8922POPC   NC343895   5.919   5.057   5.555
 8922POPC   PO443896   5.846   5.049   5.855
 8922POPC   GL143897   5.828   5.061   6.155
 8922POPC   GL243898   5.865   5.246   6.155
 8922POPC   C1A43899   5.888   5.098   6.455
 8922POPC   D2A43900   5.828   5.136   6.755
 8922POPC   C3A43901   5.832   5.124   7.055
 8922POPC   C4A43902   5.836   5.131   7.355
 8922POPC   C1B43903   5.887   5.293   6.455
 8922POPC   C2B43904   5.865   5.342   6.755
 8922POPC   C3B43905   5.838   5.340   7.055
 8922POPC   C4B43906   5.823   5.354   7.355
 8923POPC   NC343907  29.113  33.025   5.555
 8923POPC   PO443908  29.151  33.062   5.855
 8923POPC   GL143909  29.184  33.014   6.155
 8923POPC   GL243910  29.033  33.036   6.155
 8923POPC   C1A43911  29.145  33.001   6.455
 8923POPC   D2A43912  29.164  32.979   6.755
 8923POPC   C3A43913  29.187  32.979   7.055
 8923POPC   C4A43914  29.120  33.027   7.355
 8923POPC   C1B43915  28.922  33.044   6.455
 8923POPC   C2B43916  28.885  33.022   6.755
 8923POPC   C3B43917  28.884  32.999   7.055
 8923POPC   C4B43918  28.907  32.961   7.355
 8924POPC   NC343919  37.669  28.394   5.555
 8924POPC   PO443920  37.676  28.367   5.855
 8924POPC   GL143921  37.653  28.352   6.155
 8924POPC   GL243922  37.622  28.218   6.155
 8924POPC   C1A43923  37.718  28.328   6.455
 8924POPC   D2A43924  37.675  28.415   6.755
 8924POPC   C3A43925  37.665  28.414   7.055
 8924POPC   C4A43926  37.681  28.379   7.355
 8924POPC   C1B43927  37.632  28.117   6.455
 8924POPC   C2B43928  37.646  28.174   6.755
 8924POPC   C3B43929  37.590  28.080   7.055
 8924POPC   C4B43930  37.615  28.146   7.355
 8925POPC   NC343931  35.386  43.843   5.555
 8925POPC   PO443932  35.362  43.845   5.855
 8925POPC   GL143933  35.392  43.841   6.155
 8925POPC   GL243934  35.436  43.834   6.155
 8925POPC   C1A43935  35.307  43.874   6.455
 8925POPC   D2A43936  35.338  43.848   6.755
 8925POPC   C3A43937  35.372  43.851   7.055
 8925POPC   C4A43938  35.309  43.843   7.355
 8925POPC   C1B43939  35.534  43.730   6.455
 8925POPC   C2B43940  35.509  43.655   6.755
 8925POPC   C3B43941  35.556  43.661   7.055
 8925POPC   C4B43942  35.511  43.657   7.355
 8926POPC   NC343943  40.004  16.729   5.555
 8926POPC   PO443944  39.969  16.777   5.855
 8926POPC   GL143945  40.039  16.706   6.155
 8926POPC   GL243946  39.947  16.644   6.155
 8926POPC   C1A43947  40.006  16.683   6.455
 8926POPC   D2A43948  40.014  16.733   6.755
 8926POPC   C3A43949  39.985  16.703   7.055
 8926POPC   C4A43950  39.975  16.709   7.355
 8926POPC   C1B43951  39.983  16.458   6.455
 8926POPC   C2B43952  39.951  16.531   6.755
 8926POPC   C3B43953  39.974  16.442   7.055
 8926POPC   C4B43954  39.989  16.442   7.355
 8927POPC   NC343955  29.121  40.738   5.555
 8927POPC   PO443956  29.193  40.761   5.855
 8927POPC   GL143957  29.155  40.791   6.155
 8927POPC   GL243958  29.110  40.623   6.155
 8927POPC   C1A43959  29.193  40.740   6.455
 8927POPC   D2A43960  29.161  40.759   6.755
 8927POPC   C3A43961  29.171  40.822   7.055
 8927POPC   C4A43962  29.147  40.821   7.355
 8927POPC   C1B43963  29.067  40.512   6.455
 8927POPC   C2B43964  29.143  40.544   6.755
 8927POPC   C3B43965  29.099  40.507   7.055
 8927POPC   C4B43966  29.052  40.519   7.355
 8928POPC   NC343967  19.882  34.608   5.555
 8928POPC   PO443968  19.802  34.586   5.855
 8928POPC   GL143969  19.863  34.581   6.155
 8928POPC   GL243970  19.781  34.718   6.155
 8928POPC   C1A43971  19.883  34.620   6.455
 8928POPC   D2A43972  19.821  34.587   6.755
 8928POPC   C3A43973  19.790  34.583   7.055
 8928POPC   C4A43974  19.852  34.544   7.355
 8928POPC   C1B43975  19.808  34.788   6.455
 8928POPC   C2B43976  19.782  34.829   6.755
 8928POPC   C3B43977  19.815  34.850   7.055
 8928POPC   C4B43978  19.854  34.824   7.355
 8929POPC   NC343979  34.558  25.260   5.555
 8929POPC   PO443980  34.545  25.264   5.855
 8929POPC   GL143981  34.594  25.220   6.155
 8929POPC   GL243982  34.677  25.163   6.155
 8929POPC   C1A43983  34.555  25.226   6.455
 8929POPC   D2A43984  34.553  25.222   6.755
 8929POPC   C3A43985  34.571  25.306   7.055
 8929POPC   C4A43986  34.621  25.303   7.355
 8929POPC   C1B43987  34.752  25.139   6.455
 8929POPC   C2B43988  34.753  25.151   6.755
 8929POPC   C3B43989  34.746  25.121   7.055
 8929POPC   C4B43990  34.838  25.162   7.355
 8930POPC   NC343991  26.039   5.904   5.555
 8930POPC   PO443992  26.033   5.869   5.855
 8930POPC   GL143993  26.080   5.909   6.155
 8930POPC   GL243994  26.006   5.708   6.155
 8930POPC   C1A43995  26.058   5.831   6.455
 8930POPC   D2A43996  26.058   5.862   6.755
 8930POPC   C3A43997  26.050   5.910   7.055
 8930POPC   C4A43998  26.011   5.906   7.355
 8930POPC   C1B43999  26.004   5.587   6.455
 8930POPC   C2B44000  25.988   5.632   6.755
 8930POPC   C3B44001  25.977   5.629   7.055
 8930POPC   C4B44002  25.966   5.628   7.355
 8931POPC   NC344003  26.039  13.602   5.555
 8931POPC   PO444004  25.994  13.646   5.855
 8931POPC   GL144005  26.028  13.591   6.155
 8931POPC   GL244006  26.174  13.575   6.155
 8931POPC   C1A44007  26.048  13.579   6.455
 8931POPC   D2A44008  26.082  13.585   6.755
 8931POPC   C3A44009  26.077  13.637   7.055
 8931POPC   C4A44010  26.026  13.640   7.355
 8931POPC   C1B44011  26.281  13.531   6.455
 8931POPC   C2B44012  26.269  13.568   6.755
 8931POPC   C3B44013  26.293  13.530   7.055
 8931POPC   C4B44014  26.256  13.571   7.355
 8932POPC   NC344015  25.224   7.380   5.555
 8932POPC   PO444016  25.294   7.426   5.855
 8932POPC   GL144017  25.232   7.402   6.155
 8932POPC   GL244018  25.292   7.569   6.155
 8932POPC   C1A44019  25.218   7.390   6.455
 8932POPC   D2A44020  25.269   7.448   6.755
 8932POPC   C3A44021  25.299   7.380   7.055
 8932POPC   C4A44022  25.278   7.419   7.355
 8932POPC   C1B44023  25.391   7.583   6.455
 8932POPC   C2B44024  25.444   7.656   6.755
 8932POPC   C3B44025  25.405   7.634   7.055
 8932POPC   C4B44026  25.444   7.586   7.355
 8933POPC   NC344027  31.512  22.138   5.555
 8933POPC   PO444028  31.446  22.184   5.855
 8933POPC   GL144029  31.500  22.190   6.155
 8933POPC   GL244030  31.593  22.152   6.155
 8933POPC   C1A44031  31.436  22.185   6.455
 8933POPC   D2A44032  31.509  22.210   6.755
 8933POPC   C3A44033  31.441  22.202   7.055
 8933POPC   C4A44034  31.431  22.191   7.355
 8933POPC   C1B44035  31.661  22.050   6.455
 8933POPC   C2B44036  31.689  22.054   6.755
 8933POPC   C3B44037  31.682  22.058   7.055
 8933POPC   C4B44038  31.675  22.103   7.355
 8934POPC   NC344039  40.831  44.657   5.555
 8934POPC   PO444040  40.770  44.623   5.855
 8934POPC   GL144041  40.825  44.684   6.155
 8934POPC   GL244042  40.793  44.589   6.155
 8934POPC   C1A44043  40.780  44.613   6.455
 8934POPC   D2A44044  40.807  44.693   6.755
 8934POPC   C3A44045  40.736  44.671   7.055
 8934POPC   C4A44046  40.734  44.622   7.355
 8934POPC   C1B44047  40.717  44.435   6.455
 8934POPC   C2B44048  40.679  44.436   6.755
 8934POPC   C3B44049  40.727  44.456   7.055
 8934POPC   C4B44050  40.672  44.407   7.355
 8935POPC   NC344051   9.008  33.069   5.555
 8935POPC   PO444052   8.990  33.045   5.855
 8935POPC   GL144053   8.979  32.983   6.155
 8935POPC   GL244054   8.965  32.875   6.155
 8935POPC   C1A44055   8.962  33.004   6.455
 8935POPC   D2A44056   8.937  32.994   6.755
 8935POPC   C3A44057   8.923  33.037   7.055
 8935POPC   C4A44058   8.993  33.013   7.355
 8935POPC   C1B44059   8.889  32.765   6.455
 8935POPC   C2B44060   8.927  32.811   6.755
 8935POPC   C3B44061   8.941  32.735   7.055
 8935POPC   C4B44062   8.895  32.802   7.355
 8936POPC   NC344063   5.096   8.246   5.555
 8936POPC   PO444064   5.064   8.203   5.855
 8936POPC   GL144065   5.073   8.214   6.155
 8936POPC   GL244066   5.148   8.088   6.155
 8936POPC   C1A44067   5.086   8.231   6.455
 8936POPC   D2A44068   5.115   8.196   6.755
 8936POPC   C3A44069   5.055   8.184   7.055
 8936POPC   C4A44070   5.107   8.227   7.355
 8936POPC   C1B44071   5.144   7.947   6.455
 8936POPC   C2B44072   5.117   7.962   6.755
 8936POPC   C3B44073   5.167   7.977   7.055
 8936POPC   C4B44074   5.177   7.917   7.355
 8937POPC   NC344075  17.522  26.027   5.555
 8937POPC   PO444076  17.557  26.022   5.855
 8937POPC   GL144077  17.533  26.017   6.155
 8937POPC   GL244078  17.497  26.115   6.155
 8937POPC   C1A44079  17.557  26.004   6.455
 8937POPC   D2A44080  17.478  26.020   6.755
 8937POPC   C3A44081  17.537  26.046   7.055
 8937POPC   C4A44082  17.543  26.077   7.355
 8937POPC   C1B44083  17.473  26.277   6.455
 8937POPC   C2B44084  17.417  26.332   6.755
 8937POPC   C3B44085  17.394  26.330   7.055
 8937POPC   C4B44086  17.402  26.253   7.355
 8938POPC   NC344087  37.725   9.757   5.555
 8938POPC   PO444088  37.695   9.728   5.855
 8938POPC   GL144089  37.718   9.788   6.155
 8938POPC   GL244090  37.832   9.735   6.155
 8938POPC   C1A44091  37.658   9.740   6.455
 8938POPC   D2A44092  37.641   9.720   6.755
 8938POPC   C3A44093  37.646   9.718   7.055
 8938POPC   C4A44094  37.653   9.735   7.355
 8938POPC   C1B44095  37.884   9.648   6.455
 8938POPC   C2B44096  37.912   9.682   6.755
 8938POPC   C3B44097  37.874   9.588   7.055
 8938POPC   C4B44098  37.871   9.618   7.355
 8939POPC   NC344099  15.957  44.681   5.555
 8939POPC   PO444100  15.993  44.708   5.855
 8939POPC   GL144101  15.982  44.665   6.155
 8939POPC   GL244102  15.902  44.549   6.155
 8939POPC   C1A44103  15.917  44.618   6.455
 8939POPC   D2A44104  15.961  44.623   6.755
 8939POPC   C3A44105  15.993  44.673   7.055
 8939POPC   C4A44106  15.970  44.698   7.355
 8939POPC   C1B44107  15.832  44.437   6.455
 8939POPC   C2B44108  15.875  44.443   6.755
 8939POPC   C3B44109  15.903  44.396   7.055
 8939POPC   C4B44110  15.883  44.481   7.355
 8940POPC   NC344111  30.713   7.449   5.555
 8940POPC   PO444112  30.709   7.379   5.855
 8940POPC   GL144113  30.716   7.388   6.155
 8940POPC   GL244114  30.736   7.289   6.155
 8940POPC   C1A44115  30.650   7.447   6.455
 8940POPC   D2A44116  30.689   7.371   6.755
 8940POPC   C3A44117  30.679   7.428   7.055
 8940POPC   C4A44118  30.744   7.447   7.355
 8940POPC   C1B44119  30.695   7.186   6.455
 8940POPC   C2B44120  30.752   7.181   6.755
 8940POPC   C3B44121  30.741   7.218   7.055
 8940POPC   C4B44122  30.724   7.125   7.355
 8941POPC   NC344123  24.496  22.930   5.555
 8941POPC   PO444124  24.537  22.955   5.855
 8941POPC   GL144125  24.460  22.940   6.155
 8941POPC   GL244126  24.562  23.031   6.155
 8941POPC   C1A44127  24.509  22.912   6.455
 8941POPC   D2A44128  24.538  22.975   6.755
 8941POPC   C3A44129  24.493  22.924   7.055
 8941POPC   C4A44130  24.440  22.961   7.355
 8941POPC   C1B44131  24.682  23.079   6.455
 8941POPC   C2B44132  24.626  23.093   6.755
 8941POPC   C3B44133  24.674  23.076   7.055
 8941POPC   C4B44134  24.689  23.102   7.355
 8942POPC   NC344135  41.552  10.544   5.555
 8942POPC   PO444136  41.511  10.547   5.855
 8942POPC   GL144137  41.528  10.543   6.155
 8942POPC   GL244138  41.477  10.437   6.155
 8942POPC   C1A44139  41.577  10.565   6.455
 8942POPC   D2A44140  41.567  10.550   6.755
 8942POPC   C3A44141  41.598  10.480   7.055
 8942POPC   C4A44142  41.604  10.528   7.355
 8942POPC   C1B44143  41.500  10.331   6.455
 8942POPC   C2B44144  41.485  10.292   6.755
 8942POPC   C3B44145  41.474  10.269   7.055
 8942POPC   C4B44146  41.467  10.295   7.355
 8943POPC   NC344147  35.373  42.356   5.555
 8943POPC   PO444148  35.396  42.374   5.855
 8943POPC   GL144149  35.322  42.321   6.155
 8943POPC   GL244150  35.408  42.287   6.155
 8943POPC   C1A44151  35.401  42.314   6.455
 8943POPC   D2A44152  35.357  42.313   6.755
 8943POPC   C3A44153  35.362  42.291   7.055
 8943POPC   C4A44154  35.365  42.320   7.355
 8943POPC   C1B44155  35.543  42.203   6.455
 8943POPC   C2B44156  35.527  42.177   6.755
 8943POPC   C3B44157  35.584  42.181   7.055
 8943POPC   C4B44158  35.562  42.183   7.355
 8944POPC   NC344159  43.087  38.422   5.555
 8944POPC   PO444160  43.062  38.441   5.855
 8944POPC   GL144161  43.114  38.440   6.155
 8944POPC   GL244162  43.273  38.430   6.155
 8944POPC   C1A44163  43.121  38.407   6.455
 8944POPC   D2A44164  43.086  38.460   6.755
 8944POPC   C3A44165  43.089  38.454   7.055
 8944POPC   C4A44166  43.073  38.431   7.355
 8944POPC   C1B44167  43.332  38.465   6.455
 8944POPC   C2B44168  43.310  38.495   6.755
 8944POPC   C3B44169  43.402  38.460   7.055
 8944POPC   C4B44170  43.327  38.453   7.355
 8945POPC   NC344171  30.720  19.837   5.555
 8945POPC   PO444172  30.661  19.841   5.855
 8945POPC   GL144173  30.696  19.879   6.155
 8945POPC   GL244174  30.856  19.773   6.155
 8945POPC   C1A44175  30.669  19.832   6.455
 8945POPC   D2A44176  30.662  19.884   6.755
 8945POPC   C3A44177  30.666  19.790   7.055
 8945POPC   C4A44178  30.674  19.865   7.355
 8945POPC   C1B44179  30.947  19.775   6.455
 8945POPC   C2B44180  30.938  19.799   6.755
 8945POPC   C3B44181  30.922  19.774   7.055
 8945POPC   C4B44182  30.901  19.772   7.355
 8946POPC   NC344183   9.791  17.470   5.555
 8946POPC   PO444184   9.699  17.495   5.855
 8946POPC   GL144185   9.702  17.483   6.155
 8946POPC   GL244186   9.781  17.583   6.155
 8946POPC   C1A44187   9.780  17.500   6.455
 8946POPC   D2A44188   9.773  17.522   6.755
 8946POPC   C3A44189   9.766  17.458   7.055
 8946POPC   C4A44190   9.709  17.526   7.355
 8946POPC   C1B44191   9.910  17.757   6.455
 8946POPC   C2B44192   9.887  17.673   6.755
 8946POPC   C3B44193   9.921  17.764   7.055
 8946POPC   C4B44194   9.895  17.752   7.355
 8947POPC   NC344195  21.432  37.709   5.555
 8947POPC   PO444196  21.351  37.725   5.855
 8947POPC   GL144197  21.434  37.686   6.155
 8947POPC   GL244198  21.391  37.756   6.155
 8947POPC   C1A44199  21.347  37.720   6.455
 8947POPC   D2A44200  21.375  37.657   6.755
 8947POPC   C3A44201  21.431  37.633   7.055
 8947POPC   C4A44202  21.358  37.635   7.355
 8947POPC   C1B44203  21.436  37.909   6.455
 8947POPC   C2B44204  21.405  37.887   6.755
 8947POPC   C3B44205  21.464  37.928   7.055
 8947POPC   C4B44206  21.480  37.957   7.355
 8948POPC   NC344207  13.609   9.750   5.555
 8948POPC   PO444208  13.601   9.708   5.855
 8948POPC   GL144209  13.654   9.760   6.155
 8948POPC   GL244210  13.595   9.852   6.155
 8948POPC   C1A44211  13.585   9.758   6.455
 8948POPC   D2A44212  13.645   9.718   6.755
 8948POPC   C3A44213  13.648   9.731   7.055
 8948POPC   C4A44214  13.621   9.753   7.355
 8948POPC   C1B44215  13.537   9.944   6.455
 8948POPC   C2B44216  13.549   9.944   6.755
 8948POPC   C3B44217  13.500   9.978   7.055
 8948POPC   C4B44218  13.561   9.932   7.355
 8949POPC   NC344219   8.978   1.216   5.555
 8949POPC   PO444220   8.933   1.226   5.855
 8949POPC   GL144221   8.935   1.179   6.155
 8949POPC   GL244222   9.073   1.284   6.155
 8949POPC   C1A44223   8.989   1.175   6.455
 8949POPC   D2A44224   9.000   1.208   6.755
 8949POPC   C3A44225   8.945   1.188   7.055
 8949POPC   C4A44226   8.937   1.235   7.355
 8949POPC   C1B44227   9.089   1.428   6.455
 8949POPC   C2B44228   9.121   1.446   6.755
 8949POPC   C3B44229   9.089   1.477   7.055
 8949POPC   C4B44230   9.060   1.410   7.355
 8950POPC   NC344231   6.684  31.516   5.555
 8950POPC   PO444232   6.651  31.469   5.855
 8950POPC   GL144233   6.650  31.439   6.155
 8950POPC   GL244234   6.784  31.380   6.155
 8950POPC   C1A44235   6.670  31.466   6.455
 8950POPC   D2A44236   6.689  31.479   6.755
 8950POPC   C3A44237   6.616  31.470   7.055
 8950POPC   C4A44238   6.642  31.517   7.355
 8950POPC   C1B44239   6.917  31.405   6.455
 8950POPC   C2B44240   6.913  31.342   6.755
 8950POPC   C3B44241   6.883  31.370   7.055
 8950POPC   C4B44242   6.858  31.419   7.355
 8951POPC   NC344243   6.695   3.519   5.555
 8951POPC   PO444244   6.624   3.533   5.855
 8951POPC   GL144245   6.638   3.535   6.155
 8951POPC   GL244246   6.751   3.503   6.155
 8951POPC   C1A44247   6.681   3.572   6.455
 8951POPC   D2A44248   6.663   3.544   6.755
 8951POPC   C3A44249   6.668   3.571   7.055
 8951POPC   C4A44250   6.633   3.552   7.355
 8951POPC   C1B44251   6.826   3.396   6.455
 8951POPC   C2B44252   6.877   3.400   6.755
 8951POPC   C3B44253   6.821   3.379   7.055
 8951POPC   C4B44254   6.855   3.454   7.355
 8952POPC   NC344255  17.480   5.070   5.555
 8952POPC   PO444256  17.471   5.047   5.855
 8952POPC   GL144257  17.505   5.074   6.155
 8952POPC   GL244258  17.656   5.038   6.155
 8952POPC   C1A44259  17.537   5.101   6.455
 8952POPC   D2A44260  17.548   5.067   6.755
 8952POPC   C3A44261  17.498   5.136   7.055
 8952POPC   C4A44262  17.498   5.118   7.355
 8952POPC   C1B44263  17.725   5.060   6.455
 8952POPC   C2B44264  17.797   5.048   6.755
 8952POPC   C3B44265  17.803   5.036   7.055
 8952POPC   C4B44266  17.801   5.080   7.355
 8953POPC   NC344267   1.168   4.300   5.555
 8953POPC   PO444268   1.183   4.320   5.855
 8953POPC   GL144269   1.208   4.295   6.155
 8953POPC   GL244270   1.054   4.355   6.155
 8953POPC   C1A44271   1.193   4.338   6.455
 8953POPC   D2A44272   1.191   4.272   6.755
 8953POPC   C3A44273   1.247   4.306   7.055
 8953POPC   C4A44274   1.233   4.313   7.355
 8953POPC   C1B44275   0.952   4.432   6.455
 8953POPC   C2B44276   1.005   4.438   6.755
 8953POPC   C3B44277   0.981   4.425   7.055
 8953POPC   C4B44278   0.929   4.414   7.355
 8954POPC   NC344279  15.225  39.965   5.555
 8954POPC   PO444280  15.216  40.013   5.855
 8954POPC   GL144281  15.132  40.054   6.155
 8954POPC   GL244282  15.203  39.908   6.155
 8954POPC   C1A44283  15.193  40.040   6.455
 8954POPC   D2A44284  15.192  40.028   6.755
 8954POPC   C3A44285  15.224  39.985   7.055
 8954POPC   C4A44286  15.137  40.026   7.355
 8954POPC   C1B44287  15.127  39.767   6.455
 8954POPC   C2B44288  15.146  39.737   6.755
 8954POPC   C3B44289  15.174  39.738   7.055
 8954POPC   C4B44290  15.105  39.755   7.355
 8955POPC   NC344291   9.009  36.105   5.555
 8955POPC   PO444292   8.954  36.143   5.855
 8955POPC   GL144293   9.017  36.099   6.155
 8955POPC   GL244294   8.809  36.106   6.155
 8955POPC   C1A44295   8.978  36.109   6.455
 8955POPC   D2A44296   8.978  36.148   6.755
 8955POPC   C3A44297   8.976  36.174   7.055
 8955POPC   C4A44298   8.974  36.141   7.355
 8955POPC   C1B44299   8.707  36.065   6.455
 8955POPC   C2B44300   8.718  36.099   6.755
 8955POPC   C3B44301   8.771  36.151   7.055
 8955POPC   C4B44302   8.746  36.111   7.355
 8956POPC   NC344303  36.883  34.559   5.555
 8956POPC   PO444304  36.940  34.557   5.855
 8956POPC   GL144305  36.858  34.562   6.155
 8956POPC   GL244306  36.983  34.524   6.155
 8956POPC   C1A44307  36.897  34.616   6.455
 8956POPC   D2A44308  36.945  34.582   6.755
 8956POPC   C3A44309  36.899  34.583   7.055
 8956POPC   C4A44310  36.898  34.576   7.355
 8956POPC   C1B44311  37.015  34.341   6.455
 8956POPC   C2B44312  37.091  34.381   6.755
 8956POPC   C3B44313  37.066  34.397   7.055
 8956POPC   C4B44314  37.013  34.423   7.355
 8957POPC   NC344315  15.174  29.929   5.555
 8957POPC   PO444316  15.156  29.897   5.855
 8957POPC   GL144317  15.207  29.900   6.155
 8957POPC   GL244318  15.063  29.867   6.155
 8957POPC   C1A44319  15.157  29.930   6.455
 8957POPC   D2A44320  15.146  29.964   6.755
 8957POPC   C3A44321  15.138  29.923   7.055
 8957POPC   C4A44322  15.165  29.963   7.355
 8957POPC   C1B44323  14.985  29.750   6.455
 8957POPC   C2B44324  15.015  29.814   6.755
 8957POPC   C3B44325  15.017  29.787   7.055
 8957POPC   C4B44326  14.966  29.757   7.355
 8958POPC   NC344327   4.291  15.979   5.555
 8958POPC   PO444328   4.344  15.922   5.855
 8958POPC   GL144329   4.276  15.972   6.155
 8958POPC   GL244330   4.281  15.786   6.155
 8958POPC   C1A44331   4.273  15.941   6.455
 8958POPC   D2A44332   4.309  16.001   6.755
 8958POPC   C3A44333   4.271  15.909   7.055
 8958POPC   C4A44334   4.327  15.997   7.355
 8958POPC   C1B44335   4.247  15.737   6.455
 8958POPC   C2B44336   4.298  15.723   6.755
 8958POPC   C3B44337   4.262  15.675   7.055
 8958POPC   C4B44338   4.313  15.740   7.355
 8959POPC   NC344339  25.306  14.405   5.555
 8959POPC   PO444340  25.286  14.431   5.855
 8959POPC   GL144341  25.271  14.397   6.155
 8959POPC   GL244342  25.122  14.439   6.155
 8959POPC   C1A44343  25.217  14.367   6.455
 8959POPC   D2A44344  25.218  14.450   6.755
 8959POPC   C3A44345  25.306  14.406   7.055
 8959POPC   C4A44346  25.263  14.363   7.355
 8959POPC   C1B44347  25.046  14.503   6.455
 8959POPC   C2B44348  25.059  14.496   6.755
 8959POPC   C3B44349  25.002  14.499   7.055
 8959POPC   C4B44350  25.053  14.456   7.355
 8960POPC   NC344351  20.566  42.342   5.555
 8960POPC   PO444352  20.590  42.316   5.855
 8960POPC   GL144353  20.587  42.314   6.155
 8960POPC   GL244354  20.628  42.259   6.155
 8960POPC   C1A44355  20.597  42.350   6.455
 8960POPC   D2A44356  20.642  42.315   6.755
 8960POPC   C3A44357  20.562  42.321   7.055
 8960POPC   C4A44358  20.563  42.377   7.355
 8960POPC   C1B44359  20.605  42.045   6.455
 8960POPC   C2B44360  20.588  42.107   6.755
 8960POPC   C3B44361  20.627  42.103   7.055
 8960POPC   C4B44362  20.540  42.088   7.355
 8961POPC   NC344363  15.949   8.931   5.555
 8961POPC   PO444364  15.978   8.949   5.855
 8961POPC   GL144365  15.954   8.990   6.155
 8961POPC   GL244366  15.866   8.861   6.155
 8961POPC   C1A44367  15.913   9.018   6.455
 8961POPC   D2A44368  15.958   8.972   6.755
 8961POPC   C3A44369  15.963   8.969   7.055
 8961POPC   C4A44370  15.967   8.940   7.355
 8961POPC   C1B44371  15.834   8.754   6.455
 8961POPC   C2B44372  15.826   8.748   6.755
 8961POPC   C3B44373  15.852   8.797   7.055
 8961POPC   C4B44374  15.786   8.781   7.355
 8962POPC   NC344375  38.448  11.288   5.555
 8962POPC   PO444376  38.491  11.336   5.855
 8962POPC   GL144377  38.492  11.299   6.155
 8962POPC   GL244378  38.526  11.389   6.155
 8962POPC   C1A44379  38.478  11.252   6.455
 8962POPC   D2A44380  38.437  11.253   6.755
 8962POPC   C3A44381  38.476  11.294   7.055
 8962POPC   C4A44382  38.409  11.305   7.355
 8962POPC   C1B44383  38.660  11.528   6.455
 8962POPC   C2B44384  38.599  11.445   6.755
 8962POPC   C3B44385  38.598  11.504   7.055
 8962POPC   C4B44386  38.583  11.453   7.355
 8963POPC   NC344387  26.065  23.733   5.555
 8963POPC   PO444388  25.993  23.762   5.855
 8963POPC   GL144389  26.036  23.687   6.155
 8963POPC   GL244390  25.971  23.790   6.155
 8963POPC   C1A44391  26.064  23.668   6.455
 8963POPC   D2A44392  26.053  23.726   6.755
 8963POPC   C3A44393  26.077  23.738   7.055
 8963POPC   C4A44394  26.006  23.738   7.355
 8963POPC   C1B44395  25.839  23.814   6.455
 8963POPC   C2B44396  25.845  23.769   6.755
 8963POPC   C3B44397  25.847  23.755   7.055
 8963POPC   C4B44398  25.827  23.796   7.355
 8964POPC   NC344399  38.477  43.073   5.555
 8964POPC   PO444400  38.414  43.156   5.855
 8964POPC   GL144401  38.470  43.147   6.155
 8964POPC   GL244402  38.303  43.115   6.155
 8964POPC   C1A44403  38.483  43.098   6.455
 8964POPC   D2A44404  38.462  43.113   6.755
 8964POPC   C3A44405  38.505  43.091   7.055
 8964POPC   C4A44406  38.499  43.108   7.355
 8964POPC   C1B44407  38.192  43.072   6.455
 8964POPC   C2B44408  38.158  43.080   6.755
 8964POPC   C3B44409  38.159  43.090   7.055
 8964POPC   C4B44410  38.247  43.088   7.355
 8965POPC   NC344411  33.809   6.619   5.555
 8965POPC   PO444412  33.822   6.680   5.855
 8965POPC   GL144413  33.779   6.695   6.155
 8965POPC   GL244414  33.751   6.746   6.155
 8965POPC   C1A44415  33.753   6.665   6.455
 8965POPC   D2A44416  33.800   6.597   6.755
 8965POPC   C3A44417  33.840   6.630   7.055
 8965POPC   C4A44418  33.792   6.595   7.355
 8965POPC   C1B44419  33.658   6.846   6.455
 8965POPC   C2B44420  33.675   6.874   6.755
 8965POPC   C3B44421  33.696   6.837   7.055
 8965POPC   C4B44422  33.688   6.891   7.355
 8966POPC   NC344423  28.358  30.703   5.555
 8966POPC   PO444424  28.411  30.654   5.855
 8966POPC   GL144425  28.373  30.655   6.155
 8966POPC   GL244426  28.410  30.542   6.155
 8966POPC   C1A44427  28.340  30.731   6.455
 8966POPC   D2A44428  28.397  30.733   6.755
 8966POPC   C3A44429  28.325  30.669   7.055
 8966POPC   C4A44430  28.338  30.670   7.355
 8966POPC   C1B44431  28.477  30.452   6.455
 8966POPC   C2B44432  28.509  30.431   6.755
 8966POPC   C3B44433  28.463  30.491   7.055
 8966POPC   C4B44434  28.526  30.449   7.355
 8967POPC   NC344435  37.644  26.078   5.555
 8967POPC   PO444436  37.646  26.068   5.855
 8967POPC   GL144437  37.651  26.072   6.155
 8967POPC   GL244438  37.655  26.163   6.155
 8967POPC   C1A44439  37.644  26.083   6.455
 8967POPC   D2A44440  37.641  26.051   6.755
 8967POPC   C3A44441  37.696  26.039   7.055
 8967POPC   C4A44442  37.640  26.014   7.355
 8967POPC   C1B44443  37.621  26.294   6.455
 8967POPC   C2B44444  37.528  26.281   6.755
 8967POPC   C3B44445  37.530  26.228   7.055
 8967POPC   C4B44446  37.617  26.218   7.355
 8968POPC   NC344447   8.933  35.391   5.555
 8968POPC   PO444448   8.924  35.388   5.855
 8968POPC   GL144449   8.953  35.376   6.155
 8968POPC   GL244450   8.985  35.505   6.155
 8968POPC   C1A44451   8.923  35.365   6.455
 8968POPC   D2A44452   8.993  35.378   6.755
 8968POPC   C3A44453   9.000  35.353   7.055
 8968POPC   C4A44454   8.931  35.394   7.355
 8968POPC   C1B44455   9.026  35.617   6.455
 8968POPC   C2B44456   9.000  35.565   6.755
 8968POPC   C3B44457   8.993  35.641   7.055
 8968POPC   C4B44458   9.010  35.602   7.355
 8969POPC   NC344459  14.411  43.894   5.555
 8969POPC   PO444460  14.372  43.887   5.855
 8969POPC   GL144461  14.398  43.927   6.155
 8969POPC   GL244462  14.496  43.893   6.155
 8969POPC   C1A44463  14.432  43.898   6.455
 8969POPC   D2A44464  14.436  43.917   6.755
 8969POPC   C3A44465  14.408  43.875   7.055
 8969POPC   C4A44466  14.403  43.865   7.355
 8969POPC   C1B44467  14.698  43.836   6.455
 8969POPC   C2B44468  14.616  43.896   6.755
 8969POPC   C3B44469  14.697  43.842   7.055
 8969POPC   C4B44470  14.652  43.815   7.355
 8970POPC   NC344471  34.552  40.818   5.555
 8970POPC   PO444472  34.622  40.790   5.855
 8970POPC   GL144473  34.550  40.756   6.155
 8970POPC   GL244474  34.648  40.829   6.155
 8970POPC   C1A44475  34.529  40.791   6.455
 8970POPC   D2A44476  34.545  40.767   6.755
 8970POPC   C3A44477  34.534  40.755   7.055
 8970POPC   C4A44478  34.544  40.825   7.355
 8970POPC   C1B44479  34.749  40.857   6.455
 8970POPC   C2B44480  34.832  40.905   6.755
 8970POPC   C3B44481  34.786  40.901   7.055
 8970POPC   C4B44482  34.820  40.937   7.355
 8971POPC   NC344483   5.825  19.810   5.555
 8971POPC   PO444484   5.899  19.868   5.855
 8971POPC   GL144485   5.848  19.868   6.155
 8971POPC   GL244486   5.813  19.693   6.155
 8971POPC   C1A44487   5.846  19.816   6.455
 8971POPC   D2A44488   5.828  19.842   6.755
 8971POPC   C3A44489   5.828  19.876   7.055
 8971POPC   C4A44490   5.864  19.855   7.355
 8971POPC   C1B44491   5.808  19.586   6.455
 8971POPC   C2B44492   5.853  19.608   6.755
 8971POPC   C3B44493   5.830  19.584   7.055
 8971POPC   C4B44494   5.847  19.548   7.355
 8972POPC   NC344495  36.934  43.075   5.555
 8972POPC   PO444496  36.861  43.080   5.855
 8972POPC   GL144497  36.946  43.146   6.155
 8972POPC   GL244498  36.948  43.168   6.155
 8972POPC   C1A44499  36.932  43.067   6.455
 8972POPC   D2A44500  36.870  43.083   6.755
 8972POPC   C3A44501  36.904  43.066   7.055
 8972POPC   C4A44502  36.889  43.101   7.355
 8972POPC   C1B44503  37.045  43.318   6.455
 8972POPC   C2B44504  37.049  43.265   6.755
 8972POPC   C3B44505  37.027  43.255   7.055
 8972POPC   C4B44506  37.050  43.269   7.355
 8973POPC   NC344507   2.800   5.821   5.555
 8973POPC   PO444508   2.741   5.918   5.855
 8973POPC   GL144509   2.772   5.898   6.155
 8973POPC   GL244510   2.639   5.835   6.155
 8973POPC   C1A44511   2.774   5.908   6.455
 8973POPC   D2A44512   2.769   5.825   6.755
 8973POPC   C3A44513   2.788   5.905   7.055
 8973POPC   C4A44514   2.719   5.848   7.355
 8973POPC   C1B44515   2.600   5.730   6.455
 8973POPC   C2B44516   2.530   5.778   6.755
 8973POPC   C3B44517   2.585   5.701   7.055
 8973POPC   C4B44518   2.567   5.687   7.355
 8974POPC   NC344519  12.875  28.343   5.555
 8974POPC   PO444520  12.854  28.354   5.855
 8974POPC   GL144521  12.816  28.417   6.155
 8974POPC   GL244522  12.907  28.540   6.155
 8974POPC   C1A44523  12.829  28.367   6.455
 8974POPC   D2A44524  12.855  28.407   6.755
 8974POPC   C3A44525  12.869  28.373   7.055
 8974POPC   C4A44526  12.835  28.368   7.355
 8974POPC   C1B44527  12.876  28.610   6.455
 8974POPC   C2B44528  12.858  28.632   6.755
 8974POPC   C3B44529  12.869  28.650   7.055
 8974POPC   C4B44530  12.862  28.656   7.355
 8975POPC   NC344531  16.707  31.499   5.555
 8975POPC   PO444532  16.745  31.515   5.855
 8975POPC   GL144533  16.689  31.476   6.155
 8975POPC   GL244534  16.604  31.388   6.155
 8975POPC   C1A44535  16.689  31.517   6.455
 8975POPC   D2A44536  16.778  31.478   6.755
 8975POPC   C3A44537  16.732  31.457   7.055
 8975POPC   C4A44538  16.747  31.459   7.355
 8975POPC   C1B44539  16.513  31.327   6.455
 8975POPC   C2B44540  16.534  31.333   6.755
 8975POPC   C3B44541  16.536  31.349   7.055
 8975POPC   C4B44542  16.493  31.361   7.355
 8976POPC   NC344543  42.353   0.440   5.555
 8976POPC   PO444544  42.373   0.410   5.855
 8976POPC   GL144545  42.342   0.475   6.155
 8976POPC   GL244546  42.448   0.319   6.155
 8976POPC   C1A44547  42.370   0.396   6.455
 8976POPC   D2A44548  42.361   0.417   6.755
 8976POPC   C3A44549  42.307   0.437   7.055
 8976POPC   C4A44550  42.318   0.402   7.355
 8976POPC   C1B44551  42.482   0.208   6.455
 8976POPC   C2B44552  42.501   0.258   6.755
 8976POPC   C3B44553  42.457   0.242   7.055
 8976POPC   C4B44554  42.472   0.249   7.355
 8977POPC   NC344555  15.919  28.411   5.555
 8977POPC   PO444556  15.996  28.370   5.855
 8977POPC   GL144557  15.968  28.348   6.155
 8977POPC   GL244558  16.030  28.219   6.155
 8977POPC   C1A44559  15.989  28.354   6.455
 8977POPC   D2A44560  15.988  28.322   6.755
 8977POPC   C3A44561  15.979  28.370   7.055
 8977POPC   C4A44562  15.948  28.336   7.355
 8977POPC   C1B44563  16.041  28.172   6.455
 8977POPC   C2B44564  16.095  28.182   6.755
 8977POPC   C3B44565  16.059  28.161   7.055
 8977POPC   C4B44566  16.035  28.129   7.355
 8978POPC   NC344567   5.875  43.923   5.555
 8978POPC   PO444568   5.842  43.932   5.855
 8978POPC   GL144569   5.859  43.859   6.155
 8978POPC   GL244570   5.996  43.944   6.155
 8978POPC   C1A44571   5.854  43.887   6.455
 8978POPC   D2A44572   5.825  43.841   6.755
 8978POPC   C3A44573   5.899  43.889   7.055
 8978POPC   C4A44574   5.823  43.852   7.355
 8978POPC   C1B44575   6.076  43.988   6.455
 8978POPC   C2B44576   6.109  43.962   6.755
 8978POPC   C3B44577   6.158  43.964   7.055
 8978POPC   C4B44578   6.063  43.919   7.355
 8979POPC   NC344579  42.336  38.435   5.555
 8979POPC   PO444580  42.358  38.447   5.855
 8979POPC   GL144581  42.291  38.486   6.155
 8979POPC   GL244582  42.384  38.610   6.155
 8979POPC   C1A44583  42.375  38.421   6.455
 8979POPC   D2A44584  42.380  38.411   6.755
 8979POPC   C3A44585  42.311  38.452   7.055
 8979POPC   C4A44586  42.333  38.465   7.355
 8979POPC   C1B44587  42.319  38.709   6.455
 8979POPC   C2B44588  42.391  38.735   6.755
 8979POPC   C3B44589  42.393  38.664   7.055
 8979POPC   C4B44590  42.331  38.705   7.355
 8980POPC   NC344591   5.848   4.340   5.555
 8980POPC   PO444592   5.875   4.330   5.855
 8980POPC   GL144593   5.831   4.359   6.155
 8980POPC   GL244594   6.032   4.336   6.155
 8980POPC   C1A44595   5.877   4.287   6.455
 8980POPC   D2A44596   5.917   4.279   6.755
 8980POPC   C3A44597   5.864   4.337   7.055
 8980POPC   C4A44598   5.857   4.367   7.355
 8980POPC   C1B44599   6.118   4.409   6.455
 8980POPC   C2B44600   6.091   4.383   6.755
 8980POPC   C3B44601   6.163   4.418   7.055
 8980POPC   C4B44602   6.149   4.357   7.355
 8981POPC   NC344603  32.989  21.359   5.555
 8981POPC   PO444604  33.059  21.433   5.855
 8981POPC   GL144605  33.003  21.423   6.155
 8981POPC   GL244606  32.957  21.482   6.155
 8981POPC   C1A44607  33.037  21.398   6.455
 8981POPC   D2A44608  33.001  21.429   6.755
 8981POPC   C3A44609  32.979  21.377   7.055
 8981POPC   C4A44610  32.976  21.368   7.355
 8981POPC   C1B44611  32.844  21.596   6.455
 8981POPC   C2B44612  32.934  21.612   6.755
 8981POPC   C3B44613  32.892  21.606   7.055
 8981POPC   C4B44614  32.883  21.647   7.355
 8982POPC   NC344615  21.411   5.915   5.555
 8982POPC   PO444616  21.394   5.913   5.855
 8982POPC   GL144617  21.368   5.833   6.155
 8982POPC   GL244618  21.291   5.882   6.155
 8982POPC   C1A44619  21.381   5.894   6.455
 8982POPC   D2A44620  21.357   5.833   6.755
 8982POPC   C3A44621  21.362   5.865   7.055
 8982POPC   C4A44622  21.381   5.874   7.355
 8982POPC   C1B44623  21.190   5.944   6.455
 8982POPC   C2B44624  21.179   5.982   6.755
 8982POPC   C3B44625  21.134   5.964   7.055
 8982POPC   C4B44626  21.195   6.012   7.355
 8983POPC   NC344627  43.151  39.265   5.555
 8983POPC   PO444628  43.090  39.192   5.855
 8983POPC   GL144629  43.128  39.257   6.155
 8983POPC   GL244630  43.085  39.347   6.155
 8983POPC   C1A44631  43.142  39.227   6.455
 8983POPC   D2A44632  43.073  39.273   6.755
 8983POPC   C3A44633  43.096  39.258   7.055
 8983POPC   C4A44634  43.143  39.264   7.355
 8983POPC   C1B44635  43.045  39.525   6.455
 8983POPC   C2B44636  43.084  39.496   6.755
 8983POPC   C3B44637  43.039  39.524   7.055
 8983POPC   C4B44638  43.083  39.500   7.355
 8984POPC   NC344639  27.551  36.927   5.555
 8984POPC   PO444640  27.632  36.933   5.855
 8984POPC   GL144641  27.546  36.892   6.155
 8984POPC   GL244642  27.645  36.996   6.155
 8984POPC   C1A44643  27.641  36.949   6.455
 8984POPC   D2A44644  27.561  36.900   6.755
 8984POPC   C3A44645  27.583  36.897   7.055
 8984POPC   C4A44646  27.603  36.929   7.355
 8984POPC   C1B44647  27.577  37.161   6.455
 8984POPC   C2B44648  27.626  37.124   6.755
 8984POPC   C3B44649  27.628  37.148   7.055
 8984POPC   C4B44650  27.590  37.165   7.355
 8985POPC   NC344651   5.880  25.229   5.555
 8985POPC   PO444652   5.869  25.300   5.855
 8985POPC   GL144653   5.854  25.245   6.155
 8985POPC   GL244654   5.960  25.169   6.155
 8985POPC   C1A44655   5.905  25.269   6.455
 8985POPC   D2A44656   5.894  25.255   6.755
 8985POPC   C3A44657   5.836  25.312   7.055
 8985POPC   C4A44658   5.898  25.314   7.355
 8985POPC   C1B44659   5.992  25.048   6.455
 8985POPC   C2B44660   6.018  25.083   6.755
 8985POPC   C3B44661   5.926  25.015   7.055
 8985POPC   C4B44662   5.947  25.084   7.355
 8986POPC   NC344663  25.993  26.776   5.555
 8986POPC   PO444664  26.088  26.837   5.855
 8986POPC   GL144665  26.047  26.841   6.155
 8986POPC   GL244666  25.950  26.699   6.155
 8986POPC   C1A44667  26.048  26.810   6.455
 8986POPC   D2A44668  26.065  26.863   6.755
 8986POPC   C3A44669  26.078  26.775   7.055
 8986POPC   C4A44670  25.998  26.796   7.355
 8986POPC   C1B44671  25.877  26.649   6.455
 8986POPC   C2B44672  25.868  26.665   6.755
 8986POPC   C3B44673  25.912  26.653   7.055
 8986POPC   C4B44674  25.826  26.604   7.355
 8987POPC   NC344675   8.968  40.781   5.555
 8987POPC   PO444676   8.992  40.776   5.855
 8987POPC   GL144677   9.019  40.815   6.155
 8987POPC   GL244678   8.882  40.887   6.155
 8987POPC   C1A44679   8.933  40.779   6.455
 8987POPC   D2A44680   8.990  40.800   6.755
 8987POPC   C3A44681   8.930  40.774   7.055
 8987POPC   C4A44682   9.019  40.761   7.355
 8987POPC   C1B44683   8.765  41.013   6.455
 8987POPC   C2B44684   8.829  40.936   6.755
 8987POPC   C3B44685   8.847  40.949   7.055
 8987POPC   C4B44686   8.769  40.979   7.355
 8988POPC   NC344687  41.537  20.585   5.555
 8988POPC   PO444688  41.555  20.594   5.855
 8988POPC   GL144689  41.523  20.647   6.155
 8988POPC   GL244690  41.651  20.688   6.155
 8988POPC   C1A44691  41.593  20.590   6.455
 8988POPC   D2A44692  41.591  20.602   6.755
 8988POPC   C3A44693  41.558  20.578   7.055
 8988POPC   C4A44694  41.540  20.631   7.355
 8988POPC   C1B44695  41.814  20.759   6.455
 8988POPC   C2B44696  41.752  20.695   6.755
 8988POPC   C3B44697  41.761  20.744   7.055
 8988POPC   C4B44698  41.824  20.697   7.355
 8989POPC   NC344699  38.451  21.358   5.555
 8989POPC   PO444700  38.504  21.400   5.855
 8989POPC   GL144701  38.447  21.418   6.155
 8989POPC   GL244702  38.564  21.460   6.155
 8989POPC   C1A44703  38.501  21.413   6.455
 8989POPC   D2A44704  38.468  21.376   6.755
 8989POPC   C3A44705  38.432  21.402   7.055
 8989POPC   C4A44706  38.427  21.389   7.355
 8989POPC   C1B44707  38.656  21.464   6.455
 8989POPC   C2B44708  38.728  21.418   6.755
 8989POPC   C3B44709  38.693  21.480   7.055
 8989POPC   C4B44710  38.740  21.434   7.355
 8990POPC   NC344711  16.753  13.640   5.555
 8990POPC   PO444712  16.714  13.604   5.855
 8990POPC   GL144713  16.735  13.619   6.155
 8990POPC   GL244714  16.716  13.507   6.155
 8990POPC   C1A44715  16.716  13.658   6.455
 8990POPC   D2A44716  16.712  13.662   6.755
 8990POPC   C3A44717  16.690  13.665   7.055
 8990POPC   C4A44718  16.763  13.588   7.355
 8990POPC   C1B44719  16.644  13.367   6.455
 8990POPC   C2B44720  16.742  13.409   6.755
 8990POPC   C3B44721  16.704  13.357   7.055
 8990POPC   C4B44722  16.713  13.395   7.355
 8991POPC   NC344723   9.754  12.112   5.555
 8991POPC   PO444724   9.718  12.047   5.855
 8991POPC   GL144725   9.763  12.120   6.155
 8991POPC   GL244726   9.610  12.054   6.155
 8991POPC   C1A44727   9.708  12.113   6.455
 8991POPC   D2A44728   9.770  12.057   6.755
 8991POPC   C3A44729   9.772  12.065   7.055
 8991POPC   C4A44730   9.709  12.104   7.355
 8991POPC   C1B44731   9.514  12.047   6.455
 8991POPC   C2B44732   9.459  12.015   6.755
 8991POPC   C3B44733   9.497  11.996   7.055
 8991POPC   C4B44734   9.481  11.995   7.355
 8992POPC   NC344735  31.482   1.234   5.555
 8992POPC   PO444736  31.466   1.191   5.855
 8992POPC   GL144737  31.427   1.216   6.155
 8992POPC   GL244738  31.576   1.351   6.155
 8992POPC   C1A44739  31.442   1.208   6.455
 8992POPC   D2A44740  31.514   1.217   6.755
 8992POPC   C3A44741  31.506   1.262   7.055
 8992POPC   C4A44742  31.463   1.190   7.355
 8992POPC   C1B44743  31.594   1.413   6.455
 8992POPC   C2B44744  31.617   1.425   6.755
 8992POPC   C3B44745  31.613   1.387   7.055
 8992POPC   C4B44746  31.673   1.383   7.355
 8993POPC   NC344747  44.703  36.891   5.555
 8993POPC   PO444748  44.694  36.864   5.855
 8993POPC   GL144749  44.636  36.898   6.155
 8993POPC   GL244750  44.586  36.890   6.155
 8993POPC   C1A44751  44.666  36.882   6.455
 8993POPC   D2A44752  44.670  36.892   6.755
 8993POPC   C3A44753  44.710  36.897   7.055
 8993POPC   C4A44754  44.627  36.856   7.355
 8993POPC   C1B44755  44.429  36.794   6.455
 8993POPC   C2B44756  44.446  36.813   6.755
 8993POPC   C3B44757  44.441  36.842   7.055
 8993POPC   C4B44758  44.442  36.765   7.355
 8994POPC   NC344759  19.884  26.011   5.555
 8994POPC   PO444760  19.857  26.019   5.855
 8994POPC   GL144761  19.877  26.056   6.155
 8994POPC   GL244762  19.670  26.044   6.155
 8994POPC   C1A44763  19.834  26.065   6.455
 8994POPC   D2A44764  19.817  26.015   6.755
 8994POPC   C3A44765  19.846  26.036   7.055
 8994POPC   C4A44766  19.826  26.030   7.355
 8994POPC   C1B44767  19.598  26.066   6.455
 8994POPC   C2B44768  19.634  26.014   6.755
 8994POPC   C3B44769  19.546  26.006   7.055
 8994POPC   C4B44770  19.604  25.976   7.355
 8995POPC   NC344771  36.859  18.318   5.555
 8995POPC   PO444772  36.953  18.255   5.855
 8995POPC   GL144773  36.943  18.316   6.155
 8995POPC   GL244774  36.844  18.178   6.155
 8995POPC   C1A44775  36.916  18.243   6.455
 8995POPC   D2A44776  36.932  18.322   6.755
 8995POPC   C3A44777  36.880  18.311   7.055
 8995POPC   C4A44778  36.886  18.321   7.355
 8995POPC   C1B44779  36.894  18.007   6.455
 8995POPC   C2B44780  36.897  18.040   6.755
 8995POPC   C3B44781  36.893  18.010   7.055
 8995POPC   C4B44782  36.838  18.068   7.355
 8996POPC   NC344783  17.539  21.354   5.555
 8996POPC   PO444784  17.537  21.347   5.855
 8996POPC   GL144785  17.513  21.336   6.155
 8996POPC   GL244786  17.562  21.510   6.155
 8996POPC   C1A44787  17.460  21.429   6.455
 8996POPC   D2A44788  17.506  21.403   6.755
 8996POPC   C3A44789  17.475  21.416   7.055
 8996POPC   C4A44790  17.532  21.374   7.355
 8996POPC   C1B44791  17.678  21.590   6.455
 8996POPC   C2B44792  17.727  21.536   6.755
 8996POPC   C3B44793  17.698  21.516   7.055
 8996POPC   C4B44794  17.693  21.556   7.355
 8997POPC   NC344795  43.148  11.276   5.555
 8997POPC   PO444796  43.094  11.348   5.855
 8997POPC   GL144797  43.128  11.276   6.155
 8997POPC   GL244798  43.185  11.417   6.155
 8997POPC   C1A44799  43.080  11.341   6.455
 8997POPC   D2A44800  43.141  11.275   6.755
 8997POPC   C3A44801  43.069  11.313   7.055
 8997POPC   C4A44802  43.149  11.320   7.355
 8997POPC   C1B44803  43.334  11.450   6.455
 8997POPC   C2B44804  43.263  11.453   6.755
 8997POPC   C3B44805  43.266  11.495   7.055
 8997POPC   C4B44806  43.307  11.433   7.355
 8998POPC   NC344807   5.901   6.649   5.555
 8998POPC   PO444808   5.828   6.655   5.855
 8998POPC   GL144809   5.845   6.613   6.155
 8998POPC   GL244810   6.014   6.605   6.155
 8998POPC   C1A44811   5.887   6.685   6.455
 8998POPC   D2A44812   5.864   6.649   6.755
 8998POPC   C3A44813   5.881   6.646   7.055
 8998POPC   C4A44814   5.863   6.649   7.355
 8998POPC   C1B44815   6.083   6.551   6.455
 8998POPC   C2B44816   6.086   6.511   6.755
 8998POPC   C3B44817   6.099   6.551   7.055
 8998POPC   C4B44818   6.084   6.527   7.355
 8999POPC   NC344819  40.798  41.538   5.555
 8999POPC   PO444820  40.820  41.554   5.855
 8999POPC   GL144821  40.764  41.591   6.155
 8999POPC   GL244822  40.696  41.673   6.155
 8999POPC   C1A44823  40.795  41.581   6.455
 8999POPC   D2A44824  40.781  41.586   6.755
 8999POPC   C3A44825  40.749  41.554   7.055
 8999POPC   C4A44826  40.764  41.568   7.355
 8999POPC   C1B44827  40.646  41.740   6.455
 8999POPC   C2B44828  40.627  41.787   6.755
 8999POPC   C3B44829  40.631  41.726   7.055
 8999POPC   C4B44830  40.638  41.749   7.355
 9000POPC   NC344831   4.316  26.838   5.555
 9000POPC   PO444832   4.349  26.816   5.855
 9000POPC   GL144833   4.361  26.790   6.155
 9000POPC   GL244834   4.239  26.745   6.155
 9000POPC   C1A44835   4.354  26.821   6.455
 9000POPC   D2A44836   4.337  26.798   6.755
 9000POPC   C3A44837   4.357  26.836   7.055
 9000POPC   C4A44838   4.272  26.827   7.355
 9000POPC   C1B44839   4.209  26.642   6.455
 9000POPC   C2B44840   4.215  26.598   6.755
 9000POPC   C3B44841   4.207  26.628   7.055
 9000POPC   C4B44842   4.155  26.562   7.355
 9001POPC   NC344843  37.727  13.660   5.555
 9001POPC   PO444844  37.661  13.624   5.855
 9001POPC   GL144845  37.702  13.619   6.155
 9001POPC   GL244846  37.774  13.540   6.155
 9001POPC   C1A44847  37.656  13.625   6.455
 9001POPC   D2A44848  37.672  13.627   6.755
 9001POPC   C3A44849  37.658  13.610   7.055
 9001POPC   C4A44850  37.647  13.588   7.355
 9001POPC   C1B44851  37.936  13.481   6.455
 9001POPC   C2B44852  37.931  13.538   6.755
 9001POPC   C3B44853  37.906  13.476   7.055
 9001POPC   C4B44854  37.926  13.522   7.355
 9002POPC   NC344855  15.993   9.741   5.555
 9002POPC   PO444856  15.952   9.775   5.855
 9002POPC   GL144857  15.938   9.731   6.155
 9002POPC   GL244858  16.085   9.644   6.155
 9002POPC   C1A44859  15.969   9.769   6.455
 9002POPC   D2A44860  15.951   9.730   6.755
 9002POPC   C3A44861  15.987   9.731   7.055
 9002POPC   C4A44862  15.963   9.764   7.355
 9002POPC   C1B44863  16.107   9.523   6.455
 9002POPC   C2B44864  16.088   9.612   6.755
 9002POPC   C3B44865  16.176   9.538   7.055
 9002POPC   C4B44866  16.137   9.608   7.355
 9003POPC   NC344867  26.825  32.201   5.555
 9003POPC   PO444868  26.773  32.229   5.855
 9003POPC   GL144869  26.773  32.211   6.155
 9003POPC   GL244870  26.699  32.261   6.155
 9003POPC   C1A44871  26.824  32.244   6.455
 9003POPC   D2A44872  26.825  32.214   6.755
 9003POPC   C3A44873  26.806  32.250   7.055
 9003POPC   C4A44874  26.853  32.266   7.355
 9003POPC   C1B44875  26.576  32.357   6.455
 9003POPC   C2B44876  26.542  32.327   6.755
 9003POPC   C3B44877  26.538  32.339   7.055
 9003POPC   C4B44878  26.621  32.297   7.355
 9004POPC   NC344879  26.858  40.818   5.555
 9004POPC   PO444880  26.805  40.816   5.855
 9004POPC   GL144881  26.798  40.789   6.155
 9004POPC   GL244882  26.666  40.808   6.155
 9004POPC   C1A44883  26.797  40.784   6.455
 9004POPC   D2A44884  26.852  40.775   6.755
 9004POPC   C3A44885  26.819  40.747   7.055
 9004POPC   C4A44886  26.827  40.749   7.355
 9004POPC   C1B44887  26.570  40.809   6.455
 9004POPC   C2B44888  26.565  40.828   6.755
 9004POPC   C3B44889  26.582  40.829   7.055
 9004POPC   C4B44890  26.605  40.851   7.355
 9005POPC   NC344891  15.963  20.628   5.555
 9005POPC   PO444892  15.987  20.642   5.855
 9005POPC   GL144893  15.996  20.586   6.155
 9005POPC   GL244894  16.051  20.651   6.155
 9005POPC   C1A44895  15.964  20.626   6.455
 9005POPC   D2A44896  15.970  20.632   6.755
 9005POPC   C3A44897  15.952  20.571   7.055
 9005POPC   C4A44898  15.997  20.651   7.355
 9005POPC   C1B44899  16.246  20.666   6.455
 9005POPC   C2B44900  16.198  20.626   6.755
 9005POPC   C3B44901  16.210  20.645   7.055
 9005POPC   C4B44902  16.161  20.608   7.355
 9006POPC   NC344903  32.230   5.873   5.555
 9006POPC   PO444904  32.236   5.898   5.855
 9006POPC   GL144905  32.260   5.882   6.155
 9006POPC   GL244906  32.331   5.968   6.155
 9006POPC   C1A44907  32.239   5.829   6.455
 9006POPC   D2A44908  32.235   5.832   6.755
 9006POPC   C3A44909  32.218   5.879   7.055
 9006POPC   C4A44910  32.208   5.907   7.355
 9006POPC   C1B44911  32.363   6.107   6.455
 9006POPC   C2B44912  32.345   6.060   6.755
 9006POPC   C3B44913  32.375   6.081   7.055
 9006POPC   C4B44914  32.360   6.093   7.355
 9007POPC   NC344915  41.573  34.538   5.555
 9007POPC   PO444916  41.515  34.535   5.855
 9007POPC   GL144917  41.602  34.608   6.155
 9007POPC   GL244918  41.443  34.655   6.155
 9007POPC   C1A44919  41.594  34.626   6.455
 9007POPC   D2A44920  41.549  34.550   6.755
 9007POPC   C3A44921  41.533  34.561   7.055
 9007POPC   C4A44922  41.579  34.590   7.355
 9007POPC   C1B44923  41.388  34.724   6.455
 9007POPC   C2B44924  41.371  34.709   6.755
 9007POPC   C3B44925  41.297  34.729   7.055
 9007POPC   C4B44926  41.313  34.696   7.355
 9008POPC   NC344927  41.564  12.849   5.555
 9008POPC   PO444928  41.541  12.863   5.855
 9008POPC   GL144929  41.565  12.850   6.155
 9008POPC   GL244930  41.413  12.870   6.155
 9008POPC   C1A44931  41.517  12.856   6.455
 9008POPC   D2A44932  41.577  12.869   6.755
 9008POPC   C3A44933  41.570  12.812   7.055
 9008POPC   C4A44934  41.574  12.854   7.355
 9008POPC   C1B44935  41.311  12.830   6.455
 9008POPC   C2B44936  41.332  12.821   6.755
 9008POPC   C3B44937  41.326  12.863   7.055
 9008POPC   C4B44938  41.292  12.845   7.355
 9009POPC   NC344939  19.102  43.160   5.555
 9009POPC   PO444940  19.039  43.139   5.855
 9009POPC   GL144941  19.054  43.099   6.155
 9009POPC   GL244942  18.907  43.079   6.155
 9009POPC   C1A44943  19.092  43.118   6.455
 9009POPC   D2A44944  19.071  43.103   6.755
 9009POPC   C3A44945  19.051  43.076   7.055
 9009POPC   C4A44946  19.045  43.120   7.355
 9009POPC   C1B44947  18.854  43.136   6.455
 9009POPC   C2B44948  18.801  43.048   6.755
 9009POPC   C3B44949  18.850  43.108   7.055
 9009POPC   C4B44950  18.854  43.055   7.355
 9010POPC   NC344951  24.532  26.821   5.555
 9010POPC   PO444952  24.509  26.822   5.855
 9010POPC   GL144953  24.442  26.798   6.155
 9010POPC   GL244954  24.510  26.981   6.155
 9010POPC   C1A44955  24.536  26.798   6.455
 9010POPC   D2A44956  24.488  26.864   6.755
 9010POPC   C3A44957  24.456  26.812   7.055
 9010POPC   C4A44958  24.521  26.847   7.355
 9010POPC   C1B44959  24.522  27.055   6.455
 9010POPC   C2B44960  24.551  27.096   6.755
 9010POPC   C3B44961  24.547  27.070   7.055
 9010POPC   C4B44962  24.572  27.065   7.355
 9011POPC   NC344963  39.967  19.821   5.555
 9011POPC   PO444964  40.030  19.859   5.855
 9011POPC   GL144965  39.960  19.827   6.155
 9011POPC   GL244966  39.880  19.767   6.155
 9011POPC   C1A44967  40.009  19.809   6.455
 9011POPC   D2A44968  39.995  19.870   6.755
 9011POPC   C3A44969  40.018  19.833   7.055
 9011POPC   C4A44970  39.964  19.813   7.355
 9011POPC   C1B44971  39.807  19.734   6.455
 9011POPC   C2B44972  39.774  19.673   6.755
 9011POPC   C3B44973  39.753  19.717   7.055
 9011POPC   C4B44974  39.775  19.751   7.355
 9012POPC   NC344975  22.968  15.975   5.555
 9012POPC   PO444976  22.895  16.004   5.855
 9012POPC   GL144977  22.960  15.941   6.155
 9012POPC   GL244978  22.963  16.057   6.155
 9012POPC   C1A44979  22.895  15.998   6.455
 9012POPC   D2A44980  22.923  15.989   6.755
 9012POPC   C3A44981  22.984  15.924   7.055
 9012POPC   C4A44982  22.907  15.922   7.355
 9012POPC   C1B44983  22.931  16.166   6.455
 9012POPC   C2B44984  22.917  16.241   6.755
 9012POPC   C3B44985  22.876  16.220   7.055
 9012POPC   C4B44986  22.901  16.196   7.355
 9013POPC   NC344987  42.348  40.783   5.555
 9013POPC   PO444988  42.295  40.802   5.855
 9013POPC   GL144989  42.318  40.757   6.155
 9013POPC   GL244990  42.412  40.770   6.155
 9013POPC   C1A44991  42.314  40.757   6.455
 9013POPC   D2A44992  42.341  40.787   6.755
 9013POPC   C3A44993  42.373  40.761   7.055
 9013POPC   C4A44994  42.356  40.794   7.355
 9013POPC   C1B44995  42.538  40.688   6.455
 9013POPC   C2B44996  42.595  40.680   6.755
 9013POPC   C3B44997  42.582  40.666   7.055
 9013POPC   C4B44998  42.529  40.676   7.355
 9014POPC   NC344999  43.156  40.751   5.555
 9014POPC   PO445000  43.142  40.798   5.855
 9014POPC   GL145001  43.131  40.831   6.155
 9014POPC   GL245002  43.067  40.705   6.155
 9014POPC   C1A45003  43.097  40.767   6.455
 9014POPC   D2A45004  43.124  40.784   6.755
 9014POPC   C3A45005  43.082  40.832   7.055
 9014POPC   C4A45006  43.099  40.773   7.355
 9014POPC   C1B45007  43.110  40.534   6.455
 9014POPC   C2B45008  43.114  40.503   6.755
 9014POPC   C3B45009  43.091  40.495   7.055
 9014POPC   C4B45010  43.142  40.554   7.355
 9015POPC   NC345011  16.684  36.084   5.555
 9015POPC   PO445012  16.747  36.133   5.855
 9015POPC   GL145013  16.760  36.166   6.155
 9015POPC   GL245014  16.599  36.235   6.155
 9015POPC   C1A45015  16.710  36.154   6.455
 9015POPC   D2A45016  16.762  36.117   6.755
 9015POPC   C3A45017  16.756  36.133   7.055
 9015POPC   C4A45018  16.759  36.078   7.355
 9015POPC   C1B45019  16.523  36.241   6.455
 9015POPC   C2B45020  16.529  36.239   6.755
 9015POPC   C3B45021  16.539  36.313   7.055
 9015POPC   C4B45022  16.482  36.235   7.355
 9016POPC   NC345023  40.812  28.383   5.555
 9016POPC   PO445024  40.778  28.372   5.855
 9016POPC   GL145025  40.774  28.400   6.155
 9016POPC   GL245026  40.855  28.441   6.155
 9016POPC   C1A45027  40.786  28.374   6.455
 9016POPC   D2A45028  40.744  28.369   6.755
 9016POPC   C3A45029  40.824  28.399   7.055
 9016POPC   C4A45030  40.743  28.373   7.355
 9016POPC   C1B45031  41.008  28.528   6.455
 9016POPC   C2B45032  40.991  28.491   6.755
 9016POPC   C3B45033  40.991  28.553   7.055
 9016POPC   C4B45034  40.964  28.526   7.355
 9017POPC   NC345035  10.565  37.659   5.555
 9017POPC   PO445036  10.541  37.670   5.855
 9017POPC   GL145037  10.529  37.646   6.155
 9017POPC   GL245038  10.680  37.734   6.155
 9017POPC   C1A45039  10.495  37.721   6.455
 9017POPC   D2A45040  10.515  37.671   6.755
 9017POPC   C3A45041  10.500  37.672   7.055
 9017POPC   C4A45042  10.555  37.640   7.355
 9017POPC   C1B45043  10.819  37.736   6.455
 9017POPC   C2B45044  10.811  37.734   6.755
 9017POPC   C3B45045  10.788  37.724   7.055
 9017POPC   C4B45046  10.810  37.677   7.355
 9018POPC   NC345047   8.951  22.128   5.555
 9018POPC   PO445048   8.969  22.187   5.855
 9018POPC   GL145049   8.923  22.198   6.155
 9018POPC   GL245050   9.082  22.282   6.155
 9018POPC   C1A45051   8.923  22.205   6.455
 9018POPC   D2A45052   9.005  22.121   6.755
 9018POPC   C3A45053   8.930  22.150   7.055
 9018POPC   C4A45054   8.986  22.141   7.355
 9018POPC   C1B45055   9.168  22.386   6.455
 9018POPC   C2B45056   9.092  22.347   6.755
 9018POPC   C3B45057   9.094  22.364   7.055
 9018POPC   C4B45058   9.101  22.319   7.355
 9019POPC   NC345059  19.840   5.852   5.555
 9019POPC   PO445060  19.877   5.910   5.855
 9019POPC   GL145061  19.785   5.845   6.155
 9019POPC   GL245062  19.945   5.884   6.155
 9019POPC   C1A45063  19.871   5.834   6.455
 9019POPC   D2A45064  19.822   5.879   6.755
 9019POPC   C3A45065  19.810   5.848   7.055
 9019POPC   C4A45066  19.862   5.873   7.355
 9019POPC   C1B45067  20.025   5.991   6.455
 9019POPC   C2B45068  20.081   5.998   6.755
 9019POPC   C3B45069  20.068   5.948   7.055
 9019POPC   C4B45070  20.078   5.983   7.355
 9020POPC   NC345071   5.876  23.670   5.555
 9020POPC   PO445072   5.821  23.762   5.855
 9020POPC   GL145073   5.832  23.707   6.155
 9020POPC   GL245074   5.957  23.731   6.155
 9020POPC   C1A45075   5.884  23.751   6.455
 9020POPC   D2A45076   5.904  23.722   6.755
 9020POPC   C3A45077   5.866  23.743   7.055
 9020POPC   C4A45078   5.851  23.762   7.355
 9020POPC   C1B45079   6.099  23.865   6.455
 9020POPC   C2B45080   6.100  23.804   6.755
 9020POPC   C3B45081   6.058  23.800   7.055
 9020POPC   C4B45082   6.059  23.871   7.355
 9021POPC   NC345083   0.421  36.143   5.555
 9021POPC   PO445084   0.470  36.086   5.855
 9021POPC   GL145085   0.405  36.093   6.155
 9021POPC   GL245086   0.424  35.956   6.155
 9021POPC   C1A45087   0.453  36.083   6.455
 9021POPC   D2A45088   0.405  36.108   6.755
 9021POPC   C3A45089   0.418  36.142   7.055
 9021POPC   C4A45090   0.425  36.135   7.355
 9021POPC   C1B45091   0.479  35.931   6.455
 9021POPC   C2B45092   0.521  35.841   6.755
 9021POPC   C3B45093   0.479  35.886   7.055
 9021POPC   C4B45094   0.480  35.903   7.355
 9022POPC   NC345095  42.333  33.777   5.555
 9022POPC   PO445096  42.347  33.844   5.855
 9022POPC   GL145097  42.294  33.764   6.155
 9022POPC   GL245098  42.247  33.797   6.155
 9022POPC   C1A45099  42.297  33.750   6.455
 9022POPC   D2A45100  42.288  33.847   6.755
 9022POPC   C3A45101  42.372  33.812   7.055
 9022POPC   C4A45102  42.373  33.762   7.355
 9022POPC   C1B45103  42.042  33.896   6.455
 9022POPC   C2B45104  42.060  33.835   6.755
 9022POPC   C3B45105  42.140  33.903   7.055
 9022POPC   C4B45106  42.058  33.883   7.355
 9023POPC   NC345107  31.465   7.436   5.555
 9023POPC   PO445108  31.462   7.423   5.855
 9023POPC   GL145109  31.510   7.402   6.155
 9023POPC   GL245110  31.579   7.397   6.155
 9023POPC   C1A45111  31.450   7.379   6.455
 9023POPC   D2A45112  31.451   7.407   6.755
 9023POPC   C3A45113  31.514   7.438   7.055
 9023POPC   C4A45114  31.486   7.382   7.355
 9023POPC   C1B45115  31.687   7.385   6.455
 9023POPC   C2B45116  31.733   7.462   6.755
 9023POPC   C3B45117  31.713   7.420   7.055
 9023POPC   C4B45118  31.686   7.464   7.355
 9024POPC   NC345119  32.991   2.727   5.555
 9024POPC   PO445120  32.985   2.743   5.855
 9024POPC   GL145121  33.064   2.729   6.155
 9024POPC   GL245122  33.170   2.837   6.155
 9024POPC   C1A45123  33.008   2.784   6.455
 9024POPC   D2A45124  33.035   2.797   6.755
 9024POPC   C3A45125  33.020   2.724   7.055
 9024POPC   C4A45126  33.015   2.767   7.355
 9024POPC   C1B45127  33.193   2.951   6.455
 9024POPC   C2B45128  33.214   2.959   6.755
 9024POPC   C3B45129  33.247   2.951   7.055
 9024POPC   C4B45130  33.201   2.893   7.355
 9025POPC   NC345131  39.269  31.475   5.555
 9025POPC   PO445132  39.187  31.429   5.855
 9025POPC   GL145133  39.222  31.507   6.155
 9025POPC   GL245134  39.251  31.600   6.155
 9025POPC   C1A45135  39.216  31.425   6.455
 9025POPC   D2A45136  39.193  31.509   6.755
 9025POPC   C3A45137  39.252  31.480   7.055
 9025POPC   C4A45138  39.252  31.464   7.355
 9025POPC   C1B45139  39.265  31.759   6.455
 9025POPC   C2B45140  39.276  31.728   6.755
 9025POPC   C3B45141  39.242  31.762   7.055
 9025POPC   C4B45142  39.243  31.726   7.355
 9026POPC   NC345143   9.769   3.494   5.555
 9026POPC   PO445144   9.705   3.503   5.855
 9026POPC   GL145145   9.721   3.566   6.155
 9026POPC   GL245146   9.633   3.548   6.155
 9026POPC   C1A45147   9.767   3.493   6.455
 9026POPC   D2A45148   9.794   3.495   6.755
 9026POPC   C3A45149   9.720   3.505   7.055
 9026POPC   C4A45150   9.723   3.550   7.355
 9026POPC   C1B45151   9.481   3.488   6.455
 9026POPC   C2B45152   9.493   3.515   6.755
 9026POPC   C3B45153   9.491   3.542   7.055
 9026POPC   C4B45154   9.524   3.531   7.355
 9027POPC   NC345155  22.136  31.486   5.555
 9027POPC   PO445156  22.154  31.434   5.855
 9027POPC   GL145157  22.161  31.457   6.155
 9027POPC   GL245158  22.020  31.449   6.155
 9027POPC   C1A45159  22.211  31.500   6.455
 9027POPC   D2A45160  22.146  31.445   6.755
 9027POPC   C3A45161  22.144  31.475   7.055
 9027POPC   C4A45162  22.208  31.446   7.355
 9027POPC   C1B45163  21.934  31.448   6.455
 9027POPC   C2B45164  21.870  31.455   6.755
 9027POPC   C3B45165  21.872  31.400   7.055
 9027POPC   C4B45166  21.908  31.463   7.355
 9028POPC   NC345167  24.535   9.788   5.555
 9028POPC   PO445168  24.441   9.719   5.855
 9028POPC   GL145169  24.501   9.768   6.155
 9028POPC   GL245170  24.590   9.721   6.155
 9028POPC   C1A45171  24.488   9.705   6.455
 9028POPC   D2A45172  24.448   9.717   6.755
 9028POPC   C3A45173  24.504   9.733   7.055
 9028POPC   C4A45174  24.510   9.780   7.355
 9028POPC   C1B45175  24.677   9.602   6.455
 9028POPC   C2B45176  24.749   9.602   6.755
 9028POPC   C3B45177  24.661   9.595   7.055
 9028POPC   C4B45178  24.681   9.629   7.355
 9029POPC   NC345179  36.167  26.088   5.555
 9029POPC   PO445180  36.089  26.003   5.855
 9029POPC   GL145181  36.164  26.043   6.155
 9029POPC   GL245182  36.015  26.054   6.155
 9029POPC   C1A45183  36.081  26.001   6.455
 9029POPC   D2A45184  36.091  26.070   6.755
 9029POPC   C3A45185  36.127  26.040   7.055
 9029POPC   C4A45186  36.089  26.009   7.355
 9029POPC   C1B45187  35.838  26.008   6.455
 9029POPC   C2B45188  35.886  26.026   6.755
 9029POPC   C3B45189  35.860  26.056   7.055
 9029POPC   C4B45190  35.888  26.028   7.355
 9030POPC   NC345191  38.466  26.862   5.555
 9030POPC   PO445192  38.482  26.826   5.855
 9030POPC   GL145193  38.430  26.864   6.155
 9030POPC   GL245194  38.395  26.944   6.155
 9030POPC   C1A45195  38.484  26.816   6.455
 9030POPC   D2A45196  38.462  26.830   6.755
 9030POPC   C3A45197  38.421  26.828   7.055
 9030POPC   C4A45198  38.504  26.774   7.355
 9030POPC   C1B45199  38.324  27.086   6.455
 9030POPC   C2B45200  38.416  27.056   6.755
 9030POPC   C3B45201  38.349  27.036   7.055
 9030POPC   C4B45202  38.338  27.079   7.355
 9031POPC   NC345203  25.280  29.123   5.555
 9031POPC   PO445204  25.219  29.105   5.855
 9031POPC   GL145205  25.216  29.120   6.155
 9031POPC   GL245206  25.116  29.082   6.155
 9031POPC   C1A45207  25.288  29.115   6.455
 9031POPC   D2A45208  25.230  29.187   6.755
 9031POPC   C3A45209  25.294  29.115   7.055
 9031POPC   C4A45210  25.267  29.150   7.355
 9031POPC   C1B45211  25.030  29.089   6.455
 9031POPC   C2B45212  25.062  29.013   6.755
 9031POPC   C3B45213  24.988  29.093   7.055
 9031POPC   C4B45214  25.004  29.085   7.355
 9032POPC   NC345215  36.870  13.604   5.555
 9032POPC   PO445216  36.931  13.627   5.855
 9032POPC   GL145217  36.921  13.656   6.155
 9032POPC   GL245218  36.828  13.723   6.155
 9032POPC   C1A45219  36.919  13.655   6.455
 9032POPC   D2A45220  36.909  13.667   6.755
 9032POPC   C3A45221  36.888  13.605   7.055
 9032POPC   C4A45222  36.943  13.667   7.355
 9032POPC   C1B45223  36.699  13.801   6.455
 9032POPC   C2B45224  36.755  13.800   6.755
 9032POPC   C3B45225  36.760  13.809   7.055
 9032POPC   C4B45226  36.678  13.795   7.355
 9033POPC   NC345227   9.753   6.661   5.555
 9033POPC   PO445228   9.750   6.642   5.855
 9033POPC   GL145229   9.770   6.669   6.155
 9033POPC   GL245230   9.904   6.660   6.155
 9033POPC   C1A45231   9.785   6.689   6.455
 9033POPC   D2A45232   9.704   6.619   6.755
 9033POPC   C3A45233   9.795   6.649   7.055
 9033POPC   C4A45234   9.702   6.667   7.355
 9033POPC   C1B45235  10.015   6.713   6.455
 9033POPC   C2B45236   9.963   6.666   6.755
 9033POPC   C3B45237  10.038   6.738   7.055
 9033POPC   C4B45238   9.979   6.659   7.355
 9034POPC   NC345239  43.072   1.223   5.555
 9034POPC   PO445240  43.074   1.236   5.855
 9034POPC   GL145241  43.125   1.260   6.155
 9034POPC   GL245242  42.982   1.199   6.155
 9034POPC   C1A45243  43.149   1.218   6.455
 9034POPC   D2A45244  43.120   1.170   6.755
 9034POPC   C3A45245  43.085   1.209   7.055
 9034POPC   C4A45246  43.110   1.185   7.355
 9034POPC   C1B45247  42.917   1.103   6.455
 9034POPC   C2B45248  42.927   1.101   6.755
 9034POPC   C3B45249  42.860   1.115   7.055
 9034POPC   C4B45250  42.892   1.107   7.355
 9035POPC   NC345251  41.559   9.782   5.555
 9035POPC   PO445252  41.568   9.772   5.855
 9035POPC   GL145253  41.563   9.759   6.155
 9035POPC   GL245254  41.403   9.705   6.155
 9035POPC   C1A45255  41.597   9.765   6.455
 9035POPC   D2A45256  41.605   9.726   6.755
 9035POPC   C3A45257  41.592   9.746   7.055
 9035POPC   C4A45258  41.549   9.775   7.355
 9035POPC   C1B45259  41.341   9.768   6.455
 9035POPC   C2B45260  41.314   9.703   6.755
 9035POPC   C3B45261  41.321   9.744   7.055
 9035POPC   C4B45262  41.335   9.776   7.355
 9036POPC   NC345263  33.761  32.992   5.555
 9036POPC   PO445264  33.818  33.041   5.855
 9036POPC   GL145265  33.841  33.008   6.155
 9036POPC   GL245266  33.956  33.124   6.155
 9036POPC   C1A45267  33.802  33.049   6.455
 9036POPC   D2A45268  33.844  33.013   6.755
 9036POPC   C3A45269  33.766  33.040   7.055
 9036POPC   C4A45270  33.792  33.027   7.355
 9036POPC   C1B45271  34.050  33.125   6.455
 9036POPC   C2B45272  34.052  33.104   6.755
 9036POPC   C3B45273  34.022  33.158   7.055
 9036POPC   C4B45274  34.073  33.181   7.355
 9037POPC   NC345275  19.057  15.186   5.555
 9037POPC   PO445276  19.018  15.141   5.855
 9037POPC   GL145277  19.040  15.191   6.155
 9037POPC   GL245278  19.178  15.260   6.155
 9037POPC   C1A45279  19.079  15.146   6.455
 9037POPC   D2A45280  19.040  15.172   6.755
 9037POPC   C3A45281  19.055  15.220   7.055
 9037POPC   C4A45282  19.089  15.129   7.355
 9037POPC   C1B45283  19.255  15.295   6.455
 9037POPC   C2B45284  19.266  15.304   6.755
 9037POPC   C3B45285  19.305  15.265   7.055
 9037POPC   C4B45286  19.284  15.320   7.355
 9038POPC   NC345287  43.889  10.513   5.555
 9038POPC   PO445288  43.863  10.564   5.855
 9038POPC   GL145289  43.907  10.522   6.155
 9038POPC   GL245290  43.824  10.628   6.155
 9038POPC   C1A45291  43.848  10.565   6.455
 9038POPC   D2A45292  43.926  10.485   6.755
 9038POPC   C3A45293  43.932  10.572   7.055
 9038POPC   C4A45294  43.895  10.492   7.355
 9038POPC   C1B45295  43.859  10.789   6.455
 9038POPC   C2B45296  43.881  10.728   6.755
 9038POPC   C3B45297  43.861  10.806   7.055
 9038POPC   C4B45298  43.818  10.759   7.355
 9039POPC   NC345299  41.605  33.814   5.555
 9039POPC   PO445300  41.601  33.754   5.855
 9039POPC   GL145301  41.519  33.841   6.155
 9039POPC   GL245302  41.628  33.863   6.155
 9039POPC   C1A45303  41.599  33.763   6.455
 9039POPC   D2A45304  41.534  33.843   6.755
 9039POPC   C3A45305  41.566  33.829   7.055
 9039POPC   C4A45306  41.589  33.763   7.355
 9039POPC   C1B45307  41.693  33.978   6.455
 9039POPC   C2B45308  41.683  34.032   6.755
 9039POPC   C3B45309  41.689  33.957   7.055
 9039POPC   C4B45310  41.715  34.028   7.355
 9040POPC   NC345311  39.270  39.229   5.555
 9040POPC   PO445312  39.281  39.240   5.855
 9040POPC   GL145313  39.249  39.237   6.155
 9040POPC   GL245314  39.255  39.143   6.155
 9040POPC   C1A45315  39.192  39.197   6.455
 9040POPC   D2A45316  39.192  39.237   6.755
 9040POPC   C3A45317  39.280  39.252   7.055
 9040POPC   C4A45318  39.200  39.209   7.355
 9040POPC   C1B45319  39.251  39.023   6.455
 9040POPC   C2B45320  39.216  39.015   6.755
 9040POPC   C3B45321  39.269  38.971   7.055
 9040POPC   C4B45322  39.217  38.939   7.355
 9041POPC   NC345323  32.221  31.475   5.555
 9041POPC   PO445324  32.219  31.510   5.855
 9041POPC   GL145325  32.294  31.485   6.155
 9041POPC   GL245326  32.339  31.534   6.155
 9041POPC   C1A45327  32.218  31.464   6.455
 9041POPC   D2A45328  32.228  31.444   6.755
 9041POPC   C3A45329  32.252  31.425   7.055
 9041POPC   C4A45330  32.270  31.483   7.355
 9041POPC   C1B45331  32.489  31.581   6.455
 9041POPC   C2B45332  32.508  31.553   6.755
 9041POPC   C3B45333  32.485  31.513   7.055
 9041POPC   C4B45334  32.465  31.518   7.355
 9042POPC   NC345335  38.499  19.878   5.555
 9042POPC   PO445336  38.499  19.789   5.855
 9042POPC   GL145337  38.455  19.848   6.155
 9042POPC   GL245338  38.412  19.713   6.155
 9042POPC   C1A45339  38.422  19.845   6.455
 9042POPC   D2A45340  38.440  19.837   6.755
 9042POPC   C3A45341  38.456  19.842   7.055
 9042POPC   C4A45342  38.472  19.852   7.355
 9042POPC   C1B45343  38.304  19.576   6.455
 9042POPC   C2B45344  38.326  19.648   6.755
 9042POPC   C3B45345  38.355  19.567   7.055
 9042POPC   C4B45346  38.328  19.612   7.355
 9043POPC   NC345347  26.806   4.311   5.555
 9043POPC   PO445348  26.788   4.337   5.855
 9043POPC   GL145349  26.864   4.311   6.155
 9043POPC   GL245350  26.874   4.395   6.155
 9043POPC   C1A45351  26.824   4.348   6.455
 9043POPC   D2A45352  26.801   4.359   6.755
 9043POPC   C3A45353  26.810   4.333   7.055
 9043POPC   C4A45354  26.835   4.298   7.355
 9043POPC   C1B45355  26.903   4.586   6.455
 9043POPC   C2B45356  26.946   4.491   6.755
 9043POPC   C3B45357  26.914   4.582   7.055
 9043POPC   C4B45358  26.887   4.541   7.355
 9044POPC   NC345359  43.857  33.028   5.555
 9044POPC   PO445360  43.839  33.019   5.855
 9044POPC   GL145361  43.929  33.001   6.155
 9044POPC   GL245362  43.948  33.124   6.155
 9044POPC   C1A45363  43.911  33.055   6.455
 9044POPC   D2A45364  43.844  33.042   6.755
 9044POPC   C3A45365  43.903  33.013   7.055
 9044POPC   C4A45366  43.909  33.064   7.355
 9044POPC   C1B45367  44.029  33.225   6.455
 9044POPC   C2B45368  44.070  33.153   6.755
 9044POPC   C3B45369  44.067  33.227   7.055
 9044POPC   C4B45370  44.096  33.241   7.355
 9045POPC   NC345371  15.163  41.538   5.555
 9045POPC   PO445372  15.168  41.554   5.855
 9045POPC   GL145373  15.210  41.548   6.155
 9045POPC   GL245374  15.323  41.589   6.155
 9045POPC   C1A45375  15.187  41.589   6.455
 9045POPC   D2A45376  15.144  41.531   6.755
 9045POPC   C3A45377  15.223  41.538   7.055
 9045POPC   C4A45378  15.144  41.556   7.355
 9045POPC   C1B45379  15.456  41.643   6.455
 9045POPC   C2B45380  15.429  41.617   6.755
 9045POPC   C3B45381  15.452  41.557   7.055
 9045POPC   C4B45382  15.466  41.621   7.355
 9046POPC   NC345383  26.047  35.314   5.555
 9046POPC   PO445384  26.022  35.351   5.855
 9046POPC   GL145385  26.065  35.398   6.155
 9046POPC   GL245386  26.022  35.507   6.155
 9046POPC   C1A45387  26.036  35.328   6.455
 9046POPC   D2A45388  25.996  35.380   6.755
 9046POPC   C3A45389  26.069  35.376   7.055
 9046POPC   C4A45390  26.033  35.400   7.355
 9046POPC   C1B45391  26.040  35.642   6.455
 9046POPC   C2B45392  25.992  35.568   6.755
 9046POPC   C3B45393  26.033  35.566   7.055
 9046POPC   C4B45394  26.042  35.648   7.355
 9047POPC   NC345395   2.768   3.515   5.555
 9047POPC   PO445396   2.815   3.589   5.855
 9047POPC   GL145397   2.739   3.509   6.155
 9047POPC   GL245398   2.691   3.510   6.155
 9047POPC   C1A45399   2.777   3.577   6.455
 9047POPC   D2A45400   2.758   3.496   6.755
 9047POPC   C3A45401   2.763   3.528   7.055
 9047POPC   C4A45402   2.815   3.527   7.355
 9047POPC   C1B45403   2.467   3.555   6.455
 9047POPC   C2B45404   2.552   3.505   6.755
 9047POPC   C3B45405   2.537   3.501   7.055
 9047POPC   C4B45406   2.507   3.545   7.355
 9048POPC   NC345407  40.012  24.534   5.555
 9048POPC   PO445408  40.002  24.469   5.855
 9048POPC   GL145409  39.967  24.510   6.155
 9048POPC   GL245410  39.871  24.485   6.155
 9048POPC   C1A45411  40.040  24.499   6.455
 9048POPC   D2A45412  40.044  24.529   6.755
 9048POPC   C3A45413  39.959  24.537   7.055
 9048POPC   C4A45414  40.005  24.530   7.355
 9048POPC   C1B45415  39.787  24.584   6.455
 9048POPC   C2B45416  39.782  24.576   6.755
 9048POPC   C3B45417  39.788  24.586   7.055
 9048POPC   C4B45418  39.780  24.563   7.355
 9049POPC   NC345419   0.473  39.995   5.555
 9049POPC   PO445420   0.418  39.987   5.855
 9049POPC   GL145421   0.480  40.045   6.155
 9049POPC   GL245422   0.302  39.950   6.155
 9049POPC   C1A45423   0.481  39.980   6.455
 9049POPC   D2A45424   0.455  39.984   6.755
 9049POPC   C3A45425   0.481  40.020   7.055
 9049POPC   C4A45426   0.420  40.049   7.355
 9049POPC   C1B45427   0.184  39.944   6.455
 9049POPC   C2B45428   0.200  39.980   6.755
 9049POPC   C3B45429   0.224  39.985   7.055
 9049POPC   C4B45430   0.142  39.936   7.355
 9050POPC   NC345431  43.883  24.470   5.555
 9050POPC   PO445432  43.851  24.485   5.855
 9050POPC   GL145433  43.864  24.515   6.155
 9050POPC   GL245434  43.791  24.623   6.155
 9050POPC   C1A45435  43.882  24.484   6.455
 9050POPC   D2A45436  43.859  24.524   6.755
 9050POPC   C3A45437  43.881  24.448   7.055
 9050POPC   C4A45438  43.935  24.483   7.355
 9050POPC   C1B45439  43.724  24.651   6.455
 9050POPC   C2B45440  43.760  24.664   6.755
 9050POPC   C3B45441  43.712  24.726   7.055
 9050POPC   C4B45442  43.771  24.705   7.355
 9051POPC   NC345443  44.703  26.816   5.555
 9051POPC   PO445444  44.655  26.790   5.855
 9051POPC   GL145445  44.644  26.781   6.155
 9051POPC   GL245446  44.706  26.879   6.155
 9051POPC   C1A45447  44.655  26.862   6.455
 9051POPC   D2A45448  44.677  26.845   6.755
 9051POPC   C3A45449  44.693  26.822   7.055
 9051POPC   C4A45450  44.679  26.832   7.355
 9051POPC   C1B45451  44.822  27.031   6.455
 9051POPC   C2B45452  44.860  26.970   6.755
 9051POPC   C3B45453  44.800  27.039   7.055
 9051POPC   C4B45454  44.766  27.001   7.355
 9052POPC   NC345455  43.065  36.142   5.555
 9052POPC   PO445456  43.105  36.164   5.855
 9052POPC   GL145457  43.145  36.080   6.155
 9052POPC   GL245458  42.995  36.127   6.155
 9052POPC   C1A45459  43.099  36.095   6.455
 9052POPC   D2A45460  43.112  36.115   6.755
 9052POPC   C3A45461  43.121  36.096   7.055
 9052POPC   C4A45462  43.065  36.157   7.355
 9052POPC   C1B45463  42.862  36.056   6.455
 9052POPC   C2B45464  42.911  36.072   6.755
 9052POPC   C3B45465  42.841  36.052   7.055
 9052POPC   C4B45466  42.847  36.037   7.355
 9053POPC   NC345467  40.792  22.144   5.555
 9053POPC   PO445468  40.796  22.127   5.855
 9053POPC   GL145469  40.825  22.200   6.155
 9053POPC   GL245470  40.729  22.222   6.155
 9053POPC   C1A45471  40.794  22.165   6.455
 9053POPC   D2A45472  40.758  22.161   6.755
 9053POPC   C3A45473  40.761  22.122   7.055
 9053POPC   C4A45474  40.751  22.129   7.355
 9053POPC   C1B45475  40.644  22.377   6.455
 9053POPC   C2B45476  40.582  22.358   6.755
 9053POPC   C3B45477  40.666  22.365   7.055
 9053POPC   C4B45478  40.625  22.323   7.355
 9054POPC   NC345479  40.735  27.615   5.555
 9054POPC   PO445480  40.773  27.600   5.855
 9054POPC   GL145481  40.819  27.594   6.155
 9054POPC   GL245482  40.944  27.575   6.155
 9054POPC   C1A45483  40.807  27.638   6.455
 9054POPC   D2A45484  40.740  27.575   6.755
 9054POPC   C3A45485  40.789  27.559   7.055
 9054POPC   C4A45486  40.803  27.567   7.355
 9054POPC   C1B45487  40.979  27.634   6.455
 9054POPC   C2B45488  40.993  27.649   6.755
 9054POPC   C3B45489  40.993  27.605   7.055
 9054POPC   C4B45490  40.991  27.611   7.355
 9055POPC   NC345491  37.689  15.193   5.555
 9055POPC   PO445492  37.689  15.220   5.855
 9055POPC   GL145493  37.630  15.130   6.155
 9055POPC   GL245494  37.782  15.047   6.155
 9055POPC   C1A45495  37.659  15.194   6.455
 9055POPC   D2A45496  37.663  15.152   6.755
 9055POPC   C3A45497  37.641  15.223   7.055
 9055POPC   C4A45498  37.659  15.195   7.355
 9055POPC   C1B45499  37.821  15.007   6.455
 9055POPC   C2B45500  37.858  14.944   6.755
 9055POPC   C3B45501  37.805  14.991   7.055
 9055POPC   C4B45502  37.821  14.973   7.355
 9056POPC   NC345503  19.073   1.257   5.555
 9056POPC   PO445504  19.087   1.233   5.855
 9056POPC   GL145505  19.083   1.168   6.155
 9056POPC   GL245506  19.039   1.320   6.155
 9056POPC   C1A45507  19.108   1.228   6.455
 9056POPC   D2A45508  19.105   1.258   6.755
 9056POPC   C3A45509  19.032   1.225   7.055
 9056POPC   C4A45510  19.050   1.251   7.355
 9056POPC   C1B45511  19.034   1.486   6.455
 9056POPC   C2B45512  19.053   1.496   6.755
 9056POPC   C3B45513  19.044   1.431   7.055
 9056POPC   C4B45514  19.047   1.449   7.355
 9057POPC   NC345515  33.825  36.939   5.555
 9057POPC   PO445516  33.809  36.940   5.855
 9057POPC   GL145517  33.818  36.945   6.155
 9057POPC   GL245518  33.705  36.996   6.155
 9057POPC   C1A45519  33.844  36.939   6.455
 9057POPC   D2A45520  33.776  36.892   6.755
 9057POPC   C3A45521  33.779  36.860   7.055
 9057POPC   C4A45522  33.762  36.892   7.355
 9057POPC   C1B45523  33.613  37.037   6.455
 9057POPC   C2B45524  33.594  37.022   6.755
 9057POPC   C3B45525  33.563  37.017   7.055
 9057POPC   C4B45526  33.572  37.011   7.355
 9058POPC   NC345527  26.779   5.912   5.555
 9058POPC   PO445528  26.815   5.841   5.855
 9058POPC   GL145529  26.851   5.876   6.155
 9058POPC   GL245530  26.878   5.937   6.155
 9058POPC   C1A45531  26.784   5.861   6.455
 9058POPC   D2A45532  26.816   5.848   6.755
 9058POPC   C3A45533  26.816   5.857   7.055
 9058POPC   C4A45534  26.866   5.880   7.355
 9058POPC   C1B45535  27.007   6.058   6.455
 9058POPC   C2B45536  27.059   5.980   6.755
 9058POPC   C3B45537  26.995   6.050   7.055
 9058POPC   C4B45538  27.027   6.039   7.355
 9059POPC   NC345539   2.766  17.463   5.555
 9059POPC   PO445540   2.797  17.519   5.855
 9059POPC   GL145541   2.783  17.464   6.155
 9059POPC   GL245542   2.740  17.398   6.155
 9059POPC   C1A45543   2.735  17.470   6.455
 9059POPC   D2A45544   2.809  17.493   6.755
 9059POPC   C3A45545   2.784  17.499   7.055
 9059POPC   C4A45546   2.717  17.485   7.355
 9059POPC   C1B45547   2.663  17.238   6.455
 9059POPC   C2B45548   2.667  17.243   6.755
 9059POPC   C3B45549   2.701  17.312   7.055
 9059POPC   C4B45550   2.667  17.292   7.355
 9060POPC   NC345551  29.171   3.574   5.555
 9060POPC   PO445552  29.178   3.553   5.855
 9060POPC   GL145553  29.192   3.497   6.155
 9060POPC   GL245554  28.996   3.562   6.155
 9060POPC   C1A45555  29.188   3.522   6.455
 9060POPC   D2A45556  29.100   3.536   6.755
 9060POPC   C3A45557  29.167   3.590   7.055
 9060POPC   C4A45558  29.189   3.569   7.355
 9060POPC   C1B45559  28.857   3.531   6.455
 9060POPC   C2B45560  28.893   3.499   6.755
 9060POPC   C3B45561  28.855   3.522   7.055
 9060POPC   C4B45562  28.918   3.540   7.355
 9061POPC   NC345563  16.722  16.781   5.555
 9061POPC   PO445564  16.715  16.772   5.855
 9061POPC   GL145565  16.755  16.767   6.155
 9061POPC   GL245566  16.853  16.671   6.155
 9061POPC   C1A45567  16.683  16.752   6.455
 9061POPC   D2A45568  16.749  16.775   6.755
 9061POPC   C3A45569  16.746  16.748   7.055
 9061POPC   C4A45570  16.699  16.685   7.355
 9061POPC   C1B45571  16.980  16.608   6.455
 9061POPC   C2B45572  16.996  16.569   6.755
 9061POPC   C3B45573  16.975  16.593   7.055
 9061POPC   C4B45574  16.997  16.638   7.355
 9062POPC   NC345575  11.315  41.591   5.555
 9062POPC   PO445576  11.334  41.518   5.855
 9062POPC   GL145577  11.323  41.591   6.155
 9062POPC   GL245578  11.384  41.392   6.155
 9062POPC   C1A45579  11.315  41.512   6.455
 9062POPC   D2A45580  11.267  41.561   6.755
 9062POPC   C3A45581  11.304  41.518   7.055
 9062POPC   C4A45582  11.304  41.563   7.355
 9062POPC   C1B45583  11.346  41.342   6.455
 9062POPC   C2B45584  11.350  41.324   6.755
 9062POPC   C3B45585  11.413  41.343   7.055
 9062POPC   C4B45586  11.352  41.313   7.355
 9063POPC   NC345587  38.431  32.283   5.555
 9063POPC   PO445588  38.454  32.271   5.855
 9063POPC   GL145589  38.409  32.223   6.155
 9063POPC   GL245590  38.607  32.271   6.155
 9063POPC   C1A45591  38.505  32.220   6.455
 9063POPC   D2A45592  38.433  32.226   6.755
 9063POPC   C3A45593  38.476  32.256   7.055
 9063POPC   C4A45594  38.481  32.289   7.355
 9063POPC   C1B45595  38.699  32.338   6.455
 9063POPC   C2B45596  38.708  32.311   6.755
 9063POPC   C3B45597  38.659  32.293   7.055
 9063POPC   C4B45598  38.693  32.276   7.355
 9064POPC   NC345599  32.266   6.694   5.555
 9064POPC   PO445600  32.253   6.672   5.855
 9064POPC   GL145601  32.294   6.627   6.155
 9064POPC   GL245602  32.123   6.762   6.155
 9064POPC   C1A45603  32.241   6.606   6.455
 9064POPC   D2A45604  32.206   6.647   6.755
 9064POPC   C3A45605  32.244   6.637   7.055
 9064POPC   C4A45606  32.220   6.659   7.355
 9064POPC   C1B45607  32.120   6.783   6.455
 9064POPC   C2B45608  32.055   6.815   6.755
 9064POPC   C3B45609  32.036   6.835   7.055
 9064POPC   C4B45610  32.039   6.831   7.355
 9065POPC   NC345611  36.911  15.929   5.555
 9065POPC   PO445612  36.926  15.984   5.855
 9065POPC   GL145613  36.883  15.909   6.155
 9065POPC   GL245614  36.818  15.907   6.155
 9065POPC   C1A45615  36.931  15.981   6.455
 9065POPC   D2A45616  36.868  15.923   6.755
 9065POPC   C3A45617  36.907  15.957   7.055
 9065POPC   C4A45618  36.917  15.940   7.355
 9065POPC   C1B45619  36.630  15.923   6.455
 9065POPC   C2B45620  36.621  15.879   6.755
 9065POPC   C3B45621  36.706  15.883   7.055
 9065POPC   C4B45622  36.693  15.912   7.355
 9066POPC   NC345623  33.797  43.935   5.555
 9066POPC   PO445624  33.772  43.854   5.855
 9066POPC   GL145625  33.809  43.866   6.155
 9066POPC   GL245626  33.724  43.734   6.155
 9066POPC   C1A45627  33.753  43.911   6.455
 9066POPC   D2A45628  33.755  43.838   6.755
 9066POPC   C3A45629  33.796  43.897   7.055
 9066POPC   C4A45630  33.796  43.880   7.355
 9066POPC   C1B45631  33.725  43.665   6.455
 9066POPC   C2B45632  33.763  43.618   6.755
 9066POPC   C3B45633  33.734  43.644   7.055
 9066POPC   C4B45634  33.739  43.685   7.355
 9067POPC   NC345635   7.390  20.649   5.555
 9067POPC   PO445636   7.403  20.582   5.855
 9067POPC   GL145637   7.398  20.564   6.155
 9067POPC   GL245638   7.285  20.650   6.155
 9067POPC   C1A45639   7.467  20.596   6.455
 9067POPC   D2A45640   7.382  20.599   6.755
 9067POPC   C3A45641   7.400  20.625   7.055
 9067POPC   C4A45642   7.389  20.572   7.355
 9067POPC   C1B45643   7.213  20.643   6.455
 9067POPC   C2B45644   7.169  20.651   6.755
 9067POPC   C3B45645   7.132  20.646   7.055
 9067POPC   C4B45646   7.157  20.671   7.355
 9068POPC   NC345647   0.459  36.952   5.555
 9068POPC   PO445648   0.464  36.912   5.855
 9068POPC   GL145649   0.450  36.871   6.155
 9068POPC   GL245650   0.378  36.969   6.155
 9068POPC   C1A45651   0.467  36.909   6.455
 9068POPC   D2A45652   0.458  36.891   6.755
 9068POPC   C3A45653   0.391  36.926   7.055
 9068POPC   C4A45654   0.429  36.936   7.355
 9068POPC   C1B45655   0.243  37.088   6.455
 9068POPC   C2B45656   0.209  37.073   6.755
 9068POPC   C3B45657   0.252  37.013   7.055
 9068POPC   C4B45658   0.258  37.055   7.355
 9069POPC   NC345659  26.065  38.473   5.555
 9069POPC   PO445660  26.076  38.491   5.855
 9069POPC   GL145661  26.004  38.436   6.155
 9069POPC   GL245662  25.932  38.522   6.155
 9069POPC   C1A45663  26.017  38.484   6.455
 9069POPC   D2A45664  26.072  38.501   6.755
 9069POPC   C3A45665  26.046  38.485   7.055
 9069POPC   C4A45666  25.996  38.447   7.355
 9069POPC   C1B45667  25.828  38.562   6.455
 9069POPC   C2B45668  25.811  38.565   6.755
 9069POPC   C3B45669  25.786  38.566   7.055
 9069POPC   C4B45670  25.777  38.579   7.355
 9070POPC   NC345671  20.642  26.854   5.555
 9070POPC   PO445672  20.655  26.859   5.855
 9070POPC   GL145673  20.633  26.782   6.155
 9070POPC   GL245674  20.465  26.923   6.155
 9070POPC   C1A45675  20.591  26.825   6.455
 9070POPC   D2A45676  20.655  26.768   6.755
 9070POPC   C3A45677  20.618  26.835   7.055
 9070POPC   C4A45678  20.594  26.843   7.355
 9070POPC   C1B45679  20.428  26.944   6.455
 9070POPC   C2B45680  20.428  26.974   6.755
 9070POPC   C3B45681  20.347  26.958   7.055
 9070POPC   C4B45682  20.353  26.953   7.355
 9071POPC   NC345683  25.284   5.085   5.555
 9071POPC   PO445684  25.285   5.060   5.855
 9071POPC   GL145685  25.276   5.070   6.155
 9071POPC   GL245686  25.337   5.030   6.155
 9071POPC   C1A45687  25.269   5.046   6.455
 9071POPC   D2A45688  25.307   5.079   6.755
 9071POPC   C3A45689  25.260   5.064   7.055
 9071POPC   C4A45690  25.268   5.096   7.355
 9071POPC   C1B45691  25.417   4.925   6.455
 9071POPC   C2B45692  25.448   4.976   6.755
 9071POPC   C3B45693  25.481   4.929   7.055
 9071POPC   C4B45694  25.503   4.978   7.355
 9072POPC   NC345695  11.305  11.291   5.555
 9072POPC   PO445696  11.342  11.262   5.855
 9072POPC   GL145697  11.259  11.262   6.155
 9072POPC   GL245698  11.213  11.389   6.155
 9072POPC   C1A45699  11.315  11.298   6.455
 9072POPC   D2A45700  11.304  11.348   6.755
 9072POPC   C3A45701  11.266  11.268   7.055
 9072POPC   C4A45702  11.308  11.301   7.355
 9072POPC   C1B45703  11.093  11.502   6.455
 9072POPC   C2B45704  11.160  11.477   6.755
 9072POPC   C3B45705  11.148  11.481   7.055
 9072POPC   C4B45706  11.100  11.439   7.355
 9073POPC   NC345707   3.498  34.618   5.555
 9073POPC   PO445708   3.569  34.595   5.855
 9073POPC   GL145709   3.541  34.560   6.155
 9073POPC   GL245710   3.551  34.675   6.155
 9073POPC   C1A45711   3.501  34.594   6.455
 9073POPC   D2A45712   3.567  34.614   6.755
 9073POPC   C3A45713   3.502  34.578   7.055
 9073POPC   C4A45714   3.561  34.537   7.355
 9073POPC   C1B45715   3.470  34.802   6.455
 9073POPC   C2B45716   3.457  34.835   6.755
 9073POPC   C3B45717   3.431  34.835   7.055
 9073POPC   C4B45718   3.463  34.775   7.355
 9074POPC   NC345719  16.769  22.962   5.555
 9074POPC   PO445720  16.684  22.963   5.855
 9074POPC   GL145721  16.757  22.897   6.155
 9074POPC   GL245722  16.623  22.888   6.155
 9074POPC   C1A45723  16.747  22.933   6.455
 9074POPC   D2A45724  16.775  22.895   6.755
 9074POPC   C3A45725  16.728  22.906   7.055
 9074POPC   C4A45726  16.726  22.977   7.355
 9074POPC   C1B45727  16.443  22.839   6.455
 9074POPC   C2B45728  16.470  22.899   6.755
 9074POPC   C3B45729  16.498  22.895   7.055
 9074POPC   C4B45730  16.455  22.926   7.355
 9075POPC   NC345731   5.910  39.194   5.555
 9075POPC   PO445732   5.840  39.278   5.855
 9075POPC   GL145733   5.905  39.211   6.155
 9075POPC   GL245734   5.925  39.305   6.155
 9075POPC   C1A45735   5.911  39.194   6.455
 9075POPC   D2A45736   5.892  39.255   6.755
 9075POPC   C3A45737   5.915  39.235   7.055
 9075POPC   C4A45738   5.897  39.204   7.355
 9075POPC   C1B45739   5.934  39.406   6.455
 9075POPC   C2B45740   5.992  39.446   6.755
 9075POPC   C3B45741   5.962  39.429   7.055
 9075POPC   C4B45742   6.012  39.435   7.355
 9076POPC   NC345743   9.739  26.055   5.555
 9076POPC   PO445744   9.734  26.057   5.855
 9076POPC   GL145745   9.723  26.011   6.155
 9076POPC   GL245746   9.749  26.111   6.155
 9076POPC   C1A45747   9.746  26.014   6.455
 9076POPC   D2A45748   9.744  26.063   6.755
 9076POPC   C3A45749   9.747  26.068   7.055
 9076POPC   C4A45750   9.781  26.029   7.355
 9076POPC   C1B45751   9.797  26.304   6.455
 9076POPC   C2B45752   9.796  26.322   6.755
 9076POPC   C3B45753   9.873  26.267   7.055
 9076POPC   C4B45754   9.806  26.247   7.355
 9077POPC   NC345755  23.741  42.365   5.555
 9077POPC   PO445756  23.727  42.342   5.855
 9077POPC   GL145757  23.738  42.358   6.155
 9077POPC   GL245758  23.659  42.308   6.155
 9077POPC   C1A45759  23.665  42.285   6.455
 9077POPC   D2A45760  23.715  42.315   6.755
 9077POPC   C3A45761  23.739  42.328   7.055
 9077POPC   C4A45762  23.704  42.359   7.355
 9077POPC   C1B45763  23.486  42.216   6.455
 9077POPC   C2B45764  23.520  42.169   6.755
 9077POPC   C3B45765  23.554  42.171   7.055
 9077POPC   C4B45766  23.470  42.181   7.355
 9078POPC   NC345767   8.171  41.555   5.555
 9078POPC   PO445768   8.204  41.589   5.855
 9078POPC   GL145769   8.177  41.532   6.155
 9078POPC   GL245770   8.215  41.443   6.155
 9078POPC   C1A45771   8.238  41.598   6.455
 9078POPC   D2A45772   8.160  41.603   6.755
 9078POPC   C3A45773   8.242  41.533   7.055
 9078POPC   C4A45774   8.221  41.510   7.355
 9078POPC   C1B45775   8.278  41.373   6.455
 9078POPC   C2B45776   8.282  41.362   6.755
 9078POPC   C3B45777   8.280  41.387   7.055
 9078POPC   C4B45778   8.313  41.384   7.355
 9079POPC   NC345779  43.130  34.592   5.555
 9079POPC   PO445780  43.080  34.573   5.855
 9079POPC   GL145781  43.152  34.561   6.155
 9079POPC   GL245782  43.231  34.545   6.155
 9079POPC   C1A45783  43.159  34.594   6.455
 9079POPC   D2A45784  43.081  34.600   6.755
 9079POPC   C3A45785  43.109  34.607   7.055
 9079POPC   C4A45786  43.131  34.585   7.355
 9079POPC   C1B45787  43.384  34.549   6.455
 9079POPC   C2B45788  43.408  34.550   6.755
 9079POPC   C3B45789  43.350  34.604   7.055
 9079POPC   C4B45790  43.379  34.550   7.355
 9080POPC   NC345791  33.774  11.346   5.555
 9080POPC   PO445792  33.846  11.309   5.855
 9080POPC   GL145793  33.826  11.335   6.155
 9080POPC   GL245794  33.673  11.167   6.155
 9080POPC   C1A45795  33.836  11.336   6.455
 9080POPC   D2A45796  33.788  11.277   6.755
 9080POPC   C3A45797  33.807  11.343   7.055
 9080POPC   C4A45798  33.820  11.270   7.355
 9080POPC   C1B45799  33.694  11.092   6.455
 9080POPC   C2B45800  33.640  11.151   6.755
 9080POPC   C3B45801  33.598  11.145   7.055
 9080POPC   C4B45802  33.616  11.137   7.355
 9081POPC   NC345803  17.526  43.071   5.555
 9081POPC   PO445804  17.521  43.136   5.855
 9081POPC   GL145805  17.545  43.099   6.155
 9081POPC   GL245806  17.609  43.160   6.155
 9081POPC   C1A45807  17.461  43.127   6.455
 9081POPC   D2A45808  17.520  43.128   6.755
 9081POPC   C3A45809  17.483  43.143   7.055
 9081POPC   C4A45810  17.551  43.090   7.355
 9081POPC   C1B45811  17.759  43.084   6.455
 9081POPC   C2B45812  17.767  43.135   6.755
 9081POPC   C3B45813  17.805  43.086   7.055
 9081POPC   C4B45814  17.718  43.076   7.355
 9082POPC   NC345815  19.075  43.842   5.555
 9082POPC   PO445816  19.038  43.864   5.855
 9082POPC   GL145817  19.100  43.863   6.155
 9082POPC   GL245818  18.901  43.900   6.155
 9082POPC   C1A45819  19.051  43.847   6.455
 9082POPC   D2A45820  19.057  43.899   6.755
 9082POPC   C3A45821  19.084  43.883   7.055
 9082POPC   C4A45822  19.059  43.908   7.355
 9082POPC   C1B45823  18.845  43.954   6.455
 9082POPC   C2B45824  18.865  43.932   6.755
 9082POPC   C3B45825  18.776  43.940   7.055
 9082POPC   C4B45826  18.838  43.996   7.355
 9083POPC   NC345827  21.419  18.279   5.555
 9083POPC   PO445828  21.364  18.330   5.855
 9083POPC   GL145829  21.353  18.256   6.155
 9083POPC   GL245830  21.454  18.211   6.155
 9083POPC   C1A45831  21.368  18.253   6.455
 9083POPC   D2A45832  21.349  18.327   6.755
 9083POPC   C3A45833  21.360  18.262   7.055
 9083POPC   C4A45834  21.425  18.278   7.355
 9083POPC   C1B45835  21.572  18.131   6.455
 9083POPC   C2B45836  21.622  18.158   6.755
 9083POPC   C3B45837  21.633  18.157   7.055
 9083POPC   C4B45838  21.637  18.120   7.355
 9084POPC   NC345839  15.926  22.910   5.555
 9084POPC   PO445840  15.931  22.913   5.855
 9084POPC   GL145841  15.986  22.891   6.155
 9084POPC   GL245842  16.057  23.049   6.155
 9084POPC   C1A45843  15.950  22.922   6.455
 9084POPC   D2A45844  15.985  22.928   6.755
 9084POPC   C3A45845  15.958  22.946   7.055
 9084POPC   C4A45846  15.991  22.977   7.355
 9084POPC   C1B45847  16.161  23.096   6.455
 9084POPC   C2B45848  16.127  23.134   6.755
 9084POPC   C3B45849  16.113  23.071   7.055
 9084POPC   C4B45850  16.114  23.123   7.355
 9085POPC   NC345851   7.428  39.962   5.555
 9085POPC   PO445852   7.417  40.027   5.855
 9085POPC   GL145853   7.405  40.050   6.155
 9085POPC   GL245854   7.576  39.996   6.155
 9085POPC   C1A45855   7.447  40.017   6.455
 9085POPC   D2A45856   7.457  39.965   6.755
 9085POPC   C3A45857   7.394  40.035   7.055
 9085POPC   C4A45858   7.458  40.028   7.355
 9085POPC   C1B45859   7.627  39.963   6.455
 9085POPC   C2B45860   7.622  39.937   6.755
 9085POPC   C3B45861   7.633  39.986   7.055
 9085POPC   C4B45862   7.661  39.949   7.355
 9086POPC   NC345863   4.275  13.655   5.555
 9086POPC   PO445864   4.319  13.670   5.855
 9086POPC   GL145865   4.335  13.673   6.155
 9086POPC   GL245866   4.205  13.487   6.155
 9086POPC   C1A45867   4.282  13.658   6.455
 9086POPC   D2A45868   4.312  13.615   6.755
 9086POPC   C3A45869   4.341  13.654   7.055
 9086POPC   C4A45870   4.287  13.609   7.355
 9086POPC   C1B45871   4.147  13.392   6.455
 9086POPC   C2B45872   4.180  13.441   6.755
 9086POPC   C3B45873   4.189  13.386   7.055
 9086POPC   C4B45874   4.229  13.443   7.355
 9087POPC   NC345875  44.710   4.314   5.555
 9087POPC   PO445876  44.697   4.341   5.855
 9087POPC   GL145877  44.709   4.343   6.155
 9087POPC   GL245878  44.631   4.217   6.155
 9087POPC   C1A45879  44.662   4.323   6.455
 9087POPC   D2A45880  44.710   4.282   6.755
 9087POPC   C3A45881  44.666   4.283   7.055
 9087POPC   C4A45882  44.648   4.268   7.355
 9087POPC   C1B45883  44.537   4.137   6.455
 9087POPC   C2B45884  44.497   4.115   6.755
 9087POPC   C3B45885  44.480   4.082   7.055
 9087POPC   C4B45886  44.522   4.114   7.355
 9088POPC   NC345887  19.046  15.938   5.555
 9088POPC   PO445888  19.024  15.956   5.855
 9088POPC   GL145889  19.014  15.939   6.155
 9088POPC   GL245890  19.083  15.870   6.155
 9088POPC   C1A45891  19.071  15.974   6.455
 9088POPC   D2A45892  19.069  15.921   6.755
 9088POPC   C3A45893  19.073  15.998   7.055
 9088POPC   C4A45894  19.061  15.983   7.355
 9088POPC   C1B45895  19.173  15.725   6.455
 9088POPC   C2B45896  19.194  15.724   6.755
 9088POPC   C3B45897  19.245  15.711   7.055
 9088POPC   C4B45898  19.159  15.781   7.355
 9089POPC   NC345899  41.544  42.305   5.555
 9089POPC   PO445900  41.524  42.329   5.855
 9089POPC   GL145901  41.525  42.376   6.155
 9089POPC   GL245902  41.632  42.258   6.155
 9089POPC   C1A45903  41.518  42.375   6.455
 9089POPC   D2A45904  41.608  42.318   6.755
 9089POPC   C3A45905  41.599  42.310   7.055
 9089POPC   C4A45906  41.553  42.317   7.355
 9089POPC   C1B45907  41.762  42.283   6.455
 9089POPC   C2B45908  41.780  42.285   6.755
 9089POPC   C3B45909  41.837  42.286   7.055
 9089POPC   C4B45910  41.748  42.284   7.355
 9090POPC   NC345911  12.811   2.018   5.555
 9090POPC   PO445912  12.862   2.039   5.855
 9090POPC   GL145913  12.833   2.000   6.155
 9090POPC   GL245914  12.910   2.158   6.155
 9090POPC   C1A45915  12.803   1.942   6.455
 9090POPC   D2A45916  12.846   2.032   6.755
 9090POPC   C3A45917  12.898   1.940   7.055
 9090POPC   C4A45918  12.891   2.031   7.355
 9090POPC   C1B45919  12.937   2.190   6.455
 9090POPC   C2B45920  12.862   2.244   6.755
 9090POPC   C3B45921  12.859   2.208   7.055
 9090POPC   C4B45922  12.902   2.191   7.355
 9091POPC   NC345923  38.412  18.244   5.555
 9091POPC   PO445924  38.435  18.287   5.855
 9091POPC   GL145925  38.445  18.284   6.155
 9091POPC   GL245926  38.370  18.279   6.155
 9091POPC   C1A45927  38.457  18.293   6.455
 9091POPC   D2A45928  38.412  18.306   6.755
 9091POPC   C3A45929  38.426  18.235   7.055
 9091POPC   C4A45930  38.499  18.330   7.355
 9091POPC   C1B45931  38.181  18.211   6.455
 9091POPC   C2B45932  38.202  18.255   6.755
 9091POPC   C3B45933  38.248  18.209   7.055
 9091POPC   C4B45934  38.218  18.270   7.355
 9092POPC   NC345935   5.912  17.488   5.555
 9092POPC   PO445936   5.903  17.516   5.855
 9092POPC   GL145937   5.900  17.518   6.155
 9092POPC   GL245938   5.952  17.538   6.155
 9092POPC   C1A45939   5.833  17.554   6.455
 9092POPC   D2A45940   5.864  17.546   6.755
 9092POPC   C3A45941   5.892  17.527   7.055
 9092POPC   C4A45942   5.834  17.475   7.355
 9092POPC   C1B45943   6.107  17.676   6.455
 9092POPC   C2B45944   6.042  17.663   6.755
 9092POPC   C3B45945   6.048  17.681   7.055
 9092POPC   C4B45946   6.081  17.602   7.355
 9093POPC   NC345947  22.122  15.211   5.555
 9093POPC   PO445948  22.211  15.196   5.855
 9093POPC   GL145949  22.149  15.142   6.155
 9093POPC   GL245950  22.008  15.225   6.155
 9093POPC   C1A45951  22.123  15.163   6.455
 9093POPC   D2A45952  22.145  15.161   6.755
 9093POPC   C3A45953  22.117  15.177   7.055
 9093POPC   C4A45954  22.146  15.179   7.355
 9093POPC   C1B45955  21.889  15.252   6.455
 9093POPC   C2B45956  21.939  15.278   6.755
 9093POPC   C3B45957  21.932  15.225   7.055
 9093POPC   C4B45958  21.882  15.212   7.355
 9094POPC   NC345959  35.341  39.209   5.555
 9094POPC   PO445960  35.396  39.245   5.855
 9094POPC   GL145961  35.382  39.253   6.155
 9094POPC   GL245962  35.246  39.238   6.155
 9094POPC   C1A45963  35.312  39.277   6.455
 9094POPC   D2A45964  35.314  39.269   6.755
 9094POPC   C3A45965  35.353  39.193   7.055
 9094POPC   C4A45966  35.322  39.274   7.355
 9094POPC   C1B45967  35.090  39.201   6.455
 9094POPC   C2B45968  35.091  39.188   6.755
 9094POPC   C3B45969  35.064  39.206   7.055
 9094POPC   C4B45970  35.066  39.158   7.355
 9095POPC   NC345971  37.710  39.989   5.555
 9095POPC   PO445972  37.685  39.991   5.855
 9095POPC   GL145973  37.718  40.022   6.155
 9095POPC   GL245974  37.582  40.058   6.155
 9095POPC   C1A45975  37.710  40.050   6.455
 9095POPC   D2A45976  37.722  40.038   6.755
 9095POPC   C3A45977  37.677  39.957   7.055
 9095POPC   C4A45978  37.650  40.004   7.355
 9095POPC   C1B45979  37.482  40.061   6.455
 9095POPC   C2B45980  37.471  40.109   6.755
 9095POPC   C3B45981  37.427  40.135   7.055
 9095POPC   C4B45982  37.493  40.149   7.355
 9096POPC   NC345983  43.106  26.069   5.555
 9096POPC   PO445984  43.114  26.043   5.855
 9096POPC   GL145985  43.155  26.035   6.155
 9096POPC   GL245986  42.963  26.034   6.155
 9096POPC   C1A45987  43.104  26.008   6.455
 9096POPC   D2A45988  43.104  26.074   6.755
 9096POPC   C3A45989  43.066  26.076   7.055
 9096POPC   C4A45990  43.063  26.068   7.355
 9096POPC   C1B45991  42.914  26.139   6.455
 9096POPC   C2B45992  42.823  26.150   6.755
 9096POPC   C3B45993  42.895  26.097   7.055
 9096POPC   C4B45994  42.835  26.148   7.355
 9097POPC   NC345995  12.046  19.033   5.555
 9097POPC   PO445996  12.103  19.042   5.855
 9097POPC   GL145997  12.042  19.050   6.155
 9097POPC   GL245998  12.018  19.177   6.155
 9097POPC   C1A45999  12.112  19.059   6.455
 9097POPC   D2A46000  12.078  19.080   6.755
 9097POPC   C3A46001  12.030  19.083   7.055
 9097POPC   C4A46002  12.125  19.058   7.355
 9097POPC   C1B46003  11.907  19.277   6.455
 9097POPC   C2B46004  11.878  19.271   6.755
 9097POPC   C3B46005  11.892  19.236   7.055
 9097POPC   C4B46006  11.861  19.254   7.355
 9098POPC   NC346007  25.288  13.666   5.555
 9098POPC   PO446008  25.273  13.658   5.855
 9098POPC   GL146009  25.298  13.609   6.155
 9098POPC   GL246010  25.342  13.560   6.155
 9098POPC   C1A46011  25.218  13.592   6.455
 9098POPC   D2A46012  25.250  13.592   6.755
 9098POPC   C3A46013  25.224  13.609   7.055
 9098POPC   C4A46014  25.302  13.623   7.355
 9098POPC   C1B46015  25.463  13.407   6.455
 9098POPC   C2B46016  25.459  13.413   6.755
 9098POPC   C3B46017  25.393  13.448   7.055
 9098POPC   C4B46018  25.424  13.455   7.355
 9099POPC   NC346019  40.747   0.431   5.555
 9099POPC   PO446020  40.743   0.446   5.855
 9099POPC   GL146021  40.810   0.419   6.155
 9099POPC   GL246022  40.669   0.572   6.155
 9099POPC   C1A46023  40.809   0.487   6.455
 9099POPC   D2A46024  40.762   0.454   6.755
 9099POPC   C3A46025  40.743   0.417   7.055
 9099POPC   C4A46026  40.795   0.457   7.355
 9099POPC   C1B46027  40.603   0.605   6.455
 9099POPC   C2B46028  40.630   0.645   6.755
 9099POPC   C3B46029  40.677   0.648   7.055
 9099POPC   C4B46030  40.685   0.653   7.355
 9100POPC   NC346031  41.594  30.648   5.555
 9100POPC   PO446032  41.583  30.691   5.855
 9100POPC   GL146033  41.548  30.710   6.155
 9100POPC   GL246034  41.616  30.602   6.155
 9100POPC   C1A46035  41.600  30.666   6.455
 9100POPC   D2A46036  41.548  30.703   6.755
 9100POPC   C3A46037  41.591  30.703   7.055
 9100POPC   C4A46038  41.511  30.694   7.355
 9100POPC   C1B46039  41.583  30.429   6.455
 9100POPC   C2B46040  41.583  30.397   6.755
 9100POPC   C3B46041  41.590  30.467   7.055
 9100POPC   C4B46042  41.614  30.443   7.355
 9101POPC   NC346043  10.518   5.066   5.555
 9101POPC   PO446044  10.545   5.113   5.855
 9101POPC   GL146045  10.520   5.056   6.155
 9101POPC   GL246046  10.571   5.017   6.155
 9101POPC   C1A46047  10.520   5.092   6.455
 9101POPC   D2A46048  10.497   5.109   6.755
 9101POPC   C3A46049  10.535   5.079   7.055
 9101POPC   C4A46050  10.493   5.107   7.355
 9101POPC   C1B46051  10.716   4.876   6.455
 9101POPC   C2B46052  10.720   4.938   6.755
 9101POPC   C3B46053  10.679   4.938   7.055
 9101POPC   C4B46054  10.717   4.856   7.355
 9102POPC   NC346055  43.082  15.153   5.555
 9102POPC   PO446056  43.127  15.210   5.855
 9102POPC   GL146057  43.078  15.212   6.155
 9102POPC   GL246058  43.114  15.073   6.155
 9102POPC   C1A46059  43.125  15.159   6.455
 9102POPC   D2A46060  43.105  15.173   6.755
 9102POPC   C3A46061  43.158  15.201   7.055
 9102POPC   C4A46062  43.132  15.207   7.355
 9102POPC   C1B46063  43.112  14.976   6.455
 9102POPC   C2B46064  43.100  14.955   6.755
 9102POPC   C3B46065  43.135  14.920   7.055
 9102POPC   C4B46066  43.054  14.963   7.355
 9103POPC   NC346067  25.285  41.543   5.555
 9103POPC   PO446068  25.301  41.550   5.855
 9103POPC   GL146069  25.306  41.521   6.155
 9103POPC   GL246070  25.322  41.651   6.155
 9103POPC   C1A46071  25.295  41.606   6.455
 9103POPC   D2A46072  25.239  41.576   6.755
 9103POPC   C3A46073  25.237  41.535   7.055
 9103POPC   C4A46074  25.305  41.596   7.355
 9103POPC   C1B46075  25.385  41.762   6.455
 9103POPC   C2B46076  25.363  41.736   6.755
 9103POPC   C3B46077  25.350  41.829   7.055
 9103POPC   C4B46078  25.363  41.738   7.355
 9104POPC   NC346079   5.914  20.563   5.555
 9104POPC   PO446080   5.888  20.575   5.855
 9104POPC   GL146081   5.916  20.643   6.155
 9104POPC   GL246082   5.939  20.472   6.155
 9104POPC   C1A46083   5.914  20.577   6.455
 9104POPC   D2A46084   5.855  20.655   6.755
 9104POPC   C3A46085   5.850  20.578   7.055
 9104POPC   C4A46086   5.856  20.628   7.355
 9104POPC   C1B46087   5.892  20.397   6.455
 9104POPC   C2B46088   5.911  20.371   6.755
 9104POPC   C3B46089   5.891  20.331   7.055
 9104POPC   C4B46090   5.950  20.387   7.355
 9105POPC   NC346091   4.335   2.751   5.555
 9105POPC   PO446092   4.301   2.801   5.855
 9105POPC   GL146093   4.341   2.726   6.155
 9105POPC   GL246094   4.207   2.718   6.155
 9105POPC   C1A46095   4.322   2.809   6.455
 9105POPC   D2A46096   4.346   2.731   6.755
 9105POPC   C3A46097   4.340   2.765   7.055
 9105POPC   C4A46098   4.302   2.757   7.355
 9105POPC   C1B46099   4.058   2.698   6.455
 9105POPC   C2B46100   4.049   2.630   6.755
 9105POPC   C3B46101   4.069   2.690   7.055
 9105POPC   C4B46102   4.110   2.698   7.355
 9106POPC   NC346103  39.274  13.634   5.555
 9106POPC   PO446104  39.237  13.669   5.855
 9106POPC   GL146105  39.233  13.584   6.155
 9106POPC   GL246106  39.128  13.641   6.155
 9106POPC   C1A46107  39.254  13.605   6.455
 9106POPC   D2A46108  39.272  13.600   6.755
 9106POPC   C3A46109  39.235  13.604   7.055
 9106POPC   C4A46110  39.211  13.602   7.355
 9106POPC   C1B46111  38.944  13.637   6.455
 9106POPC   C2B46112  39.023  13.695   6.755
 9106POPC   C3B46113  39.016  13.690   7.055
 9106POPC   C4B46114  38.971  13.657   7.355
 9107POPC   NC346115   8.186  40.029   5.555
 9107POPC   PO446116   8.228  40.005   5.855
 9107POPC   GL146117   8.235  40.016   6.155
 9107POPC   GL246118   8.094  39.963   6.155
 9107POPC   C1A46119   8.200  40.020   6.455
 9107POPC   D2A46120   8.241  40.012   6.755
 9107POPC   C3A46121   8.240  39.967   7.055
 9107POPC   C4A46122   8.170  40.021   7.355
 9107POPC   C1B46123   7.947  40.004   6.455
 9107POPC   C2B46124   7.921  39.946   6.755
 9107POPC   C3B46125   7.910  39.931   7.055
 9107POPC   C4B46126   7.908  39.977   7.355
 9108POPC   NC346127   3.571  39.994   5.555
 9108POPC   PO446128   3.507  39.978   5.855
 9108POPC   GL146129   3.588  39.997   6.155
 9108POPC   GL246130   3.614  40.104   6.155
 9108POPC   C1A46131   3.492  39.973   6.455
 9108POPC   D2A46132   3.566  39.987   6.755
 9108POPC   C3A46133   3.493  40.054   7.055
 9108POPC   C4A46134   3.530  40.009   7.355
 9108POPC   C1B46135   3.619  40.219   6.455
 9108POPC   C2B46136   3.661  40.271   6.755
 9108POPC   C3B46137   3.633  40.247   7.055
 9108POPC   C4B46138   3.682  40.184   7.355
 9109POPC   NC346139  32.222  42.354   5.555
 9109POPC   PO446140  32.281  42.309   5.855
 9109POPC   GL146141  32.250  42.372   6.155
 9109POPC   GL246142  32.260  42.459   6.155
 9109POPC   C1A46143  32.223  42.330   6.455
 9109POPC   D2A46144  32.288  42.322   6.755
 9109POPC   C3A46145  32.290  42.301   7.055
 9109POPC   C4A46146  32.201  42.313   7.355
 9109POPC   C1B46147  32.264  42.590   6.455
 9109POPC   C2B46148  32.333  42.581   6.755
 9109POPC   C3B46149  32.316  42.612   7.055
 9109POPC   C4B46150  32.352  42.543   7.355
 9110POPC   NC346151  15.917  42.334   5.555
 9110POPC   PO446152  15.935  42.349   5.855
 9110POPC   GL146153  15.957  42.316   6.155
 9110POPC   GL246154  16.097  42.343   6.155
 9110POPC   C1A46155  15.929  42.358   6.455
 9110POPC   D2A46156  15.942  42.338   6.755
 9110POPC   C3A46157  16.000  42.366   7.055
 9110POPC   C4A46158  15.982  42.345   7.355
 9110POPC   C1B46159  16.229  42.334   6.455
 9110POPC   C2B46160  16.218  42.408   6.755
 9110POPC   C3B46161  16.211  42.400   7.055
 9110POPC   C4B46162  16.209  42.392   7.355
 9111POPC   NC346163   9.700   5.120   5.555
 9111POPC   PO446164   9.754   5.109   5.855
 9111POPC   GL146165   9.796   5.115   6.155
 9111POPC   GL246166   9.728   5.193   6.155
 9111POPC   C1A46167   9.764   5.138   6.455
 9111POPC   D2A46168   9.785   5.066   6.755
 9111POPC   C3A46169   9.743   5.066   7.055
 9111POPC   C4A46170   9.780   5.059   7.355
 9111POPC   C1B46171   9.826   5.375   6.455
 9111POPC   C2B46172   9.773   5.355   6.755
 9111POPC   C3B46173   9.818   5.339   7.055
 9111POPC   C4B46174   9.773   5.286   7.355
 9112POPC   NC346175  18.296  30.731   5.555
 9112POPC   PO446176  18.322  30.678   5.855
 9112POPC   GL146177  18.243  30.710   6.155
 9112POPC   GL246178  18.261  30.616   6.155
 9112POPC   C1A46179  18.314  30.668   6.455
 9112POPC   D2A46180  18.243  30.736   6.755
 9112POPC   C3A46181  18.280  30.704   7.055
 9112POPC   C4A46182  18.304  30.659   7.355
 9112POPC   C1B46183  18.269  30.440   6.455
 9112POPC   C2B46184  18.281  30.467   6.755
 9112POPC   C3B46185  18.270  30.436   7.055
 9112POPC   C4B46186  18.292  30.491   7.355
 9113POPC   NC346187  11.294  35.376   5.555
 9113POPC   PO446188  11.317  35.381   5.855
 9113POPC   GL146189  11.299  35.374   6.155
 9113POPC   GL246190  11.430  35.424   6.155
 9113POPC   C1A46191  11.286  35.364   6.455
 9113POPC   D2A46192  11.254  35.379   6.755
 9113POPC   C3A46193  11.330  35.304   7.055
 9113POPC   C4A46194  11.275  35.340   7.355
 9113POPC   C1B46195  11.494  35.524   6.455
 9113POPC   C2B46196  11.477  35.559   6.755
 9113POPC   C3B46197  11.486  35.532   7.055
 9113POPC   C4B46198  11.465  35.535   7.355
 9114POPC   NC346199  24.506  15.190   5.555
 9114POPC   PO446200  24.454  15.164   5.855
 9114POPC   GL146201  24.519  15.203   6.155
 9114POPC   GL246202  24.492  15.248   6.155
 9114POPC   C1A46203  24.475  15.151   6.455
 9114POPC   D2A46204  24.497  15.228   6.755
 9114POPC   C3A46205  24.472  15.137   7.055
 9114POPC   C4A46206  24.505  15.144   7.355
 9114POPC   C1B46207  24.614  15.401   6.455
 9114POPC   C2B46208  24.547  15.376   6.755
 9114POPC   C3B46209  24.602  15.434   7.055
 9114POPC   C4B46210  24.629  15.392   7.355
 9115POPC   NC346211  17.463   1.245   5.555
 9115POPC   PO446212  17.479   1.230   5.855
 9115POPC   GL146213  17.550   1.262   6.155
 9115POPC   GL246214  17.597   1.179   6.155
 9115POPC   C1A46215  17.497   1.261   6.455
 9115POPC   D2A46216  17.509   1.200   6.755
 9115POPC   C3A46217  17.507   1.229   7.055
 9115POPC   C4A46218  17.493   1.203   7.355
 9115POPC   C1B46219  17.754   1.241   6.455
 9115POPC   C2B46220  17.775   1.221   6.755
 9115POPC   C3B46221  17.713   1.216   7.055
 9115POPC   C4B46222  17.744   1.261   7.355
 9116POPC   NC346223  37.654  36.170   5.555
 9116POPC   PO446224  37.684  36.128   5.855
 9116POPC   GL146225  37.678  36.160   6.155
 9116POPC   GL246226  37.631  36.054   6.155
 9116POPC   C1A46227  37.708  36.093   6.455
 9116POPC   D2A46228  37.706  36.110   6.755
 9116POPC   C3A46229  37.709  36.125   7.055
 9116POPC   C4A46230  37.679  36.170   7.355
 9116POPC   C1B46231  37.529  35.946   6.455
 9116POPC   C2B46232  37.562  35.891   6.755
 9116POPC   C3B46233  37.549  35.960   7.055
 9116POPC   C4B46234  37.556  35.882   7.355
 9117POPC   NC346235  18.317  24.476   5.555
 9117POPC   PO446236  18.285  24.490   5.855
 9117POPC   GL146237  18.252  24.463   6.155
 9117POPC   GL246238  18.178  24.408   6.155
 9117POPC   C1A46239  18.268  24.499   6.455
 9117POPC   D2A46240  18.294  24.443   6.755
 9117POPC   C3A46241  18.241  24.516   7.055
 9117POPC   C4A46242  18.259  24.455   7.355
 9117POPC   C1B46243  18.117  24.392   6.455
 9117POPC   C2B46244  18.080  24.357   6.755
 9117POPC   C3B46245  18.080  24.311   7.055
 9117POPC   C4B46246  18.100  24.366   7.355
 9118POPC   NC346247  22.984   6.693   5.555
 9118POPC   PO446248  22.932   6.656   5.855
 9118POPC   GL146249  22.915   6.643   6.155
 9118POPC   GL246250  22.823   6.627   6.155
 9118POPC   C1A46251  22.958   6.608   6.455
 9118POPC   D2A46252  22.982   6.681   6.755
 9118POPC   C3A46253  22.926   6.687   7.055
 9118POPC   C4A46254  22.950   6.693   7.355
 9118POPC   C1B46255  22.712   6.671   6.455
 9118POPC   C2B46256  22.710   6.723   6.755
 9118POPC   C3B46257  22.739   6.646   7.055
 9118POPC   C4B46258  22.686   6.656   7.355
 9119POPC   NC346259  17.545  31.461   5.555
 9119POPC   PO446260  17.546  31.434   5.855
 9119POPC   GL146261  17.504  31.432   6.155
 9119POPC   GL246262  17.502  31.345   6.155
 9119POPC   C1A46263  17.461  31.514   6.455
 9119POPC   D2A46264  17.525  31.473   6.755
 9119POPC   C3A46265  17.465  31.457   7.055
 9119POPC   C4A46266  17.501  31.471   7.355
 9119POPC   C1B46267  17.424  31.220   6.455
 9119POPC   C2B46268  17.395  31.188   6.755
 9119POPC   C3B46269  17.441  31.216   7.055
 9119POPC   C4B46270  17.447  31.256   7.355
 9120POPC   NC346271  13.627   5.863   5.555
 9120POPC   PO446272  13.616   5.843   5.855
 9120POPC   GL146273  13.600   5.900   6.155
 9120POPC   GL246274  13.517   6.015   6.155
 9120POPC   C1A46275  13.618   5.828   6.455
 9120POPC   D2A46276  13.660   5.852   6.755
 9120POPC   C3A46277  13.625   5.843   7.055
 9120POPC   C4A46278  13.595   5.898   7.355
 9120POPC   C1B46279  13.494   6.040   6.455
 9120POPC   C2B46280  13.510   6.130   6.755
 9120POPC   C3B46281  13.509   6.131   7.055
 9120POPC   C4B46282  13.477   6.121   7.355
 9121POPC   NC346283   3.572  37.719   5.555
 9121POPC   PO446284   3.541  37.641   5.855
 9121POPC   GL146285   3.573  37.691   6.155
 9121POPC   GL246286   3.418  37.573   6.155
 9121POPC   C1A46287   3.579  37.698   6.455
 9121POPC   D2A46288   3.551  37.658   6.755
 9121POPC   C3A46289   3.584  37.683   7.055
 9121POPC   C4A46290   3.530  37.639   7.355
 9121POPC   C1B46291   3.292  37.590   6.455
 9121POPC   C2B46292   3.326  37.545   6.755
 9121POPC   C3B46293   3.333  37.581   7.055
 9121POPC   C4B46294   3.331  37.516   7.355
 9122POPC   NC346295  32.257   5.067   5.555
 9122POPC   PO446296  32.238   5.112   5.855
 9122POPC   GL146297  32.280   5.110   6.155
 9122POPC   GL246298  32.124   5.071   6.155
 9122POPC   C1A46299  32.215   5.105   6.455
 9122POPC   D2A46300  32.234   5.114   6.755
 9122POPC   C3A46301  32.207   5.045   7.055
 9122POPC   C4A46302  32.278   5.073   7.355
 9122POPC   C1B46303  32.020   5.153   6.455
 9122POPC   C2B46304  31.973   5.098   6.755
 9122POPC   C3B46305  32.015   5.123   7.055
 9122POPC   C4B46306  31.961   5.162   7.355
 9123POPC   NC346307  23.727   8.185   5.555
 9123POPC   PO446308  23.684   8.228   5.855
 9123POPC   GL146309  23.749   8.191   6.155
 9123POPC   GL246310  23.610   8.207   6.155
 9123POPC   C1A46311  23.729   8.201   6.455
 9123POPC   D2A46312  23.676   8.156   6.755
 9123POPC   C3A46313  23.674   8.228   7.055
 9123POPC   C4A46314  23.703   8.168   7.355
 9123POPC   C1B46315  23.430   8.165   6.455
 9123POPC   C2B46316  23.494   8.179   6.755
 9123POPC   C3B46317  23.471   8.199   7.055
 9123POPC   C4B46318  23.501   8.192   7.355
 9124POPC   NC346319   9.768   0.418   5.555
 9124POPC   PO446320   9.790   0.400   5.855
 9124POPC   GL146321   9.729   0.416   6.155
 9124POPC   GL246322   9.789   0.370   6.155
 9124POPC   C1A46323   9.777   0.410   6.455
 9124POPC   D2A46324   9.775   0.476   6.755
 9124POPC   C3A46325   9.789   0.445   7.055
 9124POPC   C4A46326   9.776   0.404   7.355
 9124POPC   C1B46327   9.871   0.204   6.455
 9124POPC   C2B46328   9.832   0.254   6.755
 9124POPC   C3B46329   9.841   0.221   7.055
 9124POPC   C4B46330   9.810   0.163   7.355
 9125POPC   NC346331  43.138  39.973   5.555
 9125POPC   PO446332  43.079  39.966   5.855
 9125POPC   GL146333  43.121  40.039   6.155
 9125POPC   GL246334  42.981  39.964   6.155
 9125POPC   C1A46335  43.082  39.965   6.455
 9125POPC   D2A46336  43.146  39.970   6.755
 9125POPC   C3A46337  43.118  40.040   7.055
 9125POPC   C4A46338  43.146  40.000   7.355
 9125POPC   C1B46339  42.847  39.911   6.455
 9125POPC   C2B46340  42.894  39.927   6.755
 9125POPC   C3B46341  42.827  39.879   7.055
 9125POPC   C4B46342  42.861  39.972   7.355
 9126POPC   NC346343  28.364   8.991   5.555
 9126POPC   PO446344  28.343   8.961   5.855
 9126POPC   GL146345  28.402   8.956   6.155
 9126POPC   GL246346  28.361   9.074   6.155
 9126POPC   C1A46347  28.354   8.996   6.455
 9126POPC   D2A46348  28.357   8.947   6.755
 9126POPC   C3A46349  28.330   9.004   7.055
 9126POPC   C4A46350  28.406   8.931   7.355
 9126POPC   C1B46351  28.414   9.170   6.455
 9126POPC   C2B46352  28.387   9.199   6.755
 9126POPC   C3B46353  28.448   9.168   7.055
 9126POPC   C4B46354  28.411   9.237   7.355
 9127POPC   NC346355  23.741   8.982   5.555
 9127POPC   PO446356  23.762   9.019   5.855
 9127POPC   GL146357  23.749   8.924   6.155
 9127POPC   GL246358  23.651   9.077   6.155
 9127POPC   C1A46359  23.738   8.969   6.455
 9127POPC   D2A46360  23.756   8.962   6.755
 9127POPC   C3A46361  23.688   8.955   7.055
 9127POPC   C4A46362  23.738   8.941   7.355
 9127POPC   C1B46363  23.583   9.169   6.455
 9127POPC   C2B46364  23.637   9.143   6.755
 9127POPC   C3B46365  23.605   9.158   7.055
 9127POPC   C4B46366  23.566   9.144   7.355
 9128POPC   NC346367  35.360  13.658   5.555
 9128POPC   PO446368  35.357  13.604   5.855
 9128POPC   GL146369  35.382  13.585   6.155
 9128POPC   GL246370  35.193  13.559   6.155
 9128POPC   C1A46371  35.395  13.649   6.455
 9128POPC   D2A46372  35.390  13.663   6.755
 9128POPC   C3A46373  35.390  13.660   7.055
 9128POPC   C4A46374  35.333  13.623   7.355
 9128POPC   C1B46375  35.121  13.562   6.455
 9128POPC   C2B46376  35.109  13.497   6.755
 9128POPC   C3B46377  35.074  13.576   7.055
 9128POPC   C4B46378  35.126  13.559   7.355
 9129POPC   NC346379  30.648   9.714   5.555
 9129POPC   PO446380  30.672   9.754   5.855
 9129POPC   GL146381  30.722   9.758   6.155
 9129POPC   GL246382  30.807   9.774   6.155
 9129POPC   C1A46383  30.708   9.797   6.455
 9129POPC   D2A46384  30.684   9.709   6.755
 9129POPC   C3A46385  30.691   9.728   7.055
 9129POPC   C4A46386  30.683   9.718   7.355
 9129POPC   C1B46387  30.947   9.875   6.455
 9129POPC   C2B46388  30.903   9.826   6.755
 9129POPC   C3B46389  30.939   9.878   7.055
 9129POPC   C4B46390  30.919   9.859   7.355
 9130POPC   NC346391  43.148   3.558   5.555
 9130POPC   PO446392  43.155   3.544   5.855
 9130POPC   GL146393  43.104   3.540   6.155
 9130POPC   GL246394  43.075   3.453   6.155
 9130POPC   C1A46395  43.082   3.509   6.455
 9130POPC   D2A46396  43.125   3.501   6.755
 9130POPC   C3A46397  43.142   3.590   7.055
 9130POPC   C4A46398  43.155   3.557   7.355
 9130POPC   C1B46399  43.091   3.329   6.455
 9130POPC   C2B46400  43.161   3.317   6.755
 9130POPC   C3B46401  43.116   3.339   7.055
 9130POPC   C4B46402  43.097   3.298   7.355
 9131POPC   NC346403  26.078  31.474   5.555
 9131POPC   PO446404  26.033  31.522   5.855
 9131POPC   GL146405  26.002  31.505   6.155
 9131POPC   GL246406  26.160  31.556   6.155
 9131POPC   C1A46407  26.078  31.469   6.455
 9131POPC   D2A46408  26.079  31.509   6.755
 9131POPC   C3A46409  26.088  31.522   7.055
 9131POPC   C4A46410  26.014  31.461   7.355
 9131POPC   C1B46411  26.298  31.548   6.455
 9131POPC   C2B46412  26.314  31.554   6.755
 9131POPC   C3B46413  26.242  31.543   7.055
 9131POPC   C4B46414  26.257  31.507   7.355
 9132POPC   NC346415  36.949  29.879   5.555
 9132POPC   PO446416  36.934  29.921   5.855
 9132POPC   GL146417  36.878  29.919   6.155
 9132POPC   GL246418  36.823  29.859   6.155
 9132POPC   C1A46419  36.925  29.940   6.455
 9132POPC   D2A46420  36.925  29.881   6.755
 9132POPC   C3A46421  36.918  29.938   7.055
 9132POPC   C4A46422  36.929  29.940   7.355
 9132POPC   C1B46423  36.721  29.859   6.455
 9132POPC   C2B46424  36.690  29.795   6.755
 9132POPC   C3B46425  36.673  29.792   7.055
 9132POPC   C4B46426  36.677  29.834   7.355
 9133POPC   NC346427  15.163   5.859   5.555
 9133POPC   PO446428  15.193   5.861   5.855
 9133POPC   GL146429  15.184   5.828   6.155
 9133POPC   GL246430  15.062   5.909   6.155
 9133POPC   C1A46431  15.148   5.825   6.455
 9133POPC   D2A46432  15.166   5.831   6.755
 9133POPC   C3A46433  15.193   5.844   7.055
 9133POPC   C4A46434  15.211   5.907   7.355
 9133POPC   C1B46435  14.948   5.892   6.455
 9133POPC   C2B46436  14.985   5.975   6.755
 9133POPC   C3B46437  14.903   5.940   7.055
 9133POPC   C4B46438  14.932   5.956   7.355
 9134POPC   NC346439  35.312  12.081   5.555
 9134POPC   PO446440  35.373  12.093   5.855
 9134POPC   GL146441  35.362  12.089   6.155
 9134POPC   GL246442  35.513  12.054   6.155
 9134POPC   C1A46443  35.322  12.084   6.455
 9134POPC   D2A46444  35.344  12.039   6.755
 9134POPC   C3A46445  35.326  12.105   7.055
 9134POPC   C4A46446  35.379  12.029   7.355
 9134POPC   C1B46447  35.599  12.023   6.455
 9134POPC   C2B46448  35.615  12.060   6.755
 9134POPC   C3B46449  35.576  12.044   7.055
 9134POPC   C4B46450  35.645  12.038   7.355
 9135POPC   NC346451  27.607   7.411   5.555
 9135POPC   PO446452  27.589   7.428   5.855
 9135POPC   GL146453  27.569   7.399   6.155
 9135POPC   GL246454  27.743   7.485   6.155
 9135POPC   C1A46455  27.550   7.392   6.455
 9135POPC   D2A46456  27.573   7.437   6.755
 9135POPC   C3A46457  27.569   7.420   7.055
 9135POPC   C4A46458  27.612   7.376   7.355
 9135POPC   C1B46459  27.878   7.515   6.455
 9135POPC   C2B46460  27.805   7.447   6.755
 9135POPC   C3B46461  27.870   7.531   7.055
 9135POPC   C4B46462  27.879   7.488   7.355
 9136POPC   NC346463  18.264  38.442   5.555
 9136POPC   PO446464  18.316  38.465   5.855
 9136POPC   GL146465  18.322  38.421   6.155
 9136POPC   GL246466  18.395  38.445   6.155
 9136POPC   C1A46467  18.239  38.424   6.455
 9136POPC   D2A46468  18.320  38.422   6.755
 9136POPC   C3A46469  18.296  38.455   7.055
 9136POPC   C4A46470  18.300  38.440   7.355
 9136POPC   C1B46471  18.495  38.517   6.455
 9136POPC   C2B46472  18.525  38.495   6.755
 9136POPC   C3B46473  18.506  38.480   7.055
 9136POPC   C4B46474  18.505  38.500   7.355
 9137POPC   NC346475  13.619  27.557   5.555
 9137POPC   PO446476  13.649  27.559   5.855
 9137POPC   GL146477  13.662  27.561   6.155
 9137POPC   GL246478  13.541  27.681   6.155
 9137POPC   C1A46479  13.606  27.642   6.455
 9137POPC   D2A46480  13.631  27.640   6.755
 9137POPC   C3A46481  13.604  27.586   7.055
 9137POPC   C4A46482  13.636  27.633   7.355
 9137POPC   C1B46483  13.432  27.698   6.455
 9137POPC   C2B46484  13.408  27.749   6.755
 9137POPC   C3B46485  13.362  27.658   7.055
 9137POPC   C4B46486  13.386  27.689   7.355
 9138POPC   NC346487  33.847  21.373   5.555
 9138POPC   PO446488  33.759  21.386   5.855
 9138POPC   GL146489  33.801  21.419   6.155
 9138POPC   GL246490  33.917  21.457   6.155
 9138POPC   C1A46491  33.849  21.395   6.455
 9138POPC   D2A46492  33.832  21.433   6.755
 9138POPC   C3A46493  33.826  21.351   7.055
 9138POPC   C4A46494  33.754  21.430   7.355
 9138POPC   C1B46495  33.967  21.614   6.455
 9138POPC   C2B46496  33.937  21.525   6.755
 9138POPC   C3B46497  33.982  21.524   7.055
 9138POPC   C4B46498  34.000  21.547   7.355
 9139POPC   NC346499  31.433   2.001   5.555
 9139POPC   PO446500  31.473   1.968   5.855
 9139POPC   GL146501  31.493   2.033   6.155
 9139POPC   GL246502  31.432   1.911   6.155
 9139POPC   C1A46503  31.510   2.026   6.455
 9139POPC   D2A46504  31.460   2.026   6.755
 9139POPC   C3A46505  31.428   1.970   7.055
 9139POPC   C4A46506  31.479   1.957   7.355
 9139POPC   C1B46507  31.332   1.744   6.455
 9139POPC   C2B46508  31.329   1.737   6.755
 9139POPC   C3B46509  31.357   1.726   7.055
 9139POPC   C4B46510  31.381   1.739   7.355
 9140POPC   NC346511  24.533  32.988   5.555
 9140POPC   PO446512  24.457  33.063   5.855
 9140POPC   GL146513  24.454  33.045   6.155
 9140POPC   GL246514  24.412  32.904   6.155
 9140POPC   C1A46515  24.487  33.064   6.455
 9140POPC   D2A46516  24.502  33.071   6.755
 9140POPC   C3A46517  24.507  33.017   7.055
 9140POPC   C4A46518  24.506  33.009   7.355
 9140POPC   C1B46519  24.399  32.825   6.455
 9140POPC   C2B46520  24.375  32.753   6.755
 9140POPC   C3B46521  24.426  32.778   7.055
 9140POPC   C4B46522  24.365  32.840   7.355
 9141POPC   NC346523  19.050  12.063   5.555
 9141POPC   PO446524  19.010  12.074   5.855
 9141POPC   GL146525  19.031  12.029   6.155
 9141POPC   GL246526  19.082  11.973   6.155
 9141POPC   C1A46527  19.027  12.098   6.455
 9141POPC   D2A46528  19.069  12.070   6.755
 9141POPC   C3A46529  19.054  12.071   7.055
 9141POPC   C4A46530  19.043  12.114   7.355
 9141POPC   C1B46531  19.087  11.881   6.455
 9141POPC   C2B46532  19.169  11.838   6.755
 9141POPC   C3B46533  19.123  11.877   7.055
 9141POPC   C4B46534  19.107  11.789   7.355
 9142POPC   NC346535  36.095  39.990   5.555
 9142POPC   PO446536  36.147  40.015   5.855
 9142POPC   GL146537  36.127  39.973   6.155
 9142POPC   GL246538  36.203  40.148   6.155
 9142POPC   C1A46539  36.139  40.015   6.455
 9142POPC   D2A46540  36.150  39.965   6.755
 9142POPC   C3A46541  36.152  39.962   7.055
 9142POPC   C4A46542  36.162  39.991   7.355
 9142POPC   C1B46543  36.344  40.191   6.455
 9142POPC   C2B46544  36.329  40.225   6.755
 9142POPC   C3B46545  36.272  40.237   7.055
 9142POPC   C4B46546  36.261  40.219   7.355
 9143POPC   NC346547  19.824  35.391   5.555
 9143POPC   PO446548  19.795  35.327   5.855
 9143POPC   GL146549  19.873  35.369   6.155
 9143POPC   GL246550  19.760  35.266   6.155
 9143POPC   C1A46551  19.874  35.375   6.455
 9143POPC   D2A46552  19.844  35.332   6.755
 9143POPC   C3A46553  19.841  35.306   7.055
 9143POPC   C4A46554  19.816  35.371   7.355
 9143POPC   C1B46555  19.680  35.165   6.455
 9143POPC   C2B46556  19.634  35.197   6.755
 9143POPC   C3B46557  19.662  35.157   7.055
 9143POPC   C4B46558  19.614  35.223   7.355
 9144POPC   NC346559  22.984   4.285   5.555
 9144POPC   PO446560  22.895   4.362   5.855
 9144POPC   GL146561  22.916   4.348   6.155
 9144POPC   GL246562  22.824   4.437   6.155
 9144POPC   C1A46563  22.940   4.311   6.455
 9144POPC   D2A46564  22.924   4.298   6.755
 9144POPC   C3A46565  22.979   4.340   7.055
 9144POPC   C4A46566  22.947   4.308   7.355
 9144POPC   C1B46567  22.767   4.528   6.455
 9144POPC   C2B46568  22.810   4.520   6.755
 9144POPC   C3B46569  22.805   4.450   7.055
 9144POPC   C4B46570  22.751   4.522   7.355
 9145POPC   NC346571  27.571   9.749   5.555
 9145POPC   PO446572  27.612   9.721   5.855
 9145POPC   GL146573  27.638   9.797   6.155
 9145POPC   GL246574  27.506   9.660   6.155
 9145POPC   C1A46575  27.563   9.751   6.455
 9145POPC   D2A46576  27.624   9.760   6.755
 9145POPC   C3A46577  27.564   9.754   7.055
 9145POPC   C4A46578  27.602   9.709   7.355
 9145POPC   C1B46579  27.368   9.592   6.455
 9145POPC   C2B46580  27.407   9.580   6.755
 9145POPC   C3B46581  27.385   9.601   7.055
 9145POPC   C4B46582  27.385   9.627   7.355
 9146POPC   NC346583  34.535  33.025   5.555
 9146POPC   PO446584  34.547  33.031   5.855
 9146POPC   GL146585  34.588  33.044   6.155
 9146POPC   GL246586  34.509  32.905   6.155
 9146POPC   C1A46587  34.548  33.008   6.455
 9146POPC   D2A46588  34.535  33.069   6.755
 9146POPC   C3A46589  34.607  33.035   7.055
 9146POPC   C4A46590  34.532  33.065   7.355
 9146POPC   C1B46591  34.556  32.782   6.455
 9146POPC   C2B46592  34.516  32.740   6.755
 9146POPC   C3B46593  34.555  32.795   7.055
 9146POPC   C4B46594  34.476  32.817   7.355
 9147POPC   NC346595  28.363   4.358   5.555
 9147POPC   PO446596  28.377   4.341   5.855
 9147POPC   GL146597  28.398   4.307   6.155
 9147POPC   GL246598  28.270   4.341   6.155
 9147POPC   C1A46599  28.366   4.318   6.455
 9147POPC   D2A46600  28.328   4.269   6.755
 9147POPC   C3A46601  28.369   4.333   7.055
 9147POPC   C4A46602  28.390   4.295   7.355
 9147POPC   C1B46603  28.097   4.248   6.455
 9147POPC   C2B46604  28.166   4.288   6.755
 9147POPC   C3B46605  28.116   4.328   7.055
 9147POPC   C4B46606  28.159   4.314   7.355
 9148POPC   NC346607  40.824  18.278   5.555
 9148POPC   PO446608  40.766  18.295   5.855
 9148POPC   GL146609  40.830  18.288   6.155
 9148POPC   GL246610  40.619  18.262   6.155
 9148POPC   C1A46611  40.795  18.304   6.455
 9148POPC   D2A46612  40.780  18.302   6.755
 9148POPC   C3A46613  40.767  18.233   7.055
 9148POPC   C4A46614  40.735  18.302   7.355
 9148POPC   C1B46615  40.574  18.221   6.455
 9148POPC   C2B46616  40.517  18.223   6.755
 9148POPC   C3B46617  40.557  18.265   7.055
 9148POPC   C4B46618  40.571  18.296   7.355
 9149POPC   NC346619  14.374  39.959   5.555
 9149POPC   PO446620  14.444  39.977   5.855
 9149POPC   GL146621  14.440  40.001   6.155
 9149POPC   GL246622  14.494  39.876   6.155
 9149POPC   C1A46623  14.389  39.990   6.455
 9149POPC   D2A46624  14.443  40.021   6.755
 9149POPC   C3A46625  14.410  40.041   7.055
 9149POPC   C4A46626  14.362  39.957   7.355
 9149POPC   C1B46627  14.461  39.743   6.455
 9149POPC   C2B46628  14.513  39.785   6.755
 9149POPC   C3B46629  14.479  39.814   7.055
 9149POPC   C4B46630  14.489  39.823   7.355
 9150POPC   NC346631  40.004  32.268   5.555
 9150POPC   PO446632  40.044  32.296   5.855
 9150POPC   GL146633  40.040  32.229   6.155
 9150POPC   GL246634  39.989  32.325   6.155
 9150POPC   C1A46635  40.018  32.225   6.455
 9150POPC   D2A46636  40.049  32.201   6.755
 9150POPC   C3A46637  39.992  32.221   7.055
 9150POPC   C4A46638  40.036  32.222   7.355
 9150POPC   C1B46639  39.859  32.445   6.455
 9150POPC   C2B46640  39.851  32.503   6.755
 9150POPC   C3B46641  39.899  32.507   7.055
 9150POPC   C4B46642  39.828  32.422   7.355
 9151POPC   NC346643  26.011  22.945   5.555
 9151POPC   PO446644  26.052  22.941   5.855
 9151POPC   GL146645  26.045  22.945   6.155
 9151POPC   GL246646  26.031  22.817   6.155
 9151POPC   C1A46647  26.002  22.910   6.455
 9151POPC   D2A46648  26.058  22.938   6.755
 9151POPC   C3A46649  26.021  22.931   7.055
 9151POPC   C4A46650  26.008  22.939   7.355
 9151POPC   C1B46651  25.900  22.713   6.455
 9151POPC   C2B46652  25.886  22.732   6.755
 9151POPC   C3B46653  25.969  22.741   7.055
 9151POPC   C4B46654  25.953  22.733   7.355
 9152POPC   NC346655   8.930  10.568   5.555
 9152POPC   PO446656   9.019  10.529   5.855
 9152POPC   GL146657   8.938  10.492   6.155
 9152POPC   GL246658   9.088  10.434   6.155
 9152POPC   C1A46659   8.994  10.539   6.455
 9152POPC   D2A46660   8.939  10.523   6.755
 9152POPC   C3A46661   8.933  10.544   7.055
 9152POPC   C4A46662   9.012  10.562   7.355
 9152POPC   C1B46663   9.167  10.364   6.455
 9152POPC   C2B46664   9.154  10.385   6.755
 9152POPC   C3B46665   9.214  10.364   7.055
 9152POPC   C4B46666   9.145  10.317   7.355
 9153POPC   NC346667   5.132  12.802   5.555
 9153POPC   PO446668   5.137  12.898   5.855
 9153POPC   GL146669   5.056  12.888   6.155
 9153POPC   GL246670   4.971  12.931   6.155
 9153POPC   C1A46671   5.046  12.866   6.455
 9153POPC   D2A46672   5.095  12.848   6.755
 9153POPC   C3A46673   5.076  12.865   7.055
 9153POPC   C4A46674   5.126  12.901   7.355
 9153POPC   C1B46675   4.929  13.094   6.455
 9153POPC   C2B46676   4.901  13.035   6.755
 9153POPC   C3B46677   4.957  13.105   7.055
 9153POPC   C4B46678   4.978  13.077   7.355
 9154POPC   NC346679  35.340  19.833   5.555
 9154POPC   PO446680  35.391  19.869   5.855
 9154POPC   GL146681  35.306  19.795   6.155
 9154POPC   GL246682  35.247  19.911   6.155
 9154POPC   C1A46683  35.383  19.884   6.455
 9154POPC   D2A46684  35.376  19.882   6.755
 9154POPC   C3A46685  35.369  19.813   7.055
 9154POPC   C4A46686  35.383  19.848   7.355
 9154POPC   C1B46687  35.261  20.059   6.455
 9154POPC   C2B46688  35.254  20.032   6.755
 9154POPC   C3B46689  35.192  20.081   7.055
 9154POPC   C4B46690  35.181  20.085   7.355
 9155POPC   NC346691  19.866  43.103   5.555
 9155POPC   PO446692  19.804  43.138   5.855
 9155POPC   GL146693  19.816  43.158   6.155
 9155POPC   GL246694  19.713  43.030   6.155
 9155POPC   C1A46695  19.821  43.158   6.455
 9155POPC   D2A46696  19.790  43.127   6.755
 9155POPC   C3A46697  19.873  43.138   7.055
 9155POPC   C4A46698  19.823  43.133   7.355
 9155POPC   C1B46699  19.670  42.912   6.455
 9155POPC   C2B46700  19.655  42.964   6.755
 9155POPC   C3B46701  19.683  42.944   7.055
 9155POPC   C4B46702  19.695  42.959   7.355
 9156POPC   NC346703  34.542   8.973   5.555
 9156POPC   PO446704  34.537   8.967   5.855
 9156POPC   GL146705  34.625   8.981   6.155
 9156POPC   GL246706  34.460   8.934   6.155
 9156POPC   C1A46707  34.588   9.011   6.455
 9156POPC   D2A46708  34.587   8.976   6.755
 9156POPC   C3A46709  34.622   9.014   7.055
 9156POPC   C4A46710  34.540   8.987   7.355
 9156POPC   C1B46711  34.361   8.867   6.455
 9156POPC   C2B46712  34.341   8.884   6.755
 9156POPC   C3B46713  34.363   8.841   7.055
 9156POPC   C4B46714  34.310   8.832   7.355
 9157POPC   NC346715  30.661   1.954   5.555
 9157POPC   PO446716  30.730   1.973   5.855
 9157POPC   GL146717  30.698   1.968   6.155
 9157POPC   GL246718  30.738   1.830   6.155
 9157POPC   C1A46719  30.674   1.949   6.455
 9157POPC   D2A46720  30.656   1.957   6.755
 9157POPC   C3A46721  30.655   2.015   7.055
 9157POPC   C4A46722  30.702   1.985   7.355
 9157POPC   C1B46723  30.814   1.793   6.455
 9157POPC   C2B46724  30.742   1.800   6.755
 9157POPC   C3B46725  30.776   1.792   7.055
 9157POPC   C4B46726  30.807   1.755   7.355
 9158POPC   NC346727   5.853  33.826   5.555
 9158POPC   PO446728   5.861  33.784   5.855
 9158POPC   GL146729   5.826  33.817   6.155
 9158POPC   GL246730   5.833  33.728   6.155
 9158POPC   C1A46731   5.827  33.836   6.455
 9158POPC   D2A46732   5.888  33.846   6.755
 9158POPC   C3A46733   5.847  33.792   7.055
 9158POPC   C4A46734   5.893  33.820   7.355
 9158POPC   C1B46735   5.721  33.602   6.455
 9158POPC   C2B46736   5.692  33.593   6.755
 9158POPC   C3B46737   5.767  33.546   7.055
 9158POPC   C4B46738   5.749  33.562   7.355
 9159POPC   NC346739   1.992  12.111   5.555
 9159POPC   PO446740   1.983  12.030   5.855
 9159POPC   GL146741   1.965  12.083   6.155
 9159POPC   GL246742   2.042  11.977   6.155
 9159POPC   C1A46743   1.950  12.083   6.455
 9159POPC   D2A46744   1.986  12.115   6.755
 9159POPC   C3A46745   2.040  12.117   7.055
 9159POPC   C4A46746   2.013  12.091   7.355
 9159POPC   C1B46747   2.111  11.940   6.455
 9159POPC   C2B46748   2.208  11.869   6.755
 9159POPC   C3B46749   2.163  11.847   7.055
 9159POPC   C4B46750   2.193  11.912   7.355
 9160POPC   NC346751  22.167  34.547   5.555
 9160POPC   PO446752  22.153  34.545   5.855
 9160POPC   GL146753  22.188  34.622   6.155
 9160POPC   GL246754  22.300  34.617   6.155
 9160POPC   C1A46755  22.157  34.572   6.455
 9160POPC   D2A46756  22.131  34.602   6.755
 9160POPC   C3A46757  22.163  34.619   7.055
 9160POPC   C4A46758  22.200  34.573   7.355
 9160POPC   C1B46759  22.351  34.749   6.455
 9160POPC   C2B46760  22.377  34.731   6.755
 9160POPC   C3B46761  22.423  34.693   7.055
 9160POPC   C4B46762  22.361  34.701   7.355
 9161POPC   NC346763  18.266  13.592   5.555
 9161POPC   PO446764  18.239  13.659   5.855
 9161POPC   GL146765  18.251  13.601   6.155
 9161POPC   GL246766  18.378  13.689   6.155
 9161POPC   C1A46767  18.320  13.659   6.455
 9161POPC   D2A46768  18.314  13.582   6.755
 9161POPC   C3A46769  18.270  13.664   7.055
 9161POPC   C4A46770  18.328  13.611   7.355
 9161POPC   C1B46771  18.499  13.713   6.455
 9161POPC   C2B46772  18.476  13.657   6.755
 9161POPC   C3B46773  18.501  13.735   7.055
 9161POPC   C4B46774  18.562  13.718   7.355
 9162POPC   NC346775   0.429  33.835   5.555
 9162POPC   PO446776   0.390  33.762   5.855
 9162POPC   GL146777   0.468  33.790   6.155
 9162POPC   GL246778   0.467  33.712   6.155
 9162POPC   C1A46779   0.407  33.798   6.455
 9162POPC   D2A46780   0.392  33.753   6.755
 9162POPC   C3A46781   0.471  33.844   7.055
 9162POPC   C4A46782   0.476  33.767   7.355
 9162POPC   C1B46783   0.401  33.565   6.455
 9162POPC   C2B46784   0.464  33.562   6.755
 9162POPC   C3B46785   0.429  33.518   7.055
 9162POPC   C4B46786   0.421  33.599   7.355
 9163POPC   NC346787  38.456  22.121   5.555
 9163POPC   PO446788  38.441  22.174   5.855
 9163POPC   GL146789  38.465  22.193   6.155
 9163POPC   GL246790  38.582  22.229   6.155
 9163POPC   C1A46791  38.430  22.167   6.455
 9163POPC   D2A46792  38.452  22.201   6.755
 9163POPC   C3A46793  38.419  22.128   7.055
 9163POPC   C4A46794  38.494  22.179   7.355
 9163POPC   C1B46795  38.636  22.312   6.455
 9163POPC   C2B46796  38.595  22.380   6.755
 9163POPC   C3B46797  38.604  22.340   7.055
 9163POPC   C4B46798  38.599  22.391   7.355
 9164POPC   NC346799  26.858  14.416   5.555
 9164POPC   PO446800  26.859  14.424   5.855
 9164POPC   GL146801  26.823  14.360   6.155
 9164POPC   GL246802  26.806  14.528   6.155
 9164POPC   C1A46803  26.779  14.359   6.455
 9164POPC   D2A46804  26.849  14.392   6.755
 9164POPC   C3A46805  26.847  14.432   7.055
 9164POPC   C4A46806  26.770  14.370   7.355
 9164POPC   C1B46807  26.809  14.682   6.455
 9164POPC   C2B46808  26.804  14.663   6.755
 9164POPC   C3B46809  26.853  14.672   7.055
 9164POPC   C4B46810  26.786  14.644   7.355
 9165POPC   NC346811  21.423  36.918   5.555
 9165POPC   PO446812  21.385  36.879   5.855
 9165POPC   GL146813  21.432  36.881   6.155
 9165POPC   GL246814  21.335  37.024   6.155
 9165POPC   C1A46815  21.345  36.881   6.455
 9165POPC   D2A46816  21.382  36.868   6.755
 9165POPC   C3A46817  21.357  36.953   7.055
 9165POPC   C4A46818  21.370  36.871   7.355
 9165POPC   C1B46819  21.285  37.123   6.455
 9165POPC   C2B46820  21.290  37.121   6.755
 9165POPC   C3B46821  21.300  37.155   7.055
 9165POPC   C4B46822  21.281  37.135   7.355
 9166POPC   NC346823  33.074  19.084   5.555
 9166POPC   PO446824  33.062  19.090   5.855
 9166POPC   GL146825  33.065  19.050   6.155
 9166POPC   GL246826  32.864  19.076   6.155
 9166POPC   C1A46827  32.984  19.077   6.455
 9166POPC   D2A46828  33.032  19.010   6.755
 9166POPC   C3A46829  33.042  19.095   7.055
 9166POPC   C4A46830  33.051  19.026   7.355
 9166POPC   C1B46831  32.847  19.186   6.455
 9166POPC   C2B46832  32.761  19.136   6.755
 9166POPC   C3B46833  32.808  19.196   7.055
 9166POPC   C4B46834  32.795  19.205   7.355
 9167POPC   NC346835  15.977   0.466   5.555
 9167POPC   PO446836  15.985   0.418   5.855
 9167POPC   GL146837  15.958   0.472   6.155
 9167POPC   GL246838  15.868   0.314   6.155
 9167POPC   C1A46839  15.985   0.440   6.455
 9167POPC   D2A46840  15.927   0.416   6.755
 9167POPC   C3A46841  15.950   0.462   7.055
 9167POPC   C4A46842  15.936   0.445   7.355
 9167POPC   C1B46843  15.824   0.264   6.455
 9167POPC   C2B46844  15.779   0.226   6.755
 9167POPC   C3B46845  15.760   0.214   7.055
 9167POPC   C4B46846  15.754   0.254   7.355
 9168POPC   NC346847   2.771  31.476   5.555
 9168POPC   PO446848   2.740  31.478   5.855
 9168POPC   GL146849   2.744  31.436   6.155
 9168POPC   GL246850   2.927  31.418   6.155
 9168POPC   C1A46851   2.749  31.428   6.455
 9168POPC   D2A46852   2.784  31.513   6.755
 9168POPC   C3A46853   2.719  31.512   7.055
 9168POPC   C4A46854   2.780  31.481   7.355
 9168POPC   C1B46855   3.004  31.392   6.455
 9168POPC   C2B46856   3.035  31.457   6.755
 9168POPC   C3B46857   3.049  31.447   7.055
 9168POPC   C4B46858   2.995  31.412   7.355
 9169POPC   NC346859  19.062  41.567   5.555
 9169POPC   PO446860  19.102  41.568   5.855
 9169POPC   GL146861  19.042  41.515   6.155
 9169POPC   GL246862  18.975  41.470   6.155
 9169POPC   C1A46863  19.094  41.565   6.455
 9169POPC   D2A46864  19.025  41.515   6.755
 9169POPC   C3A46865  19.018  41.524   7.055
 9169POPC   C4A46866  19.100  41.544   7.355
 9169POPC   C1B46867  18.946  41.334   6.455
 9169POPC   C2B46868  19.008  41.334   6.755
 9169POPC   C3B46869  18.963  41.270   7.055
 9169POPC   C4B46870  18.962  41.337   7.355
 9170POPC   NC346871   9.791  37.720   5.555
 9170POPC   PO446872   9.797  37.685   5.855
 9170POPC   GL146873   9.704  37.657   6.155
 9170POPC   GL246874   9.860  37.743   6.155
 9170POPC   C1A46875   9.724  37.647   6.455
 9170POPC   D2A46876   9.772  37.694   6.755
 9170POPC   C3A46877   9.709  37.653   7.055
 9170POPC   C4A46878   9.760  37.679   7.355
 9170POPC   C1B46879   9.880  37.868   6.455
 9170POPC   C2B46880   9.852  37.875   6.755
 9170POPC   C3B46881   9.926  37.892   7.055
 9170POPC   C4B46882   9.888  37.932   7.355
 9171POPC   NC346883  14.374  17.522   5.555
 9171POPC   PO446884  14.443  17.542   5.855
 9171POPC   GL146885  14.439  17.497   6.155
 9171POPC   GL246886  14.267  17.467   6.155
 9171POPC   C1A46887  14.380  17.530   6.455
 9171POPC   D2A46888  14.371  17.473   6.755
 9171POPC   C3A46889  14.427  17.555   7.055
 9171POPC   C4A46890  14.364  17.516   7.355
 9171POPC   C1B46891  14.153  17.483   6.455
 9171POPC   C2B46892  14.178  17.473   6.755
 9171POPC   C3B46893  14.204  17.473   7.055
 9171POPC   C4B46894  14.175  17.432   7.355
 9172POPC   NC346895  12.057  28.345   5.555
 9172POPC   PO446896  12.040  28.337   5.855
 9172POPC   GL146897  12.041  28.407   6.155
 9172POPC   GL246898  12.209  28.332   6.155
 9172POPC   C1A46899  12.039  28.377   6.455
 9172POPC   D2A46900  12.035  28.333   6.755
 9172POPC   C3A46901  12.072  28.352   7.055
 9172POPC   C4A46902  12.084  28.348   7.355
 9172POPC   C1B46903  12.310  28.271   6.455
 9172POPC   C2B46904  12.281  28.269   6.755
 9172POPC   C3B46905  12.317  28.246   7.055
 9172POPC   C4B46906  12.289  28.196   7.355
 9173POPC   NC346907   2.729  33.825   5.555
 9173POPC   PO446908   2.716  33.793   5.855
 9173POPC   GL146909   2.738  33.843   6.155
 9173POPC   GL246910   2.912  33.726   6.155
 9173POPC   C1A46911   2.780  33.806   6.455
 9173POPC   D2A46912   2.779  33.772   6.755
 9173POPC   C3A46913   2.813  33.760   7.055
 9173POPC   C4A46914   2.717  33.832   7.355
 9173POPC   C1B46915   3.011  33.689   6.455
 9173POPC   C2B46916   3.002  33.724   6.755
 9173POPC   C3B46917   3.030  33.732   7.055
 9173POPC   C4B46918   2.984  33.675   7.355
 9174POPC   NC346919   5.104  33.838   5.555
 9174POPC   PO446920   5.118  33.797   5.855
 9174POPC   GL146921   5.060  33.833   6.155
 9174POPC   GL246922   5.057  33.860   6.155
 9174POPC   C1A46923   5.098  33.833   6.455
 9174POPC   D2A46924   5.067  33.808   6.755
 9174POPC   C3A46925   5.131  33.758   7.055
 9174POPC   C4A46926   5.126  33.756   7.355
 9174POPC   C1B46927   4.934  33.968   6.455
 9174POPC   C2B46928   4.888  34.001   6.755
 9174POPC   C3B46929   4.941  34.027   7.055
 9174POPC   C4B46930   4.963  33.980   7.355
 9175POPC   NC346931   8.157  24.444   5.555
 9175POPC   PO446932   8.241  24.475   5.855
 9175POPC   GL146933   8.162  24.441   6.155
 9175POPC   GL246934   8.227  24.388   6.155
 9175POPC   C1A46935   8.197  24.538   6.455
 9175POPC   D2A46936   8.219  24.451   6.755
 9175POPC   C3A46937   8.212  24.502   7.055
 9175POPC   C4A46938   8.184  24.510   7.355
 9175POPC   C1B46939   8.279  24.245   6.455
 9175POPC   C2B46940   8.241  24.252   6.755
 9175POPC   C3B46941   8.273  24.286   7.055
 9175POPC   C4B46942   8.280  24.209   7.355
 9176POPC   NC346943  36.106   6.624   5.555
 9176POPC   PO446944  36.123   6.681   5.855
 9176POPC   GL146945  36.102   6.615   6.155
 9176POPC   GL246946  36.184   6.579   6.155
 9176POPC   C1A46947  36.083   6.635   6.455
 9176POPC   D2A46948  36.145   6.628   6.755
 9176POPC   C3A46949  36.127   6.690   7.055
 9176POPC   C4A46950  36.079   6.671   7.355
 9176POPC   C1B46951  36.194   6.417   6.455
 9176POPC   C2B46952  36.213   6.463   6.755
 9176POPC   C3B46953  36.233   6.399   7.055
 9176POPC   C4B46954  36.233   6.438   7.355
 9177POPC   NC346955  19.091  30.676   5.555
 9177POPC   PO446956  19.027  30.662   5.855
 9177POPC   GL146957  19.053  30.742   6.155
 9177POPC   GL246958  19.014  30.778   6.155
 9177POPC   C1A46959  19.017  30.736   6.455
 9177POPC   D2A46960  19.056  30.741   6.755
 9177POPC   C3A46961  19.020  30.690   7.055
 9177POPC   C4A46962  19.011  30.738   7.355
 9177POPC   C1B46963  19.067  30.969   6.455
 9177POPC   C2B46964  19.008  30.945   6.755
 9177POPC   C3B46965  19.034  30.960   7.055
 9177POPC   C4B46966  19.023  30.918   7.355
 9178POPC   NC346967  40.746  24.466   5.555
 9178POPC   PO446968  40.801  24.474   5.855
 9178POPC   GL146969  40.812  24.537   6.155
 9178POPC   GL246970  40.704  24.383   6.155
 9178POPC   C1A46971  40.771  24.527   6.455
 9178POPC   D2A46972  40.775  24.507   6.755
 9178POPC   C3A46973  40.782  24.476   7.055
 9178POPC   C4A46974  40.783  24.520   7.355
 9178POPC   C1B46975  40.551  24.336   6.455
 9178POPC   C2B46976  40.558  24.382   6.755
 9178POPC   C3B46977  40.613  24.381   7.055
 9178POPC   C4B46978  40.593  24.355   7.355
 9179POPC   NC346979  22.122   9.771   5.555
 9179POPC   PO446980  22.175   9.773   5.855
 9179POPC   GL146981  22.203   9.783   6.155
 9179POPC   GL246982  22.006   9.757   6.155
 9179POPC   C1A46983  22.147   9.797   6.455
 9179POPC   D2A46984  22.131   9.760   6.755
 9179POPC   C3A46985  22.146   9.747   7.055
 9179POPC   C4A46986  22.186   9.760   7.355
 9179POPC   C1B46987  21.957   9.791   6.455
 9179POPC   C2B46988  21.971   9.870   6.755
 9179POPC   C3B46989  21.877   9.801   7.055
 9179POPC   C4B46990  21.945   9.842   7.355
 9180POPC   NC346991  15.229  15.182   5.555
 9180POPC   PO446992  15.194  15.201   5.855
 9180POPC   GL146993  15.144  15.142   6.155
 9180POPC   GL246994  15.178  15.046   6.155
 9180POPC   C1A46995  15.148  15.175   6.455
 9180POPC   D2A46996  15.171  15.151   6.755
 9180POPC   C3A46997  15.204  15.153   7.055
 9180POPC   C4A46998  15.209  15.203   7.355
 9180POPC   C1B46999  15.147  14.906   6.455
 9180POPC   C2B47000  15.211  14.940   6.755
 9180POPC   C3B47001  15.226  14.944   7.055
 9180POPC   C4B47002  15.211  14.946   7.355
 9181POPC   NC347003  22.162  10.483   5.555
 9181POPC   PO447004  22.127  10.545   5.855
 9181POPC   GL147005  22.141  10.538   6.155
 9181POPC   GL247006  22.254  10.448   6.155
 9181POPC   C1A47007  22.126  10.555   6.455
 9181POPC   D2A47008  22.208  10.476   6.755
 9181POPC   C3A47009  22.149  10.557   7.055
 9181POPC   C4A47010  22.189  10.552   7.355
 9181POPC   C1B47011  22.376  10.304   6.455
 9181POPC   C2B47012  22.318  10.331   6.755
 9181POPC   C3B47013  22.344  10.368   7.055
 9181POPC   C4B47014  22.358  10.371   7.355
 9182POPC   NC347015   7.455   8.988   5.555
 9182POPC   PO447016   7.394   8.933   5.855
 9182POPC   GL147017   7.467   8.976   6.155
 9182POPC   GL247018   7.454   8.885   6.155
 9182POPC   C1A47019   7.401   8.930   6.455
 9182POPC   D2A47020   7.430   8.950   6.755
 9182POPC   C3A47021   7.455   8.947   7.055
 9182POPC   C4A47022   7.374   8.955   7.355
 9182POPC   C1B47023   7.585   8.771   6.455
 9182POPC   C2B47024   7.584   8.808   6.755
 9182POPC   C3B47025   7.540   8.805   7.055
 9182POPC   C4B47026   7.603   8.783   7.355
 9183POPC   NC347027  23.665  14.367   5.555
 9183POPC   PO447028  23.685  14.405   5.855
 9183POPC   GL147029  23.731  14.379   6.155
 9183POPC   GL247030  23.637  14.472   6.155
 9183POPC   C1A47031  23.667  14.387   6.455
 9183POPC   D2A47032  23.745  14.413   6.755
 9183POPC   C3A47033  23.693  14.373   7.055
 9183POPC   C4A47034  23.679  14.363   7.355
 9183POPC   C1B47035  23.546  14.590   6.455
 9183POPC   C2B47036  23.509  14.566   6.755
 9183POPC   C3B47037  23.594  14.590   7.055
 9183POPC   C4B47038  23.509  14.580   7.355
 9184POPC   NC347039  29.126  23.757   5.555
 9184POPC   PO447040  29.159  23.724   5.855
 9184POPC   GL147041  29.130  23.762   6.155
 9184POPC   GL247042  29.037  23.711   6.155
 9184POPC   C1A47043  29.133  23.748   6.455
 9184POPC   D2A47044  29.104  23.759   6.755
 9184POPC   C3A47045  29.121  23.705   7.055
 9184POPC   C4A47046  29.098  23.674   7.355
 9184POPC   C1B47047  28.850  23.700   6.455
 9184POPC   C2B47048  28.890  23.731   6.755
 9184POPC   C3B47049  28.896  23.672   7.055
 9184POPC   C4B47050  28.877  23.708   7.355
 9185POPC   NC347051  36.138  22.963   5.555
 9185POPC   PO447052  36.135  22.927   5.855
 9185POPC   GL147053  36.169  22.891   6.155
 9185POPC   GL247054  36.167  23.051   6.155
 9185POPC   C1A47055  36.129  22.905   6.455
 9185POPC   D2A47056  36.153  22.923   6.755
 9185POPC   C3A47057  36.078  22.958   7.055
 9185POPC   C4A47058  36.079  22.909   7.355
 9185POPC   C1B47059  36.276  23.173   6.455
 9185POPC   C2B47060  36.227  23.184   6.755
 9185POPC   C3B47061  36.204  23.119   7.055
 9185POPC   C4B47062  36.207  23.148   7.355
 9186POPC   NC347063  11.283   6.606   5.555
 9186POPC   PO447064  11.273   6.675   5.855
 9186POPC   GL147065  11.279   6.645   6.155
 9186POPC   GL247066  11.160   6.625   6.155
 9186POPC   C1A47067  11.334   6.625   6.455
 9186POPC   D2A47068  11.297   6.636   6.755
 9186POPC   C3A47069  11.344   6.676   7.055
 9186POPC   C4A47070  11.282   6.672   7.355
 9186POPC   C1B47071  11.035   6.644   6.455
 9186POPC   C2B47072  11.037   6.593   6.755
 9186POPC   C3B47073  11.101   6.637   7.055
 9186POPC   C4B47074  11.039   6.622   7.355
 9187POPC   NC347075  42.357   5.869   5.555
 9187POPC   PO447076  42.306   5.858   5.855
 9187POPC   GL147077  42.292   5.879   6.155
 9187POPC   GL247078  42.451   5.805   6.155
 9187POPC   C1A47079  42.289   5.874   6.455
 9187POPC   D2A47080  42.362   5.841   6.755
 9187POPC   C3A47081  42.320   5.821   7.055
 9187POPC   C4A47082  42.308   5.836   7.355
 9187POPC   C1B47083  42.622   5.869   6.455
 9187POPC   C2B47084  42.555   5.788   6.755
 9187POPC   C3B47085  42.619   5.842   7.055
 9187POPC   C4B47086  42.553   5.840   7.355
 9188POPC   NC347087  25.257  34.608   5.555
 9188POPC   PO447088  25.216  34.605   5.855
 9188POPC   GL147089  25.226  34.608   6.155
 9188POPC   GL247090  25.185  34.459   6.155
 9188POPC   C1A47091  25.232  34.584   6.455
 9188POPC   D2A47092  25.240  34.575   6.755
 9188POPC   C3A47093  25.222  34.549   7.055
 9188POPC   C4A47094  25.287  34.623   7.355
 9188POPC   C1B47095  25.079  34.416   6.455
 9188POPC   C2B47096  25.079  34.436   6.755
 9188POPC   C3B47097  25.072  34.407   7.055
 9188POPC   C4B47098  25.053  34.389   7.355
 9189POPC   NC347099  35.327  14.448   5.555
 9189POPC   PO447100  35.357  14.429   5.855
 9189POPC   GL147101  35.353  14.430   6.155
 9189POPC   GL247102  35.439  14.516   6.155
 9189POPC   C1A47103  35.367  14.410   6.455
 9189POPC   D2A47104  35.354  14.432   6.755
 9189POPC   C3A47105  35.305  14.402   7.055
 9189POPC   C4A47106  35.398  14.372   7.355
 9189POPC   C1B47107  35.479  14.651   6.455
 9189POPC   C2B47108  35.425  14.664   6.755
 9189POPC   C3B47109  35.498  14.658   7.055
 9189POPC   C4B47110  35.454  14.593   7.355
 9190POPC   NC347111   4.327  36.951   5.555
 9190POPC   PO447112   4.345  36.911   5.855
 9190POPC   GL147113   4.290  36.858   6.155
 9190POPC   GL247114   4.212  36.948   6.155
 9190POPC   C1A47115   4.343  36.890   6.455
 9190POPC   D2A47116   4.310  36.934   6.755
 9190POPC   C3A47117   4.354  36.854   7.055
 9190POPC   C4A47118   4.332  36.918   7.355
 9190POPC   C1B47119   4.086  37.000   6.455
 9190POPC   C2B47120   4.060  36.970   6.755
 9190POPC   C3B47121   4.122  36.951   7.055
 9190POPC   C4B47122   4.052  36.997   7.355
 9191POPC   NC347123  37.716  23.751   5.555
 9191POPC   PO447124  37.663  23.690   5.855
 9191POPC   GL147125  37.690  23.753   6.155
 9191POPC   GL247126  37.593  23.801   6.155
 9191POPC   C1A47127  37.682  23.753   6.455
 9191POPC   D2A47128  37.684  23.665   6.755
 9191POPC   C3A47129  37.706  23.760   7.055
 9191POPC   C4A47130  37.679  23.711   7.355
 9191POPC   C1B47131  37.556  23.913   6.455
 9191POPC   C2B47132  37.512  23.864   6.755
 9191POPC   C3B47133  37.547  23.868   7.055
 9191POPC   C4B47134  37.472  23.903   7.355
 9192POPC   NC347135  12.847   2.761   5.555
 9192POPC   PO447136  12.893   2.721   5.855
 9192POPC   GL147137  12.875   2.776   6.155
 9192POPC   GL247138  12.973   2.655   6.155
 9192POPC   C1A47139  12.845   2.775   6.455
 9192POPC   D2A47140  12.878   2.724   6.755
 9192POPC   C3A47141  12.881   2.746   7.055
 9192POPC   C4A47142  12.872   2.804   7.355
 9192POPC   C1B47143  13.066   2.615   6.455
 9192POPC   C2B47144  13.052   2.641   6.755
 9192POPC   C3B47145  13.061   2.600   7.055
 9192POPC   C4B47146  13.039   2.660   7.355
 9193POPC   NC347147  22.970  10.558   5.555
 9193POPC   PO447148  22.978  10.488   5.855
 9193POPC   GL147149  22.902  10.572   6.155
 9193POPC   GL247150  22.922  10.645   6.155
 9193POPC   C1A47151  22.962  10.492   6.455
 9193POPC   D2A47152  22.920  10.498   6.755
 9193POPC   C3A47153  22.954  10.475   7.055
 9193POPC   C4A47154  22.917  10.542   7.355
 9193POPC   C1B47155  22.922  10.759   6.455
 9193POPC   C2B47156  22.867  10.818   6.755
 9193POPC   C3B47157  22.848  10.762   7.055
 9193POPC   C4B47158  22.880  10.777   7.355
 9194POPC   NC347159  25.297  30.672   5.555
 9194POPC   PO447160  25.300  30.706   5.855
 9194POPC   GL147161  25.276  30.712   6.155
 9194POPC   GL247162  25.170  30.591   6.155
 9194POPC   C1A47163  25.218  30.706   6.455
 9194POPC   D2A47164  25.248  30.676   6.755
 9194POPC   C3A47165  25.240  30.682   7.055
 9194POPC   C4A47166  25.314  30.668   7.355
 9194POPC   C1B47167  25.202  30.500   6.455
 9194POPC   C2B47168  25.173  30.467   6.755
 9194POPC   C3B47169  25.193  30.481   7.055
 9194POPC   C4B47170  25.119  30.468   7.355
 9195POPC   NC347171  35.354  43.143   5.555
 9195POPC   PO447172  35.304  43.134   5.855
 9195POPC   GL147173  35.318  43.080   6.155
 9195POPC   GL247174  35.247  43.200   6.155
 9195POPC   C1A47175  35.375  43.097   6.455
 9195POPC   D2A47176  35.391  43.068   6.755
 9195POPC   C3A47177  35.323  43.095   7.055
 9195POPC   C4A47178  35.390  43.067   7.355
 9195POPC   C1B47179  35.086  43.169   6.455
 9195POPC   C2B47180  35.118  43.256   6.755
 9195POPC   C3B47181  35.073  43.204   7.055
 9195POPC   C4B47182  35.107  43.244   7.355
 9196POPC   NC347183  19.848  28.327   5.555
 9196POPC   PO447184  19.873  28.380   5.855
 9196POPC   GL147185  19.853  28.387   6.155
 9196POPC   GL247186  19.951  28.458   6.155
 9196POPC   C1A47187  19.884  28.326   6.455
 9196POPC   D2A47188  19.866  28.334   6.755
 9196POPC   C3A47189  19.814  28.377   7.055
 9196POPC   C4A47190  19.795  28.377   7.355
 9196POPC   C1B47191  20.049  28.474   6.455
 9196POPC   C2B47192  20.032  28.491   6.755
 9196POPC   C3B47193  20.087  28.422   7.055
 9196POPC   C4B47194  20.105  28.501   7.355
 9197POPC   NC347195  22.204  11.345   5.555
 9197POPC   PO447196  22.193  11.326   5.855
 9197POPC   GL147197  22.196  11.347   6.155
 9197POPC   GL247198  22.248  11.433   6.155
 9197POPC   C1A47199  22.152  11.318   6.455
 9197POPC   D2A47200  22.151  11.320   6.755
 9197POPC   C3A47201  22.185  11.334   7.055
 9197POPC   C4A47202  22.211  11.315   7.355
 9197POPC   C1B47203  22.313  11.479   6.455
 9197POPC   C2B47204  22.281  11.477   6.755
 9197POPC   C3B47205  22.286  11.522   7.055
 9197POPC   C4B47206  22.302  11.550   7.355
 9198POPC   NC347207   5.105   8.932   5.555
 9198POPC   PO447208   5.115   8.927   5.855
 9198POPC   GL147209   5.070   8.984   6.155
 9198POPC   GL247210   4.947   9.031   6.155
 9198POPC   C1A47211   5.079   8.932   6.455
 9198POPC   D2A47212   5.111   9.006   6.755
 9198POPC   C3A47213   5.140   8.960   7.055
 9198POPC   C4A47214   5.071   9.009   7.355
 9198POPC   C1B47215   4.839   8.976   6.455
 9198POPC   C2B47216   4.855   8.959   6.755
 9198POPC   C3B47217   4.840   8.993   7.055
 9198POPC   C4B47218   4.844   8.960   7.355
 9199POPC   NC347219  28.343  36.095   5.555
 9199POPC   PO447220  28.380  36.079   5.855
 9199POPC   GL147221  28.365  36.086   6.155
 9199POPC   GL247222  28.232  36.167   6.155
 9199POPC   C1A47223  28.357  36.103   6.455
 9199POPC   D2A47224  28.345  36.112   6.755
 9199POPC   C3A47225  28.393  36.167   7.055
 9199POPC   C4A47226  28.347  36.111   7.355
 9199POPC   C1B47227  28.111  36.192   6.455
 9199POPC   C2B47228  28.171  36.190   6.755
 9199POPC   C3B47229  28.164  36.130   7.055
 9199POPC   C4B47230  28.148  36.210   7.355
 9200POPC   NC347231  15.176  28.358   5.555
 9200POPC   PO447232  15.202  28.400   5.855
 9200POPC   GL147233  15.159  28.330   6.155
 9200POPC   GL247234  15.213  28.243   6.155
 9200POPC   C1A47235  15.197  28.365   6.455
 9200POPC   D2A47236  15.158  28.332   6.755
 9200POPC   C3A47237  15.157  28.378   7.055
 9200POPC   C4A47238  15.195  28.363   7.355
 9200POPC   C1B47239  15.323  28.188   6.455
 9200POPC   C2B47240  15.316  28.113   6.755
 9200POPC   C3B47241  15.303  28.167   7.055
 9200POPC   C4B47242  15.332  28.167   7.355
 9201POPC   NC347243  41.606  11.279   5.555
 9201POPC   PO447244  41.588  11.263   5.855
 9201POPC   GL147245  41.562  11.264   6.155
 9201POPC   GL247246  41.632  11.213   6.155
 9201POPC   C1A47247  41.561  11.262   6.455
 9201POPC   D2A47248  41.523  11.251   6.755
 9201POPC   C3A47249  41.592  11.308   7.055
 9201POPC   C4A47250  41.569  11.349   7.355
 9201POPC   C1B47251  41.693  11.125   6.455
 9201POPC   C2B47252  41.743  11.114   6.755
 9201POPC   C3B47253  41.713  11.069   7.055
 9201POPC   C4B47254  41.726  11.075   7.355
 9202POPC   NC347255  43.154  43.110   5.555
 9202POPC   PO447256  43.128  43.097   5.855
 9202POPC   GL147257  43.109  43.112   6.155
 9202POPC   GL247258  43.210  43.133   6.155
 9202POPC   C1A47259  43.105  43.109   6.455
 9202POPC   D2A47260  43.108  43.113   6.755
 9202POPC   C3A47261  43.152  43.079   7.055
 9202POPC   C4A47262  43.131  43.114   7.355
 9202POPC   C1B47263  43.309  43.178   6.455
 9202POPC   C2B47264  43.377  43.173   6.755
 9202POPC   C3B47265  43.294  43.180   7.055
 9202POPC   C4B47266  43.370  43.203   7.355
 9203POPC   NC347267   9.702  41.519   5.555
 9203POPC   PO447268   9.782  41.534   5.855
 9203POPC   GL147269   9.714  41.536   6.155
 9203POPC   GL247270   9.607  41.677   6.155
 9203POPC   C1A47271   9.743  41.605   6.455
 9203POPC   D2A47272   9.762  41.603   6.755
 9203POPC   C3A47273   9.720  41.521   7.055
 9203POPC   C4A47274   9.738  41.578   7.355
 9203POPC   C1B47275   9.556  41.678   6.455
 9203POPC   C2B47276   9.524  41.660   6.755
 9203POPC   C3B47277   9.494  41.699   7.055
 9203POPC   C4B47278   9.545  41.732   7.355
 9204POPC   NC347279   4.347  20.653   5.555
 9204POPC   PO447280   4.292  20.568   5.855
 9204POPC   GL147281   4.282  20.561   6.155
 9204POPC   GL247282   4.241  20.443   6.155
 9204POPC   C1A47283   4.306  20.610   6.455
 9204POPC   D2A47284   4.359  20.649   6.755
 9204POPC   C3A47285   4.283  20.576   7.055
 9204POPC   C4A47286   4.323  20.590   7.355
 9204POPC   C1B47287   4.207  20.357   6.455
 9204POPC   C2B47288   4.270  20.411   6.755
 9204POPC   C3B47289   4.269  20.374   7.055
 9204POPC   C4B47290   4.280  20.412   7.355
 9205POPC   NC347291  24.480  24.528   5.555
 9205POPC   PO447292  24.511  24.496   5.855
 9205POPC   GL147293  24.465  24.504   6.155
 9205POPC   GL247294  24.567  24.598   6.155
 9205POPC   C1A47295  24.456  24.465   6.455
 9205POPC   D2A47296  24.474  24.526   6.755
 9205POPC   C3A47297  24.505  24.479   7.055
 9205POPC   C4A47298  24.478  24.476   7.355
 9205POPC   C1B47299  24.677  24.632   6.455
 9205POPC   C2B47300  24.677  24.632   6.755
 9205POPC   C3B47301  24.666  24.650   7.055
 9205POPC   C4B47302  24.671  24.639   7.355
 9206POPC   NC347303  15.934  19.840   5.555
 9206POPC   PO447304  15.907  19.816   5.855
 9206POPC   GL147305  15.968  19.884   6.155
 9206POPC   GL247306  16.065  19.723   6.155
 9206POPC   C1A47307  16.000  19.814   6.455
 9206POPC   D2A47308  15.906  19.855   6.755
 9206POPC   C3A47309  15.910  19.795   7.055
 9206POPC   C4A47310  15.970  19.847   7.355
 9206POPC   C1B47311  16.115  19.680   6.455
 9206POPC   C2B47312  16.152  19.682   6.755
 9206POPC   C3B47313  16.171  19.661   7.055
 9206POPC   C4B47314  16.124  19.724   7.355
 9207POPC   NC347315  40.740  30.655   5.555
 9207POPC   PO447316  40.736  30.661   5.855
 9207POPC   GL147317  40.745  30.653   6.155
 9207POPC   GL247318  40.862  30.671   6.155
 9207POPC   C1A47319  40.788  30.664   6.455
 9207POPC   D2A47320  40.814  30.658   6.755
 9207POPC   C3A47321  40.771  30.715   7.055
 9207POPC   C4A47322  40.807  30.680   7.355
 9207POPC   C1B47323  41.007  30.633   6.455
 9207POPC   C2B47324  41.055  30.593   6.755
 9207POPC   C3B47325  41.056  30.567   7.055
 9207POPC   C4B47326  41.027  30.615   7.355
 9208POPC   NC347327  15.133   8.957   5.555
 9208POPC   PO447328  15.204   8.928   5.855
 9208POPC   GL147329  15.214   8.953   6.155
 9208POPC   GL247330  15.101   8.950   6.155
 9208POPC   C1A47331  15.175   8.941   6.455
 9208POPC   D2A47332  15.222   8.963   6.755
 9208POPC   C3A47333  15.207   8.998   7.055
 9208POPC   C4A47334  15.135   8.973   7.355
 9208POPC   C1B47335  14.955   8.867   6.455
 9208POPC   C2B47336  14.972   8.945   6.755
 9208POPC   C3B47337  14.906   8.877   7.055
 9208POPC   C4B47338  14.962   8.882   7.355
 9209POPC   NC347339  17.534  23.683   5.555
 9209POPC   PO447340  17.481  23.760   5.855
 9209POPC   GL147341  17.529  23.716   6.155
 9209POPC   GL247342  17.641  23.605   6.155
 9209POPC   C1A47343  17.551  23.701   6.455
 9209POPC   D2A47344  17.506  23.757   6.755
 9209POPC   C3A47345  17.472  23.667   7.055
 9209POPC   C4A47346  17.496  23.665   7.355
 9209POPC   C1B47347  17.634  23.505   6.455
 9209POPC   C2B47348  17.659  23.549   6.755
 9209POPC   C3B47349  17.698  23.564   7.055
 9209POPC   C4B47350  17.656  23.551   7.355
 9210POPC   NC347351  16.712  12.834   5.555
 9210POPC   PO447352  16.748  12.901   5.855
 9210POPC   GL147353  16.714  12.853   6.155
 9210POPC   GL247354  16.848  12.901   6.155
 9210POPC   C1A47355  16.724  12.900   6.455
 9210POPC   D2A47356  16.764  12.893   6.755
 9210POPC   C3A47357  16.716  12.855   7.055
 9210POPC   C4A47358  16.751  12.859   7.355
 9210POPC   C1B47359  16.932  12.908   6.455
 9210POPC   C2B47360  16.930  12.932   6.755
 9210POPC   C3B47361  16.998  12.983   7.055
 9210POPC   C4B47362  16.989  12.912   7.355
 9211POPC   NC347363  23.749  30.707   5.555
 9211POPC   PO447364  23.665  30.726   5.855
 9211POPC   GL147365  23.726  30.746   6.155
 9211POPC   GL247366  23.691  30.795   6.155
 9211POPC   C1A47367  23.729  30.707   6.455
 9211POPC   D2A47368  23.755  30.705   6.755
 9211POPC   C3A47369  23.681  30.669   7.055
 9211POPC   C4A47370  23.740  30.669   7.355
 9211POPC   C1B47371  23.640  30.928   6.455
 9211POPC   C2B47372  23.689  30.990   6.755
 9211POPC   C3B47373  23.643  30.911   7.055
 9211POPC   C4B47374  23.682  30.955   7.355
 9212POPC   NC347375  36.928  28.370   5.555
 9212POPC   PO447376  36.854  28.367   5.855
 9212POPC   GL147377  36.868  28.354   6.155
 9212POPC   GL247378  36.865  28.269   6.155
 9212POPC   C1A47379  36.938  28.381   6.455
 9212POPC   D2A47380  36.913  28.344   6.755
 9212POPC   C3A47381  36.916  28.339   7.055
 9212POPC   C4A47382  36.867  28.365   7.355
 9212POPC   C1B47383  36.731  28.118   6.455
 9212POPC   C2B47384  36.708  28.159   6.755
 9212POPC   C3B47385  36.721  28.190   7.055
 9212POPC   C4B47386  36.792  28.153   7.355
 9213POPC   NC347387   6.664  33.769   5.555
 9213POPC   PO447388   6.648  33.809   5.855
 9213POPC   GL147389   6.659  33.814   6.155
 9213POPC   GL247390   6.553  33.946   6.155
 9213POPC   C1A47391   6.656  33.803   6.455
 9213POPC   D2A47392   6.605  33.760   6.755
 9213POPC   C3A47393   6.634  33.809   7.055
 9213POPC   C4A47394   6.643  33.841   7.355
 9213POPC   C1B47395   6.509  34.008   6.455
 9213POPC   C2B47396   6.514  33.999   6.755
 9213POPC   C3B47397   6.479  34.023   7.055
 9213POPC   C4B47398   6.451  34.021   7.355
 9214POPC   NC347399  19.097  23.685   5.555
 9214POPC   PO447400  19.064  23.743   5.855
 9214POPC   GL147401  19.095  23.753   6.155
 9214POPC   GL247402  18.914  23.618   6.155
 9214POPC   C1A47403  19.014  23.751   6.455
 9214POPC   D2A47404  19.068  23.749   6.755
 9214POPC   C3A47405  19.071  23.705   7.055
 9214POPC   C4A47406  19.095  23.723   7.355
 9214POPC   C1B47407  18.826  23.523   6.455
 9214POPC   C2B47408  18.905  23.555   6.755
 9214POPC   C3B47409  18.883  23.590   7.055
 9214POPC   C4B47410  18.901  23.532   7.355
 9215POPC   NC347411  13.607  29.907   5.555
 9215POPC   PO447412  13.675  29.947   5.855
 9215POPC   GL147413  13.604  29.889   6.155
 9215POPC   GL247414  13.621  30.067   6.155
 9215POPC   C1A47415  13.623  29.911   6.455
 9215POPC   D2A47416  13.622  29.897   6.755
 9215POPC   C3A47417  13.613  29.935   7.055
 9215POPC   C4A47418  13.661  29.898   7.355
 9215POPC   C1B47419  13.524  30.202   6.455
 9215POPC   C2B47420  13.514  30.209   6.755
 9215POPC   C3B47421  13.597  30.141   7.055
 9215POPC   C4B47422  13.530  30.162   7.355
 9216POPC   NC347423  12.840  18.238   5.555
 9216POPC   PO447424  12.864  18.284   5.855
 9216POPC   GL147425  12.829  18.290   6.155
 9216POPC   GL247426  12.767  18.393   6.155
 9216POPC   C1A47427  12.872  18.275   6.455
 9216POPC   D2A47428  12.865  18.292   6.755
 9216POPC   C3A47429  12.841  18.325   7.055
 9216POPC   C4A47430  12.865  18.264   7.355
 9216POPC   C1B47431  12.824  18.529   6.455
 9216POPC   C2B47432  12.807  18.505   6.755
 9216POPC   C3B47433  12.822  18.565   7.055
 9216POPC   C4B47434  12.791  18.500   7.355
 9217POPC   NC347435  34.589  42.370   5.555
 9217POPC   PO447436  34.596  42.286   5.855
 9217POPC   GL147437  34.599  42.285   6.155
 9217POPC   GL247438  34.737  42.333   6.155
 9217POPC   C1A47439  34.544  42.319   6.455
 9217POPC   D2A47440  34.624  42.335   6.755
 9217POPC   C3A47441  34.562  42.336   7.055
 9217POPC   C4A47442  34.604  42.349   7.355
 9217POPC   C1B47443  34.775  42.354   6.455
 9217POPC   C2B47444  34.822  42.290   6.755
 9217POPC   C3B47445  34.863  42.290   7.055
 9217POPC   C4B47446  34.833  42.266   7.355
 9218POPC   NC347447  17.494  38.422   5.555
 9218POPC   PO447448  17.464  38.421   5.855
 9218POPC   GL147449  17.534  38.423   6.155
 9218POPC   GL247450  17.564  38.608   6.155
 9218POPC   C1A47451  17.546  38.442   6.455
 9218POPC   D2A47452  17.489  38.480   6.755
 9218POPC   C3A47453  17.525  38.456   7.055
 9218POPC   C4A47454  17.488  38.470   7.355
 9218POPC   C1B47455  17.548  38.695   6.455
 9218POPC   C2B47456  17.565  38.658   6.755
 9218POPC   C3B47457  17.566  38.655   7.055
 9218POPC   C4B47458  17.533  38.659   7.355
 9219POPC   NC347459  17.482   0.468   5.555
 9219POPC   PO447460  17.466   0.415   5.855
 9219POPC   GL147461  17.465   0.487   6.155
 9219POPC   GL247462  17.569   0.455   6.155
 9219POPC   C1A47463  17.548   0.453   6.455
 9219POPC   D2A47464  17.478   0.389   6.755
 9219POPC   C3A47465  17.519   0.418   7.055
 9219POPC   C4A47466  17.546   0.412   7.355
 9219POPC   C1B47467  17.709   0.532   6.455
 9219POPC   C2B47468  17.746   0.530   6.755
 9219POPC   C3B47469  17.725   0.524   7.055
 9219POPC   C4B47470  17.707   0.504   7.355
 9220POPC   NC347471  26.796  20.587   5.555
 9220POPC   PO447472  26.827  20.598   5.855
 9220POPC   GL147473  26.867  20.644   6.155
 9220POPC   GL247474  26.881  20.647   6.155
 9220POPC   C1A47475  26.804  20.648   6.455
 9220POPC   D2A47476  26.853  20.612   6.755
 9220POPC   C3A47477  26.858  20.596   7.055
 9220POPC   C4A47478  26.840  20.637   7.355
 9220POPC   C1B47479  27.076  20.776   6.455
 9220POPC   C2B47480  27.065  20.737   6.755
 9220POPC   C3B47481  27.006  20.728   7.055
 9220POPC   C4B47482  27.043  20.764   7.355
 9221POPC   NC347483   1.253  35.343   5.555
 9221POPC   PO447484   1.222  35.354   5.855
 9221POPC   GL147485   1.239  35.384   6.155
 9221POPC   GL247486   1.076  35.443   6.155
 9221POPC   C1A47487   1.177  35.385   6.455
 9221POPC   D2A47488   1.240  35.345   6.755
 9221POPC   C3A47489   1.252  35.321   7.055
 9221POPC   C4A47490   1.211  35.338   7.355
 9221POPC   C1B47491   1.051  35.484   6.455
 9221POPC   C2B47492   0.982  35.515   6.755
 9221POPC   C3B47493   1.038  35.501   7.055
 9221POPC   C4B47494   1.054  35.493   7.355
 9222POPC   NC347495  35.316  27.553   5.555
 9222POPC   PO447496  35.393  27.611   5.855
 9222POPC   GL147497  35.380  27.606   6.155
 9222POPC   GL247498  35.464  27.505   6.155
 9222POPC   C1A47499  35.391  27.581   6.455
 9222POPC   D2A47500  35.361  27.610   6.755
 9222POPC   C3A47501  35.312  27.557   7.055
 9222POPC   C4A47502  35.397  27.544   7.355
 9222POPC   C1B47503  35.512  27.423   6.455
 9222POPC   C2B47504  35.587  27.447   6.755
 9222POPC   C3B47505  35.577  27.407   7.055
 9222POPC   C4B47506  35.531  27.482   7.355
 9223POPC   NC347507  13.671  21.393   5.555
 9223POPC   PO447508  13.597  21.377   5.855
 9223POPC   GL147509  13.661  21.359   6.155
 9223POPC   GL247510  13.629  21.555   6.155
 9223POPC   C1A47511  13.607  21.395   6.455
 9223POPC   D2A47512  13.590  21.358   6.755
 9223POPC   C3A47513  13.675  21.344   7.055
 9223POPC   C4A47514  13.661  21.377   7.355
 9223POPC   C1B47515  13.686  21.680   6.455
 9223POPC   C2B47516  13.605  21.678   6.755
 9223POPC   C3B47517  13.691  21.660   7.055
 9223POPC   C4B47518  13.621  21.587   7.355
 9224POPC   NC347519  40.832  12.080   5.555
 9224POPC   PO447520  40.757  12.075   5.855
 9224POPC   GL147521  40.797  12.037   6.155
 9224POPC   GL247522  40.839  12.237   6.155
 9224POPC   C1A47523  40.805  12.046   6.455
 9224POPC   D2A47524  40.780  12.111   6.755
 9224POPC   C3A47525  40.755  12.048   7.055
 9224POPC   C4A47526  40.833  12.073   7.355
 9224POPC   C1B47527  40.863  12.338   6.455
 9224POPC   C2B47528  40.821  12.288   6.755
 9224POPC   C3B47529  40.841  12.300   7.055
 9224POPC   C4B47530  40.809  12.349   7.355
 9225POPC   NC347531  10.562  36.929   5.555
 9225POPC   PO447532  10.531  36.946   5.855
 9225POPC   GL147533  10.562  36.910   6.155
 9225POPC   GL247534  10.619  36.954   6.155
 9225POPC   C1A47535  10.556  36.901   6.455
 9225POPC   D2A47536  10.485  36.898   6.755
 9225POPC   C3A47537  10.490  36.945   7.055
 9225POPC   C4A47538  10.551  36.944   7.355
 9225POPC   C1B47539  10.733  37.000   6.455
 9225POPC   C2B47540  10.735  37.027   6.755
 9225POPC   C3B47541  10.730  37.077   7.055
 9225POPC   C4B47542  10.777  37.044   7.355
 9226POPC   NC347543  12.113  12.061   5.555
 9226POPC   PO447544  12.071  12.106   5.855
 9226POPC   GL147545  12.107  12.116   6.155
 9226POPC   GL247546  12.176  12.163   6.155
 9226POPC   C1A47547  12.070  12.068   6.455
 9226POPC   D2A47548  12.038  12.100   6.755
 9226POPC   C3A47549  12.056  12.039   7.055
 9226POPC   C4A47550  12.069  12.102   7.355
 9226POPC   C1B47551  12.282  12.285   6.455
 9226POPC   C2B47552  12.206  12.229   6.755
 9226POPC   C3B47553  12.236  12.210   7.055
 9226POPC   C4B47554  12.281  12.279   7.355
 9227POPC   NC347555   3.530  14.380   5.555
 9227POPC   PO447556   3.555  14.362   5.855
 9227POPC   GL147557   3.580  14.392   6.155
 9227POPC   GL247558   3.533  14.282   6.155
 9227POPC   C1A47559   3.553  14.383   6.455
 9227POPC   D2A47560   3.495  14.417   6.755
 9227POPC   C3A47561   3.519  14.426   7.055
 9227POPC   C4A47562   3.555  14.446   7.355
 9227POPC   C1B47563   3.530  14.200   6.455
 9227POPC   C2B47564   3.526  14.166   6.755
 9227POPC   C3B47565   3.601  14.143   7.055
 9227POPC   C4B47566   3.599  14.114   7.355
 9228POPC   NC347567  25.281  43.092   5.555
 9228POPC   PO447568  25.284  43.066   5.855
 9228POPC   GL147569  25.243  43.152   6.155
 9228POPC   GL247570  25.115  43.117   6.155
 9228POPC   C1A47571  25.228  43.084   6.455
 9228POPC   D2A47572  25.271  43.078   6.755
 9228POPC   C3A47573  25.250  43.107   7.055
 9228POPC   C4A47574  25.314  43.128   7.355
 9228POPC   C1B47575  24.983  43.111   6.455
 9228POPC   C2B47576  24.989  43.117   6.755
 9228POPC   C3B47577  25.057  43.124   7.055
 9228POPC   C4B47578  24.998  43.064   7.355
 9229POPC   NC347579  13.644   8.169   5.555
 9229POPC   PO447580  13.652   8.175   5.855
 9229POPC   GL147581  13.642   8.181   6.155
 9229POPC   GL247582  13.637   8.100   6.155
 9229POPC   C1A47583  13.581   8.207   6.455
 9229POPC   D2A47584  13.606   8.231   6.755
 9229POPC   C3A47585  13.634   8.245   7.055
 9229POPC   C4A47586  13.665   8.155   7.355
 9229POPC   C1B47587  13.564   7.905   6.455
 9229POPC   C2B47588  13.553   7.953   6.755
 9229POPC   C3B47589  13.601   7.944   7.055
 9229POPC   C4B47590  13.628   7.947   7.355
 9230POPC   NC347591   6.662  36.123   5.555
 9230POPC   PO447592   6.646  36.150   5.855
 9230POPC   GL147593   6.608  36.158   6.155
 9230POPC   GL247594   6.632  36.031   6.155
 9230POPC   C1A47595   6.650  36.160   6.455
 9230POPC   D2A47596   6.681  36.142   6.755
 9230POPC   C3A47597   6.664  36.158   7.055
 9230POPC   C4A47598   6.657  36.172   7.355
 9230POPC   C1B47599   6.590  35.887   6.455
 9230POPC   C2B47600   6.631  35.906   6.755
 9230POPC   C3B47601   6.585  35.868   7.055
 9230POPC   C4B47602   6.545  35.924   7.355
 9231POPC   NC347603  39.959  43.934   5.555
 9231POPC   PO447604  39.988  43.915   5.855
 9231POPC   GL147605  40.001  43.928   6.155
 9231POPC   GL247606  39.877  43.799   6.155
 9231POPC   C1A47607  39.980  43.883   6.455
 9231POPC   D2A47608  39.985  43.933   6.755
 9231POPC   C3A47609  40.009  43.848   7.055
 9231POPC   C4A47610  39.982  43.935   7.355
 9231POPC   C1B47611  39.766  43.756   6.455
 9231POPC   C2B47612  39.786  43.752   6.755
 9231POPC   C3B47613  39.755  43.755   7.055
 9231POPC   C4B47614  39.823  43.815   7.355
 9232POPC   NC347615  12.042  21.354   5.555
 9232POPC   PO447616  12.026  21.355   5.855
 9232POPC   GL147617  12.075  21.436   6.155
 9232POPC   GL247618  11.942  21.314   6.155
 9232POPC   C1A47619  12.087  21.405   6.455
 9232POPC   D2A47620  12.093  21.371   6.755
 9232POPC   C3A47621  12.110  21.367   7.055
 9232POPC   C4A47622  12.102  21.353   7.355
 9232POPC   C1B47623  11.850  21.262   6.455
 9232POPC   C2B47624  11.840  21.348   6.755
 9232POPC   C3B47625  11.800  21.305   7.055
 9232POPC   C4B47626  11.791  21.303   7.355
 9233POPC   NC347627  23.706  27.599   5.555
 9233POPC   PO447628  23.753  27.557   5.855
 9233POPC   GL147629  23.731  27.555   6.155
 9233POPC   GL247630  23.822  27.609   6.155
 9233POPC   C1A47631  23.735  27.572   6.455
 9233POPC   D2A47632  23.666  27.630   6.755
 9233POPC   C3A47633  23.671  27.615   7.055
 9233POPC   C4A47634  23.669  27.623   7.355
 9233POPC   C1B47635  23.978  27.683   6.455
 9233POPC   C2B47636  23.990  27.590   6.755
 9233POPC   C3B47637  23.913  27.656   7.055
 9233POPC   C4B47638  23.930  27.656   7.355
 9234POPC   NC347639  12.862  17.501   5.555
 9234POPC   PO447640  12.832  17.505   5.855
 9234POPC   GL147641  12.807  17.530   6.155
 9234POPC   GL247642  12.704  17.557   6.155
 9234POPC   C1A47643  12.815  17.518   6.455
 9234POPC   D2A47644  12.824  17.514   6.755
 9234POPC   C3A47645  12.814  17.524   7.055
 9234POPC   C4A47646  12.869  17.478   7.355
 9234POPC   C1B47647  12.592  17.594   6.455
 9234POPC   C2B47648  12.666  17.627   6.755
 9234POPC   C3B47649  12.594  17.613   7.055
 9234POPC   C4B47650  12.659  17.650   7.355
 9235POPC   NC347651  44.694  43.088   5.555
 9235POPC   PO447652  44.704  43.113   5.855
 9235POPC   GL147653  44.672  43.135   6.155
 9235POPC   GL247654  44.738  43.172   6.155
 9235POPC   C1A47655  44.690  43.103   6.455
 9235POPC   D2A47656  44.646  43.064   6.755
 9235POPC   C3A47657  44.702  43.110   7.055
 9235POPC   C4A47658  44.688  43.095   7.355
 9235POPC   C1B47659  44.870  43.184   6.455
 9235POPC   C2B47660  44.880  43.222   6.755
 9235POPC   C3B47661  44.903  43.220   7.055
 9235POPC   C4B47662  44.945  43.154   7.355
 9236POPC   NC347663   7.467   8.171   5.555
 9236POPC   PO447664   7.392   8.218   5.855
 9236POPC   GL147665   7.460   8.213   6.155
 9236POPC   GL247666   7.356   8.305   6.155
 9236POPC   C1A47667   7.384   8.153   6.455
 9236POPC   D2A47668   7.415   8.198   6.755
 9236POPC   C3A47669   7.424   8.241   7.055
 9236POPC   C4A47670   7.445   8.239   7.355
 9236POPC   C1B47671   7.417   8.460   6.455
 9236POPC   C2B47672   7.419   8.409   6.755
 9236POPC   C3B47673   7.434   8.446   7.055
 9236POPC   C4B47674   7.340   8.421   7.355
 9237POPC   NC347675  27.560  13.623   5.555
 9237POPC   PO447676  27.559  13.607   5.855
 9237POPC   GL147677  27.583  13.618   6.155
 9237POPC   GL247678  27.672  13.748   6.155
 9237POPC   C1A47679  27.581  13.648   6.455
 9237POPC   D2A47680  27.611  13.600   6.755
 9237POPC   C3A47681  27.640  13.651   7.055
 9237POPC   C4A47682  27.586  13.661   7.355
 9237POPC   C1B47683  27.743  13.853   6.455
 9237POPC   C2B47684  27.744  13.824   6.755
 9237POPC   C3B47685  27.788  13.824   7.055
 9237POPC   C4B47686  27.795  13.859   7.355
 9238POPC   NC347687   5.091  40.806   5.555
 9238POPC   PO447688   5.108  40.797   5.855
 9238POPC   GL147689   5.057  40.801   6.155
 9238POPC   GL247690   5.212  40.819   6.155
 9238POPC   C1A47691   5.122  40.818   6.455
 9238POPC   D2A47692   5.142  40.798   6.755
 9238POPC   C3A47693   5.097  40.774   7.055
 9238POPC   C4A47694   5.067  40.748   7.355
 9238POPC   C1B47695   5.335  40.885   6.455
 9238POPC   C2B47696   5.285  40.909   6.755
 9238POPC   C3B47697   5.367  40.885   7.055
 9238POPC   C4B47698   5.356  40.828   7.355
 9239POPC   NC347699  13.666  12.067   5.555
 9239POPC   PO447700  13.632  12.034   5.855
 9239POPC   GL147701  13.598  12.080   6.155
 9239POPC   GL247702  13.733  11.972   6.155
 9239POPC   C1A47703  13.644  12.052   6.455
 9239POPC   D2A47704  13.613  12.110   6.755
 9239POPC   C3A47705  13.659  12.090   7.055
 9239POPC   C4A47706  13.605  12.110   7.355
 9239POPC   C1B47707  13.816  11.916   6.455
 9239POPC   C2B47708  13.832  11.940   6.755
 9239POPC   C3B47709  13.848  11.908   7.055
 9239POPC   C4B47710  13.801  11.887   7.355
 9240POPC   NC347711  28.386  15.151   5.555
 9240POPC   PO447712  28.409  15.154   5.855
 9240POPC   GL147713  28.370  15.202   6.155
 9240POPC   GL247714  28.248  15.109   6.155
 9240POPC   C1A47715  28.408  15.187   6.455
 9240POPC   D2A47716  28.328  15.163   6.755
 9240POPC   C3A47717  28.343  15.170   7.055
 9240POPC   C4A47718  28.350  15.224   7.355
 9240POPC   C1B47719  28.125  15.099   6.455
 9240POPC   C2B47720  28.099  15.148   6.755
 9240POPC   C3B47721  28.123  15.113   7.055
 9240POPC   C4B47722  28.105  15.136   7.355
 9241POPC   NC347723   5.082   6.603   5.555
 9241POPC   PO447724   5.140   6.667   5.855
 9241POPC   GL147725   5.053   6.625   6.155
 9241POPC   GL247726   5.166   6.572   6.155
 9241POPC   C1A47727   5.141   6.680   6.455
 9241POPC   D2A47728   5.056   6.628   6.755
 9241POPC   C3A47729   5.100   6.651   7.055
 9241POPC   C4A47730   5.046   6.624   7.355
 9241POPC   C1B47731   5.240   6.471   6.455
 9241POPC   C2B47732   5.230   6.439   6.755
 9241POPC   C3B47733   5.224   6.482   7.055
 9241POPC   C4B47734   5.319   6.455   7.355
 9242POPC   NC347735  22.152  13.668   5.555
 9242POPC   PO447736  22.128  13.671   5.855
 9242POPC   GL147737  22.167  13.610   6.155
 9242POPC   GL247738  22.014  13.686   6.155
 9242POPC   C1A47739  22.172  13.610   6.455
 9242POPC   D2A47740  22.136  13.652   6.755
 9242POPC   C3A47741  22.119  13.597   7.055
 9242POPC   C4A47742  22.168  13.640   7.355
 9242POPC   C1B47743  21.885  13.616   6.455
 9242POPC   C2B47744  21.917  13.645   6.755
 9242POPC   C3B47745  21.870  13.611   7.055
 9242POPC   C4B47746  21.881  13.668   7.355
 9243POPC   NC347747  12.089  29.167   5.555
 9243POPC   PO447748  12.029  29.121   5.855
 9243POPC   GL147749  12.106  29.193   6.155
 9243POPC   GL247750  12.040  29.297   6.155
 9243POPC   C1A47751  12.062  29.114   6.455
 9243POPC   D2A47752  12.076  29.172   6.755
 9243POPC   C3A47753  12.056  29.102   7.055
 9243POPC   C4A47754  12.034  29.195   7.355
 9243POPC   C1B47755  12.031  29.362   6.455
 9243POPC   C2B47756  12.007  29.389   6.755
 9243POPC   C3B47757  12.031  29.350   7.055
 9243POPC   C4B47758  12.001  29.384   7.355
 9244POPC   NC347759  22.935  28.325   5.555
 9244POPC   PO447760  22.955  28.340   5.855
 9244POPC   GL147761  22.942  28.412   6.155
 9244POPC   GL247762  22.822  28.285   6.155
 9244POPC   C1A47763  22.923  28.359   6.455
 9244POPC   D2A47764  22.908  28.341   6.755
 9244POPC   C3A47765  22.929  28.396   7.055
 9244POPC   C4A47766  22.987  28.395   7.355
 9244POPC   C1B47767  22.713  28.181   6.455
 9244POPC   C2B47768  22.724  28.210   6.755
 9244POPC   C3B47769  22.708  28.171   7.055
 9244POPC   C4B47770  22.748  28.238   7.355
 9245POPC   NC347771  21.402  21.387   5.555
 9245POPC   PO447772  21.387  21.435   5.855
 9245POPC   GL147773  21.382  21.354   6.155
 9245POPC   GL247774  21.495  21.450   6.155
 9245POPC   C1A47775  21.428  21.337   6.455
 9245POPC   D2A47776  21.383  21.431   6.755
 9245POPC   C3A47777  21.415  21.373   7.055
 9245POPC   C4A47778  21.338  21.367   7.355
 9245POPC   C1B47779  21.576  21.551   6.455
 9245POPC   C2B47780  21.565  21.562   6.755
 9245POPC   C3B47781  21.627  21.486   7.055
 9245POPC   C4B47782  21.630  21.507   7.355
 9246POPC   NC347783  35.398  36.916   5.555
 9246POPC   PO447784  35.308  36.946   5.855
 9246POPC   GL147785  35.334  36.914   6.155
 9246POPC   GL247786  35.473  36.916   6.155
 9246POPC   C1A47787  35.380  36.936   6.455
 9246POPC   D2A47788  35.364  36.887   6.755
 9246POPC   C3A47789  35.340  36.916   7.055
 9246POPC   C4A47790  35.312  36.877   7.355
 9246POPC   C1B47791  35.606  37.013   6.455
 9246POPC   C2B47792  35.572  36.940   6.755
 9246POPC   C3B47793  35.630  36.979   7.055
 9246POPC   C4B47794  35.600  36.933   7.355
 9247POPC   NC347795  10.549  43.155   5.555
 9247POPC   PO447796  10.491  43.144   5.855
 9247POPC   GL147797  10.560  43.143   6.155
 9247POPC   GL247798  10.410  43.246   6.155
 9247POPC   C1A47799  10.544  43.119   6.455
 9247POPC   D2A47800  10.536  43.137   6.755
 9247POPC   C3A47801  10.510  43.159   7.055
 9247POPC   C4A47802  10.515  43.092   7.355
 9247POPC   C1B47803  10.391  43.276   6.455
 9247POPC   C2B47804  10.420  43.309   6.755
 9247POPC   C3B47805  10.398  43.325   7.055
 9247POPC   C4B47806  10.374  43.296   7.355
 9248POPC   NC347807  38.501  16.691   5.555
 9248POPC   PO447808  38.490  16.742   5.855
 9248POPC   GL147809  38.447  16.688   6.155
 9248POPC   GL247810  38.541  16.637   6.155
 9248POPC   C1A47811  38.465  16.753   6.455
 9248POPC   D2A47812  38.423  16.735   6.755
 9248POPC   C3A47813  38.457  16.778   7.055
 9248POPC   C4A47814  38.455  16.755   7.355
 9248POPC   C1B47815  38.637  16.588   6.455
 9248POPC   C2B47816  38.596  16.531   6.755
 9248POPC   C3B47817  38.574  16.581   7.055
 9248POPC   C4B47818  38.615  16.558   7.355
 9249POPC   NC347819  27.630   1.199   5.555
 9249POPC   PO447820  27.586   1.250   5.855
 9249POPC   GL147821  27.554   1.175   6.155
 9249POPC   GL247822  27.727   1.234   6.155
 9249POPC   C1A47823  27.638   1.207   6.455
 9249POPC   D2A47824  27.607   1.218   6.755
 9249POPC   C3A47825  27.574   1.264   7.055
 9249POPC   C4A47826  27.559   1.164   7.355
 9249POPC   C1B47827  27.832   1.252   6.455
 9249POPC   C2B47828  27.834   1.232   6.755
 9249POPC   C3B47829  27.854   1.223   7.055
 9249POPC   C4B47830  27.846   1.276   7.355
 9250POPC   NC347831  22.204  16.780   5.555
 9250POPC   PO447832  22.206  16.705   5.855
 9250POPC   GL147833  22.127  16.702   6.155
 9250POPC   GL247834  22.242  16.566   6.155
 9250POPC   C1A47835  22.139  16.745   6.455
 9250POPC   D2A47836  22.169  16.776   6.755
 9250POPC   C3A47837  22.154  16.774   7.055
 9250POPC   C4A47838  22.196  16.747   7.355
 9250POPC   C1B47839  22.246  16.471   6.455
 9250POPC   C2B47840  22.219  16.455   6.755
 9250POPC   C3B47841  22.280  16.491   7.055
 9250POPC   C4B47842  22.202  16.457   7.355
 9251POPC   NC347843  19.821  29.890   5.555
 9251POPC   PO447844  19.787  29.898   5.855
 9251POPC   GL147845  19.877  29.938   6.155
 9251POPC   GL247846  20.008  29.889   6.155
 9251POPC   C1A47847  19.846  29.918   6.455
 9251POPC   D2A47848  19.838  29.940   6.755
 9251POPC   C3A47849  19.851  29.890   7.055
 9251POPC   C4A47850  19.800  29.912   7.355
 9251POPC   C1B47851  20.043  29.968   6.455
 9251POPC   C2B47852  20.047  29.966   6.755
 9251POPC   C3B47853  20.043  29.959   7.055
 9251POPC   C4B47854  20.089  29.895   7.355
 9252POPC   NC347855   5.898  10.554   5.555
 9252POPC   PO447856   5.916  10.561   5.855
 9252POPC   GL147857   5.840  10.528   6.155
 9252POPC   GL247858   5.975  10.607   6.155
 9252POPC   C1A47859   5.825  10.573   6.455
 9252POPC   D2A47860   5.894  10.479   6.755
 9252POPC   C3A47861   5.859  10.504   7.055
 9252POPC   C4A47862   5.891  10.562   7.355
 9252POPC   C1B47863   6.020  10.706   6.455
 9252POPC   C2B47864   6.053  10.691   6.755
 9252POPC   C3B47865   6.029  10.763   7.055
 9252POPC   C4B47866   5.975  10.744   7.355
 9253POPC   NC347867  19.097  19.016   5.555
 9253POPC   PO447868  19.078  19.100   5.855
 9253POPC   GL147869  19.067  19.047   6.155
 9253POPC   GL247870  19.139  18.930   6.155
 9253POPC   C1A47871  19.078  19.046   6.455
 9253POPC   D2A47872  19.073  19.049   6.755
 9253POPC   C3A47873  19.062  19.070   7.055
 9253POPC   C4A47874  19.020  19.107   7.355
 9253POPC   C1B47875  19.164  18.849   6.455
 9253POPC   C2B47876  19.156  18.821   6.755
 9253POPC   C3B47877  19.131  18.875   7.055
 9253POPC   C4B47878  19.196  18.832   7.355
 9254POPC   NC347879  43.910   6.600   5.555
 9254POPC   PO447880  43.840   6.667   5.855
 9254POPC   GL147881  43.925   6.694   6.155
 9254POPC   GL247882  43.886   6.489   6.155
 9254POPC   C1A47883  43.858   6.601   6.455
 9254POPC   D2A47884  43.916   6.674   6.755
 9254POPC   C3A47885  43.902   6.606   7.055
 9254POPC   C4A47886  43.897   6.678   7.355
 9254POPC   C1B47887  43.942   6.363   6.455
 9254POPC   C2B47888  43.980   6.361   6.755
 9254POPC   C3B47889  43.953   6.367   7.055
 9254POPC   C4B47890  43.909   6.398   7.355
 9255POPC   NC347891   7.468  27.599   5.555
 9255POPC   PO447892   7.437  27.549   5.855
 9255POPC   GL147893   7.396  27.588   6.155
 9255POPC   GL247894   7.518  27.571   6.155
 9255POPC   C1A47895   7.394  27.640   6.455
 9255POPC   D2A47896   7.421  27.588   6.755
 9255POPC   C3A47897   7.390  27.558   7.055
 9255POPC   C4A47898   7.393  27.555   7.355
 9255POPC   C1B47899   7.589  27.427   6.455
 9255POPC   C2B47900   7.589  27.489   6.755
 9255POPC   C3B47901   7.667  27.460   7.055
 9255POPC   C4B47902   7.623  27.500   7.355
 9256POPC   NC347903  18.283  12.804   5.555
 9256POPC   PO447904  18.322  12.864   5.855
 9256POPC   GL147905  18.291  12.891   6.155
 9256POPC   GL247906  18.258  12.716   6.155
 9256POPC   C1A47907  18.322  12.864   6.455
 9256POPC   D2A47908  18.301  12.823   6.755
 9256POPC   C3A47909  18.329  12.807   7.055
 9256POPC   C4A47910  18.291  12.889   7.355
 9256POPC   C1B47911  18.120  12.683   6.455
 9256POPC   C2B47912  18.116  12.642   6.755
 9256POPC   C3B47913  18.146  12.649   7.055
 9256POPC   C4B47914  18.142  12.599   7.355
 9257POPC   NC347915  17.467  24.504   5.555
 9257POPC   PO447916  17.505  24.449   5.855
 9257POPC   GL147917  17.554  24.519   6.155
 9257POPC   GL247918  17.387  24.529   6.155
 9257POPC   C1A47919  17.550  24.530   6.455
 9257POPC   D2A47920  17.476  24.450   6.755
 9257POPC   C3A47921  17.512  24.480   7.055
 9257POPC   C4A47922  17.552  24.498   7.355
 9257POPC   C1B47923  17.256  24.632   6.455
 9257POPC   C2B47924  17.325  24.672   6.755
 9257POPC   C3B47925  17.319  24.677   7.055
 9257POPC   C4B47926  17.343  24.624   7.355
 9258POPC   NC347927  39.229  26.030   5.555
 9258POPC   PO447928  39.228  26.016   5.855
 9258POPC   GL147929  39.206  26.064   6.155
 9258POPC   GL247930  39.140  26.069   6.155
 9258POPC   C1A47931  39.212  26.071   6.455
 9258POPC   D2A47932  39.242  26.030   6.755
 9258POPC   C3A47933  39.266  26.035   7.055
 9258POPC   C4A47934  39.234  26.016   7.355
 9258POPC   C1B47935  38.975  26.120   6.455
 9258POPC   C2B47936  39.004  26.123   6.755
 9258POPC   C3B47937  38.981  26.173   7.055
 9258POPC   C4B47938  38.958  26.150   7.355
 9259POPC   NC347939  26.042  21.352   5.555
 9259POPC   PO447940  26.011  21.421   5.855
 9259POPC   GL147941  26.052  21.420   6.155
 9259POPC   GL247942  26.123  21.439   6.155
 9259POPC   C1A47943  26.021  21.363   6.455
 9259POPC   D2A47944  26.059  21.400   6.755
 9259POPC   C3A47945  26.089  21.343   7.055
 9259POPC   C4A47946  25.995  21.366   7.355
 9259POPC   C1B47947  26.196  21.545   6.455
 9259POPC   C2B47948  26.235  21.552   6.755
 9259POPC   C3B47949  26.253  21.576   7.055
 9259POPC   C4B47950  26.183  21.565   7.355
 9260POPC   NC347951   0.433   9.716   5.555
 9260POPC   PO447952   0.404   9.750   5.855
 9260POPC   GL147953   0.423   9.712   6.155
 9260POPC   GL247954   0.428   9.583   6.155
 9260POPC   C1A47955   0.481   9.789   6.455
 9260POPC   D2A47956   0.438   9.743   6.755
 9260POPC   C3A47957   0.404   9.736   7.055
 9260POPC   C4A47958   0.438   9.702   7.355
 9260POPC   C1B47959   0.519   9.489   6.455
 9260POPC   C2B47960   0.517   9.500   6.755
 9260POPC   C3B47961   0.503   9.550   7.055
 9260POPC   C4B47962   0.463   9.511   7.355
 9261POPC   NC347963  34.536  19.011   5.555
 9261POPC   PO447964  34.583  19.047   5.855
 9261POPC   GL147965  34.620  19.015   6.155
 9261POPC   GL247966  34.481  18.986   6.155
 9261POPC   C1A47967  34.527  19.025   6.455
 9261POPC   D2A47968  34.595  19.077   6.755
 9261POPC   C3A47969  34.567  19.042   7.055
 9261POPC   C4A47970  34.560  19.063   7.355
 9261POPC   C1B47971  34.380  18.937   6.455
 9261POPC   C2B47972  34.374  18.897   6.755
 9261POPC   C3B47973  34.366  18.907   7.055
 9261POPC   C4B47974  34.392  18.963   7.355
 9262POPC   NC347975   5.064  25.278   5.555
 9262POPC   PO447976   5.048  25.217   5.855
 9262POPC   GL147977   5.125  25.238   6.155
 9262POPC   GL247978   5.024  25.384   6.155
 9262POPC   C1A47979   5.045  25.257   6.455
 9262POPC   D2A47980   5.128  25.279   6.755
 9262POPC   C3A47981   5.044  25.264   7.055
 9262POPC   C4A47982   5.117  25.285   7.355
 9262POPC   C1B47983   4.906  25.425   6.455
 9262POPC   C2B47984   4.896  25.369   6.755
 9262POPC   C3B47985   4.880  25.435   7.055
 9262POPC   C4B47986   4.862  25.411   7.355
 9263POPC   NC347987  22.922  26.839   5.555
 9263POPC   PO447988  22.896  26.806   5.855
 9263POPC   GL147989  22.932  26.849   6.155
 9263POPC   GL247990  22.787  26.808   6.155
 9263POPC   C1A47991  22.976  26.816   6.455
 9263POPC   D2A47992  22.892  26.771   6.755
 9263POPC   C3A47993  22.970  26.779   7.055
 9263POPC   C4A47994  22.980  26.805   7.355
 9263POPC   C1B47995  22.726  26.933   6.455
 9263POPC   C2B47996  22.737  26.865   6.755
 9263POPC   C3B47997  22.651  26.882   7.055
 9263POPC   C4B47998  22.670  26.907   7.355
 9264POPC   NC347999  29.900  29.875   5.555
 9264POPC   PO448000  29.890  29.918   5.855
 9264POPC   GL148001  29.918  29.909   6.155
 9264POPC   GL248002  29.834  29.949   6.155
 9264POPC   C1A48003  29.889  29.922   6.455
 9264POPC   D2A48004  29.965  29.901   6.755
 9264POPC   C3A48005  29.952  29.882   7.055
 9264POPC   C4A48006  29.881  29.926   7.355
 9264POPC   C1B48007  29.641  29.845   6.455
 9264POPC   C2B48008  29.659  29.900   6.755
 9264POPC   C3B48009  29.638  29.863   7.055
 9264POPC   C4B48010  29.662  29.906   7.355
 9265POPC   NC348011  24.537  33.786   5.555
 9265POPC   PO448012  24.511  33.846   5.855
 9265POPC   GL148013  24.513  33.791   6.155
 9265POPC   GL248014  24.506  33.948   6.155
 9265POPC   C1A48015  24.445  33.768   6.455
 9265POPC   D2A48016  24.463  33.781   6.755
 9265POPC   C3A48017  24.455  33.811   7.055
 9265POPC   C4A48018  24.491  33.811   7.355
 9265POPC   C1B48019  24.443  34.056   6.455
 9265POPC   C2B48020  24.454  34.087   6.755
 9265POPC   C3B48021  24.408  34.026   7.055
 9265POPC   C4B48022  24.410  34.031   7.355
 9266POPC   NC348023  15.138  26.838   5.555
 9266POPC   PO448024  15.143  26.848   5.855
 9266POPC   GL148025  15.148  26.817   6.155
 9266POPC   GL248026  15.050  26.709   6.155
 9266POPC   C1A48027  15.176  26.841   6.455
 9266POPC   D2A48028  15.176  26.774   6.755
 9266POPC   C3A48029  15.142  26.824   7.055
 9266POPC   C4A48030  15.198  26.844   7.355
 9266POPC   C1B48031  14.967  26.613   6.455
 9266POPC   C2B48032  14.977  26.601   6.755
 9266POPC   C3B48033  14.958  26.649   7.055
 9266POPC   C4B48034  14.970  26.686   7.355
 9267POPC   NC348035  24.442  34.608   5.555
 9267POPC   PO448036  24.530  34.594   5.855
 9267POPC   GL148037  24.446  34.609   6.155
 9267POPC   GL248038  24.560  34.599   6.155
 9267POPC   C1A48039  24.453  34.527   6.455
 9267POPC   D2A48040  24.523  34.608   6.755
 9267POPC   C3A48041  24.508  34.562   7.055
 9267POPC   C4A48042  24.532  34.587   7.355
 9267POPC   C1B48043  24.741  34.609   6.455
 9267POPC   C2B48044  24.704  34.596   6.755
 9267POPC   C3B48045  24.701  34.605   7.055
 9267POPC   C4B48046  24.708  34.642   7.355
 9268POPC   NC348047  26.082   4.294   5.555
 9268POPC   PO448048  25.994   4.317   5.855
 9268POPC   GL148049  26.034   4.363   6.155
 9268POPC   GL248050  26.078   4.216   6.155
 9268POPC   C1A48051  26.010   4.333   6.455
 9268POPC   D2A48052  26.057   4.337   6.755
 9268POPC   C3A48053  26.077   4.348   7.055
 9268POPC   C4A48054  26.046   4.328   7.355
 9268POPC   C1B48055  26.228   4.121   6.455
 9268POPC   C2B48056  26.201   4.119   6.755
 9268POPC   C3B48057  26.209   4.100   7.055
 9268POPC   C4B48058  26.183   4.114   7.355
 9269POPC   NC348059  20.598  35.322   5.555
 9269POPC   PO448060  20.616  35.375   5.855
 9269POPC   GL148061  20.567  35.354   6.155
 9269POPC   GL248062  20.721  35.432   6.155
 9269POPC   C1A48063  20.618  35.381   6.455
 9269POPC   D2A48064  20.589  35.320   6.755
 9269POPC   C3A48065  20.634  35.345   7.055
 9269POPC   C4A48066  20.626  35.362   7.355
 9269POPC   C1B48067  20.761  35.534   6.455
 9269POPC   C2B48068  20.735  35.548   6.755
 9269POPC   C3B48069  20.753  35.610   7.055
 9269POPC   C4B48070  20.736  35.561   7.355
 9270POPC   NC348071  20.566  41.514   5.555
 9270POPC   PO448072  20.649  41.537   5.855
 9270POPC   GL148073  20.659  41.607   6.155
 9270POPC   GL248074  20.512  41.565   6.155
 9270POPC   C1A48075  20.637  41.530   6.455
 9270POPC   D2A48076  20.657  41.585   6.755
 9270POPC   C3A48077  20.563  41.523   7.055
 9270POPC   C4A48078  20.613  41.593   7.355
 9270POPC   C1B48079  20.334  41.576   6.455
 9270POPC   C2B48080  20.337  41.599   6.755
 9270POPC   C3B48081  20.404  41.600   7.055
 9270POPC   C4B48082  20.332  41.531   7.355
 9271POPC   NC348083  13.581   2.723   5.555
 9271POPC   PO448084  13.580   2.759   5.855
 9271POPC   GL148085  13.605   2.766   6.155
 9271POPC   GL248086  13.737   2.773   6.155
 9271POPC   C1A48087  13.631   2.781   6.455
 9271POPC   D2A48088  13.602   2.762   6.755
 9271POPC   C3A48089  13.591   2.790   7.055
 9271POPC   C4A48090  13.584   2.747   7.355
 9271POPC   C1B48091  13.828   2.817   6.455
 9271POPC   C2B48092  13.886   2.750   6.755
 9271POPC   C3B48093  13.859   2.802   7.055
 9271POPC   C4B48094  13.904   2.770   7.355
 9272POPC   NC348095  29.165   4.314   5.555
 9272POPC   PO448096  29.111   4.350   5.855
 9272POPC   GL148097  29.170   4.305   6.155
 9272POPC   GL248098  29.144   4.152   6.155
 9272POPC   C1A48099  29.129   4.293   6.455
 9272POPC   D2A48100  29.125   4.294   6.755
 9272POPC   C3A48101  29.096   4.290   7.055
 9272POPC   C4A48102  29.171   4.326   7.355
 9272POPC   C1B48103  29.067   4.080   6.455
 9272POPC   C2B48104  29.156   4.080   6.755
 9272POPC   C3B48105  29.087   4.114   7.055
 9272POPC   C4B48106  29.076   4.112   7.355
 9273POPC   NC348107   1.996  12.818   5.555
 9273POPC   PO448108   1.961  12.811   5.855
 9273POPC   GL148109   1.999  12.816   6.155
 9273POPC   GL248110   2.114  12.806   6.155
 9273POPC   C1A48111   1.955  12.890   6.455
 9273POPC   D2A48112   1.999  12.829   6.755
 9273POPC   C3A48113   2.001  12.847   7.055
 9273POPC   C4A48114   1.942  12.875   7.355
 9273POPC   C1B48115   2.187  12.679   6.455
 9273POPC   C2B48116   2.206  12.739   6.755
 9273POPC   C3B48117   2.165  12.687   7.055
 9273POPC   C4B48118   2.182  12.727   7.355
 9274POPC   NC348119  23.671   6.661   5.555
 9274POPC   PO448120  23.754   6.628   5.855
 9274POPC   GL148121  23.666   6.648   6.155
 9274POPC   GL248122  23.647   6.808   6.155
 9274POPC   C1A48123  23.700   6.664   6.455
 9274POPC   D2A48124  23.703   6.671   6.755
 9274POPC   C3A48125  23.724   6.610   7.055
 9274POPC   C4A48126  23.716   6.671   7.355
 9274POPC   C1B48127  23.699   6.846   6.455
 9274POPC   C2B48128  23.642   6.915   6.755
 9274POPC   C3B48129  23.685   6.860   7.055
 9274POPC   C4B48130  23.646   6.868   7.355
 9275POPC   NC348131  19.790  43.872   5.555
 9275POPC   PO448132  19.849  43.898   5.855
 9275POPC   GL148133  19.800  43.855   6.155
 9275POPC   GL248134  19.734  43.845   6.155
 9275POPC   C1A48135  19.844  43.852   6.455
 9275POPC   D2A48136  19.792  43.877   6.755
 9275POPC   C3A48137  19.883  43.850   7.055
 9275POPC   C4A48138  19.808  43.851   7.355
 9275POPC   C1B48139  19.605  43.761   6.455
 9275POPC   C2B48140  19.645  43.675   6.755
 9275POPC   C3B48141  19.642  43.738   7.055
 9275POPC   C4B48142  19.613  43.719   7.355
 9276POPC   NC348143  14.436  29.175   5.555
 9276POPC   PO448144  14.378  29.108   5.855
 9276POPC   GL148145  14.359  29.103   6.155
 9276POPC   GL248146  14.504  29.108   6.155
 9276POPC   C1A48147  14.413  29.106   6.455
 9276POPC   D2A48148  14.428  29.174   6.755
 9276POPC   C3A48149  14.418  29.154   7.055
 9276POPC   C4A48150  14.361  29.111   7.355
 9276POPC   C1B48151  14.614  29.062   6.455
 9276POPC   C2B48152  14.682  29.105   6.755
 9276POPC   C3B48153  14.689  29.033   7.055
 9276POPC   C4B48154  14.656  29.092   7.355
 9277POPC   NC348155  15.140   0.414   5.555
 9277POPC   PO448156  15.183   0.454   5.855
 9277POPC   GL148157  15.201   0.480   6.155
 9277POPC   GL248158  15.055   0.531   6.155
 9277POPC   C1A48159  15.177   0.399   6.455
 9277POPC   D2A48160  15.162   0.422   6.755
 9277POPC   C3A48161  15.149   0.462   7.055
 9277POPC   C4A48162  15.200   0.407   7.355
 9277POPC   C1B48163  15.044   0.655   6.455
 9277POPC   C2B48164  14.992   0.615   6.755
 9277POPC   C3B48165  14.954   0.568   7.055
 9277POPC   C4B48166  14.984   0.637   7.355
 9278POPC   NC348167  21.362  22.903   5.555
 9278POPC   PO448168  21.377  22.897   5.855
 9278POPC   GL148169  21.424  22.935   6.155
 9278POPC   GL248170  21.256  22.877   6.155
 9278POPC   C1A48171  21.361  22.970   6.455
 9278POPC   D2A48172  21.393  22.987   6.755
 9278POPC   C3A48173  21.382  22.952   7.055
 9278POPC   C4A48174  21.403  22.911   7.355
 9278POPC   C1B48175  21.091  22.885   6.455
 9278POPC   C2B48176  21.186  22.888   6.755
 9278POPC   C3B48177  21.176  22.896   7.055
 9278POPC   C4B48178  21.142  22.932   7.355
 9279POPC   NC348179   7.459  22.906   5.555
 9279POPC   PO448180   7.397  22.896   5.855
 9279POPC   GL148181   7.393  22.953   6.155
 9279POPC   GL248182   7.519  22.892   6.155
 9279POPC   C1A48183   7.372  22.975   6.455
 9279POPC   D2A48184   7.466  22.971   6.755
 9279POPC   C3A48185   7.381  22.943   7.055
 9279POPC   C4A48186   7.391  22.896   7.355
 9279POPC   C1B48187   7.628  22.885   6.455
 9279POPC   C2B48188   7.693  22.892   6.755
 9279POPC   C3B48189   7.610  22.883   7.055
 9279POPC   C4B48190   7.623  22.805   7.355
 9280POPC   NC348191  19.785  27.561   5.555
 9280POPC   PO448192  19.848  27.632   5.855
 9280POPC   GL148193  19.882  27.561   6.155
 9280POPC   GL248194  19.797  27.668   6.155
 9280POPC   C1A48195  19.800  27.570   6.455
 9280POPC   D2A48196  19.846  27.618   6.755
 9280POPC   C3A48197  19.833  27.603   7.055
 9280POPC   C4A48198  19.833  27.565   7.355
 9280POPC   C1B48199  19.716  27.842   6.455
 9280POPC   C2B48200  19.713  27.800   6.755
 9280POPC   C3B48201  19.689  27.845   7.055
 9280POPC   C4B48202  19.677  27.784   7.355
 9281POPC   NC348203  21.433  26.045   5.555
 9281POPC   PO448204  21.356  26.058   5.855
 9281POPC   GL148205  21.405  26.009   6.155
 9281POPC   GL248206  21.333  25.949   6.155
 9281POPC   C1A48207  21.384  26.049   6.455
 9281POPC   D2A48208  21.412  26.067   6.755
 9281POPC   C3A48209  21.369  26.076   7.055
 9281POPC   C4A48210  21.409  26.030   7.355
 9281POPC   C1B48211  21.250  25.808   6.455
 9281POPC   C2B48212  21.250  25.856   6.755
 9281POPC   C3B48213  21.322  25.773   7.055
 9281POPC   C4B48214  21.313  25.841   7.355
 9282POPC   NC348215  14.434  21.415   5.555
 9282POPC   PO448216  14.396  21.412   5.855
 9282POPC   GL148217  14.423  21.343   6.155
 9282POPC   GL248218  14.496  21.311   6.155
 9282POPC   C1A48219  14.425  21.435   6.455
 9282POPC   D2A48220  14.369  21.412   6.755
 9282POPC   C3A48221  14.361  21.428   7.055
 9282POPC   C4A48222  14.362  21.434   7.355
 9282POPC   C1B48223  14.553  21.248   6.455
 9282POPC   C2B48224  14.597  21.208   6.755
 9282POPC   C3B48225  14.580  21.216   7.055
 9282POPC   C4B48226  14.537  21.167   7.355
 9283POPC   NC348227   6.601  20.565   5.555
 9283POPC   PO448228   6.628  20.573   5.855
 9283POPC   GL148229   6.688  20.591   6.155
 9283POPC   GL248230   6.740  20.552   6.155
 9283POPC   C1A48231   6.664  20.623   6.455
 9283POPC   D2A48232   6.630  20.581   6.755
 9283POPC   C3A48233   6.615  20.609   7.055
 9283POPC   C4A48234   6.597  20.632   7.355
 9283POPC   C1B48235   6.855  20.562   6.455
 9283POPC   C2B48236   6.848  20.502   6.755
 9283POPC   C3B48237   6.865  20.534   7.055
 9283POPC   C4B48238   6.849  20.513   7.355
 9284POPC   NC348239  22.980  40.765   5.555
 9284POPC   PO448240  22.978  40.786   5.855
 9284POPC   GL148241  22.974  40.779   6.155
 9284POPC   GL248242  22.975  40.706   6.155
 9284POPC   C1A48243  22.898  40.775   6.455
 9284POPC   D2A48244  22.954  40.777   6.755
 9284POPC   C3A48245  22.928  40.741   7.055
 9284POPC   C4A48246  22.907  40.737   7.355
 9284POPC   C1B48247  23.104  40.622   6.455
 9284POPC   C2B48248  23.088  40.558   6.755
 9284POPC   C3B48249  23.121  40.551   7.055
 9284POPC   C4B48250  23.092  40.611   7.355
 9285POPC   NC348251  26.866  17.473   5.555
 9285POPC   PO448252  26.790  17.547   5.855
 9285POPC   GL148253  26.770  17.485   6.155
 9285POPC   GL248254  26.801  17.349   6.155
 9285POPC   C1A48255  26.845  17.502   6.455
 9285POPC   D2A48256  26.801  17.518   6.755
 9285POPC   C3A48257  26.772  17.501   7.055
 9285POPC   C4A48258  26.821  17.527   7.355
 9285POPC   C1B48259  26.804  17.219   6.455
 9285POPC   C2B48260  26.812  17.216   6.755
 9285POPC   C3B48261  26.864  17.228   7.055
 9285POPC   C4B48262  26.841  17.233   7.355
 9286POPC   NC348263  26.851  10.563   5.555
 9286POPC   PO448264  26.774  10.546   5.855
 9286POPC   GL148265  26.858  10.503   6.155
 9286POPC   GL248266  26.953  10.536   6.155
 9286POPC   C1A48267  26.788  10.477   6.455
 9286POPC   D2A48268  26.795  10.521   6.755
 9286POPC   C3A48269  26.789  10.539   7.055
 9286POPC   C4A48270  26.795  10.546   7.355
 9286POPC   C1B48271  27.073  10.505   6.455
 9286POPC   C2B48272  27.061  10.487   6.755
 9286POPC   C3B48273  27.066  10.534   7.055
 9286POPC   C4B48274  27.018  10.476   7.355
 9287POPC   NC348275  24.526  30.684   5.555
 9287POPC   PO448276  24.481  30.713   5.855
 9287POPC   GL148277  24.475  30.738   6.155
 9287POPC   GL248278  24.354  30.701   6.155
 9287POPC   C1A48279  24.461  30.686   6.455
 9287POPC   D2A48280  24.526  30.707   6.755
 9287POPC   C3A48281  24.470  30.729   7.055
 9287POPC   C4A48282  24.531  30.733   7.355
 9287POPC   C1B48283  24.231  30.786   6.455
 9287POPC   C2B48284  24.203  30.775   6.755
 9287POPC   C3B48285  24.282  30.766   7.055
 9287POPC   C4B48286  24.226  30.743   7.355
 9288POPC   NC348287  43.913  43.899   5.555
 9288POPC   PO448288  43.925  43.874   5.855
 9288POPC   GL148289  43.855  43.927   6.155
 9288POPC   GL248290  43.868  43.764   6.155
 9288POPC   C1A48291  43.926  43.841   6.455
 9288POPC   D2A48292  43.899  43.870   6.755
 9288POPC   C3A48293  43.865  43.930   7.055
 9288POPC   C4A48294  43.842  43.873   7.355
 9288POPC   C1B48295  43.771  43.625   6.455
 9288POPC   C2B48296  43.845  43.646   6.755
 9288POPC   C3B48297  43.820  43.637   7.055
 9288POPC   C4B48298  43.846  43.630   7.355
 9289POPC   NC348299  31.430  33.046   5.555
 9289POPC   PO448300  31.501  33.035   5.855
 9289POPC   GL148301  31.442  32.975   6.155
 9289POPC   GL248302  31.518  32.896   6.155
 9289POPC   C1A48303  31.453  32.999   6.455
 9289POPC   D2A48304  31.449  33.048   6.755
 9289POPC   C3A48305  31.508  33.019   7.055
 9289POPC   C4A48306  31.432  33.053   7.355
 9289POPC   C1B48307  31.547  32.744   6.455
 9289POPC   C2B48308  31.572  32.768   6.755
 9289POPC   C3B48309  31.565  32.807   7.055
 9289POPC   C4B48310  31.536  32.793   7.355
 9290POPC   NC348311  15.203  12.843   5.555
 9290POPC   PO448312  15.196  12.872   5.855
 9290POPC   GL148313  15.229  12.819   6.155
 9290POPC   GL248314  15.082  12.790   6.155
 9290POPC   C1A48315  15.209  12.895   6.455
 9290POPC   D2A48316  15.197  12.829   6.755
 9290POPC   C3A48317  15.147  12.822   7.055
 9290POPC   C4A48318  15.227  12.812   7.355
 9290POPC   C1B48319  15.037  12.621   6.455
 9290POPC   C2B48320  15.039  12.597   6.755
 9290POPC   C3B48321  15.059  12.670   7.055
 9290POPC   C4B48322  15.068  12.625   7.355
 9291POPC   NC348323  37.705  31.495   5.555
 9291POPC   PO448324  37.634  31.473   5.855
 9291POPC   GL148325  37.672  31.513   6.155
 9291POPC   GL248326  37.580  31.402   6.155
 9291POPC   C1A48327  37.665  31.481   6.455
 9291POPC   D2A48328  37.654  31.493   6.755
 9291POPC   C3A48329  37.687  31.468   7.055
 9291POPC   C4A48330  37.649  31.445   7.355
 9291POPC   C1B48331  37.433  31.468   6.455
 9291POPC   C2B48332  37.462  31.382   6.755
 9291POPC   C3B48333  37.432  31.448   7.055
 9291POPC   C4B48334  37.459  31.465   7.355
 9292POPC   NC348335  26.061  40.794   5.555
 9292POPC   PO448336  26.005  40.813   5.855
 9292POPC   GL148337  26.084  40.795   6.155
 9292POPC   GL248338  26.082  40.667   6.155
 9292POPC   C1A48339  26.063  40.808   6.455
 9292POPC   D2A48340  26.069  40.832   6.755
 9292POPC   C3A48341  26.031  40.762   7.055
 9292POPC   C4A48342  26.072  40.763   7.355
 9292POPC   C1B48343  26.229  40.571   6.455
 9292POPC   C2B48344  26.185  40.566   6.755
 9292POPC   C3B48345  26.166  40.554   7.055
 9292POPC   C4B48346  26.169  40.582   7.355
 9293POPC   NC348347  17.492  22.180   5.555
 9293POPC   PO448348  17.475  22.171   5.855
 9293POPC   GL148349  17.526  22.203   6.155
 9293POPC   GL248350  17.421  22.109   6.155
 9293POPC   C1A48351  17.464  22.116   6.455
 9293POPC   D2A48352  17.469  22.152   6.755
 9293POPC   C3A48353  17.473  22.191   7.055
 9293POPC   C4A48354  17.462  22.187   7.355
 9293POPC   C1B48355  17.232  22.098   6.455
 9293POPC   C2B48356  17.254  22.035   6.755
 9293POPC   C3B48357  17.231  22.051   7.055
 9293POPC   C4B48358  17.229  22.107   7.355
 9294POPC   NC348359   6.659   4.309   5.555
 9294POPC   PO448360   6.657   4.275   5.855
 9294POPC   GL148361   6.673   4.295   6.155
 9294POPC   GL248362   6.812   4.280   6.155
 9294POPC   C1A48363   6.672   4.360   6.455
 9294POPC   D2A48364   6.686   4.331   6.755
 9294POPC   C3A48365   6.656   4.330   7.055
 9294POPC   C4A48366   6.637   4.279   7.355
 9294POPC   C1B48367   6.850   4.337   6.455
 9294POPC   C2B48368   6.898   4.299   6.755
 9294POPC   C3B48369   6.895   4.255   7.055
 9294POPC   C4B48370   6.849   4.332   7.355
 9295POPC   NC348371   5.819  22.977   5.555
 9295POPC   PO448372   5.861  22.932   5.855
 9295POPC   GL148373   5.913  22.988   6.155
 9295POPC   GL248374   5.963  22.843   6.155
 9295POPC   C1A48375   5.827  22.926   6.455
 9295POPC   D2A48376   5.874  22.911   6.755
 9295POPC   C3A48377   5.918  22.926   7.055
 9295POPC   C4A48378   5.905  22.896   7.355
 9295POPC   C1B48379   5.993  22.746   6.455
 9295POPC   C2B48380   5.994  22.695   6.755
 9295POPC   C3B48381   6.012  22.723   7.055
 9295POPC   C4B48382   5.972  22.727   7.355
 9296POPC   NC348383  12.048  24.516   5.555
 9296POPC   PO448384  12.048  24.484   5.855
 9296POPC   GL148385  12.084  24.517   6.155
 9296POPC   GL248386  11.937  24.550   6.155
 9296POPC   C1A48387  12.036  24.490   6.455
 9296POPC   D2A48388  12.054  24.508   6.755
 9296POPC   C3A48389  12.096  24.482   7.055
 9296POPC   C4A48390  12.045  24.496   7.355
 9296POPC   C1B48391  11.818  24.527   6.455
 9296POPC   C2B48392  11.810  24.474   6.755
 9296POPC   C3B48393  11.866  24.470   7.055
 9296POPC   C4B48394  11.795  24.538   7.355
 9297POPC   NC348395  32.228   9.711   5.555
 9297POPC   PO448396  32.235   9.774   5.855
 9297POPC   GL148397  32.243   9.769   6.155
 9297POPC   GL248398  32.366   9.837   6.155
 9297POPC   C1A48399  32.222   9.700   6.455
 9297POPC   D2A48400  32.247   9.791   6.755
 9297POPC   C3A48401  32.274   9.775   7.055
 9297POPC   C4A48402  32.253   9.699   7.355
 9297POPC   C1B48403  32.504   9.873   6.455
 9297POPC   C2B48404  32.424   9.874   6.755
 9297POPC   C3B48405  32.468   9.874   7.055
 9297POPC   C4B48406  32.448   9.884   7.355
 9298POPC   NC348407  25.313  42.353   5.555
 9298POPC   PO448408  25.298  42.343   5.855
 9298POPC   GL148409  25.297  42.304   6.155
 9298POPC   GL248410  25.339  42.452   6.155
 9298POPC   C1A48411  25.315  42.314   6.455
 9298POPC   D2A48412  25.225  42.308   6.755
 9298POPC   C3A48413  25.249  42.337   7.055
 9298POPC   C4A48414  25.314  42.297   7.355
 9298POPC   C1B48415  25.438  42.579   6.455
 9298POPC   C2B48416  25.356  42.524   6.755
 9298POPC   C3B48417  25.400  42.517   7.055
 9298POPC   C4B48418  25.426  42.527   7.355
 9299POPC   NC348419  22.142  19.074   5.555
 9299POPC   PO448420  22.120  19.013   5.855
 9299POPC   GL148421  22.189  19.083   6.155
 9299POPC   GL248422  22.132  19.179   6.155
 9299POPC   C1A48423  22.121  19.069   6.455
 9299POPC   D2A48424  22.154  19.017   6.755
 9299POPC   C3A48425  22.198  19.109   7.055
 9299POPC   C4A48426  22.188  19.056   7.355
 9299POPC   C1B48427  22.142  19.278   6.455
 9299POPC   C2B48428  22.118  19.293   6.755
 9299POPC   C3B48429  22.129  19.296   7.055
 9299POPC   C4B48430  22.113  19.299   7.355
 9300POPC   NC348431  25.269  21.356   5.555
 9300POPC   PO448432  25.218  21.436   5.855
 9300POPC   GL148433  25.267  21.339   6.155
 9300POPC   GL248434  25.119  21.420   6.155
 9300POPC   C1A48435  25.302  21.349   6.455
 9300POPC   D2A48436  25.266  21.382   6.755
 9300POPC   C3A48437  25.217  21.343   7.055
 9300POPC   C4A48438  25.249  21.381   7.355
 9300POPC   C1B48439  25.091  21.509   6.455
 9300POPC   C2B48440  25.051  21.548   6.755
 9300POPC   C3B48441  25.007  21.477   7.055
 9300POPC   C4B48442  25.094  21.496   7.355
 9301POPC   NC348443   9.750  36.899   5.555
 9301POPC   PO448444   9.718  36.870   5.855
 9301POPC   GL148445   9.719  36.936   6.155
 9301POPC   GL248446   9.886  36.966   6.155
 9301POPC   C1A48447   9.716  36.874   6.455
 9301POPC   D2A48448   9.734  36.896   6.755
 9301POPC   C3A48449   9.781  36.947   7.055
 9301POPC   C4A48450   9.725  36.942   7.355
 9301POPC   C1B48451   9.947  36.969   6.455
 9301POPC   C2B48452   9.952  37.041   6.755
 9301POPC   C3B48453  10.004  36.972   7.055
 9301POPC   C4B48454   9.983  37.032   7.355
 9302POPC   NC348455  21.413  14.387   5.555
 9302POPC   PO448456  21.393  14.400   5.855
 9302POPC   GL148457  21.381  14.437   6.155
 9302POPC   GL248458  21.278  14.485   6.155
 9302POPC   C1A48459  21.402  14.388   6.455
 9302POPC   D2A48460  21.429  14.416   6.755
 9302POPC   C3A48461  21.376  14.450   7.055
 9302POPC   C4A48462  21.348  14.359   7.355
 9302POPC   C1B48463  21.236  14.580   6.455
 9302POPC   C2B48464  21.217  14.568   6.755
 9302POPC   C3B48465  21.184  14.587   7.055
 9302POPC   C4B48466  21.217  14.576   7.355
 9303POPC   NC348467  24.513  36.145   5.555
 9303POPC   PO448468  24.466  36.079   5.855
 9303POPC   GL148469  24.519  36.090   6.155
 9303POPC   GL248470  24.379  36.101   6.155
 9303POPC   C1A48471  24.468  36.152   6.455
 9303POPC   D2A48472  24.482  36.107   6.755
 9303POPC   C3A48473  24.496  36.104   7.055
 9303POPC   C4A48474  24.480  36.156   7.355
 9303POPC   C1B48475  24.268  35.966   6.455
 9303POPC   C2B48476  24.278  36.024   6.755
 9303POPC   C3B48477  24.238  35.951   7.055
 9303POPC   C4B48478  24.237  35.967   7.355
 9304POPC   NC348479  40.048   0.398   5.555
 9304POPC   PO448480  40.048   0.404   5.855
 9304POPC   GL148481  39.960   0.460   6.155
 9304POPC   GL248482  40.114   0.308   6.155
 9304POPC   C1A48483  40.037   0.485   6.455
 9304POPC   D2A48484  39.982   0.422   6.755
 9304POPC   C3A48485  39.988   0.477   7.055
 9304POPC   C4A48486  39.958   0.467   7.355
 9304POPC   C1B48487  40.135   0.267   6.455
 9304POPC   C2B48488  40.144   0.270   6.755
 9304POPC   C3B48489  40.125   0.222   7.055
 9304POPC   C4B48490  40.116   0.208   7.355
 9305POPC   NC348491  28.382  27.607   5.555
 9305POPC   PO448492  28.392  27.549   5.855
 9305POPC   GL148493  28.369  27.611   6.155
 9305POPC   GL248494  28.399  27.420   6.155
 9305POPC   C1A48495  28.376  27.598   6.455
 9305POPC   D2A48496  28.334  27.643   6.755
 9305POPC   C3A48497  28.342  27.604   7.055
 9305POPC   C4A48498  28.360  27.563   7.355
 9305POPC   C1B48499  28.399  27.389   6.455
 9305POPC   C2B48500  28.379  27.376   6.755
 9305POPC   C3B48501  28.416  27.336   7.055
 9305POPC   C4B48502  28.332  27.319   7.355
 9306POPC   NC348503  10.540  26.769   5.555
 9306POPC   PO448504  10.545  26.866   5.855
 9306POPC   GL148505  10.512  26.847   6.155
 9306POPC   GL248506  10.646  26.950   6.155
 9306POPC   C1A48507  10.519  26.838   6.455
 9306POPC   D2A48508  10.543  26.858   6.755
 9306POPC   C3A48509  10.481  26.771   7.055
 9306POPC   C4A48510  10.540  26.819   7.355
 9306POPC   C1B48511  10.658  26.984   6.455
 9306POPC   C2B48512  10.733  26.980   6.755
 9306POPC   C3B48513  10.701  27.029   7.055
 9306POPC   C4B48514  10.691  26.999   7.355
 9307POPC   NC348515  34.602  24.490   5.555
 9307POPC   PO448516  34.562  24.499   5.855
 9307POPC   GL148517  34.595  24.454   6.155
 9307POPC   GL248518  34.519  24.560   6.155
 9307POPC   C1A48519  34.569  24.487   6.455
 9307POPC   D2A48520  34.610  24.475   6.755
 9307POPC   C3A48521  34.552  24.536   7.055
 9307POPC   C4A48522  34.618  24.489   7.355
 9307POPC   C1B48523  34.447  24.696   6.455
 9307POPC   C2B48524  34.452  24.629   6.755
 9307POPC   C3B48525  34.457  24.638   7.055
 9307POPC   C4B48526  34.386  24.678   7.355
 9308POPC   NC348527  14.439  38.423   5.555
 9308POPC   PO448528  14.414  38.476   5.855
 9308POPC   GL148529  14.365  38.429   6.155
 9308POPC   GL248530  14.435  38.562   6.155
 9308POPC   C1A48531  14.443  38.465   6.455
 9308POPC   D2A48532  14.371  38.483   6.755
 9308POPC   C3A48533  14.407  38.483   7.055
 9308POPC   C4A48534  14.401  38.428   7.355
 9308POPC   C1B48535  14.413  38.667   6.455
 9308POPC   C2B48536  14.404  38.665   6.755
 9308POPC   C3B48537  14.452  38.671   7.055
 9308POPC   C4B48538  14.417  38.671   7.355
 9309POPC   NC348539  40.783  39.187   5.555
 9309POPC   PO448540  40.753  39.208   5.855
 9309POPC   GL148541  40.741  39.258   6.155
 9309POPC   GL248542  40.764  39.387   6.155
 9309POPC   C1A48543  40.740  39.238   6.455
 9309POPC   D2A48544  40.743  39.195   6.755
 9309POPC   C3A48545  40.751  39.228   7.055
 9309POPC   C4A48546  40.777  39.272   7.355
 9309POPC   C1B48547  40.705  39.509   6.455
 9309POPC   C2B48548  40.664  39.418   6.755
 9309POPC   C3B48549  40.676  39.489   7.055
 9309POPC   C4B48550  40.662  39.507   7.355
 9310POPC   NC348551  26.025  15.192   5.555
 9310POPC   PO448552  26.020  15.140   5.855
 9310POPC   GL148553  26.085  15.205   6.155
 9310POPC   GL248554  25.958  15.236   6.155
 9310POPC   C1A48555  26.050  15.209   6.455
 9310POPC   D2A48556  26.073  15.219   6.755
 9310POPC   C3A48557  25.994  15.145   7.055
 9310POPC   C4A48558  26.021  15.134   7.355
 9310POPC   C1B48559  25.790  15.275   6.455
 9310POPC   C2B48560  25.795  15.328   6.755
 9310POPC   C3B48561  25.875  15.271   7.055
 9310POPC   C4B48562  25.820  15.329   7.355
 9311POPC   NC348563  38.432  23.731   5.555
 9311POPC   PO448564  38.498  23.718   5.855
 9311POPC   GL148565  38.433  23.741   6.155
 9311POPC   GL248566  38.442  23.797   6.155
 9311POPC   C1A48567  38.438  23.750   6.455
 9311POPC   D2A48568  38.492  23.710   6.755
 9311POPC   C3A48569  38.458  23.756   7.055
 9311POPC   C4A48570  38.476  23.724   7.355
 9311POPC   C1B48571  38.448  24.001   6.455
 9311POPC   C2B48572  38.454  23.974   6.755
 9311POPC   C3B48573  38.503  23.993   7.055
 9311POPC   C4B48574  38.456  23.970   7.355
 9312POPC   NC348575  23.731  32.271   5.555
 9312POPC   PO448576  23.761  32.268   5.855
 9312POPC   GL148577  23.685  32.222   6.155
 9312POPC   GL248578  23.724  32.075   6.155
 9312POPC   C1A48579  23.718  32.218   6.455
 9312POPC   D2A48580  23.718  32.270   6.755
 9312POPC   C3A48581  23.697  32.266   7.055
 9312POPC   C4A48582  23.683  32.246   7.355
 9312POPC   C1B48583  23.688  31.956   6.455
 9312POPC   C2B48584  23.674  32.049   6.755
 9312POPC   C3B48585  23.635  32.039   7.055
 9312POPC   C4B48586  23.708  32.023   7.355
 9313POPC   NC348587  32.980  17.525   5.555
 9313POPC   PO448588  33.037  17.475   5.855
 9313POPC   GL148589  33.067  17.517   6.155
 9313POPC   GL248590  32.894  17.533   6.155
 9313POPC   C1A48591  32.985  17.476   6.455
 9313POPC   D2A48592  32.991  17.539   6.755
 9313POPC   C3A48593  33.037  17.491   7.055
 9313POPC   C4A48594  33.044  17.499   7.355
 9313POPC   C1B48595  32.825  17.447   6.455
 9313POPC   C2B48596  32.746  17.445   6.755
 9313POPC   C3B48597  32.745  17.465   7.055
 9313POPC   C4B48598  32.767  17.447   7.355
 9314POPC   NC348599  15.181  22.165   5.555
 9314POPC   PO448600  15.184  22.185   5.855
 9314POPC   GL148601  15.225  22.190   6.155
 9314POPC   GL248602  15.073  22.226   6.155
 9314POPC   C1A48603  15.171  22.116   6.455
 9314POPC   D2A48604  15.178  22.170   6.755
 9314POPC   C3A48605  15.156  22.121   7.055
 9314POPC   C4A48606  15.216  22.169   7.355
 9314POPC   C1B48607  14.979  22.167   6.455
 9314POPC   C2B48608  14.929  22.195   6.755
 9314POPC   C3B48609  14.960  22.164   7.055
 9314POPC   C4B48610  14.926  22.238   7.355
 9315POPC   NC348611  20.592  34.574   5.555
 9315POPC   PO448612  20.627  34.536   5.855
 9315POPC   GL148613  20.634  34.567   6.155
 9315POPC   GL248614  20.660  34.685   6.155
 9315POPC   C1A48615  20.582  34.590   6.455
 9315POPC   D2A48616  20.622  34.547   6.755
 9315POPC   C3A48617  20.625  34.622   7.055
 9315POPC   C4A48618  20.622  34.576   7.355
 9315POPC   C1B48619  20.786  34.745   6.455
 9315POPC   C2B48620  20.791  34.714   6.755
 9315POPC   C3B48621  20.850  34.744   7.055
 9315POPC   C4B48622  20.793  34.764   7.355
 9316POPC   NC348623  31.517  24.521   5.555
 9316POPC   PO448624  31.482  24.511   5.855
 9316POPC   GL148625  31.444  24.492   6.155
 9316POPC   GL248626  31.436  24.615   6.155
 9316POPC   C1A48627  31.467  24.507   6.455
 9316POPC   D2A48628  31.455  24.503   6.755
 9316POPC   C3A48629  31.446  24.446   7.055
 9316POPC   C4A48630  31.474  24.503   7.355
 9316POPC   C1B48631  31.354  24.701   6.455
 9316POPC   C2B48632  31.333  24.721   6.755
 9316POPC   C3B48633  31.340  24.685   7.055
 9316POPC   C4B48634  31.340  24.697   7.355
 9317POPC   NC348635  35.334  39.989   5.555
 9317POPC   PO448636  35.389  39.961   5.855
 9317POPC   GL148637  35.355  39.959   6.155
 9317POPC   GL248638  35.431  40.001   6.155
 9317POPC   C1A48639  35.388  39.966   6.455
 9317POPC   D2A48640  35.338  40.047   6.755
 9317POPC   C3A48641  35.309  40.041   7.055
 9317POPC   C4A48642  35.374  40.049   7.355
 9317POPC   C1B48643  35.573  39.972   6.455
 9317POPC   C2B48644  35.601  39.957   6.755
 9317POPC   C3B48645  35.583  39.929   7.055
 9317POPC   C4B48646  35.578  39.995   7.355
 9318POPC   NC348647   8.959  41.518   5.555
 9318POPC   PO448648   8.967  41.537   5.855
 9318POPC   GL148649   8.940  41.581   6.155
 9318POPC   GL248650   8.950  41.454   6.155
 9318POPC   C1A48651   8.936  41.550   6.455
 9318POPC   D2A48652   8.965  41.583   6.755
 9318POPC   C3A48653   8.936  41.557   7.055
 9318POPC   C4A48654   8.932  41.586   7.355
 9318POPC   C1B48655   8.970  41.313   6.455
 9318POPC   C2B48656   8.935  41.288   6.755
 9318POPC   C3B48657   8.998  41.342   7.055
 9318POPC   C4B48658   8.964  41.310   7.355
 9319POPC   NC348659  35.315  44.642   5.555
 9319POPC   PO448660  35.345  44.616   5.855
 9319POPC   GL148661  35.336  44.649   6.155
 9319POPC   GL248662  35.240  44.608   6.155
 9319POPC   C1A48663  35.364  44.704   6.455
 9319POPC   D2A48664  35.308  44.657   6.755
 9319POPC   C3A48665  35.340  44.612   7.055
 9319POPC   C4A48666  35.343  44.657   7.355
 9319POPC   C1B48667  35.163  44.563   6.455
 9319POPC   C2B48668  35.100  44.536   6.755
 9319POPC   C3B48669  35.146  44.565   7.055
 9319POPC   C4B48670  35.112  44.565   7.355
 9320POPC   NC348671  33.770  44.632   5.555
 9320POPC   PO448672  33.771  44.677   5.855
 9320POPC   GL148673  33.812  44.678   6.155
 9320POPC   GL248674  33.881  44.741   6.155
 9320POPC   C1A48675  33.755  44.612   6.455
 9320POPC   D2A48676  33.847  44.645   6.755
 9320POPC   C3A48677  33.795  44.687   7.055
 9320POPC   C4A48678  33.767  44.672   7.355
 9320POPC   C1B48679  34.058  44.707   6.455
 9320POPC   C2B48680  34.007  44.747   6.755
 9320POPC   C3B48681  34.060  44.730   7.055
 9320POPC   C4B48682  34.049  44.742   7.355
 9321POPC   NC348683  41.532  17.552   5.555
 9321POPC   PO448684  41.563  17.499   5.855
 9321POPC   GL148685  41.561  17.551   6.155
 9321POPC   GL248686  41.612  17.610   6.155
 9321POPC   C1A48687  41.586  17.545   6.455
 9321POPC   D2A48688  41.559  17.529   6.755
 9321POPC   C3A48689  41.519  17.486   7.055
 9321POPC   C4A48690  41.599  17.503   7.355
 9321POPC   C1B48691  41.560  17.705   6.455
 9321POPC   C2B48692  41.629  17.802   6.755
 9321POPC   C3B48693  41.591  17.775   7.055
 9321POPC   C4B48694  41.632  17.711   7.355
 9322POPC   NC348695  13.671   5.098   5.555
 9322POPC   PO448696  13.671   5.082   5.855
 9322POPC   GL148697  13.580   5.087   6.155
 9322POPC   GL248698  13.644   4.981   6.155
 9322POPC   C1A48699  13.589   5.085   6.455
 9322POPC   D2A48700  13.637   5.126   6.755
 9322POPC   C3A48701  13.671   5.045   7.055
 9322POPC   C4A48702  13.651   5.092   7.355
 9322POPC   C1B48703  13.661   4.884   6.455
 9322POPC   C2B48704  13.716   4.805   6.755
 9322POPC   C3B48705  13.678   4.878   7.055
 9322POPC   C4B48706  13.737   4.816   7.355
 9323POPC   NC348707  37.673  35.367   5.555
 9323POPC   PO448708  37.683  35.303   5.855
 9323POPC   GL148709  37.672  35.342   6.155
 9323POPC   GL248710  37.699  35.466   6.155
 9323POPC   C1A48711  37.708  35.352   6.455
 9323POPC   D2A48712  37.701  35.369   6.755
 9323POPC   C3A48713  37.686  35.399   7.055
 9323POPC   C4A48714  37.698  35.340   7.355
 9323POPC   C1B48715  37.731  35.623   6.455
 9323POPC   C2B48716  37.743  35.586   6.755
 9323POPC   C3B48717  37.757  35.620   7.055
 9323POPC   C4B48718  37.726  35.582   7.355
 9324POPC   NC348719  22.152   4.304   5.555
 9324POPC   PO448720  22.145   4.298   5.855
 9324POPC   GL148721  22.173   4.288   6.155
 9324POPC   GL248722  22.129   4.450   6.155
 9324POPC   C1A48723  22.120   4.355   6.455
 9324POPC   D2A48724  22.196   4.274   6.755
 9324POPC   C3A48725  22.211   4.316   7.055
 9324POPC   C4A48726  22.168   4.314   7.355
 9324POPC   C1B48727  22.114   4.531   6.455
 9324POPC   C2B48728  22.187   4.547   6.755
 9324POPC   C3B48729  22.121   4.551   7.055
 9324POPC   C4B48730  22.114   4.542   7.355
 9325POPC   NC348731  10.488   2.037   5.555
 9325POPC   PO448732  10.566   2.003   5.855
 9325POPC   GL148733  10.517   2.013   6.155
 9325POPC   GL248734  10.515   1.836   6.155
 9325POPC   C1A48735  10.541   1.987   6.455
 9325POPC   D2A48736  10.572   1.992   6.755
 9325POPC   C3A48737  10.493   2.004   7.055
 9325POPC   C4A48738  10.568   2.039   7.355
 9325POPC   C1B48739  10.593   1.713   6.455
 9325POPC   C2B48740  10.647   1.780   6.755
 9325POPC   C3B48741  10.628   1.783   7.055
 9325POPC   C4B48742  10.585   1.702   7.355
 9326POPC   NC348743  41.510  38.474   5.555
 9326POPC   PO448744  41.522  38.477   5.855
 9326POPC   GL148745  41.536  38.431   6.155
 9326POPC   GL248746  41.642  38.589   6.155
 9326POPC   C1A48747  41.589  38.430   6.455
 9326POPC   D2A48748  41.560  38.474   6.755
 9326POPC   C3A48749  41.561  38.499   7.055
 9326POPC   C4A48750  41.541  38.498   7.355
 9326POPC   C1B48751  41.783  38.661   6.455
 9326POPC   C2B48752  41.782  38.589   6.755
 9326POPC   C3B48753  41.724  38.636   7.055
 9326POPC   C4B48754  41.735  38.655   7.355
 9327POPC   NC348755  42.328  14.361   5.555
 9327POPC   PO448756  42.361  14.448   5.855
 9327POPC   GL148757  42.294  14.400   6.155
 9327POPC   GL248758  42.197  14.459   6.155
 9327POPC   C1A48759  42.367  14.407   6.455
 9327POPC   D2A48760  42.314  14.445   6.755
 9327POPC   C3A48761  42.341  14.446   7.055
 9327POPC   C4A48762  42.333  14.398   7.355
 9327POPC   C1B48763  42.176  14.586   6.455
 9327POPC   C2B48764  42.167  14.622   6.755
 9327POPC   C3B48765  42.162  14.551   7.055
 9327POPC   C4B48766  42.170  14.570   7.355
 9328POPC   NC348767  26.853  19.086   5.555
 9328POPC   PO448768  26.828  19.089   5.855
 9328POPC   GL148769  26.857  19.050   6.155
 9328POPC   GL248770  26.908  19.146   6.155
 9328POPC   C1A48771  26.780  19.097   6.455
 9328POPC   D2A48772  26.778  19.071   6.755
 9328POPC   C3A48773  26.770  19.024   7.055
 9328POPC   C4A48774  26.801  19.092   7.355
 9328POPC   C1B48775  27.080  19.159   6.455
 9328POPC   C2B48776  26.999  19.230   6.755
 9328POPC   C3B48777  27.046  19.146   7.055
 9328POPC   C4B48778  27.068  19.157   7.355
 9329POPC   NC348779  17.458  15.184   5.555
 9329POPC   PO448780  17.463  15.179   5.855
 9329POPC   GL148781  17.513  15.138   6.155
 9329POPC   GL248782  17.520  15.059   6.155
 9329POPC   C1A48783  17.476  15.197   6.455
 9329POPC   D2A48784  17.557  15.138   6.755
 9329POPC   C3A48785  17.482  15.142   7.055
 9329POPC   C4A48786  17.464  15.194   7.355
 9329POPC   C1B48787  17.583  14.933   6.455
 9329POPC   C2B48788  17.609  14.942   6.755
 9329POPC   C3B48789  17.595  14.987   7.055
 9329POPC   C4B48790  17.610  14.996   7.355
 9330POPC   NC348791  26.802  33.042   5.555
 9330POPC   PO448792  26.849  33.012   5.855
 9330POPC   GL148793  26.847  33.022   6.155
 9330POPC   GL248794  26.922  33.052   6.155
 9330POPC   C1A48795  26.824  33.045   6.455
 9330POPC   D2A48796  26.843  32.992   6.755
 9330POPC   C3A48797  26.781  33.050   7.055
 9330POPC   C4A48798  26.859  32.981   7.355
 9330POPC   C1B48799  27.106  33.045   6.455
 9330POPC   C2B48800  27.101  33.046   6.755
 9330POPC   C3B48801  27.100  33.056   7.055
 9330POPC   C4B48802  27.093  33.093   7.355
 9331POPC   NC348803  33.061  30.690   5.555
 9331POPC   PO448804  32.985  30.714   5.855
 9331POPC   GL148805  33.035  30.732   6.155
 9331POPC   GL248806  33.035  30.561   6.155
 9331POPC   C1A48807  33.006  30.655   6.455
 9331POPC   D2A48808  33.023  30.725   6.755
 9331POPC   C3A48809  32.979  30.742   7.055
 9331POPC   C4A48810  33.001  30.650   7.355
 9331POPC   C1B48811  33.103  30.458   6.455
 9331POPC   C2B48812  33.063  30.419   6.755
 9331POPC   C3B48813  33.024  30.490   7.055
 9331POPC   C4B48814  33.120  30.430   7.355
 9332POPC   NC348815  39.980  19.074   5.555
 9332POPC   PO448816  40.041  19.011   5.855
 9332POPC   GL148817  40.056  19.011   6.155
 9332POPC   GL248818  39.851  19.061   6.155
 9332POPC   C1A48819  40.009  19.057   6.455
 9332POPC   D2A48820  40.022  19.040   6.755
 9332POPC   C3A48821  40.021  19.097   7.055
 9332POPC   C4A48822  39.958  19.103   7.355
 9332POPC   C1B48823  39.797  19.141   6.455
 9332POPC   C2B48824  39.748  19.068   6.755
 9332POPC   C3B48825  39.752  19.079   7.055
 9332POPC   C4B48826  39.777  19.057   7.355
 9333POPC   NC348827  34.531   5.868   5.555
 9333POPC   PO448828  34.531   5.857   5.855
 9333POPC   GL148829  34.532   5.892   6.155
 9333POPC   GL248830  34.575   5.736   6.155
 9333POPC   C1A48831  34.574   5.908   6.455
 9333POPC   D2A48832  34.554   5.865   6.755
 9333POPC   C3A48833  34.622   5.847   7.055
 9333POPC   C4A48834  34.577   5.875   7.355
 9333POPC   C1B48835  34.458   5.644   6.455
 9333POPC   C2B48836  34.504   5.614   6.755
 9333POPC   C3B48837  34.487   5.676   7.055
 9333POPC   C4B48838  34.551   5.593   7.355
 9334POPC   NC348839  23.673  11.326   5.555
 9334POPC   PO448840  23.706  11.346   5.855
 9334POPC   GL148841  23.725  11.343   6.155
 9334POPC   GL248842  23.734  11.206   6.155
 9334POPC   C1A48843  23.712  11.287   6.455
 9334POPC   D2A48844  23.729  11.346   6.755
 9334POPC   C3A48845  23.762  11.258   7.055
 9334POPC   C4A48846  23.680  11.301   7.355
 9334POPC   C1B48847  23.736  11.037   6.455
 9334POPC   C2B48848  23.757  11.015   6.755
 9334POPC   C3B48849  23.675  11.067   7.055
 9334POPC   C4B48850  23.723  11.058   7.355
 9335POPC   NC348851  31.432   5.099   5.555
 9335POPC   PO448852  31.430   5.143   5.855
 9335POPC   GL148853  31.462   5.083   6.155
 9335POPC   GL248854  31.540   5.157   6.155
 9335POPC   C1A48855  31.436   5.059   6.455
 9335POPC   D2A48856  31.515   5.117   6.755
 9335POPC   C3A48857  31.482   5.077   7.055
 9335POPC   C4A48858  31.489   5.113   7.355
 9335POPC   C1B48859  31.598   5.248   6.455
 9335POPC   C2B48860  31.651   5.298   6.755
 9335POPC   C3B48861  31.627   5.265   7.055
 9335POPC   C4B48862  31.653   5.285   7.355
 9336POPC   NC348863   2.769   2.739   5.555
 9336POPC   PO448864   2.808   2.725   5.855
 9336POPC   GL148865   2.742   2.728   6.155
 9336POPC   GL248866   2.814   2.626   6.155
 9336POPC   C1A48867   2.790   2.785   6.455
 9336POPC   D2A48868   2.782   2.754   6.755
 9336POPC   C3A48869   2.749   2.734   7.055
 9336POPC   C4A48870   2.722   2.792   7.355
 9336POPC   C1B48871   2.761   2.486   6.455
 9336POPC   C2B48872   2.812   2.498   6.755
 9336POPC   C3B48873   2.777   2.528   7.055
 9336POPC   C4B48874   2.721   2.549   7.355
 9337POPC   NC348875   1.223   2.021   5.555
 9337POPC   PO448876   1.212   1.969   5.855
 9337POPC   GL148877   1.184   1.995   6.155
 9337POPC   GL248878   1.128   1.982   6.155
 9337POPC   C1A48879   1.195   1.960   6.455
 9337POPC   D2A48880   1.180   2.028   6.755
 9337POPC   C3A48881   1.250   1.957   7.055
 9337POPC   C4A48882   1.234   2.020   7.355
 9337POPC   C1B48883   0.935   2.011   6.455
 9337POPC   C2B48884   0.930   2.022   6.755
 9337POPC   C3B48885   0.994   2.108   7.055
 9337POPC   C4B48886   0.924   2.039   7.355
 9338POPC   NC348887   8.220   8.152   5.555
 9338POPC   PO448888   8.170   8.178   5.855
 9338POPC   GL148889   8.154   8.200   6.155
 9338POPC   GL248890   8.236   8.347   6.155
 9338POPC   C1A48891   8.225   8.170   6.455
 9338POPC   D2A48892   8.212   8.229   6.755
 9338POPC   C3A48893   8.160   8.216   7.055
 9338POPC   C4A48894   8.205   8.167   7.355
 9338POPC   C1B48895   8.247   8.469   6.455
 9338POPC   C2B48896   8.307   8.456   6.755
 9338POPC   C3B48897   8.266   8.399   7.055
 9338POPC   C4B48898   8.268   8.386   7.355
 9339POPC   NC348899  26.011   8.218   5.555
 9339POPC   PO448900  26.001   8.232   5.855
 9339POPC   GL148901  26.047   8.204   6.155
 9339POPC   GL248902  25.957   8.171   6.155
 9339POPC   C1A48903  26.035   8.164   6.455
 9339POPC   D2A48904  26.000   8.200   6.755
 9339POPC   C3A48905  26.058   8.214   7.055
 9339POPC   C4A48906  26.029   8.223   7.355
 9339POPC   C1B48907  25.764   8.235   6.455
 9339POPC   C2B48908  25.781   8.191   6.755
 9339POPC   C3B48909  25.781   8.190   7.055
 9339POPC   C4B48910  25.831   8.237   7.355
 9340POPC   NC348911  19.835  38.467   5.555
 9340POPC   PO448912  19.859  38.431   5.855
 9340POPC   GL148913  19.829  38.459   6.155
 9340POPC   GL248914  19.804  38.598   6.155
 9340POPC   C1A48915  19.864  38.427   6.455
 9340POPC   D2A48916  19.845  38.444   6.755
 9340POPC   C3A48917  19.876  38.436   7.055
 9340POPC   C4A48918  19.855  38.425   7.355
 9340POPC   C1B48919  19.697  38.714   6.455
 9340POPC   C2B48920  19.765  38.703   6.755
 9340POPC   C3B48921  19.698  38.664   7.055
 9340POPC   C4B48922  19.702  38.664   7.355
 9341POPC   NC348923  41.605  40.737   5.555
 9341POPC   PO448924  41.590  40.781   5.855
 9341POPC   GL148925  41.562  40.742   6.155
 9341POPC   GL248926  41.406  40.831   6.155
 9341POPC   C1A48927  41.530  40.756   6.455
 9341POPC   D2A48928  41.529  40.828   6.755
 9341POPC   C3A48929  41.510  40.739   7.055
 9341POPC   C4A48930  41.529  40.746   7.355
 9341POPC   C1B48931  41.350  40.926   6.455
 9341POPC   C2B48932  41.328  40.878   6.755
 9341POPC   C3B48933  41.366  40.925   7.055
 9341POPC   C4B48934  41.348  40.847   7.355
 9342POPC   NC348935  17.477  10.563   5.555
 9342POPC   PO448936  17.537  10.513   5.855
 9342POPC   GL148937  17.533  10.514   6.155
 9342POPC   GL248938  17.630  10.583   6.155
 9342POPC   C1A48939  17.536  10.538   6.455
 9342POPC   D2A48940  17.462  10.522   6.755
 9342POPC   C3A48941  17.478  10.553   7.055
 9342POPC   C4A48942  17.546  10.516   7.355
 9342POPC   C1B48943  17.754  10.677   6.455
 9342POPC   C2B48944  17.766  10.628   6.755
 9342POPC   C3B48945  17.686  10.664   7.055
 9342POPC   C4B48946  17.690  10.685   7.355
 9343POPC   NC348947  22.206  33.061   5.555
 9343POPC   PO448948  22.116  32.997   5.855
 9343POPC   GL148949  22.129  32.975   6.155
 9343POPC   GL248950  22.105  33.075   6.155
 9343POPC   C1A48951  22.179  33.043   6.455
 9343POPC   D2A48952  22.116  33.068   6.755
 9343POPC   C3A48953  22.209  33.022   7.055
 9343POPC   C4A48954  22.171  33.045   7.355
 9343POPC   C1B48955  21.961  33.199   6.455
 9343POPC   C2B48956  21.961  33.251   6.755
 9343POPC   C3B48957  21.993  33.179   7.055
 9343POPC   C4B48958  22.008  33.204   7.355
 9344POPC   NC348959  12.827  43.147   5.555
 9344POPC   PO448960  12.872  43.118   5.855
 9344POPC   GL148961  12.840  43.129   6.155
 9344POPC   GL248962  12.958  43.199   6.155
 9344POPC   C1A48963  12.842  43.124   6.455
 9344POPC   D2A48964  12.824  43.153   6.755
 9344POPC   C3A48965  12.899  43.131   7.055
 9344POPC   C4A48966  12.843  43.077   7.355
 9344POPC   C1B48967  13.105  43.247   6.455
 9344POPC   C2B48968  13.053  43.271   6.755
 9344POPC   C3B48969  13.016  43.232   7.055
 9344POPC   C4B48970  13.097  43.209   7.355
 9345POPC   NC348971   7.419  11.303   5.555
 9345POPC   PO448972   7.396  11.255   5.855
 9345POPC   GL148973   7.448  11.339   6.155
 9345POPC   GL248974   7.327  11.325   6.155
 9345POPC   C1A48975   7.459  11.331   6.455
 9345POPC   D2A48976   7.433  11.277   6.755
 9345POPC   C3A48977   7.420  11.301   7.055
 9345POPC   C4A48978   7.425  11.276   7.355
 9345POPC   C1B48979   7.215  11.254   6.455
 9345POPC   C2B48980   7.205  11.299   6.755
 9345POPC   C3B48981   7.148  11.248   7.055
 9345POPC   C4B48982   7.219  11.311   7.355
 9346POPC   NC348983  39.975  39.232   5.555
 9346POPC   PO448984  40.027  39.191   5.855
 9346POPC   GL148985  39.986  39.252   6.155
 9346POPC   GL248986  40.120  39.162   6.155
 9346POPC   C1A48987  39.976  39.264   6.455
 9346POPC   D2A48988  40.011  39.236   6.755
 9346POPC   C3A48989  40.011  39.196   7.055
 9346POPC   C4A48990  39.998  39.274   7.355
 9346POPC   C1B48991  40.155  39.028   6.455
 9346POPC   C2B48992  40.189  39.083   6.755
 9346POPC   C3B48993  40.249  39.096   7.055
 9346POPC   C4B48994  40.220  39.065   7.355
 9347POPC   NC348995  26.840   7.410   5.555
 9347POPC   PO448996  26.859   7.387   5.855
 9347POPC   GL148997  26.861   7.382   6.155
 9347POPC   GL248998  26.888   7.501   6.155
 9347POPC   C1A48999  26.773   7.402   6.455
 9347POPC   D2A49000  26.769   7.445   6.755
 9347POPC   C3A49001  26.854   7.453   7.055
 9347POPC   C4A49002  26.864   7.433   7.355
 9347POPC   C1B49003  26.976   7.571   6.455
 9347POPC   C2B49004  26.992   7.561   6.755
 9347POPC   C3B49005  27.003   7.560   7.055
 9347POPC   C4B49006  27.018   7.577   7.355
 9348POPC   NC349007   6.690  29.100   5.555
 9348POPC   PO449008   6.642  29.124   5.855
 9348POPC   GL149009   6.667  29.182   6.155
 9348POPC   GL249010   6.646  28.996   6.155
 9348POPC   C1A49011   6.689  29.129   6.455
 9348POPC   D2A49012   6.660  29.135   6.755
 9348POPC   C3A49013   6.681  29.141   7.055
 9348POPC   C4A49014   6.684  29.172   7.355
 9348POPC   C1B49015   6.723  28.888   6.455
 9348POPC   C2B49016   6.686  28.921   6.755
 9348POPC   C3B49017   6.643  28.935   7.055
 9348POPC   C4B49018   6.727  28.850   7.355
 9349POPC   NC349019  12.081  20.651   5.555
 9349POPC   PO449020  12.037  20.601   5.855
 9349POPC   GL149021  12.071  20.573   6.155
 9349POPC   GL249022  12.093  20.501   6.155
 9349POPC   C1A49023  12.119  20.634   6.455
 9349POPC   D2A49024  12.113  20.563   6.755
 9349POPC   C3A49025  12.042  20.618   7.055
 9349POPC   C4A49026  12.036  20.626   7.355
 9349POPC   C1B49027  12.161  20.389   6.455
 9349POPC   C2B49028  12.214  20.351   6.755
 9349POPC   C3B49029  12.176  20.410   7.055
 9349POPC   C4B49030  12.198  20.411   7.355
 9350POPC   NC349031   2.022  14.367   5.555
 9350POPC   PO449032   1.947  14.390   5.855
 9350POPC   GL149033   1.995  14.385   6.155
 9350POPC   GL249034   2.149  14.453   6.155
 9350POPC   C1A49035   1.959  14.356   6.455
 9350POPC   D2A49036   1.966  14.442   6.755
 9350POPC   C3A49037   2.011  14.397   7.055
 9350POPC   C4A49038   1.972  14.373   7.355
 9350POPC   C1B49039   2.220  14.398   6.455
 9350POPC   C2B49040   2.268  14.380   6.755
 9350POPC   C3B49041   2.237  14.360   7.055
 9350POPC   C4B49042   2.270  14.403   7.355
 9351POPC   NC349043  36.870  39.980   5.555
 9351POPC   PO449044  36.946  40.046   5.855
 9351POPC   GL149045  36.858  40.055   6.155
 9351POPC   GL249046  36.827  39.858   6.155
 9351POPC   C1A49047  36.887  40.043   6.455
 9351POPC   D2A49048  36.918  40.008   6.755
 9351POPC   C3A49049  36.873  40.045   7.055
 9351POPC   C4A49050  36.904  40.004   7.355
 9351POPC   C1B49051  36.724  39.787   6.455
 9351POPC   C2B49052  36.784  39.776   6.755
 9351POPC   C3B49053  36.720  39.784   7.055
 9351POPC   C4B49054  36.783  39.836   7.355
 9352POPC   NC349055  31.424  22.918   5.555
 9352POPC   PO449056  31.501  22.923   5.855
 9352POPC   GL149057  31.486  22.891   6.155
 9352POPC   GL249058  31.619  22.954   6.155
 9352POPC   C1A49059  31.435  22.914   6.455
 9352POPC   D2A49060  31.478  22.980   6.755
 9352POPC   C3A49061  31.425  22.910   7.055
 9352POPC   C4A49062  31.437  22.891   7.355
 9352POPC   C1B49063  31.665  23.087   6.455
 9352POPC   C2B49064  31.695  23.066   6.755
 9352POPC   C3B49065  31.641  23.095   7.055
 9352POPC   C4B49066  31.718  23.068   7.355
 9353POPC   NC349067  22.138  32.278   5.555
 9353POPC   PO449068  22.125  32.285   5.855
 9353POPC   GL149069  22.172  32.226   6.155
 9353POPC   GL249070  22.082  32.384   6.155
 9353POPC   C1A49071  22.163  32.294   6.455
 9353POPC   D2A49072  22.185  32.290   6.755
 9353POPC   C3A49073  22.162  32.295   7.055
 9353POPC   C4A49074  22.185  32.209   7.355
 9353POPC   C1B49075  22.044  32.481   6.455
 9353POPC   C2B49076  22.074  32.486   6.755
 9353POPC   C3B49077  22.010  32.492   7.055
 9353POPC   C4B49078  22.004  32.472   7.355
 9354POPC   NC349079  19.793  12.835   5.555
 9354POPC   PO449080  19.825  12.894   5.855
 9354POPC   GL149081  19.850  12.837   6.155
 9354POPC   GL249082  19.837  12.755   6.155
 9354POPC   C1A49083  19.786  12.810   6.455
 9354POPC   D2A49084  19.798  12.886   6.755
 9354POPC   C3A49085  19.884  12.808   7.055
 9354POPC   C4A49086  19.786  12.812   7.355
 9354POPC   C1B49087  19.733  12.641   6.455
 9354POPC   C2B49088  19.738  12.619   6.755
 9354POPC   C3B49089  19.801  12.572   7.055
 9354POPC   C4B49090  19.728  12.617   7.355
 9355POPC   NC349091   5.079   4.333   5.555
 9355POPC   PO449092   5.120   4.321   5.855
 9355POPC   GL149093   5.053   4.307   6.155
 9355POPC   GL249094   4.968   4.434   6.155
 9355POPC   C1A49095   5.135   4.305   6.455
 9355POPC   D2A49096   5.111   4.326   6.755
 9355POPC   C3A49097   5.049   4.307   7.055
 9355POPC   C4A49098   5.094   4.316   7.355
 9355POPC   C1B49099   4.890   4.495   6.455
 9355POPC   C2B49100   4.924   4.513   6.755
 9355POPC   C3B49101   4.922   4.505   7.055
 9355POPC   C4B49102   4.873   4.492   7.355
 9356POPC   NC349103   5.062  31.487   5.555
 9356POPC   PO449104   5.100  31.442   5.855
 9356POPC   GL149105   5.068  31.437   6.155
 9356POPC   GL249106   4.969  31.402   6.155
 9356POPC   C1A49107   5.110  31.513   6.455
 9356POPC   D2A49108   5.044  31.480   6.755
 9356POPC   C3A49109   5.125  31.493   7.055
 9356POPC   C4A49110   5.089  31.521   7.355
 9356POPC   C1B49111   4.858  31.393   6.455
 9356POPC   C2B49112   4.874  31.418   6.755
 9356POPC   C3B49113   4.888  31.425   7.055
 9356POPC   C4B49114   4.904  31.358   7.355
 9357POPC   NC349115  22.953  16.715   5.555
 9357POPC   PO449116  22.894  16.691   5.855
 9357POPC   GL149117  22.968  16.756   6.155
 9357POPC   GL249118  22.888  16.615   6.155
 9357POPC   C1A49119  22.920  16.685   6.455
 9357POPC   D2A49120  22.891  16.713   6.755
 9357POPC   C3A49121  22.925  16.760   7.055
 9357POPC   C4A49122  22.890  16.744   7.355
 9357POPC   C1B49123  22.876  16.435   6.455
 9357POPC   C2B49124  22.905  16.511   6.755
 9357POPC   C3B49125  22.959  16.482   7.055
 9357POPC   C4B49126  22.888  16.461   7.355
 9358POPC   NC349127  33.781   9.767   5.555
 9358POPC   PO449128  33.783   9.742   5.855
 9358POPC   GL149129  33.778   9.761   6.155
 9358POPC   GL249130  33.783   9.866   6.155
 9358POPC   C1A49131  33.756   9.778   6.455
 9358POPC   D2A49132  33.807   9.717   6.755
 9358POPC   C3A49133  33.794   9.793   7.055
 9358POPC   C4A49134  33.792   9.712   7.355
 9358POPC   C1B49135  33.894  10.038   6.455
 9358POPC   C2B49136  33.872   9.977   6.755
 9358POPC   C3B49137  33.834  10.017   7.055
 9358POPC   C4B49138  33.833  10.002   7.355
 9359POPC   NC349139   9.707   8.933   5.555
 9359POPC   PO449140   9.752   8.970   5.855
 9359POPC   GL149141   9.794   9.008   6.155
 9359POPC   GL249142   9.890   9.024   6.155
 9359POPC   C1A49143   9.754   8.985   6.455
 9359POPC   D2A49144   9.780   8.949   6.755
 9359POPC   C3A49145   9.760   8.950   7.055
 9359POPC   C4A49146   9.728   8.934   7.355
 9359POPC   C1B49147  10.036   9.007   6.455
 9359POPC   C2B49148   9.948   9.077   6.755
 9359POPC   C3B49149   9.956   8.995   7.055
 9359POPC   C4B49150   9.956   9.071   7.355
 9360POPC   NC349151   2.033   3.559   5.555
 9360POPC   PO449152   2.008   3.539   5.855
 9360POPC   GL149153   2.016   3.559   6.155
 9360POPC   GL249154   2.063   3.519   6.155
 9360POPC   C1A49155   1.969   3.501   6.455
 9360POPC   D2A49156   2.021   3.517   6.755
 9360POPC   C3A49157   1.976   3.577   7.055
 9360POPC   C4A49158   1.965   3.575   7.355
 9360POPC   C1B49159   2.192   3.486   6.455
 9360POPC   C2B49160   2.186   3.474   6.755
 9360POPC   C3B49161   2.241   3.494   7.055
 9360POPC   C4B49162   2.221   3.515   7.355
 9361POPC   NC349163   4.363   6.606   5.555
 9361POPC   PO449164   4.317   6.665   5.855
 9361POPC   GL149165   4.275   6.627   6.155
 9361POPC   GL249166   4.310   6.767   6.155
 9361POPC   C1A49167   4.366   6.643   6.455
 9361POPC   D2A49168   4.293   6.648   6.755
 9361POPC   C3A49169   4.268   6.616   7.055
 9361POPC   C4A49170   4.324   6.692   7.355
 9361POPC   C1B49171   4.314   6.847   6.455
 9361POPC   C2B49172   4.352   6.926   6.755
 9361POPC   C3B49173   4.360   6.893   7.055
 9361POPC   C4B49174   4.329   6.941   7.355
 9362POPC   NC349175  31.509   5.860   5.555
 9362POPC   PO449176  31.482   5.882   5.855
 9362POPC   GL149177  31.514   5.827   6.155
 9362POPC   GL249178  31.638   5.898   6.155
 9362POPC   C1A49179  31.498   5.820   6.455
 9362POPC   D2A49180  31.483   5.864   6.755
 9362POPC   C3A49181  31.439   5.855   7.055
 9362POPC   C4A49182  31.453   5.901   7.355
 9362POPC   C1B49183  31.750   5.838   6.455
 9362POPC   C2B49184  31.757   5.845   6.755
 9362POPC   C3B49185  31.734   5.799   7.055
 9362POPC   C4B49186  31.680   5.860   7.355
 9363POPC   NC349187  16.769  14.445   5.555
 9363POPC   PO449188  16.745  14.426   5.855
 9363POPC   GL149189  16.739  14.366   6.155
 9363POPC   GL249190  16.730  14.298   6.155
 9363POPC   C1A49191  16.736  14.448   6.455
 9363POPC   D2A49192  16.701  14.421   6.755
 9363POPC   C3A49193  16.762  14.445   7.055
 9363POPC   C4A49194  16.754  14.402   7.355
 9363POPC   C1B49195  16.639  14.182   6.455
 9363POPC   C2B49196  16.682  14.201   6.755
 9363POPC   C3B49197  16.660  14.193   7.055
 9363POPC   C4B49198  16.700  14.126   7.355
 9364POPC   NC349199  40.006  15.913   5.555
 9364POPC   PO449200  40.038  15.907   5.855
 9364POPC   GL149201  39.981  15.986   6.155
 9364POPC   GL249202  40.019  15.799   6.155
 9364POPC   C1A49203  40.039  16.004   6.455
 9364POPC   D2A49204  40.030  15.978   6.755
 9364POPC   C3A49205  39.992  15.950   7.055
 9364POPC   C4A49206  39.975  15.908   7.355
 9364POPC   C1B49207  40.089  15.735   6.455
 9364POPC   C2B49208  40.020  15.666   6.755
 9364POPC   C3B49209  40.082  15.667   7.055
 9364POPC   C4B49210  40.102  15.717   7.355
 9365POPC   NC349211   7.397  26.797   5.555
 9365POPC   PO449212   7.424  26.815   5.855
 9365POPC   GL149213   7.396  26.865   6.155
 9365POPC   GL249214   7.555  26.883   6.155
 9365POPC   C1A49215   7.467  26.833   6.455
 9365POPC   D2A49216   7.375  26.818   6.755
 9365POPC   C3A49217   7.418  26.785   7.055
 9365POPC   C4A49218   7.392  26.813   7.355
 9365POPC   C1B49219   7.625  26.898   6.455
 9365POPC   C2B49220   7.625  26.856   6.755
 9365POPC   C3B49221   7.644  26.867   7.055
 9365POPC   C4B49222   7.681  26.876   7.355
 9366POPC   NC349223   8.210   5.900   5.555
 9366POPC   PO449224   8.161   5.832   5.855
 9366POPC   GL149225   8.183   5.905   6.155
 9366POPC   GL249226   8.197   5.785   6.155
 9366POPC   C1A49227   8.161   5.840   6.455
 9366POPC   D2A49228   8.188   5.843   6.755
 9366POPC   C3A49229   8.216   5.866   7.055
 9366POPC   C4A49230   8.195   5.908   7.355
 9366POPC   C1B49231   8.174   5.579   6.455
 9366POPC   C2B49232   8.243   5.625   6.755
 9366POPC   C3B49233   8.233   5.624   7.055
 9366POPC   C4B49234   8.157   5.615   7.355
 9367POPC   NC349235  42.328  26.001   5.555
 9367POPC   PO449236  42.287  26.003   5.855
 9367POPC   GL149237  42.341  26.044   6.155
 9367POPC   GL249238  42.306  25.882   6.155
 9367POPC   C1A49239  42.354  26.052   6.455
 9367POPC   D2A49240  42.327  26.002   6.755
 9367POPC   C3A49241  42.336  25.997   7.055
 9367POPC   C4A49242  42.317  26.081   7.355
 9367POPC   C1B49243  42.185  25.789   6.455
 9367POPC   C2B49244  42.243  25.798   6.755
 9367POPC   C3B49245  42.238  25.791   7.055
 9367POPC   C4B49246  42.204  25.827   7.355
 9368POPC   NC349247  38.479  39.246   5.555
 9368POPC   PO449248  38.441  39.221   5.855
 9368POPC   GL149249  38.421  39.229   6.155
 9368POPC   GL249250  38.554  39.128   6.155
 9368POPC   C1A49251  38.449  39.184   6.455
 9368POPC   D2A49252  38.492  39.255   6.755
 9368POPC   C3A49253  38.432  39.192   7.055
 9368POPC   C4A49254  38.432  39.223   7.355
 9368POPC   C1B49255  38.608  39.102   6.455
 9368POPC   C2B49256  38.622  39.117   6.755
 9368POPC   C3B49257  38.654  39.017   7.055
 9368POPC   C4B49258  38.619  39.055   7.355
 9369POPC   NC349259  19.059  34.625   5.555
 9369POPC   PO449260  19.033  34.593   5.855
 9369POPC   GL149261  19.021  34.564   6.155
 9369POPC   GL249262  18.970  34.551   6.155
 9369POPC   C1A49263  19.079  34.529   6.455
 9369POPC   D2A49264  19.088  34.602   6.755
 9369POPC   C3A49265  19.017  34.595   7.055
 9369POPC   C4A49266  19.072  34.608   7.355
 9369POPC   C1B49267  18.864  34.461   6.455
 9369POPC   C2B49268  18.834  34.472   6.755
 9369POPC   C3B49269  18.822  34.534   7.055
 9369POPC   C4B49270  18.871  34.536   7.355
 9370POPC   NC349271   7.408   3.584   5.555
 9370POPC   PO449272   7.436   3.540   5.855
 9370POPC   GL149273   7.467   3.543   6.155
 9370POPC   GL249274   7.476   3.592   6.155
 9370POPC   C1A49275   7.393   3.559   6.455
 9370POPC   D2A49276   7.375   3.566   6.755
 9370POPC   C3A49277   7.450   3.496   7.055
 9370POPC   C4A49278   7.414   3.580   7.355
 9370POPC   C1B49279   7.555   3.756   6.455
 9370POPC   C2B49280   7.628   3.735   6.755
 9370POPC   C3B49281   7.619   3.716   7.055
 9370POPC   C4B49282   7.606   3.769   7.355
 9371POPC   NC349283   4.288  39.970   5.555
 9371POPC   PO449284   4.321  40.010   5.855
 9371POPC   GL149285   4.291  39.975   6.155
 9371POPC   GL249286   4.379  39.906   6.155
 9371POPC   C1A49287   4.283  39.996   6.455
 9371POPC   D2A49288   4.320  39.982   6.755
 9371POPC   C3A49289   4.274  39.967   7.055
 9371POPC   C4A49290   4.324  40.013   7.355
 9371POPC   C1B49291   4.341  39.773   6.455
 9371POPC   C2B49292   4.330  39.783   6.755
 9371POPC   C3B49293   4.311  39.788   7.055
 9371POPC   C4B49294   4.374  39.716   7.355
 9372POPC   NC349295   9.003   3.577   5.555
 9372POPC   PO449296   8.986   3.572   5.855
 9372POPC   GL149297   8.986   3.578   6.155
 9372POPC   GL249298   9.043   3.399   6.155
 9372POPC   C1A49299   8.977   3.499   6.455
 9372POPC   D2A49300   9.012   3.570   6.755
 9372POPC   C3A49301   8.955   3.547   7.055
 9372POPC   C4A49302   8.978   3.579   7.355
 9372POPC   C1B49303   9.068   3.378   6.455
 9372POPC   C2B49304   9.096   3.293   6.755
 9372POPC   C3B49305   9.091   3.352   7.055
 9372POPC   C4B49306   9.139   3.340   7.355
 9373POPC   NC349307   4.316   5.087   5.555
 9373POPC   PO449308   4.310   5.066   5.855
 9373POPC   GL149309   4.272   5.102   6.155
 9373POPC   GL249310   4.489   5.030   6.155
 9373POPC   C1A49311   4.271   5.052   6.455
 9373POPC   D2A49312   4.347   5.086   6.755
 9373POPC   C3A49313   4.314   5.110   7.055
 9373POPC   C4A49314   4.269   5.102   7.355
 9373POPC   C1B49315   4.526   5.078   6.455
 9373POPC   C2B49316   4.541   5.049   6.755
 9373POPC   C3B49317   4.612   5.058   7.055
 9373POPC   C4B49318   4.524   5.041   7.355
 9374POPC   NC349319   5.067  39.250   5.555
 9374POPC   PO449320   5.054  39.194   5.855
 9374POPC   GL149321   5.043  39.204   6.155
 9374POPC   GL249322   5.053  39.381   6.155
 9374POPC   C1A49323   5.092  39.226   6.455
 9374POPC   D2A49324   5.105  39.275   6.755
 9374POPC   C3A49325   5.140  39.183   7.055
 9374POPC   C4A49326   5.135  39.237   7.355
 9374POPC   C1B49327   4.964  39.405   6.455
 9374POPC   C2B49328   4.963  39.410   6.755
 9374POPC   C3B49329   4.962  39.439   7.055
 9374POPC   C4B49330   4.971  39.409   7.355
 9375POPC   NC349331  36.095  15.192   5.555
 9375POPC   PO449332  36.138  15.191   5.855
 9375POPC   GL149333  36.097  15.139   6.155
 9375POPC   GL249334  36.294  15.160   6.155
 9375POPC   C1A49335  36.083  15.174   6.455
 9375POPC   D2A49336  36.141  15.171   6.755
 9375POPC   C3A49337  36.177  15.205   7.055
 9375POPC   C4A49338  36.123  15.190   7.355
 9375POPC   C1B49339  36.367  15.248   6.455
 9375POPC   C2B49340  36.343  15.186   6.755
 9375POPC   C3B49341  36.375  15.269   7.055
 9375POPC   C4B49342  36.336  15.189   7.355
 9376POPC   NC349343  15.949  37.673   5.555
 9376POPC   PO449344  15.952  37.717   5.855
 9376POPC   GL149345  15.947  37.709   6.155
 9376POPC   GL249346  15.807  37.710   6.155
 9376POPC   C1A49347  15.906  37.646   6.455
 9376POPC   D2A49348  15.946  37.687   6.755
 9376POPC   C3A49349  15.946  37.699   7.055
 9376POPC   C4A49350  15.906  37.712   7.355
 9376POPC   C1B49351  15.664  37.661   6.455
 9376POPC   C2B49352  15.669  37.663   6.755
 9376POPC   C3B49353  15.661  37.691   7.055
 9376POPC   C4B49354  15.743  37.694   7.355
 9377POPC   NC349355  22.948  22.978   5.555
 9377POPC   PO449356  22.901  22.930   5.855
 9377POPC   GL149357  22.970  22.945   6.155
 9377POPC   GL249358  22.906  22.770   6.155
 9377POPC   C1A49359  22.983  22.893   6.455
 9377POPC   D2A49360  22.981  22.939   6.755
 9377POPC   C3A49361  22.911  22.922   7.055
 9377POPC   C4A49362  22.976  22.939   7.355
 9377POPC   C1B49363  22.992  22.735   6.455
 9377POPC   C2B49364  22.928  22.726   6.755
 9377POPC   C3B49365  22.972  22.650   7.055
 9377POPC   C4B49366  22.949  22.681   7.355
 9378POPC   NC349367  18.326   0.440   5.555
 9378POPC   PO449368  18.275   0.441   5.855
 9378POPC   GL149369  18.293   0.432   6.155
 9378POPC   GL249370  18.260   0.528   6.155
 9378POPC   C1A49371  18.281   0.456   6.455
 9378POPC   D2A49372  18.285   0.432   6.755
 9378POPC   C3A49373  18.304   0.427   7.055
 9378POPC   C4A49374  18.277   0.395   7.355
 9378POPC   C1B49375  18.220   0.706   6.455
 9378POPC   C2B49376  18.223   0.690   6.755
 9378POPC   C3B49377  18.195   0.629   7.055
 9378POPC   C4B49378  18.186   0.643   7.355
 9379POPC   NC349379  12.879  27.576   5.555
 9379POPC   PO449380  12.897  27.604   5.855
 9379POPC   GL149381  12.839  27.584   6.155
 9379POPC   GL249382  12.787  27.682   6.155
 9379POPC   C1A49383  12.826  27.562   6.455
 9379POPC   D2A49384  12.875  27.624   6.755
 9379POPC   C3A49385  12.863  27.558   7.055
 9379POPC   C4A49386  12.855  27.623   7.355
 9379POPC   C1B49387  12.635  27.662   6.455
 9379POPC   C2B49388  12.605  27.706   6.755
 9379POPC   C3B49389  12.616  27.747   7.055
 9379POPC   C4B49390  12.612  27.673   7.355
 9380POPC   NC349391  29.962  16.729   5.555
 9380POPC   PO449392  29.958  16.763   5.855
 9380POPC   GL149393  29.937  16.767   6.155
 9380POPC   GL249394  30.052  16.795   6.155
 9380POPC   C1A49395  29.879  16.776   6.455
 9380POPC   D2A49396  29.966  16.741   6.755
 9380POPC   C3A49397  29.923  16.706   7.055
 9380POPC   C4A49398  29.909  16.738   7.355
 9380POPC   C1B49399  30.059  16.872   6.455
 9380POPC   C2B49400  30.124  16.894   6.755
 9380POPC   C3B49401  30.069  16.931   7.055
 9380POPC   C4B49402  30.119  16.927   7.355
 9381POPC   NC349403  22.942  23.694   5.555
 9381POPC   PO449404  22.970  23.750   5.855
 9381POPC   GL149405  22.969  23.675   6.155
 9381POPC   GL249406  22.889  23.833   6.155
 9381POPC   C1A49407  22.963  23.742   6.455
 9381POPC   D2A49408  22.962  23.737   6.755
 9381POPC   C3A49409  22.931  23.738   7.055
 9381POPC   C4A49410  22.946  23.693   7.355
 9381POPC   C1B49411  22.789  23.886   6.455
 9381POPC   C2B49412  22.838  23.924   6.755
 9381POPC   C3B49413  22.810  23.962   7.055
 9381POPC   C4B49414  22.768  23.962   7.355
 9382POPC   NC349415  12.827   6.667   5.555
 9382POPC   PO449416  12.855   6.675   5.855
 9382POPC   GL149417  12.861   6.620   6.155
 9382POPC   GL249418  12.711   6.720   6.155
 9382POPC   C1A49419  12.878   6.607   6.455
 9382POPC   D2A49420  12.843   6.631   6.755
 9382POPC   C3A49421  12.823   6.684   7.055
 9382POPC   C4A49422  12.805   6.680   7.355
 9382POPC   C1B49423  12.600   6.774   6.455
 9382POPC   C2B49424  12.643   6.827   6.755
 9382POPC   C3B49425  12.687   6.785   7.055
 9382POPC   C4B49426  12.642   6.778   7.355
 9383POPC   NC349427   6.689  37.633   5.555
 9383POPC   PO449428   6.616  37.648   5.855
 9383POPC   GL149429   6.659  37.680   6.155
 9383POPC   GL249430   6.565  37.690   6.155
 9383POPC   C1A49431   6.692  37.684   6.455
 9383POPC   D2A49432   6.604  37.696   6.755
 9383POPC   C3A49433   6.655  37.630   7.055
 9383POPC   C4A49434   6.611  37.638   7.355
 9383POPC   C1B49435   6.421  37.594   6.455
 9383POPC   C2B49436   6.369  37.644   6.755
 9383POPC   C3B49437   6.425  37.583   7.055
 9383POPC   C4B49438   6.393  37.639   7.355
 9384POPC   NC349439  43.084  29.142   5.555
 9384POPC   PO449440  43.109  29.111   5.855
 9384POPC   GL149441  43.120  29.150   6.155
 9384POPC   GL249442  42.980  29.222   6.155
 9384POPC   C1A49443  43.107  29.128   6.455
 9384POPC   D2A49444  43.086  29.149   6.755
 9384POPC   C3A49445  43.158  29.150   7.055
 9384POPC   C4A49446  43.090  29.151   7.355
 9384POPC   C1B49447  42.883  29.184   6.455
 9384POPC   C2B49448  42.844  29.246   6.755
 9384POPC   C3B49449  42.914  29.249   7.055
 9384POPC   C4B49450  42.874  29.213   7.355
 9385POPC   NC349451  21.372  28.330   5.555
 9385POPC   PO449452  21.378  28.385   5.855
 9385POPC   GL149453  21.348  28.335   6.155
 9385POPC   GL249454  21.442  28.428   6.155
 9385POPC   C1A49455  21.390  28.351   6.455
 9385POPC   D2A49456  21.410  28.405   6.755
 9385POPC   C3A49457  21.425  28.412   7.055
 9385POPC   C4A49458  21.413  28.386   7.355
 9385POPC   C1B49459  21.518  28.543   6.455
 9385POPC   C2B49460  21.496  28.596   6.755
 9385POPC   C3B49461  21.540  28.571   7.055
 9385POPC   C4B49462  21.481  28.583   7.355
 9386POPC   NC349463   4.318  35.345   5.555
 9386POPC   PO449464   4.314  35.304   5.855
 9386POPC   GL149465   4.351  35.303   6.155
 9386POPC   GL249466   4.240  35.415   6.155
 9386POPC   C1A49467   4.350  35.398   6.455
 9386POPC   D2A49468   4.279  35.342   6.755
 9386POPC   C3A49469   4.282  35.310   7.055
 9386POPC   C4A49470   4.329  35.305   7.355
 9386POPC   C1B49471   4.048  35.448   6.455
 9386POPC   C2B49472   4.142  35.511   6.755
 9386POPC   C3B49473   4.095  35.479   7.055
 9386POPC   C4B49474   4.066  35.452   7.355
 9387POPC   NC349475   9.752  43.070   5.555
 9387POPC   PO449476   9.740  43.073   5.855
 9387POPC   GL149477   9.710  43.149   6.155
 9387POPC   GL249478   9.646  43.009   6.155
 9387POPC   C1A49479   9.758  43.120   6.455
 9387POPC   D2A49480   9.757  43.151   6.755
 9387POPC   C3A49481   9.791  43.152   7.055
 9387POPC   C4A49482   9.736  43.148   7.355
 9387POPC   C1B49483   9.608  42.942   6.455
 9387POPC   C2B49484   9.520  42.931   6.755
 9387POPC   C3B49485   9.527  42.985   7.055
 9387POPC   C4B49486   9.534  42.962   7.355
 9388POPC   NC349487  29.914   7.423   5.555
 9388POPC   PO449488  29.923   7.465   5.855
 9388POPC   GL149489  29.900   7.452   6.155
 9388POPC   GL249490  29.830   7.434   6.155
 9388POPC   C1A49491  29.945   7.421   6.455
 9388POPC   D2A49492  29.926   7.462   6.755
 9388POPC   C3A49493  29.900   7.465   7.055
 9388POPC   C4A49494  29.946   7.435   7.355
 9388POPC   C1B49495  29.629   7.424   6.455
 9388POPC   C2B49496  29.705   7.453   6.755
 9388POPC   C3B49497  29.689   7.441   7.055
 9388POPC   C4B49498  29.631   7.480   7.355
 9389POPC   NC349499   1.199  29.899   5.555
 9389POPC   PO449500   1.221  29.878   5.855
 9389POPC   GL149501   1.251  29.879   6.155
 9389POPC   GL249502   1.125  29.822   6.155
 9389POPC   C1A49503   1.202  29.947   6.455
 9389POPC   D2A49504   1.178  29.928   6.755
 9389POPC   C3A49505   1.246  29.886   7.055
 9389POPC   C4A49506   1.238  29.961   7.355
 9389POPC   C1B49507   0.993  29.722   6.455
 9389POPC   C2B49508   0.994  29.710   6.755
 9389POPC   C3B49509   1.073  29.790   7.055
 9389POPC   C4B49510   0.989  29.752   7.355
 9390POPC   NC349511  15.996  43.151   5.555
 9390POPC   PO449512  15.939  43.086   5.855
 9390POPC   GL149513  15.907  43.062   6.155
 9390POPC   GL249514  15.957  42.990   6.155
 9390POPC   C1A49515  15.956  43.110   6.455
 9390POPC   D2A49516  15.991  43.119   6.755
 9390POPC   C3A49517  15.962  43.094   7.055
 9390POPC   C4A49518  15.943  43.140   7.355
 9390POPC   C1B49519  15.974  42.897   6.455
 9390POPC   C2B49520  15.941  42.884   6.755
 9390POPC   C3B49521  15.967  42.859   7.055
 9390POPC   C4B49522  15.992  42.846   7.355
 9391POPC   NC349523   2.801  12.834   5.555
 9391POPC   PO449524   2.717  12.887   5.855
 9391POPC   GL149525   2.775  12.844   6.155
 9391POPC   GL249526   2.790  12.949   6.155
 9391POPC   C1A49527   2.813  12.859   6.455
 9391POPC   D2A49528   2.760  12.867   6.755
 9391POPC   C3A49529   2.752  12.890   7.055
 9391POPC   C4A49530   2.781  12.804   7.355
 9391POPC   C1B49531   2.705  13.146   6.455
 9391POPC   C2B49532   2.701  13.087   6.755
 9391POPC   C3B49533   2.744  13.127   7.055
 9391POPC   C4B49534   2.772  13.104   7.355
 9392POPC   NC349535  30.678  41.585   5.555
 9392POPC   PO449536  30.742  41.538   5.855
 9392POPC   GL149537  30.686  41.575   6.155
 9392POPC   GL249538  30.789  41.557   6.155
 9392POPC   C1A49539  30.710  41.546   6.455
 9392POPC   D2A49540  30.711  41.531   6.755
 9392POPC   C3A49541  30.706  41.532   7.055
 9392POPC   C4A49542  30.698  41.533   7.355
 9392POPC   C1B49543  30.932  41.602   6.455
 9392POPC   C2B49544  30.931  41.608   6.755
 9392POPC   C3B49545  30.905  41.630   7.055
 9392POPC   C4B49546  30.944  41.612   7.355
 9393POPC   NC349547  37.633  25.296   5.555
 9393POPC   PO449548  37.668  25.235   5.855
 9393POPC   GL149549  37.666  25.312   6.155
 9393POPC   GL249550  37.562  25.370   6.155
 9393POPC   C1A49551  37.710  25.221   6.455
 9393POPC   D2A49552  37.683  25.293   6.755
 9393POPC   C3A49553  37.724  25.243   7.055
 9393POPC   C4A49554  37.724  25.291   7.355
 9393POPC   C1B49555  37.519  25.405   6.455
 9393POPC   C2B49556  37.466  25.442   6.755
 9393POPC   C3B49557  37.463  25.428   7.055
 9393POPC   C4B49558  37.503  25.466   7.355
 9394POPC   NC349559   4.313  22.981   5.555
 9394POPC   PO449560   4.273  22.891   5.855
 9394POPC   GL149561   4.367  22.934   6.155
 9394POPC   GL249562   4.288  22.829   6.155
 9394POPC   C1A49563   4.321  22.934   6.455
 9394POPC   D2A49564   4.322  22.936   6.755
 9394POPC   C3A49565   4.329  22.924   7.055
 9394POPC   C4A49566   4.310  22.952   7.355
 9394POPC   C1B49567   4.192  22.691   6.455
 9394POPC   C2B49568   4.161  22.771   6.755
 9394POPC   C3B49569   4.151  22.723   7.055
 9394POPC   C4B49570   4.136  22.735   7.355
 9395POPC   NC349571   2.759  23.752   5.555
 9395POPC   PO449572   2.798  23.728   5.855
 9395POPC   GL149573   2.742  23.707   6.155
 9395POPC   GL249574   2.670  23.751   6.155
 9395POPC   C1A49575   2.774  23.703   6.455
 9395POPC   D2A49576   2.731  23.746   6.755
 9395POPC   C3A49577   2.787  23.664   7.055
 9395POPC   C4A49578   2.728  23.737   7.355
 9395POPC   C1B49579   2.522  23.712   6.455
 9395POPC   C2B49580   2.496  23.737   6.755
 9395POPC   C3B49581   2.535  23.723   7.055
 9395POPC   C4B49582   2.543  23.762   7.355
 9396POPC   NC349583  16.746  20.613   5.555
 9396POPC   PO449584  16.767  20.621   5.855
 9396POPC   GL149585  16.681  20.573   6.155
 9396POPC   GL249586  16.746  20.687   6.155
 9396POPC   C1A49587  16.734  20.580   6.455
 9396POPC   D2A49588  16.732  20.581   6.755
 9396POPC   C3A49589  16.756  20.656   7.055
 9396POPC   C4A49590  16.684  20.615   7.355
 9396POPC   C1B49591  16.888  20.781   6.455
 9396POPC   C2B49592  16.874  20.849   6.755
 9396POPC   C3B49593  16.837  20.877   7.055
 9396POPC   C4B49594  16.845  20.832   7.355
 9397POPC   NC349595  17.516  44.710   5.555
 9397POPC   PO449596  17.541  44.703   5.855
 9397POPC   GL149597  17.531  44.646   6.155
 9397POPC   GL249598  17.542  44.529   6.155
 9397POPC   C1A49599  17.536  44.673   6.455
 9397POPC   D2A49600  17.461  44.646   6.755
 9397POPC   C3A49601  17.549  44.638   7.055
 9397POPC   C4A49602  17.517  44.664   7.355
 9397POPC   C1B49603  17.623  44.484   6.455
 9397POPC   C2B49604  17.613  44.489   6.755
 9397POPC   C3B49605  17.653  44.442   7.055
 9397POPC   C4B49606  17.636  44.498   7.355
 9398POPC   NC349607  25.997   9.795   5.555
 9398POPC   PO449608  26.017   9.760   5.855
 9398POPC   GL149609  26.032   9.736   6.155
 9398POPC   GL249610  26.065   9.887   6.155
 9398POPC   C1A49611  26.051   9.738   6.455
 9398POPC   D2A49612  26.008   9.740   6.755
 9398POPC   C3A49613  26.002   9.708   7.055
 9398POPC   C4A49614  26.045   9.795   7.355
 9398POPC   C1B49615  26.030  10.032   6.455
 9398POPC   C2B49616  26.017  10.018   6.755
 9398POPC   C3B49617  26.015   9.961   7.055
 9398POPC   C4B49618  26.007   9.964   7.355
 9399POPC   NC349619  10.556  11.310   5.555
 9399POPC   PO449620  10.541  11.307   5.855
 9399POPC   GL149621  10.491  11.255   6.155
 9399POPC   GL249622  10.582  11.388   6.155
 9399POPC   C1A49623  10.558  11.340   6.455
 9399POPC   D2A49624  10.496  11.272   6.755
 9399POPC   C3A49625  10.570  11.315   7.055
 9399POPC   C4A49626  10.502  11.346   7.355
 9399POPC   C1B49627  10.687  11.491   6.455
 9399POPC   C2B49628  10.642  11.563   6.755
 9399POPC   C3B49629  10.624  11.536   7.055
 9399POPC   C4B49630  10.677  11.570   7.355
 9400POPC   NC349631  33.010   3.588   5.555
 9400POPC   PO449632  33.049   3.517   5.855
 9400POPC   GL149633  33.062   3.541   6.155
 9400POPC   GL249634  32.952   3.476   6.155
 9400POPC   C1A49635  32.987   3.505   6.455
 9400POPC   D2A49636  33.037   3.556   6.755
 9400POPC   C3A49637  33.043   3.506   7.055
 9400POPC   C4A49638  33.074   3.528   7.355
 9400POPC   C1B49639  32.844   3.322   6.455
 9400POPC   C2B49640  32.887   3.324   6.755
 9400POPC   C3B49641  32.872   3.369   7.055
 9400POPC   C4B49642  32.836   3.365   7.355
 9401POPC   NC349643  22.936  18.236   5.555
 9401POPC   PO449644  22.893  18.309   5.855
 9401POPC   GL149645  22.922  18.267   6.155
 9401POPC   GL249646  22.804  18.303   6.155
 9401POPC   C1A49647  22.985  18.300   6.455
 9401POPC   D2A49648  22.972  18.233   6.755
 9401POPC   C3A49649  22.979  18.326   7.055
 9401POPC   C4A49650  22.892  18.317   7.355
 9401POPC   C1B49651  22.698  18.317   6.455
 9401POPC   C2B49652  22.703  18.290   6.755
 9401POPC   C3B49653  22.705  18.310   7.055
 9401POPC   C4B49654  22.738  18.308   7.355
 9402POPC   NC349655  15.133  19.795   5.555
 9402POPC   PO449656  15.193  19.831   5.855
 9402POPC   GL149657  15.148  19.795   6.155
 9402POPC   GL249658  15.344  19.762   6.155
 9402POPC   C1A49659  15.193  19.875   6.455
 9402POPC   D2A49660  15.178  19.832   6.755
 9402POPC   C3A49661  15.196  19.805   7.055
 9402POPC   C4A49662  15.151  19.856   7.355
 9402POPC   C1B49663  15.410  19.756   6.455
 9402POPC   C2B49664  15.422  19.779   6.755
 9402POPC   C3B49665  15.425  19.734   7.055
 9402POPC   C4B49666  15.367  19.774   7.355
 9403POPC   NC349667  18.240  44.665   5.555
 9403POPC   PO449668  18.259  44.618   5.855
 9403POPC   GL149669  18.284  44.661   6.155
 9403POPC   GL249670  18.361  44.777   6.155
 9403POPC   C1A49671  18.287  44.620   6.455
 9403POPC   D2A49672  18.303  44.617   6.755
 9403POPC   C3A49673  18.273  44.689   7.055
 9403POPC   C4A49674  18.252  44.684   7.355
 9403POPC   C1B49675  18.323  44.911   6.455
 9403POPC   C2B49676  18.360  44.938   6.755
 9403POPC   C3B49677  18.392  44.940   7.055
 9403POPC   C4B49678  18.396  44.939   7.355
 9404POPC   NC349679  17.512   3.561   5.555
 9404POPC   PO449680  17.516   3.568   5.855
 9404POPC   GL149681  17.533   3.514   6.155
 9404POPC   GL249682  17.467   3.395   6.155
 9404POPC   C1A49683  17.469   3.580   6.455
 9404POPC   D2A49684  17.459   3.531   6.755
 9404POPC   C3A49685  17.507   3.535   7.055
 9404POPC   C4A49686  17.520   3.563   7.355
 9404POPC   C1B49687  17.513   3.298   6.455
 9404POPC   C2B49688  17.477   3.340   6.755
 9404POPC   C3B49689  17.482   3.288   7.055
 9404POPC   C4B49690  17.488   3.301   7.355
 9405POPC   NC349691  43.847  11.338   5.555
 9405POPC   PO449692  43.865  11.251   5.855
 9405POPC   GL149693  43.861  11.319   6.155
 9405POPC   GL249694  43.774  11.317   6.155
 9405POPC   C1A49695  43.903  11.314   6.455
 9405POPC   D2A49696  43.898  11.264   6.755
 9405POPC   C3A49697  43.910  11.334   7.055
 9405POPC   C4A49698  43.898  11.306   7.355
 9405POPC   C1B49699  43.652  11.274   6.455
 9405POPC   C2B49700  43.668  11.218   6.755
 9405POPC   C3B49701  43.634  11.199   7.055
 9405POPC   C4B49702  43.623  11.232   7.355
 9406POPC   NC349703  12.056  11.276   5.555
 9406POPC   PO449704  12.060  11.313   5.855
 9406POPC   GL149705  12.086  11.280   6.155
 9406POPC   GL249706  12.014  11.359   6.155
 9406POPC   C1A49707  12.085  11.321   6.455
 9406POPC   D2A49708  12.086  11.308   6.755
 9406POPC   C3A49709  12.059  11.272   7.055
 9406POPC   C4A49710  12.045  11.289   7.355
 9406POPC   C1B49711  11.819  11.416   6.455
 9406POPC   C2B49712  11.893  11.452   6.755
 9406POPC   C3B49713  11.911  11.458   7.055
 9406POPC   C4B49714  11.863  11.464   7.355
 9407POPC   NC349715  43.845   4.268   5.555
 9407POPC   PO449716  43.846   4.286   5.855
 9407POPC   GL149717  43.841   4.367   6.155
 9407POPC   GL249718  43.858   4.256   6.155
 9407POPC   C1A49719  43.852   4.326   6.455
 9407POPC   D2A49720  43.858   4.332   6.755
 9407POPC   C3A49721  43.900   4.355   7.055
 9407POPC   C4A49722  43.852   4.337   7.355
 9407POPC   C1B49723  43.708   4.120   6.455
 9407POPC   C2B49724  43.701   4.066   6.755
 9407POPC   C3B49725  43.700   4.111   7.055
 9407POPC   C4B49726  43.698   4.100   7.355
 9408POPC   NC349727  15.953  40.736   5.555
 9408POPC   PO449728  15.984  40.733   5.855
 9408POPC   GL149729  15.934  40.737   6.155
 9408POPC   GL249730  15.936  40.658   6.155
 9408POPC   C1A49731  15.948  40.832   6.455
 9408POPC   D2A49732  15.953  40.788   6.755
 9408POPC   C3A49733  15.939  40.799   7.055
 9408POPC   C4A49734  15.920  40.811   7.355
 9408POPC   C1B49735  15.942  40.493   6.455
 9408POPC   C2B49736  15.921  40.536   6.755
 9408POPC   C3B49737  15.916  40.537   7.055
 9408POPC   C4B49738  15.870  40.537   7.355
 9409POPC   NC349739   5.132  19.790   5.555
 9409POPC   PO449740   5.058  19.835   5.855
 9409POPC   GL149741   5.114  19.815   6.155
 9409POPC   GL249742   4.993  19.856   6.155
 9409POPC   C1A49743   5.132  19.797   6.455
 9409POPC   D2A49744   5.051  19.806   6.755
 9409POPC   C3A49745   5.120  19.833   7.055
 9409POPC   C4A49746   5.111  19.790   7.355
 9409POPC   C1B49747   4.868  19.919   6.455
 9409POPC   C2B49748   4.815  19.957   6.755
 9409POPC   C3B49749   4.863  19.886   7.055
 9409POPC   C4B49750   4.872  19.977   7.355
 9410POPC   NC349751  27.583  11.306   5.555
 9410POPC   PO449752  27.595  11.255   5.855
 9410POPC   GL149753  27.592  11.280   6.155
 9410POPC   GL249754  27.567  11.128   6.155
 9410POPC   C1A49755  27.614  11.310   6.455
 9410POPC   D2A49756  27.590  11.334   6.755
 9410POPC   C3A49757  27.638  11.268   7.055
 9410POPC   C4A49758  27.638  11.318   7.355
 9410POPC   C1B49759  27.652  11.037   6.455
 9410POPC   C2B49760  27.611  11.001   6.755
 9410POPC   C3B49761  27.631  11.050   7.055
 9410POPC   C4B49762  27.573  11.044   7.355
 9411POPC   NC349763  37.678  34.603   5.555
 9411POPC   PO449764  37.694  34.593   5.855
 9411POPC   GL149765  37.679  34.571   6.155
 9411POPC   GL249766  37.642  34.722   6.155
 9411POPC   C1A49767  37.673  34.561   6.455
 9411POPC   D2A49768  37.680  34.567   6.755
 9411POPC   C3A49769  37.718  34.624   7.055
 9411POPC   C4A49770  37.668  34.537   7.355
 9411POPC   C1B49771  37.593  34.790   6.455
 9411POPC   C2B49772  37.539  34.851   6.755
 9411POPC   C3B49773  37.570  34.808   7.055
 9411POPC   C4B49774  37.610  34.853   7.355
 9412POPC   NC349775   9.774  38.413   5.555
 9412POPC   PO449776   9.762  38.432   5.855
 9412POPC   GL149777   9.797  38.416   6.155
 9412POPC   GL249778   9.828  38.403   6.155
 9412POPC   C1A49779   9.775  38.433   6.455
 9412POPC   D2A49780   9.786  38.454   6.755
 9412POPC   C3A49781   9.758  38.427   7.055
 9412POPC   C4A49782   9.745  38.450   7.355
 9412POPC   C1B49783   9.963  38.302   6.455
 9412POPC   C2B49784   9.975  38.316   6.755
 9412POPC   C3B49785   9.996  38.368   7.055
 9412POPC   C4B49786   9.940  38.317   7.355
 9413POPC   NC349787  23.677  20.613   5.555
 9413POPC   PO449788  23.671  20.639   5.855
 9413POPC   GL149789  23.698  20.651   6.155
 9413POPC   GL249790  23.635  20.596   6.155
 9413POPC   C1A49791  23.691  20.596   6.455
 9413POPC   D2A49792  23.701  20.633   6.755
 9413POPC   C3A49793  23.730  20.571   7.055
 9413POPC   C4A49794  23.690  20.643   7.355
 9413POPC   C1B49795  23.503  20.440   6.455
 9413POPC   C2B49796  23.510  20.478   6.755
 9413POPC   C3B49797  23.472  20.485   7.055
 9413POPC   C4B49798  23.510  20.454   7.355
 9414POPC   NC349799  11.280  13.583   5.555
 9414POPC   PO449800  11.327  13.655   5.855
 9414POPC   GL149801  11.274  13.663   6.155
 9414POPC   GL249802  11.309  13.727   6.155
 9414POPC   C1A49803  11.258  13.598   6.455
 9414POPC   D2A49804  11.252  13.589   6.755
 9414POPC   C3A49805  11.337  13.645   7.055
 9414POPC   C4A49806  11.293  13.612   7.355
 9414POPC   C1B49807  11.198  13.886   6.455
 9414POPC   C2B49808  11.240  13.836   6.755
 9414POPC   C3B49809  11.254  13.834   7.055
 9414POPC   C4B49810  11.206  13.906   7.355
 9415POPC   NC349811  19.074  25.250   5.555
 9415POPC   PO449812  19.057  25.227   5.855
 9415POPC   GL149813  19.020  25.245   6.155
 9415POPC   GL249814  19.020  25.140   6.155
 9415POPC   C1A49815  19.022  25.278   6.455
 9415POPC   D2A49816  19.102  25.289   6.755
 9415POPC   C3A49817  19.058  25.288   7.055
 9415POPC   C4A49818  19.082  25.263   7.355
 9415POPC   C1B49819  18.896  25.037   6.455
 9415POPC   C2B49820  18.880  25.101   6.755
 9415POPC   C3B49821  18.867  25.092   7.055
 9415POPC   C4B49822  18.887  25.080   7.355
 9416POPC   NC349823  36.873  29.176   5.555
 9416POPC   PO449824  36.947  29.109   5.855
 9416POPC   GL149825  36.855  29.182   6.155
 9416POPC   GL249826  37.001  29.293   6.155
 9416POPC   C1A49827  36.881  29.139   6.455
 9416POPC   D2A49828  36.900  29.176   6.755
 9416POPC   C3A49829  36.950  29.114   7.055
 9416POPC   C4A49830  36.948  29.147   7.355
 9416POPC   C1B49831  37.031  29.317   6.455
 9416POPC   C2B49832  36.986  29.318   6.755
 9416POPC   C3B49833  36.996  29.379   7.055
 9416POPC   C4B49834  36.995  29.343   7.355
 9417POPC   NC349835  43.885  12.893   5.555
 9417POPC   PO449836  43.914  12.877   5.855
 9417POPC   GL149837  43.911  12.846   6.155
 9417POPC   GL249838  43.965  12.926   6.155
 9417POPC   C1A49839  43.850  12.813   6.455
 9417POPC   D2A49840  43.873  12.854   6.755
 9417POPC   C3A49841  43.844  12.864   7.055
 9417POPC   C4A49842  43.917  12.855   7.355
 9417POPC   C1B49843  43.993  13.034   6.455
 9417POPC   C2B49844  43.964  13.023   6.755
 9417POPC   C3B49845  44.005  13.098   7.055
 9417POPC   C4B49846  43.989  13.019   7.355
 9418POPC   NC349847  41.601  33.000   5.555
 9418POPC   PO449848  41.520  33.018   5.855
 9418POPC   GL149849  41.543  33.047   6.155
 9418POPC   GL249850  41.665  32.972   6.155
 9418POPC   C1A49851  41.576  33.006   6.455
 9418POPC   D2A49852  41.518  32.981   6.755
 9418POPC   C3A49853  41.569  33.014   7.055
 9418POPC   C4A49854  41.559  33.067   7.355
 9418POPC   C1B49855  41.717  32.860   6.455
 9418POPC   C2B49856  41.719  32.870   6.755
 9418POPC   C3B49857  41.725  32.879   7.055
 9418POPC   C4B49858  41.760  32.833   7.355
 9419POPC   NC349859  19.031  26.771   5.555
 9419POPC   PO449860  19.089  26.775   5.855
 9419POPC   GL149861  19.053  26.816   6.155
 9419POPC   GL249862  19.195  26.879   6.155
 9419POPC   C1A49863  19.072  26.787   6.455
 9419POPC   D2A49864  19.032  26.774   6.755
 9419POPC   C3A49865  19.083  26.825   7.055
 9419POPC   C4A49866  19.057  26.840   7.355
 9419POPC   C1B49867  19.259  26.961   6.455
 9419POPC   C2B49868  19.246  26.924   6.755
 9419POPC   C3B49869  19.261  26.974   7.055
 9419POPC   C4B49870  19.289  26.936   7.355
 9420POPC   NC349871   4.302  12.026   5.555
 9420POPC   PO449872   4.340  12.070   5.855
 9420POPC   GL149873   4.358  12.040   6.155
 9420POPC   GL249874   4.341  11.968   6.155
 9420POPC   C1A49875   4.315  12.066   6.455
 9420POPC   D2A49876   4.311  12.051   6.755
 9420POPC   C3A49877   4.334  12.098   7.055
 9420POPC   C4A49878   4.273  12.058   7.355
 9420POPC   C1B49879   4.298  11.869   6.455
 9420POPC   C2B49880   4.292  11.858   6.755
 9420POPC   C3B49881   4.335  11.818   7.055
 9420POPC   C4B49882   4.307  11.803   7.355
 9421POPC   NC349883  16.706  24.463   5.555
 9421POPC   PO449884  16.772  24.493   5.855
 9421POPC   GL149885  16.770  24.450   6.155
 9421POPC   GL249886  16.660  24.623   6.155
 9421POPC   C1A49887  16.767  24.509   6.455
 9421POPC   D2A49888  16.711  24.493   6.755
 9421POPC   C3A49889  16.775  24.481   7.055
 9421POPC   C4A49890  16.739  24.441   7.355
 9421POPC   C1B49891  16.660  24.755   6.455
 9421POPC   C2B49892  16.651  24.729   6.755
 9421POPC   C3B49893  16.633  24.719   7.055
 9421POPC   C4B49894  16.602  24.739   7.355
 9422POPC   NC349895  22.122  39.965   5.555
 9422POPC   PO449896  22.147  40.042   5.855
 9422POPC   GL149897  22.190  39.986   6.155
 9422POPC   GL249898  22.284  40.093   6.155
 9422POPC   C1A49899  22.142  40.002   6.455
 9422POPC   D2A49900  22.182  39.996   6.755
 9422POPC   C3A49901  22.181  40.056   7.055
 9422POPC   C4A49902  22.134  39.998   7.355
 9422POPC   C1B49903  22.399  40.087   6.455
 9422POPC   C2B49904  22.420  40.112   6.755
 9422POPC   C3B49905  22.436  40.043   7.055
 9422POPC   C4B49906  22.413  40.079   7.355
 9423POPC   NC349907  36.148  16.780   5.555
 9423POPC   PO449908  36.108  16.705   5.855
 9423POPC   GL149909  36.104  16.713   6.155
 9423POPC   GL249910  36.207  16.636   6.155
 9423POPC   C1A49911  36.089  16.780   6.455
 9423POPC   D2A49912  36.095  16.711   6.755
 9423POPC   C3A49913  36.168  16.730   7.055
 9423POPC   C4A49914  36.128  16.760   7.355
 9423POPC   C1B49915  36.331  16.646   6.455
 9423POPC   C2B49916  36.383  16.642   6.755
 9423POPC   C3B49917  36.342  16.601   7.055
 9423POPC   C4B49918  36.350  16.629   7.355
 9424POPC   NC349919  16.750  32.202   5.555
 9424POPC   PO449920  16.749  32.236   5.855
 9424POPC   GL149921  16.689  32.224   6.155
 9424POPC   GL249922  16.586  32.279   6.155
 9424POPC   C1A49923  16.700  32.216   6.455
 9424POPC   D2A49924  16.771  32.297   6.755
 9424POPC   C3A49925  16.724  32.238   7.055
 9424POPC   C4A49926  16.732  32.233   7.355
 9424POPC   C1B49927  16.484  32.294   6.455
 9424POPC   C2B49928  16.510  32.311   6.755
 9424POPC   C3B49929  16.446  32.245   7.055
 9424POPC   C4B49930  16.477  32.294   7.355
 9425POPC   NC349931  24.502  12.880   5.555
 9425POPC   PO449932  24.528  12.827   5.855
 9425POPC   GL149933  24.490  12.863   6.155
 9425POPC   GL249934  24.612  12.872   6.155
 9425POPC   C1A49935  24.443  12.895   6.455
 9425POPC   D2A49936  24.462  12.877   6.755
 9425POPC   C3A49937  24.466  12.813   7.055
 9425POPC   C4A49938  24.504  12.816   7.355
 9425POPC   C1B49939  24.680  13.027   6.455
 9425POPC   C2B49940  24.678  12.956   6.755
 9425POPC   C3B49941  24.685  13.024   7.055
 9425POPC   C4B49942  24.692  13.004   7.355
 9426POPC   NC349943  40.743  26.024   5.555
 9426POPC   PO449944  40.777  25.995   5.855
 9426POPC   GL149945  40.750  26.064   6.155
 9426POPC   GL249946  40.922  26.076   6.155
 9426POPC   C1A49947  40.785  26.016   6.455
 9426POPC   D2A49948  40.823  26.034   6.755
 9426POPC   C3A49949  40.751  26.088   7.055
 9426POPC   C4A49950  40.759  26.078   7.355
 9426POPC   C1B49951  41.020  26.159   6.455
 9426POPC   C2B49952  40.964  26.189   6.755
 9426POPC   C3B49953  41.042  26.162   7.055
 9426POPC   C4B49954  41.036  26.126   7.355
 9427POPC   NC349955  27.640   3.520   5.555
 9427POPC   PO449956  27.573   3.590   5.855
 9427POPC   GL149957  27.582   3.514   6.155
 9427POPC   GL249958  27.579   3.457   6.155
 9427POPC   C1A49959  27.572   3.529   6.455
 9427POPC   D2A49960  27.558   3.546   6.755
 9427POPC   C3A49961  27.554   3.583   7.055
 9427POPC   C4A49962  27.586   3.568   7.355
 9427POPC   C1B49963  27.515   3.289   6.455
 9427POPC   C2B49964  27.496   3.340   6.755
 9427POPC   C3B49965  27.571   3.263   7.055
 9427POPC   C4B49966  27.534   3.281   7.355
 9428POPC   NC349967  11.278  40.794   5.555
 9428POPC   PO449968  11.327  40.812   5.855
 9428POPC   GL149969  11.276  40.763   6.155
 9428POPC   GL249970  11.361  40.635   6.155
 9428POPC   C1A49971  11.329  40.795   6.455
 9428POPC   D2A49972  11.303  40.780   6.755
 9428POPC   C3A49973  11.332  40.819   7.055
 9428POPC   C4A49974  11.276  40.783   7.355
 9428POPC   C1B49975  11.389  40.515   6.455
 9428POPC   C2B49976  11.379  40.509   6.755
 9428POPC   C3B49977  11.317  40.505   7.055
 9428POPC   C4B49978  11.372  40.538   7.355
 9429POPC   NC349979  36.125  36.877   5.555
 9429POPC   PO449980  36.174  36.899   5.855
 9429POPC   GL149981  36.130  36.928   6.155
 9429POPC   GL249982  36.253  36.981   6.155
 9429POPC   C1A49983  36.157  36.935   6.455
 9429POPC   D2A49984  36.130  36.879   6.755
 9429POPC   C3A49985  36.109  36.928   7.055
 9429POPC   C4A49986  36.099  36.943   7.355
 9429POPC   C1B49987  36.325  37.104   6.455
 9429POPC   C2B49988  36.316  37.076   6.755
 9429POPC   C3B49989  36.281  37.067   7.055
 9429POPC   C4B49990  36.352  37.115   7.355
 9430POPC   NC349991  33.843   5.882   5.555
 9430POPC   PO449992  33.783   5.861   5.855
 9430POPC   GL149993  33.836   5.904   6.155
 9430POPC   GL249994  33.900   5.971   6.155
 9430POPC   C1A49995  33.766   5.908   6.455
 9430POPC   D2A49996  33.849   5.865   6.755
 9430POPC   C3A49997  33.814   5.902   7.055
 9430POPC   C4A49998  33.789   5.902   7.355
 9430POPC   C1B49999  33.916   6.025   6.455
 9430POPC   C2B50000  33.950   6.110   6.755
 9430POPC   C3B50001  33.952   6.071   7.055
 9430POPC   C4B50002  33.928   6.077   7.355
 9431POPC   NC350003   6.656   8.927   5.555
 9431POPC   PO450004   6.693   8.985   5.855
 9431POPC   GL150005   6.625   8.978   6.155
 9431POPC   GL250006   6.671   8.863   6.155
 9431POPC   C1A50007   6.631   9.009   6.455
 9431POPC   D2A50008   6.600   8.983   6.755
 9431POPC   C3A50009   6.651   9.001   7.055
 9431POPC   C4A50010   6.679   8.944   7.355
 9431POPC   C1B50011   6.683   8.697   6.455
 9431POPC   C2B50012   6.660   8.702   6.755
 9431POPC   C3B50013   6.675   8.762   7.055
 9431POPC   C4B50014   6.671   8.772   7.355
 9432POPC   NC350015  28.413   8.193   5.555
 9432POPC   PO450016  28.360   8.214   5.855
 9432POPC   GL150017  28.386   8.172   6.155
 9432POPC   GL250018  28.249   8.145   6.155
 9432POPC   C1A50019  28.359   8.174   6.455
 9432POPC   D2A50020  28.344   8.230   6.755
 9432POPC   C3A50021  28.352   8.213   7.055
 9432POPC   C4A50022  28.412   8.166   7.355
 9432POPC   C1B50023  28.168   8.120   6.455
 9432POPC   C2B50024  28.087   8.120   6.755
 9432POPC   C3B50025  28.112   8.163   7.055
 9432POPC   C4B50026  28.123   8.209   7.355
 9433POPC   NC350027  29.179  43.858   5.555
 9433POPC   PO450028  29.119  43.856   5.855
 9433POPC   GL150029  29.190  43.874   6.155
 9433POPC   GL250030  29.033  43.834   6.155
 9433POPC   C1A50031  29.157  43.909   6.455
 9433POPC   D2A50032  29.101  43.927   6.755
 9433POPC   C3A50033  29.157  43.906   7.055
 9433POPC   C4A50034  29.142  43.910   7.355
 9433POPC   C1B50035  29.018  43.666   6.455
 9433POPC   C2B50036  28.984  43.654   6.755
 9433POPC   C3B50037  29.023  43.720   7.055
 9433POPC   C4B50038  28.957  43.688   7.355
 9434POPC   NC350039  34.553   7.441   5.555
 9434POPC   PO450040  34.549   7.377   5.855
 9434POPC   GL150041  34.539   7.399   6.155
 9434POPC   GL250042  34.560   7.573   6.155
 9434POPC   C1A50043  34.556   7.456   6.455
 9434POPC   D2A50044  34.582   7.455   6.755
 9434POPC   C3A50045  34.546   7.385   7.055
 9434POPC   C4A50046  34.621   7.465   7.355
 9434POPC   C1B50047  34.615   7.670   6.455
 9434POPC   C2B50048  34.566   7.645   6.755
 9434POPC   C3B50049  34.532   7.660   7.055
 9434POPC   C4B50050  34.557   7.646   7.355
 9435POPC   NC350051  18.323   8.229   5.555
 9435POPC   PO450052  18.248   8.190   5.855
 9435POPC   GL150053  18.290   8.180   6.155
 9435POPC   GL250054  18.260   8.094   6.155
 9435POPC   C1A50055  18.286   8.238   6.455
 9435POPC   D2A50056  18.312   8.161   6.755
 9435POPC   C3A50057  18.259   8.158   7.055
 9435POPC   C4A50058  18.296   8.165   7.355
 9435POPC   C1B50059  18.237   7.899   6.455
 9435POPC   C2B50060  18.241   7.898   6.755
 9435POPC   C3B50061  18.306   7.971   7.055
 9435POPC   C4B50062  18.268   7.983   7.355
 9436POPC   NC350063  41.524  26.023   5.555
 9436POPC   PO450064  41.599  26.034   5.855
 9436POPC   GL150065  41.568  26.028   6.155
 9436POPC   GL250066  41.638  26.010   6.155
 9436POPC   C1A50067  41.597  25.995   6.455
 9436POPC   D2A50068  41.532  26.030   6.755
 9436POPC   C3A50069  41.518  26.064   7.055
 9436POPC   C4A50070  41.566  26.056   7.355
 9436POPC   C1B50071  41.772  26.049   6.455
 9436POPC   C2B50072  41.832  26.055   6.755
 9436POPC   C3B50073  41.813  26.089   7.055
 9436POPC   C4B50074  41.838  26.005   7.355
 9437POPC   NC350075   6.654  40.018   5.555
 9437POPC   PO450076   6.623  39.972   5.855
 9437POPC   GL150077   6.673  40.046   6.155
 9437POPC   GL250078   6.691  39.935   6.155
 9437POPC   C1A50079   6.652  40.054   6.455
 9437POPC   D2A50080   6.640  40.043   6.755
 9437POPC   C3A50081   6.635  39.960   7.055
 9437POPC   C4A50082   6.641  40.011   7.355
 9437POPC   C1B50083   6.793  39.789   6.455
 9437POPC   C2B50084   6.824  39.794   6.755
 9437POPC   C3B50085   6.751  39.815   7.055
 9437POPC   C4B50086   6.780  39.837   7.355
 9438POPC   NC350087  10.541  12.055   5.555
 9438POPC   PO450088  10.532  12.106   5.855
 9438POPC   GL150089  10.528  12.085   6.155
 9438POPC   GL250090  10.481  11.929   6.155
 9438POPC   C1A50091  10.489  12.064   6.455
 9438POPC   D2A50092  10.560  12.058   6.755
 9438POPC   C3A50093  10.516  12.040   7.055
 9438POPC   C4A50094  10.570  12.084   7.355
 9438POPC   C1B50095  10.411  11.802   6.455
 9438POPC   C2B50096  10.429  11.856   6.755
 9438POPC   C3B50097  10.395  11.867   7.055
 9438POPC   C4B50098  10.396  11.840   7.355
 9439POPC   NC350099  18.320  11.286   5.555
 9439POPC   PO450100  18.263  11.327   5.855
 9439POPC   GL150101  18.238  11.307   6.155
 9439POPC   GL250102  18.372  11.420   6.155
 9439POPC   C1A50103  18.274  11.350   6.455
 9439POPC   D2A50104  18.328  11.283   6.755
 9439POPC   C3A50105  18.285  11.268   7.055
 9439POPC   C4A50106  18.269  11.296   7.355
 9439POPC   C1B50107  18.461  11.529   6.455
 9439POPC   C2B50108  18.387  11.516   6.755
 9439POPC   C3B50109  18.415  11.476   7.055
 9439POPC   C4B50110  18.438  11.548   7.355
 9440POPC   NC350111  15.220   7.376   5.555
 9440POPC   PO450112  15.191   7.427   5.855
 9440POPC   GL150113  15.160   7.396   6.155
 9440POPC   GL250114  15.100   7.416   6.155
 9440POPC   C1A50115  15.219   7.387   6.455
 9440POPC   D2A50116  15.163   7.401   6.755
 9440POPC   C3A50117  15.134   7.382   7.055
 9440POPC   C4A50118  15.145   7.417   7.355
 9440POPC   C1B50119  14.915   7.431   6.455
 9440POPC   C2B50120  14.914   7.446   6.755
 9440POPC   C3B50121  14.923   7.413   7.055
 9440POPC   C4B50122  14.926   7.430   7.355
 9441POPC   NC350123  23.683  38.419   5.555
 9441POPC   PO450124  23.755  38.465   5.855
 9441POPC   GL150125  23.713  38.454   6.155
 9441POPC   GL250126  23.805  38.521   6.155
 9441POPC   C1A50127  23.671  38.475   6.455
 9441POPC   D2A50128  23.738  38.487   6.755
 9441POPC   C3A50129  23.676  38.468   7.055
 9441POPC   C4A50130  23.703  38.500   7.355
 9441POPC   C1B50131  23.843  38.679   6.455
 9441POPC   C2B50132  23.880  38.648   6.755
 9441POPC   C3B50133  23.879  38.646   7.055
 9441POPC   C4B50134  23.905  38.672   7.355
 9442POPC   NC350135  44.701   3.497   5.555
 9442POPC   PO450136  44.630   3.571   5.855
 9442POPC   GL150137  44.697   3.529   6.155
 9442POPC   GL250138  44.832   3.525   6.155
 9442POPC   C1A50139  44.683   3.511   6.455
 9442POPC   D2A50140  44.702   3.519   6.755
 9442POPC   C3A50141  44.702   3.503   7.055
 9442POPC   C4A50142  44.660   3.560   7.355
 9442POPC   C1B50143  44.860   3.652   6.455
 9442POPC   C2B50144  44.867   3.594   6.755
 9442POPC   C3B50145  44.930   3.564   7.055
 9442POPC   C4B50146  44.946   3.599   7.355
 9443POPC   NC350147  26.857  36.938   5.555
 9443POPC   PO450148  26.842  36.856   5.855
 9443POPC   GL150149  26.855  36.938   6.155
 9443POPC   GL250150  26.698  36.792   6.155
 9443POPC   C1A50151  26.813  36.918   6.455
 9443POPC   D2A50152  26.797  36.927   6.755
 9443POPC   C3A50153  26.787  36.913   7.055
 9443POPC   C4A50154  26.867  36.907   7.355
 9443POPC   C1B50155  26.667  36.738   6.455
 9443POPC   C2B50156  26.591  36.688   6.755
 9443POPC   C3B50157  26.600  36.739   7.055
 9443POPC   C4B50158  26.646  36.781   7.355
 9444POPC   NC350159   0.412  10.538   5.555
 9444POPC   PO450160   0.435  10.558   5.855
 9444POPC   GL150161   0.458  10.480   6.155
 9444POPC   GL250162   0.297  10.472   6.155
 9444POPC   C1A50163   0.425  10.493   6.455
 9444POPC   D2A50164   0.425  10.561   6.755
 9444POPC   C3A50165   0.433  10.507   7.055
 9444POPC   C4A50166   0.415  10.492   7.355
 9444POPC   C1B50167   0.198  10.464   6.455
 9444POPC   C2B50168   0.223  10.501   6.755
 9444POPC   C3B50169   0.224  10.499   7.055
 9444POPC   C4B50170   0.208  10.464   7.355
 9445POPC   NC350171  19.067   8.209   5.555
 9445POPC   PO450172  19.074   8.221   5.855
 9445POPC   GL150173  19.092   8.170   6.155
 9445POPC   GL250174  18.992   8.303   6.155
 9445POPC   C1A50175  19.019   8.152   6.455
 9445POPC   D2A50176  19.014   8.185   6.755
 9445POPC   C3A50177  19.086   8.231   7.055
 9445POPC   C4A50178  19.057   8.238   7.355
 9445POPC   C1B50179  18.823   8.305   6.455
 9445POPC   C2B50180  18.828   8.306   6.755
 9445POPC   C3B50181  18.838   8.347   7.055
 9445POPC   C4B50182  18.848   8.378   7.355
 9446POPC   NC350183   1.944  17.515   5.555
 9446POPC   PO450184   1.965  17.520   5.855
 9446POPC   GL150185   1.996  17.474   6.155
 9446POPC   GL250186   1.860  17.623   6.155
 9446POPC   C1A50187   1.953  17.464   6.455
 9446POPC   D2A50188   2.002  17.499   6.755
 9446POPC   C3A50189   2.030  17.485   7.055
 9446POPC   C4A50190   1.976  17.533   7.355
 9446POPC   C1B50191   1.829  17.694   6.455
 9446POPC   C2B50192   1.866  17.706   6.755
 9446POPC   C3B50193   1.785  17.735   7.055
 9446POPC   C4B50194   1.819  17.696   7.355
 9447POPC   NC350195   6.632   2.033   5.555
 9447POPC   PO450196   6.673   2.004   5.855
 9447POPC   GL150197   6.610   2.002   6.155
 9447POPC   GL250198   6.753   2.138   6.155
 9447POPC   C1A50199   6.658   2.025   6.455
 9447POPC   D2A50200   6.613   2.006   6.755
 9447POPC   C3A50201   6.691   1.977   7.055
 9447POPC   C4A50202   6.647   2.029   7.355
 9447POPC   C1B50203   6.817   2.238   6.455
 9447POPC   C2B50204   6.769   2.226   6.755
 9447POPC   C3B50205   6.769   2.222   7.055
 9447POPC   C4B50206   6.756   2.141   7.355
 9448POPC   NC350207  20.570  26.054   5.555
 9448POPC   PO450208  20.590  26.063   5.855
 9448POPC   GL150209  20.612  26.019   6.155
 9448POPC   GL250210  20.655  25.945   6.155
 9448POPC   C1A50211  20.591  25.997   6.455
 9448POPC   D2A50212  20.628  26.028   6.755
 9448POPC   C3A50213  20.629  26.057   7.055
 9448POPC   C4A50214  20.587  26.069   7.355
 9448POPC   C1B50215  20.806  25.836   6.455
 9448POPC   C2B50216  20.832  25.876   6.755
 9448POPC   C3B50217  20.796  25.891   7.055
 9448POPC   C4B50218  20.752  25.857   7.355
 9449POPC   NC350219   4.278  34.601   5.555
 9449POPC   PO450220   4.330  34.595   5.855
 9449POPC   GL150221   4.336  34.564   6.155
 9449POPC   GL250222   4.233  34.646   6.155
 9449POPC   C1A50223   4.282  34.571   6.455
 9449POPC   D2A50224   4.309  34.592   6.755
 9449POPC   C3A50225   4.366  34.598   7.055
 9449POPC   C4A50226   4.321  34.565   7.355
 9449POPC   C1B50227   4.266  34.798   6.455
 9449POPC   C2B50228   4.232  34.785   6.755
 9449POPC   C3B50229   4.179  34.764   7.055
 9449POPC   C4B50230   4.241  34.769   7.355
 9450POPC   NC350231  20.627  10.491   5.555
 9450POPC   PO450232  20.628  10.520   5.855
 9450POPC   GL150233  20.647  10.540   6.155
 9450POPC   GL250234  20.746  10.630   6.155
 9450POPC   C1A50235  20.630  10.525   6.455
 9450POPC   D2A50236  20.591  10.545   6.755
 9450POPC   C3A50237  20.614  10.481   7.055
 9450POPC   C4A50238  20.639  10.499   7.355
 9450POPC   C1B50239  20.842  10.625   6.455
 9450POPC   C2B50240  20.826  10.701   6.755
 9450POPC   C3B50241  20.828  10.670   7.055
 9450POPC   C4B50242  20.839  10.668   7.355
 9451POPC   NC350243  37.682  43.890   5.555
 9451POPC   PO450244  37.656  43.925   5.855
 9451POPC   GL150245  37.707  43.862   6.155
 9451POPC   GL250246  37.779  43.962   6.155
 9451POPC   C1A50247  37.689  43.840   6.455
 9451POPC   D2A50248  37.680  43.911   6.755
 9451POPC   C3A50249  37.646  43.903   7.055
 9451POPC   C4A50250  37.662  43.848   7.355
 9451POPC   C1B50251  37.772  44.079   6.455
 9451POPC   C2B50252  37.781  44.121   6.755
 9451POPC   C3B50253  37.809  44.139   7.055
 9451POPC   C4B50254  37.828  44.123   7.355
 9452POPC   NC350255  34.581  21.355   5.555
 9452POPC   PO450256  34.544  21.341   5.855
 9452POPC   GL150257  34.607  21.351   6.155
 9452POPC   GL250258  34.463  21.452   6.155
 9452POPC   C1A50259  34.546  21.416   6.455
 9452POPC   D2A50260  34.608  21.409   6.755
 9452POPC   C3A50261  34.618  21.420   7.055
 9452POPC   C4A50262  34.572  21.434   7.355
 9452POPC   C1B50263  34.433  21.587   6.455
 9452POPC   C2B50264  34.450  21.520   6.755
 9452POPC   C3B50265  34.371  21.589   7.055
 9452POPC   C4B50266  34.392  21.605   7.355
 9453POPC   NC350267  38.484  25.275   5.555
 9453POPC   PO450268  38.411  25.258   5.855
 9453POPC   GL150269  38.478  25.260   6.155
 9453POPC   GL250270  38.309  25.297   6.155
 9453POPC   C1A50271  38.418  25.239   6.455
 9453POPC   D2A50272  38.488  25.252   6.755
 9453POPC   C3A50273  38.493  25.219   7.055
 9453POPC   C4A50274  38.466  25.262   7.355
 9453POPC   C1B50275  38.186  25.342   6.455
 9453POPC   C2B50276  38.161  25.328   6.755
 9453POPC   C3B50277  38.181  25.362   7.055
 9453POPC   C4B50278  38.251  25.289   7.355
 9454POPC   NC350279  29.102  10.573   5.555
 9454POPC   PO450280  29.136  10.564   5.855
 9454POPC   GL150281  29.102  10.522   6.155
 9454POPC   GL250282  28.996  10.522   6.155
 9454POPC   C1A50283  29.135  10.570   6.455
 9454POPC   D2A50284  29.129  10.526   6.755
 9454POPC   C3A50285  29.184  10.510   7.055
 9454POPC   C4A50286  29.104  10.526   7.355
 9454POPC   C1B50287  28.896  10.501   6.455
 9454POPC   C2B50288  28.859  10.472   6.755
 9454POPC   C3B50289  28.851  10.546   7.055
 9454POPC   C4B50290  28.877  10.537   7.355
 9455POPC   NC350291  23.727  39.964   5.555
 9455POPC   PO450292  23.689  40.006   5.855
 9455POPC   GL150293  23.750  40.029   6.155
 9455POPC   GL250294  23.616  40.083   6.155
 9455POPC   C1A50295  23.696  40.013   6.455
 9455POPC   D2A50296  23.757  39.973   6.755
 9455POPC   C3A50297  23.689  39.962   7.055
 9455POPC   C4A50298  23.726  39.974   7.355
 9455POPC   C1B50299  23.487  40.168   6.455
 9455POPC   C2B50300  23.541  40.150   6.755
 9455POPC   C3B50301  23.488  40.143   7.055
 9455POPC   C4B50302  23.508  40.111   7.355
 9456POPC   NC350303  40.799  20.594   5.555
 9456POPC   PO450304  40.767  20.638   5.855
 9456POPC   GL150305  40.742  20.613   6.155
 9456POPC   GL250306  40.804  20.688   6.155
 9456POPC   C1A50307  40.810  20.614   6.455
 9456POPC   D2A50308  40.761  20.599   6.755
 9456POPC   C3A50309  40.742  20.626   7.055
 9456POPC   C4A50310  40.808  20.651   7.355
 9456POPC   C1B50311  40.820  20.895   6.455
 9456POPC   C2B50312  40.730  20.842   6.755
 9456POPC   C3B50313  40.811  20.877   7.055
 9456POPC   C4B50314  40.815  20.866   7.355
 9457POPC   NC350315  18.303  15.172   5.555
 9457POPC   PO450316  18.257  15.145   5.855
 9457POPC   GL150317  18.307  15.173   6.155
 9457POPC   GL250318  18.173  15.143   6.155
 9457POPC   C1A50319  18.268  15.144   6.455
 9457POPC   D2A50320  18.269  15.170   6.755
 9457POPC   C3A50321  18.240  15.155   7.055
 9457POPC   C4A50322  18.247  15.176   7.355
 9457POPC   C1B50323  18.038  15.082   6.455
 9457POPC   C2B50324  18.058  15.117   6.755
 9457POPC   C3B50325  18.046  15.135   7.055
 9457POPC   C4B50326  18.033  15.120   7.355
 9458POPC   NC350327  43.867   1.263   5.555
 9458POPC   PO450328  43.919   1.220   5.855
 9458POPC   GL150329  43.850   1.200   6.155
 9458POPC   GL250330  43.973   1.297   6.155
 9458POPC   C1A50331  43.913   1.218   6.455
 9458POPC   D2A50332  43.871   1.246   6.755
 9458POPC   C3A50333  43.870   1.178   7.055
 9458POPC   C4A50334  43.926   1.223   7.355
 9458POPC   C1B50335  44.024   1.442   6.455
 9458POPC   C2B50336  43.956   1.428   6.755
 9458POPC   C3B50337  44.012   1.455   7.055
 9458POPC   C4B50338  44.029   1.411   7.355
 9459POPC   NC350339  44.612  33.795   5.555
 9459POPC   PO450340  44.627  33.813   5.855
 9459POPC   GL150341  44.628  33.805   6.155
 9459POPC   GL250342  44.648  33.672   6.155
 9459POPC   C1A50343  44.633  33.783   6.455
 9459POPC   D2A50344  44.667  33.823   6.755
 9459POPC   C3A50345  44.697  33.755   7.055
 9459POPC   C4A50346  44.649  33.828   7.355
 9459POPC   C1B50347  44.674  33.589   6.455
 9459POPC   C2B50348  44.765  33.511   6.755
 9459POPC   C3B50349  44.722  33.570   7.055
 9459POPC   C4B50350  44.765  33.527   7.355
 9460POPC   NC350351  24.507  37.657   5.555
 9460POPC   PO450352  24.486  37.642   5.855
 9460POPC   GL150353  24.440  37.656   6.155
 9460POPC   GL250354  24.422  37.712   6.155
 9460POPC   C1A50355  24.485  37.714   6.455
 9460POPC   D2A50356  24.520  37.659   6.755
 9460POPC   C3A50357  24.473  37.675   7.055
 9460POPC   C4A50358  24.511  37.639   7.355
 9460POPC   C1B50359  24.299  37.792   6.455
 9460POPC   C2B50360  24.252  37.794   6.755
 9460POPC   C3B50361  24.275  37.741   7.055
 9460POPC   C4B50362  24.288  37.744   7.355
 9461POPC   NC350363  22.890  27.632   5.555
 9461POPC   PO450364  22.941  27.606   5.855
 9461POPC   GL150365  22.891  27.552   6.155
 9461POPC   GL250366  22.780  27.532   6.155
 9461POPC   C1A50367  22.903  27.603   6.455
 9461POPC   D2A50368  22.932  27.556   6.755
 9461POPC   C3A50369  22.921  27.592   7.055
 9461POPC   C4A50370  22.948  27.570   7.355
 9461POPC   C1B50371  22.720  27.572   6.455
 9461POPC   C2B50372  22.679  27.571   6.755
 9461POPC   C3B50373  22.664  27.493   7.055
 9461POPC   C4B50374  22.741  27.584   7.355
 9462POPC   NC350375   5.050  10.554   5.555
 9462POPC   PO450376   5.074  10.516   5.855
 9462POPC   GL150377   5.099  10.537   6.155
 9462POPC   GL250378   5.160  10.463   6.155
 9462POPC   C1A50379   5.046  10.506   6.455
 9462POPC   D2A50380   5.054  10.483   6.755
 9462POPC   C3A50381   5.125  10.527   7.055
 9462POPC   C4A50382   5.134  10.572   7.355
 9462POPC   C1B50383   5.306  10.390   6.455
 9462POPC   C2B50384   5.283  10.388   6.755
 9462POPC   C3B50385   5.237  10.316   7.055
 9462POPC   C4B50386   5.265  10.315   7.355
 9463POPC   NC350387  40.749   8.241   5.555
 9463POPC   PO450388  40.777   8.208   5.855
 9463POPC   GL150389  40.813   8.184   6.155
 9463POPC   GL250390  40.864   8.343   6.155
 9463POPC   C1A50391  40.785   8.172   6.455
 9463POPC   D2A50392  40.752   8.149   6.755
 9463POPC   C3A50393  40.815   8.238   7.055
 9463POPC   C4A50394  40.774   8.147   7.355
 9463POPC   C1B50395  40.876   8.441   6.455
 9463POPC   C2B50396  40.841   8.472   6.755
 9463POPC   C3B50397  40.837   8.478   7.055
 9463POPC   C4B50398  40.807   8.388   7.355
 9464POPC   NC350399  24.502  31.431   5.555
 9464POPC   PO450400  24.474  31.445   5.855
 9464POPC   GL150401  24.529  31.449   6.155
 9464POPC   GL250402  24.518  31.344   6.155
 9464POPC   C1A50403  24.498  31.441   6.455
 9464POPC   D2A50404  24.497  31.488   6.755
 9464POPC   C3A50405  24.495  31.486   7.055
 9464POPC   C4A50406  24.483  31.449   7.355
 9464POPC   C1B50407  24.492  31.192   6.455
 9464POPC   C2B50408  24.444  31.178   6.755
 9464POPC   C3B50409  24.442  31.225   7.055
 9464POPC   C4B50410  24.510  31.232   7.355
 9465POPC   NC350411  12.039   2.752   5.555
 9465POPC   PO450412  12.097   2.729   5.855
 9465POPC   GL150413  12.122   2.791   6.155
 9465POPC   GL250414  12.070   2.631   6.155
 9465POPC   C1A50415  12.095   2.786   6.455
 9465POPC   D2A50416  12.107   2.750   6.755
 9465POPC   C3A50417  12.042   2.733   7.055
 9465POPC   C4A50418  12.046   2.733   7.355
 9465POPC   C1B50419  12.017   2.538   6.455
 9465POPC   C2B50420  12.077   2.514   6.755
 9465POPC   C3B50421  12.065   2.553   7.055
 9465POPC   C4B50422  12.041   2.525   7.355
 9466POPC   NC350423  34.550   9.736   5.555
 9466POPC   PO450424  34.620   9.767   5.855
 9466POPC   GL150425  34.567   9.707   6.155
 9466POPC   GL250426  34.626   9.800   6.155
 9466POPC   C1A50427  34.594   9.777   6.455
 9466POPC   D2A50428  34.621   9.711   6.755
 9466POPC   C3A50429  34.551   9.739   7.055
 9466POPC   C4A50430  34.547   9.710   7.355
 9466POPC   C1B50431  34.784   9.891   6.455
 9466POPC   C2B50432  34.750   9.880   6.755
 9466POPC   C3B50433  34.719   9.954   7.055
 9466POPC   C4B50434  34.739   9.941   7.355
 9467POPC   NC350435  12.862  19.024   5.555
 9467POPC   PO450436  12.827  19.013   5.855
 9467POPC   GL150437  12.824  19.093   6.155
 9467POPC   GL250438  12.925  19.187   6.155
 9467POPC   C1A50439  12.895  19.058   6.455
 9467POPC   D2A50440  12.872  19.047   6.755
 9467POPC   C3A50441  12.892  19.074   7.055
 9467POPC   C4A50442  12.843  19.062   7.355
 9467POPC   C1B50443  12.954  19.311   6.455
 9467POPC   C2B50444  12.961  19.275   6.755
 9467POPC   C3B50445  13.010  19.256   7.055
 9467POPC   C4B50446  12.976  19.229   7.355
 9468POPC   NC350447  40.020   3.529   5.555
 9468POPC   PO450448  40.056   3.551   5.855
 9468POPC   GL150449  40.001   3.501   6.155
 9468POPC   GL250450  39.900   3.646   6.155
 9468POPC   C1A50451  40.000   3.531   6.455
 9468POPC   D2A50452  40.034   3.545   6.755
 9468POPC   C3A50453  40.049   3.573   7.055
 9468POPC   C4A50454  39.980   3.568   7.355
 9468POPC   C1B50455  39.762   3.613   6.455
 9468POPC   C2B50456  39.777   3.701   6.755
 9468POPC   C3B50457  39.830   3.677   7.055
 9468POPC   C4B50458  39.794   3.706   7.355
 9469POPC   NC350459  42.335  43.853   5.555
 9469POPC   PO450460  42.307  43.870   5.855
 9469POPC   GL150461  42.334  43.931   6.155
 9469POPC   GL250462  42.184  43.921   6.155
 9469POPC   C1A50463  42.298  43.873   6.455
 9469POPC   D2A50464  42.368  43.857   6.755
 9469POPC   C3A50465  42.383  43.897   7.055
 9469POPC   C4A50466  42.348  43.863   7.355
 9469POPC   C1B50467  42.104  43.963   6.455
 9469POPC   C2B50468  42.094  43.947   6.755
 9469POPC   C3B50469  42.097  43.989   7.055
 9469POPC   C4B50470  42.073  43.935   7.355
 9470POPC   NC350471   5.835  40.767   5.555
 9470POPC   PO450472   5.909  40.741   5.855
 9470POPC   GL150473   5.887  40.762   6.155
 9470POPC   GL250474   5.769  40.824   6.155
 9470POPC   C1A50475   5.846  40.777   6.455
 9470POPC   D2A50476   5.870  40.774   6.755
 9470POPC   C3A50477   5.898  40.766   7.055
 9470POPC   C4A50478   5.890  40.765   7.355
 9470POPC   C1B50479   5.649  40.896   6.455
 9470POPC   C2B50480   5.648  40.953   6.755
 9470POPC   C3B50481   5.645  40.928   7.055
 9470POPC   C4B50482   5.633  40.885   7.355
 9471POPC   NC350483   0.477   7.453   5.555
 9471POPC   PO450484   0.439   7.416   5.855
 9471POPC   GL150485   0.459   7.383   6.155
 9471POPC   GL250486   0.567   7.447   6.155
 9471POPC   C1A50487   0.470   7.461   6.455
 9471POPC   D2A50488   0.477   7.429   6.755
 9471POPC   C3A50489   0.469   7.463   7.055
 9471POPC   C4A50490   0.459   7.428   7.355
 9471POPC   C1B50491   0.735   7.475   6.455
 9471POPC   C2B50492   0.708   7.456   6.755
 9471POPC   C3B50493   0.700   7.457   7.055
 9471POPC   C4B50494   0.692   7.386   7.355
 9472POPC   NC350495   3.552   4.321   5.555
 9472POPC   PO450496   3.548   4.301   5.855
 9472POPC   GL150497   3.578   4.334   6.155
 9472POPC   GL250498   3.653   4.292   6.155
 9472POPC   C1A50499   3.523   4.298   6.455
 9472POPC   D2A50500   3.573   4.360   6.755
 9472POPC   C3A50501   3.541   4.320   7.055
 9472POPC   C4A50502   3.587   4.318   7.355
 9472POPC   C1B50503   3.801   4.271   6.455
 9472POPC   C2B50504   3.832   4.282   6.755
 9472POPC   C3B50505   3.799   4.243   7.055
 9472POPC   C4B50506   3.797   4.233   7.355
 9473POPC   NC350507  17.530  37.715   5.555
 9473POPC   PO450508  17.541  37.715   5.855
 9473POPC   GL150509  17.541  37.664   6.155
 9473POPC   GL250510  17.395  37.592   6.155
 9473POPC   C1A50511  17.506  37.684   6.455
 9473POPC   D2A50512  17.474  37.633   6.755
 9473POPC   C3A50513  17.478  37.677   7.055
 9473POPC   C4A50514  17.548  37.674   7.355
 9473POPC   C1B50515  17.244  37.548   6.455
 9473POPC   C2B50516  17.315  37.596   6.755
 9473POPC   C3B50517  17.314  37.582   7.055
 9473POPC   C4B50518  17.249  37.528   7.355
 9474POPC   NC350519  26.000  40.024   5.555
 9474POPC   PO450520  26.071  39.970   5.855
 9474POPC   GL150521  26.077  39.958   6.155
 9474POPC   GL250522  26.184  39.952   6.155
 9474POPC   C1A50523  26.088  39.980   6.455
 9474POPC   D2A50524  26.016  39.995   6.755
 9474POPC   C3A50525  26.082  39.982   7.055
 9474POPC   C4A50526  26.014  40.040   7.355
 9474POPC   C1B50527  26.214  39.839   6.455
 9474POPC   C2B50528  26.249  39.883   6.755
 9474POPC   C3B50529  26.204  39.821   7.055
 9474POPC   C4B50530  26.227  39.857   7.355
 9475POPC   NC350531  18.316  32.286   5.555
 9475POPC   PO450532  18.255  32.266   5.855
 9475POPC   GL150533  18.299  32.293   6.155
 9475POPC   GL250534  18.391  32.328   6.155
 9475POPC   C1A50535  18.280  32.256   6.455
 9475POPC   D2A50536  18.317  32.250   6.755
 9475POPC   C3A50537  18.294  32.287   7.055
 9475POPC   C4A50538  18.326  32.241   7.355
 9475POPC   C1B50539  18.467  32.441   6.455
 9475POPC   C2B50540  18.433  32.471   6.755
 9475POPC   C3B50541  18.471  32.454   7.055
 9475POPC   C4B50542  18.420  32.435   7.355
 9476POPC   NC350543   6.674  27.594   5.555
 9476POPC   PO450544   6.646  27.603   5.855
 9476POPC   GL150545   6.672  27.597   6.155
 9476POPC   GL250546   6.774  27.612   6.155
 9476POPC   C1A50547   6.630  27.587   6.455
 9476POPC   D2A50548   6.648  27.592   6.755
 9476POPC   C3A50549   6.651  27.627   7.055
 9476POPC   C4A50550   6.673  27.618   7.355
 9476POPC   C1B50551   6.901  27.654   6.455
 9476POPC   C2B50552   6.934  27.619   6.755
 9476POPC   C3B50553   6.935  27.644   7.055
 9476POPC   C4B50554   6.872  27.618   7.355
 9477POPC   NC350555  26.858   5.075   5.555
 9477POPC   PO450556  26.809   5.117   5.855
 9477POPC   GL150557  26.848   5.140   6.155
 9477POPC   GL250558  26.669   5.139   6.155
 9477POPC   C1A50559  26.776   5.091   6.455
 9477POPC   D2A50560  26.782   5.140   6.755
 9477POPC   C3A50561  26.798   5.069   7.055
 9477POPC   C4A50562  26.815   5.096   7.355
 9477POPC   C1B50563  26.549   5.174   6.455
 9477POPC   C2B50564  26.536   5.125   6.755
 9477POPC   C3B50565  26.618   5.166   7.055
 9477POPC   C4B50566  26.604   5.188   7.355
 9478POPC   NC350567   7.419  25.270   5.555
 9478POPC   PO450568   7.410  25.248   5.855
 9478POPC   GL150569   7.459  25.225   6.155
 9478POPC   GL250570   7.456  25.348   6.155
 9478POPC   C1A50571   7.408  25.277   6.455
 9478POPC   D2A50572   7.431  25.285   6.755
 9478POPC   C3A50573   7.377  25.313   7.055
 9478POPC   C4A50574   7.416  25.270   7.355
 9478POPC   C1B50575   7.498  25.514   6.455
 9478POPC   C2B50576   7.498  25.508   6.755
 9478POPC   C3B50577   7.541  25.501   7.055
 9478POPC   C4B50578   7.554  25.495   7.355
 9479POPC   NC350579  18.295  21.371   5.555
 9479POPC   PO450580  18.254  21.336   5.855
 9479POPC   GL150581  18.288  21.422   6.155
 9479POPC   GL250582  18.277  21.484   6.155
 9479POPC   C1A50583  18.266  21.367   6.455
 9479POPC   D2A50584  18.311  21.434   6.755
 9479POPC   C3A50585  18.290  21.363   7.055
 9479POPC   C4A50586  18.300  21.353   7.355
 9479POPC   C1B50587  18.291  21.632   6.455
 9479POPC   C2B50588  18.275  21.660   6.755
 9479POPC   C3B50589  18.213  21.643   7.055
 9479POPC   C4B50590  18.203  21.596   7.355
 9480POPC   NC350591   4.289  32.290   5.555
 9480POPC   PO450592   4.283  32.261   5.855
 9480POPC   GL150593   4.276  32.283   6.155
 9480POPC   GL250594   4.422  32.302   6.155
 9480POPC   C1A50595   4.352  32.216   6.455
 9480POPC   D2A50596   4.343  32.262   6.755
 9480POPC   C3A50597   4.333  32.205   7.055
 9480POPC   C4A50598   4.367  32.210   7.355
 9480POPC   C1B50599   4.530  32.358   6.455
 9480POPC   C2B50600   4.547  32.400   6.755
 9480POPC   C3B50601   4.556  32.357   7.055
 9480POPC   C4B50602   4.538  32.413   7.355
 9481POPC   NC350603  15.929  19.069   5.555
 9481POPC   PO450604  15.907  19.084   5.855
 9481POPC   GL150605  15.964  19.090   6.155
 9481POPC   GL250606  15.928  18.970   6.155
 9481POPC   C1A50607  15.918  19.064   6.455
 9481POPC   D2A50608  15.915  19.028   6.755
 9481POPC   C3A50609  15.957  19.104   7.055
 9481POPC   C4A50610  15.991  19.062   7.355
 9481POPC   C1B50611  15.924  18.789   6.455
 9481POPC   C2B50612  15.942  18.810   6.755
 9481POPC   C3B50613  15.934  18.845   7.055
 9481POPC   C4B50614  15.923  18.772   7.355
 9482POPC   NC350615  10.510  25.311   5.555
 9482POPC   PO450616  10.536  25.278   5.855
 9482POPC   GL150617  10.544  25.285   6.155
 9482POPC   GL250618  10.670  25.160   6.155
 9482POPC   C1A50619  10.527  25.307   6.455
 9482POPC   D2A50620  10.495  25.235   6.755
 9482POPC   C3A50621  10.551  25.298   7.055
 9482POPC   C4A50622  10.517  25.233   7.355
 9482POPC   C1B50623  10.689  25.146   6.455
 9482POPC   C2B50624  10.712  25.120   6.755
 9482POPC   C3B50625  10.758  25.098   7.055
 9482POPC   C4B50626  10.719  25.159   7.355
 9483POPC   NC350627  24.516  11.287   5.555
 9483POPC   PO450628  24.531  11.342   5.855
 9483POPC   GL150629  24.474  11.306   6.155
 9483POPC   GL250630  24.327  11.282   6.155
 9483POPC   C1A50631  24.516  11.309   6.455
 9483POPC   D2A50632  24.495  11.285   6.755
 9483POPC   C3A50633  24.469  11.315   7.055
 9483POPC   C4A50634  24.522  11.304   7.355
 9483POPC   C1B50635  24.277  11.222   6.455
 9483POPC   C2B50636  24.207  11.261   6.755
 9483POPC   C3B50637  24.270  11.260   7.055
 9483POPC   C4B50638  24.203  11.284   7.355
 9484POPC   NC350639  10.486  40.778   5.555
 9484POPC   PO450640  10.565  40.749   5.855
 9484POPC   GL150641  10.541  40.807   6.155
 9484POPC   GL250642  10.482  40.659   6.155
 9484POPC   C1A50643  10.530  40.775   6.455
 9484POPC   D2A50644  10.559  40.738   6.755
 9484POPC   C3A50645  10.516  40.792   7.055
 9484POPC   C4A50646  10.508  40.754   7.355
 9484POPC   C1B50647  10.391  40.641   6.455
 9484POPC   C2B50648  10.331  40.645   6.755
 9484POPC   C3B50649  10.400  40.636   7.055
 9484POPC   C4B50650  10.368  40.595   7.355
 9485POPC   NC350651  22.897   5.905   5.555
 9485POPC   PO450652  22.935   5.851   5.855
 9485POPC   GL150653  22.911   5.825   6.155
 9485POPC   GL250654  23.008   5.779   6.155
 9485POPC   C1A50655  22.956   5.834   6.455
 9485POPC   D2A50656  22.986   5.890   6.755
 9485POPC   C3A50657  22.938   5.876   7.055
 9485POPC   C4A50658  22.918   5.901   7.355
 9485POPC   C1B50659  23.185   5.783   6.455
 9485POPC   C2B50660  23.141   5.798   6.755
 9485POPC   C3B50661  23.183   5.802   7.055
 9485POPC   C4B50662  23.173   5.720   7.355
 9486POPC   NC350663  31.453  42.315   5.555
 9486POPC   PO450664  31.512  42.307   5.855
 9486POPC   GL150665  31.472  42.289   6.155
 9486POPC   GL250666  31.500  42.176   6.155
 9486POPC   C1A50667  31.480  42.354   6.455
 9486POPC   D2A50668  31.427  42.303   6.755
 9486POPC   C3A50669  31.457  42.304   7.055
 9486POPC   C4A50670  31.467  42.364   7.355
 9486POPC   C1B50671  31.556  42.091   6.455
 9486POPC   C2B50672  31.583  42.082   6.755
 9486POPC   C3B50673  31.629  42.060   7.055
 9486POPC   C4B50674  31.571  42.134   7.355
 9487POPC   NC350675  38.476  44.612   5.555
 9487POPC   PO450676  38.415  44.707   5.855
 9487POPC   GL150677  38.503  44.686   6.155
 9487POPC   GL250678  38.549  44.794   6.155
 9487POPC   C1A50679  38.502  44.652   6.455
 9487POPC   D2A50680  38.491  44.663   6.755
 9487POPC   C3A50681  38.408  44.697   7.055
 9487POPC   C4A50682  38.500  44.651   7.355
 9487POPC   C1B50683  38.587  44.820   6.455
 9487POPC   C2B50684  38.613  44.867   6.755
 9487POPC   C3B50685  38.572  44.835   7.055
 9487POPC   C4B50686  38.591  44.848   7.355
 9488POPC   NC350687  20.604   8.154   5.555
 9488POPC   PO450688  20.599   8.232   5.855
 9488POPC   GL150689  20.573   8.244   6.155
 9488POPC   GL250690  20.529   8.196   6.155
 9488POPC   C1A50691  20.654   8.198   6.455
 9488POPC   D2A50692  20.610   8.188   6.755
 9488POPC   C3A50693  20.605   8.194   7.055
 9488POPC   C4A50694  20.600   8.223   7.355
 9488POPC   C1B50695  20.322   8.205   6.455
 9488POPC   C2B50696  20.322   8.244   6.755
 9488POPC   C3B50697  20.343   8.250   7.055
 9488POPC   C4B50698  20.377   8.270   7.355
 9489POPC   NC350699   7.373   0.444   5.555
 9489POPC   PO450700   7.412   0.393   5.855
 9489POPC   GL150701   7.400   0.396   6.155
 9489POPC   GL250702   7.485   0.347   6.155
 9489POPC   C1A50703   7.450   0.409   6.455
 9489POPC   D2A50704   7.422   0.466   6.755
 9489POPC   C3A50705   7.393   0.476   7.055
 9489POPC   C4A50706   7.446   0.438   7.355
 9489POPC   C1B50707   7.545   0.196   6.455
 9489POPC   C2B50708   7.529   0.202   6.755
 9489POPC   C3B50709   7.534   0.234   7.055
 9489POPC   C4B50710   7.541   0.171   7.355
 9490POPC   NC350711  40.048  12.864   5.555
 9490POPC   PO450712  39.988  12.884   5.855
 9490POPC   GL150713  39.985  12.853   6.155
 9490POPC   GL250714  40.006  12.958   6.155
 9490POPC   C1A50715  40.043  12.822   6.455
 9490POPC   D2A50716  39.993  12.856   6.755
 9490POPC   C3A50717  40.054  12.843   7.055
 9490POPC   C4A50718  40.038  12.821   7.355
 9490POPC   C1B50719  39.904  13.098   6.455
 9490POPC   C2B50720  39.968  13.081   6.755
 9490POPC   C3B50721  39.963  13.047   7.055
 9490POPC   C4B50722  39.930  13.109   7.355
 9491POPC   NC350723   7.415   7.426   5.555
 9491POPC   PO450724   7.432   7.398   5.855
 9491POPC   GL150725   7.442   7.444   6.155
 9491POPC   GL250726   7.514   7.536   6.155
 9491POPC   C1A50727   7.432   7.462   6.455
 9491POPC   D2A50728   7.419   7.395   6.755
 9491POPC   C3A50729   7.469   7.402   7.055
 9491POPC   C4A50730   7.375   7.395   7.355
 9491POPC   C1B50731   7.609   7.537   6.455
 9491POPC   C2B50732   7.600   7.611   6.755
 9491POPC   C3B50733   7.636   7.551   7.055
 9491POPC   C4B50734   7.646   7.591   7.355
 9492POPC   NC350735  36.131   8.204   5.555
 9492POPC   PO450736  36.132   8.219   5.855
 9492POPC   GL150737  36.116   8.211   6.155
 9492POPC   GL250738  36.296   8.131   6.155
 9492POPC   C1A50739  36.149   8.162   6.455
 9492POPC   D2A50740  36.135   8.159   6.755
 9492POPC   C3A50741  36.080   8.173   7.055
 9492POPC   C4A50742  36.115   8.238   7.355
 9492POPC   C1B50743  36.385   8.074   6.455
 9492POPC   C2B50744  36.355   8.129   6.755
 9492POPC   C3B50745  36.390   8.156   7.055
 9492POPC   C4B50746  36.350   8.162   7.355
 9493POPC   NC350747  36.940  39.257   5.555
 9493POPC   PO450748  36.865  39.279   5.855
 9493POPC   GL150749  36.865  39.241   6.155
 9493POPC   GL250750  36.838  39.117   6.155
 9493POPC   C1A50751  36.951  39.220   6.455
 9493POPC   D2A50752  36.889  39.236   6.755
 9493POPC   C3A50753  36.855  39.222   7.055
 9493POPC   C4A50754  36.868  39.195   7.355
 9493POPC   C1B50755  36.805  39.059   6.455
 9493POPC   C2B50756  36.805  39.022   6.755
 9493POPC   C3B50757  36.768  39.036   7.055
 9493POPC   C4B50758  36.777  39.022   7.355
 9494POPC   NC350759  23.664  19.104   5.555
 9494POPC   PO450760  23.754  19.030   5.855
 9494POPC   GL150761  23.762  19.027   6.155
 9494POPC   GL250762  23.745  18.972   6.155
 9494POPC   C1A50763  23.743  19.019   6.455
 9494POPC   D2A50764  23.678  19.101   6.755
 9494POPC   C3A50765  23.760  19.055   7.055
 9494POPC   C4A50766  23.699  19.097   7.355
 9494POPC   C1B50767  23.761  18.858   6.455
 9494POPC   C2B50768  23.831  18.835   6.755
 9494POPC   C3B50769  23.774  18.855   7.055
 9494POPC   C4B50770  23.815  18.827   7.355
 9495POPC   NC350771  18.275   3.534   5.555
 9495POPC   PO450772  18.306   3.526   5.855
 9495POPC   GL150773  18.267   3.523   6.155
 9495POPC   GL250774  18.349   3.427   6.155
 9495POPC   C1A50775  18.280   3.552   6.455
 9495POPC   D2A50776  18.283   3.576   6.755
 9495POPC   C3A50777  18.241   3.516   7.055
 9495POPC   C4A50778  18.264   3.536   7.355
 9495POPC   C1B50779  18.398   3.300   6.455
 9495POPC   C2B50780  18.393   3.335   6.755
 9495POPC   C3B50781  18.385   3.376   7.055
 9495POPC   C4B50782  18.385   3.348   7.355
 9496POPC   NC350783  21.371   3.499   5.555
 9496POPC   PO450784  21.347   3.547   5.855
 9496POPC   GL150785  21.346   3.564   6.155
 9496POPC   GL250786  21.282   3.500   6.155
 9496POPC   C1A50787  21.428   3.551   6.455
 9496POPC   D2A50788  21.371   3.543   6.755
 9496POPC   C3A50789  21.346   3.540   7.055
 9496POPC   C4A50790  21.349   3.568   7.355
 9496POPC   C1B50791  21.166   3.459   6.455
 9496POPC   C2B50792  21.173   3.388   6.755
 9496POPC   C3B50793  21.220   3.420   7.055
 9496POPC   C4B50794  21.209   3.428   7.355
 9497POPC   NC350795  29.896  22.901   5.555
 9497POPC   PO450796  29.960  22.986   5.855
 9497POPC   GL150797  29.912  22.933   6.155
 9497POPC   GL250798  30.010  22.854   6.155
 9497POPC   C1A50799  29.968  22.956   6.455
 9497POPC   D2A50800  29.909  22.944   6.755
 9497POPC   C3A50801  29.896  22.913   7.055
 9497POPC   C4A50802  29.951  22.900   7.355
 9497POPC   C1B50803  30.105  22.809   6.455
 9497POPC   C2B50804  30.148  22.801   6.755
 9497POPC   C3B50805  30.094  22.814   7.055
 9497POPC   C4B50806  30.119  22.775   7.355
 9498POPC   NC350807  24.458  29.195   5.555
 9498POPC   PO450808  24.491  29.096   5.855
 9498POPC   GL150809  24.446  29.190   6.155
 9498POPC   GL250810  24.582  29.218   6.155
 9498POPC   C1A50811  24.503  29.149   6.455
 9498POPC   D2A50812  24.493  29.141   6.755
 9498POPC   C3A50813  24.527  29.168   7.055
 9498POPC   C4A50814  24.452  29.174   7.355
 9498POPC   C1B50815  24.601  29.355   6.455
 9498POPC   C2B50816  24.587  29.353   6.755
 9498POPC   C3B50817  24.649  29.312   7.055
 9498POPC   C4B50818  24.587  29.368   7.355
 9499POPC   NC350819  40.798  16.751   5.555
 9499POPC   PO450820  40.767  16.775   5.855
 9499POPC   GL150821  40.801  16.763   6.155
 9499POPC   GL250822  40.894  16.733   6.155
 9499POPC   C1A50823  40.784  16.737   6.455
 9499POPC   D2A50824  40.806  16.765   6.755
 9499POPC   C3A50825  40.770  16.753   7.055
 9499POPC   C4A50826  40.793  16.766   7.355
 9499POPC   C1B50827  41.023  16.645   6.455
 9499POPC   C2B50828  41.038  16.702   6.755
 9499POPC   C3B50829  41.033  16.692   7.055
 9499POPC   C4B50830  40.979  16.665   7.355
 9500POPC   NC350831  40.795   1.215   5.555
 9500POPC   PO450832  40.780   1.196   5.855
 9500POPC   GL150833  40.782   1.232   6.155
 9500POPC   GL250834  40.760   1.118   6.155
 9500POPC   C1A50835  40.741   1.256   6.455
 9500POPC   D2A50836  40.747   1.164   6.755
 9500POPC   C3A50837  40.801   1.183   7.055
 9500POPC   C4A50838  40.771   1.253   7.355
 9500POPC   C1B50839  40.663   0.996   6.455
 9500POPC   C2B50840  40.701   0.969   6.755
 9500POPC   C3B50841  40.634   0.973   7.055
 9500POPC   C4B50842  40.722   0.993   7.355
 9501POPC   NC350843  26.085  20.593   5.555
 9501POPC   PO450844  26.091  20.651   5.855
 9501POPC   GL150845  26.072  20.659   6.155
 9501POPC   GL250846  25.906  20.581   6.155
 9501POPC   C1A50847  26.034  20.579   6.455
 9501POPC   D2A50848  26.082  20.651   6.755
 9501POPC   C3A50849  26.061  20.584   7.055
 9501POPC   C4A50850  26.027  20.567   7.355
 9501POPC   C1B50851  25.830  20.556   6.455
 9501POPC   C2B50852  25.833  20.606   6.755
 9501POPC   C3B50853  25.834  20.556   7.055
 9501POPC   C4B50854  25.751  20.587   7.355
 9502POPC   NC350855  19.048  29.958   5.555
 9502POPC   PO450856  19.030  29.948   5.855
 9502POPC   GL150857  19.063  29.894   6.155
 9502POPC   GL250858  19.123  29.794   6.155
 9502POPC   C1A50859  19.041  29.937   6.455
 9502POPC   D2A50860  19.087  29.935   6.755
 9502POPC   C3A50861  19.013  29.934   7.055
 9502POPC   C4A50862  19.045  29.923   7.355
 9502POPC   C1B50863  19.075  29.725   6.455
 9502POPC   C2B50864  19.109  29.706   6.755
 9502POPC   C3B50865  19.105  29.688   7.055
 9502POPC   C4B50866  19.143  29.662   7.355
 9503POPC   NC350867  35.338  24.481   5.555
 9503POPC   PO450868  35.332  24.478   5.855
 9503POPC   GL150869  35.345  24.472   6.155
 9503POPC   GL250870  35.431  24.520   6.155
 9503POPC   C1A50871  35.339  24.466   6.455
 9503POPC   D2A50872  35.388  24.487   6.755
 9503POPC   C3A50873  35.374  24.512   7.055
 9503POPC   C4A50874  35.369  24.469   7.355
 9503POPC   C1B50875  35.572  24.618   6.455
 9503POPC   C2B50876  35.597  24.633   6.755
 9503POPC   C3B50877  35.539  24.643   7.055
 9503POPC   C4B50878  35.596  24.610   7.355
 9504POPC   NC350879  26.779  33.793   5.555
 9504POPC   PO450880  26.816  33.823   5.855
 9504POPC   GL150881  26.782  33.817   6.155
 9504POPC   GL250882  26.751  33.885   6.155
 9504POPC   C1A50883  26.853  33.824   6.455
 9504POPC   D2A50884  26.857  33.782   6.755
 9504POPC   C3A50885  26.860  33.788   7.055
 9504POPC   C4A50886  26.818  33.826   7.355
 9504POPC   C1B50887  26.679  33.957   6.455
 9504POPC   C2B50888  26.587  33.963   6.755
 9504POPC   C3B50889  26.664  33.988   7.055
 9504POPC   C4B50890  26.603  33.932   7.355
 9505POPC   NC350891  21.342  35.394   5.555
 9505POPC   PO450892  21.426  35.379   5.855
 9505POPC   GL150893  21.393  35.398   6.155
 9505POPC   GL250894  21.387  35.207   6.155
 9505POPC   C1A50895  21.402  35.385   6.455
 9505POPC   D2A50896  21.378  35.336   6.755
 9505POPC   C3A50897  21.431  35.338   7.055
 9505POPC   C4A50898  21.428  35.316   7.355
 9505POPC   C1B50899  21.301  35.153   6.455
 9505POPC   C2B50900  21.336  35.097   6.755
 9505POPC   C3B50901  21.265  35.104   7.055
 9505POPC   C4B50902  21.276  35.138   7.355
 9506POPC   NC350903  36.134   9.739   5.555
 9506POPC   PO450904  36.145   9.732   5.855
 9506POPC   GL150905  36.114   9.750   6.155
 9506POPC   GL250906  36.223   9.804   6.155
 9506POPC   C1A50907  36.146   9.771   6.455
 9506POPC   D2A50908  36.172   9.741   6.755
 9506POPC   C3A50909  36.103   9.736   7.055
 9506POPC   C4A50910  36.130   9.740   7.355
 9506POPC   C1B50911  36.299   9.910   6.455
 9506POPC   C2B50912  36.302   9.894   6.755
 9506POPC   C3B50913  36.360   9.875   7.055
 9506POPC   C4B50914  36.320   9.955   7.355
 9507POPC   NC350915  12.841  25.291   5.555
 9507POPC   PO450916  12.899  25.297   5.855
 9507POPC   GL150917  12.826  25.259   6.155
 9507POPC   GL250918  12.932  25.188   6.155
 9507POPC   C1A50919  12.876  25.238   6.455
 9507POPC   D2A50920  12.883  25.218   6.755
 9507POPC   C3A50921  12.900  25.219   7.055
 9507POPC   C4A50922  12.825  25.306   7.355
 9507POPC   C1B50923  13.056  25.135   6.455
 9507POPC   C2B50924  13.005  25.162   6.755
 9507POPC   C3B50925  13.057  25.104   7.055
 9507POPC   C4B50926  13.030  25.106   7.355
 9508POPC   NC350927  26.086   6.645   5.555
 9508POPC   PO450928  26.063   6.600   5.855
 9508POPC   GL150929  26.034   6.650   6.155
 9508POPC   GL250930  25.986   6.545   6.155
 9508POPC   C1A50931  26.040   6.628   6.455
 9508POPC   D2A50932  26.053   6.637   6.755
 9508POPC   C3A50933  26.033   6.606   7.055
 9508POPC   C4A50934  26.029   6.657   7.355
 9508POPC   C1B50935  25.843   6.478   6.455
 9508POPC   C2B50936  25.866   6.501   6.755
 9508POPC   C3B50937  25.902   6.411   7.055
 9508POPC   C4B50938  25.890   6.415   7.355
 9509POPC   NC350939  22.940  35.372   5.555
 9509POPC   PO450940  22.933  35.349   5.855
 9509POPC   GL150941  22.920  35.399   6.155
 9509POPC   GL250942  22.836  35.286   6.155
 9509POPC   C1A50943  22.985  35.389   6.455
 9509POPC   D2A50944  22.947  35.384   6.755
 9509POPC   C3A50945  22.970  35.345   7.055
 9509POPC   C4A50946  22.942  35.399   7.355
 9509POPC   C1B50947  22.695  35.277   6.455
 9509POPC   C2B50948  22.648  35.346   6.755
 9509POPC   C3B50949  22.674  35.308   7.055
 9509POPC   C4B50950  22.718  35.340   7.355
 9510POPC   NC350951  22.176  37.675   5.555
 9510POPC   PO450952  22.120  37.674   5.855
 9510POPC   GL150953  22.210  37.684   6.155
 9510POPC   GL250954  22.085  37.647   6.155
 9510POPC   C1A50955  22.207  37.658   6.455
 9510POPC   D2A50956  22.140  37.693   6.755
 9510POPC   C3A50957  22.180  37.704   7.055
 9510POPC   C4A50958  22.131  37.681   7.355
 9510POPC   C1B50959  21.951  37.650   6.455
 9510POPC   C2B50960  21.889  37.588   6.755
 9510POPC   C3B50961  21.954  37.645   7.055
 9510POPC   C4B50962  21.965  37.576   7.355
 9511POPC   NC350963  26.832  21.422   5.555
 9511POPC   PO450964  26.865  21.432   5.855
 9511POPC   GL150965  26.814  21.401   6.155
 9511POPC   GL250966  26.737  21.262   6.155
 9511POPC   C1A50967  26.864  21.383   6.455
 9511POPC   D2A50968  26.827  21.358   6.755
 9511POPC   C3A50969  26.781  21.337   7.055
 9511POPC   C4A50970  26.866  21.421   7.355
 9511POPC   C1B50971  26.671  21.192   6.455
 9511POPC   C2B50972  26.603  21.206   6.755
 9511POPC   C3B50973  26.640  21.161   7.055
 9511POPC   C4B50974  26.619  21.226   7.355
 9512POPC   NC350975  22.919  38.463   5.555
 9512POPC   PO450976  22.962  38.474   5.855
 9512POPC   GL150977  22.982  38.461   6.155
 9512POPC   GL250978  23.030  38.444   6.155
 9512POPC   C1A50979  22.925  38.458   6.455
 9512POPC   D2A50980  22.898  38.429   6.755
 9512POPC   C3A50981  22.982  38.472   7.055
 9512POPC   C4A50982  22.958  38.454   7.355
 9512POPC   C1B50983  23.203  38.382   6.455
 9512POPC   C2B50984  23.182  38.399   6.755
 9512POPC   C3B50985  23.233  38.423   7.055
 9512POPC   C4B50986  23.213  38.417   7.355
 9513POPC   NC350987  16.768  35.340   5.555
 9513POPC   PO450988  16.780  35.385   5.855
 9513POPC   GL150989  16.682  35.315   6.155
 9513POPC   GL250990  16.629  35.381   6.155
 9513POPC   C1A50991  16.758  35.309   6.455
 9513POPC   D2A50992  16.744  35.324   6.755
 9513POPC   C3A50993  16.694  35.379   7.055
 9513POPC   C4A50994  16.696  35.368   7.355
 9513POPC   C1B50995  16.520  35.548   6.455
 9513POPC   C2B50996  16.534  35.471   6.755
 9513POPC   C3B50997  16.554  35.527   7.055
 9513POPC   C4B50998  16.516  35.481   7.355
 9514POPC   NC350999   8.243  27.639   5.555
 9514POPC   PO451000   8.186  27.574   5.855
 9514POPC   GL151001   8.164  27.555   6.155
 9514POPC   GL251002   8.122  27.669   6.155
 9514POPC   C1A51003   8.233  27.570   6.455
 9514POPC   D2A51004   8.181  27.552   6.755
 9514POPC   C3A51005   8.201  27.552   7.055
 9514POPC   C4A51006   8.202  27.565   7.355
 9514POPC   C1B51007   7.968  27.703   6.455
 9514POPC   C2B51008   8.018  27.750   6.755
 9514POPC   C3B51009   7.974  27.670   7.055
 9514POPC   C4B51010   8.012  27.727   7.355
 9515POPC   NC351011  28.358  16.720   5.555
 9515POPC   PO451012  28.418  16.737   5.855
 9515POPC   GL151013  28.356  16.755   6.155
 9515POPC   GL251014  28.353  16.905   6.155
 9515POPC   C1A51015  28.350  16.771   6.455
 9515POPC   D2A51016  28.361  16.699   6.755
 9515POPC   C3A51017  28.359  16.728   7.055
 9515POPC   C4A51018  28.351  16.708   7.355
 9515POPC   C1B51019  28.400  17.012   6.455
 9515POPC   C2B51020  28.401  17.021   6.755
 9515POPC   C3B51021  28.396  17.015   7.055
 9515POPC   C4B51022  28.326  16.931   7.355
 9516POPC   NC351023   8.169  31.449   5.555
 9516POPC   PO451024   8.236  31.459   5.855
 9516POPC   GL151025   8.197  31.483   6.155
 9516POPC   GL251026   8.193  31.361   6.155
 9516POPC   C1A51027   8.165  31.467   6.455
 9516POPC   D2A51028   8.156  31.481   6.755
 9516POPC   C3A51029   8.217  31.434   7.055
 9516POPC   C4A51030   8.151  31.471   7.355
 9516POPC   C1B51031   8.215  31.201   6.455
 9516POPC   C2B51032   8.191  31.253   6.755
 9516POPC   C3B51033   8.215  31.223   7.055
 9516POPC   C4B51034   8.253  31.174   7.355
 9517POPC   NC351035  35.397   0.410   5.555
 9517POPC   PO451036  35.320   0.444   5.855
 9517POPC   GL151037  35.336   0.440   6.155
 9517POPC   GL251038  35.232   0.415   6.155
 9517POPC   C1A51039  35.305   0.470   6.455
 9517POPC   D2A51040  35.375   0.408   6.755
 9517POPC   C3A51041  35.337   0.407   7.055
 9517POPC   C4A51042  35.394   0.446   7.355
 9517POPC   C1B51043  35.085   0.327   6.455
 9517POPC   C2B51044  35.118   0.307   6.755
 9517POPC   C3B51045  35.131   0.313   7.055
 9517POPC   C4B51046  35.086   0.291   7.355
 9518POPC   NC351047   7.396   1.945   5.555
 9518POPC   PO451048   7.463   2.019   5.855
 9518POPC   GL151049   7.408   1.999   6.155
 9518POPC   GL251050   7.325   1.896   6.155
 9518POPC   C1A51051   7.447   2.016   6.455
 9518POPC   D2A51052   7.449   1.995   6.755
 9518POPC   C3A51053   7.421   1.975   7.055
 9518POPC   C4A51054   7.465   1.970   7.355
 9518POPC   C1B51055   7.250   1.835   6.455
 9518POPC   C2B51056   7.222   1.870   6.755
 9518POPC   C3B51057   7.225   1.902   7.055
 9518POPC   C4B51058   7.186   1.815   7.355
 9519POPC   NC351059  33.000   5.900   5.555
 9519POPC   PO451060  33.064   5.899   5.855
 9519POPC   GL151061  33.007   5.847   6.155
 9519POPC   GL251062  32.937   5.918   6.155
 9519POPC   C1A51063  33.073   5.823   6.455
 9519POPC   D2A51064  33.061   5.856   6.755
 9519POPC   C3A51065  33.040   5.913   7.055
 9519POPC   C4A51066  33.053   5.883   7.355
 9519POPC   C1B51067  32.891   6.077   6.455
 9519POPC   C2B51068  32.893   6.032   6.755
 9519POPC   C3B51069  32.826   6.103   7.055
 9519POPC   C4B51070  32.894   6.102   7.355
 9520POPC   NC351071  29.189   7.424   5.555
 9520POPC   PO451072  29.152   7.375   5.855
 9520POPC   GL151073  29.175   7.441   6.155
 9520POPC   GL251074  29.254   7.474   6.155
 9520POPC   C1A51075  29.140   7.418   6.455
 9520POPC   D2A51076  29.184   7.410   6.755
 9520POPC   C3A51077  29.156   7.456   7.055
 9520POPC   C4A51078  29.147   7.379   7.355
 9520POPC   C1B51079  29.315   7.567   6.455
 9520POPC   C2B51080  29.344   7.630   6.755
 9520POPC   C3B51081  29.329   7.605   7.055
 9520POPC   C4B51082  29.311   7.618   7.355
 9521POPC   NC351083   1.210   5.140   5.555
 9521POPC   PO451084   1.213   5.048   5.855
 9521POPC   GL151085   1.183   5.060   6.155
 9521POPC   GL251086   1.325   5.049   6.155
 9521POPC   C1A51087   1.221   5.142   6.455
 9521POPC   D2A51088   1.249   5.049   6.755
 9521POPC   C3A51089   1.166   5.136   7.055
 9521POPC   C4A51090   1.217   5.054   7.355
 9521POPC   C1B51091   1.477   4.989   6.455
 9521POPC   C2B51092   1.404   5.002   6.755
 9521POPC   C3B51093   1.479   4.952   7.055
 9521POPC   C4B51094   1.463   4.957   7.355
 9522POPC   NC351095  36.176  18.239   5.555
 9522POPC   PO451096  36.125  18.279   5.855
 9522POPC   GL151097  36.102  18.262   6.155
 9522POPC   GL251098  36.083  18.416   6.155
 9522POPC   C1A51099  36.160  18.236   6.455
 9522POPC   D2A51100  36.150  18.319   6.755
 9522POPC   C3A51101  36.175  18.305   7.055
 9522POPC   C4A51102  36.155  18.248   7.355
 9522POPC   C1B51103  36.175  18.550   6.455
 9522POPC   C2B51104  36.088  18.582   6.755
 9522POPC   C3B51105  36.121  18.511   7.055
 9522POPC   C4B51106  36.091  18.571   7.355
 9523POPC   NC351107  32.266  32.201   5.555
 9523POPC   PO451108  32.270  32.252   5.855
 9523POPC   GL151109  32.219  32.218   6.155
 9523POPC   GL251110  32.221  32.136   6.155
 9523POPC   C1A51111  32.263  32.228   6.455
 9523POPC   D2A51112  32.217  32.270   6.755
 9523POPC   C3A51113  32.287  32.263   7.055
 9523POPC   C4A51114  32.207  32.224   7.355
 9523POPC   C1B51115  32.267  32.048   6.455
 9523POPC   C2B51116  32.265  31.964   6.755
 9523POPC   C3B51117  32.176  32.021   7.055
 9523POPC   C4B51118  32.176  31.968   7.355
 9524POPC   NC351119  39.971  35.331   5.555
 9524POPC   PO451120  40.003  35.319   5.855
 9524POPC   GL151121  39.987  35.327   6.155
 9524POPC   GL251122  39.938  35.406   6.155
 9524POPC   C1A51123  40.044  35.325   6.455
 9524POPC   D2A51124  39.985  35.366   6.755
 9524POPC   C3A51125  40.044  35.363   7.055
 9524POPC   C4A51126  40.007  35.340   7.355
 9524POPC   C1B51127  39.767  35.476   6.455
 9524POPC   C2B51128  39.832  35.476   6.755
 9524POPC   C3B51129  39.825  35.478   7.055
 9524POPC   C4B51130  39.792  35.509   7.355
 9525POPC   NC351131  19.053  21.394   5.555
 9525POPC   PO451132  19.098  21.429   5.855
 9525POPC   GL151133  19.086  21.355   6.155
 9525POPC   GL251134  19.023  21.333   6.155
 9525POPC   C1A51135  19.053  21.434   6.455
 9525POPC   D2A51136  19.037  21.385   6.755
 9525POPC   C3A51137  19.014  21.390   7.055
 9525POPC   C4A51138  19.071  21.397   7.355
 9525POPC   C1B51139  18.908  21.205   6.455
 9525POPC   C2B51140  18.957  21.141   6.755
 9525POPC   C3B51141  18.947  21.223   7.055
 9525POPC   C4B51142  18.894  21.167   7.355
 9526POPC   NC351143   6.603  39.230   5.555
 9526POPC   PO451144   6.684  39.241   5.855
 9526POPC   GL151145   6.634  39.236   6.155
 9526POPC   GL251146   6.545  39.290   6.155
 9526POPC   C1A51147   6.661  39.236   6.455
 9526POPC   D2A51148   6.666  39.262   6.755
 9526POPC   C3A51149   6.676  39.187   7.055
 9526POPC   C4A51150   6.622  39.265   7.355
 9526POPC   C1B51151   6.499  39.446   6.455
 9526POPC   C2B51152   6.471  39.406   6.755
 9526POPC   C3B51153   6.482  39.375   7.055
 9526POPC   C4B51154   6.463  39.431   7.355
 9527POPC   NC351155  12.071  10.536   5.555
 9527POPC   PO451156  12.116  10.523   5.855
 9527POPC   GL151157  12.064  10.519   6.155
 9527POPC   GL251158  11.942  10.568   6.155
 9527POPC   C1A51159  12.118  10.481   6.455
 9527POPC   D2A51160  12.097  10.498   6.755
 9527POPC   C3A51161  12.121  10.492   7.055
 9527POPC   C4A51162  12.104  10.505   7.355
 9527POPC   C1B51163  11.836  10.639   6.455
 9527POPC   C2B51164  11.860  10.633   6.755
 9527POPC   C3B51165  11.838  10.611   7.055
 9527POPC   C4B51166  11.835  10.589   7.355
 9528POPC   NC351167  12.809  26.805   5.555
 9528POPC   PO451168  12.863  26.822   5.855
 9528POPC   GL151169  12.840  26.787   6.155
 9528POPC   GL251170  12.936  26.934   6.155
 9528POPC   C1A51171  12.832  26.866   6.455
 9528POPC   D2A51172  12.884  26.786   6.755
 9528POPC   C3A51173  12.856  26.864   7.055
 9528POPC   C4A51174  12.821  26.842   7.355
 9528POPC   C1B51175  12.927  27.056   6.455
 9528POPC   C2B51176  12.931  27.038   6.755
 9528POPC   C3B51177  12.894  27.055   7.055
 9528POPC   C4B51178  12.951  27.038   7.355
 9529POPC   NC351179  35.358  33.847   5.555
 9529POPC   PO451180  35.323  33.809   5.855
 9529POPC   GL151181  35.342  33.832   6.155
 9529POPC   GL251182  35.437  33.784   6.155
 9529POPC   C1A51183  35.356  33.764   6.455
 9529POPC   D2A51184  35.354  33.821   6.755
 9529POPC   C3A51185  35.355  33.777   7.055
 9529POPC   C4A51186  35.346  33.765   7.355
 9529POPC   C1B51187  35.554  33.825   6.455
 9529POPC   C2B51188  35.600  33.854   6.755
 9529POPC   C3B51189  35.565  33.840   7.055
 9529POPC   C4B51190  35.613  33.795   7.355
 9530POPC   NC351191  20.636  18.234   5.555
 9530POPC   PO451192  20.566  18.288   5.855
 9530POPC   GL151193  20.624  18.329   6.155
 9530POPC   GL251194  20.544  18.410   6.155
 9530POPC   C1A51195  20.631  18.333   6.455
 9530POPC   D2A51196  20.560  18.264   6.755
 9530POPC   C3A51197  20.606  18.241   7.055
 9530POPC   C4A51198  20.606  18.292   7.355
 9530POPC   C1B51199  20.603  18.498   6.455
 9530POPC   C2B51200  20.576  18.535   6.755
 9530POPC   C3B51201  20.521  18.482   7.055
 9530POPC   C4B51202  20.551  18.507   7.355
 9531POPC   NC351203  14.383  12.889   5.555
 9531POPC   PO451204  14.408  12.843   5.855
 9531POPC   GL151205  14.402  12.816   6.155
 9531POPC   GL251206  14.464  12.929   6.155
 9531POPC   C1A51207  14.396  12.813   6.455
 9531POPC   D2A51208  14.364  12.823   6.755
 9531POPC   C3A51209  14.439  12.821   7.055
 9531POPC   C4A51210  14.393  12.812   7.355
 9531POPC   C1B51211  14.537  13.040   6.455
 9531POPC   C2B51212  14.579  13.088   6.755
 9531POPC   C3B51213  14.552  13.102   7.055
 9531POPC   C4B51214  14.519  13.030   7.355
 9532POPC   NC351215  19.103  17.472   5.555
 9532POPC   PO451216  19.064  17.465   5.855
 9532POPC   GL151217  19.090  17.548   6.155
 9532POPC   GL251218  19.181  17.538   6.155
 9532POPC   C1A51219  19.065  17.539   6.455
 9532POPC   D2A51220  19.019  17.519   6.755
 9532POPC   C3A51221  19.074  17.531   7.055
 9532POPC   C4A51222  19.097  17.487   7.355
 9532POPC   C1B51223  19.349  17.562   6.455
 9532POPC   C2B51224  19.338  17.526   6.755
 9532POPC   C3B51225  19.312  17.560   7.055
 9532POPC   C4B51226  19.266  17.556   7.355
 9533POPC   NC351227  26.783  19.808   5.555
 9533POPC   PO451228  26.840  19.827   5.855
 9533POPC   GL151229  26.856  19.869   6.155
 9533POPC   GL251230  26.991  19.775   6.155
 9533POPC   C1A51231  26.794  19.877   6.455
 9533POPC   D2A51232  26.860  19.845   6.755
 9533POPC   C3A51233  26.803  19.802   7.055
 9533POPC   C4A51234  26.784  19.863   7.355
 9533POPC   C1B51235  27.070  19.767   6.455
 9533POPC   C2B51236  27.048  19.836   6.755
 9533POPC   C3B51237  27.047  19.790   7.055
 9533POPC   C4B51238  27.035  19.787   7.355
 9534POPC   NC351239  38.451  24.522   5.555
 9534POPC   PO451240  38.419  24.441   5.855
 9534POPC   GL151241  38.495  24.476   6.155
 9534POPC   GL251242  38.503  24.639   6.155
 9534POPC   C1A51243  38.446  24.527   6.455
 9534POPC   D2A51244  38.482  24.511   6.755
 9534POPC   C3A51245  38.423  24.469   7.055
 9534POPC   C4A51246  38.420  24.516   7.355
 9534POPC   C1B51247  38.506  24.704   6.455
 9534POPC   C2B51248  38.543  24.689   6.755
 9534POPC   C3B51249  38.532  24.750   7.055
 9534POPC   C4B51250  38.574  24.678   7.355
 9535POPC   NC351251  20.641   6.595   5.555
 9535POPC   PO451252  20.626   6.688   5.855
 9535POPC   GL151253  20.580   6.673   6.155
 9535POPC   GL251254  20.635   6.734   6.155
 9535POPC   C1A51255  20.647   6.599   6.455
 9535POPC   D2A51256  20.633   6.652   6.755
 9535POPC   C3A51257  20.579   6.648   7.055
 9535POPC   C4A51258  20.651   6.642   7.355
 9535POPC   C1B51259  20.684   6.868   6.455
 9535POPC   C2B51260  20.714   6.845   6.755
 9535POPC   C3B51261  20.690   6.887   7.055
 9535POPC   C4B51262  20.672   6.883   7.355
 9536POPC   NC351263  29.116   0.459   5.555
 9536POPC   PO451264  29.178   0.452   5.855
 9536POPC   GL151265  29.170   0.430   6.155
 9536POPC   GL251266  29.205   0.274   6.155
 9536POPC   C1A51267  29.119   0.458   6.455
 9536POPC   D2A51268  29.129   0.459   6.755
 9536POPC   C3A51269  29.119   0.436   7.055
 9536POPC   C4A51270  29.130   0.427   7.355
 9536POPC   C1B51271  29.239   0.158   6.455
 9536POPC   C2B51272  29.213   0.230   6.755
 9536POPC   C3B51273  29.252   0.222   7.055
 9536POPC   C4B51274  29.264   0.250   7.355
 9537POPC   NC351275  22.901  15.173   5.555
 9537POPC   PO451276  22.897  15.194   5.855
 9537POPC   GL151277  22.987  15.223   6.155
 9537POPC   GL251278  22.835  15.252   6.155
 9537POPC   C1A51279  22.948  15.152   6.455
 9537POPC   D2A51280  22.965  15.217   6.755
 9537POPC   C3A51281  22.966  15.157   7.055
 9537POPC   C4A51282  22.978  15.134   7.355
 9537POPC   C1B51283  22.775  15.381   6.455
 9537POPC   C2B51284  22.789  15.434   6.755
 9537POPC   C3B51285  22.775  15.444   7.055
 9537POPC   C4B51286  22.770  15.446   7.355
 9538POPC   NC351287  36.131  38.428   5.555
 9538POPC   PO451288  36.096  38.457   5.855
 9538POPC   GL151289  36.091  38.502   6.155
 9538POPC   GL251290  36.244  38.440   6.155
 9538POPC   C1A51291  36.095  38.451   6.455
 9538POPC   D2A51292  36.153  38.434   6.755
 9538POPC   C3A51293  36.097  38.490   7.055
 9538POPC   C4A51294  36.120  38.448   7.355
 9538POPC   C1B51295  36.359  38.487   6.455
 9538POPC   C2B51296  36.390  38.450   6.755
 9538POPC   C3B51297  36.338  38.423   7.055
 9538POPC   C4B51298  36.369  38.459   7.355
 9539POPC   NC351299  12.082   0.392   5.555
 9539POPC   PO451300  12.099   0.444   5.855
 9539POPC   GL151301  12.094   0.438   6.155
 9539POPC   GL251302  12.155   0.322   6.155
 9539POPC   C1A51303  12.029   0.487   6.455
 9539POPC   D2A51304  12.081   0.477   6.755
 9539POPC   C3A51305  12.047   0.447   7.055
 9539POPC   C4A51306  12.062   0.454   7.355
 9539POPC   C1B51307  12.222   0.209   6.455
 9539POPC   C2B51308  12.282   0.288   6.755
 9539POPC   C3B51309  12.286   0.233   7.055
 9539POPC   C4B51310  12.233   0.291   7.355
 9540POPC   NC351311  43.908   8.217   5.555
 9540POPC   PO451312  43.852   8.166   5.855
 9540POPC   GL151313  43.839   8.207   6.155
 9540POPC   GL251314  43.751   8.225   6.155
 9540POPC   C1A51315  43.895   8.180   6.455
 9540POPC   D2A51316  43.925   8.226   6.755
 9540POPC   C3A51317  43.861   8.182   7.055
 9540POPC   C4A51318  43.881   8.218   7.355
 9540POPC   C1B51319  43.643   8.202   6.455
 9540POPC   C2B51320  43.640   8.182   6.755
 9540POPC   C3B51321  43.611   8.165   7.055
 9540POPC   C4B51322  43.668   8.199   7.355
 9541POPC   NC351323  31.464  43.918   5.555
 9541POPC   PO451324  31.502  43.911   5.855
 9541POPC   GL151325  31.460  43.847   6.155
 9541POPC   GL251326  31.641  43.879   6.155
 9541POPC   C1A51327  31.495  43.933   6.455
 9541POPC   D2A51328  31.467  43.885   6.755
 9541POPC   C3A51329  31.511  43.916   7.055
 9541POPC   C4A51330  31.424  43.860   7.355
 9541POPC   C1B51331  31.690  43.917   6.455
 9541POPC   C2B51332  31.758  43.911   6.755
 9541POPC   C3B51333  31.744  43.972   7.055
 9541POPC   C4B51334  31.742  43.929   7.355
 9542POPC   NC351335  43.082  42.360   5.555
 9542POPC   PO451336  43.082  42.312   5.855
 9542POPC   GL151337  43.092  42.377   6.155
 9542POPC   GL251338  43.041  42.257   6.155
 9542POPC   C1A51339  43.109  42.294   6.455
 9542POPC   D2A51340  43.153  42.351   6.755
 9542POPC   C3A51341  43.150  42.333   7.055
 9542POPC   C4A51342  43.063  42.366   7.355
 9542POPC   C1B51343  42.899  42.165   6.455
 9542POPC   C2B51344  42.885  42.201   6.755
 9542POPC   C3B51345  42.864  42.192   7.055
 9542POPC   C4B51346  42.902  42.149   7.355
 9543POPC   NC351347   4.321  39.210   5.555
 9543POPC   PO451348   4.301  39.227   5.855
 9543POPC   GL151349   4.366  39.254   6.155
 9543POPC   GL251350   4.220  39.320   6.155
 9543POPC   C1A51351   4.349  39.256   6.455
 9543POPC   D2A51352   4.320  39.269   6.755
 9543POPC   C3A51353   4.281  39.235   7.055
 9543POPC   C4A51354   4.275  39.209   7.355
 9543POPC   C1B51355   4.096  39.343   6.455
 9543POPC   C2B51356   4.125  39.318   6.755
 9543POPC   C3B51357   4.065  39.353   7.055
 9543POPC   C4B51358   4.087  39.303   7.355
 9544POPC   NC351359  39.270  22.187   5.555
 9544POPC   PO451360  39.235  22.203   5.855
 9544POPC   GL151361  39.209  22.204   6.155
 9544POPC   GL251362  39.244  22.276   6.155
 9544POPC   C1A51363  39.222  22.202   6.455
 9544POPC   D2A51364  39.272  22.132   6.755
 9544POPC   C3A51365  39.270  22.167   7.055
 9544POPC   C4A51366  39.218  22.161   7.355
 9544POPC   C1B51367  39.277  22.430   6.455
 9544POPC   C2B51368  39.265  22.420   6.755
 9544POPC   C3B51369  39.261  22.420   7.055
 9544POPC   C4B51370  39.253  22.432   7.355
 9545POPC   NC351371   1.204   5.907   5.555
 9545POPC   PO451372   1.178   5.875   5.855
 9545POPC   GL151373   1.179   5.837   6.155
 9545POPC   GL251374   1.280   5.915   6.155
 9545POPC   C1A51375   1.246   5.871   6.455
 9545POPC   D2A51376   1.217   5.840   6.755
 9545POPC   C3A51377   1.198   5.906   7.055
 9545POPC   C4A51378   1.246   5.842   7.355
 9545POPC   C1B51379   1.420   6.102   6.455
 9545POPC   C2B51380   1.361   6.087   6.755
 9545POPC   C3B51381   1.364   6.076   7.055
 9545POPC   C4B51382   1.364   6.087   7.355
 9546POPC   NC351383  13.579  42.375   5.555
 9546POPC   PO451384  13.623  42.361   5.855
 9546POPC   GL151385  13.662  42.329   6.155
 9546POPC   GL251386  13.540  42.348   6.155
 9546POPC   C1A51387  13.601  42.345   6.455
 9546POPC   D2A51388  13.662  42.361   6.755
 9546POPC   C3A51389  13.648  42.362   7.055
 9546POPC   C4A51390  13.665  42.306   7.355
 9546POPC   C1B51391  13.352  42.295   6.455
 9546POPC   C2B51392  13.384  42.308   6.755
 9546POPC   C3B51393  13.385  42.306   7.055
 9546POPC   C4B51394  13.413  42.319   7.355
 9547POPC   NC351395   9.728  11.291   5.555
 9547POPC   PO451396   9.730  11.322   5.855
 9547POPC   GL151397   9.702  11.342   6.155
 9547POPC   GL251398   9.699  11.408   6.155
 9547POPC   C1A51399   9.789  11.277   6.455
 9547POPC   D2A51400   9.725  11.299   6.755
 9547POPC   C3A51401   9.753  11.263   7.055
 9547POPC   C4A51402   9.743  11.262   7.355
 9547POPC   C1B51403   9.670  11.577   6.455
 9547POPC   C2B51404   9.736  11.555   6.755
 9547POPC   C3B51405   9.692  11.585   7.055
 9547POPC   C4B51406   9.673  11.538   7.355
 9548POPC   NC351407  12.103  39.237   5.555
 9548POPC   PO451408  12.119  39.222   5.855
 9548POPC   GL151409  12.066  39.193   6.155
 9548POPC   GL251410  11.996  39.173   6.155
 9548POPC   C1A51411  12.051  39.193   6.455
 9548POPC   D2A51412  12.073  39.271   6.755
 9548POPC   C3A51413  12.063  39.281   7.055
 9548POPC   C4A51414  12.043  39.265   7.355
 9548POPC   C1B51415  11.915  39.105   6.455
 9548POPC   C2B51416  11.914  39.065   6.755
 9548POPC   C3B51417  11.928  39.032   7.055
 9548POPC   C4B51418  11.890  39.021   7.355
 9549POPC   NC351419   9.015  29.938   5.555
 9549POPC   PO451420   8.977  29.940   5.855
 9549POPC   GL151421   9.012  29.903   6.155
 9549POPC   GL251422   9.056  30.002   6.155
 9549POPC   C1A51423   8.993  29.920   6.455
 9549POPC   D2A51424   8.970  29.919   6.755
 9549POPC   C3A51425   8.995  29.879   7.055
 9549POPC   C4A51426   8.937  29.929   7.355
 9549POPC   C1B51427   9.149  30.125   6.455
 9549POPC   C2B51428   9.138  30.088   6.755
 9549POPC   C3B51429   9.109  30.085   7.055
 9549POPC   C4B51430   9.154  30.180   7.355
 9550POPC   NC351431  11.301  43.109   5.555
 9550POPC   PO451432  11.267  43.135   5.855
 9550POPC   GL151433  11.299  43.117   6.155
 9550POPC   GL251434  11.178  42.989   6.155
 9550POPC   C1A51435  11.259  43.065   6.455
 9550POPC   D2A51436  11.301  43.093   6.755
 9550POPC   C3A51437  11.289  43.105   7.055
 9550POPC   C4A51438  11.303  43.121   7.355
 9550POPC   C1B51439  11.144  42.951   6.455
 9550POPC   C2B51440  11.135  42.926   6.755
 9550POPC   C3B51441  11.104  42.929   7.055
 9550POPC   C4B51442  11.154  42.962   7.355
 9551POPC   NC351443  41.604  32.296   5.555
 9551POPC   PO451444  41.578  32.202   5.855
 9551POPC   GL151445  41.563  32.235   6.155
 9551POPC   GL251446  41.517  32.388   6.155
 9551POPC   C1A51447  41.529  32.211   6.455
 9551POPC   D2A51448  41.514  32.296   6.755
 9551POPC   C3A51449  41.589  32.237   7.055
 9551POPC   C4A51450  41.564  32.205   7.355
 9551POPC   C1B51451  41.384  32.409   6.455
 9551POPC   C2B51452  41.411  32.465   6.755
 9551POPC   C3B51453  41.464  32.460   7.055
 9551POPC   C4B51454  41.448  32.476   7.355
 9552POPC   NC351455  29.880  34.558   5.555
 9552POPC   PO451456  29.966  34.620   5.855
 9552POPC   GL151457  29.954  34.557   6.155
 9552POPC   GL251458  30.009  34.638   6.155
 9552POPC   C1A51459  29.900  34.605   6.455
 9552POPC   D2A51460  29.947  34.607   6.755
 9552POPC   C3A51461  29.967  34.610   7.055
 9552POPC   C4A51462  29.970  34.573   7.355
 9552POPC   C1B51463  29.999  34.813   6.455
 9552POPC   C2B51464  30.053  34.758   6.755
 9552POPC   C3B51465  30.021  34.758   7.055
 9552POPC   C4B51466  29.996  34.824   7.355
 9553POPC   NC351467  36.115  33.780   5.555
 9553POPC   PO451468  36.143  33.774   5.855
 9553POPC   GL151469  36.145  33.821   6.155
 9553POPC   GL251470  36.166  33.684   6.155
 9553POPC   C1A51471  36.092  33.783   6.455
 9553POPC   D2A51472  36.092  33.791   6.755
 9553POPC   C3A51473  36.122  33.817   7.055
 9553POPC   C4A51474  36.162  33.760   7.355
 9553POPC   C1B51475  36.113  33.552   6.455
 9553POPC   C2B51476  36.084  33.538   6.755
 9553POPC   C3B51477  36.095  33.506   7.055
 9553POPC   C4B51478  36.143  33.526   7.355
 9554POPC   NC351479   2.724  11.292   5.555
 9554POPC   PO451480   2.767  11.284   5.855
 9554POPC   GL151481   2.750  11.257   6.155
 9554POPC   GL251482   2.906  11.253   6.155
 9554POPC   C1A51483   2.747  11.336   6.455
 9554POPC   D2A51484   2.725  11.348   6.755
 9554POPC   C3A51485   2.732  11.266   7.055
 9554POPC   C4A51486   2.812  11.322   7.355
 9554POPC   C1B51487   2.948  11.156   6.455
 9554POPC   C2B51488   2.974  11.111   6.755
 9554POPC   C3B51489   2.990  11.106   7.055
 9554POPC   C4B51490   2.989  11.173   7.355
 9555POPC   NC351491  18.288  20.634   5.555
 9555POPC   PO451492  18.247  20.642   5.855
 9555POPC   GL151493  18.319  20.588   6.155
 9555POPC   GL251494  18.216  20.476   6.155
 9555POPC   C1A51495  18.326  20.576   6.455
 9555POPC   D2A51496  18.286  20.572   6.755
 9555POPC   C3A51497  18.266  20.626   7.055
 9555POPC   C4A51498  18.310  20.628   7.355
 9555POPC   C1B51499  18.274  20.414   6.455
 9555POPC   C2B51500  18.256  20.400   6.755
 9555POPC   C3B51501  18.279  20.321   7.055
 9555POPC   C4B51502  18.262  20.329   7.355
 9556POPC   NC351503  17.524  43.896   5.555
 9556POPC   PO451504  17.534  43.859   5.855
 9556POPC   GL151505  17.521  43.888   6.155
 9556POPC   GL251506  17.590  43.807   6.155
 9556POPC   C1A51507  17.525  43.854   6.455
 9556POPC   D2A51508  17.458  43.932   6.755
 9556POPC   C3A51509  17.539  43.932   7.055
 9556POPC   C4A51510  17.548  43.855   7.355
 9556POPC   C1B51511  17.626  43.680   6.455
 9556POPC   C2B51512  17.566  43.661   6.755
 9556POPC   C3B51513  17.626  43.636   7.055
 9556POPC   C4B51514  17.645  43.658   7.355
 9557POPC   NC351515  20.616  44.646   5.555
 9557POPC   PO451516  20.590  44.638   5.855
 9557POPC   GL151517  20.585  44.660   6.155
 9557POPC   GL251518  20.707  44.640   6.155
 9557POPC   C1A51519  20.604  44.681   6.455
 9557POPC   D2A51520  20.560  44.707   6.755
 9557POPC   C3A51521  20.623  44.690   7.055
 9557POPC   C4A51522  20.617  44.626   7.355
 9557POPC   C1B51523  20.832  44.641   6.455
 9557POPC   C2B51524  20.817  44.600   6.755
 9557POPC   C3B51525  20.893  44.607   7.055
 9557POPC   C4B51526  20.860  44.615   7.355
 9558POPC   NC351527  39.208  36.892   5.555
 9558POPC   PO451528  39.276  36.939   5.855
 9558POPC   GL151529  39.214  36.953   6.155
 9558POPC   GL251530  39.192  37.019   6.155
 9558POPC   C1A51531  39.256  36.905   6.455
 9558POPC   D2A51532  39.240  36.857   6.755
 9558POPC   C3A51533  39.186  36.902   7.055
 9558POPC   C4A51534  39.188  36.859   7.355
 9558POPC   C1B51535  39.159  37.166   6.455
 9558POPC   C2B51536  39.099  37.102   6.755
 9558POPC   C3B51537  39.123  37.093   7.055
 9558POPC   C4B51538  39.163  37.111   7.355
 9559POPC   NC351539  21.399  41.515   5.555
 9559POPC   PO451540  21.401  41.559   5.855
 9559POPC   GL151541  21.373  41.539   6.155
 9559POPC   GL251542  21.436  41.649   6.155
 9559POPC   C1A51543  21.338  41.567   6.455
 9559POPC   D2A51544  21.393  41.510   6.755
 9559POPC   C3A51545  21.339  41.556   7.055
 9559POPC   C4A51546  21.354  41.558   7.355
 9559POPC   C1B51547  21.554  41.747   6.455
 9559POPC   C2B51548  21.508  41.735   6.755
 9559POPC   C3B51549  21.595  41.762   7.055
 9559POPC   C4B51550  21.562  41.780   7.355
 9560POPC   NC351551  19.036   4.286   5.555
 9560POPC   PO451552  19.101   4.341   5.855
 9560POPC   GL151553  19.073   4.326   6.155
 9560POPC   GL251554  19.004   4.266   6.155
 9560POPC   C1A51555  19.029   4.321   6.455
 9560POPC   D2A51556  19.039   4.322   6.755
 9560POPC   C3A51557  19.020   4.351   7.055
 9560POPC   C4A51558  19.060   4.300   7.355
 9560POPC   C1B51559  18.869   4.096   6.455
 9560POPC   C2B51560  18.926   4.077   6.755
 9560POPC   C3B51561  18.918   4.095   7.055
 9560POPC   C4B51562  18.930   4.121   7.355
 9561POPC   NC351563   9.011   8.238   5.555
 9561POPC   PO451564   8.939   8.215   5.855
 9561POPC   GL151565   8.935   8.230   6.155
 9561POPC   GL251566   9.043   8.235   6.155
 9561POPC   C1A51567   8.975   8.194   6.455
 9561POPC   D2A51568   8.980   8.193   6.755
 9561POPC   C3A51569   8.977   8.181   7.055
 9561POPC   C4A51570   8.931   8.157   7.355
 9561POPC   C1B51571   9.175   8.349   6.455
 9561POPC   C2B51572   9.126   8.364   6.755
 9561POPC   C3B51573   9.182   8.302   7.055
 9561POPC   C4B51574   9.190   8.328   7.355
 9562POPC   NC351575  22.895  24.517   5.555
 9562POPC   PO451576  22.899  24.469   5.855
 9562POPC   GL151577  22.920  24.536   6.155
 9562POPC   GL251578  22.865  24.422   6.155
 9562POPC   C1A51579  22.889  24.478   6.455
 9562POPC   D2A51580  22.942  24.512   6.755
 9562POPC   C3A51581  22.900  24.517   7.055
 9562POPC   C4A51582  22.971  24.463   7.355
 9562POPC   C1B51583  22.811  24.272   6.455
 9562POPC   C2B51584  22.840  24.225   6.755
 9562POPC   C3B51585  22.834  24.289   7.055
 9562POPC   C4B51586  22.886  24.293   7.355
 9563POPC   NC351587  26.012  12.080   5.555
 9563POPC   PO451588  26.012  12.050   5.855
 9563POPC   GL151589  26.028  12.043   6.155
 9563POPC   GL251590  25.886  12.130   6.155
 9563POPC   C1A51591  26.086  12.056   6.455
 9563POPC   D2A51592  26.036  12.081   6.755
 9563POPC   C3A51593  26.061  12.067   7.055
 9563POPC   C4A51594  26.057  12.057   7.355
 9563POPC   C1B51595  25.814  12.205   6.455
 9563POPC   C2B51596  25.775  12.133   6.755
 9563POPC   C3B51597  25.827  12.128   7.055
 9563POPC   C4B51598  25.851  12.127   7.355
 9564POPC   NC351599  23.723  25.240   5.555
 9564POPC   PO451600  23.724  25.275   5.855
 9564POPC   GL151601  23.730  25.241   6.155
 9564POPC   GL251602  23.818  25.253   6.155
 9564POPC   C1A51603  23.714  25.276   6.455
 9564POPC   D2A51604  23.734  25.237   6.755
 9564POPC   C3A51605  23.714  25.284   7.055
 9564POPC   C4A51606  23.735  25.283   7.355
 9564POPC   C1B51607  23.984  25.194   6.455
 9564POPC   C2B51608  23.925  25.227   6.755
 9564POPC   C3B51609  23.963  25.237   7.055
 9564POPC   C4B51610  23.923  25.190   7.355
 9565POPC   NC351611  29.938  19.802   5.555
 9565POPC   PO451612  29.919  19.831   5.855
 9565POPC   GL151613  29.921  19.816   6.155
 9565POPC   GL251614  29.964  19.692   6.155
 9565POPC   C1A51615  29.917  19.853   6.455
 9565POPC   D2A51616  29.884  19.806   6.755
 9565POPC   C3A51617  29.901  19.812   7.055
 9565POPC   C4A51618  29.879  19.872   7.355
 9565POPC   C1B51619  30.054  19.621   6.455
 9565POPC   C2B51620  30.114  19.596   6.755
 9565POPC   C3B51621  30.030  19.675   7.055
 9565POPC   C4B51622  30.102  19.613   7.355
 9566POPC   NC351623  12.029  17.458   5.555
 9566POPC   PO451624  12.044  17.514   5.855
 9566POPC   GL151625  12.091  17.526   6.155
 9566POPC   GL251626  12.067  17.381   6.155
 9566POPC   C1A51627  12.080  17.458   6.455
 9566POPC   D2A51628  12.107  17.478   6.755
 9566POPC   C3A51629  12.120  17.490   7.055
 9566POPC   C4A51630  12.038  17.461   7.355
 9566POPC   C1B51631  12.007  17.249   6.455
 9566POPC   C2B51632  11.939  17.242   6.755
 9566POPC   C3B51633  12.001  17.319   7.055
 9566POPC   C4B51634  11.985  17.256   7.355
 9567POPC   NC351635  13.629  24.478   5.555
 9567POPC   PO451636  13.627  24.524   5.855
 9567POPC   GL151637  13.646  24.523   6.155
 9567POPC   GL251638  13.767  24.565   6.155
 9567POPC   C1A51639  13.636  24.462   6.455
 9567POPC   D2A51640  13.664  24.527   6.755
 9567POPC   C3A51641  13.625  24.457   7.055
 9567POPC   C4A51642  13.652  24.533   7.355
 9567POPC   C1B51643  13.864  24.623   6.455
 9567POPC   C2B51644  13.866  24.571   6.755
 9567POPC   C3B51645  13.868  24.625   7.055
 9567POPC   C4B51646  13.844  24.651   7.355
 9568POPC   NC351647   5.845  29.874   5.555
 9568POPC   PO451648   5.852  29.899   5.855
 9568POPC   GL151649   5.910  29.946   6.155
 9568POPC   GL251650   5.800  29.849   6.155
 9568POPC   C1A51651   5.838  29.957   6.455
 9568POPC   D2A51652   5.871  29.884   6.755
 9568POPC   C3A51653   5.884  29.941   7.055
 9568POPC   C4A51654   5.872  29.879   7.355
 9568POPC   C1B51655   5.608  29.781   6.455
 9568POPC   C2B51656   5.701  29.797   6.755
 9568POPC   C3B51657   5.669  29.761   7.055
 9568POPC   C4B51658   5.698  29.815   7.355
 9569POPC   NC351659  29.871  31.501   5.555
 9569POPC   PO451660  29.891  31.505   5.855
 9569POPC   GL151661  29.922  31.516   6.155
 9569POPC   GL251662  29.949  31.561   6.155
 9569POPC   C1A51663  29.911  31.455   6.455
 9569POPC   D2A51664  29.872  31.489   6.755
 9569POPC   C3A51665  29.938  31.442   7.055
 9569POPC   C4A51666  29.905  31.518   7.355
 9569POPC   C1B51667  30.090  31.682   6.455
 9569POPC   C2B51668  30.002  31.736   6.755
 9569POPC   C3B51669  30.040  31.667   7.055
 9569POPC   C4B51670  30.087  31.658   7.355
 9570POPC   NC351671  23.739  12.839   5.555
 9570POPC   PO451672  23.701  12.891   5.855
 9570POPC   GL151673  23.687  12.821   6.155
 9570POPC   GL251674  23.611  12.799   6.155
 9570POPC   C1A51675  23.741  12.860   6.455
 9570POPC   D2A51676  23.740  12.826   6.755
 9570POPC   C3A51677  23.722  12.872   7.055
 9570POPC   C4A51678  23.756  12.807   7.355
 9570POPC   C1B51679  23.532  12.687   6.455
 9570POPC   C2B51680  23.456  12.719   6.755
 9570POPC   C3B51681  23.523  12.754   7.055
 9570POPC   C4B51682  23.484  12.697   7.355
 9571POPC   NC351683  17.548   4.348   5.555
 9571POPC   PO451684  17.517   4.330   5.855
 9571POPC   GL151685  17.526   4.308   6.155
 9571POPC   GL251686  17.569   4.161   6.155
 9571POPC   C1A51687  17.518   4.298   6.455
 9571POPC   D2A51688  17.473   4.291   6.755
 9571POPC   C3A51689  17.460   4.286   7.055
 9571POPC   C4A51690  17.514   4.297   7.355
 9571POPC   C1B51691  17.581   4.101   6.455
 9571POPC   C2B51692  17.627   4.084   6.755
 9571POPC   C3B51693  17.583   4.128   7.055
 9571POPC   C4B51694  17.597   4.076   7.355
 9572POPC   NC351695  34.584  11.275   5.555
 9572POPC   PO451696  34.564  11.293   5.855
 9572POPC   GL151697  34.624  11.278   6.155
 9572POPC   GL251698  34.472  11.415   6.155
 9572POPC   C1A51699  34.562  11.297   6.455
 9572POPC   D2A51700  34.527  11.253   6.755
 9572POPC   C3A51701  34.549  11.267   7.055
 9572POPC   C4A51702  34.591  11.299   7.355
 9572POPC   C1B51703  34.387  11.490   6.455
 9572POPC   C2B51704  34.475  11.530   6.755
 9572POPC   C3B51705  34.408  11.472   7.055
 9572POPC   C4B51706  34.450  11.468   7.355
 9573POPC   NC351707  26.056  27.595   5.555
 9573POPC   PO451708  25.993  27.574   5.855
 9573POPC   GL151709  26.001  27.641   6.155
 9573POPC   GL251710  25.941  27.509   6.155
 9573POPC   C1A51711  26.061  27.599   6.455
 9573POPC   D2A51712  26.083  27.553   6.755
 9573POPC   C3A51713  26.085  27.626   7.055
 9573POPC   C4A51714  26.010  27.609   7.355
 9573POPC   C1B51715  25.858  27.474   6.455
 9573POPC   C2B51716  25.825  27.531   6.755
 9573POPC   C3B51717  25.786  27.453   7.055
 9573POPC   C4B51718  25.788  27.464   7.355
 9574POPC   NC351719   3.573   6.648   5.555
 9574POPC   PO451720   3.572   6.657   5.855
 9574POPC   GL151721   3.559   6.676   6.155
 9574POPC   GL251722   3.390   6.628   6.155
 9574POPC   C1A51723   3.552   6.637   6.455
 9574POPC   D2A51724   3.493   6.654   6.755
 9574POPC   C3A51725   3.566   6.686   7.055
 9574POPC   C4A51726   3.502   6.643   7.355
 9574POPC   C1B51727   3.358   6.545   6.455
 9574POPC   C2B51728   3.373   6.557   6.755
 9574POPC   C3B51729   3.352   6.533   7.055
 9574POPC   C4B51730   3.361   6.545   7.355
 9575POPC   NC351731  14.370  28.361   5.555
 9575POPC   PO451732  14.369  28.378   5.855
 9575POPC   GL151733  14.357  28.352   6.155
 9575POPC   GL251734  14.296  28.278   6.155
 9575POPC   C1A51735  14.388  28.395   6.455
 9575POPC   D2A51736  14.400  28.338   6.755
 9575POPC   C3A51737  14.361  28.360   7.055
 9575POPC   C4A51738  14.443  28.331   7.355
 9575POPC   C1B51739  14.280  28.161   6.455
 9575POPC   C2B51740  14.222  28.138   6.755
 9575POPC   C3B51741  14.268  28.145   7.055
 9575POPC   C4B51742  14.239  28.141   7.355
 9576POPC   NC351743  12.106   1.249   5.555
 9576POPC   PO451744  12.124   1.250   5.855
 9576POPC   GL151745  12.071   1.188   6.155
 9576POPC   GL251746  12.087   1.334   6.155
 9576POPC   C1A51747  12.038   1.212   6.455
 9576POPC   D2A51748  12.068   1.249   6.755
 9576POPC   C3A51749  12.047   1.217   7.055
 9576POPC   C4A51750  12.078   1.234   7.355
 9576POPC   C1B51751  12.031   1.420   6.455
 9576POPC   C2B51752  12.037   1.486   6.755
 9576POPC   C3B51753  12.045   1.447   7.055
 9576POPC   C4B51754  12.097   1.453   7.355
 9577POPC   NC351755  21.423  34.619   5.555
 9577POPC   PO451756  21.388  34.623   5.855
 9577POPC   GL151757  21.409  34.560   6.155
 9577POPC   GL251758  21.427  34.460   6.155
 9577POPC   C1A51759  21.406  34.612   6.455
 9577POPC   D2A51760  21.381  34.568   6.755
 9577POPC   C3A51761  21.387  34.596   7.055
 9577POPC   C4A51762  21.410  34.601   7.355
 9577POPC   C1B51763  21.561  34.408   6.455
 9577POPC   C2B51764  21.520  34.399   6.755
 9577POPC   C3B51765  21.495  34.359   7.055
 9577POPC   C4B51766  21.536  34.329   7.355
 9578POPC   NC351767  11.344   2.757   5.555
 9578POPC   PO451768  11.300   2.789   5.855
 9578POPC   GL151769  11.343   2.804   6.155
 9578POPC   GL251770  11.261   2.600   6.155
 9578POPC   C1A51771  11.291   2.773   6.455
 9578POPC   D2A51772  11.340   2.731   6.755
 9578POPC   C3A51773  11.255   2.749   7.055
 9578POPC   C4A51774  11.312   2.813   7.355
 9578POPC   C1B51775  11.296   2.550   6.455
 9578POPC   C2B51776  11.299   2.474   6.755
 9578POPC   C3B51777  11.309   2.532   7.055
 9578POPC   C4B51778  11.285   2.468   7.355
 9579POPC   NC351779  40.813  15.217   5.555
 9579POPC   PO451780  40.825  15.166   5.855
 9579POPC   GL151781  40.788  15.155   6.155
 9579POPC   GL251782  40.702  15.149   6.155
 9579POPC   C1A51783  40.817  15.208   6.455
 9579POPC   D2A51784  40.808  15.208   6.755
 9579POPC   C3A51785  40.787  15.194   7.055
 9579POPC   C4A51786  40.758  15.168   7.355
 9579POPC   C1B51787  40.486  15.193   6.455
 9579POPC   C2B51788  40.566  15.217   6.755
 9579POPC   C3B51789  40.541  15.219   7.055
 9579POPC   C4B51790  40.518  15.255   7.355
 9580POPC   NC351791  17.524  42.378   5.555
 9580POPC   PO451792  17.504  42.381   5.855
 9580POPC   GL151793  17.510  42.311   6.155
 9580POPC   GL251794  17.427  42.463   6.155
 9580POPC   C1A51795  17.488  42.382   6.455
 9580POPC   D2A51796  17.540  42.359   6.755
 9580POPC   C3A51797  17.494  42.355   7.055
 9580POPC   C4A51798  17.459  42.303   7.355
 9580POPC   C1B51799  17.437  42.599   6.455
 9580POPC   C2B51800  17.377  42.563   6.755
 9580POPC   C3B51801  17.418  42.612   7.055
 9580POPC   C4B51802  17.392  42.524   7.355
 9581POPC   NC351803  26.074  30.732   5.555
 9581POPC   PO451804  26.073  30.658   5.855
 9581POPC   GL151805  26.005  30.664   6.155
 9581POPC   GL251806  26.188  30.660   6.155
 9581POPC   C1A51807  26.023  30.733   6.455
 9581POPC   D2A51808  26.009  30.739   6.755
 9581POPC   C3A51809  25.995  30.723   7.055
 9581POPC   C4A51810  26.043  30.656   7.355
 9581POPC   C1B51811  26.205  30.516   6.455
 9581POPC   C2B51812  26.275  30.567   6.755
 9581POPC   C3B51813  26.263  30.580   7.055
 9581POPC   C4B51814  26.235  30.523   7.355
 9582POPC   NC351815   6.597  43.921   5.555
 9582POPC   PO451816   6.660  43.922   5.855
 9582POPC   GL151817   6.658  43.927   6.155
 9582POPC   GL251818   6.581  43.970   6.155
 9582POPC   C1A51819   6.607  43.913   6.455
 9582POPC   D2A51820   6.608  43.899   6.755
 9582POPC   C3A51821   6.644  43.925   7.055
 9582POPC   C4A51822   6.645  43.932   7.355
 9582POPC   C1B51823   6.562  44.148   6.455
 9582POPC   C2B51824   6.575  44.162   6.755
 9582POPC   C3B51825   6.609  44.110   7.055
 9582POPC   C4B51826   6.610  44.142   7.355
 9583POPC   NC351827  42.343  37.643   5.555
 9583POPC   PO451828  42.289  37.641   5.855
 9583POPC   GL151829  42.355  37.640   6.155
 9583POPC   GL251830  42.472  37.628   6.155
 9583POPC   C1A51831  42.335  37.698   6.455
 9583POPC   D2A51832  42.315  37.727   6.755
 9583POPC   C3A51833  42.363  37.682   7.055
 9583POPC   C4A51834  42.354  37.642   7.355
 9583POPC   C1B51835  42.510  37.508   6.455
 9583POPC   C2B51836  42.535  37.578   6.755
 9583POPC   C3B51837  42.578  37.575   7.055
 9583POPC   C4B51838  42.578  37.547   7.355
 9584POPC   NC351839  13.641  43.893   5.555
 9584POPC   PO451840  13.624  43.877   5.855
 9584POPC   GL151841  13.588  43.868   6.155
 9584POPC   GL251842  13.776  43.882   6.155
 9584POPC   C1A51843  13.626  43.890   6.455
 9584POPC   D2A51844  13.593  43.912   6.755
 9584POPC   C3A51845  13.627  43.850   7.055
 9584POPC   C4A51846  13.591  43.900   7.355
 9584POPC   C1B51847  13.878  43.881   6.455
 9584POPC   C2B51848  13.893  43.850   6.755
 9584POPC   C3B51849  13.851  43.812   7.055
 9584POPC   C4B51850  13.913  43.865   7.355
 9585POPC   NC351851   9.789  24.483   5.555
 9585POPC   PO451852   9.746  24.469   5.855
 9585POPC   GL151853   9.766  24.441   6.155
 9585POPC   GL251854   9.781  24.597   6.155
 9585POPC   C1A51855   9.775  24.513   6.455
 9585POPC   D2A51856   9.792  24.499   6.755
 9585POPC   C3A51857   9.733  24.448   7.055
 9585POPC   C4A51858   9.755  24.475   7.355
 9585POPC   C1B51859   9.765  24.730   6.455
 9585POPC   C2B51860   9.820  24.729   6.755
 9585POPC   C3B51861   9.768  24.691   7.055
 9585POPC   C4B51862   9.798  24.719   7.355
 9586POPC   NC351863   7.415  33.040   5.555
 9586POPC   PO451864   7.412  33.047   5.855
 9586POPC   GL151865   7.405  33.034   6.155
 9586POPC   GL251866   7.417  32.878   6.155
 9586POPC   C1A51867   7.435  33.068   6.455
 9586POPC   D2A51868   7.466  33.060   6.755
 9586POPC   C3A51869   7.391  33.017   7.055
 9586POPC   C4A51870   7.390  32.993   7.355
 9586POPC   C1B51871   7.353  32.752   6.455
 9586POPC   C2B51872   7.324  32.775   6.755
 9586POPC   C3B51873   7.336  32.814   7.055
 9586POPC   C4B51874   7.381  32.766   7.355
 9587POPC   NC351875  15.224   2.743   5.555
 9587POPC   PO451876  15.196   2.808   5.855
 9587POPC   GL151877  15.176   2.763   6.155
 9587POPC   GL251878  15.127   2.798   6.155
 9587POPC   C1A51879  15.199   2.805   6.455
 9587POPC   D2A51880  15.191   2.749   6.755
 9587POPC   C3A51881  15.194   2.794   7.055
 9587POPC   C4A51882  15.153   2.720   7.355
 9587POPC   C1B51883  14.942   2.918   6.455
 9587POPC   C2B51884  15.027   2.914   6.755
 9587POPC   C3B51885  14.989   2.933   7.055
 9587POPC   C4B51886  14.998   2.927   7.355
 9588POPC   NC351887  11.331   1.241   5.555
 9588POPC   PO451888  11.319   1.174   5.855
 9588POPC   GL151889  11.332   1.244   6.155
 9588POPC   GL251890  11.467   1.207   6.155
 9588POPC   C1A51891  11.349   1.206   6.455
 9588POPC   D2A51892  11.342   1.260   6.755
 9588POPC   C3A51893  11.329   1.227   7.055
 9588POPC   C4A51894  11.276   1.256   7.355
 9588POPC   C1B51895  11.552   1.209   6.455
 9588POPC   C2B51896  11.539   1.208   6.755
 9588POPC   C3B51897  11.560   1.181   7.055
 9588POPC   C4B51898  11.581   1.230   7.355
 9589POPC   NC351899  10.527   9.004   5.555
 9589POPC   PO451900  10.482   8.959   5.855
 9589POPC   GL151901  10.499   9.009   6.155
 9589POPC   GL251902  10.676   8.933   6.155
 9589POPC   C1A51903  10.492   8.985   6.455
 9589POPC   D2A51904  10.538   8.990   6.755
 9589POPC   C3A51905  10.568   9.007   7.055
 9589POPC   C4A51906  10.530   8.926   7.355
 9589POPC   C1B51907  10.707   8.827   6.455
 9589POPC   C2B51908  10.708   8.887   6.755
 9589POPC   C3B51909  10.801   8.844   7.055
 9589POPC   C4B51910  10.757   8.850   7.355
 9590POPC   NC351911  30.665   3.564   5.555
 9590POPC   PO451912  30.710   3.554   5.855
 9590POPC   GL151913  30.703   3.528   6.155
 9590POPC   GL251914  30.646   3.458   6.155
 9590POPC   C1A51915  30.743   3.582   6.455
 9590POPC   D2A51916  30.735   3.562   6.755
 9590POPC   C3A51917  30.683   3.530   7.055
 9590POPC   C4A51918  30.697   3.498   7.355
 9590POPC   C1B51919  30.666   3.309   6.455
 9590POPC   C2B51920  30.688   3.270   6.755
 9590POPC   C3B51921  30.648   3.257   7.055
 9590POPC   C4B51922  30.615   3.329   7.355
 9591POPC   NC351923  12.889   5.874   5.555
 9591POPC   PO451924  12.807   5.852   5.855
 9591POPC   GL151925  12.888   5.913   6.155
 9591POPC   GL251926  12.960   5.789   6.155
 9591POPC   C1A51927  12.806   5.858   6.455
 9591POPC   D2A51928  12.842   5.861   6.755
 9591POPC   C3A51929  12.900   5.896   7.055
 9591POPC   C4A51930  12.836   5.851   7.355
 9591POPC   C1B51931  13.100   5.726   6.455
 9591POPC   C2B51932  13.038   5.708   6.755
 9591POPC   C3B51933  13.034   5.739   7.055
 9591POPC   C4B51934  13.028   5.772   7.355
 9592POPC   NC351935  15.970  16.710   5.555
 9592POPC   PO451936  15.942  16.732   5.855
 9592POPC   GL151937  15.931  16.751   6.155
 9592POPC   GL251938  15.844  16.850   6.155
 9592POPC   C1A51939  15.964  16.698   6.455
 9592POPC   D2A51940  16.001  16.733   6.755
 9592POPC   C3A51941  15.962  16.706   7.055
 9592POPC   C4A51942  15.919  16.732   7.355
 9592POPC   C1B51943  15.728  16.852   6.455
 9592POPC   C2B51944  15.719  16.923   6.755
 9592POPC   C3B51945  15.750  16.844   7.055
 9592POPC   C4B51946  15.736  16.857   7.355
 9593POPC   NC351947  40.821  31.468   5.555
 9593POPC   PO451948  40.755  31.468   5.855
 9593POPC   GL151949  40.818  31.424   6.155
 9593POPC   GL251950  40.749  31.371   6.155
 9593POPC   C1A51951  40.801  31.507   6.455
 9593POPC   D2A51952  40.798  31.465   6.755
 9593POPC   C3A51953  40.787  31.452   7.055
 9593POPC   C4A51954  40.770  31.512   7.355
 9593POPC   C1B51955  40.797  31.198   6.455
 9593POPC   C2B51956  40.762  31.188   6.755
 9593POPC   C3B51957  40.793  31.266   7.055
 9593POPC   C4B51958  40.802  31.203   7.355
 9594POPC   NC351959  20.631  23.675   5.555
 9594POPC   PO451960  20.615  23.677   5.855
 9594POPC   GL151961  20.591  23.724   6.155
 9594POPC   GL251962  20.480  23.642   6.155
 9594POPC   C1A51963  20.612  23.733   6.455
 9594POPC   D2A51964  20.643  23.688   6.755
 9594POPC   C3A51965  20.565  23.728   7.055
 9594POPC   C4A51966  20.655  23.678   7.355
 9594POPC   C1B51967  20.385  23.610   6.455
 9594POPC   C2B51968  20.380  23.599   6.755
 9594POPC   C3B51969  20.376  23.635   7.055
 9594POPC   C4B51970  20.421  23.666   7.355
 9595POPC   NC351971  29.158   8.983   5.555
 9595POPC   PO451972  29.145   8.965   5.855
 9595POPC   GL151973  29.145   8.929   6.155
 9595POPC   GL251974  29.185   8.894   6.155
 9595POPC   C1A51975  29.099   9.020   6.455
 9595POPC   D2A51976  29.143   8.962   6.755
 9595POPC   C3A51977  29.128   8.973   7.055
 9595POPC   C4A51978  29.132   8.963   7.355
 9595POPC   C1B51979  29.111   8.696   6.455
 9595POPC   C2B51980  29.132   8.732   6.755
 9595POPC   C3B51981  29.087   8.684   7.055
 9595POPC   C4B51982  29.117   8.768   7.355
 9596POPC   NC351983  13.662   8.954   5.555
 9596POPC   PO451984  13.601   8.982   5.855
 9596POPC   GL151985  13.604   8.935   6.155
 9596POPC   GL251986  13.467   8.921   6.155
 9596POPC   C1A51987  13.619   8.976   6.455
 9596POPC   D2A51988  13.646   8.936   6.755
 9596POPC   C3A51989  13.662   8.999   7.055
 9596POPC   C4A51990  13.665   8.962   7.355
 9596POPC   C1B51991  13.427   8.914   6.455
 9596POPC   C2B51992  13.358   8.965   6.755
 9596POPC   C3B51993  13.382   8.974   7.055
 9596POPC   C4B51994  13.404   8.984   7.355
 9597POPC   NC351995  25.303  39.241   5.555
 9597POPC   PO451996  25.299  39.235   5.855
 9597POPC   GL151997  25.261  39.232   6.155
 9597POPC   GL251998  25.219  39.331   6.155
 9597POPC   C1A51999  25.252  39.229   6.455
 9597POPC   D2A52000  25.306  39.218   6.755
 9597POPC   C3A52001  25.232  39.255   7.055
 9597POPC   C4A52002  25.296  39.187   7.355
 9597POPC   C1B52003  25.140  39.400   6.455
 9597POPC   C2B52004  25.120  39.416   6.755
 9597POPC   C3B52005  25.108  39.409   7.055
 9597POPC   C4B52006  25.094  39.452   7.355
 9598POPC   NC352007  21.434  24.491   5.555
 9598POPC   PO452008  21.393  24.450   5.855
 9598POPC   GL152009  21.392  24.472   6.155
 9598POPC   GL252010  21.495  24.484   6.155
 9598POPC   C1A52011  21.349  24.514   6.455
 9598POPC   D2A52012  21.350  24.498   6.755
 9598POPC   C3A52013  21.390  24.533   7.055
 9598POPC   C4A52014  21.407  24.526   7.355
 9598POPC   C1B52015  21.654  24.522   6.455
 9598POPC   C2B52016  21.672  24.489   6.755
 9598POPC   C3B52017  21.647  24.566   7.055
 9598POPC   C4B52018  21.618  24.563   7.355
 9599POPC   NC352019  11.315   3.525   5.555
 9599POPC   PO452020  11.265   3.571   5.855
 9599POPC   GL152021  11.292   3.585   6.155
 9599POPC   GL252022  11.145   3.556   6.155
 9599POPC   C1A52023  11.313   3.507   6.455
 9599POPC   D2A52024  11.333   3.558   6.755
 9599POPC   C3A52025  11.270   3.563   7.055
 9599POPC   C4A52026  11.349   3.522   7.355
 9599POPC   C1B52027  11.013   3.468   6.455
 9599POPC   C2B52028  11.045   3.472   6.755
 9599POPC   C3B52029  11.017   3.507   7.055
 9599POPC   C4B52030  11.081   3.425   7.355
 9600POPC   NC352031  43.115  32.258   5.555
 9600POPC   PO452032  43.129  32.274   5.855
 9600POPC   GL152033  43.157  32.293   6.155
 9600POPC   GL252034  43.078  32.411   6.155
 9600POPC   C1A52035  43.079  32.224   6.455
 9600POPC   D2A52036  43.069  32.296   6.755
 9600POPC   C3A52037  43.074  32.262   7.055
 9600POPC   C4A52038  43.085  32.238   7.355
 9600POPC   C1B52039  43.070  32.457   6.455
 9600POPC   C2B52040  43.073  32.524   6.755
 9600POPC   C3B52041  43.068  32.450   7.055
 9600POPC   C4B52042  42.996  32.495   7.355
 9601POPC   NC352043  17.479  13.596   5.555
 9601POPC   PO452044  17.555  13.600   5.855
 9601POPC   GL152045  17.541  13.597   6.155
 9601POPC   GL252046  17.482  13.785   6.155
 9601POPC   C1A52047  17.496  13.595   6.455
 9601POPC   D2A52048  17.512  13.642   6.755
 9601POPC   C3A52049  17.475  13.622   7.055
 9601POPC   C4A52050  17.517  13.627   7.355
 9601POPC   C1B52051  17.434  13.861   6.455
 9601POPC   C2B52052  17.437  13.904   6.755
 9601POPC   C3B52053  17.488  13.889   7.055
 9601POPC   C4B52054  17.410  13.862   7.355
 9602POPC   NC352055  17.475  20.658   5.555
 9602POPC   PO452056  17.550  20.580   5.855
 9602POPC   GL152057  17.480  20.571   6.155
 9602POPC   GL252058  17.661  20.620   6.155
 9602POPC   C1A52059  17.479  20.640   6.455
 9602POPC   D2A52060  17.539  20.567   6.755
 9602POPC   C3A52061  17.489  20.603   7.055
 9602POPC   C4A52062  17.496  20.622   7.355
 9602POPC   C1B52063  17.761  20.652   6.455
 9602POPC   C2B52064  17.723  20.602   6.755
 9602POPC   C3B52065  17.725  20.635   7.055
 9602POPC   C4B52066  17.734  20.605   7.355
 9603POPC   NC352067  14.452  20.659   5.555
 9603POPC   PO452068  14.362  20.639   5.855
 9603POPC   GL152069  14.430  20.617   6.155
 9603POPC   GL252070  14.466  20.742   6.155
 9603POPC   C1A52071  14.375  20.633   6.455
 9603POPC   D2A52072  14.450  20.612   6.755
 9603POPC   C3A52073  14.398  20.646   7.055
 9603POPC   C4A52074  14.360  20.611   7.355
 9603POPC   C1B52075  14.414  20.869   6.455
 9603POPC   C2B52076  14.428  20.882   6.755
 9603POPC   C3B52077  14.447  20.810   7.055
 9603POPC   C4B52078  14.471  20.889   7.355
 9604POPC   NC352079  18.287  41.562   5.555
 9604POPC   PO452080  18.236  41.539   5.855
 9604POPC   GL152081  18.323  41.576   6.155
 9604POPC   GL252082  18.391  41.502   6.155
 9604POPC   C1A52083  18.295  41.541   6.455
 9604POPC   D2A52084  18.322  41.587   6.755
 9604POPC   C3A52085  18.310  41.542   7.055
 9604POPC   C4A52086  18.271  41.515   7.355
 9604POPC   C1B52087  18.422  41.307   6.455
 9604POPC   C2B52088  18.413  41.311   6.755
 9604POPC   C3B52089  18.375  41.318   7.055
 9604POPC   C4B52090  18.422  41.369   7.355
 9605POPC   NC352091  11.252   0.477   5.555
 9605POPC   PO452092  11.332   0.421   5.855
 9605POPC   GL152093  11.308   0.441   6.155
 9605POPC   GL252094  11.214   0.339   6.155
 9605POPC   C1A52095  11.350   0.442   6.455
 9605POPC   D2A52096  11.276   0.413   6.755
 9605POPC   C3A52097  11.272   0.434   7.055
 9605POPC   C4A52098  11.300   0.476   7.355
 9605POPC   C1B52099  11.226   0.216   6.455
 9605POPC   C2B52100  11.258   0.165   6.755
 9605POPC   C3B52101  11.206   0.152   7.055
 9605POPC   C4B52102  11.251   0.235   7.355
 9606POPC   NC352103  22.148  43.105   5.555
 9606POPC   PO452104  22.159  43.095   5.855
 9606POPC   GL152105  22.117  43.132   6.155
 9606POPC   GL252106  22.309  43.149   6.155
 9606POPC   C1A52107  22.210  43.095   6.455
 9606POPC   D2A52108  22.185  43.090   6.755
 9606POPC   C3A52109  22.152  43.136   7.055
 9606POPC   C4A52110  22.119  43.140   7.355
 9606POPC   C1B52111  22.441  43.187   6.455
 9606POPC   C2B52112  22.425  43.113   6.755
 9606POPC   C3B52113  22.431  43.150   7.055
 9606POPC   C4B52114  22.454  43.142   7.355
 9607POPC   NC352115  41.512  36.161   5.555
 9607POPC   PO452116  41.521  36.078   5.855
 9607POPC   GL152117  41.585  36.171   6.155
 9607POPC   GL252118  41.477  36.160   6.155
 9607POPC   C1A52119  41.555  36.158   6.455
 9607POPC   D2A52120  41.570  36.117   6.755
 9607POPC   C3A52121  41.560  36.164   7.055
 9607POPC   C4A52122  41.571  36.090   7.355
 9607POPC   C1B52123  41.324  36.189   6.455
 9607POPC   C2B52124  41.274  36.231   6.755
 9607POPC   C3B52125  41.275  36.250   7.055
 9607POPC   C4B52126  41.372  36.227   7.355
 9608POPC   NC352127  41.561  19.823   5.555
 9608POPC   PO452128  41.523  19.866   5.855
 9608POPC   GL152129  41.596  19.806   6.155
 9608POPC   GL252130  41.638  19.902   6.155
 9608POPC   C1A52131  41.556  19.798   6.455
 9608POPC   D2A52132  41.593  19.817   6.755
 9608POPC   C3A52133  41.554  19.848   7.055
 9608POPC   C4A52134  41.598  19.846   7.355
 9608POPC   C1B52135  41.799  19.964   6.455
 9608POPC   C2B52136  41.744  19.934   6.755
 9608POPC   C3B52137  41.735  19.943   7.055
 9608POPC   C4B52138  41.755  20.025   7.355
 9609POPC   NC352139   5.051  34.622   5.555
 9609POPC   PO452140   5.136  34.551   5.855
 9609POPC   GL152141   5.120  34.559   6.155
 9609POPC   GL252142   5.101  34.709   6.155
 9609POPC   C1A52143   5.047  34.542   6.455
 9609POPC   D2A52144   5.116  34.587   6.755
 9609POPC   C3A52145   5.072  34.575   7.055
 9609POPC   C4A52146   5.122  34.563   7.355
 9609POPC   C1B52147   5.257  34.839   6.455
 9609POPC   C2B52148   5.200  34.803   6.755
 9609POPC   C3B52149   5.235  34.793   7.055
 9609POPC   C4B52150   5.204  34.766   7.355
 9610POPC   NC352151  16.713  19.846   5.555
 9610POPC   PO452152  16.719  19.834   5.855
 9610POPC   GL152153  16.728  19.792   6.155
 9610POPC   GL252154  16.738  19.999   6.155
 9610POPC   C1A52155  16.727  19.841   6.455
 9610POPC   D2A52156  16.697  19.834   6.755
 9610POPC   C3A52157  16.689  19.840   7.055
 9610POPC   C4A52158  16.748  19.839   7.355
 9610POPC   C1B52159  16.802  20.089   6.455
 9610POPC   C2B52160  16.814  20.094   6.755
 9610POPC   C3B52161  16.800  20.104   7.055
 9610POPC   C4B52162  16.741  20.086   7.355
 9611POPC   NC352163  42.372  26.841   5.555
 9611POPC   PO452164  42.331  26.859   5.855
 9611POPC   GL152165  42.300  26.786   6.155
 9611POPC   GL252166  42.442  26.695   6.155
 9611POPC   C1A52167  42.300  26.840   6.455
 9611POPC   D2A52168  42.334  26.824   6.755
 9611POPC   C3A52169  42.357  26.817   7.055
 9611POPC   C4A52170  42.292  26.775   7.355
 9611POPC   C1B52171  42.489  26.663   6.455
 9611POPC   C2B52172  42.538  26.628   6.755
 9611POPC   C3B52173  42.513  26.692   7.055
 9611POPC   C4B52174  42.515  26.674   7.355
 9612POPC   NC352175   9.796  25.269   5.555
 9612POPC   PO452176   9.754  25.279   5.855
 9612POPC   GL152177   9.782  25.221   6.155
 9612POPC   GL252178   9.840  25.391   6.155
 9612POPC   C1A52179   9.708  25.260   6.455
 9612POPC   D2A52180   9.734  25.243   6.755
 9612POPC   C3A52181   9.778  25.238   7.055
 9612POPC   C4A52182   9.778  25.222   7.355
 9612POPC   C1B52183   9.849  25.448   6.455
 9612POPC   C2B52184   9.927  25.422   6.755
 9612POPC   C3B52185   9.875  25.423   7.055
 9612POPC   C4B52186   9.894  25.502   7.355
 9613POPC   NC352187   4.278  25.230   5.555
 9613POPC   PO452188   4.268  25.280   5.855
 9613POPC   GL152189   4.271  25.300   6.155
 9613POPC   GL252190   4.444  25.241   6.155
 9613POPC   C1A52191   4.340  25.300   6.455
 9613POPC   D2A52192   4.350  25.314   6.755
 9613POPC   C3A52193   4.324  25.257   7.055
 9613POPC   C4A52194   4.326  25.310   7.355
 9613POPC   C1B52195   4.607  25.260   6.455
 9613POPC   C2B52196   4.559  25.261   6.755
 9613POPC   C3B52197   4.572  25.225   7.055
 9613POPC   C4B52198   4.562  25.245   7.355
 9614POPC   NC352199  25.237  29.896   5.555
 9614POPC   PO452200  25.259  29.920   5.855
 9614POPC   GL152201  25.315  29.914   6.155
 9614POPC   GL252202  25.156  29.915   6.155
 9614POPC   C1A52203  25.305  29.969   6.455
 9614POPC   D2A52204  25.293  29.943   6.755
 9614POPC   C3A52205  25.235  29.924   7.055
 9614POPC   C4A52206  25.227  29.907   7.355
 9614POPC   C1B52207  25.017  29.967   6.455
 9614POPC   C2B52208  25.040  29.973   6.755
 9614POPC   C3B52209  25.047  30.044   7.055
 9614POPC   C4B52210  25.013  29.962   7.355
 9615POPC   NC352211  34.578  41.510   5.555
 9615POPC   PO452212  34.589  41.570   5.855
 9615POPC   GL152213  34.608  41.524   6.155
 9615POPC   GL252214  34.500  41.441   6.155
 9615POPC   C1A52215  34.541  41.602   6.455
 9615POPC   D2A52216  34.593  41.599   6.755
 9615POPC   C3A52217  34.600  41.572   7.055
 9615POPC   C4A52218  34.601  41.547   7.355
 9615POPC   C1B52219  34.470  41.282   6.455
 9615POPC   C2B52220  34.473  41.310   6.755
 9615POPC   C3B52221  34.489  41.283   7.055
 9615POPC   C4B52222  34.448  41.282   7.355
 9616POPC   NC352223  36.889   6.631   5.555
 9616POPC   PO452224  36.916   6.680   5.855
 9616POPC   GL152225  36.949   6.667   6.155
 9616POPC   GL252226  36.911   6.736   6.155
 9616POPC   C1A52227  36.948   6.687   6.455
 9616POPC   D2A52228  36.854   6.686   6.755
 9616POPC   C3A52229  36.901   6.688   7.055
 9616POPC   C4A52230  36.856   6.666   7.355
 9616POPC   C1B52231  36.841   6.856   6.455
 9616POPC   C2B52232  36.882   6.849   6.755
 9616POPC   C3B52233  36.870   6.911   7.055
 9616POPC   C4B52234  36.845   6.891   7.355
 9617POPC   NC352235  25.285  15.161   5.555
 9617POPC   PO452236  25.275  15.156   5.855
 9617POPC   GL152237  25.274  15.159   6.155
 9617POPC   GL252238  25.134  15.189   6.155
 9617POPC   C1A52239  25.311  15.190   6.455
 9617POPC   D2A52240  25.273  15.178   6.755
 9617POPC   C3A52241  25.217  15.224   7.055
 9617POPC   C4A52242  25.297  15.130   7.355
 9617POPC   C1B52243  25.046  15.148   6.455
 9617POPC   C2B52244  25.018  15.134   6.755
 9617POPC   C3B52245  25.058  15.098   7.055
 9617POPC   C4B52246  24.978  15.188   7.355
 9618POPC   NC352247   5.909  25.992   5.555
 9618POPC   PO452248   5.849  26.084   5.855
 9618POPC   GL152249   5.871  26.036   6.155
 9618POPC   GL252250   5.768  25.942   6.155
 9618POPC   C1A52251   5.852  26.046   6.455
 9618POPC   D2A52252   5.891  26.033   6.755
 9618POPC   C3A52253   5.824  26.044   7.055
 9618POPC   C4A52254   5.849  26.007   7.355
 9618POPC   C1B52255   5.660  25.896   6.455
 9618POPC   C2B52256   5.738  25.828   6.755
 9618POPC   C3B52257   5.699  25.826   7.055
 9618POPC   C4B52258   5.700  25.828   7.355
 9619POPC   NC352259   8.958   5.893   5.555
 9619POPC   PO452260   8.943   5.857   5.855
 9619POPC   GL152261   8.950   5.822   6.155
 9619POPC   GL252262   8.871   5.794   6.155
 9619POPC   C1A52263   8.965   5.882   6.455
 9619POPC   D2A52264   8.936   5.881   6.755
 9619POPC   C3A52265   8.937   5.904   7.055
 9619POPC   C4A52266   8.948   5.894   7.355
 9619POPC   C1B52267   8.825   5.664   6.455
 9619POPC   C2B52268   8.860   5.671   6.755
 9619POPC   C3B52269   8.814   5.621   7.055
 9619POPC   C4B52270   8.817   5.642   7.355
 9620POPC   NC352271  29.914  43.869   5.555
 9620POPC   PO452272  29.889  43.910   5.855
 9620POPC   GL152273  29.873  43.870   6.155
 9620POPC   GL252274  29.870  43.788   6.155
 9620POPC   C1A52275  29.872  43.889   6.455
 9620POPC   D2A52276  29.944  43.916   6.755
 9620POPC   C3A52277  29.965  43.868   7.055
 9620POPC   C4A52278  29.934  43.894   7.355
 9620POPC   C1B52279  29.838  43.629   6.455
 9620POPC   C2B52280  29.881  43.629   6.755
 9620POPC   C3B52281  29.892  43.631   7.055
 9620POPC   C4B52282  29.860  43.613   7.355
 9621POPC   NC352283   8.238  20.613   5.555
 9621POPC   PO452284   8.205  20.657   5.855
 9621POPC   GL152285   8.209  20.654   6.155
 9621POPC   GL252286   8.200  20.776   6.155
 9621POPC   C1A52287   8.242  20.614   6.455
 9621POPC   D2A52288   8.213  20.597   6.755
 9621POPC   C3A52289   8.243  20.636   7.055
 9621POPC   C4A52290   8.187  20.650   7.355
 9621POPC   C1B52291   8.164  20.863   6.455
 9621POPC   C2B52292   8.160  20.804   6.755
 9621POPC   C3B52293   8.130  20.811   7.055
 9621POPC   C4B52294   8.143  20.808   7.355
 9622POPC   NC352295  34.546   6.656   5.555
 9622POPC   PO452296  34.534   6.595   5.855
 9622POPC   GL152297  34.586   6.630   6.155
 9622POPC   GL252298  34.477   6.725   6.155
 9622POPC   C1A52299  34.593   6.655   6.455
 9622POPC   D2A52300  34.561   6.653   6.755
 9622POPC   C3A52301  34.561   6.620   7.055
 9622POPC   C4A52302  34.578   6.672   7.355
 9622POPC   C1B52303  34.435   6.857   6.455
 9622POPC   C2B52304  34.481   6.819   6.755
 9622POPC   C3B52305  34.442   6.887   7.055
 9622POPC   C4B52306  34.450   6.868   7.355
 9623POPC   NC352307  11.298   7.439   5.555
 9623POPC   PO452308  11.279   7.457   5.855
 9623POPC   GL152309  11.333   7.469   6.155
 9623POPC   GL252310  11.297   7.506   6.155
 9623POPC   C1A52311  11.295   7.431   6.455
 9623POPC   D2A52312  11.291   7.466   6.755
 9623POPC   C3A52313  11.275   7.393   7.055
 9623POPC   C4A52314  11.337   7.461   7.355
 9623POPC   C1B52315  11.377   7.705   6.455
 9623POPC   C2B52316  11.416   7.684   6.755
 9623POPC   C3B52317  11.333   7.654   7.055
 9623POPC   C4B52318  11.336   7.671   7.355
 9624POPC   NC352319  22.973  30.723   5.555
 9624POPC   PO452320  22.988  30.694   5.855
 9624POPC   GL152321  22.907  30.729   6.155
 9624POPC   GL252322  22.843  30.595   6.155
 9624POPC   C1A52323  22.941  30.689   6.455
 9624POPC   D2A52324  22.888  30.703   6.755
 9624POPC   C3A52325  22.910  30.713   7.055
 9624POPC   C4A52326  22.979  30.654   7.355
 9624POPC   C1B52327  22.753  30.475   6.455
 9624POPC   C2B52328  22.779  30.494   6.755
 9624POPC   C3B52329  22.748  30.503   7.055
 9624POPC   C4B52330  22.742  30.477   7.355
 9625POPC   NC352331   3.534  15.206   5.555
 9625POPC   PO452332   3.574  15.219   5.855
 9625POPC   GL152333   3.587  15.154   6.155
 9625POPC   GL252334   3.616  15.243   6.155
 9625POPC   C1A52335   3.553  15.163   6.455
 9625POPC   D2A52336   3.588  15.224   6.755
 9625POPC   C3A52337   3.512  15.177   7.055
 9625POPC   C4A52338   3.502  15.134   7.355
 9625POPC   C1B52339   3.704  15.381   6.455
 9625POPC   C2B52340   3.658  15.439   6.755
 9625POPC   C3B52341   3.651  15.358   7.055
 9625POPC   C4B52342   3.675  15.349   7.355
 9626POPC   NC352343  24.536  20.589   5.555
 9626POPC   PO452344  24.450  20.587   5.855
 9626POPC   GL152345  24.449  20.628   6.155
 9626POPC   GL252346  24.591  20.631   6.155
 9626POPC   C1A52347  24.507  20.594   6.455
 9626POPC   D2A52348  24.510  20.613   6.755
 9626POPC   C3A52349  24.450  20.567   7.055
 9626POPC   C4A52350  24.512  20.612   7.355
 9626POPC   C1B52351  24.716  20.701   6.455
 9626POPC   C2B52352  24.686  20.707   6.755
 9626POPC   C3B52353  24.743  20.697   7.055
 9626POPC   C4B52354  24.726  20.718   7.355
 9627POPC   NC352355  19.804  23.732   5.555
 9627POPC   PO452356  19.791  23.669   5.855
 9627POPC   GL152357  19.812  23.742   6.155
 9627POPC   GL252358  19.914  23.762   6.155
 9627POPC   C1A52359  19.857  23.707   6.455
 9627POPC   D2A52360  19.841  23.698   6.755
 9627POPC   C3A52361  19.803  23.693   7.055
 9627POPC   C4A52362  19.882  23.700   7.355
 9627POPC   C1B52363  20.060  23.771   6.455
 9627POPC   C2B52364  20.107  23.795   6.755
 9627POPC   C3B52365  20.065  23.784   7.055
 9627POPC   C4B52366  20.072  23.761   7.355
 9628POPC   NC352367  31.495   6.633   5.555
 9628POPC   PO452368  31.473   6.674   5.855
 9628POPC   GL152369  31.435   6.615   6.155
 9628POPC   GL252370  31.357   6.645   6.155
 9628POPC   C1A52371  31.522   6.686   6.455
 9628POPC   D2A52372  31.516   6.687   6.755
 9628POPC   C3A52373  31.489   6.632   7.055
 9628POPC   C4A52374  31.520   6.678   7.355
 9628POPC   C1B52375  31.266   6.542   6.455
 9628POPC   C2B52376  31.196   6.525   6.755
 9628POPC   C3B52377  31.271   6.593   7.055
 9628POPC   C4B52378  31.201   6.525   7.355
 9629POPC   NC352379  12.101  40.813   5.555
 9629POPC   PO452380  12.050  40.774   5.855
 9629POPC   GL152381  12.063  40.782   6.155
 9629POPC   GL252382  12.170  40.856   6.155
 9629POPC   C1A52383  12.121  40.821   6.455
 9629POPC   D2A52384  12.071  40.799   6.755
 9629POPC   C3A52385  12.113  40.822   7.055
 9629POPC   C4A52386  12.123  40.786   7.355
 9629POPC   C1B52387  12.369  40.850   6.455
 9629POPC   C2B52388  12.353  40.874   6.755
 9629POPC   C3B52389  12.283  40.823   7.055
 9629POPC   C4B52390  12.275  40.879   7.355
 9630POPC   NC352391  15.170  24.493   5.555
 9630POPC   PO452392  15.191  24.440   5.855
 9630POPC   GL152393  15.222  24.442   6.155
 9630POPC   GL252394  15.131  24.592   6.155
 9630POPC   C1A52395  15.167  24.538   6.455
 9630POPC   D2A52396  15.131  24.533   6.755
 9630POPC   C3A52397  15.217  24.537   7.055
 9630POPC   C4A52398  15.225  24.531   7.355
 9630POPC   C1B52399  15.055  24.741   6.455
 9630POPC   C2B52400  14.982  24.710   6.755
 9630POPC   C3B52401  15.036  24.694   7.055
 9630POPC   C4B52402  15.065  24.724   7.355
 9631POPC   NC352403  14.436  15.961   5.555
 9631POPC   PO452404  14.406  15.961   5.855
 9631POPC   GL152405  14.356  15.993   6.155
 9631POPC   GL252406  14.408  15.852   6.155
 9631POPC   C1A52407  14.397  15.971   6.455
 9631POPC   D2A52408  14.363  15.973   6.755
 9631POPC   C3A52409  14.434  15.927   7.055
 9631POPC   C4A52410  14.400  16.005   7.355
 9631POPC   C1B52411  14.323  15.702   6.455
 9631POPC   C2B52412  14.323  15.675   6.755
 9631POPC   C3B52413  14.277  15.748   7.055
 9631POPC   C4B52414  14.296  15.698   7.355
 9632POPC   NC352415   7.457  35.384   5.555
 9632POPC   PO452416   7.376  35.378   5.855
 9632POPC   GL152417   7.380  35.323   6.155
 9632POPC   GL252418   7.554  35.375   6.155
 9632POPC   C1A52419   7.425  35.325   6.455
 9632POPC   D2A52420   7.421  35.323   6.755
 9632POPC   C3A52421   7.470  35.359   7.055
 9632POPC   C4A52422   7.461  35.378   7.355
 9632POPC   C1B52423   7.710  35.282   6.455
 9632POPC   C2B52424   7.640  35.355   6.755
 9632POPC   C3B52425   7.698  35.334   7.055
 9632POPC   C4B52426   7.699  35.337   7.355
 9633POPC   NC352427  34.577  17.478   5.555
 9633POPC   PO452428  34.576  17.476   5.855
 9633POPC   GL152429  34.572  17.462   6.155
 9633POPC   GL252430  34.722  17.436   6.155
 9633POPC   C1A52431  34.610  17.479   6.455
 9633POPC   D2A52432  34.596  17.525   6.755
 9633POPC   C3A52433  34.575  17.509   7.055
 9633POPC   C4A52434  34.526  17.498   7.355
 9633POPC   C1B52435  34.811  17.365   6.455
 9633POPC   C2B52436  34.770  17.368   6.755
 9633POPC   C3B52437  34.741  17.389   7.055
 9633POPC   C4B52438  34.803  17.354   7.355
 9634POPC   NC352439  14.409  26.803   5.555
 9634POPC   PO452440  14.412  26.777   5.855
 9634POPC   GL152441  14.453  26.806   6.155
 9634POPC   GL252442  14.375  26.714   6.155
 9634POPC   C1A52443  14.431  26.845   6.455
 9634POPC   D2A52444  14.387  26.778   6.755
 9634POPC   C3A52445  14.414  26.814   7.055
 9634POPC   C4A52446  14.357  26.803   7.355
 9634POPC   C1B52447  14.427  26.540   6.455
 9634POPC   C2B52448  14.488  26.524   6.755
 9634POPC   C3B52449  14.407  26.537   7.055
 9634POPC   C4B52450  14.457  26.541   7.355
 9635POPC   NC352451  17.505  12.047   5.555
 9635POPC   PO452452  17.466  12.093   5.855
 9635POPC   GL152453  17.482  12.092   6.155
 9635POPC   GL252454  17.474  11.966   6.155
 9635POPC   C1A52455  17.554  12.083   6.455
 9635POPC   D2A52456  17.520  12.054   6.755
 9635POPC   C3A52457  17.540  12.056   7.055
 9635POPC   C4A52458  17.526  12.042   7.355
 9635POPC   C1B52459  17.424  11.835   6.455
 9635POPC   C2B52460  17.451  11.800   6.755
 9635POPC   C3B52461  17.456  11.879   7.055
 9635POPC   C4B52462  17.494  11.858   7.355
 9636POPC   NC352463  27.618   9.003   5.555
 9636POPC   PO452464  27.634   8.957   5.855
 9636POPC   GL152465  27.563   9.021   6.155
 9636POPC   GL252466  27.622   9.100   6.155
 9636POPC   C1A52467  27.603   8.946   6.455
 9636POPC   D2A52468  27.594   8.926   6.755
 9636POPC   C3A52469  27.560   9.009   7.055
 9636POPC   C4A52470  27.589   8.945   7.355
 9636POPC   C1B52471  27.705   9.151   6.455
 9636POPC   C2B52472  27.778   9.219   6.755
 9636POPC   C3B52473  27.741   9.173   7.055
 9636POPC   C4B52474  27.777   9.166   7.355
 9637POPC   NC352475   3.503  41.560   5.555
 9637POPC   PO452476   3.562  41.576   5.855
 9637POPC   GL152477   3.525  41.513   6.155
 9637POPC   GL252478   3.465  41.638   6.155
 9637POPC   C1A52479   3.498  41.570   6.455
 9637POPC   D2A52480   3.572  41.539   6.755
 9637POPC   C3A52481   3.578  41.541   7.055
 9637POPC   C4A52482   3.573  41.513   7.355
 9637POPC   C1B52483   3.375  41.808   6.455
 9637POPC   C2B52484   3.399  41.729   6.755
 9637POPC   C3B52485   3.391  41.801   7.055
 9637POPC   C4B52486   3.448  41.739   7.355
 9638POPC   NC352487  15.149  36.095   5.555
 9638POPC   PO452488  15.165  36.174   5.855
 9638POPC   GL152489  15.211  36.165   6.155
 9638POPC   GL252490  15.192  35.974   6.155
 9638POPC   C1A52491  15.183  36.167   6.455
 9638POPC   D2A52492  15.141  36.156   6.755
 9638POPC   C3A52493  15.139  36.176   7.055
 9638POPC   C4A52494  15.143  36.177   7.355
 9638POPC   C1B52495  15.125  35.884   6.455
 9638POPC   C2B52496  15.160  35.888   6.755
 9638POPC   C3B52497  15.151  35.900   7.055
 9638POPC   C4B52498  15.151  35.858   7.355
 9639POPC   NC352499  21.398  30.687   5.555
 9639POPC   PO452500  21.343  30.651   5.855
 9639POPC   GL152501  21.433  30.654   6.155
 9639POPC   GL252502  21.239  30.623   6.155
 9639POPC   C1A52503  21.362  30.693   6.455
 9639POPC   D2A52504  21.416  30.690   6.755
 9639POPC   C3A52505  21.404  30.697   7.055
 9639POPC   C4A52506  21.360  30.728   7.355
 9639POPC   C1B52507  21.192  30.605   6.455
 9639POPC   C2B52508  21.168  30.535   6.755
 9639POPC   C3B52509  21.163  30.531   7.055
 9639POPC   C4B52510  21.153  30.561   7.355
 9640POPC   NC352511  12.847  15.980   5.555
 9640POPC   PO452512  12.862  15.948   5.855
 9640POPC   GL152513  12.827  15.963   6.155
 9640POPC   GL252514  12.772  16.000   6.155
 9640POPC   C1A52515  12.893  15.928   6.455
 9640POPC   D2A52516  12.813  15.981   6.755
 9640POPC   C3A52517  12.898  15.931   7.055
 9640POPC   C4A52518  12.839  15.915   7.355
 9640POPC   C1B52519  12.649  16.098   6.455
 9640POPC   C2B52520  12.687  16.107   6.755
 9640POPC   C3B52521  12.671  16.099   7.055
 9640POPC   C4B52522  12.710  16.161   7.355
 9641POPC   NC352523  15.915  33.001   5.555
 9641POPC   PO452524  15.989  33.045   5.855
 9641POPC   GL152525  15.914  33.041   6.155
 9641POPC   GL252526  16.120  33.052   6.155
 9641POPC   C1A52527  15.962  32.994   6.455
 9641POPC   D2A52528  15.917  33.063   6.755
 9641POPC   C3A52529  15.952  33.039   7.055
 9641POPC   C4A52530  15.984  33.032   7.355
 9641POPC   C1B52531  16.245  33.039   6.455
 9641POPC   C2B52532  16.230  32.976   6.755
 9641POPC   C3B52533  16.172  32.987   7.055
 9641POPC   C4B52534  16.155  33.005   7.355
 9642POPC   NC352535  38.409  43.846   5.555
 9642POPC   PO452536  38.416  43.837   5.855
 9642POPC   GL152537  38.418  43.910   6.155
 9642POPC   GL252538  38.477  44.033   6.155
 9642POPC   C1A52539  38.473  43.878   6.455
 9642POPC   D2A52540  38.491  43.871   6.755
 9642POPC   C3A52541  38.489  43.861   7.055
 9642POPC   C4A52542  38.453  43.906   7.355
 9642POPC   C1B52543  38.453  44.100   6.455
 9642POPC   C2B52544  38.423  44.183   6.755
 9642POPC   C3B52545  38.444  44.158   7.055
 9642POPC   C4B52546  38.444  44.174   7.355
 9643POPC   NC352547  27.591  43.912   5.555
 9643POPC   PO452548  27.641  43.848   5.855
 9643POPC   GL152549  27.563  43.898   6.155
 9643POPC   GL252550  27.471  43.952   6.155
 9643POPC   C1A52551  27.613  43.842   6.455
 9643POPC   D2A52552  27.580  43.928   6.755
 9643POPC   C3A52553  27.599  43.887   7.055
 9643POPC   C4A52554  27.616  43.912   7.355
 9643POPC   C1B52555  27.429  44.037   6.455
 9643POPC   C2B52556  27.408  44.004   6.755
 9643POPC   C3B52557  27.362  43.999   7.055
 9643POPC   C4B52558  27.422  44.063   7.355
 9644POPC   NC352559   3.546  31.455   5.555
 9644POPC   PO452560   3.520  31.510   5.855
 9644POPC   GL152561   3.535  31.514   6.155
 9644POPC   GL252562   3.689  31.440   6.155
 9644POPC   C1A52563   3.494  31.473   6.455
 9644POPC   D2A52564   3.522  31.499   6.755
 9644POPC   C3A52565   3.587  31.469   7.055
 9644POPC   C4A52566   3.517  31.469   7.355
 9644POPC   C1B52567   3.797  31.429   6.455
 9644POPC   C2B52568   3.741  31.473   6.755
 9644POPC   C3B52569   3.745  31.426   7.055
 9644POPC   C4B52570   3.802  31.451   7.355
 9645POPC   NC352571  42.338  16.005   5.555
 9645POPC   PO452572  42.376  15.927   5.855
 9645POPC   GL152573  42.316  15.931   6.155
 9645POPC   GL252574  42.253  16.012   6.155
 9645POPC   C1A52575  42.357  15.944   6.455
 9645POPC   D2A52576  42.374  15.995   6.755
 9645POPC   C3A52577  42.285  16.004   7.055
 9645POPC   C4A52578  42.289  15.922   7.355
 9645POPC   C1B52579  42.103  16.095   6.455
 9645POPC   C2B52580  42.118  16.046   6.755
 9645POPC   C3B52581  42.140  16.052   7.055
 9645POPC   C4B52582  42.124  16.132   7.355
 9646POPC   NC352583  27.634   5.139   5.555
 9646POPC   PO452584  27.562   5.094   5.855
 9646POPC   GL152585  27.551   5.075   6.155
 9646POPC   GL252586  27.492   5.028   6.155
 9646POPC   C1A52587  27.581   5.118   6.455
 9646POPC   D2A52588  27.616   5.123   6.755
 9646POPC   C3A52589  27.577   5.058   7.055
 9646POPC   C4A52590  27.573   5.128   7.355
 9646POPC   C1B52591  27.508   4.914   6.455
 9646POPC   C2B52592  27.478   4.861   6.755
 9646POPC   C3B52593  27.507   4.865   7.055
 9646POPC   C4B52594  27.451   4.835   7.355
 9647POPC   NC352595  36.926  33.012   5.555
 9647POPC   PO452596  36.865  33.010   5.855
 9647POPC   GL152597  36.932  32.982   6.155
 9647POPC   GL252598  36.806  32.990   6.155
 9647POPC   C1A52599  36.908  33.024   6.455
 9647POPC   D2A52600  36.873  33.065   6.755
 9647POPC   C3A52601  36.916  33.018   7.055
 9647POPC   C4A52602  36.927  33.010   7.355
 9647POPC   C1B52603  36.626  32.982   6.455
 9647POPC   C2B52604  36.651  33.002   6.755
 9647POPC   C3B52605  36.660  32.955   7.055
 9647POPC   C4B52606  36.659  32.967   7.355
 9648POPC   NC352607  21.369  22.200   5.555
 9648POPC   PO452608  21.433  22.176   5.855
 9648POPC   GL152609  21.426  22.152   6.155
 9648POPC   GL252610  21.384  22.267   6.155
 9648POPC   C1A52611  21.436  22.196   6.455
 9648POPC   D2A52612  21.436  22.160   6.755
 9648POPC   C3A52613  21.369  22.190   7.055
 9648POPC   C4A52614  21.366  22.201   7.355
 9648POPC   C1B52615  21.293  22.440   6.455
 9648POPC   C2B52616  21.345  22.429   6.755
 9648POPC   C3B52617  21.327  22.449   7.055
 9648POPC   C4B52618  21.332  22.411   7.355
 9649POPC   NC352619  43.143   5.853   5.555
 9649POPC   PO452620  43.082   5.878   5.855
 9649POPC   GL152621  43.144   5.909   6.155
 9649POPC   GL252622  43.197   5.955   6.155
 9649POPC   C1A52623  43.083   5.854   6.455
 9649POPC   D2A52624  43.147   5.863   6.755
 9649POPC   C3A52625  43.146   5.913   7.055
 9649POPC   C4A52626  43.073   5.884   7.355
 9649POPC   C1B52627  43.328   6.008   6.455
 9649POPC   C2B52628  43.315   6.050   6.755
 9649POPC   C3B52629  43.313   6.045   7.055
 9649POPC   C4B52630  43.296   6.041   7.355
 9650POPC   NC352631  33.814  22.163   5.555
 9650POPC   PO452632  33.840  22.179   5.855
 9650POPC   GL152633  33.794  22.167   6.155
 9650POPC   GL252634  33.876  22.234   6.155
 9650POPC   C1A52635  33.768  22.185   6.455
 9650POPC   D2A52636  33.849  22.159   6.755
 9650POPC   C3A52637  33.773  22.167   7.055
 9650POPC   C4A52638  33.817  22.199   7.355
 9650POPC   C1B52639  33.997  22.300   6.455
 9650POPC   C2B52640  34.007  22.280   6.755
 9650POPC   C3B52641  34.023  22.278   7.055
 9650POPC   C4B52642  33.989  22.290   7.355
 9651POPC   NC352643  16.738  22.175   5.555
 9651POPC   PO452644  16.704  22.117   5.855
 9651POPC   GL152645  16.686  22.176   6.155
 9651POPC   GL252646  16.645  22.069   6.155
 9651POPC   C1A52647  16.688  22.167   6.455
 9651POPC   D2A52648  16.736  22.189   6.755
 9651POPC   C3A52649  16.763  22.163   7.055
 9651POPC   C4A52650  16.740  22.129   7.355
 9651POPC   C1B52651  16.675  21.895   6.455
 9651POPC   C2B52652  16.649  21.956   6.755
 9651POPC   C3B52653  16.618  21.952   7.055
 9651POPC   C4B52654  16.645  21.927   7.355
 9652POPC   NC352655  16.765  39.272   5.555
 9652POPC   PO452656  16.724  39.278   5.855
 9652POPC   GL152657  16.685  39.241   6.155
 9652POPC   GL252658  16.897  39.240   6.155
 9652POPC   C1A52659  16.701  39.242   6.455
 9652POPC   D2A52660  16.683  39.202   6.755
 9652POPC   C3A52661  16.750  39.212   7.055
 9652POPC   C4A52662  16.701  39.272   7.355
 9652POPC   C1B52663  16.936  39.224   6.455
 9652POPC   C2B52664  16.954  39.273   6.755
 9652POPC   C3B52665  16.970  39.277   7.055
 9652POPC   C4B52666  16.987  39.217   7.355
 9653POPC   NC352667  32.978  40.040   5.555
 9653POPC   PO452668  33.000  40.040   5.855
 9653POPC   GL152669  33.057  39.991   6.155
 9653POPC   GL252670  32.937  40.014   6.155
 9653POPC   C1A52671  32.990  39.972   6.455
 9653POPC   D2A52672  33.059  39.991   6.755
 9653POPC   C3A52673  32.984  40.016   7.055
 9653POPC   C4A52674  33.043  40.009   7.355
 9653POPC   C1B52675  32.814  40.010   6.455
 9653POPC   C2B52676  32.812  39.980   6.755
 9653POPC   C3B52677  32.749  40.058   7.055
 9653POPC   C4B52678  32.810  40.035   7.355
 9654POPC   NC352679  18.274  39.247   5.555
 9654POPC   PO452680  18.313  39.220   5.855
 9654POPC   GL152681  18.244  39.242   6.155
 9654POPC   GL252682  18.182  39.173   6.155
 9654POPC   C1A52683  18.329  39.209   6.455
 9654POPC   D2A52684  18.287  39.257   6.755
 9654POPC   C3A52685  18.293  39.276   7.055
 9654POPC   C4A52686  18.297  39.231   7.355
 9654POPC   C1B52687  18.085  39.014   6.455
 9654POPC   C2B52688  18.088  39.073   6.755
 9654POPC   C3B52689  18.133  39.045   7.055
 9654POPC   C4B52690  18.149  39.031   7.355
 9655POPC   NC352691  27.560  39.959   5.555
 9655POPC   PO452692  27.643  40.056   5.855
 9655POPC   GL152693  27.633  39.979   6.155
 9655POPC   GL252694  27.493  39.881   6.155
 9655POPC   C1A52695  27.633  40.027   6.455
 9655POPC   D2A52696  27.608  40.047   6.755
 9655POPC   C3A52697  27.557  39.959   7.055
 9655POPC   C4A52698  27.555  40.028   7.355
 9655POPC   C1B52699  27.450  39.780   6.455
 9655POPC   C2B52700  27.428  39.810   6.755
 9655POPC   C3B52701  27.487  39.775   7.055
 9655POPC   C4B52702  27.395  39.828   7.355
 9656POPC   NC352703  18.269  15.906   5.555
 9656POPC   PO452704  18.298  15.955   5.855
 9656POPC   GL152705  18.296  15.926   6.155
 9656POPC   GL252706  18.220  16.028   6.155
 9656POPC   C1A52707  18.328  16.004   6.455
 9656POPC   D2A52708  18.307  15.930   6.755
 9656POPC   C3A52709  18.306  15.930   7.055
 9656POPC   C4A52710  18.330  15.963   7.355
 9656POPC   C1B52711  18.157  16.106   6.455
 9656POPC   C2B52712  18.085  16.106   6.755
 9656POPC   C3B52713  18.103  16.132   7.055
 9656POPC   C4B52714  18.159  16.169   7.355
 9657POPC   NC352715  12.123  42.336   5.555
 9657POPC   PO452716  12.084  42.293   5.855
 9657POPC   GL152717  12.073  42.310   6.155
 9657POPC   GL252718  12.249  42.356   6.155
 9657POPC   C1A52719  12.083  42.336   6.455
 9657POPC   D2A52720  12.076  42.313   6.755
 9657POPC   C3A52721  12.053  42.287   7.055
 9657POPC   C4A52722  12.112  42.319   7.355
 9657POPC   C1B52723  12.306  42.302   6.455
 9657POPC   C2B52724  12.284  42.344   6.755
 9657POPC   C3B52725  12.322  42.295   7.055
 9657POPC   C4B52726  12.352  42.277   7.355
 9658POPC   NC352727  21.366  29.953   5.555
 9658POPC   PO452728  21.365  29.937   5.855
 9658POPC   GL152729  21.416  29.933   6.155
 9658POPC   GL252730  21.420  29.789   6.155
 9658POPC   C1A52731  21.346  29.967   6.455
 9658POPC   D2A52732  21.368  29.892   6.755
 9658POPC   C3A52733  21.423  29.941   7.055
 9658POPC   C4A52734  21.399  29.880   7.355
 9658POPC   C1B52735  21.435  29.673   6.455
 9658POPC   C2B52736  21.371  29.652   6.755
 9658POPC   C3B52737  21.434  29.710   7.055
 9658POPC   C4B52738  21.363  29.663   7.355
 9659POPC   NC352739   0.425  30.665   5.555
 9659POPC   PO452740   0.427  30.684   5.855
 9659POPC   GL152741   0.487  30.660   6.155
 9659POPC   GL252742   0.283  30.746   6.155
 9659POPC   C1A52743   0.401  30.724   6.455
 9659POPC   D2A52744   0.390  30.665   6.755
 9659POPC   C3A52745   0.440  30.735   7.055
 9659POPC   C4A52746   0.449  30.698   7.355
 9659POPC   C1B52747   0.214  30.775   6.455
 9659POPC   C2B52748   0.161  30.789   6.755
 9659POPC   C3B52749   0.246  30.790   7.055
 9659POPC   C4B52750   0.207  30.781   7.355
 9660POPC   NC352751  39.987  14.410   5.555
 9660POPC   PO452752  39.988  14.409   5.855
 9660POPC   GL152753  39.984  14.451   6.155
 9660POPC   GL252754  40.040  14.262   6.155
 9660POPC   C1A52755  40.005  14.406   6.455
 9660POPC   D2A52756  39.966  14.368   6.755
 9660POPC   C3A52757  40.038  14.439   7.055
 9660POPC   C4A52758  40.049  14.378   7.355
 9660POPC   C1B52759  39.955  14.205   6.455
 9660POPC   C2B52760  40.006  14.141   6.755
 9660POPC   C3B52761  39.971  14.193   7.055
 9660POPC   C4B52762  40.016  14.191   7.355
 9661POPC   NC352763  25.306   8.163   5.555
 9661POPC   PO452764  25.278   8.168   5.855
 9661POPC   GL152765  25.281   8.182   6.155
 9661POPC   GL252766  25.338   8.308   6.155
 9661POPC   C1A52767  25.228   8.154   6.455
 9661POPC   D2A52768  25.293   8.157   6.755
 9661POPC   C3A52769  25.276   8.223   7.055
 9661POPC   C4A52770  25.257   8.211   7.355
 9661POPC   C1B52771  25.491   8.324   6.455
 9661POPC   C2B52772  25.483   8.384   6.755
 9661POPC   C3B52773  25.466   8.304   7.055
 9661POPC   C4B52774  25.434   8.343   7.355
 9662POPC   NC352775   5.060  18.290   5.555
 9662POPC   PO452776   5.141  18.282   5.855
 9662POPC   GL152777   5.129  18.238   6.155
 9662POPC   GL252778   4.980  18.285   6.155
 9662POPC   C1A52779   5.047  18.299   6.455
 9662POPC   D2A52780   5.109  18.330   6.755
 9662POPC   C3A52781   5.074  18.242   7.055
 9662POPC   C4A52782   5.104  18.236   7.355
 9662POPC   C1B52783   4.854  18.410   6.455
 9662POPC   C2B52784   4.850  18.334   6.755
 9662POPC   C3B52785   4.835  18.391   7.055
 9662POPC   C4B52786   4.899  18.396   7.355
 9663POPC   NC352787   8.226   9.750   5.555
 9663POPC   PO452788   8.208   9.746   5.855
 9663POPC   GL152789   8.167   9.754   6.155
 9663POPC   GL252790   8.165   9.831   6.155
 9663POPC   C1A52791   8.148   9.711   6.455
 9663POPC   D2A52792   8.198   9.773   6.755
 9663POPC   C3A52793   8.173   9.731   7.055
 9663POPC   C4A52794   8.185   9.721   7.355
 9663POPC   C1B52795   8.041   9.924   6.455
 9663POPC   C2B52796   8.111   9.926   6.755
 9663POPC   C3B52797   8.101   9.952   7.055
 9663POPC   C4B52798   8.080   9.990   7.355
 9664POPC   NC352799  15.229  29.170   5.555
 9664POPC   PO452800  15.130  29.100   5.855
 9664POPC   GL152801  15.146  29.179   6.155
 9664POPC   GL252802  15.259  29.134   6.155
 9664POPC   C1A52803  15.184  29.148   6.455
 9664POPC   D2A52804  15.207  29.175   6.755
 9664POPC   C3A52805  15.202  29.187   7.055
 9664POPC   C4A52806  15.146  29.178   7.355
 9664POPC   C1B52807  15.378  29.135   6.455
 9664POPC   C2B52808  15.457  29.050   6.755
 9664POPC   C3B52809  15.462  29.064   7.055
 9664POPC   C4B52810  15.383  29.071   7.355
 9665POPC   NC352811  32.262  44.687   5.555
 9665POPC   PO452812  32.293  44.673   5.855
 9665POPC   GL152813  32.234  44.654   6.155
 9665POPC   GL252814  32.296  44.552   6.155
 9665POPC   C1A52815  32.245  44.676   6.455
 9665POPC   D2A52816  32.247  44.690   6.755
 9665POPC   C3A52817  32.272  44.698   7.055
 9665POPC   C4A52818  32.216  44.696   7.355
 9665POPC   C1B52819  32.335  44.464   6.455
 9665POPC   C2B52820  32.346  44.468   6.755
 9665POPC   C3B52821  32.308  44.462   7.055
 9665POPC   C4B52822  32.331  44.454   7.355
 9666POPC   NC352823  16.756   5.888   5.555
 9666POPC   PO452824  16.757   5.880   5.855
 9666POPC   GL152825  16.746   5.861   6.155
 9666POPC   GL252826  16.615   5.820   6.155
 9666POPC   C1A52827  16.700   5.887   6.455
 9666POPC   D2A52828  16.715   5.878   6.755
 9666POPC   C3A52829  16.740   5.842   7.055
 9666POPC   C4A52830  16.701   5.860   7.355
 9666POPC   C1B52831  16.477   5.819   6.455
 9666POPC   C2B52832  16.499   5.739   6.755
 9666POPC   C3B52833  16.461   5.740   7.055
 9666POPC   C4B52834  16.489   5.792   7.355
 9667POPC   NC352835  18.320  36.928   5.555
 9667POPC   PO452836  18.309  36.883   5.855
 9667POPC   GL152837  18.272  36.907   6.155
 9667POPC   GL252838  18.250  36.777   6.155
 9667POPC   C1A52839  18.328  36.911   6.455
 9667POPC   D2A52840  18.299  36.874   6.755
 9667POPC   C3A52841  18.316  36.933   7.055
 9667POPC   C4A52842  18.319  36.865   7.355
 9667POPC   C1B52843  18.151  36.719   6.455
 9667POPC   C2B52844  18.215  36.727   6.755
 9667POPC   C3B52845  18.181  36.671   7.055
 9667POPC   C4B52846  18.196  36.639   7.355
 9668POPC   NC352847   8.175  44.648   5.555
 9668POPC   PO452848   8.245  44.696   5.855
 9668POPC   GL152849   8.177  44.679   6.155
 9668POPC   GL252850   8.090  44.661   6.155
 9668POPC   C1A52851   8.202  44.709   6.455
 9668POPC   D2A52852   8.162  44.626   6.755
 9668POPC   C3A52853   8.236  44.703   7.055
 9668POPC   C4A52854   8.201  44.702   7.355
 9668POPC   C1B52855   7.949  44.656   6.455
 9668POPC   C2B52856   7.959  44.650   6.755
 9668POPC   C3B52857   7.960  44.612   7.055
 9668POPC   C4B52858   7.966  44.632   7.355
 9669POPC   NC352859  37.651  38.480   5.555
 9669POPC   PO452860  37.727  38.432   5.855
 9669POPC   GL152861  37.643  38.429   6.155
 9669POPC   GL252862  37.512  38.434   6.155
 9669POPC   C1A52863  37.650  38.443   6.455
 9669POPC   D2A52864  37.636  38.448   6.755
 9669POPC   C3A52865  37.729  38.410   7.055
 9669POPC   C4A52866  37.729  38.479   7.355
 9669POPC   C1B52867  37.437  38.472   6.455
 9669POPC   C2B52868  37.449  38.461   6.755
 9669POPC   C3B52869  37.476  38.521   7.055
 9669POPC   C4B52870  37.440  38.446   7.355
 9670POPC   NC352871  19.034  44.703   5.555
 9670POPC   PO452872  19.091  44.629   5.855
 9670POPC   GL152873  19.075  44.631   6.155
 9670POPC   GL252874  18.957  44.704   6.155
 9670POPC   C1A52875  19.077  44.614   6.455
 9670POPC   D2A52876  19.028  44.627   6.755
 9670POPC   C3A52877  19.024  44.614   7.055
 9670POPC   C4A52878  19.018  44.638   7.355
 9670POPC   C1B52879  18.824  44.840   6.455
 9670POPC   C2B52880  18.879  44.788   6.755
 9670POPC   C3B52881  18.901  44.859   7.055
 9670POPC   C4B52882  18.878  44.804   7.355
 9671POPC   NC352883  22.927  31.426   5.555
 9671POPC   PO452884  22.936  31.452   5.855
 9671POPC   GL152885  22.953  31.444   6.155
 9671POPC   GL252886  22.861  31.384   6.155
 9671POPC   C1A52887  22.932  31.429   6.455
 9671POPC   D2A52888  22.987  31.431   6.755
 9671POPC   C3A52889  22.929  31.453   7.055
 9671POPC   C4A52890  22.930  31.437   7.355
 9671POPC   C1B52891  22.766  31.357   6.455
 9671POPC   C2B52892  22.771  31.312   6.755
 9671POPC   C3B52893  22.716  31.342   7.055
 9671POPC   C4B52894  22.723  31.341   7.355
 9672POPC   NC352895  24.515  28.330   5.555
 9672POPC   PO452896  24.527  28.334   5.855
 9672POPC   GL152897  24.456  28.321   6.155
 9672POPC   GL252898  24.452  28.414   6.155
 9672POPC   C1A52899  24.468  28.338   6.455
 9672POPC   D2A52900  24.511  28.411   6.755
 9672POPC   C3A52901  24.494  28.349   7.055
 9672POPC   C4A52902  24.507  28.364   7.355
 9672POPC   C1B52903  24.345  28.577   6.455
 9672POPC   C2B52904  24.348  28.559   6.755
 9672POPC   C3B52905  24.345  28.527   7.055
 9672POPC   C4B52906  24.277  28.570   7.355
 9673POPC   NC352907   5.829  11.269   5.555
 9673POPC   PO452908   5.834  11.262   5.855
 9673POPC   GL152909   5.839  11.305   6.155
 9673POPC   GL252910   5.940  11.148   6.155
 9673POPC   C1A52911   5.862  11.277   6.455
 9673POPC   D2A52912   5.820  11.299   6.755
 9673POPC   C3A52913   5.887  11.262   7.055
 9673POPC   C4A52914   5.853  11.328   7.355
 9673POPC   C1B52915   5.990  11.029   6.455
 9673POPC   C2B52916   5.967  11.030   6.755
 9673POPC   C3B52917   5.984  11.100   7.055
 9673POPC   C4B52918   5.930  11.100   7.355
 9674POPC   NC352919  21.367  25.244   5.555
 9674POPC   PO452920  21.343  25.247   5.855
 9674POPC   GL152921  21.405  25.309   6.155
 9674POPC   GL252922  21.326  25.165   6.155
 9674POPC   C1A52923  21.344  25.307   6.455
 9674POPC   D2A52924  21.426  25.274   6.755
 9674POPC   C3A52925  21.363  25.231   7.055
 9674POPC   C4A52926  21.343  25.274   7.355
 9674POPC   C1B52927  21.258  24.998   6.455
 9674POPC   C2B52928  21.279  25.016   6.755
 9674POPC   C3B52929  21.277  24.990   7.055
 9674POPC   C4B52930  21.329  24.994   7.355
 9675POPC   NC352931  26.027  19.878   5.555
 9675POPC   PO452932  26.045  19.861   5.855
 9675POPC   GL152933  26.051  19.810   6.155
 9675POPC   GL252934  26.077  19.910   6.155
 9675POPC   C1A52935  26.060  19.836   6.455
 9675POPC   D2A52936  26.003  19.806   6.755
 9675POPC   C3A52937  26.033  19.864   7.055
 9675POPC   C4A52938  26.022  19.843   7.355
 9675POPC   C1B52939  26.174  20.031   6.455
 9675POPC   C2B52940  26.157  20.037   6.755
 9675POPC   C3B52941  26.229  20.078   7.055
 9675POPC   C4B52942  26.161  20.014   7.355
 9676POPC   NC352943  17.533  29.909   5.555
 9676POPC   PO452944  17.492  29.910   5.855
 9676POPC   GL152945  17.501  29.888   6.155
 9676POPC   GL252946  17.581  29.967   6.155
 9676POPC   C1A52947  17.541  29.871   6.455
 9676POPC   D2A52948  17.547  29.944   6.755
 9676POPC   C3A52949  17.521  29.915   7.055
 9676POPC   C4A52950  17.457  29.874   7.355
 9676POPC   C1B52951  17.699  30.008   6.455
 9676POPC   C2B52952  17.757  30.056   6.755
 9676POPC   C3B52953  17.733  30.038   7.055
 9676POPC   C4B52954  17.704  30.069   7.355
 9677POPC   NC352955  19.858  18.285   5.555
 9677POPC   PO452956  19.801  18.246   5.855
 9677POPC   GL152957  19.850  18.294   6.155
 9677POPC   GL252958  19.712  18.302   6.155
 9677POPC   C1A52959  19.810  18.244   6.455
 9677POPC   D2A52960  19.793  18.330   6.755
 9677POPC   C3A52961  19.842  18.266   7.055
 9677POPC   C4A52962  19.874  18.262   7.355
 9677POPC   C1B52963  19.565  18.249   6.455
 9677POPC   C2B52964  19.588  18.283   6.755
 9677POPC   C3B52965  19.549  18.293   7.055
 9677POPC   C4B52966  19.633  18.240   7.355
 9678POPC   NC352967  10.536   7.431   5.555
 9678POPC   PO452968  10.566   7.375   5.855
 9678POPC   GL152969  10.560   7.451   6.155
 9678POPC   GL252970  10.379   7.333   6.155
 9678POPC   C1A52971  10.494   7.426   6.455
 9678POPC   D2A52972  10.526   7.431   6.755
 9678POPC   C3A52973  10.488   7.421   7.055
 9678POPC   C4A52974  10.559   7.377   7.355
 9678POPC   C1B52975  10.330   7.283   6.455
 9678POPC   C2B52976  10.329   7.329   6.755
 9678POPC   C3B52977  10.326   7.289   7.055
 9678POPC   C4B52978  10.336   7.272   7.355
 9679POPC   NC352979   5.874  41.536   5.555
 9679POPC   PO452980   5.916  41.600   5.855
 9679POPC   GL152981   5.901  41.510   6.155
 9679POPC   GL252982   5.877  41.653   6.155
 9679POPC   C1A52983   5.913  41.553   6.455
 9679POPC   D2A52984   5.918  41.540   6.755
 9679POPC   C3A52985   5.855  41.556   7.055
 9679POPC   C4A52986   5.890  41.550   7.355
 9679POPC   C1B52987   5.935  41.771   6.455
 9679POPC   C2B52988   5.933  41.825   6.755
 9679POPC   C3B52989   5.900  41.789   7.055
 9679POPC   C4B52990   5.905  41.812   7.355
 9680POPC   NC352991  10.500  10.574   5.555
 9680POPC   PO452992  10.531  10.503   5.855
 9680POPC   GL152993  10.522  10.574   6.155
 9680POPC   GL252994  10.428  10.547   6.155
 9680POPC   C1A52995  10.548  10.554   6.455
 9680POPC   D2A52996  10.504  10.477   6.755
 9680POPC   C3A52997  10.558  10.544   7.055
 9680POPC   C4A52998  10.511  10.491   7.355
 9680POPC   C1B52999  10.292  10.586   6.455
 9680POPC   C2B53000  10.303  10.589   6.755
 9680POPC   C3B53001  10.244  10.511   7.055
 9680POPC   C4B53002  10.321  10.572   7.355
 9681POPC   NC353003  19.837  40.762   5.555
 9681POPC   PO453004  19.790  40.824   5.855
 9681POPC   GL153005  19.869  40.790   6.155
 9681POPC   GL253006  19.710  40.691   6.155
 9681POPC   C1A53007  19.882  40.741   6.455
 9681POPC   D2A53008  19.877  40.783   6.755
 9681POPC   C3A53009  19.821  40.774   7.055
 9681POPC   C4A53010  19.788  40.792   7.355
 9681POPC   C1B53011  19.603  40.718   6.455
 9681POPC   C2B53012  19.648  40.705   6.755
 9681POPC   C3B53013  19.566  40.665   7.055
 9681POPC   C4B53014  19.630  40.686   7.355
 9682POPC   NC353015  26.013  43.158   5.555
 9682POPC   PO453016  26.063  43.069   5.855
 9682POPC   GL153017  26.015  43.151   6.155
 9682POPC   GL253018  26.125  43.234   6.155
 9682POPC   C1A53019  26.004  43.077   6.455
 9682POPC   D2A53020  26.013  43.107   6.755
 9682POPC   C3A53021  26.089  43.105   7.055
 9682POPC   C4A53022  26.041  43.111   7.355
 9682POPC   C1B53023  26.217  43.341   6.455
 9682POPC   C2B53024  26.248  43.259   6.755
 9682POPC   C3B53025  26.167  43.258   7.055
 9682POPC   C4B53026  26.245  43.250   7.355
 9683POPC   NC353027  19.871  37.646   5.555
 9683POPC   PO453028  19.840  37.653   5.855
 9683POPC   GL153029  19.876  37.632   6.155
 9683POPC   GL253030  19.709  37.610   6.155
 9683POPC   C1A53031  19.867  37.648   6.455
 9683POPC   D2A53032  19.821  37.697   6.755
 9683POPC   C3A53033  19.858  37.672   7.055
 9683POPC   C4A53034  19.791  37.722   7.355
 9683POPC   C1B53035  19.604  37.575   6.455
 9683POPC   C2B53036  19.564  37.663   6.755
 9683POPC   C3B53037  19.582  37.661   7.055
 9683POPC   C4B53038  19.627  37.642   7.355
 9684POPC   NC353039   6.676  19.805   5.555
 9684POPC   PO453040   6.633  19.875   5.855
 9684POPC   GL153041   6.678  19.871   6.155
 9684POPC   GL253042   6.570  19.954   6.155
 9684POPC   C1A53043   6.613  19.871   6.455
 9684POPC   D2A53044   6.647  19.844   6.755
 9684POPC   C3A53045   6.680  19.834   7.055
 9684POPC   C4A53046   6.675  19.802   7.355
 9684POPC   C1B53047   6.596  20.046   6.455
 9684POPC   C2B53048   6.607  20.072   6.755
 9684POPC   C3B53049   6.573  20.082   7.055
 9684POPC   C4B53050   6.611  20.048   7.355
 9685POPC   NC353051  18.310  17.516   5.555
 9685POPC   PO453052  18.289  17.512   5.855
 9685POPC   GL153053  18.281  17.535   6.155
 9685POPC   GL253054  18.248  17.657   6.155
 9685POPC   C1A53055  18.302  17.510   6.455
 9685POPC   D2A53056  18.276  17.509   6.755
 9685POPC   C3A53057  18.329  17.509   7.055
 9685POPC   C4A53058  18.269  17.536   7.355
 9685POPC   C1B53059  18.196  17.782   6.455
 9685POPC   C2B53060  18.182  17.687   6.755
 9685POPC   C3B53061  18.185  17.743   7.055
 9685POPC   C4B53062  18.186  17.718   7.355
 9686POPC   NC353063  18.296  22.113   5.555
 9686POPC   PO453064  18.325  22.137   5.855
 9686POPC   GL153065  18.290  22.183   6.155
 9686POPC   GL253066  18.331  22.274   6.155
 9686POPC   C1A53067  18.267  22.174   6.455
 9686POPC   D2A53068  18.315  22.115   6.755
 9686POPC   C3A53069  18.255  22.162   7.055
 9686POPC   C4A53070  18.329  22.144   7.355
 9686POPC   C1B53071  18.301  22.429   6.455
 9686POPC   C2B53072  18.302  22.392   6.755
 9686POPC   C3B53073  18.299  22.374   7.055
 9686POPC   C4B53074  18.288  22.388   7.355
 9687POPC   NC353075  36.153  31.481   5.555
 9687POPC   PO453076  36.080  31.436   5.855
 9687POPC   GL153077  36.093  31.507   6.155
 9687POPC   GL253078  35.988  31.421   6.155
 9687POPC   C1A53079  36.078  31.500   6.455
 9687POPC   D2A53080  36.079  31.444   6.755
 9687POPC   C3A53081  36.116  31.465   7.055
 9687POPC   C4A53082  36.089  31.445   7.355
 9687POPC   C1B53083  35.891  31.442   6.455
 9687POPC   C2B53084  35.889  31.388   6.755
 9687POPC   C3B53085  35.875  31.458   7.055
 9687POPC   C4B53086  35.892  31.461   7.355
 9688POPC   NC353087  18.288   6.600   5.555
 9688POPC   PO453088  18.241   6.619   5.855
 9688POPC   GL153089  18.325   6.678   6.155
 9688POPC   GL253090  18.387   6.639   6.155
 9688POPC   C1A53091  18.242   6.619   6.455
 9688POPC   D2A53092  18.294   6.679   6.755
 9688POPC   C3A53093  18.310   6.611   7.055
 9688POPC   C4A53094  18.246   6.666   7.355
 9688POPC   C1B53095  18.500   6.605   6.455
 9688POPC   C2B53096  18.554   6.591   6.755
 9688POPC   C3B53097  18.497   6.562   7.055
 9688POPC   C4B53098  18.549   6.619   7.355
 9689POPC   NC353099  20.590  14.439   5.555
 9689POPC   PO453100  20.595  14.359   5.855
 9689POPC   GL153101  20.616  14.377   6.155
 9689POPC   GL253102  20.528  14.491   6.155
 9689POPC   C1A53103  20.580  14.369   6.455
 9689POPC   D2A53104  20.568  14.365   6.755
 9689POPC   C3A53105  20.629  14.431   7.055
 9689POPC   C4A53106  20.605  14.381   7.355
 9689POPC   C1B53107  20.421  14.480   6.455
 9689POPC   C2B53108  20.415  14.558   6.755
 9689POPC   C3B53109  20.413  14.531   7.055
 9689POPC   C4B53110  20.409  14.576   7.355
 9690POPC   NC353111  39.199  20.629   5.555
 9690POPC   PO453112  39.238  20.572   5.855
 9690POPC   GL153113  39.236  20.587   6.155
 9690POPC   GL253114  39.087  20.580   6.155
 9690POPC   C1A53115  39.209  20.636   6.455
 9690POPC   D2A53116  39.253  20.631   6.755
 9690POPC   C3A53117  39.224  20.575   7.055
 9690POPC   C4A53118  39.252  20.569   7.355
 9690POPC   C1B53119  38.968  20.539   6.455
 9690POPC   C2B53120  38.973  20.476   6.755
 9690POPC   C3B53121  38.995  20.523   7.055
 9690POPC   C4B53122  39.013  20.469   7.355
 9691POPC   NC353123  36.888  11.260   5.555
 9691POPC   PO453124  36.920  11.267   5.855
 9691POPC   GL153125  36.907  11.348   6.155
 9691POPC   GL253126  36.784  11.212   6.155
 9691POPC   C1A53127  36.878  11.305   6.455
 9691POPC   D2A53128  36.863  11.318   6.755
 9691POPC   C3A53129  36.872  11.262   7.055
 9691POPC   C4A53130  36.929  11.250   7.355
 9691POPC   C1B53131  36.769  11.092   6.455
 9691POPC   C2B53132  36.731  11.101   6.755
 9691POPC   C3B53133  36.705  11.131   7.055
 9691POPC   C4B53134  36.679  11.174   7.355
 9692POPC   NC353135  25.259  12.047   5.555
 9692POPC   PO453136  25.225  12.122   5.855
 9692POPC   GL153137  25.236  12.064   6.155
 9692POPC   GL253138  25.387  12.088   6.155
 9692POPC   C1A53139  25.232  12.053   6.455
 9692POPC   D2A53140  25.223  12.056   6.755
 9692POPC   C3A53141  25.235  12.062   7.055
 9692POPC   C4A53142  25.251  12.053   7.355
 9692POPC   C1B53143  25.507  12.124   6.455
 9692POPC   C2B53144  25.533  12.108   6.755
 9692POPC   C3B53145  25.548  12.045   7.055
 9692POPC   C4B53146  25.552  12.065   7.355
 9693POPC   NC353147  31.447  18.266   5.555
 9693POPC   PO453148  31.451  18.322   5.855
 9693POPC   GL153149  31.496  18.270   6.155
 9693POPC   GL253150  31.439  18.186   6.155
 9693POPC   C1A53151  31.437  18.330   6.455
 9693POPC   D2A53152  31.452  18.289   6.755
 9693POPC   C3A53153  31.507  18.267   7.055
 9693POPC   C4A53154  31.462  18.331   7.355
 9693POPC   C1B53155  31.417  18.016   6.455
 9693POPC   C2B53156  31.418  18.040   6.755
 9693POPC   C3B53157  31.503  18.076   7.055
 9693POPC   C4B53158  31.449  17.997   7.355
 9694POPC   NC353159  42.332  28.337   5.555
 9694POPC   PO453160  42.348  28.352   5.855
 9694POPC   GL153161  42.348  28.376   6.155
 9694POPC   GL253162  42.433  28.477   6.155
 9694POPC   C1A53163  42.366  28.402   6.455
 9694POPC   D2A53164  42.375  28.356   6.755
 9694POPC   C3A53165  42.287  28.332   7.055
 9694POPC   C4A53166  42.345  28.346   7.355
 9694POPC   C1B53167  42.444  28.596   6.455
 9694POPC   C2B53168  42.498  28.533   6.755
 9694POPC   C3B53169  42.511  28.547   7.055
 9694POPC   C4B53170  42.454  28.559   7.355
 9695POPC   NC353171  40.736  22.981   5.555
 9695POPC   PO453172  40.742  22.973   5.855
 9695POPC   GL153173  40.827  22.934   6.155
 9695POPC   GL253174  40.638  22.917   6.155
 9695POPC   C1A53175  40.752  22.943   6.455
 9695POPC   D2A53176  40.808  22.934   6.755
 9695POPC   C3A53177  40.800  22.899   7.055
 9695POPC   C4A53178  40.792  22.932   7.355
 9695POPC   C1B53179  40.523  23.009   6.455
 9695POPC   C2B53180  40.510  23.003   6.755
 9695POPC   C3B53181  40.562  22.971   7.055
 9695POPC   C4B53182  40.577  22.979   7.355
 9696POPC   NC353183  35.376   5.880   5.555
 9696POPC   PO453184  35.348   5.834   5.855
 9696POPC   GL153185  35.328   5.846   6.155
 9696POPC   GL253186  35.230   5.853   6.155
 9696POPC   C1A53187  35.373   5.914   6.455
 9696POPC   D2A53188  35.336   5.919   6.755
 9696POPC   C3A53189  35.321   5.840   7.055
 9696POPC   C4A53190  35.329   5.901   7.355
 9696POPC   C1B53191  35.104   5.918   6.455
 9696POPC   C2B53192  35.137   5.954   6.755
 9696POPC   C3B53193  35.060   5.939   7.055
 9696POPC   C4B53194  35.127   5.918   7.355
 9697POPC   NC353195  21.359   5.138   5.555
 9697POPC   PO453196  21.395   5.090   5.855
 9697POPC   GL153197  21.383   5.104   6.155
 9697POPC   GL253198  21.375   4.975   6.155
 9697POPC   C1A53199  21.430   5.055   6.455
 9697POPC   D2A53200  21.394   5.059   6.755
 9697POPC   C3A53201  21.408   5.123   7.055
 9697POPC   C4A53202  21.386   5.115   7.355
 9697POPC   C1B53203  21.253   4.910   6.455
 9697POPC   C2B53204  21.291   4.878   6.755
 9697POPC   C3B53205  21.319   4.897   7.055
 9697POPC   C4B53206  21.321   4.879   7.355
 9698POPC   NC353207  19.877  11.329   5.555
 9698POPC   PO453208  19.811  11.343   5.855
 9698POPC   GL153209  19.826  11.250   6.155
 9698POPC   GL253210  19.679  11.202   6.155
 9698POPC   C1A53211  19.844  11.340   6.455
 9698POPC   D2A53212  19.798  11.292   6.755
 9698POPC   C3A53213  19.881  11.304   7.055
 9698POPC   C4A53214  19.811  11.267   7.355
 9698POPC   C1B53215  19.609  11.192   6.455
 9698POPC   C2B53216  19.631  11.169   6.755
 9698POPC   C3B53217  19.638  11.166   7.055
 9698POPC   C4B53218  19.659  11.213   7.355
 9699POPC   NC353219  19.074  38.469   5.555
 9699POPC   PO453220  19.015  38.457   5.855
 9699POPC   GL153221  19.101  38.436   6.155
 9699POPC   GL253222  19.032  38.371   6.155
 9699POPC   C1A53223  19.065  38.414   6.455
 9699POPC   D2A53224  19.057  38.490   6.755
 9699POPC   C3A53225  19.019  38.429   7.055
 9699POPC   C4A53226  19.023  38.419   7.355
 9699POPC   C1B53227  19.068  38.237   6.455
 9699POPC   C2B53228  19.042  38.178   6.755
 9699POPC   C3B53229  19.053  38.163   7.055
 9699POPC   C4B53230  18.989  38.251   7.355
 9700POPC   NC353231  39.182  43.866   5.555
 9700POPC   PO453232  39.247  43.877   5.855
 9700POPC   GL153233  39.196  43.867   6.155
 9700POPC   GL253234  39.280  43.772   6.155
 9700POPC   C1A53235  39.279  43.896   6.455
 9700POPC   D2A53236  39.276  43.925   6.755
 9700POPC   C3A53237  39.274  43.846   7.055
 9700POPC   C4A53238  39.211  43.909   7.355
 9700POPC   C1B53239  39.365  43.684   6.455
 9700POPC   C2B53240  39.381  43.673   6.755
 9700POPC   C3B53241  39.396  43.679   7.055
 9700POPC   C4B53242  39.386  43.666   7.355
 9701POPC   NC353243  18.267  27.594   5.555
 9701POPC   PO453244  18.263  27.594   5.855
 9701POPC   GL153245  18.288  27.593   6.155
 9701POPC   GL253246  18.190  27.630   6.155
 9701POPC   C1A53247  18.254  27.587   6.455
 9701POPC   D2A53248  18.294  27.612   6.755
 9701POPC   C3A53249  18.312  27.573   7.055
 9701POPC   C4A53250  18.327  27.632   7.355
 9701POPC   C1B53251  18.019  27.653   6.455
 9701POPC   C2B53252  18.035  27.701   6.755
 9701POPC   C3B53253  18.012  27.713   7.055
 9701POPC   C4B53254  18.029  27.699   7.355
 9702POPC   NC353255  26.087  28.413   5.555
 9702POPC   PO453256  26.021  28.359   5.855
 9702POPC   GL153257  26.058  28.417   6.155
 9702POPC   GL253258  26.162  28.419   6.155
 9702POPC   C1A53259  26.089  28.365   6.455
 9702POPC   D2A53260  25.999  28.351   6.755
 9702POPC   C3A53261  26.010  28.358   7.055
 9702POPC   C4A53262  26.001  28.372   7.355
 9702POPC   C1B53263  26.295  28.540   6.455
 9702POPC   C2B53264  26.226  28.500   6.755
 9702POPC   C3B53265  26.270  28.537   7.055
 9702POPC   C4B53266  26.283  28.544   7.355
 9703POPC   NC353267  20.630  37.651   5.555
 9703POPC   PO453268  20.572  37.674   5.855
 9703POPC   GL153269  20.601  37.726   6.155
 9703POPC   GL253270  20.739  37.734   6.155
 9703POPC   C1A53271  20.640  37.727   6.455
 9703POPC   D2A53272  20.658  37.702   6.755
 9703POPC   C3A53273  20.659  37.700   7.055
 9703POPC   C4A53274  20.578  37.637   7.355
 9703POPC   C1B53275  20.906  37.658   6.455
 9703POPC   C2B53276  20.882  37.728   6.755
 9703POPC   C3B53277  20.896  37.667   7.055
 9703POPC   C4B53278  20.888  37.713   7.355
 9704POPC   NC353279  40.021  28.394   5.555
 9704POPC   PO453280  40.042  28.357   5.855
 9704POPC   GL153281  40.049  28.345   6.155
 9704POPC   GL253282  40.066  28.250   6.155
 9704POPC   C1A53283  39.992  28.371   6.455
 9704POPC   D2A53284  39.975  28.333   6.755
 9704POPC   C3A53285  39.969  28.373   7.055
 9704POPC   C4A53286  40.042  28.413   7.355
 9704POPC   C1B53287  40.101  28.136   6.455
 9704POPC   C2B53288  40.114  28.129   6.755
 9704POPC   C3B53289  40.100  28.153   7.055
 9704POPC   C4B53290  40.141  28.141   7.355
 9705POPC   NC353291  11.268  43.909   5.555
 9705POPC   PO453292  11.263  43.838   5.855
 9705POPC   GL153293  11.265  43.848   6.155
 9705POPC   GL253294  11.385  43.798   6.155
 9705POPC   C1A53295  11.312  43.900   6.455
 9705POPC   D2A53296  11.314  43.923   6.755
 9705POPC   C3A53297  11.350  43.914   7.055
 9705POPC   C4A53298  11.259  43.860   7.355
 9705POPC   C1B53299  11.473  43.734   6.455
 9705POPC   C2B53300  11.522  43.758   6.755
 9705POPC   C3B53301  11.508  43.757   7.055
 9705POPC   C4B53302  11.489  43.769   7.355
 9706POPC   NC353303   3.570  33.768   5.555
 9706POPC   PO453304   3.585  33.754   5.855
 9706POPC   GL153305   3.582  33.765   6.155
 9706POPC   GL253306   3.603  33.911   6.155
 9706POPC   C1A53307   3.510  33.793   6.455
 9706POPC   D2A53308   3.590  33.799   6.755
 9706POPC   C3A53309   3.571  33.781   7.055
 9706POPC   C4A53310   3.532  33.798   7.355
 9706POPC   C1B53311   3.690  34.054   6.455
 9706POPC   C2B53312   3.630  34.000   6.755
 9706POPC   C3B53313   3.664  33.993   7.055
 9706POPC   C4B53314   3.652  34.011   7.355
 9707POPC   NC353315   8.973  39.214   5.555
 9707POPC   PO453316   8.976  39.273   5.855
 9707POPC   GL153317   9.007  39.217   6.155
 9707POPC   GL253318   8.971  39.115   6.155
 9707POPC   C1A53319   8.984  39.205   6.455
 9707POPC   D2A53320   8.975  39.277   6.755
 9707POPC   C3A53321   8.961  39.236   7.055
 9707POPC   C4A53322   8.990  39.192   7.355
 9707POPC   C1B53323   9.074  38.974   6.455
 9707POPC   C2B53324   9.028  39.020   6.755
 9707POPC   C3B53325   9.089  39.031   7.055
 9707POPC   C4B53326   9.064  39.010   7.355
 9708POPC   NC353327   5.051  35.346   5.555
 9708POPC   PO453328   5.136  35.395   5.855
 9708POPC   GL153329   5.081  35.305   6.155
 9708POPC   GL253330   4.944  35.373   6.155
 9708POPC   C1A53331   5.129  35.308   6.455
 9708POPC   D2A53332   5.132  35.313   6.755
 9708POPC   C3A53333   5.105  35.363   7.055
 9708POPC   C4A53334   5.057  35.309   7.355
 9708POPC   C1B53335   4.810  35.394   6.455
 9708POPC   C2B53336   4.863  35.356   6.755
 9708POPC   C3B53337   4.829  35.365   7.055
 9708POPC   C4B53338   4.849  35.382   7.355
 9709POPC   NC353339  33.048  40.737   5.555
 9709POPC   PO453340  32.980  40.781   5.855
 9709POPC   GL153341  33.034  40.824   6.155
 9709POPC   GL253342  32.970  40.710   6.155
 9709POPC   C1A53343  33.002  40.766   6.455
 9709POPC   D2A53344  33.016  40.794   6.755
 9709POPC   C3A53345  33.031  40.819   7.055
 9709POPC   C4A53346  33.050  40.761   7.355
 9709POPC   C1B53347  32.875  40.635   6.455
 9709POPC   C2B53348  32.832  40.638   6.755
 9709POPC   C3B53349  32.833  40.632   7.055
 9709POPC   C4B53350  32.876  40.597   7.355
 9710POPC   NC353351   5.057  22.204   5.555
 9710POPC   PO453352   5.101  22.154   5.855
 9710POPC   GL153353   5.119  22.176   6.155
 9710POPC   GL253354   4.994  22.132   6.155
 9710POPC   C1A53355   5.056  22.115   6.455
 9710POPC   D2A53356   5.062  22.113   6.755
 9710POPC   C3A53357   5.082  22.209   7.055
 9710POPC   C4A53358   5.138  22.164   7.355
 9710POPC   C1B53359   4.810  22.169   6.455
 9710POPC   C2B53360   4.826  22.189   6.755
 9710POPC   C3B53361   4.844  22.192   7.055
 9710POPC   C4B53362   4.873  22.118   7.355
 9711POPC   NC353363  27.560  30.719   5.555
 9711POPC   PO453364  27.585  30.710   5.855
 9711POPC   GL153365  27.601  30.703   6.155
 9711POPC   GL253366  27.692  30.698   6.155
 9711POPC   C1A53367  27.634  30.652   6.455
 9711POPC   D2A53368  27.629  30.656   6.755
 9711POPC   C3A53369  27.551  30.689   7.055
 9711POPC   C4A53370  27.628  30.647   7.355
 9711POPC   C1B53371  27.794  30.584   6.455
 9711POPC   C2B53372  27.789  30.601   6.755
 9711POPC   C3B53373  27.838  30.647   7.055
 9711POPC   C4B53374  27.812  30.653   7.355
 9712POPC   NC353375  15.176  14.369   5.555
 9712POPC   PO453376  15.139  14.438   5.855
 9712POPC   GL153377  15.140  14.380   6.155
 9712POPC   GL253378  15.196  14.508   6.155
 9712POPC   C1A53379  15.190  14.387   6.455
 9712POPC   D2A53380  15.153  14.439   6.755
 9712POPC   C3A53381  15.175  14.439   7.055
 9712POPC   C4A53382  15.201  14.422   7.355
 9712POPC   C1B53383  15.229  14.655   6.455
 9712POPC   C2B53384  15.247  14.661   6.755
 9712POPC   C3B53385  15.211  14.650   7.055
 9712POPC   C4B53386  15.211  14.638   7.355
 9713POPC   NC353387   8.162  43.074   5.555
 9713POPC   PO453388   8.151  43.117   5.855
 9713POPC   GL153389   8.206  43.120   6.155
 9713POPC   GL253390   8.307  43.012   6.155
 9713POPC   C1A53391   8.239  43.134   6.455
 9713POPC   D2A53392   8.220  43.130   6.755
 9713POPC   C3A53393   8.211  43.154   7.055
 9713POPC   C4A53394   8.210  43.081   7.355
 9713POPC   C1B53395   8.358  42.876   6.455
 9713POPC   C2B53396   8.359  42.877   6.755
 9713POPC   C3B53397   8.390  42.906   7.055
 9713POPC   C4B53398   8.296  42.861   7.355
 9714POPC   NC353399  36.938  40.787   5.555
 9714POPC   PO453400  36.895  40.761   5.855
 9714POPC   GL153401  36.927  40.800   6.155
 9714POPC   GL253402  36.880  40.893   6.155
 9714POPC   C1A53403  36.953  40.759   6.455
 9714POPC   D2A53404  36.935  40.787   6.755
 9714POPC   C3A53405  36.949  40.737   7.055
 9714POPC   C4A53406  36.864  40.785   7.355
 9714POPC   C1B53407  36.816  41.006   6.455
 9714POPC   C2B53408  36.759  40.996   6.755
 9714POPC   C3B53409  36.747  40.985   7.055
 9714POPC   C4B53410  36.836  41.051   7.355
 9715POPC   NC353411  13.578  29.160   5.555
 9715POPC   PO453412  13.668  29.149   5.855
 9715POPC   GL153413  13.580  29.173   6.155
 9715POPC   GL253414  13.628  29.266   6.155
 9715POPC   C1A53415  13.592  29.148   6.455
 9715POPC   D2A53416  13.589  29.144   6.755
 9715POPC   C3A53417  13.602  29.179   7.055
 9715POPC   C4A53418  13.607  29.192   7.355
 9715POPC   C1B53419  13.566  29.398   6.455
 9715POPC   C2B53420  13.605  29.351   6.755
 9715POPC   C3B53421  13.509  29.397   7.055
 9715POPC   C4B53422  13.576  29.416   7.355
 9716POPC   NC353423   1.971   7.374   5.555
 9716POPC   PO453424   2.029   7.382   5.855
 9716POPC   GL153425   2.010   7.429   6.155
 9716POPC   GL253426   1.911   7.439   6.155
 9716POPC   C1A53427   1.949   7.400   6.455
 9716POPC   D2A53428   2.022   7.407   6.755
 9716POPC   C3A53429   1.995   7.452   7.055
 9716POPC   C4A53430   1.964   7.413   7.355
 9716POPC   C1B53431   1.708   7.541   6.455
 9716POPC   C2B53432   1.740   7.485   6.755
 9716POPC   C3B53433   1.757   7.530   7.055
 9716POPC   C4B53434   1.787   7.554   7.355
 9717POPC   NC353435  31.521  17.547   5.555
 9717POPC   PO453436  31.483  17.543   5.855
 9717POPC   GL153437  31.500  17.488   6.155
 9717POPC   GL253438  31.558  17.393   6.155
 9717POPC   C1A53439  31.430  17.536   6.455
 9717POPC   D2A53440  31.474  17.494   6.755
 9717POPC   C3A53441  31.498  17.530   7.055
 9717POPC   C4A53442  31.480  17.509   7.355
 9717POPC   C1B53443  31.713  17.335   6.455
 9717POPC   C2B53444  31.633  17.345   6.755
 9717POPC   C3B53445  31.636  17.375   7.055
 9717POPC   C4B53446  31.641  17.332   7.355
 9718POPC   NC353447  33.791   9.007   5.555
 9718POPC   PO453448  33.836   9.016   5.855
 9718POPC   GL153449  33.764   9.007   6.155
 9718POPC   GL253450  33.673   8.958   6.155
 9718POPC   C1A53451  33.792   8.925   6.455
 9718POPC   D2A53452  33.807   8.992   6.755
 9718POPC   C3A53453  33.798   9.019   7.055
 9718POPC   C4A53454  33.816   8.992   7.355
 9718POPC   C1B53455  33.541   9.069   6.455
 9718POPC   C2B53456  33.521   9.032   6.755
 9718POPC   C3B53457  33.599   9.002   7.055
 9718POPC   C4B53458  33.570   9.014   7.355
 9719POPC   NC353459  42.310  41.551   5.555
 9719POPC   PO453460  42.327  41.563   5.855
 9719POPC   GL153461  42.340  41.570   6.155
 9719POPC   GL253462  42.266  41.443   6.155
 9719POPC   C1A53463  42.322  41.588   6.455
 9719POPC   D2A53464  42.326  41.524   6.755
 9719POPC   C3A53465  42.372  41.538   7.055
 9719POPC   C4A53466  42.359  41.543   7.355
 9719POPC   C1B53467  42.259  41.357   6.455
 9719POPC   C2B53468  42.263  41.334   6.755
 9719POPC   C3B53469  42.212  41.316   7.055
 9719POPC   C4B53470  42.268  41.348   7.355
 9720POPC   NC353471  34.538  26.850   5.555
 9720POPC   PO453472  34.610  26.794   5.855
 9720POPC   GL153473  34.587  26.797   6.155
 9720POPC   GL253474  34.646  26.837   6.155
 9720POPC   C1A53475  34.567  26.808   6.455
 9720POPC   D2A53476  34.534  26.801   6.755
 9720POPC   C3A53477  34.543  26.847   7.055
 9720POPC   C4A53478  34.531  26.813   7.355
 9720POPC   C1B53479  34.797  26.975   6.455
 9720POPC   C2B53480  34.741  26.977   6.755
 9720POPC   C3B53481  34.832  26.921   7.055
 9720POPC   C4B53482  34.832  26.986   7.355
 9721POPC   NC353483  33.831   0.404   5.555
 9721POPC   PO453484  33.803   0.427   5.855
 9721POPC   GL153485  33.826   0.462   6.155
 9721POPC   GL253486  33.652   0.541   6.155
 9721POPC   C1A53487  33.837   0.445   6.455
 9721POPC   D2A53488  33.785   0.418   6.755
 9721POPC   C3A53489  33.793   0.469   7.055
 9721POPC   C4A53490  33.801   0.459   7.355
 9721POPC   C1B53491  33.636   0.609   6.455
 9721POPC   C2B53492  33.542   0.610   6.755
 9721POPC   C3B53493  33.540   0.600   7.055
 9721POPC   C4B53494  33.549   0.548   7.355
 9722POPC   NC353495  22.165  15.912   5.555
 9722POPC   PO453496  22.165  15.993   5.855
 9722POPC   GL153497  22.126  15.933   6.155
 9722POPC   GL253498  22.064  16.008   6.155
 9722POPC   C1A53499  22.128  15.930   6.455
 9722POPC   D2A53500  22.163  15.959   6.755
 9722POPC   C3A53501  22.128  15.999   7.055
 9722POPC   C4A53502  22.118  15.937   7.355
 9722POPC   C1B53503  21.947  16.029   6.455
 9722POPC   C2B53504  21.974  16.099   6.755
 9722POPC   C3B53505  21.948  16.048   7.055
 9722POPC   C4B53506  21.987  16.074   7.355
 9723POPC   NC353507  22.127  40.809   5.555
 9723POPC   PO453508  22.172  40.832   5.855
 9723POPC   GL153509  22.189  40.824   6.155
 9723POPC   GL253510  22.213  40.886   6.155
 9723POPC   C1A53511  22.150  40.792   6.455
 9723POPC   D2A53512  22.120  40.774   6.755
 9723POPC   C3A53513  22.140  40.789   7.055
 9723POPC   C4A53514  22.185  40.823   7.355
 9723POPC   C1B53515  22.316  40.944   6.455
 9723POPC   C2B53516  22.368  40.929   6.755
 9723POPC   C3B53517  22.350  40.927   7.055
 9723POPC   C4B53518  22.300  40.957   7.355
 9724POPC   NC353519  39.239  17.499   5.555
 9724POPC   PO453520  39.231  17.497   5.855
 9724POPC   GL153521  39.239  17.465   6.155
 9724POPC   GL253522  39.237  17.355   6.155
 9724POPC   C1A53523  39.224  17.553   6.455
 9724POPC   D2A53524  39.235  17.460   6.755
 9724POPC   C3A53525  39.198  17.505   7.055
 9724POPC   C4A53526  39.280  17.552   7.355
 9724POPC   C1B53527  39.193  17.251   6.455
 9724POPC   C2B53528  39.162  17.237   6.755
 9724POPC   C3B53529  39.137  17.305   7.055
 9724POPC   C4B53530  39.184  17.254   7.355
 9725POPC   NC353531  19.827  31.489   5.555
 9725POPC   PO453532  19.857  31.490   5.855
 9725POPC   GL153533  19.877  31.522   6.155
 9725POPC   GL253534  19.772  31.538   6.155
 9725POPC   C1A53535  19.874  31.448   6.455
 9725POPC   D2A53536  19.858  31.507   6.755
 9725POPC   C3A53537  19.787  31.442   7.055
 9725POPC   C4A53538  19.816  31.509   7.355
 9725POPC   C1B53539  19.733  31.678   6.455
 9725POPC   C2B53540  19.646  31.645   6.755
 9725POPC   C3B53541  19.727  31.654   7.055
 9725POPC   C4B53542  19.723  31.647   7.355
 9726POPC   NC353543  11.327  38.465   5.555
 9726POPC   PO453544  11.263  38.483   5.855
 9726POPC   GL153545  11.342  38.500   6.155
 9726POPC   GL253546  11.306  38.284   6.155
 9726POPC   C1A53547  11.319  38.416   6.455
 9726POPC   D2A53548  11.293  38.443   6.755
 9726POPC   C3A53549  11.301  38.475   7.055
 9726POPC   C4A53550  11.252  38.488   7.355
 9726POPC   C1B53551  11.301  38.180   6.455
 9726POPC   C2B53552  11.316  38.156   6.755
 9726POPC   C3B53553  11.317  38.228   7.055
 9726POPC   C4B53554  11.293  38.176   7.355
 9727POPC   NC353555  27.582  32.198   5.555
 9727POPC   PO453556  27.598  32.271   5.855
 9727POPC   GL153557  27.639  32.245   6.155
 9727POPC   GL253558  27.451  32.272   6.155
 9727POPC   C1A53559  27.580  32.227   6.455
 9727POPC   D2A53560  27.564  32.249   6.755
 9727POPC   C3A53561  27.582  32.290   7.055
 9727POPC   C4A53562  27.640  32.216   7.355
 9727POPC   C1B53563  27.347  32.400   6.455
 9727POPC   C2B53564  27.385  32.327   6.755
 9727POPC   C3B53565  27.407  32.373   7.055
 9727POPC   C4B53566  27.412  32.392   7.355
 9728POPC   NC353567  14.373  44.658   5.555
 9728POPC   PO453568  14.367  44.657   5.855
 9728POPC   GL153569  14.431  44.639   6.155
 9728POPC   GL253570  14.308  44.547   6.155
 9728POPC   C1A53571  14.431  44.679   6.455
 9728POPC   D2A53572  14.431  44.689   6.755
 9728POPC   C3A53573  14.390  44.687   7.055
 9728POPC   C4A53574  14.421  44.651   7.355
 9728POPC   C1B53575  14.191  44.448   6.455
 9728POPC   C2B53576  14.210  44.474   6.755
 9728POPC   C3B53577  14.226  44.528   7.055
 9728POPC   C4B53578  14.204  44.501   7.355
 9729POPC   NC353579   1.982   5.124   5.555
 9729POPC   PO453580   2.029   5.086   5.855
 9729POPC   GL153581   2.016   5.072   6.155
 9729POPC   GL253582   1.924   5.161   6.155
 9729POPC   C1A53583   2.037   5.096   6.455
 9729POPC   D2A53584   2.020   5.043   6.755
 9729POPC   C3A53585   2.039   5.120   7.055
 9729POPC   C4A53586   2.027   5.123   7.355
 9729POPC   C1B53587   1.756   5.235   6.455
 9729POPC   C2B53588   1.791   5.197   6.755
 9729POPC   C3B53589   1.780   5.217   7.055
 9729POPC   C4B53590   1.769   5.230   7.355
 9730POPC   NC353591  22.920  36.942   5.555
 9730POPC   PO453592  22.929  36.932   5.855
 9730POPC   GL153593  22.970  36.907   6.155
 9730POPC   GL253594  22.776  36.953   6.155
 9730POPC   C1A53595  22.940  36.873   6.455
 9730POPC   D2A53596  22.901  36.933   6.755
 9730POPC   C3A53597  22.940  36.896   7.055
 9730POPC   C4A53598  22.983  36.908   7.355
 9730POPC   C1B53599  22.707  36.919   6.455
 9730POPC   C2B53600  22.655  36.927   6.755
 9730POPC   C3B53601  22.716  36.955   7.055
 9730POPC   C4B53602  22.687  36.970   7.355
 9731POPC   NC353603   9.782   1.249   5.555
 9731POPC   PO453604   9.731   1.218   5.855
 9731POPC   GL153605   9.721   1.175   6.155
 9731POPC   GL253606   9.707   1.083   6.155
 9731POPC   C1A53607   9.766   1.236   6.455
 9731POPC   D2A53608   9.782   1.250   6.755
 9731POPC   C3A53609   9.718   1.174   7.055
 9731POPC   C4A53610   9.714   1.213   7.355
 9731POPC   C1B53611   9.665   0.936   6.455
 9731POPC   C2B53612   9.674   0.984   6.755
 9731POPC   C3B53613   9.683   0.954   7.055
 9731POPC   C4B53614   9.691   0.954   7.355
 9732POPC   NC353615  29.954   1.989   5.555
 9732POPC   PO453616  29.960   2.035   5.855
 9732POPC   GL153617  29.910   2.006   6.155
 9732POPC   GL253618  30.039   1.859   6.155
 9732POPC   C1A53619  29.876   2.006   6.455
 9732POPC   D2A53620  29.929   2.025   6.755
 9732POPC   C3A53621  29.946   1.966   7.055
 9732POPC   C4A53622  29.953   2.020   7.355
 9732POPC   C1B53623  30.071   1.851   6.455
 9732POPC   C2B53624  30.079   1.801   6.755
 9732POPC   C3B53625  30.142   1.827   7.055
 9732POPC   C4B53626  30.088   1.778   7.355
 9733POPC   NC353627  44.653   8.947   5.555
 9733POPC   PO453628  44.670   9.005   5.855
 9733POPC   GL153629  44.643   8.932   6.155
 9733POPC   GL253630  44.818   8.914   6.155
 9733POPC   C1A53631  44.702   8.998   6.455
 9733POPC   D2A53632  44.686   8.932   6.755
 9733POPC   C3A53633  44.711   8.926   7.055
 9733POPC   C4A53634  44.655   8.948   7.355
 9733POPC   C1B53635  44.885   8.840   6.455
 9733POPC   C2B53636  44.898   8.859   6.755
 9733POPC   C3B53637  44.890   8.874   7.055
 9733POPC   C4B53638  44.856   8.931   7.355
 9734POPC   NC353639   1.183   3.497   5.555
 9734POPC   PO453640   1.176   3.510   5.855
 9734POPC   GL153641   1.186   3.522   6.155
 9734POPC   GL253642   1.206   3.440   6.155
 9734POPC   C1A53643   1.173   3.546   6.455
 9734POPC   D2A53644   1.169   3.503   6.755
 9734POPC   C3A53645   1.200   3.496   7.055
 9734POPC   C4A53646   1.215   3.579   7.355
 9734POPC   C1B53647   1.086   3.328   6.455
 9734POPC   C2B53648   1.092   3.277   6.755
 9734POPC   C3B53649   1.070   3.280   7.055
 9734POPC   C4B53650   1.132   3.352   7.355
 9735POPC   NC353651   7.410  42.360   5.555
 9735POPC   PO453652   7.413  42.312   5.855
 9735POPC   GL153653   7.436  42.314   6.155
 9735POPC   GL253654   7.388  42.223   6.155
 9735POPC   C1A53655   7.460  42.377   6.455
 9735POPC   D2A53656   7.448  42.304   6.755
 9735POPC   C3A53657   7.405  42.337   7.055
 9735POPC   C4A53658   7.424  42.289   7.355
 9735POPC   C1B53659   7.402  42.113   6.455
 9735POPC   C2B53660   7.455  42.049   6.755
 9735POPC   C3B53661   7.436  42.049   7.055
 9735POPC   C4B53662   7.461  42.100   7.355
 9736POPC   NC353663  16.747   8.147   5.555
 9736POPC   PO453664  16.736   8.227   5.855
 9736POPC   GL153665  16.727   8.246   6.155
 9736POPC   GL253666  16.805   8.202   6.155
 9736POPC   C1A53667  16.690   8.158   6.455
 9736POPC   D2A53668  16.747   8.241   6.755
 9736POPC   C3A53669  16.694   8.209   7.055
 9736POPC   C4A53670  16.770   8.173   7.355
 9736POPC   C1B53671  16.964   8.272   6.455
 9736POPC   C2B53672  17.006   8.267   6.755
 9736POPC   C3B53673  17.020   8.278   7.055
 9736POPC   C4B53674  16.980   8.250   7.355
 9737POPC   NC353675  36.119  27.574   5.555
 9737POPC   PO453676  36.120  27.553   5.855
 9737POPC   GL153677  36.090  27.626   6.155
 9737POPC   GL253678  36.037  27.712   6.155
 9737POPC   C1A53679  36.121  27.544   6.455
 9737POPC   D2A53680  36.137  27.619   6.755
 9737POPC   C3A53681  36.111  27.591   7.055
 9737POPC   C4A53682  36.112  27.589   7.355
 9737POPC   C1B53683  35.978  27.762   6.455
 9737POPC   C2B53684  35.971  27.806   6.755
 9737POPC   C3B53685  35.912  27.780   7.055
 9737POPC   C4B53686  35.905  27.776   7.355
 9738POPC   NC353687   2.795  35.371   5.555
 9738POPC   PO453688   2.786  35.337   5.855
 9738POPC   GL153689   2.814  35.357   6.155
 9738POPC   GL253690   2.722  35.507   6.155
 9738POPC   C1A53691   2.783  35.344   6.455
 9738POPC   D2A53692   2.772  35.335   6.755
 9738POPC   C3A53693   2.729  35.362   7.055
 9738POPC   C4A53694   2.809  35.328   7.355
 9738POPC   C1B53695   2.678  35.585   6.455
 9738POPC   C2B53696   2.716  35.645   6.755
 9738POPC   C3B53697   2.731  35.581   7.055
 9738POPC   C4B53698   2.724  35.564   7.355
 9739POPC   NC353699  22.196  29.947   5.555
 9739POPC   PO453700  22.210  29.892   5.855
 9739POPC   GL153701  22.140  29.931   6.155
 9739POPC   GL253702  22.094  29.855   6.155
 9739POPC   C1A53703  22.148  29.894   6.455
 9739POPC   D2A53704  22.114  29.879   6.755
 9739POPC   C3A53705  22.155  29.948   7.055
 9739POPC   C4A53706  22.151  29.903   7.355
 9739POPC   C1B53707  21.908  29.746   6.455
 9739POPC   C2B53708  21.984  29.805   6.755
 9739POPC   C3B53709  21.926  29.833   7.055
 9739POPC   C4B53710  21.969  29.829   7.355
 9740POPC   NC353711  37.652  24.452   5.555
 9740POPC   PO453712  37.641  24.462   5.855
 9740POPC   GL153713  37.707  24.506   6.155
 9740POPC   GL253714  37.745  24.355   6.155
 9740POPC   C1A53715  37.695  24.527   6.455
 9740POPC   D2A53716  37.716  24.517   6.755
 9740POPC   C3A53717  37.633  24.517   7.055
 9740POPC   C4A53718  37.691  24.538   7.355
 9740POPC   C1B53719  37.708  24.294   6.455
 9740POPC   C2B53720  37.738  24.275   6.755
 9740POPC   C3B53721  37.727  24.213   7.055
 9740POPC   C4B53722  37.772  24.258   7.355
 9741POPC   NC353723  41.544  35.365   5.555
 9741POPC   PO453724  41.576  35.398   5.855
 9741POPC   GL153725  41.586  35.368   6.155
 9741POPC   GL253726  41.436  35.386   6.155
 9741POPC   C1A53727  41.552  35.391   6.455
 9741POPC   D2A53728  41.576  35.332   6.755
 9741POPC   C3A53729  41.606  35.345   7.055
 9741POPC   C4A53730  41.579  35.355   7.355
 9741POPC   C1B53731  41.307  35.354   6.455
 9741POPC   C2B53732  41.299  35.352   6.755
 9741POPC   C3B53733  41.333  35.387   7.055
 9741POPC   C4B53734  41.270  35.371   7.355
 9742POPC   NC353735  19.846  33.806   5.555
 9742POPC   PO453736  19.789  33.776   5.855
 9742POPC   GL153737  19.830  33.763   6.155
 9742POPC   GL253738  19.865  33.709   6.155
 9742POPC   C1A53739  19.839  33.781   6.455
 9742POPC   D2A53740  19.877  33.750   6.755
 9742POPC   C3A53741  19.785  33.770   7.055
 9742POPC   C4A53742  19.800  33.848   7.355
 9742POPC   C1B53743  19.828  33.507   6.455
 9742POPC   C2B53744  19.884  33.547   6.755
 9742POPC   C3B53745  19.849  33.535   7.055
 9742POPC   C4B53746  19.860  33.594   7.355
 9743POPC   NC353747  24.538  14.436   5.555
 9743POPC   PO453748  24.538  14.372   5.855
 9743POPC   GL153749  24.537  14.442   6.155
 9743POPC   GL253750  24.430  14.527   6.155
 9743POPC   C1A53751  24.453  14.406   6.455
 9743POPC   D2A53752  24.480  14.400   6.755
 9743POPC   C3A53753  24.465  14.393   7.055
 9743POPC   C4A53754  24.485  14.414   7.355
 9743POPC   C1B53755  24.472  14.695   6.455
 9743POPC   C2B53756  24.430  14.623   6.755
 9743POPC   C3B53757  24.392  14.689   7.055
 9743POPC   C4B53758  24.474  14.661   7.355
 9744POPC   NC353759  33.064   4.333   5.555
 9744POPC   PO453760  33.069   4.303   5.855
 9744POPC   GL153761  33.073   4.285   6.155
 9744POPC   GL253762  32.959   4.228   6.155
 9744POPC   C1A53763  33.017   4.282   6.455
 9744POPC   D2A53764  33.015   4.304   6.755
 9744POPC   C3A53765  33.062   4.316   7.055
 9744POPC   C4A53766  33.040   4.296   7.355
 9744POPC   C1B53767  32.866   4.124   6.455
 9744POPC   C2B53768  32.879   4.093   6.755
 9744POPC   C3B53769  32.806   4.145   7.055
 9744POPC   C4B53770  32.873   4.176   7.355
 9745POPC   NC353771  15.953  35.347   5.555
 9745POPC   PO453772  15.994  35.354   5.855
 9745POPC   GL153773  15.985  35.363   6.155
 9745POPC   GL253774  16.070  35.405   6.155
 9745POPC   C1A53775  15.936  35.341   6.455
 9745POPC   D2A53776  15.935  35.391   6.755
 9745POPC   C3A53777  15.975  35.321   7.055
 9745POPC   C4A53778  15.971  35.395   7.355
 9745POPC   C1B53779  16.093  35.549   6.455
 9745POPC   C2B53780  16.152  35.509   6.755
 9745POPC   C3B53781  16.117  35.560   7.055
 9745POPC   C4B53782  16.071  35.562   7.355
 9746POPC   NC353783  33.812  20.564   5.555
 9746POPC   PO453784  33.806  20.599   5.855
 9746POPC   GL153785  33.837  20.610   6.155
 9746POPC   GL253786  33.840  20.441   6.155
 9746POPC   C1A53787  33.790  20.596   6.455
 9746POPC   D2A53788  33.773  20.656   6.755
 9746POPC   C3A53789  33.850  20.567   7.055
 9746POPC   C4A53790  33.780  20.603   7.355
 9746POPC   C1B53791  33.863  20.407   6.455
 9746POPC   C2B53792  33.816  20.342   6.755
 9746POPC   C3B53793  33.796  20.410   7.055
 9746POPC   C4B53794  33.857  20.373   7.355
 9747POPC   NC353795   9.779  19.062   5.555
 9747POPC   PO453796   9.794  19.047   5.855
 9747POPC   GL153797   9.724  19.041   6.155
 9747POPC   GL253798   9.683  19.088   6.155
 9747POPC   C1A53799   9.774  19.024   6.455
 9747POPC   D2A53800   9.754  19.049   6.755
 9747POPC   C3A53801   9.753  19.081   7.055
 9747POPC   C4A53802   9.771  19.092   7.355
 9747POPC   C1B53803   9.567  19.236   6.455
 9747POPC   C2B53804   9.517  19.186   6.755
 9747POPC   C3B53805   9.533  19.206   7.055
 9747POPC   C4B53806   9.588  19.197   7.355
 9748POPC   NC353807  33.754  15.911   5.555
 9748POPC   PO453808  33.815  15.964   5.855
 9748POPC   GL153809  33.818  15.942   6.155
 9748POPC   GL253810  33.754  16.030   6.155
 9748POPC   C1A53811  33.764  15.948   6.455
 9748POPC   D2A53812  33.769  15.906   6.755
 9748POPC   C3A53813  33.767  15.949   7.055
 9748POPC   C4A53814  33.753  15.987   7.355
 9748POPC   C1B53815  33.690  16.153   6.455
 9748POPC   C2B53816  33.687  16.222   6.755
 9748POPC   C3B53817  33.702  16.221   7.055
 9748POPC   C4B53818  33.680  16.171   7.355
 9749POPC   NC353819  16.734  23.680   5.555
 9749POPC   PO453820  16.768  23.752   5.855
 9749POPC   GL153821  16.768  23.690   6.155
 9749POPC   GL253822  16.871  23.657   6.155
 9749POPC   C1A53823  16.757  23.664   6.455
 9749POPC   D2A53824  16.764  23.720   6.755
 9749POPC   C3A53825  16.706  23.732   7.055
 9749POPC   C4A53826  16.764  23.719   7.355
 9749POPC   C1B53827  16.940  23.600   6.455
 9749POPC   C2B53828  16.910  23.647   6.755
 9749POPC   C3B53829  16.995  23.592   7.055
 9749POPC   C4B53830  16.971  23.569   7.355
 9750POPC   NC353831  15.996  15.140   5.555
 9750POPC   PO453832  15.908  15.185   5.855
 9750POPC   GL153833  15.925  15.174   6.155
 9750POPC   GL253834  15.887  15.332   6.155
 9750POPC   C1A53835  15.940  15.139   6.455
 9750POPC   D2A53836  15.991  15.212   6.755
 9750POPC   C3A53837  16.003  15.169   7.055
 9750POPC   C4A53838  15.922  15.184   7.355
 9750POPC   C1B53839  15.896  15.374   6.455
 9750POPC   C2B53840  15.875  15.419   6.755
 9750POPC   C3B53841  15.940  15.449   7.055
 9750POPC   C4B53842  15.888  15.464   7.355
 9751POPC   NC353843  36.155   5.128   5.555
 9751POPC   PO453844  36.131   5.117   5.855
 9751POPC   GL153845  36.139   5.113   6.155
 9751POPC   GL253846  36.059   5.037   6.155
 9751POPC   C1A53847  36.167   5.104   6.455
 9751POPC   D2A53848  36.122   5.111   6.755
 9751POPC   C3A53849  36.084   5.059   7.055
 9751POPC   C4A53850  36.135   5.141   7.355
 9751POPC   C1B53851  35.885   5.001   6.455
 9751POPC   C2B53852  35.927   4.935   6.755
 9751POPC   C3B53853  35.937   4.915   7.055
 9751POPC   C4B53854  35.894   4.962   7.355
 9752POPC   NC353855  26.820  27.561   5.555
 9752POPC   PO453856  26.822  27.617   5.855
 9752POPC   GL153857  26.858  27.564   6.155
 9752POPC   GL253858  26.857  27.464   6.155
 9752POPC   C1A53859  26.853  27.622   6.455
 9752POPC   D2A53860  26.837  27.614   6.755
 9752POPC   C3A53861  26.806  27.615   7.055
 9752POPC   C4A53862  26.845  27.556   7.355
 9752POPC   C1B53863  27.018  27.432   6.455
 9752POPC   C2B53864  26.988  27.379   6.755
 9752POPC   C3B53865  26.991  27.374   7.055
 9752POPC   C4B53866  27.020  27.457   7.355
 9753POPC   NC353867  39.980  30.699   5.555
 9753POPC   PO453868  39.996  30.703   5.855
 9753POPC   GL153869  40.026  30.670   6.155
 9753POPC   GL253870  40.054  30.633   6.155
 9753POPC   C1A53871  39.970  30.746   6.455
 9753POPC   D2A53872  39.981  30.686   6.755
 9753POPC   C3A53873  39.999  30.718   7.055
 9753POPC   C4A53874  40.001  30.667   7.355
 9753POPC   C1B53875  40.184  30.514   6.455
 9753POPC   C2B53876  40.213  30.487   6.755
 9753POPC   C3B53877  40.183  30.486   7.055
 9753POPC   C4B53878  40.217  30.546   7.355
 9754POPC   NC353879  24.475  16.704   5.555
 9754POPC   PO453880  24.534  16.699   5.855
 9754POPC   GL153881  24.483  16.718   6.155
 9754POPC   GL253882  24.467  16.900   6.155
 9754POPC   C1A53883  24.518  16.755   6.455
 9754POPC   D2A53884  24.528  16.708   6.755
 9754POPC   C3A53885  24.451  16.706   7.055
 9754POPC   C4A53886  24.537  16.745   7.355
 9754POPC   C1B53887  24.475  16.956   6.455
 9754POPC   C2B53888  24.422  16.928   6.755
 9754POPC   C3B53889  24.458  16.926   7.055
 9754POPC   C4B53890  24.444  16.927   7.355
 9755POPC   NC353891  19.863  32.272   5.555
 9755POPC   PO453892  19.791  32.212   5.855
 9755POPC   GL153893  19.851  32.288   6.155
 9755POPC   GL253894  19.984  32.257   6.155
 9755POPC   C1A53895  19.797  32.202   6.455
 9755POPC   D2A53896  19.831  32.208   6.755
 9755POPC   C3A53897  19.787  32.286   7.055
 9755POPC   C4A53898  19.858  32.231   7.355
 9755POPC   C1B53899  20.092  32.288   6.455
 9755POPC   C2B53900  20.066  32.334   6.755
 9755POPC   C3B53901  20.056  32.305   7.055
 9755POPC   C4B53902  20.122  32.256   7.355
 9756POPC   NC353903  14.383  43.077   5.555
 9756POPC   PO453904  14.392  43.067   5.855
 9756POPC   GL153905  14.390  43.106   6.155
 9756POPC   GL253906  14.330  43.214   6.155
 9756POPC   C1A53907  14.416  43.153   6.455
 9756POPC   D2A53908  14.372  43.109   6.755
 9756POPC   C3A53909  14.387  43.123   7.055
 9756POPC   C4A53910  14.404  43.131   7.355
 9756POPC   C1B53911  14.372  43.310   6.455
 9756POPC   C2B53912  14.355  43.376   6.755
 9756POPC   C3B53913  14.349  43.315   7.055
 9756POPC   C4B53914  14.305  43.350   7.355
 9757POPC   NC353915  20.593  15.184   5.555
 9757POPC   PO453916  20.650  15.134   5.855
 9757POPC   GL153917  20.608  15.132   6.155
 9757POPC   GL253918  20.590  15.304   6.155
 9757POPC   C1A53919  20.611  15.172   6.455
 9757POPC   D2A53920  20.565  15.199   6.755
 9757POPC   C3A53921  20.647  15.198   7.055
 9757POPC   C4A53922  20.607  15.199   7.355
 9757POPC   C1B53923  20.658  15.462   6.455
 9757POPC   C2B53924  20.684  15.438   6.755
 9757POPC   C3B53925  20.635  15.417   7.055
 9757POPC   C4B53926  20.686  15.473   7.355
 9758POPC   NC353927  39.209  11.346   5.555
 9758POPC   PO453928  39.215  11.275   5.855
 9758POPC   GL153929  39.253  11.348   6.155
 9758POPC   GL253930  39.147  11.289   6.155
 9758POPC   C1A53931  39.194  11.327   6.455
 9758POPC   D2A53932  39.204  11.261   6.755
 9758POPC   C3A53933  39.261  11.259   7.055
 9758POPC   C4A53934  39.230  11.266   7.355
 9758POPC   C1B53935  39.030  11.308   6.455
 9758POPC   C2B53936  39.022  11.232   6.755
 9758POPC   C3B53937  38.958  11.254   7.055
 9758POPC   C4B53938  39.014  11.319   7.355
 9759POPC   NC353939   9.014  40.011   5.555
 9759POPC   PO453940   8.993  39.965   5.855
 9759POPC   GL153941   9.019  39.981   6.155
 9759POPC   GL253942   8.933  39.884   6.155
 9759POPC   C1A53943   8.991  40.056   6.455
 9759POPC   D2A53944   8.988  39.977   6.755
 9759POPC   C3A53945   8.956  39.993   7.055
 9759POPC   C4A53946   8.966  39.978   7.355
 9759POPC   C1B53947   8.796  39.844   6.455
 9759POPC   C2B53948   8.791  39.781   6.755
 9759POPC   C3B53949   8.862  39.749   7.055
 9759POPC   C4B53950   8.888  39.821   7.355
 9760POPC   NC353951  15.192  31.458   5.555
 9760POPC   PO453952  15.187  31.453   5.855
 9760POPC   GL153953  15.184  31.454   6.155
 9760POPC   GL253954  15.272  31.415   6.155
 9760POPC   C1A53955  15.134  31.444   6.455
 9760POPC   D2A53956  15.169  31.458   6.755
 9760POPC   C3A53957  15.158  31.446   7.055
 9760POPC   C4A53958  15.174  31.513   7.355
 9760POPC   C1B53959  15.413  31.345   6.455
 9760POPC   C2B53960  15.396  31.343   6.755
 9760POPC   C3B53961  15.398  31.329   7.055
 9760POPC   C4B53962  15.397  31.354   7.355
 9761POPC   NC353963  26.852  22.160   5.555
 9761POPC   PO453964  26.811  22.194   5.855
 9761POPC   GL153965  26.777  22.114   6.155
 9761POPC   GL253966  26.883  22.037   6.155
 9761POPC   C1A53967  26.831  22.167   6.455
 9761POPC   D2A53968  26.864  22.120   6.755
 9761POPC   C3A53969  26.853  22.152   7.055
 9761POPC   C4A53970  26.826  22.173   7.355
 9761POPC   C1B53971  26.861  21.965   6.455
 9761POPC   C2B53972  26.898  21.960   6.755
 9761POPC   C3B53973  26.882  21.877   7.055
 9761POPC   C4B53974  26.855  21.916   7.355
 9762POPC   NC353975  16.723  32.996   5.555
 9762POPC   PO453976  16.739  32.999   5.855
 9762POPC   GL153977  16.775  33.008   6.155
 9762POPC   GL253978  16.639  33.131   6.155
 9762POPC   C1A53979  16.685  33.066   6.455
 9762POPC   D2A53980  16.766  33.035   6.755
 9762POPC   C3A53981  16.738  33.021   7.055
 9762POPC   C4A53982  16.725  33.036   7.355
 9762POPC   C1B53983  16.491  33.128   6.455
 9762POPC   C2B53984  16.529  33.175   6.755
 9762POPC   C3B53985  16.521  33.130   7.055
 9762POPC   C4B53986  16.554  33.134   7.355
 9763POPC   NC353987  43.897  40.780   5.555
 9763POPC   PO453988  43.847  40.818   5.855
 9763POPC   GL153989  43.855  40.743   6.155
 9763POPC   GL253990  43.813  40.675   6.155
 9763POPC   C1A53991  43.909  40.821   6.455
 9763POPC   D2A53992  43.882  40.809   6.755
 9763POPC   C3A53993  43.888  40.800   7.055
 9763POPC   C4A53994  43.931  40.755   7.355
 9763POPC   C1B53995  43.707  40.614   6.455
 9763POPC   C2B53996  43.708  40.687   6.755
 9763POPC   C3B53997  43.716  40.664   7.055
 9763POPC   C4B53998  43.688  40.617   7.355
 9764POPC   NC353999  41.522  37.725   5.555
 9764POPC   PO454000  41.581  37.677   5.855
 9764POPC   GL154001  41.583  37.726   6.155
 9764POPC   GL254002  41.495  37.768   6.155
 9764POPC   C1A54003  41.576  37.694   6.455
 9764POPC   D2A54004  41.609  37.673   6.755
 9764POPC   C3A54005  41.603  37.719   7.055
 9764POPC   C4A54006  41.547  37.727   7.355
 9764POPC   C1B54007  41.390  37.929   6.455
 9764POPC   C2B54008  41.450  37.946   6.755
 9764POPC   C3B54009  41.430  37.892   7.055
 9764POPC   C4B54010  41.399  37.871   7.355
 9765POPC   NC354011  13.616  43.070   5.555
 9765POPC   PO454012  13.621  43.150   5.855
 9765POPC   GL154013  13.580  43.072   6.155
 9765POPC   GL254014  13.545  42.977   6.155
 9765POPC   C1A54015  13.658  43.148   6.455
 9765POPC   D2A54016  13.627  43.120   6.755
 9765POPC   C3A54017  13.635  43.119   7.055
 9765POPC   C4A54018  13.648  43.112   7.355
 9765POPC   C1B54019  13.417  42.957   6.455
 9765POPC   C2B54020  13.479  42.983   6.755
 9765POPC   C3B54021  13.415  42.896   7.055
 9765POPC   C4B54022  13.405  42.924   7.355
 9766POPC   NC354023  37.636  29.179   5.555
 9766POPC   PO454024  37.693  29.123   5.855
 9766POPC   GL154025  37.705  29.188   6.155
 9766POPC   GL254026  37.740  29.301   6.155
 9766POPC   C1A54027  37.669  29.137   6.455
 9766POPC   D2A54028  37.724  29.100   6.755
 9766POPC   C3A54029  37.654  29.133   7.055
 9766POPC   C4A54030  37.643  29.139   7.355
 9766POPC   C1B54031  37.780  29.426   6.455
 9766POPC   C2B54032  37.695  29.414   6.755
 9766POPC   C3B54033  37.725  29.398   7.055
 9766POPC   C4B54034  37.712  29.402   7.355
 9767POPC   NC354035  10.547  20.630   5.555
 9767POPC   PO454036  10.497  20.571   5.855
 9767POPC   GL154037  10.561  20.612   6.155
 9767POPC   GL254038  10.605  20.621   6.155
 9767POPC   C1A54039  10.506  20.582   6.455
 9767POPC   D2A54040  10.501  20.592   6.755
 9767POPC   C3A54041  10.508  20.574   7.055
 9767POPC   C4A54042  10.560  20.628   7.355
 9767POPC   C1B54043  10.750  20.738   6.455
 9767POPC   C2B54044  10.780  20.687   6.755
 9767POPC   C3B54045  10.759  20.693   7.055
 9767POPC   C4B54046  10.766  20.680   7.355
 9768POPC   NC354047  26.818  29.161   5.555
 9768POPC   PO454048  26.834  29.104   5.855
 9768POPC   GL154049  26.791  29.127   6.155
 9768POPC   GL254050  26.816  29.309   6.155
 9768POPC   C1A54051  26.808  29.144   6.455
 9768POPC   D2A54052  26.790  29.101   6.755
 9768POPC   C3A54053  26.788  29.136   7.055
 9768POPC   C4A54054  26.781  29.192   7.355
 9768POPC   C1B54055  26.783  29.375   6.455
 9768POPC   C2B54056  26.758  29.355   6.755
 9768POPC   C3B54057  26.782  29.350   7.055
 9768POPC   C4B54058  26.718  29.380   7.355
 9769POPC   NC354059   2.730  14.394   5.555
 9769POPC   PO454060   2.796  14.442   5.855
 9769POPC   GL154061   2.815  14.369   6.155
 9769POPC   GL254062   2.619  14.371   6.155
 9769POPC   C1A54063   2.759  14.367   6.455
 9769POPC   D2A54064   2.771  14.434   6.755
 9769POPC   C3A54065   2.777  14.423   7.055
 9769POPC   C4A54066   2.757  14.438   7.355
 9769POPC   C1B54067   2.504  14.323   6.455
 9769POPC   C2B54068   2.584  14.298   6.755
 9769POPC   C3B54069   2.571  14.243   7.055
 9769POPC   C4B54070   2.552  14.327   7.355
 9770POPC   NC354071  21.346  39.221   5.555
 9770POPC   PO454072  21.388  39.224   5.855
 9770POPC   GL154073  21.341  39.239   6.155
 9770POPC   GL254074  21.439  39.070   6.155
 9770POPC   C1A54075  21.405  39.184   6.455
 9770POPC   D2A54076  21.430  39.237   6.755
 9770POPC   C3A54077  21.381  39.234   7.055
 9770POPC   C4A54078  21.336  39.235   7.355
 9770POPC   C1B54079  21.482  38.956   6.455
 9770POPC   C2B54080  21.498  39.007   6.755
 9770POPC   C3B54081  21.493  39.030   7.055
 9770POPC   C4B54082  21.532  38.954   7.355
 9771POPC   NC354083  14.441  36.175   5.555
 9771POPC   PO454084  14.407  36.127   5.855
 9771POPC   GL154085  14.367  36.177   6.155
 9771POPC   GL254086  14.302  36.168   6.155
 9771POPC   C1A54087  14.420  36.115   6.455
 9771POPC   D2A54088  14.451  36.174   6.755
 9771POPC   C3A54089  14.365  36.171   7.055
 9771POPC   C4A54090  14.418  36.082   7.355
 9771POPC   C1B54091  14.166  36.091   6.455
 9771POPC   C2B54092  14.188  36.172   6.755
 9771POPC   C3B54093  14.169  36.134   7.055
 9771POPC   C4B54094  14.113  36.134   7.355
 9772POPC   NC354095  12.110  22.186   5.555
 9772POPC   PO454096  12.048  22.168   5.855
 9772POPC   GL154097  12.030  22.188   6.155
 9772POPC   GL254098  12.151  22.065   6.155
 9772POPC   C1A54099  12.088  22.195   6.455
 9772POPC   D2A54100  12.080  22.154   6.755
 9772POPC   C3A54101  12.073  22.134   7.055
 9772POPC   C4A54102  12.096  22.189   7.355
 9772POPC   C1B54103  12.223  22.018   6.455
 9772POPC   C2B54104  12.266  22.004   6.755
 9772POPC   C3B54105  12.219  21.935   7.055
 9772POPC   C4B54106  12.262  21.943   7.355
 9773POPC   NC354107  17.497  18.253   5.555
 9773POPC   PO454108  17.469  18.304   5.855
 9773POPC   GL154109  17.511  18.296   6.155
 9773POPC   GL254110  17.578  18.215   6.155
 9773POPC   C1A54111  17.482  18.290   6.455
 9773POPC   D2A54112  17.533  18.304   6.755
 9773POPC   C3A54113  17.545  18.285   7.055
 9773POPC   C4A54114  17.458  18.314   7.355
 9773POPC   C1B54115  17.771  18.162   6.455
 9773POPC   C2B54116  17.770  18.212   6.755
 9773POPC   C3B54117  17.760  18.229   7.055
 9773POPC   C4B54118  17.786  18.203   7.355
 9774POPC   NC354119  34.563  43.093   5.555
 9774POPC   PO454120  34.530  43.141   5.855
 9774POPC   GL154121  34.563  43.081   6.155
 9774POPC   GL254122  34.473  43.183   6.155
 9774POPC   C1A54123  34.535  43.125   6.455
 9774POPC   D2A54124  34.551  43.119   6.755
 9774POPC   C3A54125  34.527  43.067   7.055
 9774POPC   C4A54126  34.589  43.085   7.355
 9774POPC   C1B54127  34.380  43.204   6.455
 9774POPC   C2B54128  34.293  43.178   6.755
 9774POPC   C3B54129  34.354  43.119   7.055
 9774POPC   C4B54130  34.366  43.137   7.355
 9775POPC   NC354131  20.606   5.822   5.555
 9775POPC   PO454132  20.573   5.891   5.855
 9775POPC   GL154133  20.596   5.885   6.155
 9775POPC   GL254134  20.548   5.762   6.155
 9775POPC   C1A54135  20.613   5.876   6.455
 9775POPC   D2A54136  20.598   5.871   6.755
 9775POPC   C3A54137  20.562   5.855   7.055
 9775POPC   C4A54138  20.646   5.821   7.355
 9775POPC   C1B54139  20.516   5.592   6.455
 9775POPC   C2B54140  20.486   5.590   6.755
 9775POPC   C3B54141  20.470   5.680   7.055
 9775POPC   C4B54142  20.508   5.657   7.355
 9776POPC   NC354143  36.865  26.773   5.555
 9776POPC   PO454144  36.869  26.821   5.855
 9776POPC   GL154145  36.892  26.810   6.155
 9776POPC   GL254146  36.892  26.967   6.155
 9776POPC   C1A54147  36.913  26.844   6.455
 9776POPC   D2A54148  36.870  26.820   6.755
 9776POPC   C3A54149  36.903  26.822   7.055
 9776POPC   C4A54150  36.917  26.798   7.355
 9776POPC   C1B54151  36.923  27.100   6.455
 9776POPC   C2B54152  36.893  27.095   6.755
 9776POPC   C3B54153  36.858  27.018   7.055
 9776POPC   C4B54154  36.943  27.037   7.355
 9777POPC   NC354155  18.284  39.961   5.555
 9777POPC   PO454156  18.332  40.011   5.855
 9777POPC   GL154157  18.312  40.053   6.155
 9777POPC   GL254158  18.176  40.033   6.155
 9777POPC   C1A54159  18.258  40.030   6.455
 9777POPC   D2A54160  18.325  40.048   6.755
 9777POPC   C3A54161  18.323  40.021   7.055
 9777POPC   C4A54162  18.248  40.041   7.355
 9777POPC   C1B54163  18.072  40.021   6.455
 9777POPC   C2B54164  18.013  40.049   6.755
 9777POPC   C3B54165  18.004  40.046   7.055
 9777POPC   C4B54166  18.034  40.036   7.355
 9778POPC   NC354167  38.449  15.216   5.555
 9778POPC   PO454168  38.495  15.206   5.855
 9778POPC   GL154169  38.455  15.208   6.155
 9778POPC   GL254170  38.437  15.345   6.155
 9778POPC   C1A54171  38.473  15.214   6.455
 9778POPC   D2A54172  38.441  15.173   6.755
 9778POPC   C3A54173  38.421  15.145   7.055
 9778POPC   C4A54174  38.449  15.184   7.355
 9778POPC   C1B54175  38.428  15.386   6.455
 9778POPC   C2B54176  38.452  15.412   6.755
 9778POPC   C3B54177  38.482  15.467   7.055
 9778POPC   C4B54178  38.424  15.456   7.355
 9779POPC   NC354179  26.079  26.091   5.555
 9779POPC   PO454180  25.991  26.073   5.855
 9779POPC   GL154181  26.031  26.020   6.155
 9779POPC   GL254182  26.065  26.137   6.155
 9779POPC   C1A54183  26.035  26.009   6.455
 9779POPC   D2A54184  26.073  26.079   6.755
 9779POPC   C3A54185  26.045  26.085   7.055
 9779POPC   C4A54186  26.033  26.036   7.355
 9779POPC   C1B54187  25.989  26.296   6.455
 9779POPC   C2B54188  25.968  26.323   6.755
 9779POPC   C3B54189  26.014  26.271   7.055
 9779POPC   C4B54190  25.965  26.266   7.355
 9780POPC   NC354191   1.231  40.787   5.555
 9780POPC   PO454192   1.227  40.816   5.855
 9780POPC   GL154193   1.169  40.799   6.155
 9780POPC   GL254194   1.334  40.799   6.155
 9780POPC   C1A54195   1.227  40.804   6.455
 9780POPC   D2A54196   1.201  40.775   6.755
 9780POPC   C3A54197   1.211  40.825   7.055
 9780POPC   C4A54198   1.180  40.810   7.355
 9780POPC   C1B54199   1.446  40.859   6.455
 9780POPC   C2B54200   1.421  40.917   6.755
 9780POPC   C3B54201   1.486  40.877   7.055
 9780POPC   C4B54202   1.490  40.885   7.355
 9781POPC   NC354203  40.811  40.831   5.555
 9781POPC   PO454204  40.806  40.814   5.855
 9781POPC   GL154205  40.791  40.780   6.155
 9781POPC   GL254206  40.724  40.895   6.155
 9781POPC   C1A54207  40.773  40.776   6.455
 9781POPC   D2A54208  40.743  40.758   6.755
 9781POPC   C3A54209  40.830  40.806   7.055
 9781POPC   C4A54210  40.817  40.750   7.355
 9781POPC   C1B54211  40.717  41.054   6.455
 9781POPC   C2B54212  40.715  41.057   6.755
 9781POPC   C3B54213  40.682  41.037   7.055
 9781POPC   C4B54214  40.749  41.029   7.355
 9782POPC   NC354215  17.483  29.158   5.555
 9782POPC   PO454216  17.530  29.192   5.855
 9782POPC   GL154217  17.495  29.145   6.155
 9782POPC   GL254218  17.564  29.232   6.155
 9782POPC   C1A54219  17.511  29.169   6.455
 9782POPC   D2A54220  17.461  29.152   6.755
 9782POPC   C3A54221  17.501  29.110   7.055
 9782POPC   C4A54222  17.477  29.162   7.355
 9782POPC   C1B54223  17.587  29.329   6.455
 9782POPC   C2B54224  17.617  29.348   6.755
 9782POPC   C3B54225  17.647  29.387   7.055
 9782POPC   C4B54226  17.595  29.322   7.355
 9783POPC   NC354227  12.112   8.972   5.555
 9783POPC   PO454228  12.114   8.935   5.855
 9783POPC   GL154229  12.114   8.926   6.155
 9783POPC   GL254230  12.128   8.910   6.155
 9783POPC   C1A54231  12.110   9.012   6.455
 9783POPC   D2A54232  12.091   8.935   6.755
 9783POPC   C3A54233  12.042   8.923   7.055
 9783POPC   C4A54234  12.032   8.974   7.355
 9783POPC   C1B54235  12.182   8.756   6.455
 9783POPC   C2B54236  12.257   8.746   6.755
 9783POPC   C3B54237  12.246   8.777   7.055
 9783POPC   C4B54238  12.245   8.748   7.355
 9784POPC   NC354239  38.413  28.413   5.555
 9784POPC   PO454240  38.468  28.358   5.855
 9784POPC   GL154241  38.501  28.365   6.155
 9784POPC   GL254242  38.600  28.349   6.155
 9784POPC   C1A54243  38.489  28.403   6.455
 9784POPC   D2A54244  38.420  28.354   6.755
 9784POPC   C3A54245  38.461  28.334   7.055
 9784POPC   C4A54246  38.457  28.373   7.355
 9784POPC   C1B54247  38.691  28.301   6.455
 9784POPC   C2B54248  38.646  28.340   6.755
 9784POPC   C3B54249  38.668  28.321   7.055
 9784POPC   C4B54250  38.715  28.264   7.355
 9785POPC   NC354251  22.892   7.375   5.555
 9785POPC   PO454252  22.933   7.385   5.855
 9785POPC   GL154253  22.956   7.416   6.155
 9785POPC   GL254254  22.936   7.263   6.155
 9785POPC   C1A54255  22.902   7.412   6.455
 9785POPC   D2A54256  22.985   7.457   6.755
 9785POPC   C3A54257  22.948   7.448   7.055
 9785POPC   C4A54258  22.926   7.423   7.355
 9785POPC   C1B54259  23.009   7.134   6.455
 9785POPC   C2B54260  22.972   7.173   6.755
 9785POPC   C3B54261  23.016   7.213   7.055
 9785POPC   C4B54262  22.952   7.191   7.355
 9786POPC   NC354263  22.150  30.666   5.555
 9786POPC   PO454264  22.205  30.734   5.855
 9786POPC   GL154265  22.209  30.746   6.155
 9786POPC   GL254266  22.041  30.598   6.155
 9786POPC   C1A54267  22.174  30.672   6.455
 9786POPC   D2A54268  22.188  30.712   6.755
 9786POPC   C3A54269  22.203  30.675   7.055
 9786POPC   C4A54270  22.174  30.693   7.355
 9786POPC   C1B54271  21.929  30.595   6.455
 9786POPC   C2B54272  21.922  30.623   6.755
 9786POPC   C3B54273  21.941  30.585   7.055
 9786POPC   C4B54274  21.916  30.553   7.355
 9787POPC   NC354275  36.149  33.013   5.555
 9787POPC   PO454276  36.151  32.986   5.855
 9787POPC   GL154277  36.093  33.032   6.155
 9787POPC   GL254278  36.117  32.874   6.155
 9787POPC   C1A54279  36.108  33.000   6.455
 9787POPC   D2A54280  36.123  33.060   6.755
 9787POPC   C3A54281  36.105  33.022   7.055
 9787POPC   C4A54282  36.102  33.065   7.355
 9787POPC   C1B54283  36.086  32.812   6.455
 9787POPC   C2B54284  36.098  32.809   6.755
 9787POPC   C3B54285  36.142  32.757   7.055
 9787POPC   C4B54286  36.071  32.743   7.355
 9788POPC   NC354287  33.839  31.511   5.555
 9788POPC   PO454288  33.785  31.479   5.855
 9788POPC   GL154289  33.799  31.467   6.155
 9788POPC   GL254290  33.671  31.386   6.155
 9788POPC   C1A54291  33.845  31.462   6.455
 9788POPC   D2A54292  33.774  31.505   6.755
 9788POPC   C3A54293  33.771  31.473   7.055
 9788POPC   C4A54294  33.850  31.475   7.355
 9788POPC   C1B54295  33.605  31.405   6.455
 9788POPC   C2B54296  33.592  31.421   6.755
 9788POPC   C3B54297  33.538  31.342   7.055
 9788POPC   C4B54298  33.606  31.413   7.355
 9789POPC   NC354299  27.548  21.416   5.555
 9789POPC   PO454300  27.602  21.408   5.855
 9789POPC   GL154301  27.631  21.372   6.155
 9789POPC   GL254302  27.596  21.311   6.155
 9789POPC   C1A54303  27.623  21.390   6.455
 9789POPC   D2A54304  27.618  21.379   6.755
 9789POPC   C3A54305  27.585  21.418   7.055
 9789POPC   C4A54306  27.576  21.393   7.355
 9789POPC   C1B54307  27.572  21.160   6.455
 9789POPC   C2B54308  27.580  21.144   6.755
 9789POPC   C3B54309  27.650  21.129   7.055
 9789POPC   C4B54310  27.638  21.178   7.355
 9790POPC   NC354311  22.182  17.553   5.555
 9790POPC   PO454312  22.164  17.516   5.855
 9790POPC   GL154313  22.182  17.485   6.155
 9790POPC   GL254314  22.039  17.444   6.155
 9790POPC   C1A54315  22.186  17.500   6.455
 9790POPC   D2A54316  22.174  17.513   6.755
 9790POPC   C3A54317  22.117  17.544   7.055
 9790POPC   C4A54318  22.177  17.540   7.355
 9790POPC   C1B54319  21.991  17.343   6.455
 9790POPC   C2B54320  21.971  17.348   6.755
 9790POPC   C3B54321  22.007  17.303   7.055
 9790POPC   C4B54322  22.019  17.356   7.355
 9791POPC   NC354323   2.027  37.716   5.555
 9791POPC   PO454324   1.976  37.700   5.855
 9791POPC   GL154325   1.987  37.681   6.155
 9791POPC   GL254326   2.097  37.717   6.155
 9791POPC   C1A54327   1.943  37.684   6.455
 9791POPC   D2A54328   2.023  37.658   6.755
 9791POPC   C3A54329   1.949  37.638   7.055
 9791POPC   C4A54330   2.028  37.722   7.355
 9791POPC   C1B54331   2.208  37.664   6.455
 9791POPC   C2B54332   2.201  37.755   6.755
 9791POPC   C3B54333   2.255  37.708   7.055
 9791POPC   C4B54334   2.202  37.724   7.355
 9792POPC   NC354335   1.988   8.198   5.555
 9792POPC   PO454336   1.944   8.151   5.855
 9792POPC   GL154337   1.989   8.163   6.155
 9792POPC   GL254338   2.141   8.227   6.155
 9792POPC   C1A54339   1.980   8.210   6.455
 9792POPC   D2A54340   1.989   8.147   6.755
 9792POPC   C3A54341   2.020   8.213   7.055
 9792POPC   C4A54342   2.012   8.159   7.355
 9792POPC   C1B54343   2.209   8.290   6.455
 9792POPC   C2B54344   2.188   8.245   6.755
 9792POPC   C3B54345   2.212   8.313   7.055
 9792POPC   C4B54346   2.252   8.281   7.355
 9793POPC   NC354347  21.391  15.214   5.555
 9793POPC   PO454348  21.370  15.209   5.855
 9793POPC   GL154349  21.338  15.207   6.155
 9793POPC   GL254350  21.385  15.334   6.155
 9793POPC   C1A54351  21.351  15.226   6.455
 9793POPC   D2A54352  21.371  15.151   6.755
 9793POPC   C3A54353  21.386  15.167   7.055
 9793POPC   C4A54354  21.338  15.216   7.355
 9793POPC   C1B54355  21.429  15.458   6.455
 9793POPC   C2B54356  21.395  15.413   6.755
 9793POPC   C3B54357  21.414  15.431   7.055
 9793POPC   C4B54358  21.388  15.426   7.355
 9794POPC   NC354359  26.825  16.753   5.555
 9794POPC   PO454360  26.799  16.708   5.855
 9794POPC   GL154361  26.866  16.726   6.155
 9794POPC   GL254362  26.913  16.740   6.155
 9794POPC   C1A54363  26.849  16.748   6.455
 9794POPC   D2A54364  26.855  16.700   6.755
 9794POPC   C3A54365  26.841  16.697   7.055
 9794POPC   C4A54366  26.831  16.724   7.355
 9794POPC   C1B54367  27.059  16.707   6.455
 9794POPC   C2B54368  27.011  16.653   6.755
 9794POPC   C3B54369  27.082  16.626   7.055
 9794POPC   C4B54370  27.021  16.624   7.355
 9795POPC   NC354371  16.743  28.373   5.555
 9795POPC   PO454372  16.698  28.381   5.855
 9795POPC   GL154373  16.753  28.373   6.155
 9795POPC   GL254374  16.684  28.439   6.155
 9795POPC   C1A54375  16.737  28.362   6.455
 9795POPC   D2A54376  16.778  28.403   6.755
 9795POPC   C3A54377  16.748  28.403   7.055
 9795POPC   C4A54378  16.732  28.364   7.355
 9795POPC   C1B54379  16.600  28.572   6.455
 9795POPC   C2B54380  16.522  28.523   6.755
 9795POPC   C3B54381  16.576  28.528   7.055
 9795POPC   C4B54382  16.556  28.544   7.355
 9796POPC   NC354383  14.389  19.053   5.555
 9796POPC   PO454384  14.414  19.066   5.855
 9796POPC   GL154385  14.429  19.039   6.155
 9796POPC   GL254386  14.257  18.969   6.155
 9796POPC   C1A54387  14.426  19.037   6.455
 9796POPC   D2A54388  14.375  19.010   6.755
 9796POPC   C3A54389  14.378  19.059   7.055
 9796POPC   C4A54390  14.365  19.085   7.355
 9796POPC   C1B54391  14.220  18.916   6.455
 9796POPC   C2B54392  14.164  18.888   6.755
 9796POPC   C3B54393  14.164  18.859   7.055
 9796POPC   C4B54394  14.253  18.931   7.355
 9797POPC   NC354395  12.097   4.290   5.555
 9797POPC   PO454396  12.047   4.296   5.855
 9797POPC   GL154397  12.102   4.328   6.155
 9797POPC   GL254398  12.138   4.239   6.155
 9797POPC   C1A54399  12.054   4.312   6.455
 9797POPC   D2A54400  12.049   4.364   6.755
 9797POPC   C3A54401  12.045   4.291   7.055
 9797POPC   C4A54402  12.096   4.286   7.355
 9797POPC   C1B54403  12.279   4.178   6.455
 9797POPC   C2B54404  12.262   4.253   6.755
 9797POPC   C3B54405  12.296   4.165   7.055
 9797POPC   C4B54406  12.285   4.230   7.355
 9798POPC   NC354407   2.748  12.043   5.555
 9798POPC   PO454408   2.763  12.105   5.855
 9798POPC   GL154409   2.727  12.037   6.155
 9798POPC   GL254410   2.799  11.964   6.155
 9798POPC   C1A54411   2.725  12.074   6.455
 9798POPC   D2A54412   2.730  12.096   6.755
 9798POPC   C3A54413   2.726  12.026   7.055
 9798POPC   C4A54414   2.780  12.086   7.355
 9798POPC   C1B54415   2.946  11.897   6.455
 9798POPC   C2B54416   2.957  11.831   6.755
 9798POPC   C3B54417   2.922  11.912   7.055
 9798POPC   C4B54418   2.964  11.889   7.355
 9799POPC   NC354419  37.695  20.577   5.555
 9799POPC   PO454420  37.664  20.629   5.855
 9799POPC   GL154421  37.641  20.635   6.155
 9799POPC   GL254422  37.621  20.703   6.155
 9799POPC   C1A54423  37.632  20.635   6.455
 9799POPC   D2A54424  37.661  20.645   6.755
 9799POPC   C3A54425  37.673  20.631   7.055
 9799POPC   C4A54426  37.640  20.565   7.355
 9799POPC   C1B54427  37.495  20.824   6.455
 9799POPC   C2B54428  37.531  20.816   6.755
 9799POPC   C3B54429  37.503  20.825   7.055
 9799POPC   C4B54430  37.504  20.847   7.355
 9800POPC   NC354431  42.333  11.298   5.555
 9800POPC   PO454432  42.322  11.304   5.855
 9800POPC   GL154433  42.351  11.288   6.155
 9800POPC   GL254434  42.310  11.406   6.155
 9800POPC   C1A54435  42.368  11.340   6.455
 9800POPC   D2A54436  42.307  11.253   6.755
 9800POPC   C3A54437  42.299  11.274   7.055
 9800POPC   C4A54438  42.315  11.314   7.355
 9800POPC   C1B54439  42.235  11.536   6.455
 9800POPC   C2B54440  42.177  11.511   6.755
 9800POPC   C3B54441  42.190  11.529   7.055
 9800POPC   C4B54442  42.179  11.493   7.355
 9801POPC   NC354443  11.310  26.784   5.555
 9801POPC   PO454444  11.258  26.795   5.855
 9801POPC   GL154445  11.254  26.769   6.155
 9801POPC   GL254446  11.285  26.907   6.155
 9801POPC   C1A54447  11.310  26.769   6.455
 9801POPC   D2A54448  11.264  26.774   6.755
 9801POPC   C3A54449  11.298  26.769   7.055
 9801POPC   C4A54450  11.349  26.855   7.355
 9801POPC   C1B54451  11.290  27.088   6.455
 9801POPC   C2B54452  11.321  27.079   6.755
 9801POPC   C3B54453  11.384  27.037   7.055
 9801POPC   C4B54454  11.346  27.027   7.355
 9802POPC   NC354455   2.761  16.701   5.555
 9802POPC   PO454456   2.789  16.737   5.855
 9802POPC   GL154457   2.739  16.714   6.155
 9802POPC   GL254458   2.725  16.615   6.155
 9802POPC   C1A54459   2.720  16.774   6.455
 9802POPC   D2A54460   2.775  16.739   6.755
 9802POPC   C3A54461   2.809  16.747   7.055
 9802POPC   C4A54462   2.739  16.772   7.355
 9802POPC   C1B54463   2.743  16.467   6.455
 9802POPC   C2B54464   2.805  16.509   6.755
 9802POPC   C3B54465   2.733  16.531   7.055
 9802POPC   C4B54466   2.733  16.516   7.355
 9803POPC   NC354467   1.177  32.259   5.555
 9803POPC   PO454468   1.250  32.264   5.855
 9803POPC   GL154469   1.184  32.294   6.155
 9803POPC   GL254470   1.171  32.360   6.155
 9803POPC   C1A54471   1.218  32.276   6.455
 9803POPC   D2A54472   1.242  32.200   6.755
 9803POPC   C3A54473   1.211  32.238   7.055
 9803POPC   C4A54474   1.236  32.238   7.355
 9803POPC   C1B54475   1.050  32.385   6.455
 9803POPC   C2B54476   1.048  32.452   6.755
 9803POPC   C3B54477   1.016  32.472   7.055
 9803POPC   C4B54478   1.053  32.451   7.355
 9804POPC   NC354479  41.592  18.238   5.555
 9804POPC   PO454480  41.519  18.311   5.855
 9804POPC   GL154481  41.570  18.301   6.155
 9804POPC   GL254482  41.423  18.406   6.155
 9804POPC   C1A54483  41.523  18.254   6.455
 9804POPC   D2A54484  41.608  18.296   6.755
 9804POPC   C3A54485  41.554  18.271   7.055
 9804POPC   C4A54486  41.548  18.310   7.355
 9804POPC   C1B54487  41.345  18.455   6.455
 9804POPC   C2B54488  41.413  18.448   6.755
 9804POPC   C3B54489  41.411  18.502   7.055
 9804POPC   C4B54490  41.386  18.461   7.355
 9805POPC   NC354491   3.568  12.831   5.555
 9805POPC   PO454492   3.510  12.826   5.855
 9805POPC   GL154493   3.523  12.884   6.155
 9805POPC   GL254494   3.451  12.885   6.155
 9805POPC   C1A54495   3.553  12.889   6.455
 9805POPC   D2A54496   3.521  12.884   6.755
 9805POPC   C3A54497   3.514  12.820   7.055
 9805POPC   C4A54498   3.582  12.824   7.355
 9805POPC   C1B54499   3.329  13.028   6.455
 9805POPC   C2B54500   3.339  13.012   6.755
 9805POPC   C3B54501   3.368  13.017   7.055
 9805POPC   C4B54502   3.392  13.054   7.355
 9806POPC   NC354503   5.121  19.092   5.555
 9806POPC   PO454504   5.086  19.035   5.855
 9806POPC   GL154505   5.083  19.037   6.155
 9806POPC   GL254506   5.073  19.136   6.155
 9806POPC   C1A54507   5.114  19.070   6.455
 9806POPC   D2A54508   5.140  19.106   6.755
 9806POPC   C3A54509   5.054  19.020   7.055
 9806POPC   C4A54510   5.107  19.010   7.355
 9806POPC   C1B54511   4.956  19.317   6.455
 9806POPC   C2B54512   4.983  19.318   6.755
 9806POPC   C3B54513   4.956  19.248   7.055
 9806POPC   C4B54514   5.001  19.329   7.355
 9807POPC   NC354515  34.539  15.937   5.555
 9807POPC   PO454516  34.598  15.929   5.855
 9807POPC   GL154517  34.606  15.950   6.155
 9807POPC   GL254518  34.631  15.850   6.155
 9807POPC   C1A54519  34.601  15.909   6.455
 9807POPC   D2A54520  34.604  15.909   6.755
 9807POPC   C3A54521  34.593  16.001   7.055
 9807POPC   C4A54522  34.606  16.003   7.355
 9807POPC   C1B54523  34.761  15.748   6.455
 9807POPC   C2B54524  34.772  15.769   6.755
 9807POPC   C3B54525  34.720  15.752   7.055
 9807POPC   C4B54526  34.750  15.807   7.355
 9808POPC   NC354527  15.162  43.859   5.555
 9808POPC   PO454528  15.134  43.843   5.855
 9808POPC   GL154529  15.228  43.874   6.155
 9808POPC   GL254530  15.301  43.962   6.155
 9808POPC   C1A54531  15.163  43.848   6.455
 9808POPC   D2A54532  15.200  43.866   6.755
 9808POPC   C3A54533  15.180  43.881   7.055
 9808POPC   C4A54534  15.137  43.910   7.355
 9808POPC   C1B54535  15.424  44.004   6.455
 9808POPC   C2B54536  15.451  43.964   6.755
 9808POPC   C3B54537  15.421  43.966   7.055
 9808POPC   C4B54538  15.432  44.014   7.355
 9809POPC   NC354539  26.769  40.017   5.555
 9809POPC   PO454540  26.826  40.036   5.855
 9809POPC   GL154541  26.779  40.023   6.155
 9809POPC   GL254542  26.657  39.943   6.155
 9809POPC   C1A54543  26.774  39.991   6.455
 9809POPC   D2A54544  26.819  40.016   6.755
 9809POPC   C3A54545  26.774  40.022   7.055
 9809POPC   C4A54546  26.819  39.971   7.355
 9809POPC   C1B54547  26.599  39.882   6.455
 9809POPC   C2B54548  26.538  39.929   6.755
 9809POPC   C3B54549  26.636  39.933   7.055
 9809POPC   C4B54550  26.625  39.953   7.355
 9810POPC   NC354551   9.766  28.367   5.555
 9810POPC   PO454552   9.735  28.320   5.855
 9810POPC   GL154553   9.727  28.342   6.155
 9810POPC   GL254554   9.638  28.312   6.155
 9810POPC   C1A54555   9.724  28.327   6.455
 9810POPC   D2A54556   9.746  28.330   6.755
 9810POPC   C3A54557   9.725  28.378   7.055
 9810POPC   C4A54558   9.716  28.388   7.355
 9810POPC   C1B54559   9.478  28.300   6.455
 9810POPC   C2B54560   9.550  28.310   6.755
 9810POPC   C3B54561   9.504  28.340   7.055
 9810POPC   C4B54562   9.477  28.293   7.355
 9811POPC   NC354563  44.645  35.322   5.555
 9811POPC   PO454564  44.638  35.310   5.855
 9811POPC   GL154565  44.647  35.318   6.155
 9811POPC   GL254566  44.762  35.377   6.155
 9811POPC   C1A54567  44.698  35.308   6.455
 9811POPC   D2A54568  44.670  35.351   6.755
 9811POPC   C3A54569  44.627  35.344   7.055
 9811POPC   C4A54570  44.639  35.327   7.355
 9811POPC   C1B54571  44.851  35.429   6.455
 9811POPC   C2B54572  44.869  35.411   6.755
 9811POPC   C3B54573  44.910  35.422   7.055
 9811POPC   C4B54574  44.858  35.462   7.355
 9812POPC   NC354575  39.202  38.434   5.555
 9812POPC   PO454576  39.273  38.435   5.855
 9812POPC   GL154577  39.258  38.495   6.155
 9812POPC   GL254578  39.116  38.397   6.155
 9812POPC   C1A54579  39.238  38.500   6.455
 9812POPC   D2A54580  39.256  38.443   6.755
 9812POPC   C3A54581  39.189  38.439   7.055
 9812POPC   C4A54582  39.241  38.499   7.355
 9812POPC   C1B54583  39.011  38.331   6.455
 9812POPC   C2B54584  38.995  38.334   6.755
 9812POPC   C3B54585  39.019  38.271   7.055
 9812POPC   C4B54586  39.053  38.335   7.355
 9813POPC   NC354587  24.481  18.290   5.555
 9813POPC   PO454588  24.536  18.269   5.855
 9813POPC   GL154589  24.509  18.250   6.155
 9813POPC   GL254590  24.396  18.183   6.155
 9813POPC   C1A54591  24.506  18.326   6.455
 9813POPC   D2A54592  24.492  18.251   6.755
 9813POPC   C3A54593  24.527  18.297   7.055
 9813POPC   C4A54594  24.471  18.298   7.355
 9813POPC   C1B54595  24.367  18.038   6.455
 9813POPC   C2B54596  24.339  18.059   6.755
 9813POPC   C3B54597  24.374  18.068   7.055
 9813POPC   C4B54598  24.349  18.082   7.355
 9814POPC   NC354599  13.617  37.702   5.555
 9814POPC   PO454600  13.608  37.657   5.855
 9814POPC   GL154601  13.658  37.693   6.155
 9814POPC   GL254602  13.636  37.826   6.155
 9814POPC   C1A54603  13.593  37.655   6.455
 9814POPC   D2A54604  13.674  37.701   6.755
 9814POPC   C3A54605  13.582  37.645   7.055
 9814POPC   C4A54606  13.670  37.724   7.355
 9814POPC   C1B54607  13.600  37.909   6.455
 9814POPC   C2B54608  13.657  37.929   6.755
 9814POPC   C3B54609  13.696  37.953   7.055
 9814POPC   C4B54610  13.686  37.903   7.355
 9815POPC   NC354611  25.279  36.136   5.555
 9815POPC   PO454612  25.264  36.148   5.855
 9815POPC   GL154613  25.264  36.080   6.155
 9815POPC   GL254614  25.392  36.069   6.155
 9815POPC   C1A54615  25.307  36.177   6.455
 9815POPC   D2A54616  25.258  36.092   6.755
 9815POPC   C3A54617  25.224  36.153   7.055
 9815POPC   C4A54618  25.277  36.142   7.355
 9815POPC   C1B54619  25.550  36.029   6.455
 9815POPC   C2B54620  25.531  36.078   6.755
 9815POPC   C3B54621  25.475  36.009   7.055
 9815POPC   C4B54622  25.465  36.076   7.355
 9816POPC   NC354623  13.645  35.394   5.555
 9816POPC   PO454624  13.642  35.358   5.855
 9816POPC   GL154625  13.628  35.313   6.155
 9816POPC   GL254626  13.588  35.466   6.155
 9816POPC   C1A54627  13.606  35.399   6.455
 9816POPC   D2A54628  13.623  35.322   6.755
 9816POPC   C3A54629  13.601  35.391   7.055
 9816POPC   C4A54630  13.662  35.353   7.355
 9816POPC   C1B54631  13.627  35.575   6.455
 9816POPC   C2B54632  13.671  35.604   6.755
 9816POPC   C3B54633  13.609  35.648   7.055
 9816POPC   C4B54634  13.604  35.644   7.355
 9817POPC   NC354635  11.251  18.237   5.555
 9817POPC   PO454636  11.297  18.266   5.855
 9817POPC   GL154637  11.332  18.247   6.155
 9817POPC   GL254638  11.254  18.352   6.155
 9817POPC   C1A54639  11.321  18.332   6.455
 9817POPC   D2A54640  11.298  18.323   6.755
 9817POPC   C3A54641  11.290  18.290   7.055
 9817POPC   C4A54642  11.306  18.311   7.355
 9817POPC   C1B54643  11.183  18.525   6.455
 9817POPC   C2B54644  11.177  18.493   6.755
 9817POPC   C3B54645  11.122  18.465   7.055
 9817POPC   C4B54646  11.161  18.471   7.355
 9818POPC   NC354647  22.961  34.579   5.555
 9818POPC   PO454648  22.964  34.530   5.855
 9818POPC   GL154649  22.900  34.528   6.155
 9818POPC   GL254650  23.022  34.470   6.155
 9818POPC   C1A54651  22.932  34.560   6.455
 9818POPC   D2A54652  22.906  34.572   6.755
 9818POPC   C3A54653  22.942  34.560   7.055
 9818POPC   C4A54654  22.947  34.576   7.355
 9818POPC   C1B54655  23.027  34.367   6.455
 9818POPC   C2B54656  23.025  34.295   6.755
 9818POPC   C3B54657  22.981  34.326   7.055
 9818POPC   C4B54658  23.060  34.372   7.355
 9819POPC   NC354659  17.503  36.099   5.555
 9819POPC   PO454660  17.508  36.089   5.855
 9819POPC   GL154661  17.523  36.120   6.155
 9819POPC   GL254662  17.424  36.219   6.155
 9819POPC   C1A54663  17.515  36.105   6.455
 9819POPC   D2A54664  17.465  36.152   6.755
 9819POPC   C3A54665  17.503  36.140   7.055
 9819POPC   C4A54666  17.482  36.161   7.355
 9819POPC   C1B54667  17.401  36.317   6.455
 9819POPC   C2B54668  17.421  36.372   6.755
 9819POPC   C3B54669  17.354  36.333   7.055
 9819POPC   C4B54670  17.428  36.315   7.355
 9820POPC   NC354671  13.631  14.402   5.555
 9820POPC   PO454672  13.591  14.429   5.855
 9820POPC   GL154673  13.589  14.389   6.155
 9820POPC   GL254674  13.562  14.286   6.155
 9820POPC   C1A54675  13.612  14.392   6.455
 9820POPC   D2A54676  13.656  14.431   6.755
 9820POPC   C3A54677  13.587  14.448   7.055
 9820POPC   C4A54678  13.578  14.371   7.355
 9820POPC   C1B54679  13.536  14.131   6.455
 9820POPC   C2B54680  13.561  14.156   6.755
 9820POPC   C3B54681  13.521  14.154   7.055
 9820POPC   C4B54682  13.522  14.190   7.355
 9821POPC   NC354683  12.834   7.402   5.555
 9821POPC   PO454684  12.828   7.381   5.855
 9821POPC   GL154685  12.842   7.461   6.155
 9821POPC   GL254686  12.927   7.428   6.155
 9821POPC   C1A54687  12.822   7.383   6.455
 9821POPC   D2A54688  12.845   7.397   6.755
 9821POPC   C3A54689  12.879   7.388   7.055
 9821POPC   C4A54690  12.821   7.377   7.355
 9821POPC   C1B54691  13.142   7.451   6.455
 9821POPC   C2B54692  13.123   7.513   6.755
 9821POPC   C3B54693  13.091   7.518   7.055
 9821POPC   C4B54694  13.119   7.465   7.355
 9822POPC   NC354695  13.650  36.141   5.555
 9822POPC   PO454696  13.627  36.134   5.855
 9822POPC   GL154697  13.596  36.093   6.155
 9822POPC   GL254698  13.560  36.245   6.155
 9822POPC   C1A54699  13.654  36.131   6.455
 9822POPC   D2A54700  13.628  36.114   6.755
 9822POPC   C3A54701  13.583  36.156   7.055
 9822POPC   C4A54702  13.596  36.142   7.355
 9822POPC   C1B54703  13.496  36.355   6.455
 9822POPC   C2B54704  13.507  36.382   6.755
 9822POPC   C3B54705  13.485  36.320   7.055
 9822POPC   C4B54706  13.474  36.381   7.355
 9823POPC   NC354707   2.813  34.624   5.555
 9823POPC   PO454708   2.770  34.571   5.855
 9823POPC   GL154709   2.792  34.555   6.155
 9823POPC   GL254710   2.653  34.478   6.155
 9823POPC   C1A54711   2.809  34.541   6.455
 9823POPC   D2A54712   2.725  34.553   6.755
 9823POPC   C3A54713   2.810  34.531   7.055
 9823POPC   C4A54714   2.760  34.600   7.355
 9823POPC   C1B54715   2.629  34.351   6.455
 9823POPC   C2B54716   2.602  34.371   6.755
 9823POPC   C3B54717   2.615  34.427   7.055
 9823POPC   C4B54718   2.598  34.363   7.355
 9824POPC   NC354719  27.625  17.511   5.555
 9824POPC   PO454720  27.562  17.520   5.855
 9824POPC   GL154721  27.623  17.480   6.155
 9824POPC   GL254722  27.594  17.630   6.155
 9824POPC   C1A54723  27.556  17.503   6.455
 9824POPC   D2A54724  27.620  17.467   6.755
 9824POPC   C3A54725  27.617  17.508   7.055
 9824POPC   C4A54726  27.552  17.464   7.355
 9824POPC   C1B54727  27.645  17.800   6.455
 9824POPC   C2B54728  27.593  17.768   6.755
 9824POPC   C3B54729  27.559  17.796   7.055
 9824POPC   C4B54730  27.644  17.773   7.355
 9825POPC   NC354731  15.943   1.208   5.555
 9825POPC   PO454732  15.921   1.180   5.855
 9825POPC   GL154733  15.918   1.197   6.155
 9825POPC   GL254734  16.065   1.278   6.155
 9825POPC   C1A54735  15.945   1.170   6.455
 9825POPC   D2A54736  15.927   1.204   6.755
 9825POPC   C3A54737  15.951   1.183   7.055
 9825POPC   C4A54738  15.921   1.175   7.355
 9825POPC   C1B54739  16.172   1.333   6.455
 9825POPC   C2B54740  16.134   1.328   6.755
 9825POPC   C3B54741  16.134   1.301   7.055
 9825POPC   C4B54742  16.144   1.310   7.355
 9826POPC   NC354743  33.762  19.106   5.555
 9826POPC   PO454744  33.771  19.079   5.855
 9826POPC   GL154745  33.798  19.097   6.155
 9826POPC   GL254746  33.924  18.919   6.155
 9826POPC   C1A54747  33.790  19.016   6.455
 9826POPC   D2A54748  33.771  19.021   6.755
 9826POPC   C3A54749  33.830  19.088   7.055
 9826POPC   C4A54750  33.755  19.070   7.355
 9826POPC   C1B54751  33.949  18.836   6.455
 9826POPC   C2B54752  33.973  18.861   6.755
 9826POPC   C3B54753  33.953  18.828   7.055
 9826POPC   C4B54754  33.903  18.889   7.355
 9827POPC   NC354755  15.956  26.016   5.555
 9827POPC   PO454756  15.928  26.007   5.855
 9827POPC   GL154757  15.927  26.032   6.155
 9827POPC   GL254758  16.006  26.103   6.155
 9827POPC   C1A54759  15.923  26.009   6.455
 9827POPC   D2A54760  15.983  26.079   6.755
 9827POPC   C3A54761  15.948  26.010   7.055
 9827POPC   C4A54762  15.910  26.043   7.355
 9827POPC   C1B54763  16.056  26.258   6.455
 9827POPC   C2B54764  16.048  26.272   6.755
 9827POPC   C3B54765  16.063  26.222   7.055
 9827POPC   C4B54766  16.065  26.301   7.355
 9828POPC   NC354767  19.102  33.051   5.555
 9828POPC   PO454768  19.084  33.043   5.855
 9828POPC   GL154769  19.041  32.977   6.155
 9828POPC   GL254770  19.137  32.972   6.155
 9828POPC   C1A54771  19.017  33.026   6.455
 9828POPC   D2A54772  19.016  32.996   6.755
 9828POPC   C3A54773  19.081  33.068   7.055
 9828POPC   C4A54774  19.018  32.990   7.355
 9828POPC   C1B54775  19.288  32.997   6.455
 9828POPC   C2B54776  19.352  32.968   6.755
 9828POPC   C3B54777  19.266  32.936   7.055
 9828POPC   C4B54778  19.310  32.992   7.355
 9829POPC   NC354779  29.937  33.830   5.555
 9829POPC   PO454780  29.940  33.837   5.855
 9829POPC   GL154781  29.949  33.804   6.155
 9829POPC   GL254782  29.835  33.668   6.155
 9829POPC   C1A54783  29.939  33.848   6.455
 9829POPC   D2A54784  29.902  33.825   6.755
 9829POPC   C3A54785  29.874  33.752   7.055
 9829POPC   C4A54786  29.874  33.792   7.355
 9829POPC   C1B54787  29.764  33.606   6.455
 9829POPC   C2B54788  29.780  33.596   6.755
 9829POPC   C3B54789  29.721  33.608   7.055
 9829POPC   C4B54790  29.747  33.582   7.355
 9830POPC   NC354791  14.370   5.896   5.555
 9830POPC   PO454792  14.355   5.880   5.855
 9830POPC   GL154793  14.384   5.889   6.155
 9830POPC   GL254794  14.530   5.899   6.155
 9830POPC   C1A54795  14.378   5.860   6.455
 9830POPC   D2A54796  14.434   5.844   6.755
 9830POPC   C3A54797  14.372   5.869   7.055
 9830POPC   C4A54798  14.448   5.881   7.355
 9830POPC   C1B54799  14.596   6.072   6.455
 9830POPC   C2B54800  14.556   5.987   6.755
 9830POPC   C3B54801  14.604   6.028   7.055
 9830POPC   C4B54802  14.580   6.024   7.355
 9831POPC   NC354803  15.190  19.025   5.555
 9831POPC   PO454804  15.224  19.052   5.855
 9831POPC   GL154805  15.217  19.067   6.155
 9831POPC   GL254806  15.122  18.940   6.155
 9831POPC   C1A54807  15.149  19.016   6.455
 9831POPC   D2A54808  15.142  19.109   6.755
 9831POPC   C3A54809  15.185  19.012   7.055
 9831POPC   C4A54810  15.227  19.045   7.355
 9831POPC   C1B54811  15.085  18.798   6.455
 9831POPC   C2B54812  15.116  18.769   6.755
 9831POPC   C3B54813  15.171  18.821   7.055
 9831POPC   C4B54814  15.139  18.796   7.355
 9832POPC   NC354815  40.039  33.032   5.555
 9832POPC   PO454816  39.972  32.991   5.855
 9832POPC   GL154817  40.020  33.002   6.155
 9832POPC   GL254818  40.169  32.969   6.155
 9832POPC   C1A54819  40.030  32.998   6.455
 9832POPC   D2A54820  39.976  33.004   6.755
 9832POPC   C3A54821  40.006  33.005   7.055
 9832POPC   C4A54822  40.053  32.998   7.355
 9832POPC   C1B54823  40.300  32.955   6.455
 9832POPC   C2B54824  40.304  33.013   6.755
 9832POPC   C3B54825  40.228  33.017   7.055
 9832POPC   C4B54826  40.285  33.017   7.355
 9833POPC   NC354827  11.322   9.743   5.555
 9833POPC   PO454828  11.287   9.758   5.855
 9833POPC   GL154829  11.338   9.723   6.155
 9833POPC   GL254830  11.335   9.823   6.155
 9833POPC   C1A54831  11.258   9.798   6.455
 9833POPC   D2A54832  11.254   9.786   6.755
 9833POPC   C3A54833  11.333   9.726   7.055
 9833POPC   C4A54834  11.274   9.739   7.355
 9833POPC   C1B54835  11.390  10.006   6.455
 9833POPC   C2B54836  11.393  10.016   6.755
 9833POPC   C3B54837  11.430  10.028   7.055
 9833POPC   C4B54838  11.351   9.979   7.355
 9834POPC   NC354839  12.083  27.620   5.555
 9834POPC   PO454840  12.029  27.613   5.855
 9834POPC   GL154841  12.029  27.599   6.155
 9834POPC   GL254842  12.008  27.433   6.155
 9834POPC   C1A54843  12.102  27.575   6.455
 9834POPC   D2A54844  12.104  27.629   6.755
 9834POPC   C3A54845  12.040  27.620   7.055
 9834POPC   C4A54846  12.049  27.574   7.355
 9834POPC   C1B54847  12.023  27.313   6.455
 9834POPC   C2B54848  11.944  27.339   6.755
 9834POPC   C3B54849  12.017  27.405   7.055
 9834POPC   C4B54850  11.981  27.364   7.355
 9835POPC   NC354851  12.027  25.301   5.555
 9835POPC   PO454852  12.110  25.227   5.855
 9835POPC   GL154853  12.043  25.311   6.155
 9835POPC   GL254854  11.949  25.283   6.155
 9835POPC   C1A54855  12.122  25.258   6.455
 9835POPC   D2A54856  12.076  25.216   6.755
 9835POPC   C3A54857  12.026  25.219   7.055
 9835POPC   C4A54858  12.108  25.270   7.355
 9835POPC   C1B54859  11.854  25.317   6.455
 9835POPC   C2B54860  11.875  25.323   6.755
 9835POPC   C3B54861  11.873  25.345   7.055
 9835POPC   C4B54862  11.834  25.252   7.355
 9836POPC   NC354863  32.244  21.420   5.555
 9836POPC   PO454864  32.241  21.351   5.855
 9836POPC   GL154865  32.202  21.368   6.155
 9836POPC   GL254866  32.325  21.489   6.155
 9836POPC   C1A54867  32.282  21.397   6.455
 9836POPC   D2A54868  32.268  21.409   6.755
 9836POPC   C3A54869  32.260  21.349   7.055
 9836POPC   C4A54870  32.235  21.339   7.355
 9836POPC   C1B54871  32.472  21.550   6.455
 9836POPC   C2B54872  32.460  21.612   6.755
 9836POPC   C3B54873  32.422  21.543   7.055
 9836POPC   C4B54874  32.386  21.518   7.355
 9837POPC   NC354875  15.176   5.089   5.555
 9837POPC   PO454876  15.188   5.043   5.855
 9837POPC   GL154877  15.189   5.094   6.155
 9837POPC   GL254878  15.166   5.166   6.155
 9837POPC   C1A54879  15.170   5.061   6.455
 9837POPC   D2A54880  15.219   5.084   6.755
 9837POPC   C3A54881  15.165   5.054   7.055
 9837POPC   C4A54882  15.140   5.138   7.355
 9837POPC   C1B54883  15.125   5.345   6.455
 9837POPC   C2B54884  15.113   5.302   6.755
 9837POPC   C3B54885  15.066   5.313   7.055
 9837POPC   C4B54886  15.104   5.302   7.355
 9838POPC   NC354887  10.490  44.658   5.555
 9838POPC   PO454888  10.552  44.671   5.855
 9838POPC   GL154889  10.542  44.688   6.155
 9838POPC   GL254890  10.483  44.585   6.155
 9838POPC   C1A54891  10.501  44.632   6.455
 9838POPC   D2A54892  10.556  44.658   6.755
 9838POPC   C3A54893  10.477  44.649   7.055
 9838POPC   C4A54894  10.552  44.694   7.355
 9838POPC   C1B54895  10.444  44.430   6.455
 9838POPC   C2B54896  10.388  44.412   6.755
 9838POPC   C3B54897  10.434  44.428   7.055
 9838POPC   C4B54898  10.385  44.418   7.355
 9839POPC   NC354899  34.579  18.264   5.555
 9839POPC   PO454900  34.563  18.315   5.855
 9839POPC   GL154901  34.555  18.256   6.155
 9839POPC   GL254902  34.591  18.377   6.155
 9839POPC   C1A54903  34.541  18.300   6.455
 9839POPC   D2A54904  34.534  18.244   6.755
 9839POPC   C3A54905  34.614  18.303   7.055
 9839POPC   C4A54906  34.591  18.270   7.355
 9839POPC   C1B54907  34.542  18.571   6.455
 9839POPC   C2B54908  34.538  18.488   6.755
 9839POPC   C3B54909  34.549  18.492   7.055
 9839POPC   C4B54910  34.607  18.521   7.355
 9840POPC   NC354911  40.829  37.713   5.555
 9840POPC   PO454912  40.790  37.717   5.855
 9840POPC   GL154913  40.750  37.645   6.155
 9840POPC   GL254914  40.815  37.589   6.155
 9840POPC   C1A54915  40.821  37.700   6.455
 9840POPC   D2A54916  40.796  37.638   6.755
 9840POPC   C3A54917  40.791  37.687   7.055
 9840POPC   C4A54918  40.773  37.693   7.355
 9840POPC   C1B54919  40.880  37.496   6.455
 9840POPC   C2B54920  40.899  37.497   6.755
 9840POPC   C3B54921  40.926  37.487   7.055
 9840POPC   C4B54922  40.933  37.499   7.355
 9841POPC   NC354923  22.948  26.080   5.555
 9841POPC   PO454924  22.963  26.000   5.855
 9841POPC   GL154925  22.924  26.045   6.155
 9841POPC   GL254926  22.781  26.067   6.155
 9841POPC   C1A54927  22.918  26.034   6.455
 9841POPC   D2A54928  22.933  26.052   6.755
 9841POPC   C3A54929  22.960  26.040   7.055
 9841POPC   C4A54930  22.949  26.066   7.355
 9841POPC   C1B54931  22.708  26.045   6.455
 9841POPC   C2B54932  22.656  26.028   6.755
 9841POPC   C3B54933  22.702  26.012   7.055
 9841POPC   C4B54934  22.717  26.030   7.355
 9842POPC   NC354935  14.433  19.856   5.555
 9842POPC   PO454936  14.388  19.788   5.855
 9842POPC   GL154937  14.411  19.874   6.155
 9842POPC   GL254938  14.338  19.730   6.155
 9842POPC   C1A54939  14.390  19.883   6.455
 9842POPC   D2A54940  14.400  19.832   6.755
 9842POPC   C3A54941  14.388  19.881   7.055
 9842POPC   C4A54942  14.435  19.838   7.355
 9842POPC   C1B54943  14.243  19.709   6.455
 9842POPC   C2B54944  14.194  19.670   6.755
 9842POPC   C3B54945  14.249  19.698   7.055
 9842POPC   C4B54946  14.214  19.654   7.355
 9843POPC   NC354947  25.241  17.532   5.555
 9843POPC   PO454948  25.245  17.497   5.855
 9843POPC   GL154949  25.300  17.545   6.155
 9843POPC   GL254950  25.126  17.574   6.155
 9843POPC   C1A54951  25.306  17.543   6.455
 9843POPC   D2A54952  25.266  17.468   6.755
 9843POPC   C3A54953  25.271  17.538   7.055
 9843POPC   C4A54954  25.263  17.536   7.355
 9843POPC   C1B54955  25.050  17.660   6.455
 9843POPC   C2B54956  25.010  17.687   6.755
 9843POPC   C3B54957  25.052  17.639   7.055
 9843POPC   C4B54958  25.107  17.623   7.355
 9844POPC   NC354959   6.669  44.664   5.555
 9844POPC   PO454960   6.691  44.615   5.855
 9844POPC   GL154961   6.665  44.686   6.155
 9844POPC   GL254962   6.665  44.828   6.155
 9844POPC   C1A54963   6.678  44.667   6.455
 9844POPC   D2A54964   6.681  44.664   6.755
 9844POPC   C3A54965   6.656  44.685   7.055
 9844POPC   C4A54966   6.609  44.704   7.355
 9844POPC   C1B54967   6.595  44.953   6.455
 9844POPC   C2B54968   6.661  44.945   6.755
 9844POPC   C3B54969   6.650  44.938   7.055
 9844POPC   C4B54970   6.596  44.879   7.355
 9845POPC   NC354971  13.596  38.436   5.555
 9845POPC   PO454972  13.625  38.432   5.855
 9845POPC   GL154973  13.590  38.487   6.155
 9845POPC   GL254974  13.737  38.531   6.155
 9845POPC   C1A54975  13.637  38.442   6.455
 9845POPC   D2A54976  13.585  38.480   6.755
 9845POPC   C3A54977  13.645  38.421   7.055
 9845POPC   C4A54978  13.611  38.501   7.355
 9845POPC   C1B54979  13.764  38.597   6.455
 9845POPC   C2B54980  13.774  38.640   6.755
 9845POPC   C3B54981  13.852  38.590   7.055
 9845POPC   C4B54982  13.782  38.644   7.355
 9846POPC   NC354983  43.098  14.384   5.555
 9846POPC   PO454984  43.125  14.414   5.855
 9846POPC   GL154985  43.079  14.389   6.155
 9846POPC   GL254986  43.231  14.391   6.155
 9846POPC   C1A54987  43.158  14.439   6.455
 9846POPC   D2A54988  43.147  14.418   6.755
 9846POPC   C3A54989  43.065  14.433   7.055
 9846POPC   C4A54990  43.106  14.417   7.355
 9846POPC   C1B54991  43.366  14.355   6.455
 9846POPC   C2B54992  43.309  14.339   6.755
 9846POPC   C3B54993  43.373  14.354   7.055
 9846POPC   C4B54994  43.374  14.369   7.355
 9847POPC   NC354995  43.912  22.925   5.555
 9847POPC   PO454996  43.874  22.900   5.855
 9847POPC   GL154997  43.876  22.964   6.155
 9847POPC   GL254998  43.780  22.969   6.155
 9847POPC   C1A54999  43.845  22.941   6.455
 9847POPC   D2A55000  43.846  22.944   6.755
 9847POPC   C3A55001  43.922  22.976   7.055
 9847POPC   C4A55002  43.883  22.936   7.355
 9847POPC   C1B55003  43.634  22.940   6.455
 9847POPC   C2B55004  43.637  22.895   6.755
 9847POPC   C3B55005  43.624  22.960   7.055
 9847POPC   C4B55006  43.662  22.975   7.355
 9848POPC   NC355007  36.926  35.315   5.555
 9848POPC   PO455008  36.950  35.321   5.855
 9848POPC   GL155009  36.949  35.317   6.155
 9848POPC   GL255010  37.053  35.339   6.155
 9848POPC   C1A55011  36.931  35.388   6.455
 9848POPC   D2A55012  36.934  35.348   6.755
 9848POPC   C3A55013  36.945  35.366   7.055
 9848POPC   C4A55014  36.903  35.399   7.355
 9848POPC   C1B55015  37.149  35.411   6.455
 9848POPC   C2B55016  37.179  35.427   6.755
 9848POPC   C3B55017  37.121  35.429   7.055
 9848POPC   C4B55018  37.168  35.459   7.355
 9849POPC   NC355019  34.529  16.771   5.555
 9849POPC   PO455020  34.612  16.743   5.855
 9849POPC   GL155021  34.533  16.703   6.155
 9849POPC   GL255022  34.413  16.721   6.155
 9849POPC   C1A55023  34.577  16.703   6.455
 9849POPC   D2A55024  34.554  16.710   6.755
 9849POPC   C3A55025  34.567  16.717   7.055
 9849POPC   C4A55026  34.535  16.750   7.355
 9849POPC   C1B55027  34.330  16.705   6.455
 9849POPC   C2B55028  34.325  16.745   6.755
 9849POPC   C3B55029  34.312  16.699   7.055
 9849POPC   C4B55030  34.354  16.725   7.355
 9850POPC   NC355031  23.719  34.526   5.555
 9850POPC   PO455032  23.711  34.621   5.855
 9850POPC   GL155033  23.707  34.600   6.155
 9850POPC   GL255034  23.692  34.678   6.155
 9850POPC   C1A55035  23.717  34.602   6.455
 9850POPC   D2A55036  23.664  34.551   6.755
 9850POPC   C3A55037  23.678  34.565   7.055
 9850POPC   C4A55038  23.683  34.600   7.355
 9850POPC   C1B55039  23.571  34.800   6.455
 9850POPC   C2B55040  23.573  34.790   6.755
 9850POPC   C3B55041  23.639  34.802   7.055
 9850POPC   C4B55042  23.602  34.800   7.355
 9851POPC   NC355043  36.140   4.333   5.555
 9851POPC   PO455044  36.126   4.283   5.855
 9851POPC   GL155045  36.129   4.363   6.155
 9851POPC   GL255046  36.184   4.410   6.155
 9851POPC   C1A55047  36.171   4.363   6.455
 9851POPC   D2A55048  36.146   4.336   6.755
 9851POPC   C3A55049  36.097   4.325   7.055
 9851POPC   C4A55050  36.175   4.354   7.355
 9851POPC   C1B55051  36.287   4.538   6.455
 9851POPC   C2B55052  36.226   4.573   6.755
 9851POPC   C3B55053  36.276   4.536   7.055
 9851POPC   C4B55054  36.267   4.569   7.355
 9852POPC   NC355055   7.374  44.695   5.555
 9852POPC   PO455056   7.386  44.673   5.855
 9852POPC   GL155057   7.387  44.653   6.155
 9852POPC   GL255058   7.339  44.796   6.155
 9852POPC   C1A55059   7.371  44.711   6.455
 9852POPC   D2A55060   7.471  44.705   6.755
 9852POPC   C3A55061   7.398  44.618   7.055
 9852POPC   C4A55062   7.372  44.657   7.355
 9852POPC   C1B55063   7.267  44.866   6.455
 9852POPC   C2B55064   7.316  44.839   6.755
 9852POPC   C3B55065   7.313  44.845   7.055
 9852POPC   C4B55066   7.269  44.856   7.355
 9853POPC   NC355067   3.538   5.095   5.555
 9853POPC   PO455068   3.529   5.118   5.855
 9853POPC   GL155069   3.585   5.095   6.155
 9853POPC   GL255070   3.701   5.102   6.155
 9853POPC   C1A55071   3.492   5.130   6.455
 9853POPC   D2A55072   3.560   5.070   6.755
 9853POPC   C3A55073   3.530   5.097   7.055
 9853POPC   C4A55074   3.536   5.109   7.355
 9853POPC   C1B55075   3.775   5.123   6.455
 9853POPC   C2B55076   3.746   5.111   6.755
 9853POPC   C3B55077   3.825   5.097   7.055
 9853POPC   C4B55078   3.801   5.136   7.355
 9854POPC   NC355079  19.793  10.543   5.555
 9854POPC   PO455080  19.857  10.475   5.855
 9854POPC   GL155081  19.789  10.491   6.155
 9854POPC   GL255082  19.801  10.662   6.155
 9854POPC   C1A55083  19.866  10.511   6.455
 9854POPC   D2A55084  19.857  10.554   6.755
 9854POPC   C3A55085  19.853  10.478   7.055
 9854POPC   C4A55086  19.878  10.524   7.355
 9854POPC   C1B55087  19.725  10.720   6.455
 9854POPC   C2B55088  19.765  10.786   6.755
 9854POPC   C3B55089  19.709  10.749   7.055
 9854POPC   C4B55090  19.769  10.809   7.355
 9855POPC   NC355091  19.810   7.390   5.555
 9855POPC   PO455092  19.814   7.383   5.855
 9855POPC   GL155093  19.828   7.445   6.155
 9855POPC   GL255094  19.986   7.491   6.155
 9855POPC   C1A55095  19.813   7.435   6.455
 9855POPC   D2A55096  19.855   7.450   6.755
 9855POPC   C3A55097  19.875   7.386   7.055
 9855POPC   C4A55098  19.827   7.386   7.355
 9855POPC   C1B55099  20.036   7.548   6.455
 9855POPC   C2B55100  20.094   7.537   6.755
 9855POPC   C3B55101  20.064   7.555   7.055
 9855POPC   C4B55102  20.020   7.464   7.355
 9856POPC   NC355103  29.914  44.674   5.555
 9856POPC   PO455104  29.885  44.706   5.855
 9856POPC   GL155105  29.940  44.660   6.155
 9856POPC   GL255106  29.777  44.672   6.155
 9856POPC   C1A55107  29.930  44.629   6.455
 9856POPC   D2A55108  29.927  44.620   6.755
 9856POPC   C3A55109  29.892  44.620   7.055
 9856POPC   C4A55110  29.937  44.670   7.355
 9856POPC   C1B55111  29.702  44.635   6.455
 9856POPC   C2B55112  29.669  44.665   6.755
 9856POPC   C3B55113  29.667  44.614   7.055
 9856POPC   C4B55114  29.649  44.634   7.355
 9857POPC   NC355115  39.202  44.656   5.555
 9857POPC   PO455116  39.199  44.636   5.855
 9857POPC   GL155117  39.242  44.694   6.155
 9857POPC   GL255118  39.321  44.622   6.155
 9857POPC   C1A55119  39.227  44.670   6.455
 9857POPC   D2A55120  39.203  44.618   6.755
 9857POPC   C3A55121  39.187  44.663   7.055
 9857POPC   C4A55122  39.214  44.683   7.355
 9857POPC   C1B55123  39.438  44.597   6.455
 9857POPC   C2B55124  39.457  44.640   6.755
 9857POPC   C3B55125  39.444  44.597   7.055
 9857POPC   C4B55126  39.473  44.583   7.355
 9858POPC   NC355127  14.442  40.796   5.555
 9858POPC   PO455128  14.413  40.805   5.855
 9858POPC   GL155129  14.365  40.743   6.155
 9858POPC   GL255130  14.559  40.782   6.155
 9858POPC   C1A55131  14.434  40.795   6.455
 9858POPC   D2A55132  14.401  40.781   6.755
 9858POPC   C3A55133  14.436  40.791   7.055
 9858POPC   C4A55134  14.376  40.794   7.355
 9858POPC   C1B55135  14.679  40.885   6.455
 9858POPC   C2B55136  14.671  40.862   6.755
 9858POPC   C3B55137  14.630  40.882   7.055
 9858POPC   C4B55138  14.597  40.904   7.355
 9859POPC   NC355139   2.025  22.933   5.555
 9859POPC   PO455140   2.009  22.931   5.855
 9859POPC   GL155141   2.025  22.963   6.155
 9859POPC   GL255142   2.064  22.956   6.155
 9859POPC   C1A55143   2.034  22.962   6.455
 9859POPC   D2A55144   1.990  22.968   6.755
 9859POPC   C3A55145   1.984  22.976   7.055
 9859POPC   C4A55146   1.960  22.900   7.355
 9859POPC   C1B55147   2.201  23.009   6.455
 9859POPC   C2B55148   2.244  23.073   6.755
 9859POPC   C3B55149   2.172  23.084   7.055
 9859POPC   C4B55150   2.187  23.100   7.355
 9860POPC   NC355151  19.044  28.371   5.555
 9860POPC   PO455152  19.048  28.364   5.855
 9860POPC   GL155153  19.082  28.394   6.155
 9860POPC   GL255154  19.022  28.226   6.155
 9860POPC   C1A55155  19.053  28.414   6.455
 9860POPC   D2A55156  19.103  28.320   6.755
 9860POPC   C3A55157  19.022  28.395   7.055
 9860POPC   C4A55158  19.089  28.379   7.355
 9860POPC   C1B55159  18.922  28.187   6.455
 9860POPC   C2B55160  18.860  28.177   6.755
 9860POPC   C3B55161  18.906  28.168   7.055
 9860POPC   C4B55162  18.905  28.119   7.355
 9861POPC   NC355163  43.085  16.718   5.555
 9861POPC   PO455164  43.096  16.753   5.855
 9861POPC   GL155165  43.111  16.704   6.155
 9861POPC   GL255166  43.089  16.880   6.155
 9861POPC   C1A55167  43.079  16.773   6.455
 9861POPC   D2A55168  43.133  16.697   6.755
 9861POPC   C3A55169  43.110  16.726   7.055
 9861POPC   C4A55170  43.070  16.688   7.355
 9861POPC   C1B55171  43.127  16.932   6.455
 9861POPC   C2B55172  43.124  16.996   6.755
 9861POPC   C3B55173  43.148  17.015   7.055
 9861POPC   C4B55174  43.116  16.997   7.355
 9862POPC   NC355175  35.399   2.013   5.555
 9862POPC   PO455176  35.373   1.993   5.855
 9862POPC   GL155177  35.392   2.035   6.155
 9862POPC   GL255178  35.469   1.931   6.155
 9862POPC   C1A55179  35.356   2.032   6.455
 9862POPC   D2A55180  35.338   2.000   6.755
 9862POPC   C3A55181  35.343   2.008   7.055
 9862POPC   C4A55182  35.361   1.958   7.355
 9862POPC   C1B55183  35.539   1.787   6.455
 9862POPC   C2B55184  35.477   1.763   6.755
 9862POPC   C3B55185  35.510   1.831   7.055
 9862POPC   C4B55186  35.445   1.783   7.355
 9863POPC   NC355187  33.023  31.521   5.555
 9863POPC   PO455188  32.987  31.489   5.855
 9863POPC   GL155189  33.037  31.486   6.155
 9863POPC   GL255190  33.036  31.398   6.155
 9863POPC   C1A55191  33.023  31.431   6.455
 9863POPC   D2A55192  33.011  31.440   6.755
 9863POPC   C3A55193  33.054  31.468   7.055
 9863POPC   C4A55194  33.042  31.475   7.355
 9863POPC   C1B55195  32.975  31.248   6.455
 9863POPC   C2B55196  32.967  31.192   6.755
 9863POPC   C3B55197  32.940  31.189   7.055
 9863POPC   C4B55198  32.944  31.205   7.355
 9864POPC   NC355199  31.512  41.530   5.555
 9864POPC   PO455200  31.436  41.527   5.855
 9864POPC   GL155201  31.516  41.582   6.155
 9864POPC   GL255202  31.359  41.533   6.155
 9864POPC   C1A55203  31.502  41.577   6.455
 9864POPC   D2A55204  31.433  41.540   6.755
 9864POPC   C3A55205  31.444  41.561   7.055
 9864POPC   C4A55206  31.458  41.585   7.355
 9864POPC   C1B55207  31.274  41.421   6.455
 9864POPC   C2B55208  31.266  41.479   6.755
 9864POPC   C3B55209  31.257  41.412   7.055
 9864POPC   C4B55210  31.291  41.482   7.355
 9865POPC   NC355211  34.545  12.112   5.555
 9865POPC   PO455212  34.575  12.031   5.855
 9865POPC   GL155213  34.536  12.031   6.155
 9865POPC   GL255214  34.640  12.225   6.155
 9865POPC   C1A55215  34.622  12.078   6.455
 9865POPC   D2A55216  34.606  12.083   6.755
 9865POPC   C3A55217  34.527  12.094   7.055
 9865POPC   C4A55218  34.544  12.048   7.355
 9865POPC   C1B55219  34.639  12.262   6.455
 9865POPC   C2B55220  34.630  12.330   6.755
 9865POPC   C3B55221  34.619  12.335   7.055
 9865POPC   C4B55222  34.674  12.348   7.355
 9866POPC   NC355223  13.665  25.279   5.555
 9866POPC   PO455224  13.586  25.219   5.855
 9866POPC   GL155225  13.581  25.263   6.155
 9866POPC   GL255226  13.537  25.431   6.155
 9866POPC   C1A55227  13.589  25.270   6.455
 9866POPC   D2A55228  13.617  25.283   6.755
 9866POPC   C3A55229  13.642  25.219   7.055
 9866POPC   C4A55230  13.675  25.222   7.355
 9866POPC   C1B55231  13.531  25.544   6.455
 9866POPC   C2B55232  13.510  25.470   6.755
 9866POPC   C3B55233  13.514  25.499   7.055
 9866POPC   C4B55234  13.512  25.537   7.355
 9867POPC   NC355235   6.663  29.958   5.555
 9867POPC   PO455236   6.603  29.949   5.855
 9867POPC   GL155237   6.638  29.960   6.155
 9867POPC   GL255238   6.715  29.809   6.155
 9867POPC   C1A55239   6.629  29.927   6.455
 9867POPC   D2A55240   6.613  29.894   6.755
 9867POPC   C3A55241   6.642  29.884   7.055
 9867POPC   C4A55242   6.635  29.958   7.355
 9867POPC   C1B55243   6.794  29.744   6.455
 9867POPC   C2B55244   6.800  29.733   6.755
 9867POPC   C3B55245   6.854  29.735   7.055
 9867POPC   C4B55246   6.816  29.755   7.355
 9868POPC   NC355247  29.876  19.038   5.555
 9868POPC   PO455248  29.872  19.040   5.855
 9868POPC   GL155249  29.911  19.041   6.155
 9868POPC   GL255250  29.823  19.005   6.155
 9868POPC   C1A55251  29.877  19.044   6.455
 9868POPC   D2A55252  29.934  19.037   6.755
 9868POPC   C3A55253  29.945  19.102   7.055
 9868POPC   C4A55254  29.955  19.058   7.355
 9868POPC   C1B55255  29.659  19.028   6.455
 9868POPC   C2B55256  29.687  19.025   6.755
 9868POPC   C3B55257  29.639  19.050   7.055
 9868POPC   C4B55258  29.694  19.056   7.355
 9869POPC   NC355259  14.424  18.282   5.555
 9869POPC   PO455260  14.379  18.310   5.855
 9869POPC   GL155261  14.354  18.330   6.155
 9869POPC   GL255262  14.499  18.171   6.155
 9869POPC   C1A55263  14.398  18.318   6.455
 9869POPC   D2A55264  14.393  18.308   6.755
 9869POPC   C3A55265  14.428  18.328   7.055
 9869POPC   C4A55266  14.371  18.301   7.355
 9869POPC   C1B55267  14.537  18.042   6.455
 9869POPC   C2B55268  14.571  18.035   6.755
 9869POPC   C3B55269  14.510  18.044   7.055
 9869POPC   C4B55270  14.528  18.120   7.355
 9870POPC   NC355271  15.916  30.652   5.555
 9870POPC   PO455272  15.988  30.661   5.855
 9870POPC   GL155273  15.987  30.666   6.155
 9870POPC   GL255274  16.002  30.532   6.155
 9870POPC   C1A55275  15.974  30.739   6.455
 9870POPC   D2A55276  15.908  30.743   6.755
 9870POPC   C3A55277  15.941  30.715   7.055
 9870POPC   C4A55278  15.931  30.680   7.355
 9870POPC   C1B55279  16.099  30.447   6.455
 9870POPC   C2B55280  16.095  30.443   6.755
 9870POPC   C3B55281  16.094  30.481   7.055
 9870POPC   C4B55282  16.087  30.470   7.355
 9871POPC   NC355283  16.743  43.077   5.555
 9871POPC   PO455284  16.703  43.115   5.855
 9871POPC   GL155285  16.770  43.142   6.155
 9871POPC   GL255286  16.759  43.016   6.155
 9871POPC   C1A55287  16.751  43.098   6.455
 9871POPC   D2A55288  16.762  43.137   6.755
 9871POPC   C3A55289  16.773  43.116   7.055
 9871POPC   C4A55290  16.759  43.074   7.355
 9871POPC   C1B55291  16.875  42.877   6.455
 9871POPC   C2B55292  16.807  42.924   6.755
 9871POPC   C3B55293  16.826  42.916   7.055
 9871POPC   C4B55294  16.805  42.889   7.355
 9872POPC   NC355295  27.641   8.230   5.555
 9872POPC   PO455296  27.552   8.162   5.855
 9872POPC   GL155297  27.562   8.193   6.155
 9872POPC   GL255298  27.661   8.105   6.155
 9872POPC   C1A55299  27.624   8.213   6.455
 9872POPC   D2A55300  27.628   8.164   6.755
 9872POPC   C3A55301  27.609   8.208   7.055
 9872POPC   C4A55302  27.592   8.149   7.355
 9872POPC   C1B55303  27.644   8.004   6.455
 9872POPC   C2B55304  27.713   7.927   6.755
 9872POPC   C3B55305  27.696   7.982   7.055
 9872POPC   C4B55306  27.675   7.952   7.355
 9873POPC   NC355307  36.152  24.507   5.555
 9873POPC   PO455308  36.128  24.499   5.855
 9873POPC   GL155309  36.098  24.538   6.155
 9873POPC   GL255310  35.991  24.522   6.155
 9873POPC   C1A55311  36.079  24.530   6.455
 9873POPC   D2A55312  36.161  24.537   6.755
 9873POPC   C3A55313  36.153  24.504   7.055
 9873POPC   C4A55314  36.177  24.476   7.355
 9873POPC   C1B55315  35.852  24.500   6.455
 9873POPC   C2B55316  35.850  24.486   6.755
 9873POPC   C3B55317  35.836  24.441   7.055
 9873POPC   C4B55318  35.923  24.522   7.355
 9874POPC   NC355319  39.217  10.558   5.555
 9874POPC   PO455320  39.225  10.549   5.855
 9874POPC   GL155321  39.184  10.511   6.155
 9874POPC   GL255322  39.181  10.402   6.155
 9874POPC   C1A55323  39.202  10.566   6.455
 9874POPC   D2A55324  39.274  10.516   6.755
 9874POPC   C3A55325  39.194  10.508   7.055
 9874POPC   C4A55326  39.240  10.488   7.355
 9874POPC   C1B55327  39.240  10.262   6.455
 9874POPC   C2B55328  39.171  10.235   6.755
 9874POPC   C3B55329  39.206  10.305   7.055
 9874POPC   C4B55330  39.206  10.236   7.355
 9875POPC   NC355331  21.348  23.752   5.555
 9875POPC   PO455332  21.389  23.671   5.855
 9875POPC   GL155333  21.376  23.741   6.155
 9875POPC   GL255334  21.249  23.691   6.155
 9875POPC   C1A55335  21.362  23.678   6.455
 9875POPC   D2A55336  21.358  23.718   6.755
 9875POPC   C3A55337  21.397  23.742   7.055
 9875POPC   C4A55338  21.338  23.738   7.355
 9875POPC   C1B55339  21.171  23.625   6.455
 9875POPC   C2B55340  21.182  23.696   6.755
 9875POPC   C3B55341  21.148  23.612   7.055
 9875POPC   C4B55342  21.094  23.655   7.355
 9876POPC   NC355343   2.774  21.348   5.555
 9876POPC   PO455344   2.778  21.380   5.855
 9876POPC   GL155345   2.721  21.379   6.155
 9876POPC   GL255346   2.765  21.260   6.155
 9876POPC   C1A55347   2.752  21.362   6.455
 9876POPC   D2A55348   2.804  21.433   6.755
 9876POPC   C3A55349   2.803  21.421   7.055
 9876POPC   C4A55350   2.731  21.424   7.355
 9876POPC   C1B55351   2.892  21.122   6.455
 9876POPC   C2B55352   2.861  21.147   6.755
 9876POPC   C3B55353   2.874  21.200   7.055
 9876POPC   C4B55354   2.835  21.200   7.355
 9877POPC   NC355355  41.551  25.237   5.555
 9877POPC   PO455356  41.542  25.228   5.855
 9877POPC   GL155357  41.543  25.248   6.155
 9877POPC   GL255358  41.649  25.359   6.155
 9877POPC   C1A55359  41.523  25.230   6.455
 9877POPC   D2A55360  41.566  25.263   6.755
 9877POPC   C3A55361  41.554  25.229   7.055
 9877POPC   C4A55362  41.535  25.229   7.355
 9877POPC   C1B55363  41.766  25.372   6.455
 9877POPC   C2B55364  41.735  25.370   6.755
 9877POPC   C3B55365  41.801  25.378   7.055
 9877POPC   C4B55366  41.728  25.419   7.355
 9878POPC   NC355367  29.120  31.520   5.555
 9878POPC   PO455368  29.114  31.431   5.855
 9878POPC   GL155369  29.146  31.464   6.155
 9878POPC   GL255370  29.170  31.629   6.155
 9878POPC   C1A55371  29.165  31.488   6.455
 9878POPC   D2A55372  29.129  31.437   6.755
 9878POPC   C3A55373  29.189  31.428   7.055
 9878POPC   C4A55374  29.148  31.506   7.355
 9878POPC   C1B55375  29.143  31.713   6.455
 9878POPC   C2B55376  29.121  31.687   6.755
 9878POPC   C3B55377  29.156  31.738   7.055
 9878POPC   C4B55378  29.139  31.695   7.355
 9879POPC   NC355379   5.087  11.282   5.555
 9879POPC   PO455380   5.127  11.323   5.855
 9879POPC   GL155381   5.103  11.262   6.155
 9879POPC   GL255382   5.183  11.371   6.155
 9879POPC   C1A55383   5.083  11.337   6.455
 9879POPC   D2A55384   5.102  11.313   6.755
 9879POPC   C3A55385   5.097  11.341   7.055
 9879POPC   C4A55386   5.113  11.279   7.355
 9879POPC   C1B55387   5.353  11.408   6.455
 9879POPC   C2B55388   5.330  11.421   6.755
 9879POPC   C3B55389   5.329  11.360   7.055
 9879POPC   C4B55390   5.287  11.382   7.355
 9880POPC   NC355391  33.060   1.942   5.555
 9880POPC   PO455392  33.049   2.040   5.855
 9880POPC   GL155393  33.066   2.029   6.155
 9880POPC   GL255394  33.062   1.894   6.155
 9880POPC   C1A55395  33.068   1.950   6.455
 9880POPC   D2A55396  33.030   1.997   6.755
 9880POPC   C3A55397  33.024   1.982   7.055
 9880POPC   C4A55398  33.072   2.014   7.355
 9880POPC   C1B55399  33.101   1.760   6.455
 9880POPC   C2B55400  33.162   1.736   6.755
 9880POPC   C3B55401  33.152   1.734   7.055
 9880POPC   C4B55402  33.156   1.772   7.355
 9881POPC   NC355403  43.094  43.849   5.555
 9881POPC   PO455404  43.107  43.890   5.855
 9881POPC   GL155405  43.158  43.898   6.155
 9881POPC   GL255406  43.088  44.041   6.155
 9881POPC   C1A55407  43.107  43.863   6.455
 9881POPC   D2A55408  43.101  43.908   6.755
 9881POPC   C3A55409  43.136  43.926   7.055
 9881POPC   C4A55410  43.070  43.854   7.355
 9881POPC   C1B55411  43.065  44.096   6.455
 9881POPC   C2B55412  43.109  44.154   6.755
 9881POPC   C3B55413  43.126  44.133   7.055
 9881POPC   C4B55414  43.038  44.095   7.355
 9882POPC   NC355415  36.888  31.467   5.555
 9882POPC   PO455416  36.931  31.513   5.855
 9882POPC   GL155417  36.908  31.465   6.155
 9882POPC   GL255418  36.949  31.375   6.155
 9882POPC   C1A55419  36.874  31.424   6.455
 9882POPC   D2A55420  36.888  31.441   6.755
 9882POPC   C3A55421  36.874  31.471   7.055
 9882POPC   C4A55422  36.858  31.491   7.355
 9882POPC   C1B55423  36.900  31.252   6.455
 9882POPC   C2B55424  36.894  31.200   6.755
 9882POPC   C3B55425  36.941  31.264   7.055
 9882POPC   C4B55426  36.911  31.197   7.355
 9883POPC   NC355427  21.405  29.143   5.555
 9883POPC   PO455428  21.347  29.190   5.855
 9883POPC   GL155429  21.411  29.127   6.155
 9883POPC   GL255430  21.378  29.053   6.155
 9883POPC   C1A55431  21.356  29.189   6.455
 9883POPC   D2A55432  21.409  29.147   6.755
 9883POPC   C3A55433  21.352  29.127   7.055
 9883POPC   C4A55434  21.402  29.178   7.355
 9883POPC   C1B55435  21.245  28.964   6.455
 9883POPC   C2B55436  21.284  28.946   6.755
 9883POPC   C3B55437  21.281  28.881   7.055
 9883POPC   C4B55438  21.297  28.891   7.355
 9884POPC   NC355439   7.402  34.586   5.555
 9884POPC   PO455440   7.396  34.580   5.855
 9884POPC   GL155441   7.445  34.553   6.155
 9884POPC   GL255442   7.486  34.704   6.155
 9884POPC   C1A55443   7.432  34.576   6.455
 9884POPC   D2A55444   7.379  34.608   6.755
 9884POPC   C3A55445   7.419  34.582   7.055
 9884POPC   C4A55446   7.387  34.604   7.355
 9884POPC   C1B55447   7.556  34.780   6.455
 9884POPC   C2B55448   7.586  34.803   6.755
 9884POPC   C3B55449   7.605  34.799   7.055
 9884POPC   C4B55450   7.606  34.816   7.355
 9885POPC   NC355451  18.250  12.045   5.555
 9885POPC   PO455452  18.235  12.098   5.855
 9885POPC   GL155453  18.332  12.089   6.155
 9885POPC   GL255454  18.361  12.222   6.155
 9885POPC   C1A55455  18.248  12.056   6.455
 9885POPC   D2A55456  18.285  12.081   6.755
 9885POPC   C3A55457  18.282  12.063   7.055
 9885POPC   C4A55458  18.323  12.091   7.355
 9885POPC   C1B55459  18.383  12.259   6.455
 9885POPC   C2B55460  18.437  12.326   6.755
 9885POPC   C3B55461  18.359  12.262   7.055
 9885POPC   C4B55462  18.422  12.291   7.355
 9886POPC   NC355463  22.179  22.124   5.555
 9886POPC   PO455464  22.160  22.140   5.855
 9886POPC   GL155465  22.172  22.151   6.155
 9886POPC   GL255466  22.309  22.260   6.155
 9886POPC   C1A55467  22.169  22.210   6.455
 9886POPC   D2A55468  22.191  22.151   6.755
 9886POPC   C3A55469  22.156  22.196   7.055
 9886POPC   C4A55470  22.198  22.192   7.355
 9886POPC   C1B55471  22.372  22.359   6.455
 9886POPC   C2B55472  22.394  22.360   6.755
 9886POPC   C3B55473  22.384  22.310   7.055
 9886POPC   C4B55474  22.335  22.364   7.355
 9887POPC   NC355475  44.651  36.130   5.555
 9887POPC   PO455476  44.645  36.161   5.855
 9887POPC   GL155477  44.613  36.120   6.155
 9887POPC   GL255478  44.695  35.982   6.155
 9887POPC   C1A55479  44.646  36.168   6.455
 9887POPC   D2A55480  44.660  36.166   6.755
 9887POPC   C3A55481  44.634  36.086   7.055
 9887POPC   C4A55482  44.626  36.108   7.355
 9887POPC   C1B55483  44.820  35.890   6.455
 9887POPC   C2B55484  44.806  35.927   6.755
 9887POPC   C3B55485  44.778  35.898   7.055
 9887POPC   C4B55486  44.821  35.896   7.355
 9888POPC   NC355487  33.814  32.242   5.555
 9888POPC   PO455488  33.786  32.204   5.855
 9888POPC   GL155489  33.797  32.292   6.155
 9888POPC   GL255490  33.793  32.352   6.155
 9888POPC   C1A55491  33.767  32.206   6.455
 9888POPC   D2A55492  33.808  32.292   6.755
 9888POPC   C3A55493  33.819  32.244   7.055
 9888POPC   C4A55494  33.751  32.281   7.355
 9888POPC   C1B55495  33.760  32.509   6.455
 9888POPC   C2B55496  33.795  32.485   6.755
 9888POPC   C3B55497  33.766  32.514   7.055
 9888POPC   C4B55498  33.823  32.450   7.355
 9889POPC   NC355499  37.717   0.464   5.555
 9889POPC   PO455500  37.671   0.401   5.855
 9889POPC   GL155501  37.722   0.445   6.155
 9889POPC   GL255502  37.528   0.458   6.155
 9889POPC   C1A55503  37.661   0.396   6.455
 9889POPC   D2A55504  37.727   0.474   6.755
 9889POPC   C3A55505  37.669   0.477   7.055
 9889POPC   C4A55506  37.711   0.446   7.355
 9889POPC   C1B55507  37.415   0.546   6.455
 9889POPC   C2B55508  37.434   0.493   6.755
 9889POPC   C3B55509  37.400   0.514   7.055
 9889POPC   C4B55510  37.493   0.564   7.355
 9890POPC   NC355511  43.930  35.393   5.555
 9890POPC   PO455512  43.886  35.351   5.855
 9890POPC   GL155513  43.913  35.307   6.155
 9890POPC   GL255514  43.913  35.502   6.155
 9890POPC   C1A55515  43.925  35.396   6.455
 9890POPC   D2A55516  43.895  35.375   6.755
 9890POPC   C3A55517  43.918  35.401   7.055
 9890POPC   C4A55518  43.913  35.355   7.355
 9890POPC   C1B55519  43.978  35.587   6.455
 9890POPC   C2B55520  44.009  35.600   6.755
 9890POPC   C3B55521  43.993  35.563   7.055
 9890POPC   C4B55522  43.960  35.568   7.355
 9891POPC   NC355523   7.421   5.058   5.555
 9891POPC   PO455524   7.413   5.143   5.855
 9891POPC   GL155525   7.434   5.052   6.155
 9891POPC   GL255526   7.514   4.960   6.155
 9891POPC   C1A55527   7.382   5.056   6.455
 9891POPC   D2A55528   7.416   5.059   6.755
 9891POPC   C3A55529   7.457   5.061   7.055
 9891POPC   C4A55530   7.384   5.054   7.355
 9891POPC   C1B55531   7.493   4.876   6.455
 9891POPC   C2B55532   7.510   4.811   6.755
 9891POPC   C3B55533   7.506   4.818   7.055
 9891POPC   C4B55534   7.471   4.904   7.355
 9892POPC   NC355535  25.225  24.513   5.555
 9892POPC   PO455536  25.296  24.444   5.855
 9892POPC   GL155537  25.292  24.488   6.155
 9892POPC   GL255538  25.298  24.332   6.155
 9892POPC   C1A55539  25.272  24.534   6.455
 9892POPC   D2A55540  25.277  24.503   6.755
 9892POPC   C3A55541  25.278  24.469   7.055
 9892POPC   C4A55542  25.227  24.513   7.355
 9892POPC   C1B55543  25.248  24.267   6.455
 9892POPC   C2B55544  25.260  24.191   6.755
 9892POPC   C3B55545  25.251  24.285   7.055
 9892POPC   C4B55546  25.282  24.249   7.355
 9893POPC   NC355547  43.862  40.000   5.555
 9893POPC   PO455548  43.905  40.008   5.855
 9893POPC   GL155549  43.846  40.016   6.155
 9893POPC   GL255550  43.754  40.122   6.155
 9893POPC   C1A55551  43.911  40.021   6.455
 9893POPC   D2A55552  43.931  40.045   6.755
 9893POPC   C3A55553  43.905  39.960   7.055
 9893POPC   C4A55554  43.838  40.017   7.355
 9893POPC   C1B55555  43.662  40.101   6.455
 9893POPC   C2B55556  43.690  40.115   6.755
 9893POPC   C3B55557  43.668  40.146   7.055
 9893POPC   C4B55558  43.676  40.112   7.355
 9894POPC   NC355559  19.031  36.918   5.555
 9894POPC   PO455560  19.023  36.945   5.855
 9894POPC   GL155561  19.028  36.909   6.155
 9894POPC   GL255562  19.153  36.899   6.155
 9894POPC   C1A55563  19.104  36.883   6.455
 9894POPC   D2A55564  19.066  36.952   6.755
 9894POPC   C3A55565  19.100  36.900   7.055
 9894POPC   C4A55566  19.032  36.950   7.355
 9894POPC   C1B55567  19.318  36.987   6.455
 9894POPC   C2B55568  19.269  36.989   6.755
 9894POPC   C3B55569  19.280  37.031   7.055
 9894POPC   C4B55570  19.277  37.010   7.355
 9895POPC   NC355571   0.417   2.791   5.555
 9895POPC   PO455572   0.425   2.758   5.855
 9895POPC   GL155573   0.436   2.758   6.155
 9895POPC   GL255574   0.559   2.783   6.155
 9895POPC   C1A55575   0.403   2.815   6.455
 9895POPC   D2A55576   0.452   2.732   6.755
 9895POPC   C3A55577   0.447   2.788   7.055
 9895POPC   C4A55578   0.449   2.723   7.355
 9895POPC   C1B55579   0.657   2.777   6.455
 9895POPC   C2B55580   0.715   2.839   6.755
 9895POPC   C3B55581   0.673   2.795   7.055
 9895POPC   C4B55582   0.697   2.781   7.355
 9896POPC   NC355583  44.706  15.145   5.555
 9896POPC   PO455584  44.705  15.159   5.855
 9896POPC   GL155585  44.681  15.213   6.155
 9896POPC   GL255586  44.767  15.231   6.155
 9896POPC   C1A55587  44.710  15.220   6.455
 9896POPC   D2A55588  44.647  15.133   6.755
 9896POPC   C3A55589  44.636  15.137   7.055
 9896POPC   C4A55590  44.706  15.144   7.355
 9896POPC   C1B55591  44.871  15.253   6.455
 9896POPC   C2B55592  44.925  15.337   6.755
 9896POPC   C3B55593  44.905  15.326   7.055
 9896POPC   C4B55594  44.832  15.275   7.355
 9897POPC   NC355595  43.066  36.952   5.555
 9897POPC   PO455596  43.128  36.888   5.855
 9897POPC   GL155597  43.076  36.880   6.155
 9897POPC   GL255598  42.986  36.897   6.155
 9897POPC   C1A55599  43.154  36.906   6.455
 9897POPC   D2A55600  43.093  36.879   6.755
 9897POPC   C3A55601  43.156  36.931   7.055
 9897POPC   C4A55602  43.063  36.896   7.355
 9897POPC   C1B55603  42.863  36.972   6.455
 9897POPC   C2B55604  42.889  36.948   6.755
 9897POPC   C3B55605  42.831  36.915   7.055
 9897POPC   C4B55606  42.827  36.917   7.355
 9898POPC   NC355607  43.846  37.685   5.555
 9898POPC   PO455608  43.893  37.630   5.855
 9898POPC   GL155609  43.864  37.729   6.155
 9898POPC   GL255610  43.771  37.704   6.155
 9898POPC   C1A55611  43.848  37.724   6.455
 9898POPC   D2A55612  43.867  37.663   6.755
 9898POPC   C3A55613  43.906  37.658   7.055
 9898POPC   C4A55614  43.858  37.723   7.355
 9898POPC   C1B55615  43.683  37.829   6.455
 9898POPC   C2B55616  43.635  37.822   6.755
 9898POPC   C3B55617  43.659  37.745   7.055
 9898POPC   C4B55618  43.658  37.795   7.355
 9899POPC   NC355619  32.254  30.729   5.555
 9899POPC   PO455620  32.252  30.673   5.855
 9899POPC   GL155621  32.206  30.706   6.155
 9899POPC   GL255622  32.287  30.840   6.155
 9899POPC   C1A55623  32.252  30.647   6.455
 9899POPC   D2A55624  32.258  30.712   6.755
 9899POPC   C3A55625  32.230  30.698   7.055
 9899POPC   C4A55626  32.250  30.665   7.355
 9899POPC   C1B55627  32.358  30.909   6.455
 9899POPC   C2B55628  32.404  30.909   6.755
 9899POPC   C3B55629  32.332  30.929   7.055
 9899POPC   C4B55630  32.333  30.892   7.355
 9900POPC   NC355631  28.408  33.762   5.555
 9900POPC   PO455632  28.379  33.835   5.855
 9900POPC   GL155633  28.363  33.762   6.155
 9900POPC   GL255634  28.255  33.918   6.155
 9900POPC   C1A55635  28.357  33.770   6.455
 9900POPC   D2A55636  28.379  33.807   6.755
 9900POPC   C3A55637  28.388  33.753   7.055
 9900POPC   C4A55638  28.413  33.792   7.355
 9900POPC   C1B55639  28.180  33.924   6.455
 9900POPC   C2B55640  28.162  33.912   6.755
 9900POPC   C3B55641  28.121  33.937   7.055
 9900POPC   C4B55642  28.156  33.913   7.355
 9901POPC   NC355643   3.506  21.429   5.555
 9901POPC   PO455644   3.553  21.380   5.855
 9901POPC   GL155645   3.513  21.426   6.155
 9901POPC   GL255646   3.412  21.474   6.155
 9901POPC   C1A55647   3.557  21.355   6.455
 9901POPC   D2A55648   3.499  21.422   6.755
 9901POPC   C3A55649   3.584  21.416   7.055
 9901POPC   C4A55650   3.552  21.404   7.355
 9901POPC   C1B55651   3.279  21.492   6.455
 9901POPC   C2B55652   3.273  21.480   6.755
 9901POPC   C3B55653   3.311  21.493   7.055
 9901POPC   C4B55654   3.321  21.478   7.355
 9902POPC   NC355655  21.413  20.631   5.555
 9902POPC   PO455656  21.428  20.655   5.855
 9902POPC   GL155657  21.392  20.656   6.155
 9902POPC   GL255658  21.519  20.504   6.155
 9902POPC   C1A55659  21.381  20.599   6.455
 9902POPC   D2A55660  21.403  20.627   6.755
 9902POPC   C3A55661  21.371  20.561   7.055
 9902POPC   C4A55662  21.379  20.589   7.355
 9902POPC   C1B55663  21.556  20.454   6.455
 9902POPC   C2B55664  21.538  20.415   6.755
 9902POPC   C3B55665  21.589  20.403   7.055
 9902POPC   C4B55666  21.622  20.488   7.355
 9903POPC   NC355667   8.209  39.244   5.555
 9903POPC   PO455668   8.162  39.246   5.855
 9903POPC   GL155669   8.150  39.196   6.155
 9903POPC   GL255670   8.170  39.324   6.155
 9903POPC   C1A55671   8.200  39.273   6.455
 9903POPC   D2A55672   8.227  39.188   6.755
 9903POPC   C3A55673   8.209  39.242   7.055
 9903POPC   C4A55674   8.177  39.274   7.355
 9903POPC   C1B55675   8.192  39.502   6.455
 9903POPC   C2B55676   8.131  39.458   6.755
 9903POPC   C3B55677   8.210  39.504   7.055
 9903POPC   C4B55678   8.175  39.506   7.355
 9904POPC   NC355679  23.750  37.680   5.555
 9904POPC   PO455680  23.675  37.721   5.855
 9904POPC   GL155681  23.678  37.646   6.155
 9904POPC   GL255682  23.643  37.615   6.155
 9904POPC   C1A55683  23.759  37.716   6.455
 9904POPC   D2A55684  23.703  37.694   6.755
 9904POPC   C3A55685  23.693  37.675   7.055
 9904POPC   C4A55686  23.695  37.672   7.355
 9904POPC   C1B55687  23.614  37.463   6.455
 9904POPC   C2B55688  23.586  37.500   6.755
 9904POPC   C3B55689  23.616  37.442   7.055
 9904POPC   C4B55690  23.593  37.467   7.355
 9905POPC   NC355691  33.034  26.864   5.555
 9905POPC   PO455692  33.027  26.842   5.855
 9905POPC   GL155693  32.998  26.805   6.155
 9905POPC   GL255694  32.946  26.811   6.155
 9905POPC   C1A55695  33.035  26.793   6.455
 9905POPC   D2A55696  33.056  26.853   6.755
 9905POPC   C3A55697  33.034  26.862   7.055
 9905POPC   C4A55698  33.012  26.791   7.355
 9905POPC   C1B55699  32.821  26.920   6.455
 9905POPC   C2B55700  32.831  26.896   6.755
 9905POPC   C3B55701  32.765  26.899   7.055
 9905POPC   C4B55702  32.834  26.947   7.355
 9906POPC   NC355703   9.022  20.573   5.555
 9906POPC   PO455704   8.985  20.592   5.855
 9906POPC   GL155705   8.992  20.573   6.155
 9906POPC   GL255706   8.871  20.495   6.155
 9906POPC   C1A55707   8.966  20.562   6.455
 9906POPC   D2A55708   8.934  20.641   6.755
 9906POPC   C3A55709   8.923  20.654   7.055
 9906POPC   C4A55710   8.934  20.592   7.355
 9906POPC   C1B55711   8.753  20.423   6.455
 9906POPC   C2B55712   8.731  20.440   6.755
 9906POPC   C3B55713   8.791  20.450   7.055
 9906POPC   C4B55714   8.800  20.469   7.355
 9907POPC   NC355715  26.079  19.104   5.555
 9907POPC   PO455716  26.064  19.070   5.855
 9907POPC   GL155717  26.065  19.024   6.155
 9907POPC   GL255718  25.940  19.085   6.155
 9907POPC   C1A55719  26.083  19.058   6.455
 9907POPC   D2A55720  26.034  19.057   6.755
 9907POPC   C3A55721  26.018  19.054   7.055
 9907POPC   C4A55722  26.051  19.043   7.355
 9907POPC   C1B55723  25.828  19.203   6.455
 9907POPC   C2B55724  25.807  19.218   6.755
 9907POPC   C3B55725  25.782  19.196   7.055
 9907POPC   C4B55726  25.774  19.193   7.355
 9908POPC   NC355727   5.140  36.079   5.555
 9908POPC   PO455728   5.089  36.152   5.855
 9908POPC   GL155729   5.094  36.111   6.155
 9908POPC   GL255730   4.958  36.178   6.155
 9908POPC   C1A55731   5.060  36.113   6.455
 9908POPC   D2A55732   5.092  36.095   6.755
 9908POPC   C3A55733   5.122  36.146   7.055
 9908POPC   C4A55734   5.080  36.170   7.355
 9908POPC   C1B55735   4.881  36.280   6.455
 9908POPC   C2B55736   4.899  36.209   6.755
 9908POPC   C3B55737   4.881  36.230   7.055
 9908POPC   C4B55738   4.873  36.282   7.355
 9909POPC   NC355739  11.269  44.689   5.555
 9909POPC   PO455740  11.305  44.645   5.855
 9909POPC   GL155741  11.302  44.680   6.155
 9909POPC   GL255742  11.395  44.717   6.155
 9909POPC   C1A55743  11.277  44.675   6.455
 9909POPC   D2A55744  11.314  44.644   6.755
 9909POPC   C3A55745  11.285  44.634   7.055
 9909POPC   C4A55746  11.335  44.709   7.355
 9909POPC   C1B55747  11.523  44.801   6.455
 9909POPC   C2B55748  11.517  44.795   6.755
 9909POPC   C3B55749  11.509  44.814   7.055
 9909POPC   C4B55750  11.463  44.818   7.355
 9910POPC   NC355751  33.015  10.558   5.555
 9910POPC   PO455752  33.004  10.527   5.855
 9910POPC   GL155753  33.022  10.574   6.155
 9910POPC   GL255754  32.931  10.602   6.155
 9910POPC   C1A55755  32.988  10.523   6.455
 9910POPC   D2A55756  33.062  10.510   6.755
 9910POPC   C3A55757  32.992  10.486   7.055
 9910POPC   C4A55758  33.010  10.565   7.355
 9910POPC   C1B55759  32.777  10.659   6.455
 9910POPC   C2B55760  32.789  10.590   6.755
 9910POPC   C3B55761  32.755  10.602   7.055
 9910POPC   C4B55762  32.848  10.634   7.355
 9911POPC   NC355763  34.597  39.981   5.555
 9911POPC   PO455764  34.555  39.983   5.855
 9911POPC   GL155765  34.568  40.041   6.155
 9911POPC   GL255766  34.422  40.027   6.155
 9911POPC   C1A55767  34.609  40.017   6.455
 9911POPC   D2A55768  34.571  39.975   6.755
 9911POPC   C3A55769  34.588  39.984   7.055
 9911POPC   C4A55770  34.528  40.009   7.355
 9911POPC   C1B55771  34.317  40.042   6.455
 9911POPC   C2B55772  34.323  40.029   6.755
 9911POPC   C3B55773  34.301  40.018   7.055
 9911POPC   C4B55774  34.340  40.005   7.355
 9912POPC   NC355775  22.168   5.091   5.555
 9912POPC   PO455776  22.132   5.052   5.855
 9912POPC   GL155777  22.206   5.124   6.155
 9912POPC   GL255778  22.263   5.155   6.155
 9912POPC   C1A55779  22.210   5.123   6.455
 9912POPC   D2A55780  22.193   5.077   6.755
 9912POPC   C3A55781  22.129   5.056   7.055
 9912POPC   C4A55782  22.132   5.064   7.355
 9912POPC   C1B55783  22.434   5.172   6.455
 9912POPC   C2B55784  22.421   5.137   6.755
 9912POPC   C3B55785  22.409   5.170   7.055
 9912POPC   C4B55786  22.362   5.144   7.355
 9913POPC   NC355787  27.607  15.947   5.555
 9913POPC   PO455788  27.592  15.991   5.855
 9913POPC   GL155789  27.594  15.921   6.155
 9913POPC   GL255790  27.622  15.837   6.155
 9913POPC   C1A55791  27.549  15.911   6.455
 9913POPC   D2A55792  27.614  16.002   6.755
 9913POPC   C3A55793  27.571  15.974   7.055
 9913POPC   C4A55794  27.592  16.002   7.355
 9913POPC   C1B55795  27.604  15.679   6.455
 9913POPC   C2B55796  27.601  15.674   6.755
 9913POPC   C3B55797  27.549  15.728   7.055
 9913POPC   C4B55798  27.610  15.719   7.355
 9914POPC   NC355799  28.363  21.418   5.555
 9914POPC   PO455800  28.336  21.434   5.855
 9914POPC   GL155801  28.397  21.366   6.155
 9914POPC   GL255802  28.540  21.398   6.155
 9914POPC   C1A55803  28.343  21.369   6.455
 9914POPC   D2A55804  28.334  21.406   6.755
 9914POPC   C3A55805  28.321  21.429   7.055
 9914POPC   C4A55806  28.408  21.364   7.355
 9914POPC   C1B55807  28.607  21.318   6.455
 9914POPC   C2B55808  28.583  21.355   6.755
 9914POPC   C3B55809  28.589  21.367   7.055
 9914POPC   C4B55810  28.628  21.366   7.355
 9915POPC   NC355811  36.870  44.667   5.555
 9915POPC   PO455812  36.890  44.680   5.855
 9915POPC   GL155813  36.860  44.687   6.155
 9915POPC   GL255814  36.992  44.587   6.155
 9915POPC   C1A55815  36.915  44.644   6.455
 9915POPC   D2A55816  36.903  44.686   6.755
 9915POPC   C3A55817  36.934  44.627   7.055
 9915POPC   C4A55818  36.882  44.624   7.355
 9915POPC   C1B55819  37.175  44.614   6.455
 9915POPC   C2B55820  37.107  44.572   6.755
 9915POPC   C3B55821  37.147  44.592   7.055
 9915POPC   C4B55822  37.191  44.636   7.355
 9916POPC   NC355823   8.933  27.581   5.555
 9916POPC   PO455824   8.950  27.634   5.855
 9916POPC   GL155825   8.977  27.555   6.155
 9916POPC   GL255826   8.980  27.677   6.155
 9916POPC   C1A55827   8.943  27.618   6.455
 9916POPC   D2A55828   9.011  27.603   6.755
 9916POPC   C3A55829   8.972  27.603   7.055
 9916POPC   C4A55830   8.982  27.558   7.355
 9916POPC   C1B55831   9.100  27.778   6.455
 9916POPC   C2B55832   9.056  27.792   6.755
 9916POPC   C3B55833   9.076  27.835   7.055
 9916POPC   C4B55834   9.053  27.777   7.355
 9917POPC   NC355835   8.955  30.651   5.555
 9917POPC   PO455836   8.963  30.647   5.855
 9917POPC   GL155837   8.989  30.670   6.155
 9917POPC   GL255838   9.109  30.727   6.155
 9917POPC   C1A55839   8.955  30.735   6.455
 9917POPC   D2A55840   8.987  30.727   6.755
 9917POPC   C3A55841   8.932  30.660   7.055
 9917POPC   C4A55842   8.961  30.718   7.355
 9917POPC   C1B55843   9.194  30.832   6.455
 9917POPC   C2B55844   9.131  30.808   6.755
 9917POPC   C3B55845   9.150  30.819   7.055
 9917POPC   C4B55846   9.146  30.811   7.355
 9918POPC   NC355847  40.750  19.818   5.555
 9918POPC   PO455848  40.810  19.882   5.855
 9918POPC   GL155849  40.736  19.819   6.155
 9918POPC   GL255850  40.625  19.818   6.155
 9918POPC   C1A55851  40.757  19.846   6.455
 9918POPC   D2A55852  40.733  19.796   6.755
 9918POPC   C3A55853  40.819  19.859   7.055
 9918POPC   C4A55854  40.759  19.852   7.355
 9918POPC   C1B55855  40.569  19.702   6.455
 9918POPC   C2B55856  40.560  19.713   6.755
 9918POPC   C3B55857  40.558  19.679   7.055
 9918POPC   C4B55858  40.598  19.678   7.355
 9919POPC   NC355859  33.773  41.554   5.555
 9919POPC   PO455860  33.832  41.571   5.855
 9919POPC   GL155861  33.758  41.570   6.155
 9919POPC   GL255862  33.899  41.698   6.155
 9919POPC   C1A55863  33.826  41.519   6.455
 9919POPC   D2A55864  33.752  41.560   6.755
 9919POPC   C3A55865  33.754  41.557   7.055
 9919POPC   C4A55866  33.786  41.588   7.355
 9919POPC   C1B55867  33.932  41.763   6.455
 9919POPC   C2B55868  33.982  41.751   6.755
 9919POPC   C3B55869  33.989  41.744   7.055
 9919POPC   C4B55870  33.991  41.791   7.355
 9920POPC   NC355871  22.953  29.969   5.555
 9920POPC   PO455872  22.892  29.939   5.855
 9920POPC   GL155873  22.899  29.893   6.155
 9920POPC   GL255874  23.033  29.984   6.155
 9920POPC   C1A55875  22.986  29.962   6.455
 9920POPC   D2A55876  22.912  29.961   6.755
 9920POPC   C3A55877  22.890  29.890   7.055
 9920POPC   C4A55878  22.954  29.926   7.355
 9920POPC   C1B55879  23.155  30.057   6.455
 9920POPC   C2B55880  23.123  30.014   6.755
 9920POPC   C3B55881  23.175  30.041   7.055
 9920POPC   C4B55882  23.190  30.015   7.355
 9921POPC   NC355883  25.248  37.728   5.555
 9921POPC   PO455884  25.219  37.711   5.855
 9921POPC   GL155885  25.285  37.695   6.155
 9921POPC   GL255886  25.235  37.816   6.155
 9921POPC   C1A55887  25.274  37.729   6.455
 9921POPC   D2A55888  25.231  37.724   6.755
 9921POPC   C3A55889  25.302  37.647   7.055
 9921POPC   C4A55890  25.241  37.642   7.355
 9921POPC   C1B55891  25.129  37.898   6.455
 9921POPC   C2B55892  25.136  37.905   6.755
 9921POPC   C3B55893  25.152  37.926   7.055
 9921POPC   C4B55894  25.170  37.852   7.355
 9922POPC   NC355895  22.136  25.231   5.555
 9922POPC   PO455896  22.190  25.226   5.855
 9922POPC   GL155897  22.172  25.260   6.155
 9922POPC   GL255898  22.056  25.292   6.155
 9922POPC   C1A55899  22.191  25.280   6.455
 9922POPC   D2A55900  22.136  25.269   6.755
 9922POPC   C3A55901  22.185  25.268   7.055
 9922POPC   C4A55902  22.134  25.246   7.355
 9922POPC   C1B55903  21.981  25.400   6.455
 9922POPC   C2B55904  21.982  25.359   6.755
 9922POPC   C3B55905  21.903  25.399   7.055
 9922POPC   C4B55906  21.934  25.327   7.355
 9923POPC   NC355907  35.382   2.787   5.555
 9923POPC   PO455908  35.335   2.777   5.855
 9923POPC   GL155909  35.347   2.742   6.155
 9923POPC   GL255910  35.340   2.897   6.155
 9923POPC   C1A55911  35.327   2.759   6.455
 9923POPC   D2A55912  35.315   2.749   6.755
 9923POPC   C3A55913  35.367   2.776   7.055
 9923POPC   C4A55914  35.348   2.777   7.355
 9923POPC   C1B55915  35.446   3.048   6.455
 9923POPC   C2B55916  35.442   3.032   6.755
 9923POPC   C3B55917  35.436   2.995   7.055
 9923POPC   C4B55918  35.408   3.047   7.355
 9924POPC   NC355919  33.754  30.736   5.555
 9924POPC   PO455920  33.774  30.705   5.855
 9924POPC   GL155921  33.770  30.742   6.155
 9924POPC   GL255922  33.701  30.791   6.155
 9924POPC   C1A55923  33.779  30.679   6.455
 9924POPC   D2A55924  33.827  30.673   6.755
 9924POPC   C3A55925  33.839  30.699   7.055
 9924POPC   C4A55926  33.775  30.647   7.355
 9924POPC   C1B55927  33.649  30.891   6.455
 9924POPC   C2B55928  33.601  30.810   6.755
 9924POPC   C3B55929  33.597  30.850   7.055
 9924POPC   C4B55930  33.594  30.854   7.355
 9925POPC   NC355931  42.359  32.241   5.555
 9925POPC   PO455932  42.351  32.248   5.855
 9925POPC   GL155933  42.362  32.283   6.155
 9925POPC   GL255934  42.346  32.120   6.155
 9925POPC   C1A55935  42.323  32.213   6.455
 9925POPC   D2A55936  42.313  32.267   6.755
 9925POPC   C3A55937  42.306  32.219   7.055
 9925POPC   C4A55938  42.351  32.219   7.355
 9925POPC   C1B55939  42.422  32.026   6.455
 9925POPC   C2B55940  42.424  31.969   6.755
 9925POPC   C3B55941  42.402  31.982   7.055
 9925POPC   C4B55942  42.384  32.042   7.355
 9926POPC   NC355943  40.812   9.726   5.555
 9926POPC   PO455944  40.760   9.749   5.855
 9926POPC   GL155945  40.807   9.701   6.155
 9926POPC   GL255946  40.851   9.734   6.155
 9926POPC   C1A55947  40.735   9.777   6.455
 9926POPC   D2A55948  40.771   9.744   6.755
 9926POPC   C3A55949  40.826   9.726   7.055
 9926POPC   C4A55950  40.792   9.726   7.355
 9926POPC   C1B55951  41.051   9.626   6.455
 9926POPC   C2B55952  41.037   9.635   6.755
 9926POPC   C3B55953  40.965   9.696   7.055
 9926POPC   C4B55954  41.054   9.612   7.355
 9927POPC   NC355955   7.435  33.778   5.555
 9927POPC   PO455956   7.404  33.810   5.855
 9927POPC   GL155957   7.411  33.785   6.155
 9927POPC   GL255958   7.478  33.741   6.155
 9927POPC   C1A55959   7.430  33.844   6.455
 9927POPC   D2A55960   7.438  33.773   6.755
 9927POPC   C3A55961   7.395  33.758   7.055
 9927POPC   C4A55962   7.414  33.805   7.355
 9927POPC   C1B55963   7.618  33.587   6.455
 9927POPC   C2B55964   7.589  33.637   6.755
 9927POPC   C3B55965   7.656  33.589   7.055
 9927POPC   C4B55966   7.657  33.646   7.355
 9928POPC   NC355967  30.729  19.013   5.555
 9928POPC   PO455968  30.712  19.049   5.855
 9928POPC   GL155969  30.707  19.094   6.155
 9928POPC   GL255970  30.527  19.092   6.155
 9928POPC   C1A55971  30.682  19.012   6.455
 9928POPC   D2A55972  30.683  19.016   6.755
 9928POPC   C3A55973  30.720  19.040   7.055
 9928POPC   C4A55974  30.665  19.075   7.355
 9928POPC   C1B55975  30.403  19.076   6.455
 9928POPC   C2B55976  30.497  19.122   6.755
 9928POPC   C3B55977  30.497  19.104   7.055
 9928POPC   C4B55978  30.441  19.159   7.355
 9929POPC   NC355979   2.728  13.606   5.555
 9929POPC   PO455980   2.789  13.584   5.855
 9929POPC   GL155981   2.743  13.623   6.155
 9929POPC   GL255982   2.790  13.508   6.155
 9929POPC   C1A55983   2.789  13.597   6.455
 9929POPC   D2A55984   2.770  13.645   6.755
 9929POPC   C3A55985   2.812  13.593   7.055
 9929POPC   C4A55986   2.779  13.579   7.355
 9929POPC   C1B55987   2.890  13.394   6.455
 9929POPC   C2B55988   2.871  13.410   6.755
 9929POPC   C3B55989   2.880  13.366   7.055
 9929POPC   C4B55990   2.892  13.439   7.355
 9930POPC   NC355991  34.579   3.589   5.555
 9930POPC   PO455992  34.560   3.582   5.855
 9930POPC   GL155993  34.532   3.583   6.155
 9930POPC   GL255994  34.503   3.656   6.155
 9930POPC   C1A55995  34.533   3.576   6.455
 9930POPC   D2A55996  34.590   3.524   6.755
 9930POPC   C3A55997  34.580   3.576   7.055
 9930POPC   C4A55998  34.603   3.514   7.355
 9930POPC   C1B55999  34.411   3.669   6.455
 9930POPC   C2B56000  34.402   3.641   6.755
 9930POPC   C3B56001  34.383   3.682   7.055
 9930POPC   C4B56002  34.385   3.630   7.355
 9931POPC   NC356003  15.959   8.237   5.555
 9931POPC   PO456004  15.909   8.197   5.855
 9931POPC   GL156005  15.971   8.242   6.155
 9931POPC   GL256006  15.986   8.037   6.155
 9931POPC   C1A56007  15.929   8.241   6.455
 9931POPC   D2A56008  15.937   8.187   6.755
 9931POPC   C3A56009  15.987   8.181   7.055
 9931POPC   C4A56010  15.921   8.166   7.355
 9931POPC   C1B56011  15.989   7.922   6.455
 9931POPC   C2B56012  16.004   7.921   6.755
 9931POPC   C3B56013  16.059   7.908   7.055
 9931POPC   C4B56014  16.022   7.913   7.355
 9932POPC   NC356015  18.250  40.814   5.555
 9932POPC   PO456016  18.296  40.761   5.855
 9932POPC   GL156017  18.300  40.805   6.155
 9932POPC   GL256018  18.390  40.697   6.155
 9932POPC   C1A56019  18.247  40.747   6.455
 9932POPC   D2A56020  18.252  40.826   6.755
 9932POPC   C3A56021  18.301  40.796   7.055
 9932POPC   C4A56022  18.304  40.779   7.355
 9932POPC   C1B56023  18.455  40.638   6.455
 9932POPC   C2B56024  18.444  40.573   6.755
 9932POPC   C3B56025  18.462  40.614   7.055
 9932POPC   C4B56026  18.510  40.608   7.355
 9933POPC   NC356027  19.824  20.578   5.555
 9933POPC   PO456028  19.827  20.608   5.855
 9933POPC   GL156029  19.803  20.630   6.155
 9933POPC   GL256030  19.705  20.524   6.155
 9933POPC   C1A56031  19.855  20.590   6.455
 9933POPC   D2A56032  19.824  20.629   6.755
 9933POPC   C3A56033  19.867  20.580   7.055
 9933POPC   C4A56034  19.883  20.582   7.355
 9933POPC   C1B56035  19.575  20.497   6.455
 9933POPC   C2B56036  19.623  20.542   6.755
 9933POPC   C3B56037  19.634  20.559   7.055
 9933POPC   C4B56038  19.638  20.505   7.355
 9934POPC   NC356039  31.478  32.268   5.555
 9934POPC   PO456040  31.493  32.250   5.855
 9934POPC   GL156041  31.454  32.221   6.155
 9934POPC   GL256042  31.562  32.212   6.155
 9934POPC   C1A56043  31.506  32.250   6.455
 9934POPC   D2A56044  31.503  32.261   6.755
 9934POPC   C3A56045  31.499  32.245   7.055
 9934POPC   C4A56046  31.492  32.234   7.355
 9934POPC   C1B56047  31.688  32.280   6.455
 9934POPC   C2B56048  31.728  32.282   6.755
 9934POPC   C3B56049  31.733  32.250   7.055
 9934POPC   C4B56050  31.694  32.270   7.355
 9935POPC   NC356051   4.289  37.688   5.555
 9935POPC   PO456052   4.338  37.644   5.855
 9935POPC   GL156053   4.323  37.727   6.155
 9935POPC   GL256054   4.447  37.612   6.155
 9935POPC   C1A56055   4.354  37.673   6.455
 9935POPC   D2A56056   4.327  37.683   6.755
 9935POPC   C3A56057   4.290  37.685   7.055
 9935POPC   C4A56058   4.343  37.650   7.355
 9935POPC   C1B56059   4.576  37.507   6.455
 9935POPC   C2B56060   4.539  37.538   6.755
 9935POPC   C3B56061   4.551  37.573   7.055
 9935POPC   C4B56062   4.553  37.561   7.355
 9936POPC   NC356063  19.062  35.388   5.555
 9936POPC   PO456064  19.014  35.364   5.855
 9936POPC   GL156065  19.082  35.365   6.155
 9936POPC   GL256066  18.967  35.398   6.155
 9936POPC   C1A56067  19.055  35.310   6.455
 9936POPC   D2A56068  19.014  35.344   6.755
 9936POPC   C3A56069  19.052  35.383   7.055
 9936POPC   C4A56070  19.074  35.385   7.355
 9936POPC   C1B56071  18.850  35.493   6.455
 9936POPC   C2B56072  18.901  35.524   6.755
 9936POPC   C3B56073  18.907  35.545   7.055
 9936POPC   C4B56074  18.832  35.500   7.355
 9937POPC   NC356075  27.612  42.353   5.555
 9937POPC   PO456076  27.638  42.366   5.855
 9937POPC   GL156077  27.564  42.381   6.155
 9937POPC   GL256078  27.461  42.315   6.155
 9937POPC   C1A56079  27.592  42.376   6.455
 9937POPC   D2A56080  27.625  42.350   6.755
 9937POPC   C3A56081  27.564  42.349   7.055
 9937POPC   C4A56082  27.620  42.308   7.355
 9937POPC   C1B56083  27.300  42.383   6.455
 9937POPC   C2B56084  27.328  42.402   6.755
 9937POPC   C3B56085  27.323  42.435   7.055
 9937POPC   C4B56086  27.310  42.405   7.355
 9938POPC   NC356087  15.140  15.970   5.555
 9938POPC   PO456088  15.166  15.914   5.855
 9938POPC   GL156089  15.133  15.989   6.155
 9938POPC   GL256090  15.346  15.903   6.155
 9938POPC   C1A56091  15.130  15.919   6.455
 9938POPC   D2A56092  15.203  15.943   6.755
 9938POPC   C3A56093  15.182  15.968   7.055
 9938POPC   C4A56094  15.224  15.999   7.355
 9938POPC   C1B56095  15.462  15.913   6.455
 9938POPC   C2B56096  15.385  15.933   6.755
 9938POPC   C3B56097  15.430  15.944   7.055
 9938POPC   C4B56098  15.452  15.930   7.355
 9939POPC   NC356099  22.210  28.377   5.555
 9939POPC   PO456100  22.147  28.395   5.855
 9939POPC   GL156101  22.185  28.397   6.155
 9939POPC   GL256102  22.080  28.431   6.155
 9939POPC   C1A56103  22.123  28.358   6.455
 9939POPC   D2A56104  22.137  28.321   6.755
 9939POPC   C3A56105  22.124  28.375   7.055
 9939POPC   C4A56106  22.135  28.397   7.355
 9939POPC   C1B56107  21.892  28.410   6.455
 9939POPC   C2B56108  21.869  28.403   6.755
 9939POPC   C3B56109  21.923  28.441   7.055
 9939POPC   C4B56110  21.899  28.414   7.355
 9940POPC   NC356111  24.441   7.391   5.555
 9940POPC   PO456112  24.469   7.454   5.855
 9940POPC   GL156113  24.440   7.427   6.155
 9940POPC   GL256114  24.367   7.325   6.155
 9940POPC   C1A56115  24.510   7.393   6.455
 9940POPC   D2A56116  24.468   7.443   6.755
 9940POPC   C3A56117  24.465   7.378   7.055
 9940POPC   C4A56118  24.454   7.468   7.355
 9940POPC   C1B56119  24.290   7.265   6.455
 9940POPC   C2B56120  24.345   7.282   6.755
 9940POPC   C3B56121  24.307   7.235   7.055
 9940POPC   C4B56122  24.300   7.295   7.355
 9941POPC   NC356123  12.874  22.164   5.555
 9941POPC   PO456124  12.881  22.171   5.855
 9941POPC   GL156125  12.818  22.148   6.155
 9941POPC   GL256126  12.744  22.160   6.155
 9941POPC   C1A56127  12.878  22.138   6.455
 9941POPC   D2A56128  12.828  22.132   6.755
 9941POPC   C3A56129  12.871  22.169   7.055
 9941POPC   C4A56130  12.853  22.165   7.355
 9941POPC   C1B56131  12.572  22.040   6.455
 9941POPC   C2B56132  12.664  22.115   6.755
 9941POPC   C3B56133  12.638  22.071   7.055
 9941POPC   C4B56134  12.590  22.087   7.355
 9942POPC   NC356135  28.356  42.317   5.555
 9942POPC   PO456136  28.392  42.332   5.855
 9942POPC   GL156137  28.395  42.370   6.155
 9942POPC   GL256138  28.506  42.410   6.155
 9942POPC   C1A56139  28.384  42.364   6.455
 9942POPC   D2A56140  28.381  42.346   6.755
 9942POPC   C3A56141  28.386  42.330   7.055
 9942POPC   C4A56142  28.378  42.345   7.355
 9942POPC   C1B56143  28.538  42.474   6.455
 9942POPC   C2B56144  28.538  42.453   6.755
 9942POPC   C3B56145  28.626  42.495   7.055
 9942POPC   C4B56146  28.629  42.481   7.355
 9943POPC   NC356147  12.053  43.081   5.555
 9943POPC   PO456148  12.078  43.117   5.855
 9943POPC   GL156149  12.100  43.093   6.155
 9943POPC   GL256150  12.145  42.997   6.155
 9943POPC   C1A56151  12.080  43.157   6.455
 9943POPC   D2A56152  12.103  43.112   6.755
 9943POPC   C3A56153  12.101  43.104   7.055
 9943POPC   C4A56154  12.095  43.111   7.355
 9943POPC   C1B56155  12.151  42.913   6.455
 9943POPC   C2B56156  12.162  42.871   6.755
 9943POPC   C3B56157  12.155  42.923   7.055
 9943POPC   C4B56158  12.115  42.828   7.355
 9944POPC   NC356159  12.860  12.045   5.555
 9944POPC   PO456160  12.886  12.050   5.855
 9944POPC   GL156161  12.808  12.035   6.155
 9944POPC   GL256162  12.708  12.023   6.155
 9944POPC   C1A56163  12.900  12.090   6.455
 9944POPC   D2A56164  12.816  12.041   6.755
 9944POPC   C3A56165  12.893  12.077   7.055
 9944POPC   C4A56166  12.843  12.102   7.355
 9944POPC   C1B56167  12.576  12.090   6.455
 9944POPC   C2B56168  12.586  12.101   6.755
 9944POPC   C3B56169  12.557  12.108   7.055
 9944POPC   C4B56170  12.611  12.036   7.355
 9945POPC   NC356171  24.509  29.917   5.555
 9945POPC   PO456172  24.476  29.900   5.855
 9945POPC   GL156173  24.469  29.915   6.155
 9945POPC   GL256174  24.397  29.938   6.155
 9945POPC   C1A56175  24.526  29.942   6.455
 9945POPC   D2A56176  24.452  29.931   6.755
 9945POPC   C3A56177  24.539  29.877   7.055
 9945POPC   C4A56178  24.526  29.937   7.355
 9945POPC   C1B56179  24.193  29.938   6.455
 9945POPC   C2B56180  24.221  29.910   6.755
 9945POPC   C3B56181  24.203  29.955   7.055
 9945POPC   C4B56182  24.275  29.896   7.355
 9946POPC   NC356183  10.510   6.649   5.555
 9946POPC   PO456184  10.506   6.615   5.855
 9946POPC   GL156185  10.546   6.620   6.155
 9946POPC   GL256186  10.676   6.704   6.155
 9946POPC   C1A56187  10.551   6.684   6.455
 9946POPC   D2A56188  10.570   6.664   6.755
 9946POPC   C3A56189  10.547   6.625   7.055
 9946POPC   C4A56190  10.492   6.679   7.355
 9946POPC   C1B56191  10.731   6.748   6.455
 9946POPC   C2B56192  10.807   6.759   6.755
 9946POPC   C3B56193  10.787   6.756   7.055
 9946POPC   C4B56194  10.764   6.715   7.355
 9947POPC   NC356195  20.619  38.424   5.555
 9947POPC   PO456196  20.604  38.471   5.855
 9947POPC   GL156197  20.612  38.491   6.155
 9947POPC   GL256198  20.648  38.590   6.155
 9947POPC   C1A56199  20.583  38.451   6.455
 9947POPC   D2A56200  20.622  38.430   6.755
 9947POPC   C3A56201  20.613  38.503   7.055
 9947POPC   C4A56202  20.561  38.426   7.355
 9947POPC   C1B56203  20.780  38.685   6.455
 9947POPC   C2B56204  20.715  38.619   6.755
 9947POPC   C3B56205  20.783  38.620   7.055
 9947POPC   C4B56206  20.739  38.626   7.355
 9948POPC   NC356207   6.644  19.056   5.555
 9948POPC   PO456208   6.607  19.071   5.855
 9948POPC   GL156209   6.656  19.085   6.155
 9948POPC   GL256210   6.740  18.963   6.155
 9948POPC   C1A56211   6.628  19.084   6.455
 9948POPC   D2A56212   6.667  19.017   6.755
 9948POPC   C3A56213   6.607  19.042   7.055
 9948POPC   C4A56214   6.626  19.039   7.355
 9948POPC   C1B56215   6.824  18.920   6.455
 9948POPC   C2B56216   6.846  18.948   6.755
 9948POPC   C3B56217   6.831  18.935   7.055
 9948POPC   C4B56218   6.866  18.959   7.355
 9949POPC   NC356219  30.713  22.985   5.555
 9949POPC   PO456220  30.656  22.982   5.855
 9949POPC   GL156221  30.744  22.954   6.155
 9949POPC   GL256222  30.804  22.885   6.155
 9949POPC   C1A56223  30.682  22.963   6.455
 9949POPC   D2A56224  30.705  22.901   6.755
 9949POPC   C3A56225  30.669  22.904   7.055
 9949POPC   C4A56226  30.695  22.924   7.355
 9949POPC   C1B56227  30.961  22.834   6.455
 9949POPC   C2B56228  30.977  22.887   6.755
 9949POPC   C3B56229  30.973  22.852   7.055
 9949POPC   C4B56230  30.893  22.839   7.355
 9950POPC   NC356231  30.656  20.651   5.555
 9950POPC   PO456232  30.720  20.637   5.855
 9950POPC   GL156233  30.705  20.587   6.155
 9950POPC   GL256234  30.618  20.478   6.155
 9950POPC   C1A56235  30.699  20.619   6.455
 9950POPC   D2A56236  30.729  20.608   6.755
 9950POPC   C3A56237  30.700  20.609   7.055
 9950POPC   C4A56238  30.723  20.610   7.355
 9950POPC   C1B56239  30.604  20.326   6.455
 9950POPC   C2B56240  30.655  20.365   6.755
 9950POPC   C3B56241  30.638  20.378   7.055
 9950POPC   C4B56242  30.602  20.347   7.355
 9951POPC   NC356243  29.931  33.026   5.555
 9951POPC   PO456244  29.930  33.029   5.855
 9951POPC   GL156245  29.923  33.048   6.155
 9951POPC   GL256246  29.822  33.083   6.155
 9951POPC   C1A56247  29.922  33.001   6.455
 9951POPC   D2A56248  29.949  33.068   6.755
 9951POPC   C3A56249  29.907  33.047   7.055
 9951POPC   C4A56250  29.942  33.003   7.355
 9951POPC   C1B56251  29.704  33.198   6.455
 9951POPC   C2B56252  29.714  33.199   6.755
 9951POPC   C3B56253  29.718  33.117   7.055
 9951POPC   C4B56254  29.721  33.200   7.355
 9952POPC   NC356255  39.960  36.879   5.555
 9952POPC   PO456256  39.957  36.927   5.855
 9952POPC   GL156257  40.048  36.884   6.155
 9952POPC   GL256258  40.131  36.963   6.155
 9952POPC   C1A56259  39.964  36.916   6.455
 9952POPC   D2A56260  40.003  36.881   6.755
 9952POPC   C3A56261  39.986  36.866   7.055
 9952POPC   C4A56262  39.997  36.892   7.355
 9952POPC   C1B56263  40.296  36.933   6.455
 9952POPC   C2B56264  40.266  36.922   6.755
 9952POPC   C3B56265  40.219  36.927   7.055
 9952POPC   C4B56266  40.238  36.958   7.355
 9953POPC   NC356267  13.596  18.318   5.555
 9953POPC   PO456268  13.649  18.285   5.855
 9953POPC   GL156269  13.625  18.258   6.155
 9953POPC   GL256270  13.715  18.377   6.155
 9953POPC   C1A56271  13.669  18.241   6.455
 9953POPC   D2A56272  13.618  18.277   6.755
 9953POPC   C3A56273  13.627  18.316   7.055
 9953POPC   C4A56274  13.639  18.271   7.355
 9953POPC   C1B56275  13.812  18.500   6.455
 9953POPC   C2B56276  13.837  18.457   6.755
 9953POPC   C3B56277  13.784  18.438   7.055
 9953POPC   C4B56278  13.780  18.444   7.355
 9954POPC   NC356279  19.012  37.689   5.555
 9954POPC   PO456280  19.046  37.714   5.855
 9954POPC   GL156281  19.027  37.695   6.155
 9954POPC   GL256282  19.036  37.510   6.155
 9954POPC   C1A56283  19.055  37.656   6.455
 9954POPC   D2A56284  19.014  37.664   6.755
 9954POPC   C3A56285  19.032  37.637   7.055
 9954POPC   C4A56286  19.090  37.693   7.355
 9954POPC   C1B56287  19.048  37.394   6.455
 9954POPC   C2B56288  19.064  37.382   6.755
 9954POPC   C3B56289  18.984  37.391   7.055
 9954POPC   C4B56290  19.078  37.443   7.355
 9955POPC   NC356291  30.707   1.193   5.555
 9955POPC   PO456292  30.673   1.256   5.855
 9955POPC   GL156293  30.664   1.224   6.155
 9955POPC   GL256294  30.847   1.194   6.155
 9955POPC   C1A56295  30.672   1.188   6.455
 9955POPC   D2A56296  30.686   1.249   6.755
 9955POPC   C3A56297  30.655   1.252   7.055
 9955POPC   C4A56298  30.723   1.191   7.355
 9955POPC   C1B56299  30.977   1.274   6.455
 9955POPC   C2B56300  30.991   1.224   6.755
 9955POPC   C3B56301  30.983   1.299   7.055
 9955POPC   C4B56302  30.975   1.214   7.355
 9956POPC   NC356303   5.826  21.408   5.555
 9956POPC   PO456304   5.908  21.388   5.855
 9956POPC   GL156305   5.918  21.415   6.155
 9956POPC   GL256306   5.805  21.453   6.155
 9956POPC   C1A56307   5.886  21.381   6.455
 9956POPC   D2A56308   5.904  21.414   6.755
 9956POPC   C3A56309   5.827  21.399   7.055
 9956POPC   C4A56310   5.856  21.393   7.355
 9956POPC   C1B56311   5.764  21.653   6.455
 9956POPC   C2B56312   5.795  21.575   6.755
 9956POPC   C3B56313   5.794  21.590   7.055
 9956POPC   C4B56314   5.741  21.581   7.355
 9957POPC   NC356315  11.336  20.582   5.555
 9957POPC   PO456316  11.288  20.653   5.855
 9957POPC   GL156317  11.263  20.599   6.155
 9957POPC   GL256318  11.387  20.476   6.155
 9957POPC   C1A56319  11.311  20.572   6.455
 9957POPC   D2A56320  11.262  20.562   6.755
 9957POPC   C3A56321  11.283  20.653   7.055
 9957POPC   C4A56322  11.321  20.605   7.355
 9957POPC   C1B56323  11.404  20.383   6.455
 9957POPC   C2B56324  11.448  20.408   6.755
 9957POPC   C3B56325  11.378  20.360   7.055
 9957POPC   C4B56326  11.447  20.435   7.355
 9958POPC   NC356327  39.964  26.775   5.555
 9958POPC   PO456328  39.960  26.801   5.855
 9958POPC   GL156329  40.019  26.867   6.155
 9958POPC   GL256330  40.108  26.758   6.155
 9958POPC   C1A56331  40.005  26.770   6.455
 9958POPC   D2A56332  39.981  26.856   6.755
 9958POPC   C3A56333  39.959  26.840   7.055
 9958POPC   C4A56334  40.014  26.790   7.355
 9958POPC   C1B56335  40.267  26.653   6.455
 9958POPC   C2B56336  40.184  26.715   6.755
 9958POPC   C3B56337  40.212  26.688   7.055
 9958POPC   C4B56338  40.227  26.726   7.355
 9959POPC   NC356339  12.864  24.453   5.555
 9959POPC   PO456340  12.835  24.540   5.855
 9959POPC   GL156341  12.880  24.467   6.155
 9959POPC   GL256342  12.822  24.621   6.155
 9959POPC   C1A56343  12.810  24.505   6.455
 9959POPC   D2A56344  12.825  24.528   6.755
 9959POPC   C3A56345  12.851  24.482   7.055
 9959POPC   C4A56346  12.849  24.508   7.355
 9959POPC   C1B56347  12.808  24.778   6.455
 9959POPC   C2B56348  12.815  24.738   6.755
 9959POPC   C3B56349  12.811  24.709   7.055
 9959POPC   C4B56350  12.804  24.758   7.355
 9960POPC   NC356351  18.241  25.239   5.555
 9960POPC   PO456352  18.323  25.264   5.855
 9960POPC   GL156353  18.304  25.221   6.155
 9960POPC   GL256354  18.114  25.243   6.155
 9960POPC   C1A56355  18.269  25.257   6.455
 9960POPC   D2A56356  18.319  25.261   6.755
 9960POPC   C3A56357  18.284  25.244   7.055
 9960POPC   C4A56358  18.264  25.216   7.355
 9960POPC   C1B56359  18.082  25.229   6.455
 9960POPC   C2B56360  17.996  25.326   6.755
 9960POPC   C3B56361  18.009  25.237   7.055
 9960POPC   C4B56362  17.985  25.238   7.355
 9961POPC   NC356363  23.665  24.537   5.555
 9961POPC   PO456364  23.687  24.532   5.855
 9961POPC   GL156365  23.735  24.521   6.155
 9961POPC   GL256366  23.550  24.415   6.155
 9961POPC   C1A56367  23.745  24.476   6.455
 9961POPC   D2A56368  23.724  24.453   6.755
 9961POPC   C3A56369  23.759  24.520   7.055
 9961POPC   C4A56370  23.744  24.469   7.355
 9961POPC   C1B56371  23.466  24.467   6.455
 9961POPC   C2B56372  23.444  24.429   6.755
 9961POPC   C3B56373  23.506  24.392   7.055
 9961POPC   C4B56374  23.505  24.459   7.355
 9962POPC   NC356375   7.371  38.425   5.555
 9962POPC   PO456376   7.377  38.415   5.855
 9962POPC   GL156377   7.386  38.431   6.155
 9962POPC   GL256378   7.433  38.380   6.155
 9962POPC   C1A56379   7.433  38.499   6.455
 9962POPC   D2A56380   7.416  38.415   6.755
 9962POPC   C3A56381   7.389  38.434   7.055
 9962POPC   C4A56382   7.446  38.457   7.355
 9962POPC   C1B56383   7.513  38.245   6.455
 9962POPC   C2B56384   7.519  38.202   6.755
 9962POPC   C3B56385   7.485  38.177   7.055
 9962POPC   C4B56386   7.456  38.209   7.355
 9963POPC   NC356387   2.775   8.190   5.555
 9963POPC   PO456388   2.724   8.188   5.855
 9963POPC   GL156389   2.747   8.196   6.155
 9963POPC   GL256390   2.859   8.210   6.155
 9963POPC   C1A56391   2.786   8.184   6.455
 9963POPC   D2A56392   2.786   8.154   6.755
 9963POPC   C3A56393   2.782   8.157   7.055
 9963POPC   C4A56394   2.754   8.181   7.355
 9963POPC   C1B56395   2.991   8.213   6.455
 9963POPC   C2B56396   2.975   8.266   6.755
 9963POPC   C3B56397   2.973   8.279   7.055
 9963POPC   C4B56398   2.988   8.253   7.355
 9964POPC   NC356399   0.398  34.588   5.555
 9964POPC   PO456400   0.450  34.555   5.855
 9964POPC   GL156401   0.429  34.556   6.155
 9964POPC   GL256402   0.416  34.486   6.155
 9964POPC   C1A56403   0.477  34.593   6.455
 9964POPC   D2A56404   0.433  34.568   6.755
 9964POPC   C3A56405   0.433  34.596   7.055
 9964POPC   C4A56406   0.433  34.551   7.355
 9964POPC   C1B56407   0.323  34.347   6.455
 9964POPC   C2B56408   0.281  34.366   6.755
 9964POPC   C3B56409   0.295  34.353   7.055
 9964POPC   C4B56410   0.321  34.394   7.355
 9965POPC   NC356411   7.419   5.873   5.555
 9965POPC   PO456412   7.423   5.874   5.855
 9965POPC   GL156413   7.459   5.850   6.155
 9965POPC   GL256414   7.560   5.800   6.155
 9965POPC   C1A56415   7.452   5.889   6.455
 9965POPC   D2A56416   7.444   5.845   6.755
 9965POPC   C3A56417   7.437   5.881   7.055
 9965POPC   C4A56418   7.387   5.841   7.355
 9965POPC   C1B56419   7.622   5.738   6.455
 9965POPC   C2B56420   7.648   5.786   6.755
 9965POPC   C3B56421   7.626   5.816   7.055
 9965POPC   C4B56422   7.697   5.726   7.355
 9966POPC   NC356423  33.019   9.705   5.555
 9966POPC   PO456424  33.042   9.721   5.855
 9966POPC   GL156425  33.066   9.761   6.155
 9966POPC   GL256426  33.031   9.869   6.155
 9966POPC   C1A56427  32.988   9.788   6.455
 9966POPC   D2A56428  33.028   9.790   6.755
 9966POPC   C3A56429  33.066   9.735   7.055
 9966POPC   C4A56430  33.051   9.707   7.355
 9966POPC   C1B56431  33.128   9.953   6.455
 9966POPC   C2B56432  33.098   9.949   6.755
 9966POPC   C3B56433  33.079  10.035   7.055
 9966POPC   C4B56434  33.040   9.990   7.355
 9967POPC   NC356435  39.973  10.495   5.555
 9967POPC   PO456436  40.048  10.531   5.855
 9967POPC   GL156437  40.000  10.515   6.155
 9967POPC   GL256438  39.940  10.399   6.155
 9967POPC   C1A56439  39.987  10.561   6.455
 9967POPC   D2A56440  40.045  10.546   6.755
 9967POPC   C3A56441  40.003  10.546   7.055
 9967POPC   C4A56442  40.034  10.502   7.355
 9967POPC   C1B56443  39.816  10.326   6.455
 9967POPC   C2B56444  39.827  10.395   6.755
 9967POPC   C3B56445  39.860  10.339   7.055
 9967POPC   C4B56446  39.773  10.378   7.355
 9968POPC   NC356447   0.479  15.143   5.555
 9968POPC   PO456448   0.455  15.172   5.855
 9968POPC   GL156449   0.468  15.227   6.155
 9968POPC   GL256450   0.541  15.209   6.155
 9968POPC   C1A56451   0.454  15.176   6.455
 9968POPC   D2A56452   0.461  15.164   6.755
 9968POPC   C3A56453   0.477  15.171   7.055
 9968POPC   C4A56454   0.423  15.204   7.355
 9968POPC   C1B56455   0.626  15.277   6.455
 9968POPC   C2B56456   0.684  15.358   6.755
 9968POPC   C3B56457   0.662  15.322   7.055
 9968POPC   C4B56458   0.630  15.261   7.355
 9969POPC   NC356459  32.999  19.806   5.555
 9969POPC   PO456460  33.045  19.853   5.855
 9969POPC   GL156461  33.005  19.834   6.155
 9969POPC   GL256462  33.120  19.903   6.155
 9969POPC   C1A56463  33.044  19.790   6.455
 9969POPC   D2A56464  33.013  19.791   6.755
 9969POPC   C3A56465  33.046  19.787   7.055
 9969POPC   C4A56466  32.985  19.795   7.355
 9969POPC   C1B56467  33.139  20.007   6.455
 9969POPC   C2B56468  33.188  20.011   6.755
 9969POPC   C3B56469  33.177  20.013   7.055
 9969POPC   C4B56470  33.170  20.031   7.355
 9970POPC   NC356471  40.775  43.868   5.555
 9970POPC   PO456472  40.781  43.837   5.855
 9970POPC   GL156473  40.795  43.930   6.155
 9970POPC   GL256474  40.769  43.722   6.155
 9970POPC   C1A56475  40.820  43.918   6.455
 9970POPC   D2A56476  40.779  43.933   6.755
 9970POPC   C3A56477  40.794  43.905   7.055
 9970POPC   C4A56478  40.790  43.870   7.355
 9970POPC   C1B56479  40.656  43.667   6.455
 9970POPC   C2B56480  40.738  43.657   6.755
 9970POPC   C3B56481  40.670  43.613   7.055
 9970POPC   C4B56482  40.730  43.649   7.355
 9971POPC   NC356483   5.139  32.993   5.555
 9971POPC   PO456484   5.133  33.062   5.855
 9971POPC   GL156485   5.080  33.047   6.155
 9971POPC   GL256486   5.139  32.947   6.155
 9971POPC   C1A56487   5.119  32.990   6.455
 9971POPC   D2A56488   5.104  33.063   6.755
 9971POPC   C3A56489   5.063  32.986   7.055
 9971POPC   C4A56490   5.124  33.006   7.355
 9971POPC   C1B56491   5.088  32.785   6.455
 9971POPC   C2B56492   5.108  32.820   6.755
 9971POPC   C3B56493   5.107  32.796   7.055
 9971POPC   C4B56494   5.127  32.775   7.355
 9972POPC   NC356495  21.353  31.429   5.555
 9972POPC   PO456496  21.428  31.425   5.855
 9972POPC   GL156497  21.389  31.457   6.155
 9972POPC   GL256498  21.291  31.457   6.155
 9972POPC   C1A56499  21.336  31.484   6.455
 9972POPC   D2A56500  21.356  31.440   6.755
 9972POPC   C3A56501  21.364  31.515   7.055
 9972POPC   C4A56502  21.398  31.451   7.355
 9972POPC   C1B56503  21.098  31.451   6.455
 9972POPC   C2B56504  21.142  31.534   6.755
 9972POPC   C3B56505  21.121  31.497   7.055
 9972POPC   C4B56506  21.183  31.460   7.355
 9973POPC   NC356507   5.888   8.969   5.555
 9973POPC   PO456508   5.886   8.959   5.855
 9973POPC   GL156509   5.850   8.966   6.155
 9973POPC   GL256510   6.002   8.981   6.155
 9973POPC   C1A56511   5.845   8.995   6.455
 9973POPC   D2A56512   5.855   9.002   6.755
 9973POPC   C3A56513   5.865   9.022   7.055
 9973POPC   C4A56514   5.842   8.977   7.355
 9973POPC   C1B56515   6.085   8.992   6.455
 9973POPC   C2B56516   6.117   9.031   6.755
 9973POPC   C3B56517   6.138   9.011   7.055
 9973POPC   C4B56518   6.144   9.011   7.355
 9974POPC   NC356519  42.349  27.576   5.555
 9974POPC   PO456520  42.338  27.578   5.855
 9974POPC   GL156521  42.345  27.625   6.155
 9974POPC   GL256522  42.444  27.652   6.155
 9974POPC   C1A56523  42.289  27.627   6.455
 9974POPC   D2A56524  42.355  27.548   6.755
 9974POPC   C3A56525  42.297  27.584   7.055
 9974POPC   C4A56526  42.373  27.596   7.355
 9974POPC   C1B56527  42.465  27.783   6.455
 9974POPC   C2B56528  42.515  27.753   6.755
 9974POPC   C3B56529  42.465  27.757   7.055
 9974POPC   C4B56530  42.501  27.817   7.355
 9975POPC   NC356531  38.462   1.963   5.555
 9975POPC   PO456532  38.429   2.013   5.855
 9975POPC   GL156533  38.419   2.006   6.155
 9975POPC   GL256534  38.410   1.852   6.155
 9975POPC   C1A56535  38.455   2.033   6.455
 9975POPC   D2A56536  38.477   2.026   6.755
 9975POPC   C3A56537  38.406   1.972   7.055
 9975POPC   C4A56538  38.412   2.039   7.355
 9975POPC   C1B56539  38.400   1.761   6.455
 9975POPC   C2B56540  38.384   1.764   6.755
 9975POPC   C3B56541  38.371   1.796   7.055
 9975POPC   C4B56542  38.328   1.771   7.355
 9976POPC   NC356543  36.862  24.513   5.555
 9976POPC   PO456544  36.868  24.518   5.855
 9976POPC   GL156545  36.864  24.483   6.155
 9976POPC   GL256546  36.869  24.644   6.155
 9976POPC   C1A56547  36.878  24.495   6.455
 9976POPC   D2A56548  36.906  24.525   6.755
 9976POPC   C3A56549  36.925  24.486   7.055
 9976POPC   C4A56550  36.888  24.495   7.355
 9976POPC   C1B56551  36.848  24.730   6.455
 9976POPC   C2B56552  36.824  24.780   6.755
 9976POPC   C3B56553  36.907  24.736   7.055
 9976POPC   C4B56554  36.878  24.755   7.355
 9977POPC   NC356555  31.505   2.724   5.555
 9977POPC   PO456556  31.518   2.777   5.855
 9977POPC   GL156557  31.478   2.808   6.155
 9977POPC   GL256558  31.540   2.834   6.155
 9977POPC   C1A56559  31.454   2.718   6.455
 9977POPC   D2A56560  31.477   2.786   6.755
 9977POPC   C3A56561  31.508   2.745   7.055
 9977POPC   C4A56562  31.423   2.763   7.355
 9977POPC   C1B56563  31.563   2.955   6.455
 9977POPC   C2B56564  31.601   2.966   6.755
 9977POPC   C3B56565  31.552   3.038   7.055
 9977POPC   C4B56566  31.540   2.959   7.355
 9978POPC   NC356567  19.101  42.290   5.555
 9978POPC   PO456568  19.052  42.332   5.855
 9978POPC   GL156569  19.016  42.298   6.155
 9978POPC   GL256570  19.106  42.420   6.155
 9978POPC   C1A56571  19.019  42.296   6.455
 9978POPC   D2A56572  19.011  42.355   6.755
 9978POPC   C3A56573  19.082  42.353   7.055
 9978POPC   C4A56574  19.035  42.357   7.355
 9978POPC   C1B56575  19.156  42.552   6.455
 9978POPC   C2B56576  19.184  42.589   6.755
 9978POPC   C3B56577  19.189  42.547   7.055
 9978POPC   C4B56578  19.182  42.517   7.355
 9979POPC   NC356579   9.784   1.942   5.555
 9979POPC   PO456580   9.783   2.015   5.855
 9979POPC   GL156581   9.704   1.995   6.155
 9979POPC   GL256582   9.689   2.139   6.155
 9979POPC   C1A56583   9.771   2.039   6.455
 9979POPC   D2A56584   9.738   1.956   6.755
 9979POPC   C3A56585   9.725   2.034   7.055
 9979POPC   C4A56586   9.776   1.956   7.355
 9979POPC   C1B56587   9.593   2.165   6.455
 9979POPC   C2B56588   9.624   2.192   6.755
 9979POPC   C3B56589   9.648   2.163   7.055
 9979POPC   C4B56590   9.609   2.231   7.355
 9980POPC   NC356591  43.918   7.424   5.555
 9980POPC   PO456592  43.907   7.439   5.855
 9980POPC   GL156593  43.865   7.388   6.155
 9980POPC   GL256594  43.905   7.541   6.155
 9980POPC   C1A56595  43.890   7.462   6.455
 9980POPC   D2A56596  43.845   7.443   6.755
 9980POPC   C3A56597  43.934   7.441   7.055
 9980POPC   C4A56598  43.888   7.391   7.355
 9980POPC   C1B56599  43.917   7.626   6.455
 9980POPC   C2B56600  43.873   7.668   6.755
 9980POPC   C3B56601  43.858   7.659   7.055
 9980POPC   C4B56602  43.848   7.678   7.355
 9981POPC   NC356603  12.849  21.403   5.555
 9981POPC   PO456604  12.870  21.418   5.855
 9981POPC   GL156605  12.822  21.341   6.155
 9981POPC   GL256606  12.713  21.442   6.155
 9981POPC   C1A56607  12.840  21.375   6.455
 9981POPC   D2A56608  12.841  21.426   6.755
 9981POPC   C3A56609  12.804  21.418   7.055
 9981POPC   C4A56610  12.841  21.368   7.355
 9981POPC   C1B56611  12.704  21.531   6.455
 9981POPC   C2B56612  12.681  21.557   6.755
 9981POPC   C3B56613  12.667  21.513   7.055
 9981POPC   C4B56614  12.700  21.503   7.355
 9982POPC   NC356615  26.009   9.005   5.555
 9982POPC   PO456616  26.038   8.977   5.855
 9982POPC   GL156617  26.010   9.010   6.155
 9982POPC   GL256618  26.034   8.892   6.155
 9982POPC   C1A56619  26.028   8.987   6.455
 9982POPC   D2A56620  26.078   8.945   6.755
 9982POPC   C3A56621  26.067   8.988   7.055
 9982POPC   C4A56622  26.071   8.958   7.355
 9982POPC   C1B56623  26.075   8.766   6.455
 9982POPC   C2B56624  26.136   8.749   6.755
 9982POPC   C3B56625  26.107   8.734   7.055
 9982POPC   C4B56626  26.115   8.700   7.355
 9983POPC   NC356627  19.875  16.759   5.555
 9983POPC   PO456628  19.868  16.765   5.855
 9983POPC   GL156629  19.814  16.685   6.155
 9983POPC   GL256630  19.696  16.755   6.155
 9983POPC   C1A56631  19.853  16.702   6.455
 9983POPC   D2A56632  19.853  16.746   6.755
 9983POPC   C3A56633  19.833  16.688   7.055
 9983POPC   C4A56634  19.805  16.757   7.355
 9983POPC   C1B56635  19.639  16.825   6.455
 9983POPC   C2B56636  19.622  16.886   6.755
 9983POPC   C3B56637  19.613  16.833   7.055
 9983POPC   C4B56638  19.588  16.802   7.355
 9984POPC   NC356639  28.361  19.069   5.555
 9984POPC   PO456640  28.341  19.023   5.855
 9984POPC   GL156641  28.397  19.072   6.155
 9984POPC   GL256642  28.467  18.988   6.155
 9984POPC   C1A56643  28.391  19.066   6.455
 9984POPC   D2A56644  28.363  19.106   6.755
 9984POPC   C3A56645  28.417  19.020   7.055
 9984POPC   C4A56646  28.398  19.090   7.355
 9984POPC   C1B56647  28.612  18.935   6.455
 9984POPC   C2B56648  28.615  19.004   6.755
 9984POPC   C3B56649  28.557  18.933   7.055
 9984POPC   C4B56650  28.600  18.928   7.355
 9985POPC   NC356651  35.392  23.719   5.555
 9985POPC   PO456652  35.384  23.724   5.855
 9985POPC   GL156653  35.399  23.703   6.155
 9985POPC   GL256654  35.433  23.787   6.155
 9985POPC   C1A56655  35.340  23.672   6.455
 9985POPC   D2A56656  35.367  23.664   6.755
 9985POPC   C3A56657  35.312  23.735   7.055
 9985POPC   C4A56658  35.307  23.750   7.355
 9985POPC   C1B56659  35.465  23.926   6.455
 9985POPC   C2B56660  35.496  23.978   6.755
 9985POPC   C3B56661  35.497  23.949   7.055
 9985POPC   C4B56662  35.480  23.903   7.355
 9986POPC   NC356663  11.251   5.852   5.555
 9986POPC   PO456664  11.278   5.884   5.855
 9986POPC   GL156665  11.253   5.842   6.155
 9986POPC   GL256666  11.422   5.951   6.155
 9986POPC   C1A56667  11.266   5.862   6.455
 9986POPC   D2A56668  11.331   5.866   6.755
 9986POPC   C3A56669  11.300   5.899   7.055
 9986POPC   C4A56670  11.331   5.832   7.355
 9986POPC   C1B56671  11.496   6.054   6.455
 9986POPC   C2B56672  11.464   6.019   6.755
 9986POPC   C3B56673  11.472   5.983   7.055
 9986POPC   C4B56674  11.495   5.980   7.355
 9987POPC   NC356675  37.630  37.677   5.555
 9987POPC   PO456676  37.715  37.680   5.855
 9987POPC   GL156677  37.681  37.706   6.155
 9987POPC   GL256678  37.829  37.632   6.155
 9987POPC   C1A56679  37.658  37.710   6.455
 9987POPC   D2A56680  37.641  37.724   6.755
 9987POPC   C3A56681  37.713  37.634   7.055
 9987POPC   C4A56682  37.676  37.704   7.355
 9987POPC   C1B56683  37.933  37.550   6.455
 9987POPC   C2B56684  37.905  37.556   6.755
 9987POPC   C3B56685  37.855  37.566   7.055
 9987POPC   C4B56686  37.923  37.524   7.355
 9988POPC   NC356687   1.263  15.197   5.555
 9988POPC   PO456688   1.234  15.183   5.855
 9988POPC   GL156689   1.216  15.226   6.155
 9988POPC   GL256690   1.070  15.236   6.155
 9988POPC   C1A56691   1.260  15.194   6.455
 9988POPC   D2A56692   1.188  15.226   6.755
 9988POPC   C3A56693   1.249  15.157   7.055
 9988POPC   C4A56694   1.255  15.217   7.355
 9988POPC   C1B56695   0.972  15.304   6.455
 9988POPC   C2B56696   0.951  15.339   6.755
 9988POPC   C3B56697   0.959  15.266   7.055
 9988POPC   C4B56698   1.033  15.325   7.355
 9989POPC   NC356699  37.641  39.259   5.555
 9989POPC   PO456700  37.725  39.226   5.855
 9989POPC   GL156701  37.662  39.184   6.155
 9989POPC   GL256702  37.601  39.323   6.155
 9989POPC   C1A56703  37.641  39.203   6.455
 9989POPC   D2A56704  37.707  39.238   6.755
 9989POPC   C3A56705  37.714  39.279   7.055
 9989POPC   C4A56706  37.716  39.253   7.355
 9989POPC   C1B56707  37.568  39.396   6.455
 9989POPC   C2B56708  37.529  39.469   6.755
 9989POPC   C3B56709  37.514  39.416   7.055
 9989POPC   C4B56710  37.518  39.481   7.355
 9990POPC   NC356711  31.435  43.136   5.555
 9990POPC   PO456712  31.432  43.072   5.855
 9990POPC   GL156713  31.514  43.087   6.155
 9990POPC   GL256714  31.451  43.020   6.155
 9990POPC   C1A56715  31.488  43.107   6.455
 9990POPC   D2A56716  31.424  43.157   6.755
 9990POPC   C3A56717  31.462  43.120   7.055
 9990POPC   C4A56718  31.498  43.122   7.355
 9990POPC   C1B56719  31.398  42.893   6.455
 9990POPC   C2B56720  31.445  42.822   6.755
 9990POPC   C3B56721  31.422  42.860   7.055
 9990POPC   C4B56722  31.373  42.893   7.355
 9991POPC   NC356723  12.050  23.747   5.555
 9991POPC   PO456724  12.118  23.713   5.855
 9991POPC   GL156725  12.033  23.667   6.155
 9991POPC   GL256726  11.976  23.715   6.155
 9991POPC   C1A56727  12.046  23.763   6.455
 9991POPC   D2A56728  12.040  23.699   6.755
 9991POPC   C3A56729  12.121  23.760   7.055
 9991POPC   C4A56730  12.059  23.738   7.355
 9991POPC   C1B56731  11.835  23.659   6.455
 9991POPC   C2B56732  11.812  23.663   6.755
 9991POPC   C3B56733  11.825  23.662   7.055
 9991POPC   C4B56734  11.811  23.647   7.355
 9992POPC   NC356735  37.694  22.948   5.555
 9992POPC   PO456736  37.663  22.902   5.855
 9992POPC   GL156737  37.667  22.889   6.155
 9992POPC   GL256738  37.583  23.057   6.155
 9992POPC   C1A56739  37.719  22.902   6.455
 9992POPC   D2A56740  37.643  22.964   6.755
 9992POPC   C3A56741  37.643  22.922   7.055
 9992POPC   C4A56742  37.670  22.919   7.355
 9992POPC   C1B56743  37.462  23.117   6.455
 9992POPC   C2B56744  37.501  23.129   6.755
 9992POPC   C3B56745  37.456  23.076   7.055
 9992POPC   C4B56746  37.443  23.049   7.355
 9993POPC   NC356747  38.468  15.946   5.555
 9993POPC   PO456748  38.422  16.000   5.855
 9993POPC   GL156749  38.432  15.914   6.155
 9993POPC   GL256750  38.354  15.990   6.155
 9993POPC   C1A56751  38.495  15.955   6.455
 9993POPC   D2A56752  38.410  15.988   6.755
 9993POPC   C3A56753  38.405  15.929   7.055
 9993POPC   C4A56754  38.427  15.935   7.355
 9993POPC   C1B56755  38.277  16.107   6.455
 9993POPC   C2B56756  38.195  16.127   6.755
 9993POPC   C3B56757  38.211  16.127   7.055
 9993POPC   C4B56758  38.251  16.038   7.355
 9994POPC   NC356759  41.522  22.903   5.555
 9994POPC   PO456760  41.593  22.917   5.855
 9994POPC   GL156761  41.574  22.900   6.155
 9994POPC   GL256762  41.628  22.972   6.155
 9994POPC   C1A56763  41.518  22.940   6.455
 9994POPC   D2A56764  41.538  22.970   6.755
 9994POPC   C3A56765  41.538  22.958   7.055
 9994POPC   C4A56766  41.535  22.935   7.355
 9994POPC   C1B56767  41.833  23.068   6.455
 9994POPC   C2B56768  41.771  23.021   6.755
 9994POPC   C3B56769  41.836  23.014   7.055
 9994POPC   C4B56770  41.775  23.080   7.355
 9995POPC   NC356771   3.582  30.700   5.555
 9995POPC   PO456772   3.563  30.691   5.855
 9995POPC   GL156773   3.529  30.679   6.155
 9995POPC   GL256774   3.630  30.766   6.155
 9995POPC   C1A56775   3.563  30.690   6.455
 9995POPC   D2A56776   3.548  30.745   6.755
 9995POPC   C3A56777   3.583  30.733   7.055
 9995POPC   C4A56778   3.517  30.661   7.355
 9995POPC   C1B56779   3.628  30.887   6.455
 9995POPC   C2B56780   3.676  30.944   6.755
 9995POPC   C3B56781   3.623  30.971   7.055
 9995POPC   C4B56782   3.603  30.887   7.355
 9996POPC   NC356783  28.326  40.784   5.555
 9996POPC   PO456784  28.379  40.758   5.855
 9996POPC   GL156785  28.363  40.814   6.155
 9996POPC   GL256786  28.374  40.953   6.155
 9996POPC   C1A56787  28.410  40.737   6.455
 9996POPC   D2A56788  28.395  40.827   6.755
 9996POPC   C3A56789  28.410  40.832   7.055
 9996POPC   C4A56790  28.402  40.816   7.355
 9996POPC   C1B56791  28.417  41.015   6.455
 9996POPC   C2B56792  28.434  40.979   6.755
 9996POPC   C3B56793  28.458  41.033   7.055
 9996POPC   C4B56794  28.408  41.022   7.355
 9997POPC   NC356795  22.177   7.449   5.555
 9997POPC   PO456796  22.171   7.429   5.855
 9997POPC   GL156797  22.113   7.426   6.155
 9997POPC   GL256798  22.101   7.306   6.155
 9997POPC   C1A56799  22.198   7.441   6.455
 9997POPC   D2A56800  22.121   7.403   6.755
 9997POPC   C3A56801  22.124   7.464   7.055
 9997POPC   C4A56802  22.174   7.445   7.355
 9997POPC   C1B56803  21.973   7.212   6.455
 9997POPC   C2B56804  21.963   7.278   6.755
 9997POPC   C3B56805  21.990   7.284   7.055
 9997POPC   C4B56806  21.967   7.252   7.355
 9998POPC   NC356807  12.823  40.011   5.555
 9998POPC   PO456808  12.838  40.020   5.855
 9998POPC   GL156809  12.855  40.044   6.155
 9998POPC   GL256810  12.796  39.889   6.155
 9998POPC   C1A56811  12.806  39.963   6.455
 9998POPC   D2A56812  12.802  39.988   6.755
 9998POPC   C3A56813  12.873  40.054   7.055
 9998POPC   C4A56814  12.809  40.000   7.355
 9998POPC   C1B56815  12.870  39.780   6.455
 9998POPC   C2B56816  12.874  39.779   6.755
 9998POPC   C3B56817  12.854  39.793   7.055
 9998POPC   C4B56818  12.837  39.739   7.355
 9999POPC   NC356819  19.080  22.197   5.555
 9999POPC   PO456820  19.041  22.151   5.855
 9999POPC   GL156821  19.016  22.148   6.155
 9999POPC   GL256822  19.031  22.260   6.155
 9999POPC   C1A56823  19.100  22.138   6.455
 9999POPC   D2A56824  19.091  22.148   6.755
 9999POPC   C3A56825  19.009  22.184   7.055
 9999POPC   C4A56826  19.083  22.147   7.355
 9999POPC   C1B56827  18.925  22.349   6.455
 9999POPC   C2B56828  18.944  22.366   6.755
 9999POPC   C3B56829  18.952  22.422   7.055
 9999POPC   C4B56830  18.881  22.389   7.355
10000POPC   NC356831  39.966  27.639   5.555
10000POPC   PO456832  40.000  27.636   5.855
10000POPC   GL156833  40.002  27.638   6.155
10000POPC   GL256834  39.969  27.661   6.155
10000POPC   C1A56835  39.964  27.572   6.455
10000POPC   D2A56836  40.055  27.585   6.755
10000POPC   C3A56837  40.046  27.634   7.055
10000POPC   C4A56838  40.014  27.582   7.355
10000POPC   C1B56839  39.877  27.818   6.455
10000POPC   C2B56840  39.922  27.799   6.755
10000POPC   C3B56841  39.943  27.821   7.055
10000POPC   C4B56842  39.900  27.865   7.355
10001POPC   NC356843  19.824  30.703   5.555
10001POPC   PO456844  19.857  30.649   5.855
10001POPC   GL156845  19.806  30.675   6.155
10001POPC   GL256846  19.947  30.581   6.155
10001POPC   C1A56847  19.836  30.743   6.455
10001POPC   D2A56848  19.881  30.725   6.755
10001POPC   C3A56849  19.805  30.687   7.055
10001POPC   C4A56850  19.853  30.658   7.355
10001POPC   C1B56851  20.061  30.559   6.455
10001POPC   C2B56852  20.026  30.542   6.755
10001POPC   C3B56853  20.032  30.556   7.055
10001POPC   C4B56854  20.073  30.521   7.355
10002POPC   NC356855  15.913  27.576   5.555
10002POPC   PO456856  15.933  27.642   5.855
10002POPC   GL156857  15.943  27.556   6.155
10002POPC   GL256858  15.892  27.500   6.155
10002POPC   C1A56859  15.944  27.630   6.455
10002POPC   D2A56860  15.959  27.589   6.755
10002POPC   C3A56861  15.996  27.555   7.055
10002POPC   C4A56862  15.927  27.545   7.355
10002POPC   C1B56863  15.803  27.401   6.455
10002POPC   C2B56864  15.737  27.446   6.755
10002POPC   C3B56865  15.740  27.420   7.055
10002POPC   C4B56866  15.729  27.475   7.355
10003POPC   NC356867   8.182  11.265   5.555
10003POPC   PO456868   8.185  11.278   5.855
10003POPC   GL156869   8.172  11.321   6.155
10003POPC   GL256870   8.300  11.281   6.155
10003POPC   C1A56871   8.156  11.301   6.455
10003POPC   D2A56872   8.182  11.340   6.755
10003POPC   C3A56873   8.155  11.266   7.055
10003POPC   C4A56874   8.147  11.266   7.355
10003POPC   C1B56875   8.409  11.317   6.455
10003POPC   C2B56876   8.430  11.241   6.755
10003POPC   C3B56877   8.439  11.301   7.055
10003POPC   C4B56878   8.470  11.250   7.355
10004POPC   NC356879  22.181  26.074   5.555
10004POPC   PO456880  22.114  25.992   5.855
10004POPC   GL156881  22.128  26.079   6.155
10004POPC   GL256882  22.154  26.120   6.155
10004POPC   C1A56883  22.189  26.055   6.455
10004POPC   D2A56884  22.202  26.049   6.755
10004POPC   C3A56885  22.199  26.075   7.055
10004POPC   C4A56886  22.169  26.058   7.355
10004POPC   C1B56887  22.069  26.251   6.455
10004POPC   C2B56888  22.024  26.302   6.755
10004POPC   C3B56889  22.101  26.302   7.055
10004POPC   C4B56890  22.092  26.263   7.355
10005POPC   NC356891  41.602  23.672   5.555
10005POPC   PO456892  41.541  23.712   5.855
10005POPC   GL156893  41.555  23.704   6.155
10005POPC   GL256894  41.623  23.587   6.155
10005POPC   C1A56895  41.565  23.709   6.455
10005POPC   D2A56896  41.567  23.705   6.755
10005POPC   C3A56897  41.514  23.761   7.055
10005POPC   C4A56898  41.596  23.740   7.355
10005POPC   C1B56899  41.695  23.502   6.455
10005POPC   C2B56900  41.718  23.551   6.755
10005POPC   C3B56901  41.644  23.512   7.055
10005POPC   C4B56902  41.664  23.507   7.355
10006POPC   NC356903  19.037  32.251   5.555
10006POPC   PO456904  19.032  32.271   5.855
10006POPC   GL156905  19.030  32.266   6.155
10006POPC   GL256906  19.127  32.299   6.155
10006POPC   C1A56907  19.055  32.229   6.455
10006POPC   D2A56908  19.085  32.239   6.755
10006POPC   C3A56909  19.078  32.296   7.055
10006POPC   C4A56910  19.072  32.297   7.355
10006POPC   C1B56911  19.214  32.375   6.455
10006POPC   C2B56912  19.249  32.427   6.755
10006POPC   C3B56913  19.233  32.369   7.055
10006POPC   C4B56914  19.280  32.390   7.355
10007POPC   NC356915   3.579  36.943   5.555
10007POPC   PO456916   3.541  36.927   5.855
10007POPC   GL156917   3.536  36.867   6.155
10007POPC   GL256918   3.495  37.059   6.155
10007POPC   C1A56919   3.535  36.908   6.455
10007POPC   D2A56920   3.544  36.879   6.755
10007POPC   C3A56921   3.536  36.861   7.055
10007POPC   C4A56922   3.524  36.873   7.355
10007POPC   C1B56923   3.429  37.148   6.455
10007POPC   C2B56924   3.435  37.086   6.755
10007POPC   C3B56925   3.466  37.171   7.055
10007POPC   C4B56926   3.458  37.097   7.355
10008POPC   NC356927  36.931  15.165   5.555
10008POPC   PO456928  36.947  15.173   5.855
10008POPC   GL156929  36.900  15.181   6.155
10008POPC   GL256930  36.837  15.286   6.155
10008POPC   C1A56931  36.875  15.131   6.455
10008POPC   D2A56932  36.918  15.176   6.755
10008POPC   C3A56933  36.926  15.186   7.055
10008POPC   C4A56934  36.898  15.198   7.355
10008POPC   C1B56935  36.871  15.443   6.455
10008POPC   C2B56936  36.830  15.388   6.755
10008POPC   C3B56937  36.879  15.428   7.055
10008POPC   C4B56938  36.863  15.419   7.355
10009POPC   NC356939  29.181  29.180   5.555
10009POPC   PO456940  29.170  29.104   5.855
10009POPC   GL156941  29.149  29.166   6.155
10009POPC   GL256942  29.072  29.246   6.155
10009POPC   C1A56943  29.180  29.108   6.455
10009POPC   D2A56944  29.189  29.149   6.755
10009POPC   C3A56945  29.171  29.109   7.055
10009POPC   C4A56946  29.131  29.159   7.355
10009POPC   C1B56947  29.020  29.386   6.455
10009POPC   C2B56948  29.039  29.358   6.755
10009POPC   C3B56949  29.029  29.376   7.055
10009POPC   C4B56950  29.102  29.394   7.355
10010POPC   NC356951  36.131  17.518   5.555
10010POPC   PO456952  36.085  17.530   5.855
10010POPC   GL156953  36.160  17.549   6.155
10010POPC   GL256954  36.046  17.348   6.155
10010POPC   C1A56955  36.120  17.482   6.455
10010POPC   D2A56956  36.156  17.547   6.755
10010POPC   C3A56957  36.135  17.509   7.055
10010POPC   C4A56958  36.161  17.531   7.355
10010POPC   C1B56959  35.991  17.246   6.455
10010POPC   C2B56960  36.033  17.302   6.755
10010POPC   C3B56961  36.083  17.252   7.055
10010POPC   C4B56962  35.999  17.235   7.355
10011POPC   NC356963  19.879  15.917   5.555
10011POPC   PO456964  19.823  15.962   5.855
10011POPC   GL156965  19.813  15.909   6.155
10011POPC   GL256966  19.988  16.035   6.155
10011POPC   C1A56967  19.874  15.965   6.455
10011POPC   D2A56968  19.823  15.955   6.755
10011POPC   C3A56969  19.805  15.992   7.055
10011POPC   C4A56970  19.884  15.967   7.355
10011POPC   C1B56971  20.102  16.043   6.455
10011POPC   C2B56972  20.093  16.083   6.755
10011POPC   C3B56973  20.057  16.060   7.055
10011POPC   C4B56974  20.045  16.071   7.355
10012POPC   NC356975  34.604  33.815   5.555
10012POPC   PO456976  34.566  33.751   5.855
10012POPC   GL156977  34.586  33.786   6.155
10012POPC   GL256978  34.496  33.912   6.155
10012POPC   C1A56979  34.623  33.792   6.455
10012POPC   D2A56980  34.569  33.766   6.755
10012POPC   C3A56981  34.590  33.766   7.055
10012POPC   C4A56982  34.584  33.794   7.355
10012POPC   C1B56983  34.523  34.047   6.455
10012POPC   C2B56984  34.535  34.013   6.755
10012POPC   C3B56985  34.454  34.001   7.055
10012POPC   C4B56986  34.521  34.029   7.355
10013POPC   NC356987  16.685  40.034   5.555
10013POPC   PO456988  16.729  39.960   5.855
10013POPC   GL156989  16.688  40.038   6.155
10013POPC   GL256990  16.635  40.051   6.155
10013POPC   C1A56991  16.695  40.030   6.455
10013POPC   D2A56992  16.747  40.013   6.755
10013POPC   C3A56993  16.696  40.009   7.055
10013POPC   C4A56994  16.717  39.958   7.355
10013POPC   C1B56995  16.520  40.121   6.455
10013POPC   C2B56996  16.471  40.131   6.755
10013POPC   C3B56997  16.492  40.045   7.055
10013POPC   C4B56998  16.468  40.125   7.355
10014POPC   NC356999  39.970  33.790   5.555
10014POPC   PO457000  39.959  33.780   5.855
10014POPC   GL157001  39.960  33.765   6.155
10014POPC   GL257002  40.155  33.831   6.155
10014POPC   C1A57003  39.973  33.799   6.455
10014POPC   D2A57004  40.046  33.826   6.755
10014POPC   C3A57005  39.990  33.765   7.055
10014POPC   C4A57006  40.053  33.826   7.355
10014POPC   C1B57007  40.166  33.935   6.455
10014POPC   C2B57008  40.233  33.926   6.755
10014POPC   C3B57009  40.204  33.926   7.055
10014POPC   C4B57010  40.155  33.929   7.355
10015POPC   NC357011  35.401  29.909   5.555
10015POPC   PO457012  35.339  29.897   5.855
10015POPC   GL157013  35.365  29.953   6.155
10015POPC   GL257014  35.420  30.004   6.155
10015POPC   C1A57015  35.394  29.951   6.455
10015POPC   D2A57016  35.326  29.923   6.755
10015POPC   C3A57017  35.383  29.910   7.055
10015POPC   C4A57018  35.357  29.901   7.355
10015POPC   C1B57019  35.500  30.114   6.455
10015POPC   C2B57020  35.570  30.119   6.755
10015POPC   C3B57021  35.542  30.052   7.055
10015POPC   C4B57022  35.512  30.060   7.355
10016POPC   NC357023   9.778  26.826   5.555
10016POPC   PO457024   9.716  26.794   5.855
10016POPC   GL157025   9.775  26.839   6.155
10016POPC   GL257026   9.858  26.797   6.155
10016POPC   C1A57027   9.732  26.799   6.455
10016POPC   D2A57028   9.773  26.860   6.755
10016POPC   C3A57029   9.717  26.822   7.055
10016POPC   C4A57030   9.777  26.814   7.355
10016POPC   C1B57031   9.990  26.746   6.455
10016POPC   C2B57032  10.017  26.774   6.755
10016POPC   C3B57033   9.960  26.720   7.055
10016POPC   C4B57034  10.010  26.792   7.355
10017POPC   NC357035   3.496  32.214   5.555
10017POPC   PO457036   3.529  32.284   5.855
10017POPC   GL157037   3.567  32.253   6.155
10017POPC   GL257038   3.489  32.281   6.155
10017POPC   C1A57039   3.590  32.297   6.455
10017POPC   D2A57040   3.564  32.222   6.755
10017POPC   C3A57041   3.500  32.261   7.055
10017POPC   C4A57042   3.519  32.229   7.355
10017POPC   C1B57043   3.334  32.412   6.455
10017POPC   C2B57044   3.396  32.406   6.755
10017POPC   C3B57045   3.316  32.380   7.055
10017POPC   C4B57046   3.352  32.458   7.355
10018POPC   NC357047  36.136  22.148   5.555
10018POPC   PO457048  36.160  22.127   5.855
10018POPC   GL157049  36.150  22.153   6.155
10018POPC   GL257050  36.207  22.233   6.155
10018POPC   C1A57051  36.095  22.148   6.455
10018POPC   D2A57052  36.119  22.130   6.755
10018POPC   C3A57053  36.165  22.163   7.055
10018POPC   C4A57054  36.177  22.185   7.355
10018POPC   C1B57055  36.326  22.284   6.455
10018POPC   C2B57056  36.305  22.237   6.755
10018POPC   C3B57057  36.360  22.278   7.055
10018POPC   C4B57058  36.363  22.317   7.355
10019POPC   NC357059   8.223   2.761   5.555
10019POPC   PO457060   8.158   2.785   5.855
10019POPC   GL157061   8.204   2.748   6.155
10019POPC   GL257062   8.079   2.773   6.155
10019POPC   C1A57063   8.175   2.803   6.455
10019POPC   D2A57064   8.205   2.783   6.755
10019POPC   C3A57065   8.239   2.730   7.055
10019POPC   C4A57066   8.244   2.739   7.355
10019POPC   C1B57067   7.940   2.775   6.455
10019POPC   C2B57068   7.972   2.765   6.755
10019POPC   C3B57069   7.933   2.776   7.055
10019POPC   C4B57070   7.909   2.822   7.355
10020POPC   NC357071  11.338   1.962   5.555
10020POPC   PO457072  11.309   1.982   5.855
10020POPC   GL157073  11.322   1.966   6.155
10020POPC   GL257074  11.175   2.015   6.155
10020POPC   C1A57075  11.320   2.026   6.455
10020POPC   D2A57076  11.308   1.962   6.755
10020POPC   C3A57077  11.289   2.021   7.055
10020POPC   C4A57078  11.332   2.019   7.355
10020POPC   C1B57079  11.061   2.047   6.455
10020POPC   C2B57080  11.107   2.082   6.755
10020POPC   C3B57081  11.070   2.048   7.055
10020POPC   C4B57082  11.030   2.022   7.355
10021POPC   NC357083  36.166  43.847   5.555
10021POPC   PO457084  36.126  43.931   5.855
10021POPC   GL157085  36.167  43.931   6.155
10021POPC   GL257086  36.035  43.790   6.155
10021POPC   C1A57087  36.113  43.925   6.455
10021POPC   D2A57088  36.101  43.861   6.755
10021POPC   C3A57089  36.098  43.923   7.055
10021POPC   C4A57090  36.107  43.892   7.355
10021POPC   C1B57091  35.982  43.645   6.455
10021POPC   C2B57092  35.969  43.697   6.755
10021POPC   C3B57093  36.016  43.697   7.055
10021POPC   C4B57094  36.013  43.657   7.355
10022POPC   NC357095   7.398  10.502   5.555
10022POPC   PO457096   7.380  10.498   5.855
10022POPC   GL157097   7.394  10.565   6.155
10022POPC   GL257098   7.304  10.557   6.155
10022POPC   C1A57099   7.421  10.554   6.455
10022POPC   D2A57100   7.432  10.527   6.755
10022POPC   C3A57101   7.409  10.568   7.055
10022POPC   C4A57102   7.423  10.487   7.355
10022POPC   C1B57103   7.181  10.600   6.455
10022POPC   C2B57104   7.207  10.606   6.755
10022POPC   C3B57105   7.147  10.553   7.055
10022POPC   C4B57106   7.212  10.621   7.355
10023POPC   NC357107   1.178  38.475   5.555
10023POPC   PO457108   1.254  38.480   5.855
10023POPC   GL157109   1.213  38.431   6.155
10023POPC   GL257110   1.234  38.306   6.155
10023POPC   C1A57111   1.168  38.501   6.455
10023POPC   D2A57112   1.229  38.446   6.755
10023POPC   C3A57113   1.187  38.447   7.055
10023POPC   C4A57114   1.233  38.423   7.355
10023POPC   C1B57115   1.351  38.286   6.455
10023POPC   C2B57116   1.297  38.209   6.755
10023POPC   C3B57117   1.317  38.188   7.055
10023POPC   C4B57118   1.350  38.237   7.355
10024POPC   NC357119  12.858  44.657   5.555
10024POPC   PO457120  12.862  44.630   5.855
10024POPC   GL157121  12.880  44.629   6.155
10024POPC   GL257122  12.988  44.635   6.155
10024POPC   C1A57123  12.812  44.648   6.455
10024POPC   D2A57124  12.827  44.636   6.755
10024POPC   C3A57125  12.878  44.671   7.055
10024POPC   C4A57126  12.865  44.635   7.355
10024POPC   C1B57127  13.097  44.692   6.455
10024POPC   C2B57128  13.151  44.698   6.755
10024POPC   C3B57129  13.103  44.691   7.055
10024POPC   C4B57130  13.120  44.633   7.355
10025POPC   NC357131  15.150  13.617   5.555
10025POPC   PO457132  15.159  13.672   5.855
10025POPC   GL157133  15.203  13.630   6.155
10025POPC   GL257134  15.301  13.724   6.155
10025POPC   C1A57135  15.136  13.639   6.455
10025POPC   D2A57136  15.217  13.637   6.755
10025POPC   C3A57137  15.136  13.616   7.055
10025POPC   C4A57138  15.155  13.600   7.355
10025POPC   C1B57139  15.448  13.732   6.455
10025POPC   C2B57140  15.382  13.744   6.755
10025POPC   C3B57141  15.380  13.781   7.055
10025POPC   C4B57142  15.364  13.702   7.355
10026POPC   NC357143  17.503  26.841   5.555
10026POPC   PO457144  17.533  26.778   5.855
10026POPC   GL157145  17.530  26.821   6.155
10026POPC   GL257146  17.394  26.704   6.155
10026POPC   C1A57147  17.475  26.789   6.455
10026POPC   D2A57148  17.523  26.814   6.755
10026POPC   C3A57149  17.542  26.781   7.055
10026POPC   C4A57150  17.549  26.819   7.355
10026POPC   C1B57151  17.351  26.646   6.455
10026POPC   C2B57152  17.330  26.660   6.755
10026POPC   C3B57153  17.387  26.578   7.055
10026POPC   C4B57154  17.304  26.630   7.355
10027POPC   NC357155  27.624   4.330   5.555
10027POPC   PO457156  27.623   4.293   5.855
10027POPC   GL157157  27.631   4.313   6.155
10027POPC   GL257158  27.601   4.465   6.155
10027POPC   C1A57159  27.566   4.296   6.455
10027POPC   D2A57160  27.560   4.327   6.755
10027POPC   C3A57161  27.602   4.350   7.055
10027POPC   C4A57162  27.637   4.273   7.355
10027POPC   C1B57163  27.673   4.563   6.455
10027POPC   C2B57164  27.675   4.551   6.755
10027POPC   C3B57165  27.739   4.496   7.055
10027POPC   C4B57166  27.732   4.533   7.355
10028POPC   NC357167  40.734  13.658   5.555
10028POPC   PO457168  40.738  13.589   5.855
10028POPC   GL157169  40.777  13.628   6.155
10028POPC   GL257170  40.621  13.591   6.155
10028POPC   C1A57171  40.768  13.627   6.455
10028POPC   D2A57172  40.820  13.621   6.755
10028POPC   C3A57173  40.733  13.598   7.055
10028POPC   C4A57174  40.759  13.650   7.355
10028POPC   C1B57175  40.509  13.667   6.455
10028POPC   C2B57176  40.515  13.636   6.755
10028POPC   C3B57177  40.574  13.610   7.055
10028POPC   C4B57178  40.495  13.612   7.355
10029POPC   NC357179  12.856  10.559   5.555
10029POPC   PO457180  12.864  10.489   5.855
10029POPC   GL157181  12.889  10.526   6.155
10029POPC   GL257182  13.024  10.469   6.155
10029POPC   C1A57183  12.807  10.503   6.455
10029POPC   D2A57184  12.886  10.528   6.755
10029POPC   C3A57185  12.864  10.566   7.055
10029POPC   C4A57186  12.878  10.493   7.355
10029POPC   C1B57187  13.062  10.493   6.455
10029POPC   C2B57188  13.137  10.543   6.755
10029POPC   C3B57189  13.116  10.487   7.055
10029POPC   C4B57190  13.120  10.498   7.355
10030POPC   NC357191   6.648  22.178   5.555
10030POPC   PO457192   6.664  22.143   5.855
10030POPC   GL157193   6.646  22.174   6.155
10030POPC   GL257194   6.676  22.039   6.155
10030POPC   C1A57195   6.623  22.183   6.455
10030POPC   D2A57196   6.648  22.185   6.755
10030POPC   C3A57197   6.648  22.184   7.055
10030POPC   C4A57198   6.647  22.127   7.355
10030POPC   C1B57199   6.746  21.885   6.455
10030POPC   C2B57200   6.703  21.913   6.755
10030POPC   C3B57201   6.715  21.909   7.055
10030POPC   C4B57202   6.774  21.976   7.355
10031POPC   NC357203  16.723  12.031   5.555
10031POPC   PO457204  16.729  12.059   5.855
10031POPC   GL157205  16.714  12.125   6.155
10031POPC   GL257206  16.753  11.984   6.155
10031POPC   C1A57207  16.757  12.096   6.455
10031POPC   D2A57208  16.699  12.113   6.755
10031POPC   C3A57209  16.691  12.102   7.055
10031POPC   C4A57210  16.739  12.083   7.355
10031POPC   C1B57211  16.807  11.878   6.455
10031POPC   C2B57212  16.843  11.806   6.755
10031POPC   C3B57213  16.827  11.870   7.055
10031POPC   C4B57214  16.861  11.819   7.355
10032POPC   NC357215  39.958  17.462   5.555
10032POPC   PO457216  40.008  17.521   5.855
10032POPC   GL157217  40.011  17.466   6.155
10032POPC   GL257218  40.110  17.612   6.155
10032POPC   C1A57219  40.024  17.532   6.455
10032POPC   D2A57220  40.021  17.517   6.755
10032POPC   C3A57221  39.961  17.503   7.055
10032POPC   C4A57222  40.021  17.489   7.355
10032POPC   C1B57223  40.178  17.715   6.455
10032POPC   C2B57224  40.158  17.651   6.755
10032POPC   C3B57225  40.169  17.655   7.055
10032POPC   C4B57226  40.191  17.629   7.355
10033POPC   NC357227  17.497  28.373   5.555
10033POPC   PO457228  17.554  28.336   5.855
10033POPC   GL157229  17.525  28.365   6.155
10033POPC   GL257230  17.577  28.470   6.155
10033POPC   C1A57231  17.523  28.379   6.455
10033POPC   D2A57232  17.480  28.400   6.755
10033POPC   C3A57233  17.524  28.334   7.055
10033POPC   C4A57234  17.472  28.354   7.355
10033POPC   C1B57235  17.689  28.503   6.455
10033POPC   C2B57236  17.681  28.498   6.755
10033POPC   C3B57237  17.754  28.452   7.055
10033POPC   C4B57238  17.709  28.505   7.355
10034POPC   NC357239  36.898  26.014   5.555
10034POPC   PO457240  36.952  26.082   5.855
10034POPC   GL157241  36.930  26.036   6.155
10034POPC   GL257242  37.054  26.017   6.155
10034POPC   C1A57243  36.861  26.008   6.455
10034POPC   D2A57244  36.897  26.087   6.755
10034POPC   C3A57245  36.887  26.016   7.055
10034POPC   C4A57246  36.896  26.062   7.355
10034POPC   C1B57247  37.199  26.039   6.455
10034POPC   C2B57248  37.166  25.976   6.755
10034POPC   C3B57249  37.122  26.068   7.055
10034POPC   C4B57250  37.117  26.064   7.355
10035POPC   NC357251  29.158  30.729   5.555
10035POPC   PO457252  29.100  30.651   5.855
10035POPC   GL157253  29.161  30.700   6.155
10035POPC   GL257254  29.237  30.753   6.155
10035POPC   C1A57255  29.136  30.731   6.455
10035POPC   D2A57256  29.176  30.714   6.755
10035POPC   C3A57257  29.194  30.740   7.055
10035POPC   C4A57258  29.097  30.677   7.355
10035POPC   C1B57259  29.346  30.784   6.455
10035POPC   C2B57260  29.355  30.819   6.755
10035POPC   C3B57261  29.387  30.795   7.055
10035POPC   C4B57262  29.359  30.784   7.355
10036POPC   NC357263  29.919   6.620   5.555
10036POPC   PO457264  29.885   6.661   5.855
10036POPC   GL157265  29.932   6.623   6.155
10036POPC   GL257266  29.974   6.599   6.155
10036POPC   C1A57267  29.892   6.596   6.455
10036POPC   D2A57268  29.874   6.625   6.755
10036POPC   C3A57269  29.955   6.658   7.055
10036POPC   C4A57270  29.872   6.686   7.355
10036POPC   C1B57271  30.094   6.513   6.455
10036POPC   C2B57272  30.167   6.532   6.755
10036POPC   C3B57273  30.115   6.493   7.055
10036POPC   C4B57274  30.081   6.486   7.355
10037POPC   NC357275  15.135  30.658   5.555
10037POPC   PO457276  15.205  30.682   5.855
10037POPC   GL157277  15.157  30.694   6.155
10037POPC   GL257278  15.091  30.633   6.155
10037POPC   C1A57279  15.186  30.672   6.455
10037POPC   D2A57280  15.144  30.648   6.755
10037POPC   C3A57281  15.168  30.672   7.055
10037POPC   C4A57282  15.192  30.684   7.355
10037POPC   C1B57283  14.897  30.688   6.455
10037POPC   C2B57284  14.890  30.681   6.755
10037POPC   C3B57285  14.931  30.645   7.055
10037POPC   C4B57286  14.914  30.715   7.355
10038POPC   NC357287  19.785   3.510   5.555
10038POPC   PO457288  19.795   3.557   5.855
10038POPC   GL157289  19.789   3.565   6.155
10038POPC   GL257290  19.993   3.508   6.155
10038POPC   C1A57291  19.860   3.584   6.455
10038POPC   D2A57292  19.827   3.539   6.755
10038POPC   C3A57293  19.855   3.571   7.055
10038POPC   C4A57294  19.830   3.503   7.355
10038POPC   C1B57295  20.036   3.550   6.455
10038POPC   C2B57296  20.082   3.558   6.755
10038POPC   C3B57297  20.086   3.587   7.055
10038POPC   C4B57298  20.062   3.544   7.355
10039POPC   NC357299  44.693   5.139   5.555
10039POPC   PO457300  44.647   5.050   5.855
10039POPC   GL157301  44.674   5.100   6.155
10039POPC   GL257302  44.637   5.227   6.155
10039POPC   C1A57303  44.682   5.084   6.455
10039POPC   D2A57304  44.680   5.121   6.755
10039POPC   C3A57305  44.619   5.080   7.055
10039POPC   C4A57306  44.684   5.088   7.355
10039POPC   C1B57307  44.540   5.276   6.455
10039POPC   C2B57308  44.536   5.345   6.755
10039POPC   C3B57309  44.504   5.295   7.055
10039POPC   C4B57310  44.553   5.318   7.355
10040POPC   NC357311  18.247   1.186   5.555
10040POPC   PO457312  18.314   1.191   5.855
10040POPC   GL157313  18.304   1.253   6.155
10040POPC   GL257314  18.276   1.109   6.155
10040POPC   C1A57315  18.240   1.220   6.455
10040POPC   D2A57316  18.254   1.210   6.755
10040POPC   C3A57317  18.318   1.232   7.055
10040POPC   C4A57318  18.250   1.249   7.355
10040POPC   C1B57319  18.307   0.951   6.455
10040POPC   C2B57320  18.353   0.934   6.755
10040POPC   C3B57321  18.382   0.997   7.055
10040POPC   C4B57322  18.398   0.951   7.355
10041POPC   NC357323  38.414  38.478   5.555
10041POPC   PO457324  38.483  38.480   5.855
10041POPC   GL157325  38.439  38.435   6.155
10041POPC   GL257326  38.599  38.486   6.155
10041POPC   C1A57327  38.485  38.475   6.455
10041POPC   D2A57328  38.427  38.495   6.755
10041POPC   C3A57329  38.439  38.481   7.055
10041POPC   C4A57330  38.429  38.446   7.355
10041POPC   C1B57331  38.736  38.536   6.455
10041POPC   C2B57332  38.696  38.545   6.755
10041POPC   C3B57333  38.671  38.529   7.055
10041POPC   C4B57334  38.729  38.506   7.355
10042POPC   NC357335   9.001  42.309   5.555
10042POPC   PO457336   8.989  42.341   5.855
10042POPC   GL157337   8.935  42.359   6.155
10042POPC   GL257338   8.895  42.461   6.155
10042POPC   C1A57339   8.969  42.369   6.455
10042POPC   D2A57340   8.979  42.376   6.755
10042POPC   C3A57341   9.008  42.344   7.055
10042POPC   C4A57342   8.966  42.292   7.355
10042POPC   C1B57343   8.832  42.529   6.455
10042POPC   C2B57344   8.860  42.549   6.755
10042POPC   C3B57345   8.840  42.539   7.055
10042POPC   C4B57346   8.894  42.525   7.355
10043POPC   NC357347  15.180  39.269   5.555
10043POPC   PO457348  15.145  39.238   5.855
10043POPC   GL157349  15.154  39.257   6.155
10043POPC   GL257350  15.241  39.097   6.155
10043POPC   C1A57351  15.136  39.212   6.455
10043POPC   D2A57352  15.179  39.188   6.755
10043POPC   C3A57353  15.229  39.238   7.055
10043POPC   C4A57354  15.182  39.273   7.355
10043POPC   C1B57355  15.194  39.015   6.455
10043POPC   C2B57356  15.226  39.028   6.755
10043POPC   C3B57357  15.212  38.957   7.055
10043POPC   C4B57358  15.261  38.981   7.355
10044POPC   NC357359   8.926  23.745   5.555
10044POPC   PO457360   8.972  23.761   5.855
10044POPC   GL157361   8.948  23.746   6.155
10044POPC   GL257362   9.033  23.876   6.155
10044POPC   C1A57363   8.971  23.685   6.455
10044POPC   D2A57364   8.950  23.684   6.755
10044POPC   C3A57365   8.940  23.750   7.055
10044POPC   C4A57366   8.999  23.727   7.355
10044POPC   C1B57367   9.052  23.930   6.455
10044POPC   C2B57368   9.031  23.951   6.755
10044POPC   C3B57369   9.094  23.989   7.055
10044POPC   C4B57370   9.031  23.940   7.355
10045POPC   NC357371  25.262  26.795   5.555
10045POPC   PO457372  25.255  26.852   5.855
10045POPC   GL157373  25.307  26.815   6.155
10045POPC   GL257374  25.282  26.737   6.155
10045POPC   C1A57375  25.274  26.847   6.455
10045POPC   D2A57376  25.253  26.839   6.755
10045POPC   C3A57377  25.222  26.862   7.055
10045POPC   C4A57378  25.249  26.830   7.355
10045POPC   C1B57379  25.316  26.617   6.455
10045POPC   C2B57380  25.326  26.529   6.755
10045POPC   C3B57381  25.270  26.582   7.055
10045POPC   C4B57382  25.309  26.617   7.355
10046POPC   NC357383   3.555  17.545   5.555
10046POPC   PO457384   3.568  17.464   5.855
10046POPC   GL157385   3.577  17.520   6.155
10046POPC   GL257386   3.593  17.654   6.155
10046POPC   C1A57387   3.588  17.507   6.455
10046POPC   D2A57388   3.561  17.474   6.755
10046POPC   C3A57389   3.523  17.540   7.055
10046POPC   C4A57390   3.561  17.469   7.355
10046POPC   C1B57391   3.623  17.707   6.455
10046POPC   C2B57392   3.658  17.697   6.755
10046POPC   C3B57393   3.633  17.719   7.055
10046POPC   C4B57394   3.637  17.758   7.355
10047POPC   NC357395  17.548  19.788   5.555
10047POPC   PO457396  17.535  19.881   5.855
10047POPC   GL157397  17.465  19.876   6.155
10047POPC   GL257398  17.447  19.763   6.155
10047POPC   C1A57399  17.514  19.833   6.455
10047POPC   D2A57400  17.530  19.830   6.755
10047POPC   C3A57401  17.463  19.788   7.055
10047POPC   C4A57402  17.467  19.805   7.355
10047POPC   C1B57403  17.380  19.605   6.455
10047POPC   C2B57404  17.382  19.588   6.755
10047POPC   C3B57405  17.346  19.655   7.055
10047POPC   C4B57406  17.404  19.630   7.355
10048POPC   NC357407  27.604  20.620   5.555
10048POPC   PO457408  27.585  20.582   5.855
10048POPC   GL157409  27.625  20.621   6.155
10048POPC   GL257410  27.604  20.724   6.155
10048POPC   C1A57411  27.625  20.578   6.455
10048POPC   D2A57412  27.587  20.659   6.755
10048POPC   C3A57413  27.618  20.606   7.055
10048POPC   C4A57414  27.571  20.643   7.355
10048POPC   C1B57415  27.606  20.822   6.455
10048POPC   C2B57416  27.678  20.850   6.755
10048POPC   C3B57417  27.665  20.895   7.055
10048POPC   C4B57418  27.639  20.821   7.355
10049POPC   NC357419   1.977  13.641   5.555
10049POPC   PO457420   1.975  13.598   5.855
10049POPC   GL157421   1.992  13.677   6.155
10049POPC   GL257422   1.872  13.748   6.155
10049POPC   C1A57423   1.997  13.648   6.455
10049POPC   D2A57424   1.965  13.591   6.755
10049POPC   C3A57425   2.025  13.653   7.055
10049POPC   C4A57426   2.027  13.656   7.355
10049POPC   C1B57427   1.810  13.806   6.455
10049POPC   C2B57428   1.800  13.787   6.755
10049POPC   C3B57429   1.825  13.820   7.055
10049POPC   C4B57430   1.756  13.764   7.355
10050POPC   NC357431  12.120  15.958   5.555
10050POPC   PO457432  12.095  15.919   5.855
10050POPC   GL157433  12.027  15.988   6.155
10050POPC   GL257434  11.999  15.935   6.155
10050POPC   C1A57435  12.066  16.002   6.455
10050POPC   D2A57436  12.110  15.993   6.755
10050POPC   C3A57437  12.064  15.958   7.055
10050POPC   C4A57438  12.097  15.919   7.355
10050POPC   C1B57439  11.784  15.901   6.455
10050POPC   C2B57440  11.794  15.942   6.755
10050POPC   C3B57441  11.812  15.915   7.055
10050POPC   C4B57442  11.791  15.932   7.355
10051POPC   NC357443   8.162  22.926   5.555
10051POPC   PO457444   8.182  22.926   5.855
10051POPC   GL157445   8.153  22.924   6.155
10051POPC   GL257446   8.324  22.830   6.155
10051POPC   C1A57447   8.169  22.949   6.455
10051POPC   D2A57448   8.157  22.954   6.755
10051POPC   C3A57449   8.239  22.981   7.055
10051POPC   C4A57450   8.228  22.938   7.355
10051POPC   C1B57451   8.390  22.779   6.455
10051POPC   C2B57452   8.371  22.704   6.755
10051POPC   C3B57453   8.341  22.728   7.055
10051POPC   C4B57454   8.328  22.773   7.355
10052POPC   NC357455  36.949   1.974   5.555
10052POPC   PO457456  36.926   2.010   5.855
10052POPC   GL157457  36.912   1.985   6.155
10052POPC   GL257458  36.969   2.121   6.155
10052POPC   C1A57459  36.868   1.986   6.455
10052POPC   D2A57460  36.883   1.978   6.755
10052POPC   C3A57461  36.877   2.037   7.055
10052POPC   C4A57462  36.868   1.941   7.355
10052POPC   C1B57463  36.924   2.262   6.455
10052POPC   C2B57464  36.894   2.240   6.755
10052POPC   C3B57465  36.935   2.217   7.055
10052POPC   C4B57466  36.925   2.216   7.355
10053POPC   NC357467   3.515  23.745   5.555
10053POPC   PO457468   3.511  23.684   5.855
10053POPC   GL157469   3.554  23.750   6.155
10053POPC   GL257470   3.639  23.647   6.155
10053POPC   C1A57471   3.581  23.735   6.455
10053POPC   D2A57472   3.547  23.672   6.755
10053POPC   C3A57473   3.515  23.677   7.055
10053POPC   C4A57474   3.511  23.670   7.355
10053POPC   C1B57475   3.811  23.655   6.455
10053POPC   C2B57476   3.816  23.689   6.755
10053POPC   C3B57477   3.791  23.685   7.055
10053POPC   C4B57478   3.802  23.609   7.355
10054POPC   NC357479  21.412  12.833   5.555
10054POPC   PO457480  21.419  12.886   5.855
10054POPC   GL157481  21.426  12.863   6.155
10054POPC   GL257482  21.246  12.757   6.155
10054POPC   C1A57483  21.352  12.857   6.455
10054POPC   D2A57484  21.413  12.850   6.755
10054POPC   C3A57485  21.421  12.853   7.055
10054POPC   C4A57486  21.418  12.836   7.355
10054POPC   C1B57487  21.179  12.685   6.455
10054POPC   C2B57488  21.173  12.703   6.755
10054POPC   C3B57489  21.172  12.710   7.055
10054POPC   C4B57490  21.154  12.706   7.355
10055POPC   NC357491  20.654  40.826   5.555
10055POPC   PO457492  20.622  40.790   5.855
10055POPC   GL157493  20.618  40.775   6.155
10055POPC   GL257494  20.759  40.772   6.155
10055POPC   C1A57495  20.636  40.759   6.455
10055POPC   D2A57496  20.609  40.780   6.755
10055POPC   C3A57497  20.645  40.766   7.055
10055POPC   C4A57498  20.602  40.789   7.355
10055POPC   C1B57499  20.896  40.733   6.455
10055POPC   C2B57500  20.880  40.781   6.755
10055POPC   C3B57501  20.812  40.753   7.055
10055POPC   C4B57502  20.908  40.799   7.355
10056POPC   NC357503  33.792  40.761   5.555
10056POPC   PO457504  33.804  40.777   5.855
10056POPC   GL157505  33.821  40.771   6.155
10056POPC   GL257506  33.710  40.745   6.155
10056POPC   C1A57507  33.757  40.771   6.455
10056POPC   D2A57508  33.817  40.799   6.755
10056POPC   C3A57509  33.772  40.765   7.055
10056POPC   C4A57510  33.763  40.773   7.355
10056POPC   C1B57511  33.569  40.742   6.455
10056POPC   C2B57512  33.522  40.760   6.755
10056POPC   C3B57513  33.516  40.762   7.055
10056POPC   C4B57514  33.571  40.717   7.355
10057POPC   NC357515   6.597  12.116   5.555
10057POPC   PO457516   6.692  12.124   5.855
10057POPC   GL157517   6.595  12.086   6.155
10057POPC   GL257518   6.743  11.994   6.155
10057POPC   C1A57519   6.678  12.049   6.455
10057POPC   D2A57520   6.595  12.064   6.755
10057POPC   C3A57521   6.648  12.107   7.055
10057POPC   C4A57522   6.620  12.071   7.355
10057POPC   C1B57523   6.834  11.930   6.455
10057POPC   C2B57524   6.860  11.923   6.755
10057POPC   C3B57525   6.869  11.951   7.055
10057POPC   C4B57526   6.826  11.887   7.355
10058POPC   NC357527  43.885   9.711   5.555
10058POPC   PO457528  43.856   9.773   5.855
10058POPC   GL157529  43.930   9.769   6.155
10058POPC   GL257530  43.957   9.794   6.155
10058POPC   C1A57531  43.845   9.716   6.455
10058POPC   D2A57532  43.838   9.729   6.755
10058POPC   C3A57533  43.888   9.752   7.055
10058POPC   C4A57534  43.905   9.724   7.355
10058POPC   C1B57535  44.075   9.901   6.455
10058POPC   C2B57536  44.073   9.897   6.755
10058POPC   C3B57537  44.079   9.877   7.055
10058POPC   C4B57538  44.065   9.965   7.355
10059POPC   NC357539   6.656  40.763   5.555
10059POPC   PO457540   6.605  40.755   5.855
10059POPC   GL157541   6.613  40.804   6.155
10059POPC   GL257542   6.738  40.825   6.155
10059POPC   C1A57543   6.606  40.829   6.455
10059POPC   D2A57544   6.651  40.780   6.755
10059POPC   C3A57545   6.680  40.813   7.055
10059POPC   C4A57546   6.675  40.753   7.355
10059POPC   C1B57547   6.896  40.880   6.455
10059POPC   C2B57548   6.896  40.865   6.755
10059POPC   C3B57549   6.891  40.870   7.055
10059POPC   C4B57550   6.837  40.938   7.355
10060POPC   NC357551  19.042  22.980   5.555
10060POPC   PO457552  19.067  22.986   5.855
10060POPC   GL157553  19.067  22.920   6.155
10060POPC   GL257554  18.966  22.845   6.155
10060POPC   C1A57555  19.081  22.921   6.455
10060POPC   D2A57556  19.049  22.987   6.755
10060POPC   C3A57557  19.031  22.979   7.055
10060POPC   C4A57558  19.106  22.978   7.355
10060POPC   C1B57559  18.914  22.711   6.455
10060POPC   C2B57560  18.942  22.767   6.755
10060POPC   C3B57561  18.950  22.716   7.055
10060POPC   C4B57562  18.888  22.717   7.355
10061POPC   NC357563   4.298  38.487   5.555
10061POPC   PO457564   4.355  38.478   5.855
10061POPC   GL157565   4.334  38.424   6.155
10061POPC   GL257566   4.348  38.362   6.155
10061POPC   C1A57567   4.286  38.422   6.455
10061POPC   D2A57568   4.345  38.424   6.755
10061POPC   C3A57569   4.269  38.449   7.055
10061POPC   C4A57570   4.287  38.409   7.355
10061POPC   C1B57571   4.383  38.167   6.455
10061POPC   C2B57572   4.415  38.228   6.755
10061POPC   C3B57573   4.395  38.192   7.055
10061POPC   C4B57574   4.333  38.256   7.355
10062POPC   NC357575   2.773  15.165   5.555
10062POPC   PO457576   2.719  15.213   5.855
10062POPC   GL157577   2.756  15.178   6.155
10062POPC   GL257578   2.884  15.231   6.155
10062POPC   C1A57579   2.804  15.157   6.455
10062POPC   D2A57580   2.721  15.134   6.755
10062POPC   C3A57581   2.754  15.216   7.055
10062POPC   C4A57582   2.807  15.170   7.355
10062POPC   C1B57583   2.894  15.351   6.455
10062POPC   C2B57584   2.943  15.349   6.755
10062POPC   C3B57585   2.936  15.371   7.055
10062POPC   C4B57586   2.939  15.396   7.355
10063POPC   NC357587  32.212  32.976   5.555
10063POPC   PO457588  32.238  32.996   5.855
10063POPC   GL157589  32.206  33.017   6.155
10063POPC   GL257590  32.103  33.059   6.155
10063POPC   C1A57591  32.244  32.996   6.455
10063POPC   D2A57592  32.201  32.999   6.755
10063POPC   C3A57593  32.283  32.998   7.055
10063POPC   C4A57594  32.230  32.985   7.355
10063POPC   C1B57595  31.995  33.152   6.455
10063POPC   C2B57596  32.046  33.168   6.755
10063POPC   C3B57597  32.002  33.139   7.055
10063POPC   C4B57598  32.069  33.168   7.355
10064POPC   NC357599  40.783   2.782   5.555
10064POPC   PO457600  40.787   2.754   5.855
10064POPC   GL157601  40.822   2.735   6.155
10064POPC   GL257602  40.702   2.841   6.155
10064POPC   C1A57603  40.788   2.729   6.455
10064POPC   D2A57604  40.816   2.725   6.755
10064POPC   C3A57605  40.741   2.756   7.055
10064POPC   C4A57606  40.768   2.776   7.355
10064POPC   C1B57607  40.546   2.807   6.455
10064POPC   C2B57608  40.547   2.839   6.755
10064POPC   C3B57609  40.595   2.892   7.055
10064POPC   C4B57610  40.591   2.838   7.355
10065POPC   NC357611  18.281  43.841   5.555
10065POPC   PO457612  18.252  43.930   5.855
10065POPC   GL157613  18.242  43.912   6.155
10065POPC   GL257614  18.423  43.812   6.155
10065POPC   C1A57615  18.257  43.867   6.455
10065POPC   D2A57616  18.305  43.931   6.755
10065POPC   C3A57617  18.289  43.846   7.055
10065POPC   C4A57618  18.241  43.935   7.355
10065POPC   C1B57619  18.510  43.812   6.455
10065POPC   C2B57620  18.478  43.798   6.755
10065POPC   C3B57621  18.512  43.790   7.055
10065POPC   C4B57622  18.465  43.778   7.355
10066POPC   NC357623  14.385  27.633   5.555
10066POPC   PO457624  14.384  27.602   5.855
10066POPC   GL157625  14.359  27.571   6.155
10066POPC   GL257626  14.504  27.632   6.155
10066POPC   C1A57627  14.448  27.573   6.455
10066POPC   D2A57628  14.381  27.558   6.755
10066POPC   C3A57629  14.402  27.608   7.055
10066POPC   C4A57630  14.369  27.577   7.355
10066POPC   C1B57631  14.622  27.756   6.455
10066POPC   C2B57632  14.632  27.762   6.755
10066POPC   C3B57633  14.643  27.718   7.055
10066POPC   C4B57634  14.565  27.738   7.355
10067POPC   NC357635  10.570  41.535   5.555
10067POPC   PO457636  10.543  41.595   5.855
10067POPC   GL157637  10.544  41.525   6.155
10067POPC   GL257638  10.668  41.576   6.155
10067POPC   C1A57639  10.550  41.510   6.455
10067POPC   D2A57640  10.555  41.563   6.755
10067POPC   C3A57641  10.476  41.552   7.055
10067POPC   C4A57642  10.489  41.587   7.355
10067POPC   C1B57643  10.705  41.645   6.455
10067POPC   C2B57644  10.786  41.705   6.755
10067POPC   C3B57645  10.769  41.703   7.055
10067POPC   C4B57646  10.772  41.649   7.355
10068POPC   NC357647  42.317   1.220   5.555
10068POPC   PO457648  42.316   1.237   5.855
10068POPC   GL157649  42.324   1.240   6.155
10068POPC   GL257650  42.422   1.051   6.155
10068POPC   C1A57651  42.345   1.262   6.455
10068POPC   D2A57652  42.328   1.197   6.755
10068POPC   C3A57653  42.335   1.221   7.055
10068POPC   C4A57654  42.355   1.189   7.355
10068POPC   C1B57655  42.438   1.017   6.455
10068POPC   C2B57656  42.425   1.027   6.755
10068POPC   C3B57657  42.476   0.975   7.055
10068POPC   C4B57658  42.425   0.998   7.355
10069POPC   NC357659  10.496  21.425   5.555
10069POPC   PO457660  10.571  21.388   5.855
10069POPC   GL157661  10.518  21.348   6.155
10069POPC   GL257662  10.373  21.412   6.155
10069POPC   C1A57663  10.499  21.416   6.455
10069POPC   D2A57664  10.508  21.347   6.755
10069POPC   C3A57665  10.480  21.391   7.055
10069POPC   C4A57666  10.538  21.367   7.355
10069POPC   C1B57667  10.246  21.391   6.455
10069POPC   C2B57668  10.310  21.468   6.755
10069POPC   C3B57669  10.263  21.441   7.055
10069POPC   C4B57670  10.282  21.406   7.355
10070POPC   NC357671  11.330   8.931   5.555
10070POPC   PO457672  11.266   8.967   5.855
10070POPC   GL157673  11.334   8.945   6.155
10070POPC   GL257674  11.384   9.032   6.155
10070POPC   C1A57675  11.345   8.935   6.455
10070POPC   D2A57676  11.336   8.973   6.755
10070POPC   C3A57677  11.310   8.989   7.055
10070POPC   C4A57678  11.264   8.952   7.355
10070POPC   C1B57679  11.515   9.134   6.455
10070POPC   C2B57680  11.563   9.035   6.755
10070POPC   C3B57681  11.541   9.097   7.055
10070POPC   C4B57682  11.552   9.086   7.355
10071POPC   NC357683   2.766   7.377   5.555
10071POPC   PO457684   2.789   7.388   5.855
10071POPC   GL157685   2.730   7.411   6.155
10071POPC   GL257686   2.828   7.543   6.155
10071POPC   C1A57687   2.732   7.386   6.455
10071POPC   D2A57688   2.787   7.396   6.755
10071POPC   C3A57689   2.717   7.432   7.055
10071POPC   C4A57690   2.716   7.391   7.355
10071POPC   C1B57691   2.963   7.622   6.455
10071POPC   C2B57692   2.891   7.560   6.755
10071POPC   C3B57693   2.943   7.617   7.055
10071POPC   C4B57694   2.888   7.585   7.355
10072POPC   NC357695  24.462  36.905   5.555
10072POPC   PO457696  24.455  36.905   5.855
10072POPC   GL157697  24.529  36.866   6.155
10072POPC   GL257698  24.383  36.841   6.155
10072POPC   C1A57699  24.502  36.904   6.455
10072POPC   D2A57700  24.459  36.892   6.755
10072POPC   C3A57701  24.480  36.935   7.055
10072POPC   C4A57702  24.447  36.871   7.355
10072POPC   C1B57703  24.231  36.728   6.455
10072POPC   C2B57704  24.320  36.767   6.755
10072POPC   C3B57705  24.246  36.804   7.055
10072POPC   C4B57706  24.240  36.744   7.355
10073POPC   NC357707   0.438   8.944   5.555
10073POPC   PO457708   0.457   9.000   5.855
10073POPC   GL157709   0.393   9.018   6.155
10073POPC   GL257710   0.338   9.093   6.155
10073POPC   C1A57711   0.407   9.004   6.455
10073POPC   D2A57712   0.460   8.972   6.755
10073POPC   C3A57713   0.474   8.987   7.055
10073POPC   C4A57714   0.467   9.002   7.355
10073POPC   C1B57715   0.228   9.111   6.455
10073POPC   C2B57716   0.221   9.082   6.755
10073POPC   C3B57717   0.287   9.082   7.055
10073POPC   C4B57718   0.213   9.160   7.355
10074POPC   NC357719   5.820  28.405   5.555
10074POPC   PO457720   5.903  28.418   5.855
10074POPC   GL157721   5.873  28.377   6.155
10074POPC   GL257722   6.014  28.357   6.155
10074POPC   C1A57723   5.860  28.393   6.455
10074POPC   D2A57724   5.858  28.323   6.755
10074POPC   C3A57725   5.872  28.383   7.055
10074POPC   C4A57726   5.841  28.335   7.355
10074POPC   C1B57727   6.083  28.360   6.455
10074POPC   C2B57728   6.105  28.401   6.755
10074POPC   C3B57729   6.106  28.404   7.055
10074POPC   C4B57730   6.089  28.357   7.355
10075POPC   NC357731  39.275  15.146   5.555
10075POPC   PO457732  39.280  15.140   5.855
10075POPC   GL157733  39.278  15.141   6.155
10075POPC   GL257734  39.341  15.182   6.155
10075POPC   C1A57735  39.232  15.148   6.455
10075POPC   D2A57736  39.248  15.169   6.755
10075POPC   C3A57737  39.221  15.213   7.055
10075POPC   C4A57738  39.244  15.148   7.355
10075POPC   C1B57739  39.439  15.171   6.455
10075POPC   C2B57740  39.516  15.082   6.755
10075POPC   C3B57741  39.494  15.114   7.055
10075POPC   C4B57742  39.522  15.128   7.355
10076POPC   NC357743  15.987   7.422   5.555
10076POPC   PO457744  15.954   7.373   5.855
10076POPC   GL157745  15.941   7.464   6.155
10076POPC   GL257746  15.996   7.332   6.155
10076POPC   C1A57747  15.928   7.453   6.455
10076POPC   D2A57748  15.941   7.426   6.755
10076POPC   C3A57749  15.949   7.404   7.055
10076POPC   C4A57750  15.923   7.384   7.355
10076POPC   C1B57751  16.092   7.244   6.455
10076POPC   C2B57752  16.127   7.273   6.755
10076POPC   C3B57753  16.109   7.234   7.055
10076POPC   C4B57754  16.111   7.274   7.355
10077POPC   NC357755  25.270  33.008   5.555
10077POPC   PO457756  25.245  33.033   5.855
10077POPC   GL157757  25.223  33.073   6.155
10077POPC   GL257758  25.131  32.997   6.155
10077POPC   C1A57759  25.296  33.056   6.455
10077POPC   D2A57760  25.270  33.029   6.755
10077POPC   C3A57761  25.217  33.014   7.055
10077POPC   C4A57762  25.283  33.009   7.355
10077POPC   C1B57763  24.999  33.104   6.455
10077POPC   C2B57764  25.038  33.068   6.755
10077POPC   C3B57765  25.055  33.058   7.055
10077POPC   C4B57766  25.045  33.096   7.355
10078POPC   NC357767  40.808  23.707   5.555
10078POPC   PO457768  40.808  23.680   5.855
10078POPC   GL157769  40.819  23.666   6.155
10078POPC   GL257770  40.941  23.769   6.155
10078POPC   C1A57771  40.784  23.759   6.455
10078POPC   D2A57772  40.774  23.691   6.755
10078POPC   C3A57773  40.801  23.677   7.055
10078POPC   C4A57774  40.752  23.753   7.355
10078POPC   C1B57775  41.049  23.736   6.455
10078POPC   C2B57776  40.993  23.793   6.755
10078POPC   C3B57777  41.044  23.790   7.055
10078POPC   C4B57778  41.060  23.758   7.355
10079POPC   NC357779  35.398  35.314   5.555
10079POPC   PO457780  35.394  35.354   5.855
10079POPC   GL157781  35.352  35.342   6.155
10079POPC   GL257782  35.424  35.400   6.155
10079POPC   C1A57783  35.353  35.382   6.455
10079POPC   D2A57784  35.338  35.316   6.755
10079POPC   C3A57785  35.362  35.305   7.055
10079POPC   C4A57786  35.332  35.367   7.355
10079POPC   C1B57787  35.571  35.486   6.455
10079POPC   C2B57788  35.543  35.449   6.755
10079POPC   C3B57789  35.516  35.503   7.055
10079POPC   C4B57790  35.570  35.532   7.355
10080POPC   NC357791  11.335  12.083   5.555
10080POPC   PO457792  11.301  12.081   5.855
10080POPC   GL157793  11.332  12.066   6.155
10080POPC   GL257794  11.381  11.982   6.155
10080POPC   C1A57795  11.281  12.118   6.455
10080POPC   D2A57796  11.303  12.075   6.755
10080POPC   C3A57797  11.334  12.031   7.055
10080POPC   C4A57798  11.346  12.032   7.355
10080POPC   C1B57799  11.421  11.825   6.455
10080POPC   C2B57800  11.384  11.902   6.755
10080POPC   C3B57801  11.468  11.814   7.055
10080POPC   C4B57802  11.378  11.850   7.355
10081POPC   NC357803  28.346  22.974   5.555
10081POPC   PO457804  28.404  22.896   5.855
10081POPC   GL157805  28.358  22.962   6.155
10081POPC   GL257806  28.449  23.047   6.155
10081POPC   C1A57807  28.395  22.936   6.455
10081POPC   D2A57808  28.369  22.915   6.755
10081POPC   C3A57809  28.325  22.976   7.055
10081POPC   C4A57810  28.415  22.894   7.355
10081POPC   C1B57811  28.407  23.190   6.455
10081POPC   C2B57812  28.472  23.228   6.755
10081POPC   C3B57813  28.480  23.167   7.055
10081POPC   C4B57814  28.428  23.220   7.355
10082POPC   NC357815  44.643  39.264   5.555
10082POPC   PO457816  44.639  39.184   5.855
10082POPC   GL157817  44.650  39.262   6.155
10082POPC   GL257818  44.714  39.106   6.155
10082POPC   C1A57819  44.667  39.217   6.455
10082POPC   D2A57820  44.613  39.201   6.755
10082POPC   C3A57821  44.667  39.263   7.055
10082POPC   C4A57822  44.650  39.240   7.355
10082POPC   C1B57823  44.815  39.102   6.455
10082POPC   C2B57824  44.855  39.119   6.755
10082POPC   C3B57825  44.842  39.097   7.055
10082POPC   C4B57826  44.883  39.064   7.355
10083POPC   NC357827  13.677  13.612   5.555
10083POPC   PO457828  13.616  13.589   5.855
10083POPC   GL157829  13.604  13.664   6.155
10083POPC   GL257830  13.492  13.594   6.155
10083POPC   C1A57831  13.673  13.666   6.455
10083POPC   D2A57832  13.666  13.635   6.755
10083POPC   C3A57833  13.587  13.631   7.055
10083POPC   C4A57834  13.662  13.605   7.355
10083POPC   C1B57835  13.421  13.466   6.455
10083POPC   C2B57836  13.440  13.459   6.755
10083POPC   C3B57837  13.422  13.447   7.055
10083POPC   C4B57838  13.420  13.517   7.355
10084POPC   NC357839  42.381  25.304   5.555
10084POPC   PO457840  42.335  25.240   5.855
10084POPC   GL157841  42.302  25.261   6.155
10084POPC   GL257842  42.454  25.335   6.155
10084POPC   C1A57843  42.372  25.235   6.455
10084POPC   D2A57844  42.350  25.295   6.755
10084POPC   C3A57845  42.325  25.275   7.055
10084POPC   C4A57846  42.310  25.277   7.355
10084POPC   C1B57847  42.506  25.422   6.455
10084POPC   C2B57848  42.497  25.407   6.755
10084POPC   C3B57849  42.544  25.457   7.055
10084POPC   C4B57850  42.563  25.409   7.355
10085POPC   NC357851  17.458  27.616   5.555
10085POPC   PO457852  17.525  27.599   5.855
10085POPC   GL157853  17.532  27.544   6.155
10085POPC   GL257854  17.562  27.522   6.155
10085POPC   C1A57855  17.501  27.636   6.455
10085POPC   D2A57856  17.520  27.611   6.755
10085POPC   C3A57857  17.520  27.544   7.055
10085POPC   C4A57858  17.525  27.626   7.355
10085POPC   C1B57859  17.670  27.368   6.455
10085POPC   C2B57860  17.695  27.351   6.755
10085POPC   C3B57861  17.666  27.349   7.055
10085POPC   C4B57862  17.613  27.371   7.355
10086POPC   NC357863   3.538  36.165   5.555
10086POPC   PO457864   3.514  36.138   5.855
10086POPC   GL157865   3.499  36.170   6.155
10086POPC   GL257866   3.563  35.993   6.155
10086POPC   C1A57867   3.591  36.157   6.455
10086POPC   D2A57868   3.494  36.177   6.755
10086POPC   C3A57869   3.559  36.084   7.055
10086POPC   C4A57870   3.583  36.143   7.355
10086POPC   C1B57871   3.588  35.910   6.455
10086POPC   C2B57872   3.542  35.903   6.755
10086POPC   C3B57873   3.542  35.890   7.055
10086POPC   C4B57874   3.576  35.888   7.355
10087POPC   NC357875  12.849  26.039   5.555
10087POPC   PO457876  12.840  26.081   5.855
10087POPC   GL157877  12.843  26.046   6.155
10087POPC   GL257878  12.773  26.086   6.155
10087POPC   C1A57879  12.836  26.013   6.455
10087POPC   D2A57880  12.853  25.992   6.755
10087POPC   C3A57881  12.826  26.017   7.055
10087POPC   C4A57882  12.875  26.084   7.355
10087POPC   C1B57883  12.648  26.240   6.455
10087POPC   C2B57884  12.695  26.253   6.755
10087POPC   C3B57885  12.687  26.168   7.055
10087POPC   C4B57886  12.625  26.174   7.355
10088POPC   NC357887   5.846  36.918   5.555
10088POPC   PO457888   5.825  36.874   5.855
10088POPC   GL157889   5.845  36.864   6.155
10088POPC   GL257890   5.720  36.931   6.155
10088POPC   C1A57891   5.879  36.911   6.455
10088POPC   D2A57892   5.853  36.941   6.755
10088POPC   C3A57893   5.862  36.933   7.055
10088POPC   C4A57894   5.909  36.902   7.355
10088POPC   C1B57895   5.668  37.092   6.455
10088POPC   C2B57896   5.641  37.064   6.755
10088POPC   C3B57897   5.693  37.071   7.055
10088POPC   C4B57898   5.630  37.069   7.355
10089POPC   NC357899  26.055   5.111   5.555
10089POPC   PO457900  26.041   5.129   5.855
10089POPC   GL157901  26.068   5.060   6.155
10089POPC   GL257902  26.163   5.037   6.155
10089POPC   C1A57903  26.032   5.135   6.455
10089POPC   D2A57904  25.992   5.119   6.755
10089POPC   C3A57905  26.079   5.074   7.055
10089POPC   C4A57906  26.065   5.079   7.355
10089POPC   C1B57907  26.212   4.971   6.455
10089POPC   C2B57908  26.230   4.959   6.755
10089POPC   C3B57909  26.266   4.976   7.055
10089POPC   C4B57910  26.225   4.979   7.355
10090POPC   NC357911  29.194   9.764   5.555
10090POPC   PO457912  29.100   9.715   5.855
10090POPC   GL157913  29.194   9.775   6.155
10090POPC   GL257914  29.113   9.683   6.155
10090POPC   C1A57915  29.138   9.788   6.455
10090POPC   D2A57916  29.174   9.739   6.755
10090POPC   C3A57917  29.097   9.753   7.055
10090POPC   C4A57918  29.147   9.724   7.355
10090POPC   C1B57919  29.069   9.552   6.455
10090POPC   C2B57920  29.055   9.569   6.755
10090POPC   C3B57921  29.043   9.526   7.055
10090POPC   C4B57922  28.982   9.511   7.355
10091POPC   NC357923   8.201   4.294   5.555
10091POPC   PO457924   8.192   4.328   5.855
10091POPC   GL157925   8.171   4.336   6.155
10091POPC   GL257926   8.148   4.244   6.155
10091POPC   C1A57927   8.200   4.282   6.455
10091POPC   D2A57928   8.234   4.300   6.755
10091POPC   C3A57929   8.156   4.321   7.055
10091POPC   C4A57930   8.171   4.347   7.355
10091POPC   C1B57931   8.076   4.163   6.455
10091POPC   C2B57932   8.030   4.136   6.755
10091POPC   C3B57933   8.005   4.088   7.055
10091POPC   C4B57934   8.087   4.140   7.355
10092POPC   NC357935  26.866  43.135   5.555
10092POPC   PO457936  26.802  43.141   5.855
10092POPC   GL157937  26.846  43.144   6.155
10092POPC   GL257938  26.903  43.151   6.155
10092POPC   C1A57939  26.838  43.159   6.455
10092POPC   D2A57940  26.851  43.067   6.755
10092POPC   C3A57941  26.836  43.091   7.055
10092POPC   C4A57942  26.813  43.149   7.355
10092POPC   C1B57943  27.060  43.222   6.455
10092POPC   C2B57944  27.052  43.257   6.755
10092POPC   C3B57945  27.023  43.228   7.055
10092POPC   C4B57946  27.023  43.250   7.355
10093POPC   NC357947  43.914  23.748   5.555
10093POPC   PO457948  43.932  23.672   5.855
10093POPC   GL157949  43.929  23.691   6.155
10093POPC   GL257950  43.866  23.832   6.155
10093POPC   C1A57951  43.922  23.732   6.455
10093POPC   D2A57952  43.865  23.724   6.755
10093POPC   C3A57953  43.894  23.752   7.055
10093POPC   C4A57954  43.873  23.742   7.355
10093POPC   C1B57955  43.908  23.955   6.455
10093POPC   C2B57956  43.845  23.971   6.755
10093POPC   C3B57957  43.879  23.950   7.055
10093POPC   C4B57958  43.872  23.972   7.355
10094POPC   NC357959  17.550   5.828   5.555
10094POPC   PO457960  17.511   5.835   5.855
10094POPC   GL157961  17.481   5.835   6.155
10094POPC   GL257962  17.431   5.786   6.155
10094POPC   C1A57963  17.505   5.829   6.455
10094POPC   D2A57964  17.458   5.874   6.755
10094POPC   C3A57965  17.499   5.883   7.055
10094POPC   C4A57966  17.464   5.841   7.355
10094POPC   C1B57967  17.270   5.709   6.455
10094POPC   C2B57968  17.295   5.727   6.755
10094POPC   C3B57969  17.343   5.692   7.055
10094POPC   C4B57970  17.283   5.734   7.355
10095POPC   NC357971  40.054  43.127   5.555
10095POPC   PO457972  39.997  43.093   5.855
10095POPC   GL157973  40.031  43.138   6.155
10095POPC   GL257974  40.091  43.156   6.155
10095POPC   C1A57975  39.976  43.123   6.455
10095POPC   D2A57976  40.038  43.092   6.755
10095POPC   C3A57977  39.963  43.157   7.055
10095POPC   C4A57978  40.020  43.080   7.355
10095POPC   C1B57979  40.179  43.284   6.455
10095POPC   C2B57980  40.245  43.216   6.755
10095POPC   C3B57981  40.232  43.276   7.055
10095POPC   C4B57982  40.228  43.241   7.355
10096POPC   NC357983   2.726  36.943   5.555
10096POPC   PO457984   2.742  36.902   5.855
10096POPC   GL157985   2.754  36.953   6.155
10096POPC   GL257986   2.631  36.795   6.155
10096POPC   C1A57987   2.806  36.947   6.455
10096POPC   D2A57988   2.757  36.898   6.755
10096POPC   C3A57989   2.723  36.865   7.055
10096POPC   C4A57990   2.753  36.942   7.355
10096POPC   C1B57991   2.603  36.716   6.455
10096POPC   C2B57992   2.565  36.762   6.755
10096POPC   C3B57993   2.565  36.723   7.055
10096POPC   C4B57994   2.562  36.787   7.355
10097POPC   NC357995  24.445  25.218   5.555
10097POPC   PO457996  24.474  25.257   5.855
10097POPC   GL157997  24.520  25.300   6.155
10097POPC   GL257998  24.619  25.361   6.155
10097POPC   C1A57999  24.511  25.303   6.455
10097POPC   D2A58000  24.442  25.279   6.755
10097POPC   C3A58001  24.540  25.243   7.055
10097POPC   C4A58002  24.495  25.307   7.355
10097POPC   C1B58003  24.749  25.428   6.455
10097POPC   C2B58004  24.665  25.433   6.755
10097POPC   C3B58005  24.750  25.375   7.055
10097POPC   C4B58006  24.689  25.410   7.355
10098POPC   NC358007   9.785  35.377   5.555
10098POPC   PO458008   9.714  35.398   5.855
10098POPC   GL158009   9.736  35.317   6.155
10098POPC   GL258010   9.879  35.225   6.155
10098POPC   C1A58011   9.741  35.362   6.455
10098POPC   D2A58012   9.700  35.324   6.755
10098POPC   C3A58013   9.793  35.389   7.055
10098POPC   C4A58014   9.794  35.306   7.355
10098POPC   C1B58015   9.953  35.180   6.455
10098POPC   C2B58016   9.974  35.227   6.755
10098POPC   C3B58017   9.917  35.212   7.055
10098POPC   C4B58018   9.936  35.160   7.355
10099POPC   NC358019   2.742  15.928   5.555
10099POPC   PO458020   2.747  15.977   5.855
10099POPC   GL158021   2.744  15.957   6.155
10099POPC   GL258022   2.843  15.926   6.155
10099POPC   C1A58023   2.742  15.975   6.455
10099POPC   D2A58024   2.717  15.969   6.755
10099POPC   C3A58025   2.802  16.004   7.055
10099POPC   C4A58026   2.774  16.004   7.355
10099POPC   C1B58027   3.044  15.987   6.455
10099POPC   C2B58028   3.052  16.013   6.755
10099POPC   C3B58029   2.971  15.984   7.055
10099POPC   C4B58030   3.047  15.930   7.355
10100POPC   NC358031  42.327  36.091   5.555
10100POPC   PO458032  42.374  36.133   5.855
10100POPC   GL158033  42.313  36.109   6.155
10100POPC   GL258034  42.297  36.193   6.155
10100POPC   C1A58035  42.356  36.117   6.455
10100POPC   D2A58036  42.289  36.150   6.755
10100POPC   C3A58037  42.297  36.119   7.055
10100POPC   C4A58038  42.322  36.100   7.355
10100POPC   C1B58039  42.138  36.346   6.455
10100POPC   C2B58040  42.152  36.377   6.755
10100POPC   C3B58041  42.215  36.282   7.055
10100POPC   C4B58042  42.191  36.351   7.355
10101POPC   NC358043  41.570  28.360   5.555
10101POPC   PO458044  41.562  28.362   5.855
10101POPC   GL158045  41.607  28.378   6.155
10101POPC   GL258046  41.615  28.314   6.155
10101POPC   C1A58047  41.573  28.340   6.455
10101POPC   D2A58048  41.602  28.380   6.755
10101POPC   C3A58049  41.550  28.380   7.055
10101POPC   C4A58050  41.539  28.405   7.355
10101POPC   C1B58051  41.734  28.245   6.455
10101POPC   C2B58052  41.721  28.209   6.755
10101POPC   C3B58053  41.756  28.189   7.055
10101POPC   C4B58054  41.749  28.232   7.355
10102POPC   NC358055  36.100  42.302   5.555
10102POPC   PO458056  36.162  42.297   5.855
10102POPC   GL158057  36.079  42.379   6.155
10102POPC   GL258058  36.082  42.505   6.155
10102POPC   C1A58059  36.137  42.299   6.455
10102POPC   D2A58060  36.137  42.318   6.755
10102POPC   C3A58061  36.104  42.310   7.055
10102POPC   C4A58062  36.123  42.362   7.355
10102POPC   C1B58063  36.096  42.596   6.455
10102POPC   C2B58064  36.134  42.553   6.755
10102POPC   C3B58065  36.145  42.542   7.055
10102POPC   C4B58066  36.074  42.537   7.355
10103POPC   NC358067  10.506   5.894   5.555
10103POPC   PO458068  10.567   5.914   5.855
10103POPC   GL158069  10.561   5.847   6.155
10103POPC   GL258070  10.503   5.970   6.155
10103POPC   C1A58071  10.523   5.891   6.455
10103POPC   D2A58072  10.516   5.914   6.755
10103POPC   C3A58073  10.537   5.875   7.055
10103POPC   C4A58074  10.538   5.831   7.355
10103POPC   C1B58075  10.415   6.101   6.455
10103POPC   C2B58076  10.468   6.063   6.755
10103POPC   C3B58077  10.455   6.075   7.055
10103POPC   C4B58078  10.401   6.144   7.355
10104POPC   NC358079  18.307   2.753   5.555
10104POPC   PO458080  18.313   2.767   5.855
10104POPC   GL158081  18.237   2.779   6.155
10104POPC   GL258082  18.340   2.682   6.155
10104POPC   C1A58083  18.264   2.727   6.455
10104POPC   D2A58084  18.247   2.798   6.755
10104POPC   C3A58085  18.236   2.797   7.055
10104POPC   C4A58086  18.308   2.746   7.355
10104POPC   C1B58087  18.528   2.604   6.455
10104POPC   C2B58088  18.494   2.617   6.755
10104POPC   C3B58089  18.536   2.654   7.055
10104POPC   C4B58090  18.514   2.671   7.355
10105POPC   NC358091  25.263  23.748   5.555
10105POPC   PO458092  25.298  23.670   5.855
10105POPC   GL158093  25.227  23.755   6.155
10105POPC   GL258094  25.157  23.828   6.155
10105POPC   C1A58095  25.272  23.720   6.455
10105POPC   D2A58096  25.298  23.670   6.755
10105POPC   C3A58097  25.240  23.756   7.055
10105POPC   C4A58098  25.243  23.683   7.355
10105POPC   C1B58099  25.141  23.898   6.455
10105POPC   C2B58100  25.170  23.933   6.755
10105POPC   C3B58101  25.079  23.923   7.055
10105POPC   C4B58102  25.163  23.896   7.355
10106POPC   NC358103  19.031  36.171   5.555
10106POPC   PO458104  19.104  36.125   5.855
10106POPC   GL158105  19.067  36.129   6.155
10106POPC   GL258106  18.985  36.193   6.155
10106POPC   C1A58107  19.084  36.123   6.455
10106POPC   D2A58108  19.009  36.169   6.755
10106POPC   C3A58109  19.016  36.177   7.055
10106POPC   C4A58110  19.060  36.094   7.355
10106POPC   C1B58111  18.774  36.187   6.455
10106POPC   C2B58112  18.852  36.198   6.755
10106POPC   C3B58113  18.798  36.135   7.055
10106POPC   C4B58114  18.781  36.198   7.355
10107POPC   NC358115  26.011  29.910   5.555
10107POPC   PO458116  26.051  29.899   5.855
10107POPC   GL158117  26.063  29.920   6.155
10107POPC   GL258118  26.157  29.877   6.155
10107POPC   C1A58119  26.068  29.953   6.455
10107POPC   D2A58120  26.052  29.934   6.755
10107POPC   C3A58121  26.051  29.964   7.055
10107POPC   C4A58122  26.008  29.939   7.355
10107POPC   C1B58123  26.247  29.892   6.455
10107POPC   C2B58124  26.320  29.804   6.755
10107POPC   C3B58125  26.323  29.873   7.055
10107POPC   C4B58126  26.316  29.859   7.355
10108POPC   NC358127  42.334  35.352   5.555
10108POPC   PO458128  42.320  35.340   5.855
10108POPC   GL158129  42.306  35.329   6.155
10108POPC   GL258130  42.175  35.336   6.155
10108POPC   C1A58131  42.331  35.350   6.455
10108POPC   D2A58132  42.363  35.310   6.755
10108POPC   C3A58133  42.356  35.343   7.055
10108POPC   C4A58134  42.379  35.324   7.355
10108POPC   C1B58135  42.146  35.224   6.455
10108POPC   C2B58136  42.126  35.293   6.755
10108POPC   C3B58137  42.069  35.283   7.055
10108POPC   C4B58138  42.123  35.269   7.355
10109POPC   NC358139  22.978  41.535   5.555
10109POPC   PO458140  22.893  41.584   5.855
10109POPC   GL158141  22.892  41.607   6.155
10109POPC   GL258142  23.023  41.417   6.155
10109POPC   C1A58143  22.920  41.589   6.455
10109POPC   D2A58144  22.896  41.520   6.755
10109POPC   C3A58145  22.903  41.519   7.055
10109POPC   C4A58146  22.986  41.563   7.355
10109POPC   C1B58147  23.014  41.389   6.455
10109POPC   C2B58148  23.098  41.337   6.755
10109POPC   C3B58149  23.024  41.341   7.055
10109POPC   C4B58150  23.057  41.325   7.355
10110POPC   NC358151  44.699  13.592   5.555
10110POPC   PO458152  44.644  13.586   5.855
10110POPC   GL158153  44.694  13.612   6.155
10110POPC   GL258154  44.597  13.743   6.155
10110POPC   C1A58155  44.661  13.633   6.455
10110POPC   D2A58156  44.632  13.633   6.755
10110POPC   C3A58157  44.689  13.610   7.055
10110POPC   C4A58158  44.657  13.674   7.355
10110POPC   C1B58159  44.447  13.829   6.455
10110POPC   C2B58160  44.455  13.858   6.755
10110POPC   C3B58161  44.492  13.828   7.055
10110POPC   C4B58162  44.527  13.763   7.355
10111POPC   NC358163   2.780  37.674   5.555
10111POPC   PO458164   2.762  37.677   5.855
10111POPC   GL158165   2.796  37.633   6.155
10111POPC   GL258166   2.733  37.543   6.155
10111POPC   C1A58167   2.765  37.656   6.455
10111POPC   D2A58168   2.771  37.705   6.755
10111POPC   C3A58169   2.805  37.721   7.055
10111POPC   C4A58170   2.780  37.643   7.355
10111POPC   C1B58171   2.634  37.435   6.455
10111POPC   C2B58172   2.665  37.511   6.755
10111POPC   C3B58173   2.629  37.475   7.055
10111POPC   C4B58174   2.614  37.435   7.355
10112POPC   NC358175  22.143  24.483   5.555
10112POPC   PO458176  22.153  24.511   5.855
10112POPC   GL158177  22.173  24.530   6.155
10112POPC   GL258178  22.233  24.366   6.155
10112POPC   C1A58179  22.143  24.516   6.455
10112POPC   D2A58180  22.127  24.460   6.755
10112POPC   C3A58181  22.191  24.530   7.055
10112POPC   C4A58182  22.196  24.524   7.355
10112POPC   C1B58183  22.410  24.375   6.455
10112POPC   C2B58184  22.322  24.371   6.755
10112POPC   C3B58185  22.406  24.367   7.055
10112POPC   C4B58186  22.387  24.296   7.355
10113POPC   NC358187  22.897  19.100   5.555
10113POPC   PO458188  22.970  19.016   5.855
10113POPC   GL158189  22.916  19.090   6.155
10113POPC   GL258190  22.951  19.156   6.155
10113POPC   C1A58191  22.911  19.022   6.455
10113POPC   D2A58192  22.896  19.055   6.755
10113POPC   C3A58193  22.927  19.027   7.055
10113POPC   C4A58194  22.945  19.050   7.355
10113POPC   C1B58195  23.011  19.271   6.455
10113POPC   C2B58196  22.950  19.351   6.755
10113POPC   C3B58197  22.940  19.317   7.055
10113POPC   C4B58198  22.965  19.319   7.355
10114POPC   NC358199   5.893  34.622   5.555
10114POPC   PO458200   5.883  34.620   5.855
10114POPC   GL158201   5.839  34.582   6.155
10114POPC   GL258202   5.836  34.424   6.155
10114POPC   C1A58203   5.882  34.539   6.455
10114POPC   D2A58204   5.877  34.557   6.755
10114POPC   C3A58205   5.903  34.612   7.055
10114POPC   C4A58206   5.853  34.556   7.355
10114POPC   C1B58207   5.840  34.371   6.455
10114POPC   C2B58208   5.845  34.319   6.755
10114POPC   C3B58209   5.853  34.288   7.055
10114POPC   C4B58210   5.927  34.344   7.355
10115POPC   NC358211  25.267   4.343   5.555
10115POPC   PO458212  25.246   4.363   5.855
10115POPC   GL158213  25.241   4.275   6.155
10115POPC   GL258214  25.297   4.412   6.155
10115POPC   C1A58215  25.257   4.268   6.455
10115POPC   D2A58216  25.221   4.278   6.755
10115POPC   C3A58217  25.279   4.290   7.055
10115POPC   C4A58218  25.265   4.319   7.355
10115POPC   C1B58219  25.228   4.579   6.455
10115POPC   C2B58220  25.260   4.567   6.755
10115POPC   C3B58221  25.277   4.523   7.055
10115POPC   C4B58222  25.307   4.583   7.355
10116POPC   NC358223  21.351  19.104   5.555
10116POPC   PO458224  21.340  19.017   5.855
10116POPC   GL158225  21.428  19.097   6.155
10116POPC   GL258226  21.310  18.959   6.155
10116POPC   C1A58227  21.406  19.013   6.455
10116POPC   D2A58228  21.403  19.094   6.755
10116POPC   C3A58229  21.394  19.077   7.055
10116POPC   C4A58230  21.339  19.051   7.355
10116POPC   C1B58231  21.167  18.883   6.455
10116POPC   C2B58232  21.195  18.903   6.755
10116POPC   C3B58233  21.223  18.906   7.055
10116POPC   C4B58234  21.168  18.893   7.355
10117POPC   NC358235  31.465   3.575   5.555
10117POPC   PO458236  31.455   3.573   5.855
10117POPC   GL158237  31.450   3.583   6.155
10117POPC   GL258238  31.489   3.450   6.155
10117POPC   C1A58239  31.454   3.584   6.455
10117POPC   D2A58240  31.425   3.589   6.755
10117POPC   C3A58241  31.498   3.565   7.055
10117POPC   C4A58242  31.492   3.579   7.355
10117POPC   C1B58243  31.528   3.251   6.455
10117POPC   C2B58244  31.501   3.340   6.755
10117POPC   C3B58245  31.464   3.272   7.055
10117POPC   C4B58246  31.528   3.244   7.355
10118POPC   NC358247  30.683  40.812   5.555
10118POPC   PO458248  30.720  40.806   5.855
10118POPC   GL158249  30.737  40.809   6.155
10118POPC   GL258250  30.805  40.784   6.155
10118POPC   C1A58251  30.701  40.820   6.455
10118POPC   D2A58252  30.741  40.809   6.755
10118POPC   C3A58253  30.676  40.785   7.055
10118POPC   C4A58254  30.702  40.736   7.355
10118POPC   C1B58255  30.933  40.657   6.455
10118POPC   C2B58256  30.966  40.648   6.755
10118POPC   C3B58257  30.952  40.699   7.055
10118POPC   C4B58258  30.951  40.698   7.355
10119POPC   NC358259  22.155  33.798   5.555
10119POPC   PO458260  22.142  33.798   5.855
10119POPC   GL158261  22.130  33.823   6.155
10119POPC   GL258262  22.241  33.679   6.155
10119POPC   C1A58263  22.120  33.818   6.455
10119POPC   D2A58264  22.158  33.774   6.755
10119POPC   C3A58265  22.120  33.847   7.055
10119POPC   C4A58266  22.185  33.831   7.355
10119POPC   C1B58267  22.274  33.586   6.455
10119POPC   C2B58268  22.273  33.538   6.755
10119POPC   C3B58269  22.240  33.566   7.055
10119POPC   C4B58270  22.248  33.576   7.355
10120POPC   NC358271  19.863  22.185   5.555
10120POPC   PO458272  19.804  22.128   5.855
10120POPC   GL158273  19.827  22.140   6.155
10120POPC   GL258274  19.902  22.218   6.155
10120POPC   C1A58275  19.875  22.133   6.455
10120POPC   D2A58276  19.870  22.118   6.755
10120POPC   C3A58277  19.871  22.208   7.055
10120POPC   C4A58278  19.792  22.119   7.355
10120POPC   C1B58279  19.996  22.393   6.455
10120POPC   C2B58280  19.964  22.373   6.755
10120POPC   C3B58281  20.020  22.337   7.055
10120POPC   C4B58282  19.989  22.387   7.355
10121POPC   NC358283   7.385  37.663   5.555
10121POPC   PO458284   7.449  37.697   5.855
10121POPC   GL158285   7.393  37.645   6.155
10121POPC   GL258286   7.508  37.661   6.155
10121POPC   C1A58287   7.376  37.723   6.455
10121POPC   D2A58288   7.386  37.681   6.755
10121POPC   C3A58289   7.390  37.658   7.055
10121POPC   C4A58290   7.450  37.647   7.355
10121POPC   C1B58291   7.629  37.698   6.455
10121POPC   C2B58292   7.652  37.676   6.755
10121POPC   C3B58293   7.710  37.676   7.055
10121POPC   C4B58294   7.699  37.677   7.355
10122POPC   NC358295  37.644  19.808   5.555
10122POPC   PO458296  37.702  19.871   5.855
10122POPC   GL158297  37.638  19.843   6.155
10122POPC   GL258298  37.773  19.924   6.155
10122POPC   C1A58299  37.727  19.792   6.455
10122POPC   D2A58300  37.637  19.846   6.755
10122POPC   C3A58301  37.630  19.791   7.055
10122POPC   C4A58302  37.646  19.843   7.355
10122POPC   C1B58303  37.879  20.000   6.455
10122POPC   C2B58304  37.875  20.004   6.755
10122POPC   C3B58305  37.878  20.027   7.055
10122POPC   C4B58306  37.799  20.019   7.355
10123POPC   NC358307   7.430  24.494   5.555
10123POPC   PO458308   7.412  24.503   5.855
10123POPC   GL158309   7.388  24.500   6.155
10123POPC   GL258310   7.342  24.420   6.155
10123POPC   C1A58311   7.405  24.494   6.455
10123POPC   D2A58312   7.423  24.526   6.755
10123POPC   C3A58313   7.380  24.503   7.055
10123POPC   C4A58314   7.426  24.506   7.355
10123POPC   C1B58315   7.255  24.291   6.455
10123POPC   C2B58316   7.200  24.313   6.755
10123POPC   C3B58317   7.258  24.309   7.055
10123POPC   C4B58318   7.248  24.354   7.355
10124POPC   NC358319   2.022   8.968   5.555
10124POPC   PO458320   2.004   8.983   5.855
10124POPC   GL158321   2.029   8.975   6.155
10124POPC   GL258322   2.091   8.879   6.155
10124POPC   C1A58323   1.987   8.968   6.455
10124POPC   D2A58324   1.980   9.011   6.755
10124POPC   C3A58325   2.022   8.956   7.055
10124POPC   C4A58326   1.945   9.022   7.355
10124POPC   C1B58327   2.250   8.817   6.455
10124POPC   C2B58328   2.206   8.826   6.755
10124POPC   C3B58329   2.212   8.875   7.055
10124POPC   C4B58330   2.244   8.857   7.355
10125POPC   NC358331  39.238  14.425   5.555
10125POPC   PO458332  39.257  14.394   5.855
10125POPC   GL158333  39.225  14.449   6.155
10125POPC   GL258334  39.199  14.514   6.155
10125POPC   C1A58335  39.185  14.385   6.455
10125POPC   D2A58336  39.251  14.364   6.755
10125POPC   C3A58337  39.197  14.372   7.055
10125POPC   C4A58338  39.255  14.370   7.355
10125POPC   C1B58339  39.151  14.593   6.455
10125POPC   C2B58340  39.109  14.584   6.755
10125POPC   C3B58341  39.132  14.634   7.055
10125POPC   C4B58342  39.135  14.630   7.355
10126POPC   NC358343   1.258  11.281   5.555
10126POPC   PO458344   1.197  11.292   5.855
10126POPC   GL158345   1.200  11.348   6.155
10126POPC   GL258346   1.336  11.273   6.155
10126POPC   C1A58347   1.220  11.298   6.455
10126POPC   D2A58348   1.215  11.303   6.755
10126POPC   C3A58349   1.261  11.262   7.055
10126POPC   C4A58350   1.209  11.281   7.355
10126POPC   C1B58351   1.453  11.264   6.455
10126POPC   C2B58352   1.447  11.286   6.755
10126POPC   C3B58353   1.508  11.296   7.055
10126POPC   C4B58354   1.464  11.285   7.355
10127POPC   NC358355  36.933  37.661   5.555
10127POPC   PO458356  36.940  37.702   5.855
10127POPC   GL158357  36.938  37.695   6.155
10127POPC   GL258358  36.957  37.558   6.155
10127POPC   C1A58359  36.923  37.689   6.455
10127POPC   D2A58360  36.952  37.666   6.755
10127POPC   C3A58361  36.949  37.715   7.055
10127POPC   C4A58362  36.924  37.675   7.355
10127POPC   C1B58363  36.989  37.460   6.455
10127POPC   C2B58364  36.945  37.443   6.755
10127POPC   C3B58365  36.953  37.450   7.055
10127POPC   C4B58366  36.954  37.388   7.355
10128POPC   NC358367   5.138   5.828   5.555
10128POPC   PO458368   5.081   5.865   5.855
10128POPC   GL158369   5.121   5.845   6.155
10128POPC   GL258370   5.083   5.743   6.155
10128POPC   C1A58371   5.086   5.874   6.455
10128POPC   D2A58372   5.059   5.842   6.755
10128POPC   C3A58373   5.118   5.902   7.055
10128POPC   C4A58374   5.077   5.836   7.355
10128POPC   C1B58375   4.976   5.646   6.455
10128POPC   C2B58376   5.029   5.609   6.755
10128POPC   C3B58377   5.021   5.610   7.055
10128POPC   C4B58378   5.002   5.658   7.355
10129POPC   NC358379  35.366  22.131   5.555
10129POPC   PO458380  35.339  22.194   5.855
10129POPC   GL158381  35.387  22.160   6.155
10129POPC   GL258382  35.335  22.072   6.155
10129POPC   C1A58383  35.309  22.173   6.455
10129POPC   D2A58384  35.398  22.150   6.755
10129POPC   C3A58385  35.394  22.162   7.055
10129POPC   C4A58386  35.376  22.123   7.355
10129POPC   C1B58387  35.327  21.933   6.455
10129POPC   C2B58388  35.339  21.954   6.755
10129POPC   C3B58389  35.274  21.940   7.055
10129POPC   C4B58390  35.346  21.896   7.355
10130POPC   NC358391  39.195  23.684   5.555
10130POPC   PO458392  39.228  23.680   5.855
10130POPC   GL158393  39.219  23.758   6.155
10130POPC   GL258394  39.141  23.776   6.155
10130POPC   C1A58395  39.188  23.701   6.455
10130POPC   D2A58396  39.266  23.709   6.755
10130POPC   C3A58397  39.197  23.669   7.055
10130POPC   C4A58398  39.243  23.711   7.355
10130POPC   C1B58399  38.984  23.805   6.455
10130POPC   C2B58400  39.030  23.866   6.755
10130POPC   C3B58401  39.054  23.805   7.055
10130POPC   C4B58402  38.989  23.853   7.355
10131POPC   NC358403   5.096   1.990   5.555
10131POPC   PO458404   5.051   1.940   5.855
10131POPC   GL158405   5.093   2.030   6.155
10131POPC   GL258406   4.924   1.916   6.155
10131POPC   C1A58407   5.097   2.010   6.455
10131POPC   D2A58408   5.081   1.977   6.755
10131POPC   C3A58409   5.053   2.022   7.055
10131POPC   C4A58410   5.069   2.018   7.355
10131POPC   C1B58411   4.844   1.939   6.455
10131POPC   C2B58412   4.808   1.940   6.755
10131POPC   C3B58413   4.849   1.934   7.055
10131POPC   C4B58414   4.865   1.888   7.355
10132POPC   NC358415  43.068   2.740   5.555
10132POPC   PO458416  43.111   2.798   5.855
10132POPC   GL158417  43.124   2.771   6.155
10132POPC   GL258418  42.972   2.791   6.155
10132POPC   C1A58419  43.137   2.745   6.455
10132POPC   D2A58420  43.064   2.799   6.755
10132POPC   C3A58421  43.144   2.741   7.055
10132POPC   C4A58422  43.104   2.789   7.355
10132POPC   C1B58423  42.876   2.846   6.455
10132POPC   C2B58424  42.895   2.842   6.755
10132POPC   C3B58425  42.833   2.811   7.055
10132POPC   C4B58426  42.900   2.837   7.355
10133POPC   NC358427  40.024   1.995   5.555
10133POPC   PO458428  39.990   1.943   5.855
10133POPC   GL158429  40.011   2.001   6.155
10133POPC   GL258430  40.144   2.008   6.155
10133POPC   C1A58431  40.029   2.033   6.455
10133POPC   D2A58432  40.045   1.980   6.755
10133POPC   C3A58433  39.989   1.971   7.055
10133POPC   C4A58434  39.996   1.988   7.355
10133POPC   C1B58435  40.289   1.999   6.455
10133POPC   C2B58436  40.260   2.005   6.755
10133POPC   C3B58437  40.221   2.044   7.055
10133POPC   C4B58438  40.305   2.010   7.355
10134POPC   NC358439  39.223  36.101   5.555
10134POPC   PO458440  39.215  36.153   5.855
10134POPC   GL158441  39.226  36.156   6.155
10134POPC   GL258442  39.216  36.253   6.155
10134POPC   C1A58443  39.235  36.091   6.455
10134POPC   D2A58444  39.272  36.162   6.755
10134POPC   C3A58445  39.234  36.127   7.055
10134POPC   C4A58446  39.243  36.079   7.355
10134POPC   C1B58447  39.120  36.370   6.455
10134POPC   C2B58448  39.079  36.370   6.755
10134POPC   C3B58449  39.136  36.342   7.055
10134POPC   C4B58450  39.081  36.311   7.355
10135POPC   NC358451  19.017  33.777   5.555
10135POPC   PO458452  19.054  33.777   5.855
10135POPC   GL158453  19.052  33.789   6.155
10135POPC   GL258454  19.003  33.682   6.155
10135POPC   C1A58455  19.069  33.775   6.455
10135POPC   D2A58456  19.093  33.811   6.755
10135POPC   C3A58457  19.091  33.827   7.055
10135POPC   C4A58458  19.070  33.831   7.355
10135POPC   C1B58459  18.899  33.681   6.455
10135POPC   C2B58460  18.870  33.685   6.755
10135POPC   C3B58461  18.889  33.631   7.055
10135POPC   C4B58462  18.904  33.665   7.355
10136POPC   NC358463  39.239  19.883   5.555
10136POPC   PO458464  39.194  19.797   5.855
10136POPC   GL158465  39.207  19.864   6.155
10136POPC   GL258466  39.130  19.734   6.155
10136POPC   C1A58467  39.201  19.819   6.455
10136POPC   D2A58468  39.263  19.803   6.755
10136POPC   C3A58469  39.259  19.882   7.055
10136POPC   C4A58470  39.200  19.822   7.355
10136POPC   C1B58471  39.028  19.595   6.455
10136POPC   C2B58472  39.094  19.652   6.755
10136POPC   C3B58473  39.028  19.620   7.055
10136POPC   C4B58474  39.085  19.669   7.355
10137POPC   NC358475  15.923  21.421   5.555
10137POPC   PO458476  15.970  21.387   5.855
10137POPC   GL158477  15.988  21.385   6.155
10137POPC   GL258478  15.843  21.298   6.155
10137POPC   C1A58479  15.951  21.425   6.455
10137POPC   D2A58480  15.953  21.385   6.755
10137POPC   C3A58481  15.983  21.407   7.055
10137POPC   C4A58482  15.961  21.426   7.355
10137POPC   C1B58483  15.772  21.160   6.455
10137POPC   C2B58484  15.795  21.188   6.755
10137POPC   C3B58485  15.749  21.208   7.055
10137POPC   C4B58486  15.755  21.161   7.355
10138POPC   NC358487  34.537  32.201   5.555
10138POPC   PO458488  34.617  32.248   5.855
10138POPC   GL158489  34.552  32.208   6.155
10138POPC   GL258490  34.688  32.129   6.155
10138POPC   C1A58491  34.544  32.202   6.455
10138POPC   D2A58492  34.539  32.240   6.755
10138POPC   C3A58493  34.527  32.237   7.055
10138POPC   C4A58494  34.624  32.245   7.355
10138POPC   C1B58495  34.783  32.073   6.455
10138POPC   C2B58496  34.747  32.069   6.755
10138POPC   C3B58497  34.757  32.078   7.055
10138POPC   C4B58498  34.718  32.067   7.355
10139POPC   NC358499  12.032   7.388   5.555
10139POPC   PO458500  12.113   7.378   5.855
10139POPC   GL158501  12.093   7.407   6.155
10139POPC   GL258502  12.188   7.396   6.155
10139POPC   C1A58503  12.026   7.405   6.455
10139POPC   D2A58504  12.028   7.446   6.755
10139POPC   C3A58505  12.086   7.424   7.055
10139POPC   C4A58506  12.053   7.421   7.355
10139POPC   C1B58507  12.355   7.463   6.455
10139POPC   C2B58508  12.355   7.430   6.755
10139POPC   C3B58509  12.365   7.381   7.055
10139POPC   C4B58510  12.293   7.406   7.355
10140POPC   NC358511  12.122  41.598   5.555
10140POPC   PO458512  12.068  41.577   5.855
10140POPC   GL158513  12.115  41.546   6.155
10140POPC   GL258514  11.950  41.461   6.155
10140POPC   C1A58515  12.033  41.535   6.455
10140POPC   D2A58516  12.118  41.600   6.755
10140POPC   C3A58517  12.070  41.512   7.055
10140POPC   C4A58518  12.094  41.578   7.355
10140POPC   C1B58519  11.891  41.426   6.455
10140POPC   C2B58520  11.834  41.419   6.755
10140POPC   C3B58521  11.919  41.412   7.055
10140POPC   C4B58522  11.825  41.401   7.355
10141POPC   NC358523   9.013  36.890   5.555
10141POPC   PO458524   8.978  36.859   5.855
10141POPC   GL158525   9.011  36.893   6.155
10141POPC   GL258526   8.861  36.811   6.155
10141POPC   C1A58527   8.970  36.932   6.455
10141POPC   D2A58528   9.019  36.933   6.755
10141POPC   C3A58529   8.931  36.908   7.055
10141POPC   C4A58530   8.958  36.916   7.355
10141POPC   C1B58531   8.861  36.725   6.455
10141POPC   C2B58532   8.853  36.723   6.755
10141POPC   C3B58533   8.789  36.724   7.055
10141POPC   C4B58534   8.859  36.720   7.355
10142POPC   NC358535  36.891   8.191   5.555
10142POPC   PO458536  36.949   8.218   5.855
10142POPC   GL158537  36.951   8.212   6.155
10142POPC   GL258538  36.882   8.055   6.155
10142POPC   C1A58539  36.905   8.196   6.455
10142POPC   D2A58540  36.866   8.155   6.755
10142POPC   C3A58541  36.887   8.238   7.055
10142POPC   C4A58542  36.917   8.240   7.355
10142POPC   C1B58543  36.916   7.968   6.455
10142POPC   C2B58544  36.894   7.967   6.755
10142POPC   C3B58545  36.866   7.942   7.055
10142POPC   C4B58546  36.889   7.948   7.355
10143POPC   NC358547  15.923  38.478   5.555
10143POPC   PO458548  15.998  38.471   5.855
10143POPC   GL158549  15.994  38.452   6.155
10143POPC   GL258550  16.007  38.355   6.155
10143POPC   C1A58551  15.961  38.448   6.455
10143POPC   D2A58552  15.919  38.481   6.755
10143POPC   C3A58553  15.942  38.492   7.055
10143POPC   C4A58554  15.963  38.427   7.355
10143POPC   C1B58555  15.951  38.235   6.455
10143POPC   C2B58556  16.007  38.159   6.755
10143POPC   C3B58557  15.915  38.251   7.055
10143POPC   C4B58558  15.935  38.199   7.355
10144POPC   NC358559  20.636  36.937   5.555
10144POPC   PO458560  20.646  36.886   5.855
10144POPC   GL158561  20.627  36.857   6.155
10144POPC   GL258562  20.532  36.932   6.155
10144POPC   C1A58563  20.561  36.908   6.455
10144POPC   D2A58564  20.651  36.873   6.755
10144POPC   C3A58565  20.652  36.858   7.055
10144POPC   C4A58566  20.613  36.867   7.355
10144POPC   C1B58567  20.399  36.889   6.455
10144POPC   C2B58568  20.386  36.908   6.755
10144POPC   C3B58569  20.345  36.902   7.055
10144POPC   C4B58570  20.366  36.896   7.355
10145POPC   NC358571  18.307  43.128   5.555
10145POPC   PO458572  18.298  43.129   5.855
10145POPC   GL158573  18.328  43.075   6.155
10145POPC   GL258574  18.346  42.966   6.155
10145POPC   C1A58575  18.307  43.116   6.455
10145POPC   D2A58576  18.301  43.096   6.755
10145POPC   C3A58577  18.315  43.132   7.055
10145POPC   C4A58578  18.312  43.132   7.355
10145POPC   C1B58579  18.349  42.889   6.455
10145POPC   C2B58580  18.373  42.882   6.755
10145POPC   C3B58581  18.375  42.817   7.055
10145POPC   C4B58582  18.331  42.818   7.355
10146POPC   NC358583  43.084   8.222   5.555
10146POPC   PO458584  43.143   8.166   5.855
10146POPC   GL158585  43.116   8.220   6.155
10146POPC   GL258586  42.942   8.213   6.155
10146POPC   C1A58587  43.133   8.221   6.455
10146POPC   D2A58588  43.111   8.150   6.755
10146POPC   C3A58589  43.105   8.244   7.055
10146POPC   C4A58590  43.115   8.159   7.355
10146POPC   C1B58591  42.910   8.188   6.455
10146POPC   C2B58592  42.871   8.165   6.755
10146POPC   C3B58593  42.880   8.183   7.055
10146POPC   C4B58594  42.899   8.171   7.355
10147POPC   NC358595  19.845  19.045   5.555
10147POPC   PO458596  19.794  19.102   5.855
10147POPC   GL158597  19.821  19.028   6.155
10147POPC   GL258598  19.766  19.215   6.155
10147POPC   C1A58599  19.881  19.020   6.455
10147POPC   D2A58600  19.843  19.054   6.755
10147POPC   C3A58601  19.832  19.062   7.055
10147POPC   C4A58602  19.796  19.032   7.355
10147POPC   C1B58603  19.821  19.299   6.455
10147POPC   C2B58604  19.804  19.300   6.755
10147POPC   C3B58605  19.827  19.345   7.055
10147POPC   C4B58606  19.810  19.273   7.355
10148POPC   NC358607  36.919  36.899   5.555
10148POPC   PO458608  36.925  36.919   5.855
10148POPC   GL158609  36.940  36.889   6.155
10148POPC   GL258610  36.839  36.834   6.155
10148POPC   C1A58611  36.869  36.878   6.455
10148POPC   D2A58612  36.878  36.894   6.755
10148POPC   C3A58613  36.875  36.896   7.055
10148POPC   C4A58614  36.905  36.932   7.355
10148POPC   C1B58615  36.859  36.674   6.455
10148POPC   C2B58616  36.869  36.680   6.755
10148POPC   C3B58617  36.848  36.623   7.055
10148POPC   C4B58618  36.846  36.714   7.355
10149POPC   NC358619  22.907  12.100   5.555
10149POPC   PO458620  22.945  12.064   5.855
10149POPC   GL158621  22.951  12.071   6.155
10149POPC   GL258622  22.943  12.150   6.155
10149POPC   C1A58623  22.950  12.066   6.455
10149POPC   D2A58624  22.911  12.110   6.755
10149POPC   C3A58625  22.985  12.075   7.055
10149POPC   C4A58626  22.923  12.037   7.355
10149POPC   C1B58627  22.830  12.310   6.455
10149POPC   C2B58628  22.918  12.353   6.755
10149POPC   C3B58629  22.906  12.283   7.055
10149POPC   C4B58630  22.859  12.336   7.355
10150POPC   NC358631  40.754  32.983   5.555
10150POPC   PO458632  40.822  33.024   5.855
10150POPC   GL158633  40.822  32.976   6.155
10150POPC   GL258634  40.719  33.138   6.155
10150POPC   C1A58635  40.753  33.059   6.455
10150POPC   D2A58636  40.774  32.998   6.755
10150POPC   C3A58637  40.777  33.053   7.055
10150POPC   C4A58638  40.810  33.032   7.355
10150POPC   C1B58639  40.636  33.265   6.455
10150POPC   C2B58640  40.634  33.188   6.755
10150POPC   C3B58641  40.599  33.201   7.055
10150POPC   C4B58642  40.697  33.245   7.355
10151POPC   NC358643  30.683  21.372   5.555
10151POPC   PO458644  30.676  21.356   5.855
10151POPC   GL158645  30.732  21.431   6.155
10151POPC   GL258646  30.768  21.518   6.155
10151POPC   C1A58647  30.665  21.368   6.455
10151POPC   D2A58648  30.661  21.405   6.755
10151POPC   C3A58649  30.661  21.391   7.055
10151POPC   C4A58650  30.699  21.365   7.355
10151POPC   C1B58651  30.809  21.638   6.455
10151POPC   C2B58652  30.783  21.586   6.755
10151POPC   C3B58653  30.784  21.568   7.055
10151POPC   C4B58654  30.852  21.559   7.355
10152POPC   NC358655  16.730  17.457   5.555
10152POPC   PO458656  16.691  17.489   5.855
10152POPC   GL158657  16.748  17.511   6.155
10152POPC   GL258658  16.846  17.422   6.155
10152POPC   C1A58659  16.714  17.517   6.455
10152POPC   D2A58660  16.711  17.463   6.755
10152POPC   C3A58661  16.699  17.501   7.055
10152POPC   C4A58662  16.697  17.525   7.355
10152POPC   C1B58663  16.862  17.331   6.455
10152POPC   C2B58664  16.907  17.360   6.755
10152POPC   C3B58665  16.903  17.303   7.055
10152POPC   C4B58666  16.942  17.306   7.355
10153POPC   NC358667  10.553  42.367   5.555
10153POPC   PO458668  10.489  42.288   5.855
10153POPC   GL158669  10.543  42.384   6.155
10153POPC   GL258670  10.620  42.270   6.155
10153POPC   C1A58671  10.522  42.323   6.455
10153POPC   D2A58672  10.488  42.358   6.755
10153POPC   C3A58673  10.548  42.304   7.055
10153POPC   C4A58674  10.573  42.316   7.355
10153POPC   C1B58675  10.691  42.121   6.455
10153POPC   C2B58676  10.621  42.152   6.755
10153POPC   C3B58677  10.680  42.105   7.055
10153POPC   C4B58678  10.660  42.105   7.355
10154POPC   NC358679  28.337   1.256   5.555
10154POPC   PO458680  28.417   1.173   5.855
10154POPC   GL158681  28.412   1.253   6.155
10154POPC   GL258682  28.277   1.289   6.155
10154POPC   C1A58683  28.404   1.231   6.455
10154POPC   D2A58684  28.344   1.245   6.755
10154POPC   C3A58685  28.413   1.206   7.055
10154POPC   C4A58686  28.380   1.243   7.355
10154POPC   C1B58687  28.237   1.399   6.455
10154POPC   C2B58688  28.214   1.424   6.755
10154POPC   C3B58689  28.201   1.474   7.055
10154POPC   C4B58690  28.280   1.422   7.355
10155POPC   NC358691  43.111   9.750   5.555
10155POPC   PO458692  43.068   9.759   5.855
10155POPC   GL158693  43.092   9.757   6.155
10155POPC   GL258694  43.032   9.598   6.155
10155POPC   C1A58695  43.068   9.796   6.455
10155POPC   D2A58696  43.150   9.736   6.755
10155POPC   C3A58697  43.136   9.731   7.055
10155POPC   C4A58698  43.074   9.792   7.355
10155POPC   C1B58699  42.973   9.542   6.455
10155POPC   C2B58700  42.976   9.483   6.755
10155POPC   C3B58701  42.999   9.536   7.055
10155POPC   C4B58702  42.967   9.482   7.355
10156POPC   NC358703  39.232  33.758   5.555
10156POPC   PO458704  39.189  33.771   5.855
10156POPC   GL158705  39.191  33.764   6.155
10156POPC   GL258706  39.165  33.719   6.155
10156POPC   C1A58707  39.205  33.765   6.455
10156POPC   D2A58708  39.265  33.815   6.755
10156POPC   C3A58709  39.208  33.828   7.055
10156POPC   C4A58710  39.186  33.755   7.355
10156POPC   C1B58711  39.030  33.723   6.455
10156POPC   C2B58712  39.030  33.658   6.755
10156POPC   C3B58713  39.001  33.662   7.055
10156POPC   C4B58714  38.984  33.745   7.355
10157POPC   NC358715   5.881  38.440   5.555
10157POPC   PO458716   5.840  38.505   5.855
10157POPC   GL158717   5.899  38.417   6.155
10157POPC   GL258718   6.025  38.504   6.155
10157POPC   C1A58719   5.824  38.428   6.455
10157POPC   D2A58720   5.895  38.484   6.755
10157POPC   C3A58721   5.911  38.470   7.055
10157POPC   C4A58722   5.867  38.436   7.355
10157POPC   C1B58723   6.142  38.522   6.455
10157POPC   C2B58724   6.127  38.533   6.755
10157POPC   C3B58725   6.131  38.541   7.055
10157POPC   C4B58726   6.157  38.512   7.355
10158POPC   NC358727  20.591  15.955   5.555
10158POPC   PO458728  20.640  15.930   5.855
10158POPC   GL158729  20.586  15.994   6.155
10158POPC   GL258730  20.451  16.007   6.155
10158POPC   C1A58731  20.595  15.991   6.455
10158POPC   D2A58732  20.649  15.943   6.755
10158POPC   C3A58733  20.569  16.001   7.055
10158POPC   C4A58734  20.566  15.918   7.355
10158POPC   C1B58735  20.408  16.078   6.455
10158POPC   C2B58736  20.393  16.029   6.755
10158POPC   C3B58737  20.361  16.028   7.055
10158POPC   C4B58738  20.424  16.090   7.355
10159POPC   NC358739  37.634  41.531   5.555
10159POPC   PO458740  37.652  41.601   5.855
10159POPC   GL158741  37.656  41.591   6.155
10159POPC   GL258742  37.607  41.418   6.155
10159POPC   C1A58743  37.696  41.513   6.455
10159POPC   D2A58744  37.706  41.580   6.755
10159POPC   C3A58745  37.657  41.607   7.055
10159POPC   C4A58746  37.701  41.517   7.355
10159POPC   C1B58747  37.653  41.354   6.455
10159POPC   C2B58748  37.584  41.272   6.755
10159POPC   C3B58749  37.563  41.365   7.055
10159POPC   C4B58750  37.594  41.335   7.355
10160POPC   NC358751   4.343  33.799   5.555
10160POPC   PO458752   4.322  33.818   5.855
10160POPC   GL158753   4.354  33.838   6.155
10160POPC   GL258754   4.189  33.751   6.155
10160POPC   C1A58755   4.267  33.769   6.455
10160POPC   D2A58756   4.349  33.779   6.755
10160POPC   C3A58757   4.357  33.814   7.055
10160POPC   C4A58758   4.312  33.786   7.355
10160POPC   C1B58759   4.098  33.664   6.455
10160POPC   C2B58760   4.063  33.681   6.755
10160POPC   C3B58761   4.081  33.739   7.055
10160POPC   C4B58762   4.114  33.659   7.355
10161POPC   NC358763  37.633  44.674   5.555
10161POPC   PO458764  37.636  44.643   5.855
10161POPC   GL158765  37.710  44.653   6.155
10161POPC   GL258766  37.760  44.751   6.155
10161POPC   C1A58767  37.678  44.665   6.455
10161POPC   D2A58768  37.706  44.685   6.755
10161POPC   C3A58769  37.641  44.698   7.055
10161POPC   C4A58770  37.675  44.627   7.355
10161POPC   C1B58771  37.889  44.836   6.455
10161POPC   C2B58772  37.842  44.819   6.755
10161POPC   C3B58773  37.881  44.768   7.055
10161POPC   C4B58774  37.927  44.802   7.355
10162POPC   NC358775   5.053  12.113   5.555
10162POPC   PO458776   5.086  12.073   5.855
10162POPC   GL158777   5.075  12.103   6.155
10162POPC   GL258778   4.930  12.092   6.155
10162POPC   C1A58779   5.045  12.077   6.455
10162POPC   D2A58780   5.113  12.063   6.755
10162POPC   C3A58781   5.097  12.072   7.055
10162POPC   C4A58782   5.089  12.080   7.355
10162POPC   C1B58783   4.889  12.169   6.455
10162POPC   C2B58784   4.873  12.151   6.755
10162POPC   C3B58785   4.850  12.117   7.055
10162POPC   C4B58786   4.896  12.102   7.355
10163POPC   NC358787  23.690  19.827   5.555
10163POPC   PO458788  23.676  19.835   5.855
10163POPC   GL158789  23.758  19.789   6.155
10163POPC   GL258790  23.829  19.764   6.155
10163POPC   C1A58791  23.749  19.796   6.455
10163POPC   D2A58792  23.722  19.795   6.755
10163POPC   C3A58793  23.665  19.859   7.055
10163POPC   C4A58794  23.746  19.818   7.355
10163POPC   C1B58795  23.835  19.654   6.455
10163POPC   C2B58796  23.899  19.604   6.755
10163POPC   C3B58797  23.868  19.589   7.055
10163POPC   C4B58798  23.886  19.618   7.355
10164POPC   NC358799  21.413  10.514   5.555
10164POPC   PO458800  21.370  10.478   5.855
10164POPC   GL158801  21.435  10.478   6.155
10164POPC   GL258802  21.461  10.618   6.155
10164POPC   C1A58803  21.401  10.502   6.455
10164POPC   D2A58804  21.371  10.541   6.755
10164POPC   C3A58805  21.375  10.479   7.055
10164POPC   C4A58806  21.365  10.548   7.355
10164POPC   C1B58807  21.601  10.633   6.455
10164POPC   C2B58808  21.666  10.627   6.755
10164POPC   C3B58809  21.585  10.630   7.055
10164POPC   C4B58810  21.594  10.613   7.355
10165POPC   NC358811  10.565   3.494   5.555
10165POPC   PO458812  10.508   3.492   5.855
10165POPC   GL158813  10.539   3.541   6.155
10165POPC   GL258814  10.605   3.489   6.155
10165POPC   C1A58815  10.520   3.522   6.455
10165POPC   D2A58816  10.479   3.574   6.755
10165POPC   C3A58817  10.564   3.562   7.055
10165POPC   C4A58818  10.564   3.549   7.355
10165POPC   C1B58819  10.715   3.408   6.455
10165POPC   C2B58820  10.705   3.349   6.755
10165POPC   C3B58821  10.747   3.389   7.055
10165POPC   C4B58822  10.715   3.390   7.355
10166POPC   NC358823  36.154  29.171   5.555
10166POPC   PO458824  36.134  29.097   5.855
10166POPC   GL158825  36.127  29.163   6.155
10166POPC   GL258826  36.231  29.233   6.155
10166POPC   C1A58827  36.105  29.115   6.455
10166POPC   D2A58828  36.112  29.193   6.755
10166POPC   C3A58829  36.148  29.138   7.055
10166POPC   C4A58830  36.144  29.157   7.355
10166POPC   C1B58831  36.283  29.320   6.455
10166POPC   C2B58832  36.260  29.350   6.755
10166POPC   C3B58833  36.254  29.339   7.055
10166POPC   C4B58834  36.284  29.345   7.355
10167POPC   NC358835  27.572   2.759   5.555
10167POPC   PO458836  27.558   2.740   5.855
10167POPC   GL158837  27.548   2.763   6.155
10167POPC   GL258838  27.677   2.848   6.155
10167POPC   C1A58839  27.612   2.761   6.455
10167POPC   D2A58840  27.604   2.754   6.755
10167POPC   C3A58841  27.629   2.736   7.055
10167POPC   C4A58842  27.579   2.745   7.355
10167POPC   C1B58843  27.803   2.914   6.455
10167POPC   C2B58844  27.781   2.932   6.755
10167POPC   C3B58845  27.806   2.942   7.055
10167POPC   C4B58846  27.751   2.925   7.355
10168POPC   NC358847  37.667   1.950   5.555
10168POPC   PO458848  37.729   2.018   5.855
10168POPC   GL158849  37.695   1.962   6.155
10168POPC   GL258850  37.661   2.132   6.155
10168POPC   C1A58851  37.720   2.013   6.455
10168POPC   D2A58852  37.697   1.961   6.755
10168POPC   C3A58853  37.646   2.037   7.055
10168POPC   C4A58854  37.674   1.997   7.355
10168POPC   C1B58855  37.759   2.207   6.455
10168POPC   C2B58856  37.754   2.248   6.755
10168POPC   C3B58857  37.718   2.251   7.055
10168POPC   C4B58858  37.756   2.246   7.355
10169POPC   NC358859  10.504  38.407   5.555
10169POPC   PO458860  10.488  38.468   5.855
10169POPC   GL158861  10.493  38.421   6.155
10169POPC   GL258862  10.445  38.386   6.155
10169POPC   C1A58863  10.495  38.475   6.455
10169POPC   D2A58864  10.526  38.484   6.755
10169POPC   C3A58865  10.477  38.467   7.055
10169POPC   C4A58866  10.565  38.435   7.355
10169POPC   C1B58867  10.290  38.288   6.455
10169POPC   C2B58868  10.285  38.375   6.755
10169POPC   C3B58869  10.351  38.370   7.055
10169POPC   C4B58870  10.293  38.285   7.355
10170POPC   NC358871  23.732  22.896   5.555
10170POPC   PO458872  23.713  22.960   5.855
10170POPC   GL158873  23.702  22.901   6.155
10170POPC   GL258874  23.570  22.910   6.155
10170POPC   C1A58875  23.674  22.904   6.455
10170POPC   D2A58876  23.666  22.983   6.755
10170POPC   C3A58877  23.716  22.911   7.055
10170POPC   C4A58878  23.729  22.939   7.355
10170POPC   C1B58879  23.430  22.853   6.455
10170POPC   C2B58880  23.461  22.825   6.755
10170POPC   C3B58881  23.514  22.842   7.055
10170POPC   C4B58882  23.465  22.863   7.355
10171POPC   NC358883   9.761  40.007   5.555
10171POPC   PO458884   9.726  40.019   5.855
10171POPC   GL158885   9.764  40.045   6.155
10171POPC   GL258886   9.856  39.947   6.155
10171POPC   C1A58887   9.700  39.993   6.455
10171POPC   D2A58888   9.710  40.043   6.755
10171POPC   C3A58889   9.772  39.993   7.055
10171POPC   C4A58890   9.777  40.048   7.355
10171POPC   C1B58891   9.907  39.816   6.455
10171POPC   C2B58892   9.942  39.778   6.755
10171POPC   C3B58893   9.854  39.774   7.055
10171POPC   C4B58894   9.864  39.815   7.355
10172POPC   NC358895  24.475  17.534   5.555
10172POPC   PO458896  24.503  17.545   5.855
10172POPC   GL158897  24.519  17.477   6.155
10172POPC   GL258898  24.604  17.446   6.155
10172POPC   C1A58899  24.483  17.474   6.455
10172POPC   D2A58900  24.485  17.541   6.755
10172POPC   C3A58901  24.519  17.483   7.055
10172POPC   C4A58902  24.449  17.517   7.355
10172POPC   C1B58903  24.681  17.370   6.455
10172POPC   C2B58904  24.698  17.278   6.755
10172POPC   C3B58905  24.658  17.277   7.055
10172POPC   C4B58906  24.657  17.289   7.355
10173POPC   NC358907  20.606  28.384   5.555
10173POPC   PO458908  20.644  28.371   5.855
10173POPC   GL158909  20.659  28.382   6.155
10173POPC   GL258910  20.468  28.405   6.155
10173POPC   C1A58911  20.636  28.341   6.455
10173POPC   D2A58912  20.566  28.395   6.755
10173POPC   C3A58913  20.633  28.351   7.055
10173POPC   C4A58914  20.647  28.395   7.355
10173POPC   C1B58915  20.382  28.347   6.455
10173POPC   C2B58916  20.356  28.326   6.755
10173POPC   C3B58917  20.382  28.338   7.055
10173POPC   C4B58918  20.357  28.309   7.355
10174POPC   NC358919  20.589  30.684   5.555
10174POPC   PO458920  20.654  30.697   5.855
10174POPC   GL158921  20.594  30.743   6.155
10174POPC   GL258922  20.720  30.675   6.155
10174POPC   C1A58923  20.578  30.656   6.455
10174POPC   D2A58924  20.630  30.667   6.755
10174POPC   C3A58925  20.563  30.699   7.055
10174POPC   C4A58926  20.644  30.701   7.355
10174POPC   C1B58927  20.787  30.562   6.455
10174POPC   C2B58928  20.871  30.631   6.755
10174POPC   C3B58929  20.850  30.535   7.055
10174POPC   C4B58930  20.875  30.625   7.355
10175POPC   NC358931  41.523  29.105   5.555
10175POPC   PO458932  41.592  29.190   5.855
10175POPC   GL158933  41.566  29.181   6.155
10175POPC   GL258934  41.603  29.028   6.155
10175POPC   C1A58935  41.561  29.169   6.455
10175POPC   D2A58936  41.565  29.184   6.755
10175POPC   C3A58937  41.582  29.193   7.055
10175POPC   C4A58938  41.551  29.132   7.355
10175POPC   C1B58939  41.717  28.904   6.455
10175POPC   C2B58940  41.699  28.889   6.755
10175POPC   C3B58941  41.706  28.950   7.055
10175POPC   C4B58942  41.669  28.888   7.355
10176POPC   NC358943  15.171  23.718   5.555
10176POPC   PO458944  15.221  23.750   5.855
10176POPC   GL158945  15.183  23.759   6.155
10176POPC   GL258946  15.243  23.620   6.155
10176POPC   C1A58947  15.165  23.719   6.455
10176POPC   D2A58948  15.141  23.751   6.755
10176POPC   C3A58949  15.155  23.695   7.055
10176POPC   C4A58950  15.162  23.689   7.355
10176POPC   C1B58951  15.312  23.470   6.455
10176POPC   C2B58952  15.309  23.455   6.755
10176POPC   C3B58953  15.264  23.501   7.055
10176POPC   C4B58954  15.229  23.469   7.355
10177POPC   NC358955   9.709  18.320   5.555
10177POPC   PO458956   9.780  18.255   5.855
10177POPC   GL158957   9.702  18.267   6.155
10177POPC   GL258958   9.696  18.137   6.155
10177POPC   C1A58959   9.739  18.316   6.455
10177POPC   D2A58960   9.765  18.256   6.755
10177POPC   C3A58961   9.759  18.317   7.055
10177POPC   C4A58962   9.747  18.288   7.355
10177POPC   C1B58963   9.624  18.132   6.455
10177POPC   C2B58964   9.549  18.045   6.755
10177POPC   C3B58965   9.642  18.134   7.055
10177POPC   C4B58966   9.576  18.067   7.355
10178POPC   NC358967  21.344  15.979   5.555
10178POPC   PO458968  21.346  15.947   5.855
10178POPC   GL158969  21.424  15.983   6.155
10178POPC   GL258970  21.527  15.973   6.155
10178POPC   C1A58971  21.367  15.933   6.455
10178POPC   D2A58972  21.411  15.923   6.755
10178POPC   C3A58973  21.385  15.952   7.055
10178POPC   C4A58974  21.407  15.971   7.355
10178POPC   C1B58975  21.612  15.903   6.455
10178POPC   C2B58976  21.668  15.928   6.755
10178POPC   C3B58977  21.639  15.946   7.055
10178POPC   C4B58978  21.614  15.982   7.355
10179POPC   NC358979  25.313  19.862   5.555
10179POPC   PO458980  25.302  19.817   5.855
10179POPC   GL158981  25.284  19.811   6.155
10179POPC   GL258982  25.253  19.689   6.155
10179POPC   C1A58983  25.270  19.847   6.455
10179POPC   D2A58984  25.260  19.797   6.755
10179POPC   C3A58985  25.265  19.877   7.055
10179POPC   C4A58986  25.274  19.875   7.355
10179POPC   C1B58987  25.206  19.582   6.455
10179POPC   C2B58988  25.194  19.619   6.755
10179POPC   C3B58989  25.175  19.577   7.055
10179POPC   C4B58990  25.223  19.596   7.355
10180POPC   NC358991   9.790  39.203   5.555
10180POPC   PO458992   9.759  39.247   5.855
10180POPC   GL158993   9.748  39.212   6.155
10180POPC   GL258994   9.826  39.311   6.155
10180POPC   C1A58995   9.720  39.185   6.455
10180POPC   D2A58996   9.746  39.279   6.755
10180POPC   C3A58997   9.784  39.239   7.055
10180POPC   C4A58998   9.751  39.192   7.355
10180POPC   C1B58999   9.935  39.327   6.455
10180POPC   C2B59000   9.982  39.302   6.755
10180POPC   C3B59001   9.927  39.306   7.055
10180POPC   C4B59002  10.017  39.310   7.355
10181POPC   NC359003  31.484   8.974   5.555
10181POPC   PO459004  31.462   8.943   5.855
10181POPC   GL159005  31.476   8.957   6.155
10181POPC   GL259006  31.371   8.946   6.155
10181POPC   C1A59007  31.495   9.002   6.455
10181POPC   D2A59008  31.446   8.966   6.755
10181POPC   C3A59009  31.452   8.952   7.055
10181POPC   C4A59010  31.489   8.976   7.355
10181POPC   C1B59011  31.249   8.819   6.455
10181POPC   C2B59012  31.298   8.820   6.755
10181POPC   C3B59013  31.218   8.822   7.055
10181POPC   C4B59014  31.216   8.879   7.355
10182POPC   NC359015  34.615  19.785   5.555
10182POPC   PO459016  34.532  19.861   5.855
10182POPC   GL159017  34.620  19.824   6.155
10182POPC   GL259018  34.733  19.876   6.155
10182POPC   C1A59019  34.536  19.827   6.455
10182POPC   D2A59020  34.540  19.829   6.755
10182POPC   C3A59021  34.537  19.852   7.055
10182POPC   C4A59022  34.599  19.815   7.355
10182POPC   C1B59023  34.799  19.829   6.455
10182POPC   C2B59024  34.794  19.868   6.755
10182POPC   C3B59025  34.861  19.883   7.055
10182POPC   C4B59026  34.787  19.903   7.355
10183POPC   NC359027  16.001  22.130   5.555
10183POPC   PO459028  15.946  22.191   5.855
10183POPC   GL159029  15.961  22.163   6.155
10183POPC   GL259030  16.040  22.215   6.155
10183POPC   C1A59031  15.958  22.152   6.455
10183POPC   D2A59032  15.988  22.150   6.755
10183POPC   C3A59033  15.946  22.204   7.055
10183POPC   C4A59034  15.916  22.204   7.355
10183POPC   C1B59035  16.193  22.202   6.455
10183POPC   C2B59036  16.232  22.187   6.755
10183POPC   C3B59037  16.212  22.183   7.055
10183POPC   C4B59038  16.153  22.183   7.355
10184POPC   NC359039  42.359  33.054   5.555
10184POPC   PO459040  42.374  33.006   5.855
10184POPC   GL159041  42.367  33.010   6.155
10184POPC   GL259042  42.213  32.949   6.155
10184POPC   C1A59043  42.307  32.991   6.455
10184POPC   D2A59044  42.379  33.070   6.755
10184POPC   C3A59045  42.308  33.058   7.055
10184POPC   C4A59046  42.331  33.072   7.355
10184POPC   C1B59047  42.159  32.883   6.455
10184POPC   C2B59048  42.184  32.822   6.755
10184POPC   C3B59049  42.136  32.833   7.055
10184POPC   C4B59050  42.156  32.882   7.355
10185POPC   NC359051  38.418   0.459   5.555
10185POPC   PO459052  38.456   0.428   5.855
10185POPC   GL159053  38.409   0.404   6.155
10185POPC   GL259054  38.559   0.591   6.155
10185POPC   C1A59055  38.458   0.467   6.455
10185POPC   D2A59056  38.479   0.391   6.755
10185POPC   C3A59057  38.492   0.487   7.055
10185POPC   C4A59058  38.499   0.464   7.355
10185POPC   C1B59059  38.622   0.684   6.455
10185POPC   C2B59060  38.544   0.615   6.755
10185POPC   C3B59061  38.593   0.662   7.055
10185POPC   C4B59062  38.612   0.658   7.355
10186POPC   NC359063   0.431  31.496   5.555
10186POPC   PO459064   0.453  31.473   5.855
10186POPC   GL159065   0.414  31.470   6.155
10186POPC   GL259066   0.350  31.544   6.155
10186POPC   C1A59067   0.453  31.432   6.455
10186POPC   D2A59068   0.430  31.515   6.755
10186POPC   C3A59069   0.482  31.438   7.055
10186POPC   C4A59070   0.488  31.443   7.355
10186POPC   C1B59071   0.355  31.685   6.455
10186POPC   C2B59072   0.293  31.704   6.755
10186POPC   C3B59073   0.292  31.726   7.055
10186POPC   C4B59074   0.333  31.738   7.355
10187POPC   NC359075  34.552  29.145   5.555
10187POPC   PO459076  34.535  29.140   5.855
10187POPC   GL159077  34.607  29.153   6.155
10187POPC   GL259078  34.618  29.257   6.155
10187POPC   C1A59079  34.595  29.099   6.455
10187POPC   D2A59080  34.547  29.128   6.755
10187POPC   C3A59081  34.557  29.172   7.055
10187POPC   C4A59082  34.551  29.168   7.355
10187POPC   C1B59083  34.676  29.383   6.455
10187POPC   C2B59084  34.681  29.419   6.755
10187POPC   C3B59085  34.646  29.381   7.055
10187POPC   C4B59086  34.687  29.355   7.355
10188POPC   NC359087  33.760  17.526   5.555
10188POPC   PO459088  33.820  17.468   5.855
10188POPC   GL159089  33.762  17.512   6.155
10188POPC   GL259090  33.752  17.437   6.155
10188POPC   C1A59091  33.783  17.537   6.455
10188POPC   D2A59092  33.821  17.500   6.755
10188POPC   C3A59093  33.807  17.497   7.055
10188POPC   C4A59094  33.827  17.530   7.355
10188POPC   C1B59095  33.710  17.280   6.455
10188POPC   C2B59096  33.695  17.301   6.755
10188POPC   C3B59097  33.755  17.271   7.055
10188POPC   C4B59098  33.726  17.293   7.355
10189POPC   NC359099   6.660  28.369   5.555
10189POPC   PO459100   6.656  28.320   5.855
10189POPC   GL159101   6.680  28.414   6.155
10189POPC   GL259102   6.727  28.450   6.155
10189POPC   C1A59103   6.603  28.409   6.455
10189POPC   D2A59104   6.605  28.344   6.755
10189POPC   C3A59105   6.665  28.388   7.055
10189POPC   C4A59106   6.686  28.354   7.355
10189POPC   C1B59107   6.770  28.503   6.455
10189POPC   C2B59108   6.837  28.562   6.755
10189POPC   C3B59109   6.802  28.561   7.055
10189POPC   C4B59110   6.838  28.555   7.355
10190POPC   NC359111  41.540  44.620   5.555
10190POPC   PO459112  41.556  44.635   5.855
10190POPC   GL159113  41.524  44.668   6.155
10190POPC   GL259114  41.572  44.814   6.155
10190POPC   C1A59115  41.548  44.700   6.455
10190POPC   D2A59116  41.603  44.701   6.755
10190POPC   C3A59117  41.547  44.682   7.055
10190POPC   C4A59118  41.602  44.622   7.355
10190POPC   C1B59119  41.534  44.905   6.455
10190POPC   C2B59120  41.578  44.894   6.755
10190POPC   C3B59121  41.603  44.957   7.055
10190POPC   C4B59122  41.591  44.882   7.355
10191POPC   NC359123  19.807  26.808   5.555
10191POPC   PO459124  19.799  26.840   5.855
10191POPC   GL159125  19.853  26.772   6.155
10191POPC   GL259126  19.684  26.780   6.155
10191POPC   C1A59127  19.826  26.793   6.455
10191POPC   D2A59128  19.806  26.839   6.755
10191POPC   C3A59129  19.801  26.816   7.055
10191POPC   C4A59130  19.809  26.808   7.355
10191POPC   C1B59131  19.593  26.763   6.455
10191POPC   C2B59132  19.559  26.774   6.755
10191POPC   C3B59133  19.622  26.726   7.055
10191POPC   C4B59134  19.609  26.701   7.355
10192POPC   NC359135  21.430   9.700   5.555
10192POPC   PO459136  21.412   9.725   5.855
10192POPC   GL159137  21.401   9.723   6.155
10192POPC   GL259138  21.235   9.664   6.155
10192POPC   C1A59139  21.404   9.702   6.455
10192POPC   D2A59140  21.390   9.791   6.755
10192POPC   C3A59141  21.349   9.791   7.055
10192POPC   C4A59142  21.417   9.746   7.355
10192POPC   C1B59143  21.114   9.614   6.455
10192POPC   C2B59144  21.187   9.709   6.755
10192POPC   C3B59145  21.182   9.610   7.055
10192POPC   C4B59146  21.174   9.677   7.355
10193POPC   NC359147  36.927  43.931   5.555
10193POPC   PO459148  36.946  43.853   5.855
10193POPC   GL159149  36.903  43.890   6.155
10193POPC   GL259150  36.970  44.035   6.155
10193POPC   C1A59151  36.916  43.843   6.455
10193POPC   D2A59152  36.953  43.927   6.755
10193POPC   C3A59153  36.945  43.846   7.055
10193POPC   C4A59154  36.907  43.839   7.355
10193POPC   C1B59155  36.950  44.125   6.455
10193POPC   C2B59156  36.964  44.168   6.755
10193POPC   C3B59157  36.973  44.099   7.055
10193POPC   C4B59158  36.967  44.102   7.355
10194POPC   NC359159  33.836  29.957   5.555
10194POPC   PO459160  33.834  29.934   5.855
10194POPC   GL159161  33.836  29.925   6.155
10194POPC   GL259162  33.790  29.806   6.155
10194POPC   C1A59163  33.795  29.963   6.455
10194POPC   D2A59164  33.754  29.892   6.755
10194POPC   C3A59165  33.762  29.909   7.055
10194POPC   C4A59166  33.821  29.928   7.355
10194POPC   C1B59167  33.687  29.651   6.455
10194POPC   C2B59168  33.686  29.721   6.755
10194POPC   C3B59169  33.681  29.732   7.055
10194POPC   C4B59170  33.713  29.652   7.355
10195POPC   NC359171  10.493  22.142   5.555
10195POPC   PO459172  10.565  22.151   5.855
10195POPC   GL159173  10.561  22.197   6.155
10195POPC   GL259174  10.535  22.011   6.155
10195POPC   C1A59175  10.478  22.145   6.455
10195POPC   D2A59176  10.475  22.206   6.755
10195POPC   C3A59177  10.535  22.156   7.055
10195POPC   C4A59178  10.533  22.163   7.355
10195POPC   C1B59179  10.471  21.928   6.455
10195POPC   C2B59180  10.485  21.957   6.755
10195POPC   C3B59181  10.497  21.927   7.055
10195POPC   C4B59182  10.512  21.948   7.355
10196POPC   NC359183  16.695  41.510   5.555
10196POPC   PO459184  16.732  41.521   5.855
10196POPC   GL159185  16.772  41.537   6.155
10196POPC   GL259186  16.783  41.715   6.155
10196POPC   C1A59187  16.743  41.579   6.455
10196POPC   D2A59188  16.725  41.574   6.755
10196POPC   C3A59189  16.702  41.558   7.055
10196POPC   C4A59190  16.772  41.514   7.355
10196POPC   C1B59191  16.815  41.746   6.455
10196POPC   C2B59192  16.812  41.759   6.755
10196POPC   C3B59193  16.848  41.795   7.055
10196POPC   C4B59194  16.858  41.804   7.355
10197POPC   NC359195  43.096   8.975   5.555
10197POPC   PO459196  43.106   8.982   5.855
10197POPC   GL159197  43.151   8.981   6.155
10197POPC   GL259198  43.195   8.911   6.155
10197POPC   C1A59199  43.071   8.959   6.455
10197POPC   D2A59200  43.141   9.009   6.755
10197POPC   C3A59201  43.123   8.968   7.055
10197POPC   C4A59202  43.087   8.947   7.355
10197POPC   C1B59203  43.334   8.907   6.455
10197POPC   C2B59204  43.312   8.889   6.755
10197POPC   C3B59205  43.382   8.936   7.055
10197POPC   C4B59206  43.314   8.962   7.355
10198POPC   NC359207  22.909   8.944   5.555
10198POPC   PO459208  22.927   9.020   5.855
10198POPC   GL159209  22.945   8.942   6.155
10198POPC   GL259210  23.075   9.026   6.155
10198POPC   C1A59211  22.982   8.980   6.455
10198POPC   D2A59212  22.889   8.944   6.755
10198POPC   C3A59213  22.978   8.925   7.055
10198POPC   C4A59214  22.948   9.008   7.355
10198POPC   C1B59215  23.137   8.964   6.455
10198POPC   C2B59216  23.183   9.009   6.755
10198POPC   C3B59217  23.176   8.962   7.055
10198POPC   C4B59218  23.175   9.028   7.355
10199POPC   NC359219  32.220  10.516   5.555
10199POPC   PO459220  32.239  10.526   5.855
10199POPC   GL159221  32.226  10.489   6.155
10199POPC   GL259222  32.373  10.434   6.155
10199POPC   C1A59223  32.213  10.506   6.455
10199POPC   D2A59224  32.260  10.502   6.755
10199POPC   C3A59225  32.288  10.491   7.055
10199POPC   C4A59226  32.237  10.541   7.355
10199POPC   C1B59227  32.411  10.336   6.455
10199POPC   C2B59228  32.404  10.372   6.755
10199POPC   C3B59229  32.458  10.378   7.055
10199POPC   C4B59230  32.397  10.385   7.355
10200POPC   NC359231  22.953  17.477   5.555
10200POPC   PO459232  22.959  17.521   5.855
10200POPC   GL159233  22.948  17.533   6.155
10200POPC   GL259234  23.066  17.483   6.155
10200POPC   C1A59235  22.939  17.499   6.455
10200POPC   D2A59236  22.954  17.522   6.755
10200POPC   C3A59237  22.916  17.522   7.055
10200POPC   C4A59238  22.985  17.518   7.355
10200POPC   C1B59239  23.182  17.473   6.455
10200POPC   C2B59240  23.174  17.457   6.755
10200POPC   C3B59241  23.147  17.500   7.055
10200POPC   C4B59242  23.202  17.491   7.355
10201POPC   NC359243  43.931  31.511   5.555
10201POPC   PO459244  43.928  31.451   5.855
10201POPC   GL159245  43.853  31.432   6.155
10201POPC   GL259246  43.799  31.431   6.155
10201POPC   C1A59247  43.864  31.446   6.455
10201POPC   D2A59248  43.851  31.423   6.755
10201POPC   C3A59249  43.924  31.516   7.055
10201POPC   C4A59250  43.846  31.478   7.355
10201POPC   C1B59251  43.665  31.320   6.455
10201POPC   C2B59252  43.683  31.363   6.755
10201POPC   C3B59253  43.636  31.307   7.055
10201POPC   C4B59254  43.713  31.297   7.355
10202POPC   NC359255  21.436  26.866   5.555
10202POPC   PO459256  21.353  26.806   5.855
10202POPC   GL159257  21.349  26.828   6.155
10202POPC   GL259258  21.460  26.929   6.155
10202POPC   C1A59259  21.337  26.779   6.455
10202POPC   D2A59260  21.415  26.861   6.755
10202POPC   C3A59261  21.384  26.859   7.055
10202POPC   C4A59262  21.344  26.782   7.355
10202POPC   C1B59263  21.549  26.918   6.455
10202POPC   C2B59264  21.555  26.972   6.755
10202POPC   C3B59265  21.597  27.001   7.055
10202POPC   C4B59266  21.558  26.965   7.355
10203POPC   NC359267  37.705  11.328   5.555
10203POPC   PO459268  37.692  11.262   5.855
10203POPC   GL159269  37.710  11.341   6.155
10203POPC   GL259270  37.789  11.205   6.155
10203POPC   C1A59271  37.684  11.334   6.455
10203POPC   D2A59272  37.660  11.264   6.755
10203POPC   C3A59273  37.719  11.268   7.055
10203POPC   C4A59274  37.655  11.299   7.355
10203POPC   C1B59275  37.891  11.142   6.455
10203POPC   C2B59276  37.859  11.146   6.755
10203POPC   C3B59277  37.950  11.199   7.055
10203POPC   C4B59278  37.871  11.178   7.355
10204POPC   NC359279  38.483  42.328   5.555
10204POPC   PO459280  38.473  42.311   5.855
10204POPC   GL159281  38.439  42.317   6.155
10204POPC   GL259282  38.370  42.390   6.155
10204POPC   C1A59283  38.459  42.336   6.455
10204POPC   D2A59284  38.408  42.301   6.755
10204POPC   C3A59285  38.423  42.356   7.055
10204POPC   C4A59286  38.424  42.354   7.355
10204POPC   C1B59287  38.253  42.468   6.455
10204POPC   C2B59288  38.186  42.413   6.755
10204POPC   C3B59289  38.178  42.431   7.055
10204POPC   C4B59290  38.228  42.428   7.355
10205POPC   NC359291  26.057  36.882   5.555
10205POPC   PO459292  26.032  36.886   5.855
10205POPC   GL159293  26.015  36.865   6.155
10205POPC   GL259294  25.958  36.986   6.155
10205POPC   C1A59295  25.996  36.905   6.455
10205POPC   D2A59296  26.019  36.909   6.755
10205POPC   C3A59297  26.087  36.888   7.055
10205POPC   C4A59298  26.045  36.915   7.355
10205POPC   C1B59299  25.996  37.091   6.455
10205POPC   C2B59300  25.957  37.100   6.755
10205POPC   C3B59301  25.946  37.166   7.055
10205POPC   C4B59302  26.000  37.124   7.355
10206POPC   NC359303   5.126  27.594   5.555
10206POPC   PO459304   5.105  27.549   5.855
10206POPC   GL159305   5.074  27.600   6.155
10206POPC   GL259306   5.185  27.684   6.155
10206POPC   C1A59307   5.085  27.558   6.455
10206POPC   D2A59308   5.051  27.620   6.755
10206POPC   C3A59309   5.052  27.547   7.055
10206POPC   C4A59310   5.126  27.562   7.355
10206POPC   C1B59311   5.232  27.782   6.455
10206POPC   C2B59312   5.288  27.746   6.755
10206POPC   C3B59313   5.283  27.814   7.055
10206POPC   C4B59314   5.269  27.749   7.355
10207POPC   NC359315  34.552  43.911   5.555
10207POPC   PO459316  34.562  43.895   5.855
10207POPC   GL159317  34.585  43.887   6.155
10207POPC   GL259318  34.730  43.886   6.155
10207POPC   C1A59319  34.583  43.843   6.455
10207POPC   D2A59320  34.575  43.926   6.755
10207POPC   C3A59321  34.584  43.916   7.055
10207POPC   C4A59322  34.601  43.897   7.355
10207POPC   C1B59323  34.798  43.826   6.455
10207POPC   C2B59324  34.771  43.839   6.755
10207POPC   C3B59325  34.792  43.833   7.055
10207POPC   C4B59326  34.860  43.799   7.355
10208POPC   NC359327  15.156  42.359   5.555
10208POPC   PO459328  15.159  42.313   5.855
10208POPC   GL159329  15.155  42.359   6.155
10208POPC   GL259330  15.241  42.397   6.155
10208POPC   C1A59331  15.204  42.310   6.455
10208POPC   D2A59332  15.165  42.335   6.755
10208POPC   C3A59333  15.188  42.380   7.055
10208POPC   C4A59334  15.219  42.380   7.355
10208POPC   C1B59335  15.312  42.595   6.455
10208POPC   C2B59336  15.326  42.591   6.755
10208POPC   C3B59337  15.244  42.518   7.055
10208POPC   C4B59338  15.303  42.599   7.355
10209POPC   NC359339  29.111   5.860   5.555
10209POPC   PO459340  29.115   5.853   5.855
10209POPC   GL159341  29.109   5.836   6.155
10209POPC   GL259342  29.028   5.783   6.155
10209POPC   C1A59343  29.102   5.907   6.455
10209POPC   D2A59344  29.118   5.906   6.755
10209POPC   C3A59345  29.162   5.916   7.055
10209POPC   C4A59346  29.173   5.916   7.355
10209POPC   C1B59347  28.951   5.815   6.455
10209POPC   C2B59348  28.916   5.792   6.755
10209POPC   C3B59349  28.866   5.757   7.055
10209POPC   C4B59350  28.946   5.798   7.355
10210POPC   NC359351  36.122  36.121   5.555
10210POPC   PO459352  36.120  36.162   5.855
10210POPC   GL159353  36.110  36.110   6.155
10210POPC   GL259354  36.006  36.113   6.155
10210POPC   C1A59355  36.156  36.147   6.455
10210POPC   D2A59356  36.131  36.112   6.755
10210POPC   C3A59357  36.156  36.142   7.055
10210POPC   C4A59358  36.131  36.085   7.355
10210POPC   C1B59359  35.858  36.110   6.455
10210POPC   C2B59360  35.888  36.165   6.755
10210POPC   C3B59361  35.905  36.100   7.055
10210POPC   C4B59362  35.882  36.139   7.355
10211POPC   NC359363  22.138  21.427   5.555
10211POPC   PO459364  22.139  21.394   5.855
10211POPC   GL159365  22.136  21.351   6.155
10211POPC   GL259366  22.287  21.527   6.155
10211POPC   C1A59367  22.186  21.402   6.455
10211POPC   D2A59368  22.139  21.378   6.755
10211POPC   C3A59369  22.162  21.381   7.055
10211POPC   C4A59370  22.206  21.353   7.355
10211POPC   C1B59371  22.374  21.617   6.455
10211POPC   C2B59372  22.329  21.594   6.755
10211POPC   C3B59373  22.291  21.626   7.055
10211POPC   C4B59374  22.363  21.544   7.355
10212POPC   NC359375  36.108  14.426   5.555
10212POPC   PO459376  36.081  14.416   5.855
10212POPC   GL159377  36.116  14.355   6.155
10212POPC   GL259378  36.220  14.375   6.155
10212POPC   C1A59379  36.177  14.356   6.455
10212POPC   D2A59380  36.147  14.380   6.755
10212POPC   C3A59381  36.151  14.433   7.055
10212POPC   C4A59382  36.137  14.360   7.355
10212POPC   C1B59383  36.389  14.323   6.455
10212POPC   C2B59384  36.405  14.318   6.755
10212POPC   C3B59385  36.380  14.319   7.055
10212POPC   C4B59386  36.374  14.298   7.355
10213POPC   NC359387  18.327  33.063   5.555
10213POPC   PO459388  18.249  33.063   5.855
10213POPC   GL159389  18.259  32.974   6.155
10213POPC   GL259390  18.207  32.913   6.155
10213POPC   C1A59391  18.252  32.984   6.455
10213POPC   D2A59392  18.333  32.995   6.755
10213POPC   C3A59393  18.315  33.030   7.055
10213POPC   C4A59394  18.291  33.069   7.355
10213POPC   C1B59395  18.091  32.804   6.455
10213POPC   C2B59396  18.134  32.836   6.755
10213POPC   C3B59397  18.076  32.831   7.055
10213POPC   C4B59398  18.147  32.849   7.355
10214POPC   NC359399  43.085  35.357   5.555
10214POPC   PO459400  43.095  35.399   5.855
10214POPC   GL159401  43.144  35.363   6.155
10214POPC   GL259402  43.049  35.194   6.155
10214POPC   C1A59403  43.159  35.340   6.455
10214POPC   D2A59404  43.104  35.326   6.755
10214POPC   C3A59405  43.080  35.354   7.055
10214POPC   C4A59406  43.105  35.312   7.355
10214POPC   C1B59407  43.021  35.074   6.455
10214POPC   C2B59408  43.085  35.111   6.755
10214POPC   C3B59409  43.016  35.151   7.055
10214POPC   C4B59410  43.089  35.133   7.355
10215POPC   NC359411  14.427  25.219   5.555
10215POPC   PO459412  14.452  25.303   5.855
10215POPC   GL159413  14.438  25.273   6.155
10215POPC   GL259414  14.431  25.135   6.155
10215POPC   C1A59415  14.406  25.295   6.455
10215POPC   D2A59416  14.391  25.306   6.755
10215POPC   C3A59417  14.379  25.306   7.055
10215POPC   C4A59418  14.423  25.292   7.355
10215POPC   C1B59419  14.512  25.054   6.455
10215POPC   C2B59420  14.547  24.996   6.755
10215POPC   C3B59421  14.474  25.014   7.055
10215POPC   C4B59422  14.550  25.091   7.355
10216POPC   NC359423  43.868  36.940   5.555
10216POPC   PO459424  43.936  36.890   5.855
10216POPC   GL159425  43.917  36.867   6.155
10216POPC   GL259426  44.015  36.855   6.155
10216POPC   C1A59427  43.909  36.934   6.455
10216POPC   D2A59428  43.842  36.881   6.755
10216POPC   C3A59429  43.893  36.899   7.055
10216POPC   C4A59430  43.923  36.927   7.355
10216POPC   C1B59431  44.175  36.805   6.455
10216POPC   C2B59432  44.171  36.805   6.755
10216POPC   C3B59433  44.103  36.875   7.055
10216POPC   C4B59434  44.174  36.845   7.355
10217POPC   NC359435  29.903   3.572   5.555
10217POPC   PO459436  29.934   3.578   5.855
10217POPC   GL159437  29.894   3.553   6.155
10217POPC   GL259438  29.973   3.461   6.155
10217POPC   C1A59439  29.874   3.500   6.455
10217POPC   D2A59440  29.923   3.569   6.755
10217POPC   C3A59441  29.880   3.536   7.055
10217POPC   C4A59442  29.930   3.534   7.355
10217POPC   C1B59443  29.942   3.257   6.455
10217POPC   C2B59444  29.967   3.322   6.755
10217POPC   C3B59445  29.955   3.338   7.055
10217POPC   C4B59446  29.986   3.273   7.355
10218POPC   NC359447  13.667   6.600   5.555
10218POPC   PO459448  13.623   6.656   5.855
10218POPC   GL159449  13.612   6.673   6.155
10218POPC   GL259450  13.592   6.760   6.155
10218POPC   C1A59451  13.597   6.645   6.455
10218POPC   D2A59452  13.625   6.692   6.755
10218POPC   C3A59453  13.607   6.626   7.055
10218POPC   C4A59454  13.673   6.689   7.355
10218POPC   C1B59455  13.579   6.865   6.455
10218POPC   C2B59456  13.535   6.859   6.755
10218POPC   C3B59457  13.555   6.898   7.055
10218POPC   C4B59458  13.607   6.866   7.355
10219POPC   NC359459  26.065  17.497   5.555
10219POPC   PO459460  26.044  17.476   5.855
10219POPC   GL159461  26.067  17.542   6.155
10219POPC   GL259462  25.998  17.390   6.155
10219POPC   C1A59463  26.006  17.527   6.455
10219POPC   D2A59464  26.087  17.503   6.755
10219POPC   C3A59465  26.006  17.542   7.055
10219POPC   C4A59466  26.011  17.547   7.355
10219POPC   C1B59467  25.900  17.317   6.455
10219POPC   C2B59468  25.923  17.362   6.755
10219POPC   C3B59469  25.901  17.338   7.055
10219POPC   C4B59470  25.876  17.333   7.355
10220POPC   NC359471   7.458  36.160   5.555
10220POPC   PO459472   7.422  36.137   5.855
10220POPC   GL159473   7.409  36.131   6.155
10220POPC   GL259474   7.525  36.246   6.155
10220POPC   C1A59475   7.415  36.116   6.455
10220POPC   D2A59476   7.469  36.159   6.755
10220POPC   C3A59477   7.402  36.079   7.055
10220POPC   C4A59478   7.466  36.090   7.355
10220POPC   C1B59479   7.559  36.318   6.455
10220POPC   C2B59480   7.631  36.348   6.755
10220POPC   C3B59481   7.582  36.353   7.055
10220POPC   C4B59482   7.594  36.290   7.355
10221POPC   NC359483   1.996  11.313   5.555
10221POPC   PO459484   2.018  11.300   5.855
10221POPC   GL159485   2.000  11.271   6.155
10221POPC   GL259486   2.078  11.196   6.155
10221POPC   C1A59487   1.967  11.297   6.455
10221POPC   D2A59488   2.014  11.349   6.755
10221POPC   C3A59489   1.967  11.325   7.055
10221POPC   C4A59490   2.036  11.280   7.355
10221POPC   C1B59491   2.138  11.126   6.455
10221POPC   C2B59492   2.101  11.091   6.755
10221POPC   C3B59493   2.134  11.119   7.055
10221POPC   C4B59494   2.082  11.079   7.355
10222POPC   NC359495  37.675  21.434   5.555
10222POPC   PO459496  37.707  21.380   5.855
10222POPC   GL159497  37.697  21.421   6.155
10222POPC   GL259498  37.534  21.426   6.155
10222POPC   C1A59499  37.670  21.342   6.455
10222POPC   D2A59500  37.683  21.392   6.755
10222POPC   C3A59501  37.654  21.414   7.055
10222POPC   C4A59502  37.661  21.383   7.355
10222POPC   C1B59503  37.452  21.482   6.455
10222POPC   C2B59504  37.478  21.550   6.755
10222POPC   C3B59505  37.492  21.512   7.055
10222POPC   C4B59506  37.511  21.512   7.355
10223POPC   NC359507   8.202   5.128   5.555
10223POPC   PO459508   8.174   5.099   5.855
10223POPC   GL159509   8.183   5.138   6.155
10223POPC   GL259510   8.148   5.216   6.155
10223POPC   C1A59511   8.239   5.068   6.455
10223POPC   D2A59512   8.192   5.055   6.755
10223POPC   C3A59513   8.170   5.072   7.055
10223POPC   C4A59514   8.235   5.092   7.355
10223POPC   C1B59515   8.079   5.319   6.455
10223POPC   C2B59516   8.061   5.266   6.755
10223POPC   C3B59517   8.013   5.297   7.055
10223POPC   C4B59518   8.072   5.315   7.355
10224POPC   NC359519  40.764   2.025   5.555
10224POPC   PO459520  40.797   2.006   5.855
10224POPC   GL159521  40.748   2.005   6.155
10224POPC   GL259522  40.670   2.134   6.155
10224POPC   C1A59523  40.751   1.988   6.455
10224POPC   D2A59524  40.765   1.992   6.755
10224POPC   C3A59525  40.781   2.009   7.055
10224POPC   C4A59526  40.802   1.986   7.355
10224POPC   C1B59527  40.625   2.228   6.455
10224POPC   C2B59528  40.673   2.155   6.755
10224POPC   C3B59529  40.683   2.169   7.055
10224POPC   C4B59530  40.681   2.213   7.355
10225POPC   NC359531  20.578  20.569   5.555
10225POPC   PO459532  20.648  20.644   5.855
10225POPC   GL159533  20.658  20.629   6.155
10225POPC   GL259534  20.687  20.684   6.155
10225POPC   C1A59535  20.586  20.655   6.455
10225POPC   D2A59536  20.620  20.562   6.755
10225POPC   C3A59537  20.646  20.658   7.055
10225POPC   C4A59538  20.654  20.612   7.355
10225POPC   C1B59539  20.869  20.693   6.455
10225POPC   C2B59540  20.816  20.713   6.755
10225POPC   C3B59541  20.867  20.652   7.055
10225POPC   C4B59542  20.875  20.720   7.355
10226POPC   NC359543  26.816   8.989   5.555
10226POPC   PO459544  26.790   8.930   5.855
10226POPC   GL159545  26.848   8.987   6.155
10226POPC   GL259546  26.910   9.062   6.155
10226POPC   C1A59547  26.840   8.941   6.455
10226POPC   D2A59548  26.781   8.981   6.755
10226POPC   C3A59549  26.817   8.927   7.055
10226POPC   C4A59550  26.824   8.955   7.355
10226POPC   C1B59551  27.078   9.099   6.455
10226POPC   C2B59552  27.057   9.037   6.755
10226POPC   C3B59553  27.054   9.046   7.055
10226POPC   C4B59554  27.086   9.092   7.355
10227POPC   NC359555  36.875  10.573   5.555
10227POPC   PO459556  36.941  10.544   5.855
10227POPC   GL159557  36.871  10.563   6.155
10227POPC   GL259558  36.811  10.648   6.155
10227POPC   C1A59559  36.941  10.546   6.455
10227POPC   D2A59560  36.891  10.528   6.755
10227POPC   C3A59561  36.917  10.511   7.055
10227POPC   C4A59562  36.907  10.499   7.355
10227POPC   C1B59563  36.772  10.718   6.455
10227POPC   C2B59564  36.729  10.753   6.755
10227POPC   C3B59565  36.812  10.773   7.055
10227POPC   C4B59566  36.805  10.766   7.355
10228POPC   NC359567   5.835  32.264   5.555
10228POPC   PO459568   5.828  32.214   5.855
10228POPC   GL159569   5.918  32.208   6.155
10228POPC   GL259570   5.999  32.274   6.155
10228POPC   C1A59571   5.853  32.245   6.455
10228POPC   D2A59572   5.837  32.239   6.755
10228POPC   C3A59573   5.870  32.225   7.055
10228POPC   C4A59574   5.825  32.218   7.355
10228POPC   C1B59575   6.142  32.183   6.455
10228POPC   C2B59576   6.144  32.179   6.755
10228POPC   C3B59577   6.137  32.214   7.055
10228POPC   C4B59578   6.135  32.180   7.355
10229POPC   NC359579  21.368  11.264   5.555
10229POPC   PO459580  21.347  11.311   5.855
10229POPC   GL159581  21.401  11.331   6.155
10229POPC   GL259582  21.483  11.381   6.155
10229POPC   C1A59583  21.341  11.325   6.455
10229POPC   D2A59584  21.435  11.337   6.755
10229POPC   C3A59585  21.351  11.258   7.055
10229POPC   C4A59586  21.363  11.293   7.355
10229POPC   C1B59587  21.542  11.440   6.455
10229POPC   C2B59588  21.575  11.490   6.755
10229POPC   C3B59589  21.535  11.529   7.055
10229POPC   C4B59590  21.526  11.439   7.355
10230POPC   NC359591  19.881  13.655   5.555
10230POPC   PO459592  19.805  13.613   5.855
10230POPC   GL159593  19.796  13.674   6.155
10230POPC   GL259594  20.000  13.576   6.155
10230POPC   C1A59595  19.820  13.614   6.455
10230POPC   D2A59596  19.873  13.636   6.755
10230POPC   C3A59597  19.803  13.643   7.055
10230POPC   C4A59598  19.853  13.645   7.355
10230POPC   C1B59599  20.099  13.631   6.455
10230POPC   C2B59600  20.083  13.556   6.755
10230POPC   C3B59601  20.054  13.605   7.055
10230POPC   C4B59602  20.081  13.624   7.355
10231POPC   NC359603  21.412   8.198   5.555
10231POPC   PO459604  21.403   8.173   5.855
10231POPC   GL159605  21.351   8.199   6.155
10231POPC   GL259606  21.322   8.290   6.155
10231POPC   C1A59607  21.433   8.152   6.455
10231POPC   D2A59608  21.375   8.151   6.755
10231POPC   C3A59609  21.394   8.201   7.055
10231POPC   C4A59610  21.359   8.148   7.355
10231POPC   C1B59611  21.353   8.424   6.455
10231POPC   C2B59612  21.357   8.419   6.755
10231POPC   C3B59613  21.354   8.478   7.055
10231POPC   C4B59614  21.345   8.434   7.355
10232POPC   NC359615  44.623   5.831   5.555
10232POPC   PO459616  44.639   5.854   5.855
10232POPC   GL159617  44.674   5.896   6.155
10232POPC   GL259618  44.550   5.800   6.155
10232POPC   C1A59619  44.704   5.825   6.455
10232POPC   D2A59620  44.685   5.855   6.755
10232POPC   C3A59621  44.709   5.873   7.055
10232POPC   C4A59622  44.710   5.892   7.355
10232POPC   C1B59623  44.457   5.790   6.455
10232POPC   C2B59624  44.404   5.789   6.755
10232POPC   C3B59625  44.416   5.751   7.055
10232POPC   C4B59626  44.409   5.811   7.355
10233POPC   NC359627  24.452  15.967   5.555
10233POPC   PO459628  24.462  15.981   5.855
10233POPC   GL159629  24.467  15.962   6.155
10233POPC   GL259630  24.389  15.978   6.155
10233POPC   C1A59631  24.495  15.922   6.455
10233POPC   D2A59632  24.522  16.000   6.755
10233POPC   C3A59633  24.532  15.975   7.055
10233POPC   C4A59634  24.533  15.959   7.355
10233POPC   C1B59635  24.239  15.930   6.455
10233POPC   C2B59636  24.254  15.985   6.755
10233POPC   C3B59637  24.278  15.929   7.055
10233POPC   C4B59638  24.208  15.971   7.355
10234POPC   NC359639  11.349  12.811   5.555
10234POPC   PO459640  11.260  12.889   5.855
10234POPC   GL159641  11.345  12.892   6.155
10234POPC   GL259642  11.403  12.942   6.155
10234POPC   C1A59643  11.308  12.874   6.455
10234POPC   D2A59644  11.306  12.813   6.755
10234POPC   C3A59645  11.307  12.864   7.055
10234POPC   C4A59646  11.312  12.805   7.355
10234POPC   C1B59647  11.406  13.023   6.455
10234POPC   C2B59648  11.445  13.017   6.755
10234POPC   C3B59649  11.456  13.089   7.055
10234POPC   C4B59650  11.435  13.054   7.355
10235POPC   NC359651  27.602  29.120   5.555
10235POPC   PO459652  27.632  29.183   5.855
10235POPC   GL159653  27.553  29.132   6.155
10235POPC   GL259654  27.747  29.133   6.155
10235POPC   C1A59655  27.636  29.101   6.455
10235POPC   D2A59656  27.585  29.194   6.755
10235POPC   C3A59657  27.604  29.106   7.055
10235POPC   C4A59658  27.551  29.159   7.355
10235POPC   C1B59659  27.823  29.083   6.455
10235POPC   C2B59660  27.857  29.013   6.755
10235POPC   C3B59661  27.825  29.038   7.055
10235POPC   C4B59662  27.831  29.077   7.355
10236POPC   NC359663   4.327  21.342   5.555
10236POPC   PO459664   4.355  21.400   5.855
10236POPC   GL159665   4.312  21.402   6.155
10236POPC   GL259666   4.252  21.275   6.155
10236POPC   C1A59667   4.340  21.399   6.455
10236POPC   D2A59668   4.350  21.339   6.755
10236POPC   C3A59669   4.355  21.363   7.055
10236POPC   C4A59670   4.298  21.408   7.355
10236POPC   C1B59671   4.185  21.161   6.455
10236POPC   C2B59672   4.173  21.190   6.755
10236POPC   C3B59673   4.113  21.248   7.055
10236POPC   C4B59674   4.161  21.214   7.355
10237POPC   NC359675  41.596  13.635   5.555
10237POPC   PO459676  41.518  13.603   5.855
10237POPC   GL159677  41.511  13.656   6.155
10237POPC   GL259678  41.556  13.545   6.155
10237POPC   C1A59679  41.546  13.646   6.455
10237POPC   D2A59680  41.551  13.627   6.755
10237POPC   C3A59681  41.524  13.653   7.055
10237POPC   C4A59682  41.517  13.629   7.355
10237POPC   C1B59683  41.466  13.376   6.455
10237POPC   C2B59684  41.530  13.378   6.755
10237POPC   C3B59685  41.486  13.362   7.055
10237POPC   C4B59686  41.547  13.351   7.355
10238POPC   NC359687  26.818  42.377   5.555
10238POPC   PO459688  26.850  42.336   5.855
10238POPC   GL159689  26.849  42.351   6.155
10238POPC   GL259690  26.923  42.402   6.155
10238POPC   C1A59691  26.775  42.336   6.455
10238POPC   D2A59692  26.863  42.381   6.755
10238POPC   C3A59693  26.834  42.303   7.055
10238POPC   C4A59694  26.788  42.374   7.355
10238POPC   C1B59695  27.023  42.535   6.455
10238POPC   C2B59696  26.969  42.553   6.755
10238POPC   C3B59697  26.945  42.514   7.055
10238POPC   C4B59698  26.927  42.482   7.355
10239POPC   NC359699   8.960  43.871   5.555
10239POPC   PO459700   9.015  43.865   5.855
10239POPC   GL159701   9.018  43.875   6.155
10239POPC   GL259702   9.078  43.898   6.155
10239POPC   C1A59703   9.010  43.855   6.455
10239POPC   D2A59704   9.019  43.935   6.755
10239POPC   C3A59705   9.014  43.931   7.055
10239POPC   C4A59706   8.930  43.838   7.355
10239POPC   C1B59707   9.248  43.806   6.455
10239POPC   C2B59708   9.267  43.870   6.755
10239POPC   C3B59709   9.176  43.890   7.055
10239POPC   C4B59710   9.210  43.861   7.355
10240POPC   NC359711  34.607  13.583   5.555
10240POPC   PO459712  34.595  13.582   5.855
10240POPC   GL159713  34.600  13.615   6.155
10240POPC   GL259714  34.667  13.522   6.155
10240POPC   C1A59715  34.606  13.606   6.455
10240POPC   D2A59716  34.578  13.677   6.755
10240POPC   C3A59717  34.538  13.597   7.055
10240POPC   C4A59718  34.530  13.612   7.355
10240POPC   C1B59719  34.816  13.507   6.455
10240POPC   C2B59720  34.792  13.465   6.755
10240POPC   C3B59721  34.799  13.470   7.055
10240POPC   C4B59722  34.747  13.454   7.355
10241POPC   NC359723  14.452  11.348   5.555
10241POPC   PO459724  14.354  11.332   5.855
10241POPC   GL159725  14.358  11.335   6.155
10241POPC   GL259726  14.319  11.302   6.155
10241POPC   C1A59727  14.436  11.300   6.455
10241POPC   D2A59728  14.449  11.302   6.755
10241POPC   C3A59729  14.361  11.322   7.055
10241POPC   C4A59730  14.429  11.339   7.355
10241POPC   C1B59731  14.179  11.397   6.455
10241POPC   C2B59732  14.147  11.350   6.755
10241POPC   C3B59733  14.135  11.403   7.055
10241POPC   C4B59734  14.138  11.331   7.355
10242POPC   NC359735  41.537  12.095   5.555
10242POPC   PO459736  41.575  12.107   5.855
10242POPC   GL159737  41.586  12.068   6.155
10242POPC   GL259738  41.605  12.011   6.155
10242POPC   C1A59739  41.539  12.066   6.455
10242POPC   D2A59740  41.519  12.032   6.755
10242POPC   C3A59741  41.523  12.104   7.055
10242POPC   C4A59742  41.532  12.119   7.355
10242POPC   C1B59743  41.682  11.889   6.455
10242POPC   C2B59744  41.696  11.907   6.755
10242POPC   C3B59745  41.741  11.855   7.055
10242POPC   C4B59746  41.737  11.863   7.355
10243POPC   NC359747  18.269   1.942   5.555
10243POPC   PO459748  18.267   1.969   5.855
10243POPC   GL159749  18.237   2.007   6.155
10243POPC   GL259750  18.420   2.117   6.155
10243POPC   C1A59751  18.240   2.017   6.455
10243POPC   D2A59752  18.286   2.006   6.755
10243POPC   C3A59753  18.261   2.030   7.055
10243POPC   C4A59754  18.263   1.953   7.355
10243POPC   C1B59755  18.508   2.190   6.455
10243POPC   C2B59756  18.511   2.193   6.755
10243POPC   C3B59757  18.496   2.140   7.055
10243POPC   C4B59758  18.462   2.147   7.355
10244POPC   NC359759   4.270  15.179   5.555
10244POPC   PO459760   4.302  15.146   5.855
10244POPC   GL159761   4.337  15.149   6.155
10244POPC   GL259762   4.441  15.203   6.155
10244POPC   C1A59763   4.292  15.178   6.455
10244POPC   D2A59764   4.307  15.199   6.755
10244POPC   C3A59765   4.290  15.207   7.055
10244POPC   C4A59766   4.342  15.151   7.355
10244POPC   C1B59767   4.564  15.278   6.455
10244POPC   C2B59768   4.514  15.252   6.755
10244POPC   C3B59769   4.531  15.339   7.055
10244POPC   C4B59770   4.497  15.255   7.355
10245POPC   NC359771  17.526   1.953   5.555
10245POPC   PO459772  17.534   2.007   5.855
10245POPC   GL159773  17.460   1.952   6.155
10245POPC   GL259774  17.576   2.026   6.155
10245POPC   C1A59775  17.490   1.978   6.455
10245POPC   D2A59776  17.513   1.941   6.755
10245POPC   C3A59777  17.491   2.004   7.055
10245POPC   C4A59778  17.474   2.002   7.355
10245POPC   C1B59779  17.670   2.192   6.455
10245POPC   C2B59780  17.688   2.206   6.755
10245POPC   C3B59781  17.676   2.135   7.055
10245POPC   C4B59782  17.692   2.185   7.355
10246POPC   NC359783  38.408  10.482   5.555
10246POPC   PO459784  38.451  10.481   5.855
10246POPC   GL159785  38.455  10.558   6.155
10246POPC   GL259786  38.430  10.364   6.155
10246POPC   C1A59787  38.408  10.512   6.455
10246POPC   D2A59788  38.424  10.553   6.755
10246POPC   C3A59789  38.450  10.495   7.055
10246POPC   C4A59790  38.407  10.508   7.355
10246POPC   C1B59791  38.370  10.316   6.455
10246POPC   C2B59792  38.389  10.310   6.755
10246POPC   C3B59793  38.314  10.287   7.055
10246POPC   C4B59794  38.368  10.247   7.355
10247POPC   NC359795  42.384  29.875   5.555
10247POPC   PO459796  42.384  29.940   5.855
10247POPC   GL159797  42.298  29.913   6.155
10247POPC   GL259798  42.250  29.998   6.155
10247POPC   C1A59799  42.375  29.948   6.455
10247POPC   D2A59800  42.358  29.951   6.755
10247POPC   C3A59801  42.289  29.970   7.055
10247POPC   C4A59802  42.373  29.885   7.355
10247POPC   C1B59803  42.086  30.007   6.455
10247POPC   C2B59804  42.050  29.947   6.755
10247POPC   C3B59805  42.084  30.020   7.055
10247POPC   C4B59806  42.084  30.008   7.355
10248POPC   NC359807  12.861   5.122   5.555
10248POPC   PO459808  12.867   5.098   5.855
10248POPC   GL159809  12.873   5.050   6.155
10248POPC   GL259810  12.744   5.172   6.155
10248POPC   C1A59811  12.858   5.046   6.455
10248POPC   D2A59812  12.820   5.119   6.755
10248POPC   C3A59813  12.859   5.085   7.055
10248POPC   C4A59814  12.863   5.108   7.355
10248POPC   C1B59815  12.686   5.303   6.455
10248POPC   C2B59816  12.654   5.312   6.755
10248POPC   C3B59817  12.686   5.327   7.055
10248POPC   C4B59818  12.650   5.265   7.355
10249POPC   NC359819  41.509  24.467   5.555
10249POPC   PO459820  41.607  24.447   5.855
10249POPC   GL159821  41.602  24.452   6.155
10249POPC   GL259822  41.600  24.355   6.155
10249POPC   C1A59823  41.550  24.453   6.455
10249POPC   D2A59824  41.556  24.506   6.755
10249POPC   C3A59825  41.551  24.479   7.055
10249POPC   C4A59826  41.558  24.521   7.355
10249POPC   C1B59827  41.636  24.254   6.455
10249POPC   C2B59828  41.631  24.250   6.755
10249POPC   C3B59829  41.588  24.280   7.055
10249POPC   C4B59830  41.595  24.272   7.355
10250POPC   NC359831  24.517  38.504   5.555
10250POPC   PO459832  24.532  38.487   5.855
10250POPC   GL159833  24.462  38.456   6.155
10250POPC   GL259834  24.402  38.383   6.155
10250POPC   C1A59835  24.523  38.412   6.455
10250POPC   D2A59836  24.518  38.414   6.755
10250POPC   C3A59837  24.460  38.420   7.055
10250POPC   C4A59838  24.504  38.463   7.355
10250POPC   C1B59839  24.269  38.391   6.455
10250POPC   C2B59840  24.229  38.418   6.755
10250POPC   C3B59841  24.213  38.329   7.055
10250POPC   C4B59842  24.239  38.375   7.355
10251POPC   NC359843  23.671  26.812   5.555
10251POPC   PO459844  23.753  26.780   5.855
10251POPC   GL159845  23.703  26.781   6.155
10251POPC   GL259846  23.651  26.671   6.155
10251POPC   C1A59847  23.759  26.813   6.455
10251POPC   D2A59848  23.706  26.851   6.755
10251POPC   C3A59849  23.711  26.832   7.055
10251POPC   C4A59850  23.753  26.825   7.355
10251POPC   C1B59851  23.612  26.653   6.455
10251POPC   C2B59852  23.553  26.573   6.755
10251POPC   C3B59853  23.604  26.570   7.055
10251POPC   C4B59854  23.612  26.587   7.355
10252POPC   NC359855   9.699  21.341   5.555
10252POPC   PO459856   9.741  21.406   5.855
10252POPC   GL159857   9.718  21.395   6.155
10252POPC   GL259858   9.846  21.313   6.155
10252POPC   C1A59859   9.754  21.383   6.455
10252POPC   D2A59860   9.797  21.433   6.755
10252POPC   C3A59861   9.772  21.381   7.055
10252POPC   C4A59862   9.739  21.397   7.355
10252POPC   C1B59863  10.029  21.274   6.455
10252POPC   C2B59864   9.994  21.343   6.755
10252POPC   C3B59865  10.017  21.361   7.055
10252POPC   C4B59866   9.953  21.329   7.355
10253POPC   NC359867   2.784  22.952   5.555
10253POPC   PO459868   2.751  22.986   5.855
10253POPC   GL159869   2.811  22.921   6.155
10253POPC   GL259870   2.784  23.019   6.155
10253POPC   C1A59871   2.771  22.974   6.455
10253POPC   D2A59872   2.768  22.962   6.755
10253POPC   C3A59873   2.773  22.937   7.055
10253POPC   C4A59874   2.717  22.926   7.355
10253POPC   C1B59875   2.737  23.228   6.455
10253POPC   C2B59876   2.698  23.137   6.755
10253POPC   C3B59877   2.765  23.205   7.055
10253POPC   C4B59878   2.720  23.174   7.355
10254POPC   NC359879  43.061  13.671   5.555
10254POPC   PO459880  43.087  13.658   5.855
10254POPC   GL159881  43.063  13.665   6.155
10254POPC   GL259882  43.161  13.507   6.155
10254POPC   C1A59883  43.159  13.651   6.455
10254POPC   D2A59884  43.136  13.669   6.755
10254POPC   C3A59885  43.079  13.587   7.055
10254POPC   C4A59886  43.136  13.611   7.355
10254POPC   C1B59887  43.130  13.378   6.455
10254POPC   C2B59888  43.099  13.329   6.755
10254POPC   C3B59889  43.184  13.408   7.055
10254POPC   C4B59890  43.168  13.385   7.355
10255POPC   NC359891   2.785  24.453   5.555
10255POPC   PO459892   2.783  24.456   5.855
10255POPC   GL159893   2.745  24.497   6.155
10255POPC   GL259894   2.753  24.320   6.155
10255POPC   C1A59895   2.779  24.447   6.455
10255POPC   D2A59896   2.729  24.525   6.755
10255POPC   C3A59897   2.744  24.443   7.055
10255POPC   C4A59898   2.723  24.538   7.355
10255POPC   C1B59899   2.742  24.224   6.455
10255POPC   C2B59900   2.767  24.197   6.755
10255POPC   C3B59901   2.712  24.289   7.055
10255POPC   C4B59902   2.717  24.214   7.355
10256POPC   NC359903  11.335  10.537   5.555
10256POPC   PO459904  11.260  10.551   5.855
10256POPC   GL159905  11.270  10.572   6.155
10256POPC   GL259906  11.369  10.474   6.155
10256POPC   C1A59907  11.295  10.477   6.455
10256POPC   D2A59908  11.276  10.520   6.755
10256POPC   C3A59909  11.319  10.544   7.055
10256POPC   C4A59910  11.253  10.572   7.355
10256POPC   C1B59911  11.490  10.329   6.455
10256POPC   C2B59912  11.441  10.324   6.755
10256POPC   C3B59913  11.495  10.382   7.055
10256POPC   C4B59914  11.465  10.391   7.355
10257POPC   NC359915  19.101   2.795   5.555
10257POPC   PO459916  19.057   2.810   5.855
10257POPC   GL159917  19.099   2.797   6.155
10257POPC   GL259918  18.990   2.858   6.155
10257POPC   C1A59919  19.049   2.754   6.455
10257POPC   D2A59920  19.093   2.750   6.755
10257POPC   C3A59921  19.077   2.743   7.055
10257POPC   C4A59922  19.089   2.787   7.355
10257POPC   C1B59923  18.834   2.872   6.455
10257POPC   C2B59924  18.880   2.912   6.755
10257POPC   C3B59925  18.850   2.836   7.055
10257POPC   C4B59926  18.817   2.842   7.355
10258POPC   NC359927  40.824  25.234   5.555
10258POPC   PO459928  40.786  25.239   5.855
10258POPC   GL159929  40.818  25.229   6.155
10258POPC   GL259930  40.673  25.316   6.155
10258POPC   C1A59931  40.773  25.249   6.455
10258POPC   D2A59932  40.771  25.224   6.755
10258POPC   C3A59933  40.761  25.276   7.055
10258POPC   C4A59934  40.825  25.302   7.355
10258POPC   C1B59935  40.562  25.335   6.455
10258POPC   C2B59936  40.573  25.325   6.755
10258POPC   C3B59937  40.567  25.339   7.055
10258POPC   C4B59938  40.573  25.287   7.355
10259POPC   NC359939  44.679   1.205   5.555
10259POPC   PO459940  44.640   1.196   5.855
10259POPC   GL159941  44.665   1.208   6.155
10259POPC   GL259942  44.721   1.144   6.155
10259POPC   C1A59943  44.633   1.191   6.455
10259POPC   D2A59944  44.710   1.167   6.755
10259POPC   C3A59945  44.666   1.200   7.055
10259POPC   C4A59946  44.676   1.222   7.355
10259POPC   C1B59947  44.761   1.006   6.455
10259POPC   C2B59948  44.807   1.031   6.755
10259POPC   C3B59949  44.779   1.044   7.055
10259POPC   C4B59950  44.786   1.006   7.355
10260POPC   NC359951  33.835  10.496   5.555
10260POPC   PO459952  33.812  10.521   5.855
10260POPC   GL159953  33.845  10.536   6.155
10260POPC   GL259954  33.965  10.573   6.155
10260POPC   C1A59955  33.839  10.512   6.455
10260POPC   D2A59956  33.843  10.568   6.755
10260POPC   C3A59957  33.779  10.495   7.055
10260POPC   C4A59958  33.750  10.538   7.355
10260POPC   C1B59959  34.013  10.563   6.455
10260POPC   C2B59960  34.053  10.567   6.755
10260POPC   C3B59961  34.068  10.522   7.055
10260POPC   C4B59962  34.040  10.604   7.355
10261POPC   NC359963  12.900  38.439   5.555
10261POPC   PO459964  12.818  38.424   5.855
10261POPC   GL159965  12.876  38.468   6.155
10261POPC   GL259966  13.012  38.514   6.155
10261POPC   C1A59967  12.891  38.463   6.455
10261POPC   D2A59968  12.890  38.442   6.755
10261POPC   C3A59969  12.847  38.444   7.055
10261POPC   C4A59970  12.854  38.460   7.355
10261POPC   C1B59971  13.108  38.564   6.455
10261POPC   C2B59972  13.128  38.575   6.755
10261POPC   C3B59973  13.084  38.548   7.055
10261POPC   C4B59974  13.076  38.564   7.355
10262POPC   NC359975   7.383  41.607   5.555
10262POPC   PO459976   7.458  41.581   5.855
10262POPC   GL159977   7.409  41.606   6.155
10262POPC   GL259978   7.272  41.539   6.155
10262POPC   C1A59979   7.387  41.586   6.455
10262POPC   D2A59980   7.403  41.600   6.755
10262POPC   C3A59981   7.460  41.575   7.055
10262POPC   C4A59982   7.427  41.593   7.355
10262POPC   C1B59983   7.144  41.543   6.455
10262POPC   C2B59984   7.185  41.550   6.755
10262POPC   C3B59985   7.212  41.538   7.055
10262POPC   C4B59986   7.142  41.519   7.355
10263POPC   NC359987  36.087   1.200   5.555
10263POPC   PO459988  36.087   1.229   5.855
10263POPC   GL159989  36.110   1.224   6.155
10263POPC   GL259990  35.978   1.243   6.155
10263POPC   C1A59991  36.150   1.182   6.455
10263POPC   D2A59992  36.097   1.252   6.755
10263POPC   C3A59993  36.157   1.215   7.055
10263POPC   C4A59994  36.147   1.253   7.355
10263POPC   C1B59995  35.905   1.301   6.455
10263POPC   C2B59996  35.925   1.318   6.755
10263POPC   C3B59997  35.896   1.307   7.055
10263POPC   C4B59998  35.923   1.313   7.355
10264POPC   NC359999  31.475  20.659   5.555
10264POPC   PO460000  31.512  20.577   5.855
10264POPC   GL160001  31.511  20.574   6.155
10264POPC   GL260002  31.411  20.708   6.155
10264POPC   C1A60003  31.452  20.596   6.455
10264POPC   D2A60004  31.512  20.604   6.755
10264POPC   C3A60005  31.472  20.623   7.055
10264POPC   C4A60006  31.429  20.643   7.355
10264POPC   C1B60007  31.324  20.817   6.455
10264POPC   C2B60008  31.308  20.782   6.755
10264POPC   C3B60009  31.300  20.784   7.055
10264POPC   C4B60010  31.330  20.759   7.355
10265POPC   NC360011  29.970  18.295   5.555
10265POPC   PO460012  29.908  18.285   5.855
10265POPC   GL160013  29.913  18.255   6.155
10265POPC   GL260014  30.066  18.245   6.155
10265POPC   C1A60015  29.957  18.304   6.455
10265POPC   D2A60016  29.949  18.248   6.755
10265POPC   C3A60017  29.871  18.297   7.055
10265POPC   C4A60018  29.893  18.250   7.355
10265POPC   C1B60019  30.075  18.131   6.455
10265POPC   C2B60020  30.163  18.126   6.755
10265POPC   C3B60021  30.077  18.172   7.055
10265POPC   C4B60022  30.082  18.170   7.355
10266POPC   NC360023   5.856  36.167   5.555
10266POPC   PO460024   5.839  36.168   5.855
10266POPC   GL160025   5.847  36.106   6.155
10266POPC   GL260026   5.786  36.183   6.155
10266POPC   C1A60027   5.918  36.094   6.455
10266POPC   D2A60028   5.881  36.141   6.755
10266POPC   C3A60029   5.873  36.157   7.055
10266POPC   C4A60030   5.889  36.131   7.355
10266POPC   C1B60031   5.703  36.336   6.455
10266POPC   C2B60032   5.733  36.373   6.755
10266POPC   C3B60033   5.686  36.291   7.055
10266POPC   C4B60034   5.730  36.303   7.355
10267POPC   NC360035  29.958   0.451   5.555
10267POPC   PO460036  29.873   0.389   5.855
10267POPC   GL160037  29.899   0.471   6.155
10267POPC   GL260038  29.865   0.289   6.155
10267POPC   C1A60039  29.970   0.417   6.455
10267POPC   D2A60040  29.944   0.420   6.755
10267POPC   C3A60041  29.968   0.406   7.055
10267POPC   C4A60042  29.956   0.455   7.355
10267POPC   C1B60043  29.814   0.192   6.455
10267POPC   C2B60044  29.830   0.229   6.755
10267POPC   C3B60045  29.808   0.194   7.055
10267POPC   C4B60046  29.843   0.259   7.355
10268POPC   NC360047  17.513   8.999   5.555
10268POPC   PO460048  17.480   8.955   5.855
10268POPC   GL160049  17.544   8.955   6.155
10268POPC   GL260050  17.670   8.965   6.155
10268POPC   C1A60051  17.467   8.924   6.455
10268POPC   D2A60052  17.526   8.999   6.755
10268POPC   C3A60053  17.504   9.015   7.055
10268POPC   C4A60054  17.491   8.972   7.355
10268POPC   C1B60055  17.740   8.856   6.455
10268POPC   C2B60056  17.717   8.926   6.755
10268POPC   C3B60057  17.749   8.853   7.055
10268POPC   C4B60058  17.789   8.874   7.355
10269POPC   NC360059   4.305   5.875   5.555
10269POPC   PO460060   4.338   5.846   5.855
10269POPC   GL160061   4.280   5.887   6.155
10269POPC   GL260062   4.358   5.738   6.155
10269POPC   C1A60063   4.304   5.841   6.455
10269POPC   D2A60064   4.291   5.826   6.755
10269POPC   C3A60065   4.324   5.890   7.055
10269POPC   C4A60066   4.331   5.870   7.355
10269POPC   C1B60067   4.300   5.659   6.455
10269POPC   C2B60068   4.346   5.664   6.755
10269POPC   C3B60069   4.357   5.611   7.055
10269POPC   C4B60070   4.288   5.651   7.355
10270POPC   NC360071  34.590  29.964   5.555
10270POPC   PO460072  34.534  29.908   5.855
10270POPC   GL160073  34.611  29.916   6.155
10270POPC   GL260074  34.462  29.891   6.155
10270POPC   C1A60075  34.576  29.944   6.455
10270POPC   D2A60076  34.559  29.952   6.755
10270POPC   C3A60077  34.532  29.904   7.055
10270POPC   C4A60078  34.571  29.895   7.355
10270POPC   C1B60079  34.325  29.847   6.455
10270POPC   C2B60080  34.398  29.763   6.755
10270POPC   C3B60081  34.367  29.847   7.055
10270POPC   C4B60082  34.373  29.845   7.355
10271POPC   NC360083  44.711  15.913   5.555
10271POPC   PO460084  44.664  15.962   5.855
10271POPC   GL160085  44.661  15.985   6.155
10271POPC   GL260086  44.825  15.929   6.155
10271POPC   C1A60087  44.672  15.946   6.455
10271POPC   D2A60088  44.614  15.959   6.755
10271POPC   C3A60089  44.698  15.928   7.055
10271POPC   C4A60090  44.661  15.918   7.355
10271POPC   C1B60091  44.911  15.958   6.455
10271POPC   C2B60092  44.859  16.039   6.755
10271POPC   C3B60093  44.872  16.029   7.055
10271POPC   C4B60094  44.916  16.045   7.355
10272POPC   NC360095  24.464  21.386   5.555
10272POPC   PO460096  24.452  21.339   5.855
10272POPC   GL160097  24.520  21.393   6.155
10272POPC   GL260098  24.550  21.221   6.155
10272POPC   C1A60099  24.501  21.414   6.455
10272POPC   D2A60100  24.518  21.394   6.755
10272POPC   C3A60101  24.514  21.403   7.055
10272POPC   C4A60102  24.525  21.391   7.355
10272POPC   C1B60103  24.552  21.123   6.455
10272POPC   C2B60104  24.474  21.156   6.755
10272POPC   C3B60105  24.511  21.144   7.055
10272POPC   C4B60106  24.549  21.151   7.355
10273POPC   NC360107  14.362  36.885   5.555
10273POPC   PO460108  14.377  36.887   5.855
10273POPC   GL160109  14.405  36.904   6.155
10273POPC   GL260110  14.416  36.803   6.155
10273POPC   C1A60111  14.368  36.917   6.455
10273POPC   D2A60112  14.407  36.940   6.755
10273POPC   C3A60113  14.451  36.873   7.055
10273POPC   C4A60114  14.413  36.873   7.355
10273POPC   C1B60115  14.473  36.625   6.455
10273POPC   C2B60116  14.441  36.621   6.755
10273POPC   C3B60117  14.458  36.677   7.055
10273POPC   C4B60118  14.463  36.650   7.355
10274POPC   NC360119  22.126  35.322   5.555
10274POPC   PO460120  22.204  35.317   5.855
10274POPC   GL160121  22.194  35.337   6.155
10274POPC   GL260122  22.228  35.323   6.155
10274POPC   C1A60123  22.114  35.358   6.455
10274POPC   D2A60124  22.202  35.361   6.755
10274POPC   C3A60125  22.180  35.305   7.055
10274POPC   C4A60126  22.140  35.374   7.355
10274POPC   C1B60127  22.373  35.175   6.455
10274POPC   C2B60128  22.323  35.213   6.755
10274POPC   C3B60129  22.363  35.172   7.055
10274POPC   C4B60130  22.394  35.191   7.355
10275POPC   NC360131  42.382   1.973   5.555
10275POPC   PO460132  42.357   1.992   5.855
10275POPC   GL160133  42.326   1.960   6.155
10275POPC   GL260134  42.319   1.922   6.155
10275POPC   C1A60135  42.312   1.970   6.455
10275POPC   D2A60136  42.354   1.945   6.755
10275POPC   C3A60137  42.347   1.997   7.055
10275POPC   C4A60138  42.365   2.010   7.355
10275POPC   C1B60139  42.219   1.739   6.455
10275POPC   C2B60140  42.187   1.802   6.755
10275POPC   C3B60141  42.246   1.799   7.055
10275POPC   C4B60142  42.223   1.813   7.355
10276POPC   NC360143  36.859  14.436   5.555
10276POPC   PO460144  36.906  14.390   5.855
10276POPC   GL160145  36.878  14.373   6.155
10276POPC   GL260146  36.846  14.447   6.155
10276POPC   C1A60147  36.888  14.391   6.455
10276POPC   D2A60148  36.920  14.401   6.755
10276POPC   C3A60149  36.928  14.397   7.055
10276POPC   C4A60150  36.904  14.371   7.355
10276POPC   C1B60151  36.728  14.570   6.455
10276POPC   C2B60152  36.707  14.509   6.755
10276POPC   C3B60153  36.712  14.568   7.055
10276POPC   C4B60154  36.646  14.514   7.355
10277POPC   NC360155  39.202  15.954   5.555
10277POPC   PO460156  39.220  15.993   5.855
10277POPC   GL160157  39.198  15.983   6.155
10277POPC   GL260158  39.281  15.814   6.155
10277POPC   C1A60159  39.232  15.999   6.455
10277POPC   D2A60160  39.270  15.970   6.755
10277POPC   C3A60161  39.191  15.921   7.055
10277POPC   C4A60162  39.246  15.955   7.355
10277POPC   C1B60163  39.342  15.740   6.455
10277POPC   C2B60164  39.286  15.714   6.755
10277POPC   C3B60165  39.281  15.705   7.055
10277POPC   C4B60166  39.322  15.707   7.355
10278POPC   NC360167  10.489  26.017   5.555
10278POPC   PO460168  10.512  26.046   5.855
10278POPC   GL160169  10.574  26.082   6.155
10278POPC   GL260170  10.547  25.936   6.155
10278POPC   C1A60171  10.534  25.995   6.455
10278POPC   D2A60172  10.484  26.046   6.755
10278POPC   C3A60173  10.539  26.042   7.055
10278POPC   C4A60174  10.533  26.047   7.355
10278POPC   C1B60175  10.536  25.786   6.455
10278POPC   C2B60176  10.534  25.776   6.755
10278POPC   C3B60177  10.555  25.742   7.055
10278POPC   C4B60178  10.495  25.840   7.355
10279POPC   NC360179   2.020  15.989   5.555
10279POPC   PO460180   2.012  15.959   5.855
10279POPC   GL160181   1.977  15.929   6.155
10279POPC   GL260182   1.886  15.933   6.155
10279POPC   C1A60183   1.970  15.989   6.455
10279POPC   D2A60184   1.951  15.992   6.755
10279POPC   C3A60185   1.949  15.951   7.055
10279POPC   C4A60186   1.968  15.930   7.355
10279POPC   C1B60187   1.722  15.945   6.455
10279POPC   C2B60188   1.732  15.886   6.755
10279POPC   C3B60189   1.787  15.879   7.055
10279POPC   C4B60190   1.743  15.957   7.355
10280POPC   NC360191  19.848  22.954   5.555
10280POPC   PO460192  19.793  22.927   5.855
10280POPC   GL160193  19.833  22.949   6.155
10280POPC   GL260194  19.844  23.053   6.155
10280POPC   C1A60195  19.828  22.904   6.455
10280POPC   D2A60196  19.785  22.906   6.755
10280POPC   C3A60197  19.793  22.892   7.055
10280POPC   C4A60198  19.818  22.938   7.355
10280POPC   C1B60199  19.862  23.195   6.455
10280POPC   C2B60200  19.864  23.130   6.755
10280POPC   C3B60201  19.871  23.224   7.055
10280POPC   C4B60202  19.899  23.216   7.355
10281POPC   NC360203  16.705  30.711   5.555
10281POPC   PO460204  16.746  30.687   5.855
10281POPC   GL160205  16.758  30.657   6.155
10281POPC   GL260206  16.836  30.748   6.155
10281POPC   C1A60207  16.741  30.680   6.455
10281POPC   D2A60208  16.745  30.664   6.755
10281POPC   C3A60209  16.779  30.688   7.055
10281POPC   C4A60210  16.726  30.679   7.355
10281POPC   C1B60211  16.845  30.862   6.455
10281POPC   C2B60212  16.912  30.855   6.755
10281POPC   C3B60213  16.908  30.920   7.055
10281POPC   C4B60214  16.936  30.861   7.355
10282POPC   NC360215  18.280  23.719   5.555
10282POPC   PO460216  18.282  23.736   5.855
10282POPC   GL160217  18.238  23.725   6.155
10282POPC   GL260218  18.259  23.806   6.155
10282POPC   C1A60219  18.326  23.740   6.455
10282POPC   D2A60220  18.309  23.687   6.755
10282POPC   C3A60221  18.286  23.666   7.055
10282POPC   C4A60222  18.293  23.704   7.355
10282POPC   C1B60223  18.320  23.987   6.455
10282POPC   C2B60224  18.308  23.933   6.755
10282POPC   C3B60225  18.306  24.008   7.055
10282POPC   C4B60226  18.354  23.938   7.355
10283POPC   NC360227  12.100  39.989   5.555
10283POPC   PO460228  12.097  40.047   5.855
10283POPC   GL160229  12.078  40.014   6.155
10283POPC   GL260230  12.090  39.850   6.155
10283POPC   C1A60231  12.078  40.049   6.455
10283POPC   D2A60232  12.076  40.052   6.755
10283POPC   C3A60233  12.081  40.029   7.055
10283POPC   C4A60234  12.051  39.983   7.355
10283POPC   C1B60235  12.129  39.795   6.455
10283POPC   C2B60236  12.159  39.762   6.755
10283POPC   C3B60237  12.138  39.757   7.055
10283POPC   C4B60238  12.145  39.767   7.355
10284POPC   NC360239   3.578   3.497   5.555
10284POPC   PO460240   3.558   3.515   5.855
10284POPC   GL160241   3.511   3.540   6.155
10284POPC   GL260242   3.610   3.421   6.155
10284POPC   C1A60243   3.586   3.538   6.455
10284POPC   D2A60244   3.564   3.530   6.755
10284POPC   C3A60245   3.590   3.503   7.055
10284POPC   C4A60246   3.541   3.509   7.355
10284POPC   C1B60247   3.668   3.345   6.455
10284POPC   C2B60248   3.685   3.392   6.755
10284POPC   C3B60249   3.710   3.404   7.055
10284POPC   C4B60250   3.664   3.370   7.355
10285POPC   NC360251  22.959  13.633   5.555
10285POPC   PO460252  22.929  13.593   5.855
10285POPC   GL160253  22.917  13.633   6.155
10285POPC   GL260254  22.784  13.645   6.155
10285POPC   C1A60255  22.945  13.631   6.455
10285POPC   D2A60256  22.964  13.668   6.755
10285POPC   C3A60257  22.956  13.609   7.055
10285POPC   C4A60258  22.959  13.581   7.355
10285POPC   C1B60259  22.703  13.557   6.455
10285POPC   C2B60260  22.686  13.583   6.755
10285POPC   C3B60261  22.672  13.649   7.055
10285POPC   C4B60262  22.690  13.590   7.355
10286POPC   NC360263   8.989  28.328   5.555
10286POPC   PO460264   9.017  28.375   5.855
10286POPC   GL160265   8.946  28.342   6.155
10286POPC   GL260266   9.044  28.276   6.155
10286POPC   C1A60267   9.007  28.357   6.455
10286POPC   D2A60268   8.927  28.403   6.755
10286POPC   C3A60269   8.961  28.375   7.055
10286POPC   C4A60270   8.981  28.394   7.355
10286POPC   C1B60271   9.087  28.158   6.455
10286POPC   C2B60272   9.091  28.103   6.755
10286POPC   C3B60273   9.093  28.083   7.055
10286POPC   C4B60274   9.025  28.084   7.355
10287POPC   NC360275  12.099  13.634   5.555
10287POPC   PO460276  12.028  13.645   5.855
10287POPC   GL160277  12.125  13.618   6.155
10287POPC   GL260278  12.209  13.624   6.155
10287POPC   C1A60279  12.082  13.599   6.455
10287POPC   D2A60280  12.087  13.654   6.755
10287POPC   C3A60281  12.120  13.676   7.055
10287POPC   C4A60282  12.026  13.647   7.355
10287POPC   C1B60283  12.341  13.709   6.455
10287POPC   C2B60284  12.281  13.671   6.755
10287POPC   C3B60285  12.340  13.677   7.055
10287POPC   C4B60286  12.323  13.706   7.355
10288POPC   NC360287   4.325   8.239   5.555
10288POPC   PO460288   4.328   8.236   5.855
10288POPC   GL160289   4.360   8.209   6.155
10288POPC   GL260290   4.254   8.344   6.155
10288POPC   C1A60291   4.311   8.189   6.455
10288POPC   D2A60292   4.360   8.236   6.755
10288POPC   C3A60293   4.337   8.158   7.055
10288POPC   C4A60294   4.273   8.221   7.355
10288POPC   C1B60295   4.299   8.398   6.455
10288POPC   C2B60296   4.277   8.466   6.755
10288POPC   C3B60297   4.244   8.437   7.055
10288POPC   C4B60298   4.244   8.419   7.355
10289POPC   NC360299  19.826  44.632   5.555
10289POPC   PO460300  19.856  44.694   5.855
10289POPC   GL160301  19.860  44.657   6.155
10289POPC   GL260302  19.901  44.554   6.155
10289POPC   C1A60303  19.859  44.641   6.455
10289POPC   D2A60304  19.832  44.635   6.755
10289POPC   C3A60305  19.855  44.624   7.055
10289POPC   C4A60306  19.802  44.712   7.355
10289POPC   C1B60307  19.978  44.465   6.455
10289POPC   C2B60308  20.019  44.495   6.755
10289POPC   C3B60309  20.043  44.482   7.055
10289POPC   C4B60310  20.076  44.473   7.355
10290POPC   NC360311  22.181  12.087   5.555
10290POPC   PO460312  22.198  12.093   5.855
10290POPC   GL160313  22.179  12.076   6.155
10290POPC   GL260314  22.320  12.009   6.155
10290POPC   C1A60315  22.124  12.066   6.455
10290POPC   D2A60316  22.157  12.119   6.755
10290POPC   C3A60317  22.172  12.070   7.055
10290POPC   C4A60318  22.115  12.049   7.355
10290POPC   C1B60319  22.405  11.923   6.455
10290POPC   C2B60320  22.342  11.963   6.755
10290POPC   C3B60321  22.408  11.934   7.055
10290POPC   C4B60322  22.417  11.925   7.355
10291POPC   NC360323   5.053  40.009   5.555
10291POPC   PO460324   5.054  40.055   5.855
10291POPC   GL160325   5.140  40.016   6.155
10291POPC   GL260326   4.984  39.957   6.155
10291POPC   C1A60327   5.057  40.018   6.455
10291POPC   D2A60328   5.111  40.004   6.755
10291POPC   C3A60329   5.101  40.048   7.055
10291POPC   C4A60330   5.110  39.982   7.355
10291POPC   C1B60331   4.909  39.847   6.455
10291POPC   C2B60332   4.925  39.784   6.755
10291POPC   C3B60333   4.934  39.849   7.055
10291POPC   C4B60334   4.982  39.861   7.355
10292POPC   NC360335   8.976  24.534   5.555
10292POPC   PO460336   8.934  24.464   5.855
10292POPC   GL160337   8.939  24.487   6.155
10292POPC   GL260338   9.095  24.472   6.155
10292POPC   C1A60339   8.927  24.529   6.455
10292POPC   D2A60340   8.937  24.441   6.755
10292POPC   C3A60341   8.955  24.451   7.055
10292POPC   C4A60342   8.951  24.493   7.355
10292POPC   C1B60343   9.147  24.358   6.455
10292POPC   C2B60344   9.175  24.341   6.755
10292POPC   C3B60345   9.150  24.356   7.055
10292POPC   C4B60346   9.155  24.328   7.355
10293POPC   NC360347  22.974  14.443   5.555
10293POPC   PO460348  22.981  14.400   5.855
10293POPC   GL160349  22.908  14.425   6.155
10293POPC   GL260350  23.018  14.465   6.155
10293POPC   C1A60351  22.967  14.355   6.455
10293POPC   D2A60352  22.971  14.447   6.755
10293POPC   C3A60353  22.934  14.380   7.055
10293POPC   C4A60354  22.931  14.364   7.355
10293POPC   C1B60355  23.086  14.549   6.455
10293POPC   C2B60356  23.121  14.591   6.755
10293POPC   C3B60357  23.136  14.546   7.055
10293POPC   C4B60358  23.080  14.608   7.355
10294POPC   NC360359  14.370   7.404   5.555
10294POPC   PO460360  14.385   7.450   5.855
10294POPC   GL160361  14.422   7.460   6.155
10294POPC   GL260362  14.398   7.499   6.155
10294POPC   C1A60363  14.425   7.453   6.455
10294POPC   D2A60364  14.359   7.381   6.755
10294POPC   C3A60365  14.448   7.386   7.055
10294POPC   C4A60366  14.437   7.403   7.355
10294POPC   C1B60367  14.477   7.618   6.455
10294POPC   C2B60368  14.488   7.636   6.755
10294POPC   C3B60369  14.472   7.616   7.055
10294POPC   C4B60370  14.454   7.644   7.355
10295POPC   NC360371  27.555  29.965   5.555
10295POPC   PO460372  27.615  29.962   5.855
10295POPC   GL160373  27.547  29.894   6.155
10295POPC   GL260374  27.650  29.766   6.155
10295POPC   C1A60375  27.569  29.965   6.455
10295POPC   D2A60376  27.621  29.921   6.755
10295POPC   C3A60377  27.556  29.962   7.055
10295POPC   C4A60378  27.549  29.910   7.355
10295POPC   C1B60379  27.612  29.628   6.455
10295POPC   C2B60380  27.627  29.676   6.755
10295POPC   C3B60381  27.681  29.630   7.055
10295POPC   C4B60382  27.696  29.678   7.355
10296POPC   NC360383  36.941  19.035   5.555
10296POPC   PO460384  36.926  19.067   5.855
10296POPC   GL160385  36.857  19.105   6.155
10296POPC   GL260386  36.749  19.088   6.155
10296POPC   C1A60387  36.935  19.106   6.455
10296POPC   D2A60388  36.884  19.087   6.755
10296POPC   C3A60389  36.898  19.034   7.055
10296POPC   C4A60390  36.931  19.088   7.355
10296POPC   C1B60391  36.659  19.123   6.455
10296POPC   C2B60392  36.704  19.117   6.755
10296POPC   C3B60393  36.689  19.104   7.055
10296POPC   C4B60394  36.679  19.118   7.355
10297POPC   NC360395  20.603   1.216   5.555
10297POPC   PO460396  20.566   1.190   5.855
10297POPC   GL160397  20.613   1.257   6.155
10297POPC   GL260398  20.655   1.284   6.155
10297POPC   C1A60399  20.561   1.192   6.455
10297POPC   D2A60400  20.618   1.165   6.755
10297POPC   C3A60401  20.609   1.192   7.055
10297POPC   C4A60402  20.594   1.236   7.355
10297POPC   C1B60403  20.724   1.396   6.455
10297POPC   C2B60404  20.751   1.444   6.755
10297POPC   C3B60405  20.764   1.433   7.055
10297POPC   C4B60406  20.787   1.467   7.355
10298POPC   NC360407  13.631  19.832   5.555
10298POPC   PO460408  13.610  19.873   5.855
10298POPC   GL160409  13.634  19.874   6.155
10298POPC   GL260410  13.555  19.884   6.155
10298POPC   C1A60411  13.653  19.860   6.455
10298POPC   D2A60412  13.599  19.800   6.755
10298POPC   C3A60413  13.627  19.834   7.055
10298POPC   C4A60414  13.653  19.822   7.355
10298POPC   C1B60415  13.424  20.041   6.455
10298POPC   C2B60416  13.476  20.059   6.755
10298POPC   C3B60417  13.454  20.067   7.055
10298POPC   C4B60418  13.504  20.036   7.355
10299POPC   NC360419  36.118  40.796   5.555
10299POPC   PO460420  36.123  40.767   5.855
10299POPC   GL160421  36.085  40.784   6.155
10299POPC   GL260422  35.990  40.828   6.155
10299POPC   C1A60423  36.145  40.795   6.455
10299POPC   D2A60424  36.084  40.767   6.755
10299POPC   C3A60425  36.078  40.786   7.055
10299POPC   C4A60426  36.165  40.752   7.355
10299POPC   C1B60427  35.849  40.822   6.455
10299POPC   C2B60428  35.848  40.853   6.755
10299POPC   C3B60429  35.857  40.794   7.055
10299POPC   C4B60430  35.927  40.878   7.355
10300POPC   NC360431  26.854   3.527   5.555
10300POPC   PO460432  26.778   3.520   5.855
10300POPC   GL160433  26.818   3.498   6.155
10300POPC   GL260434  26.964   3.577   6.155
10300POPC   C1A60435  26.804   3.499   6.455
10300POPC   D2A60436  26.843   3.577   6.755
10300POPC   C3A60437  26.848   3.545   7.055
10300POPC   C4A60438  26.838   3.527   7.355
10300POPC   C1B60439  27.050   3.698   6.455
10300POPC   C2B60440  27.015   3.658   6.755
10300POPC   C3B60441  27.018   3.618   7.055
10300POPC   C4B60442  27.016   3.648   7.355
10301POPC   NC360443   8.189  35.387   5.555
10301POPC   PO460444   8.198  35.360   5.855
10301POPC   GL160445   8.226  35.349   6.155
10301POPC   GL260446   8.209  35.257   6.155
10301POPC   C1A60447   8.176  35.341   6.455
10301POPC   D2A60448   8.206  35.341   6.755
10301POPC   C3A60449   8.221  35.340   7.055
10301POPC   C4A60450   8.213  35.316   7.355
10301POPC   C1B60451   8.162  35.130   6.455
10301POPC   C2B60452   8.086  35.063   6.755
10301POPC   C3B60453   8.123  35.160   7.055
10301POPC   C4B60454   8.091  35.120   7.355
10302POPC   NC360455   7.420  43.061   5.555
10302POPC   PO460456   7.383  43.149   5.855
10302POPC   GL160457   7.458  43.093   6.155
10302POPC   GL260458   7.357  43.047   6.155
10302POPC   C1A60459   7.398  43.147   6.455
10302POPC   D2A60460   7.457  43.154   6.755
10302POPC   C3A60461   7.442  43.123   7.055
10302POPC   C4A60462   7.434  43.124   7.355
10302POPC   C1B60463   7.229  42.989   6.455
10302POPC   C2B60464   7.216  42.972   6.755
10302POPC   C3B60465   7.232  43.041   7.055
10302POPC   C4B60466   7.147  42.983   7.355
10303POPC   NC360467  19.833   9.747   5.555
10303POPC   PO460468  19.853   9.765   5.855
10303POPC   GL160469  19.785   9.704   6.155
10303POPC   GL260470  19.819   9.667   6.155
10303POPC   C1A60471  19.841   9.755   6.455
10303POPC   D2A60472  19.852   9.712   6.755
10303POPC   C3A60473  19.863   9.722   7.055
10303POPC   C4A60474  19.855   9.794   7.355
10303POPC   C1B60475  19.744   9.517   6.455
10303POPC   C2B60476  19.707   9.524   6.755
10303POPC   C3B60477  19.784   9.560   7.055
10303POPC   C4B60478  19.738   9.536   7.355
10304POPC   NC360479  32.260   4.316   5.555
10304POPC   PO460480  32.286   4.356   5.855
10304POPC   GL160481  32.268   4.303   6.155
10304POPC   GL260482  32.413   4.306   6.155
10304POPC   C1A60483  32.221   4.312   6.455
10304POPC   D2A60484  32.295   4.346   6.755
10304POPC   C3A60485  32.217   4.289   7.055
10304POPC   C4A60486  32.282   4.322   7.355
10304POPC   C1B60487  32.447   4.258   6.455
10304POPC   C2B60488  32.447   4.252   6.755
10304POPC   C3B60489  32.529   4.231   7.055
10304POPC   C4B60490  32.505   4.213   7.355
10305POPC   NC360491  39.228   1.973   5.555
10305POPC   PO460492  39.206   1.979   5.855
10305POPC   GL160493  39.239   2.006   6.155
10305POPC   GL260494  39.344   1.878   6.155
10305POPC   C1A60495  39.208   1.942   6.455
10305POPC   D2A60496  39.216   1.977   6.755
10305POPC   C3A60497  39.213   1.955   7.055
10305POPC   C4A60498  39.256   2.037   7.355
10305POPC   C1B60499  39.322   1.737   6.455
10305POPC   C2B60500  39.383   1.797   6.755
10305POPC   C3B60501  39.375   1.818   7.055
10305POPC   C4B60502  39.406   1.787   7.355
10306POPC   NC360503  21.378  17.545   5.555
10306POPC   PO460504  21.434  17.536   5.855
10306POPC   GL160505  21.411  17.526   6.155
10306POPC   GL260506  21.545  17.549   6.155
10306POPC   C1A60507  21.341  17.460   6.455
10306POPC   D2A60508  21.403  17.535   6.755
10306POPC   C3A60509  21.382  17.554   7.055
10306POPC   C4A60510  21.368  17.510   7.355
10306POPC   C1B60511  21.628  17.633   6.455
10306POPC   C2B60512  21.592  17.586   6.755
10306POPC   C3B60513  21.601  17.572   7.055
10306POPC   C4B60514  21.571  17.626   7.355
10307POPC   NC360515   8.203  25.282   5.555
10307POPC   PO460516   8.208  25.260   5.855
10307POPC   GL160517   8.232  25.252   6.155
10307POPC   GL260518   8.285  25.318   6.155
10307POPC   C1A60519   8.217  25.246   6.455
10307POPC   D2A60520   8.224  25.240   6.755
10307POPC   C3A60521   8.225  25.223   7.055
10307POPC   C4A60522   8.201  25.305   7.355
10307POPC   C1B60523   8.329  25.442   6.455
10307POPC   C2B60524   8.348  25.436   6.755
10307POPC   C3B60525   8.374  25.466   7.055
10307POPC   C4B60526   8.377  25.477   7.355
10308POPC   NC360527  13.659  16.738   5.555
10308POPC   PO460528  13.643  16.726   5.855
10308POPC   GL160529  13.644  16.706   6.155
10308POPC   GL260530  13.711  16.585   6.155
10308POPC   C1A60531  13.643  16.746   6.455
10308POPC   D2A60532  13.641  16.744   6.755
10308POPC   C3A60533  13.599  16.701   7.055
10308POPC   C4A60534  13.659  16.722   7.355
10308POPC   C1B60535  13.665  16.530   6.455
10308POPC   C2B60536  13.732  16.509   6.755
10308POPC   C3B60537  13.712  16.466   7.055
10308POPC   C4B60538  13.707  16.538   7.355
10309POPC   NC360539  40.034  41.530   5.555
10309POPC   PO460540  40.006  41.604   5.855
10309POPC   GL160541  39.998  41.603   6.155
10309POPC   GL260542  40.056  41.488   6.155
10309POPC   C1A60543  40.021  41.598   6.455
10309POPC   D2A60544  39.987  41.608   6.755
10309POPC   C3A60545  39.993  41.579   7.055
10309POPC   C4A60546  40.001  41.515   7.355
10309POPC   C1B60547  40.139  41.358   6.455
10309POPC   C2B60548  40.111  41.359   6.755
10309POPC   C3B60549  40.158  41.344   7.055
10309POPC   C4B60550  40.150  41.311   7.355
10310POPC   NC360551  41.560  15.956   5.555
10310POPC   PO460552  41.522  15.951   5.855
10310POPC   GL160553  41.522  15.953   6.155
10310POPC   GL260554  41.691  15.983   6.155
10310POPC   C1A60555  41.514  15.940   6.455
10310POPC   D2A60556  41.514  16.001   6.755
10310POPC   C3A60557  41.548  15.976   7.055
10310POPC   C4A60558  41.520  15.927   7.355
10310POPC   C1B60559  41.793  16.071   6.455
10310POPC   C2B60560  41.792  16.065   6.755
10310POPC   C3B60561  41.737  16.110   7.055
10310POPC   C4B60562  41.788  16.115   7.355
10311POPC   NC360563  21.356  36.127   5.555
10311POPC   PO460564  21.400  36.114   5.855
10311POPC   GL160565  21.378  36.116   6.155
10311POPC   GL260566  21.497  36.048   6.155
10311POPC   C1A60567  21.393  36.123   6.455
10311POPC   D2A60568  21.397  36.110   6.755
10311POPC   C3A60569  21.338  36.119   7.055
10311POPC   C4A60570  21.364  36.098   7.355
10311POPC   C1B60571  21.595  36.078   6.455
10311POPC   C2B60572  21.600  36.064   6.755
10311POPC   C3B60573  21.585  35.996   7.055
10311POPC   C4B60574  21.667  36.082   7.355
10312POPC   NC360575   0.457  11.264   5.555
10312POPC   PO460576   0.474  11.280   5.855
10312POPC   GL160577   0.416  11.342   6.155
10312POPC   GL260578   0.543  11.257   6.155
10312POPC   C1A60579   0.463  11.256   6.455
10312POPC   D2A60580   0.390  11.322   6.755
10312POPC   C3A60581   0.437  11.331   7.055
10312POPC   C4A60582   0.434  11.285   7.355
10312POPC   C1B60583   0.711  11.235   6.455
10312POPC   C2B60584   0.678  11.234   6.755
10312POPC   C3B60585   0.678  11.267   7.055
10312POPC   C4B60586   0.649  11.202   7.355
10313POPC   NC360587  35.373  33.065   5.555
10313POPC   PO460588  35.384  32.988   5.855
10313POPC   GL160589  35.369  33.030   6.155
10313POPC   GL260590  35.465  33.064   6.155
10313POPC   C1A60591  35.355  33.053   6.455
10313POPC   D2A60592  35.351  33.023   6.755
10313POPC   C3A60593  35.370  33.030   7.055
10313POPC   C4A60594  35.306  33.017   7.355
10313POPC   C1B60595  35.564  33.201   6.455
10313POPC   C2B60596  35.577  33.170   6.755
10313POPC   C3B60597  35.505  33.225   7.055
10313POPC   C4B60598  35.525  33.146   7.355
10314POPC   NC360599  25.256  20.582   5.555
10314POPC   PO460600  25.273  20.577   5.855
10314POPC   GL160601  25.288  20.628   6.155
10314POPC   GL260602  25.314  20.493   6.155
10314POPC   C1A60603  25.275  20.652   6.455
10314POPC   D2A60604  25.244  20.644   6.755
10314POPC   C3A60605  25.244  20.614   7.055
10314POPC   C4A60606  25.248  20.591   7.355
10314POPC   C1B60607  25.490  20.491   6.455
10314POPC   C2B60608  25.508  20.458   6.755
10314POPC   C3B60609  25.482  20.410   7.055
10314POPC   C4B60610  25.435  20.485   7.355
10315POPC   NC360611   4.308  17.460   5.555
10315POPC   PO460612   4.273  17.486   5.855
10315POPC   GL160613   4.282  17.530   6.155
10315POPC   GL260614   4.490  17.458   6.155
10315POPC   C1A60615   4.296  17.505   6.455
10315POPC   D2A60616   4.276  17.492   6.755
10315POPC   C3A60617   4.269  17.469   7.055
10315POPC   C4A60618   4.292  17.548   7.355
10315POPC   C1B60619   4.569  17.482   6.455
10315POPC   C2B60620   4.574  17.533   6.755
10315POPC   C3B60621   4.596  17.481   7.055
10315POPC   C4B60622   4.589  17.517   7.355
10316POPC   NC360623   8.991   7.438   5.555
10316POPC   PO460624   8.954   7.468   5.855
10316POPC   GL160625   9.010   7.390   6.155
10316POPC   GL260626   8.852   7.334   6.155
10316POPC   C1A60627   8.984   7.445   6.455
10316POPC   D2A60628   8.982   7.390   6.755
10316POPC   C3A60629   9.002   7.462   7.055
10316POPC   C4A60630   8.952   7.437   7.355
10316POPC   C1B60631   8.750   7.272   6.455
10316POPC   C2B60632   8.803   7.265   6.755
10316POPC   C3B60633   8.795   7.245   7.055
10316POPC   C4B60634   8.783   7.274   7.355
10317POPC   NC360635  32.268   2.033   5.555
10317POPC   PO460636  32.240   2.016   5.855
10317POPC   GL160637  32.227   1.942   6.155
10317POPC   GL260638  32.295   2.144   6.155
10317POPC   C1A60639  32.277   1.997   6.455
10317POPC   D2A60640  32.279   1.999   6.755
10317POPC   C3A60641  32.234   1.971   7.055
10317POPC   C4A60642  32.229   1.980   7.355
10317POPC   C1B60643  32.340   2.184   6.455
10317POPC   C2B60644  32.304   2.188   6.755
10317POPC   C3B60645  32.307   2.253   7.055
10317POPC   C4B60646  32.358   2.274   7.355
10318POPC   NC360647  42.350  44.627   5.555
10318POPC   PO460648  42.323  44.706   5.855
10318POPC   GL160649  42.324  44.661   6.155
10318POPC   GL260650  42.299  44.818   6.155
10318POPC   C1A60651  42.325  44.656   6.455
10318POPC   D2A60652  42.358  44.676   6.755
10318POPC   C3A60653  42.338  44.701   7.055
10318POPC   C4A60654  42.382  44.698   7.355
10318POPC   C1B60655  42.284  44.920   6.455
10318POPC   C2B60656  42.280  44.890   6.755
10318POPC   C3B60657  42.268  44.882   7.055
10318POPC   C4B60658  42.308  44.909   7.355
10319POPC   NC360659   4.362  19.813   5.555
10319POPC   PO460660   4.316  19.838   5.855
10319POPC   GL160661   4.335  19.856   6.155
10319POPC   GL260662   4.186  19.802   6.155
10319POPC   C1A60663   4.352  19.814   6.455
10319POPC   D2A60664   4.349  19.808   6.755
10319POPC   C3A60665   4.271  19.883   7.055
10319POPC   C4A60666   4.336  19.800   7.355
10319POPC   C1B60667   4.099  19.821   6.455
10319POPC   C2B60668   4.049  19.854   6.755
10319POPC   C3B60669   4.110  19.878   7.055
10319POPC   C4B60670   4.088  19.797   7.355
10320POPC   NC360671  36.131  12.871   5.555
10320POPC   PO460672  36.158  12.898   5.855
10320POPC   GL160673  36.100  12.866   6.155
10320POPC   GL260674  36.196  12.773   6.155
10320POPC   C1A60675  36.137  12.831   6.455
10320POPC   D2A60676  36.130  12.821   6.755
10320POPC   C3A60677  36.086  12.826   7.055
10320POPC   C4A60678  36.108  12.836   7.355
10320POPC   C1B60679  36.321  12.635   6.455
10320POPC   C2B60680  36.294  12.705   6.755
10320POPC   C3B60681  36.347  12.648   7.055
10320POPC   C4B60682  36.323  12.631   7.355
10321POPC   NC360683  43.885  42.289   5.555
10321POPC   PO460684  43.914  42.311   5.855
10321POPC   GL160685  43.837  42.304   6.155
10321POPC   GL260686  43.792  42.283   6.155
10321POPC   C1A60687  43.847  42.343   6.455
10321POPC   D2A60688  43.902  42.358   6.755
10321POPC   C3A60689  43.886  42.313   7.055
10321POPC   C4A60690  43.882  42.356   7.355
10321POPC   C1B60691  43.678  42.278   6.455
10321POPC   C2B60692  43.684  42.287   6.755
10321POPC   C3B60693  43.603  42.288   7.055
10321POPC   C4B60694  43.649  42.311   7.355
10322POPC   NC360695   8.170  26.070   5.555
10322POPC   PO460696   8.151  25.993   5.855
10322POPC   GL160697   8.216  26.004   6.155
10322POPC   GL260698   8.211  26.115   6.155
10322POPC   C1A60699   8.150  26.002   6.455
10322POPC   D2A60700   8.238  26.029   6.755
10322POPC   C3A60701   8.209  26.020   7.055
10322POPC   C4A60702   8.207  25.998   7.355
10322POPC   C1B60703   8.306  26.282   6.455
10322POPC   C2B60704   8.229  26.327   6.755
10322POPC   C3B60705   8.291  26.261   7.055
10322POPC   C4B60706   8.255  26.249   7.355
10323POPC   NC360707   1.246  39.207   5.555
10323POPC   PO460708   1.207  39.197   5.855
10323POPC   GL160709   1.204  39.260   6.155
10323POPC   GL260710   1.193  39.325   6.155
10323POPC   C1A60711   1.229  39.209   6.455
10323POPC   D2A60712   1.178  39.238   6.755
10323POPC   C3A60713   1.200  39.249   7.055
10323POPC   C4A60714   1.217  39.226   7.355
10323POPC   C1B60715   1.184  39.437   6.455
10323POPC   C2B60716   1.140  39.510   6.755
10323POPC   C3B60717   1.188  39.469   7.055
10323POPC   C4B60718   1.098  39.437   7.355
10324POPC   NC360719   6.600  11.293   5.555
10324POPC   PO460720   6.679  11.316   5.855
10324POPC   GL160721   6.660  11.300   6.155
10324POPC   GL260722   6.630  11.220   6.155
10324POPC   C1A60723   6.629  11.349   6.455
10324POPC   D2A60724   6.627  11.279   6.755
10324POPC   C3A60725   6.611  11.303   7.055
10324POPC   C4A60726   6.654  11.287   7.355
10324POPC   C1B60727   6.680  11.013   6.455
10324POPC   C2B60728   6.655  11.104   6.755
10324POPC   C3B60729   6.680  11.104   7.055
10324POPC   C4B60730   6.656  11.014   7.355
10325POPC   NC360731   5.094  29.946   5.555
10325POPC   PO460732   5.052  29.931   5.855
10325POPC   GL160733   5.089  29.951   6.155
10325POPC   GL260734   5.072  29.816   6.155
10325POPC   C1A60735   5.141  29.932   6.455
10325POPC   D2A60736   5.093  29.920   6.755
10325POPC   C3A60737   5.061  29.924   7.055
10325POPC   C4A60738   5.071  29.920   7.355
10325POPC   C1B60739   5.057  29.675   6.455
10325POPC   C2B60740   4.988  29.664   6.755
10325POPC   C3B60741   5.053  29.642   7.055
10325POPC   C4B60742   5.004  29.651   7.355
10326POPC   NC360743  29.927  32.263   5.555
10326POPC   PO460744  29.942  32.222   5.855
10326POPC   GL160745  29.892  32.263   6.155
10326POPC   GL260746  29.771  32.201   6.155
10326POPC   C1A60747  29.946  32.202   6.455
10326POPC   D2A60748  29.925  32.270   6.755
10326POPC   C3A60749  29.922  32.227   7.055
10326POPC   C4A60750  29.936  32.233   7.355
10326POPC   C1B60751  29.721  32.164   6.455
10326POPC   C2B60752  29.688  32.167   6.755
10326POPC   C3B60753  29.670  32.184   7.055
10326POPC   C4B60754  29.650  32.198   7.355
10327POPC   NC360755  23.682   7.435   5.555
10327POPC   PO460756  23.671   7.461   5.855
10327POPC   GL160757  23.690   7.425   6.155
10327POPC   GL260758  23.794   7.481   6.155
10327POPC   C1A60759  23.717   7.445   6.455
10327POPC   D2A60760  23.686   7.467   6.755
10327POPC   C3A60761  23.702   7.409   7.055
10327POPC   C4A60762  23.687   7.442   7.355
10327POPC   C1B60763  23.945   7.585   6.455
10327POPC   C2B60764  23.935   7.594   6.755
10327POPC   C3B60765  23.895   7.564   7.055
10327POPC   C4B60766  23.912   7.593   7.355
10328POPC   NC360767  26.021  14.358   5.555
10328POPC   PO460768  25.994  14.444   5.855
10328POPC   GL160769  26.008  14.377   6.155
10328POPC   GL260770  25.884  14.367   6.155
10328POPC   C1A60771  26.034  14.408   6.455
10328POPC   D2A60772  26.075  14.396   6.755
10328POPC   C3A60773  26.024  14.392   7.055
10328POPC   C4A60774  26.048  14.404   7.355
10328POPC   C1B60775  25.792  14.326   6.455
10328POPC   C2B60776  25.872  14.290   6.755
10328POPC   C3B60777  25.805  14.286   7.055
10328POPC   C4B60778  25.785  14.244   7.355
10329POPC   NC360779  19.821  39.260   5.555
10329POPC   PO460780  19.844  39.274   5.855
10329POPC   GL160781  19.853  39.271   6.155
10329POPC   GL260782  19.819  39.110   6.155
10329POPC   C1A60783  19.872  39.275   6.455
10329POPC   D2A60784  19.847  39.226   6.755
10329POPC   C3A60785  19.829  39.184   7.055
10329POPC   C4A60786  19.816  39.182   7.355
10329POPC   C1B60787  19.710  39.043   6.455
10329POPC   C2B60788  19.749  38.962   6.755
10329POPC   C3B60789  19.705  39.007   7.055
10329POPC   C4B60790  19.690  39.023   7.355
10330POPC   NC360791   8.934  26.779   5.555
10330POPC   PO460792   8.929  26.846   5.855
10330POPC   GL160793   9.022  26.834   6.155
10330POPC   GL260794   8.931  26.900   6.155
10330POPC   C1A60795   8.979  26.813   6.455
10330POPC   D2A60796   9.011  26.864   6.755
10330POPC   C3A60797   8.977  26.817   7.055
10330POPC   C4A60798   8.997  26.850   7.355
10330POPC   C1B60799   8.771  26.959   6.455
10330POPC   C2B60800   8.856  26.979   6.755
10330POPC   C3B60801   8.838  26.967   7.055
10330POPC   C4B60802   8.798  27.056   7.355
10331POPC   NC360803  12.817   1.229   5.555
10331POPC   PO460804  12.869   1.222   5.855
10331POPC   GL160805  12.863   1.215   6.155
10331POPC   GL260806  12.959   1.096   6.155
10331POPC   C1A60807  12.806   1.166   6.455
10331POPC   D2A60808  12.898   1.253   6.755
10331POPC   C3A60809  12.878   1.164   7.055
10331POPC   C4A60810  12.853   1.261   7.355
10331POPC   C1B60811  13.014   1.039   6.455
10331POPC   C2B60812  13.049   1.033   6.755
10331POPC   C3B60813  13.080   1.004   7.055
10331POPC   C4B60814  13.016   1.070   7.355
10332POPC   NC360815  44.620  34.614   5.555
10332POPC   PO460816  44.681  34.544   5.855
10332POPC   GL160817  44.620  34.562   6.155
10332POPC   GL260818  44.578  34.620   6.155
10332POPC   C1A60819  44.686  34.612   6.455
10332POPC   D2A60820  44.671  34.607   6.755
10332POPC   C3A60821  44.629  34.542   7.055
10332POPC   C4A60822  44.622  34.551   7.355
10332POPC   C1B60823  44.457  34.610   6.455
10332POPC   C2B60824  44.413  34.697   6.755
10332POPC   C3B60825  44.390  34.683   7.055
10332POPC   C4B60826  44.440  34.669   7.355
10333POPC   NC360827   3.574  40.782   5.555
10333POPC   PO460828   3.511  40.747   5.855
10333POPC   GL160829   3.494  40.791   6.155
10333POPC   GL260830   3.604  40.649   6.155
10333POPC   C1A60831   3.522  40.768   6.455
10333POPC   D2A60832   3.529  40.821   6.755
10333POPC   C3A60833   3.564  40.775   7.055
10333POPC   C4A60834   3.579  40.800   7.355
10333POPC   C1B60835   3.633  40.568   6.455
10333POPC   C2B60836   3.648  40.541   6.755
10333POPC   C3B60837   3.645  40.581   7.055
10333POPC   C4B60838   3.597  40.596   7.355
10334POPC   NC360839  36.859  21.378   5.555
10334POPC   PO460840  36.898  21.355   5.855
10334POPC   GL160841  36.920  21.433   6.155
10334POPC   GL260842  36.957  21.250   6.155
10334POPC   C1A60843  36.864  21.337   6.455
10334POPC   D2A60844  36.874  21.367   6.755
10334POPC   C3A60845  36.922  21.422   7.055
10334POPC   C4A60846  36.908  21.341   7.355
10334POPC   C1B60847  36.995  21.128   6.455
10334POPC   C2B60848  37.014  21.162   6.755
10334POPC   C3B60849  37.063  21.135   7.055
10334POPC   C4B60850  37.057  21.216   7.355
10335POPC   NC360851  12.877  13.655   5.555
10335POPC   PO460852  12.804  13.671   5.855
10335POPC   GL160853  12.894  13.644   6.155
10335POPC   GL260854  12.758  13.668   6.155
10335POPC   C1A60855  12.829  13.653   6.455
10335POPC   D2A60856  12.802  13.599   6.755
10335POPC   C3A60857  12.889  13.655   7.055
10335POPC   C4A60858  12.855  13.588   7.355
10335POPC   C1B60859  12.628  13.639   6.455
10335POPC   C2B60860  12.633  13.667   6.755
10335POPC   C3B60861  12.604  13.685   7.055
10335POPC   C4B60862  12.600  13.719   7.355
10336POPC   NC360863  30.663   4.363   5.555
10336POPC   PO460864  30.676   4.353   5.855
10336POPC   GL160865  30.651   4.350   6.155
10336POPC   GL260866  30.679   4.405   6.155
10336POPC   C1A60867  30.651   4.298   6.455
10336POPC   D2A60868  30.679   4.331   6.755
10336POPC   C3A60869  30.739   4.360   7.055
10336POPC   C4A60870  30.651   4.286   7.355
10336POPC   C1B60871  30.746   4.522   6.455
10336POPC   C2B60872  30.741   4.526   6.755
10336POPC   C3B60873  30.714   4.586   7.055
10336POPC   C4B60874  30.748   4.537   7.355
10337POPC   NC360875  20.583  22.160   5.555
10337POPC   PO460876  20.640  22.171   5.855
10337POPC   GL160877  20.608  22.174   6.155
10337POPC   GL260878  20.507  22.160   6.155
10337POPC   C1A60879  20.578  22.125   6.455
10337POPC   D2A60880  20.660  22.150   6.755
10337POPC   C3A60881  20.587  22.129   7.055
10337POPC   C4A60882  20.625  22.125   7.355
10337POPC   C1B60883  20.338  22.200   6.455
10337POPC   C2B60884  20.408  22.272   6.755
10337POPC   C3B60885  20.348  22.218   7.055
10337POPC   C4B60886  20.341  22.227   7.355
10338POPC   NC360887   9.705  22.146   5.555
10338POPC   PO460888   9.775  22.117   5.855
10338POPC   GL160889   9.788  22.202   6.155
10338POPC   GL260890   9.834  22.086   6.155
10338POPC   C1A60891   9.714  22.184   6.455
10338POPC   D2A60892   9.779  22.165   6.755
10338POPC   C3A60893   9.774  22.113   7.055
10338POPC   C4A60894   9.794  22.151   7.355
10338POPC   C1B60895   9.968  22.035   6.455
10338POPC   C2B60896  10.016  22.117   6.755
10338POPC   C3B60897   9.983  22.083   7.055
10338POPC   C4B60898   9.953  22.116   7.355
10339POPC   NC360899  36.088  11.299   5.555
10339POPC   PO460900  36.148  11.341   5.855
10339POPC   GL160901  36.095  11.280   6.155
10339POPC   GL260902  36.141  11.200   6.155
10339POPC   C1A60903  36.116  11.292   6.455
10339POPC   D2A60904  36.153  11.329   6.755
10339POPC   C3A60905  36.164  11.291   7.055
10339POPC   C4A60906  36.083  11.272   7.355
10339POPC   C1B60907  36.165  11.002   6.455
10339POPC   C2B60908  36.138  11.051   6.755
10339POPC   C3B60909  36.152  11.091   7.055
10339POPC   C4B60910  36.088  11.015   7.355
10340POPC   NC360911   6.677  36.864   5.555
10340POPC   PO460912   6.669  36.946   5.855
10340POPC   GL160913   6.600  36.888   6.155
10340POPC   GL260914   6.554  36.983   6.155
10340POPC   C1A60915   6.602  36.891   6.455
10340POPC   D2A60916   6.632  36.887   6.755
10340POPC   C3A60917   6.685  36.929   7.055
10340POPC   C4A60918   6.641  36.925   7.355
10340POPC   C1B60919   6.479  37.042   6.455
10340POPC   C2B60920   6.480  37.064   6.755
10340POPC   C3B60921   6.495  37.103   7.055
10340POPC   C4B60922   6.485  37.093   7.355
10341POPC   NC360923  13.655  22.172   5.555
10341POPC   PO460924  13.620  22.173   5.855
10341POPC   GL160925  13.641  22.129   6.155
10341POPC   GL260926  13.716  22.056   6.155
10341POPC   C1A60927  13.595  22.167   6.455
10341POPC   D2A60928  13.657  22.169   6.755
10341POPC   C3A60929  13.666  22.168   7.055
10341POPC   C4A60930  13.671  22.196   7.355
10341POPC   C1B60931  13.756  21.996   6.455
10341POPC   C2B60932  13.774  21.981   6.755
10341POPC   C3B60933  13.791  21.968   7.055
10341POPC   C4B60934  13.816  21.945   7.355
10342POPC   NC360935   8.161   8.983   5.555
10342POPC   PO460936   8.222   8.982   5.855
10342POPC   GL160937   8.163   8.960   6.155
10342POPC   GL260938   8.249   9.100   6.155
10342POPC   C1A60939   8.243   8.955   6.455
10342POPC   D2A60940   8.176   8.986   6.755
10342POPC   C3A60941   8.152   9.009   7.055
10342POPC   C4A60942   8.229   8.973   7.355
10342POPC   C1B60943   8.364   9.178   6.455
10342POPC   C2B60944   8.275   9.215   6.755
10342POPC   C3B60945   8.273   9.202   7.055
10342POPC   C4B60946   8.279   9.152   7.355
10343POPC   NC360947   6.604  32.202   5.555
10343POPC   PO460948   6.679  32.283   5.855
10343POPC   GL160949   6.688  32.275   6.155
10343POPC   GL260950   6.600  32.141   6.155
10343POPC   C1A60951   6.651  32.272   6.455
10343POPC   D2A60952   6.676  32.225   6.755
10343POPC   C3A60953   6.626  32.221   7.055
10343POPC   C4A60954   6.653  32.297   7.355
10343POPC   C1B60955   6.497  32.078   6.455
10343POPC   C2B60956   6.554  32.025   6.755
10343POPC   C3B60957   6.541  32.019   7.055
10343POPC   C4B60958   6.542  31.997   7.355
10344POPC   NC360959  29.188  18.278   5.555
10344POPC   PO460960  29.152  18.290   5.855
10344POPC   GL160961  29.102  18.268   6.155
10344POPC   GL260962  28.977  18.302   6.155
10344POPC   C1A60963  29.151  18.291   6.455
10344POPC   D2A60964  29.177  18.298   6.755
10344POPC   C3A60965  29.122  18.253   7.055
10344POPC   C4A60966  29.163  18.294   7.355
10344POPC   C1B60967  28.881  18.256   6.455
10344POPC   C2B60968  28.871  18.254   6.755
10344POPC   C3B60969  28.944  18.299   7.055
10344POPC   C4B60970  28.865  18.307   7.355
10345POPC   NC360971   4.300   3.507   5.555
10345POPC   PO460972   4.342   3.515   5.855
10345POPC   GL160973   4.360   3.578   6.155
10345POPC   GL260974   4.230   3.415   6.155
10345POPC   C1A60975   4.333   3.545   6.455
10345POPC   D2A60976   4.335   3.560   6.755
10345POPC   C3A60977   4.325   3.564   7.055
10345POPC   C4A60978   4.354   3.518   7.355
10345POPC   C1B60979   4.132   3.394   6.455
10345POPC   C2B60980   4.133   3.400   6.755
10345POPC   C3B60981   4.145   3.340   7.055
10345POPC   C4B60982   4.145   3.387   7.355
10346POPC   NC360983  40.802  36.117   5.555
10346POPC   PO460984  40.802  36.115   5.855
10346POPC   GL160985  40.802  36.166   6.155
10346POPC   GL260986  40.773  36.017   6.155
10346POPC   C1A60987  40.805  36.104   6.455
10346POPC   D2A60988  40.804  36.117   6.755
10346POPC   C3A60989  40.772  36.123   7.055
10346POPC   C4A60990  40.765  36.167   7.355
10346POPC   C1B60991  40.761  35.927   6.455
10346POPC   C2B60992  40.800  35.845   6.755
10346POPC   C3B60993  40.795  35.918   7.055
10346POPC   C4B60994  40.791  35.890   7.355
10347POPC   NC360995  31.500  19.036   5.555
10347POPC   PO460996  31.472  19.039   5.855
10347POPC   GL160997  31.435  19.037   6.155
10347POPC   GL260998  31.555  19.188   6.155
10347POPC   C1A60999  31.481  19.036   6.455
10347POPC   D2A61000  31.513  19.076   6.755
10347POPC   C3A61001  31.507  19.037   7.055
10347POPC   C4A61002  31.485  19.092   7.355
10347POPC   C1B61003  31.620  19.237   6.455
10347POPC   C2B61004  31.606  19.299   6.755
10347POPC   C3B61005  31.659  19.263   7.055
10347POPC   C4B61006  31.664  19.298   7.355
10348POPC   NC361007  38.467  34.580   5.555
10348POPC   PO461008  38.432  34.554   5.855
10348POPC   GL161009  38.462  34.625   6.155
10348POPC   GL261010  38.543  34.513   6.155
10348POPC   C1A61011  38.498  34.625   6.455
10348POPC   D2A61012  38.433  34.559   6.755
10348POPC   C3A61013  38.417  34.569   7.055
10348POPC   C4A61014  38.435  34.584   7.355
10348POPC   C1B61015  38.680  34.492   6.455
10348POPC   C2B61016  38.659  34.542   6.755
10348POPC   C3B61017  38.707  34.502   7.055
10348POPC   C4B61018  38.649  34.474   7.355
10349POPC   NC361019  29.127  22.980   5.555
10349POPC   PO461020  29.178  22.958   5.855
10349POPC   GL161021  29.158  22.967   6.155
10349POPC   GL261022  29.057  22.900   6.155
10349POPC   C1A61023  29.130  22.906   6.455
10349POPC   D2A61024  29.155  22.920   6.755
10349POPC   C3A61025  29.163  22.983   7.055
10349POPC   C4A61026  29.149  22.944   7.355
10349POPC   C1B61027  28.909  22.938   6.455
10349POPC   C2B61028  28.860  22.943   6.755
10349POPC   C3B61029  28.899  22.910   7.055
10349POPC   C4B61030  28.857  22.900   7.355
10350POPC   NC361031  37.648  17.486   5.555
10350POPC   PO461032  37.643  17.498   5.855
10350POPC   GL161033  37.635  17.462   6.155
10350POPC   GL261034  37.559  17.574   6.155
10350POPC   C1A61035  37.693  17.522   6.455
10350POPC   D2A61036  37.664  17.549   6.755
10350POPC   C3A61037  37.716  17.521   7.055
10350POPC   C4A61038  37.706  17.516   7.355
10350POPC   C1B61039  37.443  17.689   6.455
10350POPC   C2B61040  37.454  17.718   6.755
10350POPC   C3B61041  37.523  17.666   7.055
10350POPC   C4B61042  37.452  17.626   7.355
10351POPC   NC361043  43.900  43.152   5.555
10351POPC   PO461044  43.847  43.070   5.855
10351POPC   GL161045  43.890  43.095   6.155
10351POPC   GL261046  43.865  43.285   6.155
10351POPC   C1A61047  43.914  43.110   6.455
10351POPC   D2A61048  43.924  43.133   6.755
10351POPC   C3A61049  43.871  43.129   7.055
10351POPC   C4A61050  43.863  43.110   7.355
10351POPC   C1B61051  43.851  43.335   6.455
10351POPC   C2B61052  43.869  43.394   6.755
10351POPC   C3B61053  43.896  43.404   7.055
10351POPC   C4B61054  43.875  43.387   7.355
10352POPC   NC361055  35.308   7.396   5.555
10352POPC   PO461056  35.330   7.388   5.855
10352POPC   GL161057  35.373   7.380   6.155
10352POPC   GL261058  35.326   7.567   6.155
10352POPC   C1A61059  35.367   7.470   6.455
10352POPC   D2A61060  35.330   7.400   6.755
10352POPC   C3A61061  35.321   7.377   7.055
10352POPC   C4A61062  35.379   7.437   7.355
10352POPC   C1B61063  35.258   7.612   6.455
10352POPC   C2B61064  35.209   7.634   6.755
10352POPC   C3B61065  35.225   7.629   7.055
10352POPC   C4B61066  35.271   7.664   7.355
10353POPC   NC361067  29.117  24.479   5.555
10353POPC   PO461068  29.156  24.495   5.855
10353POPC   GL161069  29.175  24.444   6.155
10353POPC   GL261070  29.215  24.570   6.155
10353POPC   C1A61071  29.165  24.527   6.455
10353POPC   D2A61072  29.146  24.452   6.755
10353POPC   C3A61073  29.150  24.527   7.055
10353POPC   C4A61074  29.125  24.504   7.355
10353POPC   C1B61075  29.368  24.650   6.455
10353POPC   C2B61076  29.341  24.593   6.755
10353POPC   C3B61077  29.358  24.642   7.055
10353POPC   C4B61078  29.385  24.595   7.355
10354POPC   NC361079  23.724  22.147   5.555
10354POPC   PO461080  23.680  22.210   5.855
10354POPC   GL161081  23.756  22.116   6.155
10354POPC   GL261082  23.786  22.213   6.155
10354POPC   C1A61083  23.703  22.166   6.455
10354POPC   D2A61084  23.674  22.198   6.755
10354POPC   C3A61085  23.695  22.197   7.055
10354POPC   C4A61086  23.702  22.208   7.355
10354POPC   C1B61087  23.983  22.213   6.455
10354POPC   C2B61088  23.918  22.241   6.755
10354POPC   C3B61089  23.996  22.278   7.055
10354POPC   C4B61090  23.941  22.242   7.355
10355POPC   NC361091  29.120   2.027   5.555
10355POPC   PO461092  29.106   1.946   5.855
10355POPC   GL161093  29.182   1.951   6.155
10355POPC   GL261094  29.111   1.915   6.155
10355POPC   C1A61095  29.192   2.000   6.455
10355POPC   D2A61096  29.154   1.998   6.755
10355POPC   C3A61097  29.156   2.025   7.055
10355POPC   C4A61098  29.134   1.988   7.355
10355POPC   C1B61099  29.053   1.735   6.455
10355POPC   C2B61100  28.979   1.727   6.755
10355POPC   C3B61101  29.037   1.821   7.055
10355POPC   C4B61102  29.059   1.777   7.355
10356POPC   NC361103   1.241  36.122   5.555
10356POPC   PO461104   1.238  36.121   5.855
10356POPC   GL161105   1.178  36.120   6.155
10356POPC   GL261106   1.100  35.983   6.155
10356POPC   C1A61107   1.203  36.083   6.455
10356POPC   D2A61108   1.224  36.115   6.755
10356POPC   C3A61109   1.168  36.132   7.055
10356POPC   C4A61110   1.236  36.091   7.355
10356POPC   C1B61111   1.023  35.956   6.455
10356POPC   C2B61112   1.087  35.937   6.755
10356POPC   C3B61113   1.067  35.914   7.055
10356POPC   C4B61114   1.095  35.969   7.355
10357POPC   NC361115   2.745  39.984   5.555
10357POPC   PO461116   2.735  40.054   5.855
10357POPC   GL161117   2.771  39.967   6.155
10357POPC   GL261118   2.763  39.917   6.155
10357POPC   C1A61119   2.760  40.035   6.455
10357POPC   D2A61120   2.738  39.977   6.755
10357POPC   C3A61121   2.740  40.046   7.055
10357POPC   C4A61122   2.742  40.009   7.355
10357POPC   C1B61123   2.803  39.813   6.455
10357POPC   C2B61124   2.806  39.795   6.755
10357POPC   C3B61125   2.836  39.807   7.055
10357POPC   C4B61126   2.877  39.744   7.355
10358POPC   NC361127   2.763   9.759   5.555
10358POPC   PO461128   2.741   9.746   5.855
10358POPC   GL161129   2.764   9.777   6.155
10358POPC   GL261130   2.697   9.795   6.155
10358POPC   C1A61131   2.750   9.751   6.455
10358POPC   D2A61132   2.783   9.788   6.755
10358POPC   C3A61133   2.730   9.763   7.055
10358POPC   C4A61134   2.774   9.791   7.355
10358POPC   C1B61135   2.525   9.869   6.455
10358POPC   C2B61136   2.598   9.888   6.755
10358POPC   C3B61137   2.575   9.921   7.055
10358POPC   C4B61138   2.524   9.899   7.355
10359POPC   NC361139  43.062  29.956   5.555
10359POPC   PO461140  43.101  29.942   5.855
10359POPC   GL161141  43.071  29.923   6.155
10359POPC   GL261142  43.170  30.009   6.155
10359POPC   C1A61143  43.137  29.949   6.455
10359POPC   D2A61144  43.113  29.966   6.755
10359POPC   C3A61145  43.107  29.948   7.055
10359POPC   C4A61146  43.124  29.943   7.355
10359POPC   C1B61147  43.154  30.210   6.455
10359POPC   C2B61148  43.144  30.133   6.755
10359POPC   C3B61149  43.121  30.144   7.055
10359POPC   C4B61150  43.126  30.198   7.355
10360POPC   NC361151  25.285  28.361   5.555
10360POPC   PO461152  25.308  28.365   5.855
10360POPC   GL161153  25.284  28.389   6.155
10360POPC   GL261154  25.396  28.344   6.155
10360POPC   C1A61155  25.262  28.378   6.455
10360POPC   D2A61156  25.229  28.395   6.755
10360POPC   C3A61157  25.256  28.371   7.055
10360POPC   C4A61158  25.293  28.408   7.355
10360POPC   C1B61159  25.486  28.410   6.455
10360POPC   C2B61160  25.541  28.406   6.755
10360POPC   C3B61161  25.520  28.369   7.055
10360POPC   C4B61162  25.500  28.396   7.355
10361POPC   NC361163  23.695  28.405   5.555
10361POPC   PO461164  23.687  28.377   5.855
10361POPC   GL161165  23.750  28.341   6.155
10361POPC   GL261166  23.687  28.508   6.155
10361POPC   C1A61167  23.747  28.322   6.455
10361POPC   D2A61168  23.711  28.377   6.755
10361POPC   C3A61169  23.689  28.346   7.055
10361POPC   C4A61170  23.739  28.323   7.355
10361POPC   C1B61171  23.780  28.646   6.455
10361POPC   C2B61172  23.736  28.633   6.755
10361POPC   C3B61173  23.733  28.567   7.055
10361POPC   C4B61174  23.720  28.590   7.355
10362POPC   NC361175  44.685  11.331   5.555
10362POPC   PO461176  44.658  11.304   5.855
10362POPC   GL161177  44.626  11.270   6.155
10362POPC   GL261178  44.611  11.151   6.155
10362POPC   C1A61179  44.643  11.272   6.455
10362POPC   D2A61180  44.637  11.279   6.755
10362POPC   C3A61181  44.669  11.309   7.055
10362POPC   C4A61182  44.678  11.345   7.355
10362POPC   C1B61183  44.664  11.048   6.455
10362POPC   C2B61184  44.657  11.029   6.755
10362POPC   C3B61185  44.684  11.017   7.055
10362POPC   C4B61186  44.637  11.084   7.355
10363POPC   NC361187  23.718  17.485   5.555
10363POPC   PO461188  23.691  17.520   5.855
10363POPC   GL161189  23.732  17.520   6.155
10363POPC   GL261190  23.753  17.366   6.155
10363POPC   C1A61191  23.692  17.541   6.455
10363POPC   D2A61192  23.722  17.500   6.755
10363POPC   C3A61193  23.721  17.478   7.055
10363POPC   C4A61194  23.752  17.461   7.355
10363POPC   C1B61195  23.915  17.331   6.455
10363POPC   C2B61196  23.915  17.284   6.755
10363POPC   C3B61197  23.854  17.361   7.055
10363POPC   C4B61198  23.886  17.282   7.355
10364POPC   NC361199  23.711  15.981   5.555
10364POPC   PO461200  23.698  15.935   5.855
10364POPC   GL161201  23.681  15.983   6.155
10364POPC   GL261202  23.851  15.934   6.155
10364POPC   C1A61203  23.671  15.933   6.455
10364POPC   D2A61204  23.756  15.967   6.755
10364POPC   C3A61205  23.749  15.914   7.055
10364POPC   C4A61206  23.750  15.986   7.355
10364POPC   C1B61207  23.952  15.918   6.455
10364POPC   C2B61208  23.997  15.932   6.755
10364POPC   C3B61209  23.916  15.881   7.055
10364POPC   C4B61210  23.992  15.875   7.355
10365POPC   NC361211  44.677   7.417   5.555
10365POPC   PO461212  44.650   7.424   5.855
10365POPC   GL161213  44.630   7.390   6.155
10365POPC   GL261214  44.506   7.373   6.155
10365POPC   C1A61215  44.629   7.406   6.455
10365POPC   D2A61216  44.659   7.445   6.755
10365POPC   C3A61217  44.613   7.403   7.055
10365POPC   C4A61218  44.615   7.382   7.355
10365POPC   C1B61219  44.388   7.334   6.455
10365POPC   C2B61220  44.437   7.391   6.755
10365POPC   C3B61221  44.467   7.321   7.055
10365POPC   C4B61222  44.454   7.367   7.355
10366POPC   NC361223  32.294   1.220   5.555
10366POPC   PO461224  32.259   1.233   5.855
10366POPC   GL161225  32.208   1.216   6.155
10366POPC   GL261226  32.330   1.263   6.155
10366POPC   C1A61227  32.285   1.253   6.455
10366POPC   D2A61228  32.264   1.224   6.755
10366POPC   C3A61229  32.273   1.185   7.055
10366POPC   C4A61230  32.289   1.186   7.355
10366POPC   C1B61231  32.476   1.323   6.455
10366POPC   C2B61232  32.438   1.337   6.755
10366POPC   C3B61233  32.440   1.322   7.055
10366POPC   C4B61234  32.494   1.326   7.355
10367POPC   NC361235  25.286   9.008   5.555
10367POPC   PO461236  25.295   8.928   5.855
10367POPC   GL161237  25.245   8.991   6.155
10367POPC   GL261238  25.312   8.898   6.155
10367POPC   C1A61239  25.224   8.954   6.455
10367POPC   D2A61240  25.272   9.017   6.755
10367POPC   C3A61241  25.275   8.993   7.055
10367POPC   C4A61242  25.302   8.992   7.355
10367POPC   C1B61243  25.409   8.794   6.455
10367POPC   C2B61244  25.394   8.750   6.755
10367POPC   C3B61245  25.415   8.770   7.055
10367POPC   C4B61246  25.359   8.717   7.355
10368POPC   NC361247  34.597  27.623   5.555
10368POPC   PO461248  34.575  27.618   5.855
10368POPC   GL161249  34.571  27.587   6.155
10368POPC   GL261250  34.572  27.716   6.155
10368POPC   C1A61251  34.552  27.619   6.455
10368POPC   D2A61252  34.566  27.575   6.755
10368POPC   C3A61253  34.570  27.605   7.055
10368POPC   C4A61254  34.578  27.556   7.355
10368POPC   C1B61255  34.543  27.840   6.455
10368POPC   C2B61256  34.501  27.815   6.755
10368POPC   C3B61257  34.573  27.858   7.055
10368POPC   C4B61258  34.533  27.793   7.355
10369POPC   NC361259  29.100  39.235   5.555
10369POPC   PO461260  29.134  39.219   5.855
10369POPC   GL161261  29.181  39.214   6.155
10369POPC   GL261262  29.155  39.307   6.155
10369POPC   C1A61263  29.121  39.201   6.455
10369POPC   D2A61264  29.150  39.235   6.755
10369POPC   C3A61265  29.163  39.261   7.055
10369POPC   C4A61266  29.105  39.187   7.355
10369POPC   C1B61267  29.040  39.484   6.455
10369POPC   C2B61268  29.116  39.427   6.755
10369POPC   C3B61269  29.086  39.429   7.055
10369POPC   C4B61270  29.045  39.482   7.355
10370POPC   NC361271  28.408  41.579   5.555
10370POPC   PO461272  28.393  41.524   5.855
10370POPC   GL161273  28.367  41.524   6.155
10370POPC   GL261274  28.304  41.622   6.155
10370POPC   C1A61275  28.417  41.535   6.455
10370POPC   D2A61276  28.378  41.579   6.755
10370POPC   C3A61277  28.322  41.561   7.055
10370POPC   C4A61278  28.340  41.515   7.355
10370POPC   C1B61279  28.175  41.772   6.455
10370POPC   C2B61280  28.206  41.728   6.755
10370POPC   C3B61281  28.256  41.723   7.055
10370POPC   C4B61282  28.235  41.734   7.355
10371POPC   NC361283  30.699  22.126   5.555
10371POPC   PO461284  30.655  22.199   5.855
10371POPC   GL161285  30.658  22.123   6.155
10371POPC   GL261286  30.759  22.269   6.155
10371POPC   C1A61287  30.683  22.165   6.455
10371POPC   D2A61288  30.701  22.162   6.755
10371POPC   C3A61289  30.660  22.161   7.055
10371POPC   C4A61290  30.724  22.142   7.355
10371POPC   C1B61291  30.736  22.422   6.455
10371POPC   C2B61292  30.759  22.397   6.755
10371POPC   C3B61293  30.804  22.404   7.055
10371POPC   C4B61294  30.748  22.434   7.355
10372POPC   NC361295  18.257  37.727   5.555
10372POPC   PO461296  18.322  37.650   5.855
10372POPC   GL161297  18.267  37.690   6.155
10372POPC   GL261298  18.131  37.618   6.155
10372POPC   C1A61299  18.266  37.647   6.455
10372POPC   D2A61300  18.320  37.644   6.755
10372POPC   C3A61301  18.280  37.697   7.055
10372POPC   C4A61302  18.288  37.728   7.355
10372POPC   C1B61303  18.025  37.589   6.455
10372POPC   C2B61304  18.050  37.538   6.755
10372POPC   C3B61305  18.058  37.539   7.055
10372POPC   C4B61306  18.037  37.528   7.355
10373POPC   NC361307  15.953  17.480   5.555
10373POPC   PO461308  15.969  17.504   5.855
10373POPC   GL161309  15.980  17.458   6.155
10373POPC   GL261310  16.119  17.484   6.155
10373POPC   C1A61311  16.000  17.457   6.455
10373POPC   D2A61312  15.916  17.504   6.755
10373POPC   C3A61313  15.995  17.468   7.055
10373POPC   C4A61314  15.938  17.499   7.355
10373POPC   C1B61315  16.223  17.429   6.455
10373POPC   C2B61316  16.160  17.449   6.755
10373POPC   C3B61317  16.161  17.434   7.055
10373POPC   C4B61318  16.161  17.407   7.355
10374POPC   NC361319  17.536  39.249   5.555
10374POPC   PO461320  17.476  39.201   5.855
10374POPC   GL161321  17.472  39.261   6.155
10374POPC   GL261322  17.373  39.253   6.155
10374POPC   C1A61323  17.493  39.208   6.455
10374POPC   D2A61324  17.457  39.204   6.755
10374POPC   C3A61325  17.545  39.187   7.055
10374POPC   C4A61326  17.535  39.272   7.355
10374POPC   C1B61327  17.252  39.248   6.455
10374POPC   C2B61328  17.227  39.177   6.755
10374POPC   C3B61329  17.299  39.210   7.055
10374POPC   C4B61330  17.253  39.216   7.355
10375POPC   NC361331  14.383  39.233   5.555
10375POPC   PO461332  14.355  39.187   5.855
10375POPC   GL161333  14.446  39.186   6.155
10375POPC   GL261334  14.440  39.122   6.155
10375POPC   C1A61335  14.440  39.241   6.455
10375POPC   D2A61336  14.399  39.210   6.755
10375POPC   C3A61337  14.411  39.190   7.055
10375POPC   C4A61338  14.436  39.231   7.355
10375POPC   C1B61339  14.509  38.985   6.455
10375POPC   C2B61340  14.574  39.030   6.755
10375POPC   C3B61341  14.567  38.991   7.055
10375POPC   C4B61342  14.496  39.013   7.355
10376POPC   NC361343  39.978  18.270   5.555
10376POPC   PO461344  40.029  18.270   5.855
10376POPC   GL161345  40.007  18.248   6.155
10376POPC   GL261346  39.911  18.264   6.155
10376POPC   C1A61347  39.968  18.279   6.455
10376POPC   D2A61348  39.992  18.309   6.755
10376POPC   C3A61349  40.023  18.323   7.055
10376POPC   C4A61350  39.964  18.248   7.355
10376POPC   C1B61351  39.781  18.141   6.455
10376POPC   C2B61352  39.830  18.124   6.755
10376POPC   C3B61353  39.755  18.169   7.055
10376POPC   C4B61354  39.830  18.148   7.355
10377POPC   NC361355  12.125  26.781   5.555
10377POPC   PO461356  12.031  26.775   5.855
10377POPC   GL161357  12.033  26.795   6.155
10377POPC   GL261358  11.981  26.729   6.155
10377POPC   C1A61359  12.039  26.803   6.455
10377POPC   D2A61360  12.115  26.855   6.755
10377POPC   C3A61361  12.050  26.816   7.055
10377POPC   C4A61362  12.093  26.782   7.355
10377POPC   C1B61363  11.924  26.670   6.455
10377POPC   C2B61364  11.860  26.663   6.755
10377POPC   C3B61365  11.898  26.664   7.055
10377POPC   C4B61366  11.900  26.674   7.355
10378POPC   NC361367   1.203   9.797   5.555
10378POPC   PO461368   1.184   9.776   5.855
10378POPC   GL161369   1.212   9.700   6.155
10378POPC   GL261370   1.282   9.836   6.155
10378POPC   C1A61371   1.235   9.749   6.455
10378POPC   D2A61372   1.216   9.767   6.755
10378POPC   C3A61373   1.253   9.747   7.055
10378POPC   C4A61374   1.170   9.792   7.355
10378POPC   C1B61375   1.275   9.946   6.455
10378POPC   C2B61376   1.297   9.977   6.755
10378POPC   C3B61377   1.233   9.967   7.055
10378POPC   C4B61378   1.249  10.035   7.355
10379POPC   NC361379  43.849   8.996   5.555
10379POPC   PO461380  43.906   9.000   5.855
10379POPC   GL161381  43.913   8.989   6.155
10379POPC   GL261382  43.880   8.856   6.155
10379POPC   C1A61383  43.914   8.945   6.455
10379POPC   D2A61384  43.936   8.997   6.755
10379POPC   C3A61385  43.919   8.934   7.055
10379POPC   C4A61386  43.899   9.016   7.355
10379POPC   C1B61387  43.827   8.761   6.455
10379POPC   C2B61388  43.891   8.697   6.755
10379POPC   C3B61389  43.861   8.775   7.055
10379POPC   C4B61390  43.863   8.755   7.355
10380POPC   NC361391  22.912  36.129   5.555
10380POPC   PO461392  22.948  36.149   5.855
10380POPC   GL161393  22.932  36.176   6.155
10380POPC   GL261394  23.043  36.165   6.155
10380POPC   C1A61395  22.946  36.109   6.455
10380POPC   D2A61396  22.909  36.122   6.755
10380POPC   C3A61397  22.918  36.147   7.055
10380POPC   C4A61398  22.986  36.156   7.355
10380POPC   C1B61399  23.112  36.256   6.455
10380POPC   C2B61400  23.145  36.329   6.755
10380POPC   C3B61401  23.091  36.264   7.055
10380POPC   C4B61402  23.173  36.318   7.355
10381POPC   NC361403  30.659   8.244   5.555
10381POPC   PO461404  30.674   8.196   5.855
10381POPC   GL161405  30.693   8.201   6.155
10381POPC   GL261406  30.765   8.175   6.155
10381POPC   C1A61407  30.692   8.238   6.455
10381POPC   D2A61408  30.721   8.160   6.755
10381POPC   C3A61409  30.737   8.165   7.055
10381POPC   C4A61410  30.685   8.230   7.355
10381POPC   C1B61411  30.962   8.108   6.455
10381POPC   C2B61412  30.909   8.097   6.755
10381POPC   C3B61413  30.963   8.096   7.055
10381POPC   C4B61414  30.924   8.059   7.355
10382POPC   NC361415  20.644  31.426   5.555
10382POPC   PO461416  20.590  31.432   5.855
10382POPC   GL161417  20.564  31.471   6.155
10382POPC   GL261418  20.589  31.348   6.155
10382POPC   C1A61419  20.577  31.483   6.455
10382POPC   D2A61420  20.595  31.432   6.755
10382POPC   C3A61421  20.618  31.518   7.055
10382POPC   C4A61422  20.573  31.496   7.355
10382POPC   C1B61423  20.683  31.205   6.455
10382POPC   C2B61424  20.643  31.204   6.755
10382POPC   C3B61425  20.627  31.230   7.055
10382POPC   C4B61426  20.633  31.214   7.355
10383POPC   NC361427   3.507  11.290   5.555
10383POPC   PO461428   3.582  11.255   5.855
10383POPC   GL161429   3.586  11.285   6.155
10383POPC   GL261430   3.529  11.200   6.155
10383POPC   C1A61431   3.586  11.313   6.455
10383POPC   D2A61432   3.523  11.285   6.755
10383POPC   C3A61433   3.529  11.304   7.055
10383POPC   C4A61434   3.518  11.298   7.355
10383POPC   C1B61435   3.537  11.008   6.455
10383POPC   C2B61436   3.509  11.099   6.755
10383POPC   C3B61437   3.586  11.086   7.055
10383POPC   C4B61438   3.511  11.055   7.355
10384POPC   NC361439  36.159   2.716   5.555
10384POPC   PO461440  36.175   2.804   5.855
10384POPC   GL161441  36.113   2.766   6.155
10384POPC   GL261442  36.019   2.766   6.155
10384POPC   C1A61443  36.118   2.787   6.455
10384POPC   D2A61444  36.125   2.763   6.755
10384POPC   C3A61445  36.122   2.744   7.055
10384POPC   C4A61446  36.151   2.789   7.355
10384POPC   C1B61447  35.894   2.708   6.455
10384POPC   C2B61448  35.854   2.695   6.755
10384POPC   C3B61449  35.911   2.632   7.055
10384POPC   C4B61450  35.854   2.666   7.355
10385POPC   NC361451   3.516  19.010   5.555
10385POPC   PO461452   3.577  19.080   5.855
10385POPC   GL161453   3.558  19.033   6.155
10385POPC   GL261454   3.429  19.091   6.155
10385POPC   C1A61455   3.527  19.060   6.455
10385POPC   D2A61456   3.554  19.025   6.755
10385POPC   C3A61457   3.500  19.031   7.055
10385POPC   C4A61458   3.522  19.104   7.355
10385POPC   C1B61459   3.263  19.139   6.455
10385POPC   C2B61460   3.324  19.134   6.755
10385POPC   C3B61461   3.345  19.123   7.055
10385POPC   C4B61462   3.322  19.152   7.355
10386POPC   NC361463  39.257  12.071   5.555
10386POPC   PO461464  39.218  12.077   5.855
10386POPC   GL161465  39.244  12.078   6.155
10386POPC   GL261466  39.074  12.095   6.155
10386POPC   C1A61467  39.206  12.107   6.455
10386POPC   D2A61468  39.193  12.110   6.755
10386POPC   C3A61469  39.195  12.041   7.055
10386POPC   C4A61470  39.254  12.033   7.355
10386POPC   C1B61471  38.956  12.144   6.455
10386POPC   C2B61472  38.986  12.116   6.755
10386POPC   C3B61473  39.017  12.099   7.055
10386POPC   C4B61474  38.996  12.148   7.355
10387POPC   NC361475  18.302  14.424   5.555
10387POPC   PO461476  18.282  14.405   5.855
10387POPC   GL161477  18.299  14.448   6.155
10387POPC   GL261478  18.251  14.555   6.155
10387POPC   C1A61479  18.311  14.430   6.455
10387POPC   D2A61480  18.236  14.419   6.755
10387POPC   C3A61481  18.286  14.383   7.055
10387POPC   C4A61482  18.258  14.406   7.355
10387POPC   C1B61483  18.309  14.649   6.455
10387POPC   C2B61484  18.304  14.667   6.755
10387POPC   C3B61485  18.284  14.649   7.055
10387POPC   C4B61486  18.256  14.693   7.355
10388POPC   NC361487   0.441  12.819   5.555
10388POPC   PO461488   0.404  12.880   5.855
10388POPC   GL161489   0.461  12.867   6.155
10388POPC   GL261490   0.508  12.927   6.155
10388POPC   C1A61491   0.442  12.885   6.455
10388POPC   D2A61492   0.485  12.802   6.755
10388POPC   C3A61493   0.487  12.855   7.055
10388POPC   C4A61494   0.401  12.812   7.355
10388POPC   C1B61495   0.622  12.939   6.455
10388POPC   C2B61496   0.615  12.934   6.755
10388POPC   C3B61497   0.631  12.951   7.055
10388POPC   C4B61498   0.642  12.926   7.355
10389POPC   NC361499   0.480  12.026   5.555
10389POPC   PO461500   0.442  12.050   5.855
10389POPC   GL161501   0.484  12.081   6.155
10389POPC   GL261502   0.273  11.989   6.155
10389POPC   C1A61503   0.427  12.028   6.455
10389POPC   D2A61504   0.405  12.111   6.755
10389POPC   C3A61505   0.419  12.029   7.055
10389POPC   C4A61506   0.483  12.103   7.355
10389POPC   C1B61507   0.228  12.007   6.455
10389POPC   C2B61508   0.190  11.954   6.755
10389POPC   C3B61509   0.218  11.963   7.055
10389POPC   C4B61510   0.211  11.989   7.355
10390POPC   NC361511  30.652  18.315   5.555
10390POPC   PO461512  30.694  18.327   5.855
10390POPC   GL161513  30.650  18.301   6.155
10390POPC   GL261514  30.608  18.360   6.155
10390POPC   C1A61515  30.651  18.301   6.455
10390POPC   D2A61516  30.650  18.265   6.755
10390POPC   C3A61517  30.711  18.249   7.055
10390POPC   C4A61518  30.698  18.286   7.355
10390POPC   C1B61519  30.487  18.476   6.455
10390POPC   C2B61520  30.548  18.457   6.755
10390POPC   C3B61521  30.500  18.446   7.055
10390POPC   C4B61522  30.469  18.439   7.355
10391POPC   NC361523  19.069  27.595   5.555
10391POPC   PO461524  19.052  27.553   5.855
10391POPC   GL161525  19.084  27.551   6.155
10391POPC   GL261526  19.197  27.498   6.155
10391POPC   C1A61527  19.045  27.607   6.455
10391POPC   D2A61528  19.039  27.568   6.755
10391POPC   C3A61529  19.092  27.567   7.055
10391POPC   C4A61530  19.014  27.600   7.355
10391POPC   C1B61531  19.248  27.460   6.455
10391POPC   C2B61532  19.333  27.499   6.755
10391POPC   C3B61533  19.250  27.547   7.055
10391POPC   C4B61534  19.336  27.494   7.355
10392POPC   NC361535  39.278  19.036   5.555
10392POPC   PO461536  39.217  19.018   5.855
10392POPC   GL161537  39.281  19.075   6.155
10392POPC   GL261538  39.253  19.141   6.155
10392POPC   C1A61539  39.249  19.064   6.455
10392POPC   D2A61540  39.230  19.050   6.755
10392POPC   C3A61541  39.249  19.058   7.055
10392POPC   C4A61542  39.183  19.074   7.355
10392POPC   C1B61543  39.209  19.325   6.455
10392POPC   C2B61544  39.239  19.351   6.755
10392POPC   C3B61545  39.224  19.297   7.055
10392POPC   C4B61546  39.238  19.278   7.355
10393POPC   NC361547  14.427  41.556   5.555
10393POPC   PO461548  14.431  41.522   5.855
10393POPC   GL161549  14.384  41.582   6.155
10393POPC   GL261550  14.239  41.523   6.155
10393POPC   C1A61551  14.414  41.528   6.455
10393POPC   D2A61552  14.411  41.575   6.755
10393POPC   C3A61553  14.399  41.527   7.055
10393POPC   C4A61554  14.366  41.544   7.355
10393POPC   C1B61555  14.173  41.490   6.455
10393POPC   C2B61556  14.134  41.498   6.755
10393POPC   C3B61557  14.134  41.479   7.055
10393POPC   C4B61558  14.185  41.460   7.355
10394POPC   NC361559  29.938   8.223   5.555
10394POPC   PO461560  29.918   8.147   5.855
10394POPC   GL161561  29.904   8.200   6.155
10394POPC   GL261562  29.936   8.111   6.155
10394POPC   C1A61563  29.923   8.224   6.455
10394POPC   D2A61564  29.905   8.157   6.755
10394POPC   C3A61565  29.968   8.177   7.055
10394POPC   C4A61566  29.947   8.211   7.355
10394POPC   C1B61567  30.078   7.975   6.455
10394POPC   C2B61568  30.007   7.985   6.755
10394POPC   C3B61569  30.043   8.031   7.055
10394POPC   C4B61570  30.025   8.006   7.355
10395POPC   NC361571   1.177  34.605   5.555
10395POPC   PO461572   1.253  34.538   5.855
10395POPC   GL161573   1.203  34.528   6.155
10395POPC   GL261574   1.216  34.718   6.155
10395POPC   C1A61575   1.256  34.529   6.455
10395POPC   D2A61576   1.244  34.611   6.755
10395POPC   C3A61577   1.222  34.610   7.055
10395POPC   C4A61578   1.261  34.581   7.355
10395POPC   C1B61579   1.316  34.804   6.455
10395POPC   C2B61580   1.260  34.825   6.755
10395POPC   C3B61581   1.305  34.794   7.055
10395POPC   C4B61582   1.286  34.858   7.355
10396POPC   NC361583  41.543  15.143   5.555
10396POPC   PO461584  41.589  15.226   5.855
10396POPC   GL161585  41.576  15.195   6.155
10396POPC   GL261586  41.731  15.174   6.155
10396POPC   C1A61587  41.578  15.198   6.455
10396POPC   D2A61588  41.591  15.211   6.755
10396POPC   C3A61589  41.562  15.213   7.055
10396POPC   C4A61590  41.555  15.193   7.355
10396POPC   C1B61591  41.827  15.182   6.455
10396POPC   C2B61592  41.814  15.168   6.755
10396POPC   C3B61593  41.802  15.212   7.055
10396POPC   C4B61594  41.802  15.228   7.355
10397POPC   NC361595  11.268   8.182   5.555
10397POPC   PO461596  11.330   8.189   5.855
10397POPC   GL161597  11.299   8.188   6.155
10397POPC   GL261598  11.368   8.036   6.155
10397POPC   C1A61599  11.279   8.148   6.455
10397POPC   D2A61600  11.319   8.160   6.755
10397POPC   C3A61601  11.311   8.169   7.055
10397POPC   C4A61602  11.336   8.179   7.355
10397POPC   C1B61603  11.335   7.919   6.455
10397POPC   C2B61604  11.328   7.981   6.755
10397POPC   C3B61605  11.324   7.992   7.055
10397POPC   C4B61606  11.330   7.930   7.355
10398POPC   NC361607   8.177   2.036   5.555
10398POPC   PO461608   8.232   1.996   5.855
10398POPC   GL161609   8.161   1.981   6.155
10398POPC   GL261610   8.349   2.008   6.155
10398POPC   C1A61611   8.243   2.002   6.455
10398POPC   D2A61612   8.181   1.951   6.755
10398POPC   C3A61613   8.225   1.988   7.055
10398POPC   C4A61614   8.187   1.997   7.355
10398POPC   C1B61615   8.442   2.048   6.455
10398POPC   C2B61616   8.463   2.004   6.755
10398POPC   C3B61617   8.466   2.031   7.055
10398POPC   C4B61618   8.435   1.995   7.355
10399POPC   NC361619   0.453   1.945   5.555
10399POPC   PO461620   0.417   1.984   5.855
10399POPC   GL161621   0.440   1.974   6.155
10399POPC   GL261622   0.563   2.101   6.155
10399POPC   C1A61623   0.426   1.977   6.455
10399POPC   D2A61624   0.396   2.033   6.755
10399POPC   C3A61625   0.421   2.030   7.055
10399POPC   C4A61626   0.447   1.979   7.355
10399POPC   C1B61627   0.584   2.182   6.455
10399POPC   C2B61628   0.616   2.184   6.755
10399POPC   C3B61629   0.611   2.133   7.055
10399POPC   C4B61630   0.559   2.199   7.355
10400POPC   NC361631   5.899   5.902   5.555
10400POPC   PO461632   5.883   5.875   5.855
10400POPC   GL161633   5.850   5.863   6.155
10400POPC   GL261634   5.805   5.782   6.155
10400POPC   C1A61635   5.855   5.845   6.455
10400POPC   D2A61636   5.846   5.898   6.755
10400POPC   C3A61637   5.909   5.876   7.055
10400POPC   C4A61638   5.857   5.843   7.355
10400POPC   C1B61639   5.731   5.736   6.455
10400POPC   C2B61640   5.703   5.646   6.755
10400POPC   C3B61641   5.689   5.739   7.055
10400POPC   C4B61642   5.711   5.723   7.355
10401POPC   NC361643   2.744  19.799   5.555
10401POPC   PO461644   2.778  19.869   5.855
10401POPC   GL161645   2.774  19.876   6.155
10401POPC   GL261646   2.796  19.717   6.155
10401POPC   C1A61647   2.726  19.867   6.455
10401POPC   D2A61648   2.764  19.877   6.755
10401POPC   C3A61649   2.788  19.796   7.055
10401POPC   C4A61650   2.786  19.838   7.355
10401POPC   C1B61651   2.746  19.561   6.455
10401POPC   C2B61652   2.787  19.626   6.755
10401POPC   C3B61653   2.803  19.585   7.055
10401POPC   C4B61654   2.771  19.609   7.355
10402POPC   NC361655  36.933  30.648   5.555
10402POPC   PO461656  36.897  30.714   5.855
10402POPC   GL161657  36.930  30.683   6.155
10402POPC   GL261658  36.746  30.703   6.155
10402POPC   C1A61659  36.925  30.721   6.455
10402POPC   D2A61660  36.942  30.693   6.755
10402POPC   C3A61661  36.871  30.718   7.055
10402POPC   C4A61662  36.907  30.700   7.355
10402POPC   C1B61663  36.625  30.690   6.455
10402POPC   C2B61664  36.652  30.611   6.755
10402POPC   C3B61665  36.632  30.629   7.055
10402POPC   C4B61666  36.645  30.698   7.355
10403POPC   NC361667  33.053  43.894   5.555
10403POPC   PO461668  33.058  43.855   5.855
10403POPC   GL161669  33.040  43.934   6.155
10403POPC   GL261670  33.162  43.882   6.155
10403POPC   C1A61671  33.017  43.896   6.455
10403POPC   D2A61672  32.987  43.883   6.755
10403POPC   C3A61673  33.005  43.872   7.055
10403POPC   C4A61674  32.975  43.848   7.355
10403POPC   C1B61675  33.307  43.776   6.455
10403POPC   C2B61676  33.286  43.872   6.755
10403POPC   C3B61677  33.294  43.775   7.055
10403POPC   C4B61678  33.255  43.848   7.355
10404POPC   NC361679  42.316   8.989   5.555
10404POPC   PO461680  42.340   8.965   5.855
10404POPC   GL161681  42.338   8.959   6.155
10404POPC   GL261682  42.209   9.076   6.155
10404POPC   C1A61683  42.343   8.981   6.455
10404POPC   D2A61684  42.302   8.989   6.755
10404POPC   C3A61685  42.363   8.934   7.055
10404POPC   C4A61686  42.342   8.959   7.355
10404POPC   C1B61687  42.156   9.172   6.455
10404POPC   C2B61688  42.194   9.125   6.755
10404POPC   C3B61689  42.172   9.135   7.055
10404POPC   C4B61690  42.198   9.180   7.355
10405POPC   NC361691  29.102  41.514   5.555
10405POPC   PO461692  29.126  41.582   5.855
10405POPC   GL161693  29.098  41.520   6.155
10405POPC   GL261694  29.155  41.672   6.155
10405POPC   C1A61695  29.160  41.545   6.455
10405POPC   D2A61696  29.148  41.539   6.755
10405POPC   C3A61697  29.158  41.557   7.055
10405POPC   C4A61698  29.121  41.539   7.355
10405POPC   C1B61699  29.186  41.765   6.455
10405POPC   C2B61700  29.114  41.858   6.755
10405POPC   C3B61701  29.188  41.775   7.055
10405POPC   C4B61702  29.169  41.854   7.355
10406POPC   NC361703  35.309  11.251   5.555
10406POPC   PO461704  35.312  11.258   5.855
10406POPC   GL161705  35.318  11.250   6.155
10406POPC   GL261706  35.428  11.287   6.155
10406POPC   C1A61707  35.364  11.295   6.455
10406POPC   D2A61708  35.361  11.279   6.755
10406POPC   C3A61709  35.337  11.338   7.055
10406POPC   C4A61710  35.367  11.333   7.355
10406POPC   C1B61711  35.550  11.187   6.455
10406POPC   C2B61712  35.574  11.213   6.755
10406POPC   C3B61713  35.575  11.228   7.055
10406POPC   C4B61714  35.627  11.234   7.355
10407POPC   NC361715  21.414   6.603   5.555
10407POPC   PO461716  21.430   6.625   5.855
10407POPC   GL161717  21.375   6.619   6.155
10407POPC   GL261718  21.463   6.585   6.155
10407POPC   C1A61719  21.377   6.678   6.455
10407POPC   D2A61720  21.390   6.657   6.755
10407POPC   C3A61721  21.345   6.629   7.055
10407POPC   C4A61722  21.406   6.599   7.355
10407POPC   C1B61723  21.619   6.532   6.455
10407POPC   C2B61724  21.574   6.563   6.755
10407POPC   C3B61725  21.622   6.572   7.055
10407POPC   C4B61726  21.623   6.533   7.355
10408POPC   NC361727  28.370   0.421   5.555
10408POPC   PO461728  28.396   0.447   5.855
10408POPC   GL161729  28.413   0.433   6.155
10408POPC   GL261730  28.447   0.345   6.155
10408POPC   C1A61731  28.342   0.404   6.455
10408POPC   D2A61732  28.382   0.435   6.755
10408POPC   C3A61733  28.388   0.470   7.055
10408POPC   C4A61734  28.388   0.481   7.355
10408POPC   C1B61735  28.491   0.236   6.455
10408POPC   C2B61736  28.503   0.229   6.755
10408POPC   C3B61737  28.436   0.226   7.055
10408POPC   C4B61738  28.463   0.246   7.355
10409POPC   NC361739  28.344  43.106   5.555
10409POPC   PO461740  28.350  43.122   5.855
10409POPC   GL161741  28.377  43.065   6.155
10409POPC   GL261742  28.249  43.121   6.155
10409POPC   C1A61743  28.370  43.105   6.455
10409POPC   D2A61744  28.343  43.082   6.755
10409POPC   C3A61745  28.396  43.134   7.055
10409POPC   C4A61746  28.372  43.113   7.355
10409POPC   C1B61747  28.147  43.071   6.455
10409POPC   C2B61748  28.122  43.134   6.755
10409POPC   C3B61749  28.149  43.054   7.055
10409POPC   C4B61750  28.112  43.052   7.355
10410POPC   NC361751  40.756  43.110   5.555
10410POPC   PO461752  40.775  43.114   5.855
10410POPC   GL161753  40.752  43.074   6.155
10410POPC   GL261754  40.616  43.115   6.155
10410POPC   C1A61755  40.805  43.069   6.455
10410POPC   D2A61756  40.737  43.110   6.755
10410POPC   C3A61757  40.748  43.120   7.055
10410POPC   C4A61758  40.786  43.143   7.355
10410POPC   C1B61759  40.538  43.089   6.455
10410POPC   C2B61760  40.491  43.019   6.755
10410POPC   C3B61761  40.551  43.077   7.055
10410POPC   C4B61762  40.570  43.079   7.355
10411POPC   NC361763  36.083  37.632   5.555
10411POPC   PO461764  36.104  37.668   5.855
10411POPC   GL161765  36.103  37.633   6.155
10411POPC   GL261766  36.163  37.750   6.155
10411POPC   C1A61767  36.133  37.703   6.455
10411POPC   D2A61768  36.129  37.665   6.755
10411POPC   C3A61769  36.123  37.725   7.055
10411POPC   C4A61770  36.124  37.686   7.355
10411POPC   C1B61771  36.238  37.912   6.455
10411POPC   C2B61772  36.257  37.829   6.755
10411POPC   C3B61773  36.259  37.839   7.055
10411POPC   C4B61774  36.246  37.900   7.355
10412POPC   NC361775  19.027   3.573   5.555
10412POPC   PO461776  19.018   3.557   5.855
10412POPC   GL161777  19.092   3.576   6.155
10412POPC   GL261778  19.016   3.642   6.155
10412POPC   C1A61779  19.029   3.516   6.455
10412POPC   D2A61780  19.035   3.514   6.755
10412POPC   C3A61781  19.094   3.507   7.055
10412POPC   C4A61782  19.026   3.515   7.355
10412POPC   C1B61783  19.077   3.778   6.455
10412POPC   C2B61784  19.010   3.746   6.755
10412POPC   C3B61785  19.049   3.820   7.055
10412POPC   C4B61786  18.996   3.750   7.355
10413POPC   NC361787  26.815  34.557   5.555
10413POPC   PO461788  26.768  34.619   5.855
10413POPC   GL161789  26.856  34.553   6.155
10413POPC   GL261790  26.854  34.515   6.155
10413POPC   C1A61791  26.791  34.614   6.455
10413POPC   D2A61792  26.784  34.532   6.755
10413POPC   C3A61793  26.862  34.583   7.055
10413POPC   C4A61794  26.790  34.568   7.355
10413POPC   C1B61795  27.020  34.425   6.455
10413POPC   C2B61796  26.986  34.428   6.755
10413POPC   C3B61797  26.977  34.368   7.055
10413POPC   C4B61798  27.011  34.391   7.355
10414POPC   NC361799  35.359  28.366   5.555
10414POPC   PO461800  35.332  28.342   5.855
10414POPC   GL161801  35.372  28.414   6.155
10414POPC   GL261802  35.485  28.334   6.155
10414POPC   C1A61803  35.402  28.358   6.455
10414POPC   D2A61804  35.365  28.364   6.755
10414POPC   C3A61805  35.400  28.326   7.055
10414POPC   C4A61806  35.347  28.415   7.355
10414POPC   C1B61807  35.620  28.271   6.455
10414POPC   C2B61808  35.619  28.270   6.755
10414POPC   C3B61809  35.555  28.347   7.055
10414POPC   C4B61810  35.571  28.331   7.355
10415POPC   NC361811  23.685   9.699   5.555
10415POPC   PO461812  23.729   9.771   5.855
10415POPC   GL161813  23.723   9.779   6.155
10415POPC   GL261814  23.673   9.672   6.155
10415POPC   C1A61815  23.725   9.798   6.455
10415POPC   D2A61816  23.739   9.757   6.755
10415POPC   C3A61817  23.719   9.717   7.055
10415POPC   C4A61818  23.683   9.721   7.355
10415POPC   C1B61819  23.523   9.597   6.455
10415POPC   C2B61820  23.578   9.594   6.755
10415POPC   C3B61821  23.577   9.584   7.055
10415POPC   C4B61822  23.513   9.597   7.355
10416POPC   NC361823   9.710  19.817   5.555
10416POPC   PO461824   9.768  19.801   5.855
10416POPC   GL161825   9.701  19.829   6.155
10416POPC   GL261826   9.665  19.978   6.155
10416POPC   C1A61827   9.795  19.802   6.455
10416POPC   D2A61828   9.735  19.850   6.755
10416POPC   C3A61829   9.758  19.787   7.055
10416POPC   C4A61830   9.706  19.878   7.355
10416POPC   C1B61831   9.627  20.107   6.455
10416POPC   C2B61832   9.672  20.013   6.755
10416POPC   C3B61833   9.644  20.020   7.055
10416POPC   C4B61834   9.680  20.065   7.355
10417POPC   NC361835  29.153   8.161   5.555
10417POPC   PO461836  29.120   8.237   5.855
10417POPC   GL161837  29.137   8.162   6.155
10417POPC   GL261838  29.203   8.321   6.155
10417POPC   C1A61839  29.129   8.235   6.455
10417POPC   D2A61840  29.128   8.186   6.755
10417POPC   C3A61841  29.161   8.227   7.055
10417POPC   C4A61842  29.120   8.211   7.355
10417POPC   C1B61843  29.342   8.359   6.455
10417POPC   C2B61844  29.346   8.384   6.755
10417POPC   C3B61845  29.329   8.402   7.055
10417POPC   C4B61846  29.302   8.374   7.355
10418POPC   NC361847   4.306  31.499   5.555
10418POPC   PO461848   4.296  31.425   5.855
10418POPC   GL161849   4.305  31.430   6.155
10418POPC   GL261850   4.441  31.552   6.155
10418POPC   C1A61851   4.275  31.431   6.455
10418POPC   D2A61852   4.292  31.469   6.755
10418POPC   C3A61853   4.280  31.494   7.055
10418POPC   C4A61854   4.359  31.522   7.355
10418POPC   C1B61855   4.444  31.634   6.455
10418POPC   C2B61856   4.497  31.660   6.755
10418POPC   C3B61857   4.473  31.701   7.055
10418POPC   C4B61858   4.480  31.645   7.355
10419POPC   NC361859  27.625   5.849   5.555
10419POPC   PO461860  27.602   5.883   5.855
10419POPC   GL161861  27.611   5.876   6.155
10419POPC   GL261862  27.465   5.786   6.155
10419POPC   C1A61863  27.559   5.899   6.455
10419POPC   D2A61864  27.632   5.893   6.755
10419POPC   C3A61865  27.554   5.853   7.055
10419POPC   C4A61866  27.602   5.906   7.355
10419POPC   C1B61867  27.397   5.771   6.455
10419POPC   C2B61868  27.411   5.803   6.755
10419POPC   C3B61869  27.338   5.743   7.055
10419POPC   C4B61870  27.393   5.752   7.355
10420POPC   NC361871  29.099  20.593   5.555
10420POPC   PO461872  29.150  20.588   5.855
10420POPC   GL161873  29.186  20.638   6.155
10420POPC   GL261874  29.076  20.487   6.155
10420POPC   C1A61875  29.107  20.596   6.455
10420POPC   D2A61876  29.104  20.588   6.755
10420POPC   C3A61877  29.123  20.569   7.055
10420POPC   C4A61878  29.188  20.580   7.355
10420POPC   C1B61879  29.119  20.362   6.455
10420POPC   C2B61880  29.076  20.320   6.755
10420POPC   C3B61881  29.123  20.356   7.055
10420POPC   C4B61882  29.082  20.332   7.355
10421POPC   NC361883   8.198  22.162   5.555
10421POPC   PO461884   8.186  22.181   5.855
10421POPC   GL161885   8.234  22.199   6.155
10421POPC   GL261886   8.097  22.103   6.155
10421POPC   C1A61887   8.195  22.159   6.455
10421POPC   D2A61888   8.176  22.164   6.755
10421POPC   C3A61889   8.165  22.210   7.055
10421POPC   C4A61890   8.163  22.181   7.355
10421POPC   C1B61891   7.977  22.171   6.455
10421POPC   C2B61892   7.974  22.160   6.755
10421POPC   C3B61893   7.968  22.117   7.055
10421POPC   C4B61894   7.984  22.160   7.355
10422POPC   NC361895  25.242  10.501   5.555
10422POPC   PO461896  25.303  10.532   5.855
10422POPC   GL161897  25.237  10.555   6.155
10422POPC   GL261898  25.338  10.527   6.155
10422POPC   C1A61899  25.244  10.475   6.455
10422POPC   D2A61900  25.304  10.537   6.755
10422POPC   C3A61901  25.276  10.541   7.055
10422POPC   C4A61902  25.289  10.529   7.355
10422POPC   C1B61903  25.461  10.598   6.455
10422POPC   C2B61904  25.456  10.636   6.755
10422POPC   C3B61905  25.532  10.661   7.055
10422POPC   C4B61906  25.483  10.600   7.355
10423POPC   NC361907   4.353  30.664   5.555
10423POPC   PO461908   4.314  30.694   5.855
10423POPC   GL161909   4.308  30.721   6.155
10423POPC   GL261910   4.216  30.815   6.155
10423POPC   C1A61911   4.313  30.656   6.455
10423POPC   D2A61912   4.285  30.704   6.755
10423POPC   C3A61913   4.322  30.684   7.055
10423POPC   C4A61914   4.285  30.703   7.355
10423POPC   C1B61915   4.158  30.957   6.455
10423POPC   C2B61916   4.167  30.889   6.755
10423POPC   C3B61917   4.157  30.882   7.055
10423POPC   C4B61918   4.198  30.864   7.355
10424POPC   NC361919   8.944  43.141   5.555
10424POPC   PO461920   9.001  43.061   5.855
10424POPC   GL161921   8.960  43.109   6.155
10424POPC   GL261922   9.087  43.231   6.155
10424POPC   C1A61923   8.929  43.064   6.455
10424POPC   D2A61924   8.971  43.114   6.755
10424POPC   C3A61925   8.947  43.088   7.055
10424POPC   C4A61926   8.964  43.155   7.355
10424POPC   C1B61927   9.098  43.319   6.455
10424POPC   C2B61928   9.098  43.272   6.755
10424POPC   C3B61929   9.099  43.264   7.055
10424POPC   C4B61930   9.074  43.329   7.355
10425POPC   NC361931   6.652  30.677   5.555
10425POPC   PO461932   6.691  30.649   5.855
10425POPC   GL161933   6.662  30.739   6.155
10425POPC   GL261934   6.777  30.607   6.155
10425POPC   C1A61935   6.607  30.652   6.455
10425POPC   D2A61936   6.683  30.743   6.755
10425POPC   C3A61937   6.660  30.658   7.055
10425POPC   C4A61938   6.678  30.711   7.355
10425POPC   C1B61939   6.873  30.613   6.455
10425POPC   C2B61940   6.812  30.539   6.755
10425POPC   C3B61941   6.852  30.566   7.055
10425POPC   C4B61942   6.846  30.599   7.355
10426POPC   NC361943  40.759  21.360   5.555
10426POPC   PO461944  40.769  21.336   5.855
10426POPC   GL161945  40.738  21.348   6.155
10426POPC   GL261946  40.672  21.328   6.155
10426POPC   C1A61947  40.771  21.337   6.455
10426POPC   D2A61948  40.785  21.430   6.755
10426POPC   C3A61949  40.800  21.402   7.055
10426POPC   C4A61950  40.831  21.409   7.355
10426POPC   C1B61951  40.550  21.192   6.455
10426POPC   C2B61952  40.593  21.224   6.755
10426POPC   C3B61953  40.594  21.276   7.055
10426POPC   C4B61954  40.576  21.212   7.355
10427POPC   NC361955  38.492  31.514   5.555
10427POPC   PO461956  38.467  31.505   5.855
10427POPC   GL161957  38.451  31.425   6.155
10427POPC   GL261958  38.559  31.581   6.155
10427POPC   C1A61959  38.503  31.480   6.455
10427POPC   D2A61960  38.412  31.424   6.755
10427POPC   C3A61961  38.505  31.431   7.055
10427POPC   C4A61962  38.504  31.498   7.355
10427POPC   C1B61963  38.711  31.566   6.455
10427POPC   C2B61964  38.701  31.566   6.755
10427POPC   C3B61965  38.682  31.636   7.055
10427POPC   C4B61966  38.621  31.595   7.355
10428POPC   NC361967  23.684  31.508   5.555
10428POPC   PO461968  23.716  31.460   5.855
10428POPC   GL161969  23.736  31.424   6.155
10428POPC   GL261970  23.672  31.370   6.155
10428POPC   C1A61971  23.681  31.475   6.455
10428POPC   D2A61972  23.714  31.496   6.755
10428POPC   C3A61973  23.719  31.468   7.055
10428POPC   C4A61974  23.763  31.444   7.355
10428POPC   C1B61975  23.640  31.227   6.455
10428POPC   C2B61976  23.704  31.210   6.755
10428POPC   C3B61977  23.630  31.198   7.055
10428POPC   C4B61978  23.620  31.236   7.355
10429POPC   NC361979   0.421   5.851   5.555
10429POPC   PO461980   0.455   5.885   5.855
10429POPC   GL161981   0.486   5.859   6.155
10429POPC   GL261982   0.542   5.980   6.155
10429POPC   C1A61983   0.461   5.827   6.455
10429POPC   D2A61984   0.414   5.831   6.755
10429POPC   C3A61985   0.391   5.865   7.055
10429POPC   C4A61986   0.455   5.899   7.355
10429POPC   C1B61987   0.610   6.080   6.455
10429POPC   C2B61988   0.586   6.069   6.755
10429POPC   C3B61989   0.570   6.037   7.055
10429POPC   C4B61990   0.538   6.087   7.355
10430POPC   NC361991  42.289  24.528   5.555
10430POPC   PO461992  42.303  24.473   5.855
10430POPC   GL161993  42.288  24.515   6.155
10430POPC   GL261994  42.398  24.345   6.155
10430POPC   C1A61995  42.305  24.481   6.455
10430POPC   D2A61996  42.333  24.473   6.755
10430POPC   C3A61997  42.338  24.512   7.055
10430POPC   C4A61998  42.331  24.483   7.355
10430POPC   C1B61999  42.514  24.250   6.455
10430POPC   C2B62000  42.509  24.331   6.755
10430POPC   C3B62001  42.465  24.328   7.055
10430POPC   C4B62002  42.485  24.320   7.355
10431POPC   NC362003  44.624   2.803   5.555
10431POPC   PO462004  44.664   2.755   5.855
10431POPC   GL162005  44.672   2.748   6.155
10431POPC   GL262006  44.551   2.839   6.155
10431POPC   C1A62007  44.660   2.723   6.455
10431POPC   D2A62008  44.705   2.731   6.755
10431POPC   C3A62009  44.686   2.718   7.055
10431POPC   C4A62010  44.687   2.739   7.355
10431POPC   C1B62011  44.424   2.957   6.455
10431POPC   C2B62012  44.467   2.876   6.755
10431POPC   C3B62013  44.429   2.873   7.055
10431POPC   C4B62014  44.489   2.918   7.355
10432POPC   NC362015  44.641  24.445   5.555
10432POPC   PO462016  44.652  24.487   5.855
10432POPC   GL162017  44.633  24.463   6.155
10432POPC   GL262018  44.564  24.619   6.155
10432POPC   C1A62019  44.701  24.537   6.455
10432POPC   D2A62020  44.685  24.465   6.755
10432POPC   C3A62021  44.688  24.531   7.055
10432POPC   C4A62022  44.636  24.443   7.355
10432POPC   C1B62023  44.528  24.715   6.455
10432POPC   C2B62024  44.469  24.625   6.755
10432POPC   C3B62025  44.487  24.636   7.055
10432POPC   C4B62026  44.523  24.691   7.355
10433POPC   NC362027  30.711   0.473   5.555
10433POPC   PO462028  30.657   0.408   5.855
10433POPC   GL162029  30.665   0.406   6.155
10433POPC   GL262030  30.850   0.372   6.155
10433POPC   C1A62031  30.712   0.416   6.455
10433POPC   D2A62032  30.647   0.417   6.755
10433POPC   C3A62033  30.699   0.465   7.055
10433POPC   C4A62034  30.676   0.458   7.355
10433POPC   C1B62035  30.980   0.385   6.455
10433POPC   C2B62036  30.911   0.377   6.755
10433POPC   C3B62037  30.940   0.337   7.055
10433POPC   C4B62038  30.927   0.380   7.355
10434POPC   NC362039  26.830  30.716   5.555
10434POPC   PO462040  26.858  30.736   5.855
10434POPC   GL162041  26.774  30.652   6.155
10434POPC   GL262042  26.775  30.596   6.155
10434POPC   C1A62043  26.830  30.700   6.455
10434POPC   D2A62044  26.779  30.696   6.755
10434POPC   C3A62045  26.800  30.676   7.055
10434POPC   C4A62046  26.784  30.687   7.355
10434POPC   C1B62047  26.599  30.526   6.455
10434POPC   C2B62048  26.651  30.561   6.755
10434POPC   C3B62049  26.615  30.530   7.055
10434POPC   C4B62050  26.618  30.540   7.355
10435POPC   NC362051   4.285   1.236   5.555
10435POPC   PO462052   4.315   1.229   5.855
10435POPC   GL162053   4.275   1.264   6.155
10435POPC   GL262054   4.407   1.185   6.155
10435POPC   C1A62055   4.302   1.240   6.455
10435POPC   D2A62056   4.284   1.241   6.755
10435POPC   C3A62057   4.336   1.262   7.055
10435POPC   C4A62058   4.360   1.258   7.355
10435POPC   C1B62059   4.519   1.187   6.455
10435POPC   C2B62060   4.609   1.155   6.755
10435POPC   C3B62061   4.550   1.167   7.055
10435POPC   C4B62062   4.611   1.186   7.355
10436POPC   NC362063  18.235  22.904   5.555
10436POPC   PO462064  18.265  22.943   5.855
10436POPC   GL162065  18.271  22.923   6.155
10436POPC   GL262066  18.155  23.010   6.155
10436POPC   C1A62067  18.264  22.972   6.455
10436POPC   D2A62068  18.313  22.986   6.755
10436POPC   C3A62069  18.315  22.944   7.055
10436POPC   C4A62070  18.259  22.894   7.355
10436POPC   C1B62071  18.046  23.054   6.455
10436POPC   C2B62072  18.122  23.106   6.755
10436POPC   C3B62073  18.124  23.089   7.055
10436POPC   C4B62074  18.123  23.149   7.355
10437POPC   NC362075  29.897  22.184   5.555
10437POPC   PO462076  29.951  22.165   5.855
10437POPC   GL162077  29.923  22.200   6.155
10437POPC   GL262078  29.895  22.053   6.155
10437POPC   C1A62079  29.877  22.211   6.455
10437POPC   D2A62080  29.921  22.143   6.755
10437POPC   C3A62081  29.939  22.132   7.055
10437POPC   C4A62082  29.887  22.144   7.355
10437POPC   C1B62083  29.889  21.882   6.455
10437POPC   C2B62084  29.976  21.908   6.755
10437POPC   C3B62085  29.955  21.876   7.055
10437POPC   C4B62086  29.884  21.920   7.355
10438POPC   NC362087  15.223  20.658   5.555
10438POPC   PO462088  15.227  20.628   5.855
10438POPC   GL162089  15.160  20.564   6.155
10438POPC   GL262090  15.282  20.590   6.155
10438POPC   C1A62091  15.201  20.631   6.455
10438POPC   D2A62092  15.201  20.615   6.755
10438POPC   C3A62093  15.223  20.624   7.055
10438POPC   C4A62094  15.209  20.577   7.355
10438POPC   C1B62095  15.415  20.539   6.455
10438POPC   C2B62096  15.357  20.489   6.755
10438POPC   C3B62097  15.412  20.452   7.055
10438POPC   C4B62098  15.392  20.524   7.355
10439POPC   NC362099  25.996  15.948   5.555
10439POPC   PO462100  25.997  15.992   5.855
10439POPC   GL162101  26.086  15.941   6.155
10439POPC   GL262102  26.102  16.054   6.155
10439POPC   C1A62103  26.008  15.984   6.455
10439POPC   D2A62104  26.006  15.987   6.755
10439POPC   C3A62105  26.081  15.968   7.055
10439POPC   C4A62106  26.040  15.996   7.355
10439POPC   C1B62107  26.203  16.132   6.455
10439POPC   C2B62108  26.265  16.117   6.755
10439POPC   C3B62109  26.231  16.063   7.055
10439POPC   C4B62110  26.250  16.119   7.355
10440POPC   NC362111   8.206   0.453   5.555
10440POPC   PO462112   8.165   0.428   5.855
10440POPC   GL162113   8.188   0.462   6.155
10440POPC   GL262114   8.137   0.505   6.155
10440POPC   C1A62115   8.224   0.417   6.455
10440POPC   D2A62116   8.237   0.475   6.755
10440POPC   C3A62117   8.216   0.471   7.055
10440POPC   C4A62118   8.162   0.403   7.355
10440POPC   C1B62119   8.043   0.631   6.455
10440POPC   C2B62120   8.010   0.667   6.755
10440POPC   C3B62121   8.084   0.663   7.055
10440POPC   C4B62122   8.042   0.661   7.355
10441POPC   NC362123  26.861   1.221   5.555
10441POPC   PO462124  26.848   1.199   5.855
10441POPC   GL162125  26.805   1.236   6.155
10441POPC   GL262126  26.914   1.219   6.155
10441POPC   C1A62127  26.855   1.227   6.455
10441POPC   D2A62128  26.786   1.224   6.755
10441POPC   C3A62129  26.827   1.180   7.055
10441POPC   C4A62130  26.855   1.206   7.355
10441POPC   C1B62131  27.047   1.166   6.455
10441POPC   C2B62132  27.019   1.088   6.755
10441POPC   C3B62133  27.069   1.142   7.055
10441POPC   C4B62134  27.039   1.165   7.355
10442POPC   NC362135   1.213  41.564   5.555
10442POPC   PO462136   1.189  41.597   5.855
10442POPC   GL162137   1.177  41.576   6.155
10442POPC   GL262138   1.314  41.421   6.155
10442POPC   C1A62139   1.189  41.537   6.455
10442POPC   D2A62140   1.252  41.522   6.755
10442POPC   C3A62141   1.220  41.579   7.055
10442POPC   C4A62142   1.235  41.574   7.355
10442POPC   C1B62143   1.397  41.327   6.455
10442POPC   C2B62144   1.379  41.363   6.755
10442POPC   C3B62145   1.318  41.360   7.055
10442POPC   C4B62146   1.330  41.373   7.355
10443POPC   NC362147   8.244  36.103   5.555
10443POPC   PO462148   8.178  36.156   5.855
10443POPC   GL162149   8.226  36.105   6.155
10443POPC   GL262150   8.142  36.052   6.155
10443POPC   C1A62151   8.171  36.166   6.455
10443POPC   D2A62152   8.171  36.133   6.755
10443POPC   C3A62153   8.231  36.127   7.055
10443POPC   C4A62154   8.210  36.165   7.355
10443POPC   C1B62155   8.089  35.901   6.455
10443POPC   C2B62156   8.137  35.884   6.755
10443POPC   C3B62157   8.088  35.844   7.055
10443POPC   C4B62158   8.151  35.854   7.355
10444POPC   NC362159  22.198   6.619   5.555
10444POPC   PO462160  22.135   6.694   5.855
10444POPC   GL162161  22.158   6.640   6.155
10444POPC   GL262162  22.200   6.555   6.155
10444POPC   C1A62163  22.177   6.646   6.455
10444POPC   D2A62164  22.139   6.639   6.755
10444POPC   C3A62165  22.198   6.691   7.055
10444POPC   C4A62166  22.151   6.638   7.355
10444POPC   C1B62167  22.297   6.424   6.455
10444POPC   C2B62168  22.246   6.380   6.755
10444POPC   C3B62169  22.235   6.401   7.055
10444POPC   C4B62170  22.273   6.431   7.355
10445POPC   NC362171   8.960   9.786   5.555
10445POPC   PO462172   8.985   9.742   5.855
10445POPC   GL162173   8.967   9.778   6.155
10445POPC   GL262174   9.002   9.683   6.155
10445POPC   C1A62175   8.935   9.769   6.455
10445POPC   D2A62176   9.005   9.740   6.755
10445POPC   C3A62177   8.994   9.715   7.055
10445POPC   C4A62178   9.001   9.735   7.355
10445POPC   C1B62179   9.083   9.594   6.455
10445POPC   C2B62180   9.106   9.547   6.755
10445POPC   C3B62181   9.139   9.583   7.055
10445POPC   C4B62182   9.146   9.540   7.355
10446POPC   NC362183  26.052  10.511   5.555
10446POPC   PO462184  26.075  10.506   5.855
10446POPC   GL162185  26.011  10.492   6.155
10446POPC   GL262186  26.060  10.689   6.155
10446POPC   C1A62187  26.010  10.518   6.455
10446POPC   D2A62188  26.050  10.525   6.755
10446POPC   C3A62189  26.071  10.567   7.055
10446POPC   C4A62190  26.076  10.517   7.355
10446POPC   C1B62191  25.950  10.764   6.455
10446POPC   C2B62192  25.988  10.781   6.755
10446POPC   C3B62193  25.941  10.748   7.055
10446POPC   C4B62194  25.950  10.718   7.355
10447POPC   NC362195  18.238  34.577   5.555
10447POPC   PO462196  18.299  34.561   5.855
10447POPC   GL162197  18.280  34.620   6.155
10447POPC   GL262198  18.446  34.626   6.155
10447POPC   C1A62199  18.241  34.537   6.455
10447POPC   D2A62200  18.238  34.569   6.755
10447POPC   C3A62201  18.308  34.609   7.055
10447POPC   C4A62202  18.308  34.588   7.355
10447POPC   C1B62203  18.485  34.674   6.455
10447POPC   C2B62204  18.532  34.607   6.755
10447POPC   C3B62205  18.517  34.613   7.055
10447POPC   C4B62206  18.521  34.637   7.355
10448POPC   NC362207  27.551  37.663   5.555
10448POPC   PO462208  27.573  37.676   5.855
10448POPC   GL162209  27.567  37.673   6.155
10448POPC   GL262210  27.536  37.620   6.155
10448POPC   C1A62211  27.579  37.659   6.455
10448POPC   D2A62212  27.622  37.704   6.755
10448POPC   C3A62213  27.589  37.720   7.055
10448POPC   C4A62214  27.618  37.647   7.355
10448POPC   C1B62215  27.385  37.522   6.455
10448POPC   C2B62216  27.406  37.516   6.755
10448POPC   C3B62217  27.396  37.486   7.055
10448POPC   C4B62218  27.435  37.495   7.355
10449POPC   NC362219  12.809  16.683   5.555
10449POPC   PO462220  12.809  16.731   5.855
10449POPC   GL162221  12.867  16.724   6.155
10449POPC   GL262222  12.796  16.578   6.155
10449POPC   C1A62223  12.829  16.710   6.455
10449POPC   D2A62224  12.848  16.718   6.755
10449POPC   C3A62225  12.847  16.750   7.055
10449POPC   C4A62226  12.844  16.769   7.355
10449POPC   C1B62227  12.719  16.515   6.455
10449POPC   C2B62228  12.760  16.447   6.755
10449POPC   C3B62229  12.725  16.528   7.055
10449POPC   C4B62230  12.795  16.513   7.355
10450POPC   NC362231  12.888  19.823   5.555
10450POPC   PO462232  12.821  19.851   5.855
10450POPC   GL162233  12.856  19.810   6.155
10450POPC   GL262234  12.867  19.700   6.155
10450POPC   C1A62235  12.843  19.835   6.455
10450POPC   D2A62236  12.872  19.815   6.755
10450POPC   C3A62237  12.838  19.851   7.055
10450POPC   C4A62238  12.870  19.881   7.355
10450POPC   C1B62239  12.932  19.585   6.455
10450POPC   C2B62240  12.893  19.584   6.755
10450POPC   C3B62241  12.879  19.551   7.055
10450POPC   C4B62242  12.920  19.631   7.355
10451POPC   NC362243  22.189  29.168   5.555
10451POPC   PO462244  22.124  29.120   5.855
10451POPC   GL162245  22.191  29.100   6.155
10451POPC   GL262246  22.015  29.080   6.155
10451POPC   C1A62247  22.195  29.095   6.455
10451POPC   D2A62248  22.175  29.109   6.755
10451POPC   C3A62249  22.206  29.140   7.055
10451POPC   C4A62250  22.124  29.158   7.355
10451POPC   C1B62251  21.867  29.135   6.455
10451POPC   C2B62252  21.877  29.128   6.755
10451POPC   C3B62253  21.921  29.101   7.055
10451POPC   C4B62254  21.959  29.075   7.355
10452POPC   NC362255  33.776   5.065   5.555
10452POPC   PO462256  33.822   5.045   5.855
10452POPC   GL162257  33.823   5.088   6.155
10452POPC   GL262258  33.825   5.233   6.155
10452POPC   C1A62259  33.802   5.097   6.455
10452POPC   D2A62260  33.823   5.053   6.755
10452POPC   C3A62261  33.774   5.086   7.055
10452POPC   C4A62262  33.848   5.110   7.355
10452POPC   C1B62263  33.790   5.324   6.455
10452POPC   C2B62264  33.778   5.334   6.755
10452POPC   C3B62265  33.820   5.298   7.055
10452POPC   C4B62266  33.840   5.334   7.355
10453POPC   NC362267  22.970   9.758   5.555
10453POPC   PO462268  22.966   9.762   5.855
10453POPC   GL162269  22.925   9.768   6.155
10453POPC   GL262270  22.882   9.822   6.155
10453POPC   C1A62271  22.948   9.731   6.455
10453POPC   D2A62272  22.948   9.766   6.755
10453POPC   C3A62273  22.946   9.720   7.055
10453POPC   C4A62274  22.911   9.786   7.355
10453POPC   C1B62275  22.834   9.937   6.455
10453POPC   C2B62276  22.834   9.939   6.755
10453POPC   C3B62277  22.855   9.980   7.055
10453POPC   C4B62278  22.848  10.010   7.355
10454POPC   NC362279  43.854  14.380   5.555
10454POPC   PO462280  43.929  14.414   5.855
10454POPC   GL162281  43.853  14.390   6.155
10454POPC   GL262282  43.881  14.291   6.155
10454POPC   C1A62283  43.864  14.411   6.455
10454POPC   D2A62284  43.920  14.355   6.755
10454POPC   C3A62285  43.907  14.432   7.055
10454POPC   C4A62286  43.904  14.440   7.355
10454POPC   C1B62287  43.846  14.187   6.455
10454POPC   C2B62288  43.871  14.110   6.755
10454POPC   C3B62289  43.879  14.168   7.055
10454POPC   C4B62290  43.890  14.148   7.355
10455POPC   NC362291  33.847   3.538   5.555
10455POPC   PO462292  33.766   3.582   5.855
10455POPC   GL162293  33.820   3.525   6.155
10455POPC   GL262294  33.722   3.480   6.155
10455POPC   C1A62295  33.818   3.493   6.455
10455POPC   D2A62296  33.769   3.522   6.755
10455POPC   C3A62297  33.765   3.566   7.055
10455POPC   C4A62298  33.770   3.507   7.355
10455POPC   C1B62299  33.545   3.409   6.455
10455POPC   C2B62300  33.540   3.460   6.755
10455POPC   C3B62301  33.561   3.392   7.055
10455POPC   C4B62302  33.574   3.438   7.355
10456POPC   NC362303  10.498  28.396   5.555
10456POPC   PO462304  10.510  28.329   5.855
10456POPC   GL162305  10.528  28.344   6.155
10456POPC   GL262306  10.504  28.513   6.155
10456POPC   C1A62307  10.543  28.412   6.455
10456POPC   D2A62308  10.479  28.398   6.755
10456POPC   C3A62309  10.556  28.388   7.055
10456POPC   C4A62310  10.497  28.323   7.355
10456POPC   C1B62311  10.425  28.540   6.455
10456POPC   C2B62312  10.409  28.589   6.755
10456POPC   C3B62313  10.395  28.624   7.055
10456POPC   C4B62314  10.355  28.591   7.355
10457POPC   NC362315  31.503  21.358   5.555
10457POPC   PO462316  31.443  21.376   5.855
10457POPC   GL162317  31.482  21.344   6.155
10457POPC   GL262318  31.488  21.314   6.155
10457POPC   C1A62319  31.443  21.377   6.455
10457POPC   D2A62320  31.434  21.349   6.755
10457POPC   C3A62321  31.479  21.397   7.055
10457POPC   C4A62322  31.447  21.427   7.355
10457POPC   C1B62323  31.582  21.106   6.455
10457POPC   C2B62324  31.577  21.175   6.755
10457POPC   C3B62325  31.539  21.112   7.055
10457POPC   C4B62326  31.586  21.160   7.355
10458POPC   NC362327  19.873   4.359   5.555
10458POPC   PO462328  19.839   4.356   5.855
10458POPC   GL162329  19.820   4.282   6.155
10458POPC   GL262330  19.741   4.392   6.155
10458POPC   C1A62331  19.831   4.335   6.455
10458POPC   D2A62332  19.883   4.300   6.755
10458POPC   C3A62333  19.810   4.339   7.055
10458POPC   C4A62334  19.870   4.326   7.355
10458POPC   C1B62335  19.623   4.403   6.455
10458POPC   C2B62336  19.599   4.352   6.755
10458POPC   C3B62337  19.578   4.332   7.055
10458POPC   C4B62338  19.551   4.405   7.355
10459POPC   NC362339  35.345  17.554   5.555
10459POPC   PO462340  35.314  17.525   5.855
10459POPC   GL162341  35.305  17.480   6.155
10459POPC   GL262342  35.276  17.590   6.155
10459POPC   C1A62343  35.336  17.527   6.455
10459POPC   D2A62344  35.350  17.542   6.755
10459POPC   C3A62345  35.335  17.534   7.055
10459POPC   C4A62346  35.382  17.547   7.355
10459POPC   C1B62347  35.290  17.706   6.455
10459POPC   C2B62348  35.311  17.746   6.755
10459POPC   C3B62349  35.268  17.739   7.055
10459POPC   C4B62350  35.303  17.781   7.355
10460POPC   NC362351   5.087  38.488   5.555
10460POPC   PO462352   5.081  38.460   5.855
10460POPC   GL162353   5.090  38.436   6.155
10460POPC   GL262354   4.946  38.528   6.155
10460POPC   C1A62355   5.137  38.431   6.455
10460POPC   D2A62356   5.109  38.451   6.755
10460POPC   C3A62357   5.137  38.469   7.055
10460POPC   C4A62358   5.110  38.433   7.355
10460POPC   C1B62359   4.859  38.553   6.455
10460POPC   C2B62360   4.853  38.545   6.755
10460POPC   C3B62361   4.828  38.504   7.055
10460POPC   C4B62362   4.881  38.486   7.355
10461POPC   NC362363   5.061  15.908   5.555
10461POPC   PO462364   5.137  15.912   5.855
10461POPC   GL162365   5.080  15.958   6.155
10461POPC   GL262366   5.044  16.081   6.155
10461POPC   C1A62367   5.073  15.974   6.455
10461POPC   D2A62368   5.128  15.988   6.755
10461POPC   C3A62369   5.128  15.969   7.055
10461POPC   C4A62370   5.098  15.930   7.355
10461POPC   C1B62371   4.950  16.179   6.455
10461POPC   C2B62372   4.971  16.144   6.755
10461POPC   C3B62373   4.981  16.174   7.055
10461POPC   C4B62374   4.952  16.158   7.355
10462POPC   NC362375  17.536  15.982   5.555
10462POPC   PO462376  17.469  15.984   5.855
10462POPC   GL162377  17.553  15.990   6.155
10462POPC   GL262378  17.409  16.013   6.155
10462POPC   C1A62379  17.522  15.979   6.455
10462POPC   D2A62380  17.475  15.976   6.755
10462POPC   C3A62381  17.534  15.995   7.055
10462POPC   C4A62382  17.489  15.938   7.355
10462POPC   C1B62383  17.310  16.144   6.455
10462POPC   C2B62384  17.335  16.145   6.755
10462POPC   C3B62385  17.349  16.064   7.055
10462POPC   C4B62386  17.265  16.108   7.355
10463POPC   NC362387  20.569  36.091   5.555
10463POPC   PO462388  20.618  36.113   5.855
10463POPC   GL162389  20.645  36.173   6.155
10463POPC   GL262390  20.545  35.986   6.155
10463POPC   C1A62391  20.649  36.137   6.455
10463POPC   D2A62392  20.595  36.080   6.755
10463POPC   C3A62393  20.613  36.138   7.055
10463POPC   C4A62394  20.577  36.132   7.355
10463POPC   C1B62395  20.599  35.866   6.455
10463POPC   C2B62396  20.545  35.913   6.755
10463POPC   C3B62397  20.543  35.847   7.055
10463POPC   C4B62398  20.602  35.872   7.355
10464POPC   NC362399  15.981  40.001   5.555
10464POPC   PO462400  15.990  40.031   5.855
10464POPC   GL162401  15.952  40.056   6.155
10464POPC   GL262402  15.993  40.092   6.155
10464POPC   C1A62403  15.920  39.998   6.455
10464POPC   D2A62404  15.933  39.961   6.755
10464POPC   C3A62405  15.978  39.976   7.055
10464POPC   C4A62406  15.987  39.970   7.355
10464POPC   C1B62407  16.091  40.211   6.455
10464POPC   C2B62408  16.033  40.206   6.755
10464POPC   C3B62409  16.087  40.216   7.055
10464POPC   C4B62410  16.102  40.266   7.355
10465POPC   NC362411  29.137  37.662   5.555
10465POPC   PO462412  29.132  37.693   5.855
10465POPC   GL162413  29.167  37.680   6.155
10465POPC   GL262414  29.219  37.543   6.155
10465POPC   C1A62415  29.129  37.657   6.455
10465POPC   D2A62416  29.139  37.633   6.755
10465POPC   C3A62417  29.114  37.636   7.055
10465POPC   C4A62418  29.171  37.650   7.355
10465POPC   C1B62419  29.254  37.432   6.455
10465POPC   C2B62420  29.274  37.451   6.755
10465POPC   C3B62421  29.263  37.426   7.055
10465POPC   C4B62422  29.238  37.429   7.355
10466POPC   NC362423  20.587   1.985   5.555
10466POPC   PO462424  20.581   1.983   5.855
10466POPC   GL162425  20.567   2.002   6.155
10466POPC   GL262426  20.685   2.002   6.155
10466POPC   C1A62427  20.650   1.941   6.455
10466POPC   D2A62428  20.589   2.006   6.755
10466POPC   C3A62429  20.637   2.017   7.055
10466POPC   C4A62430  20.655   1.955   7.355
10466POPC   C1B62431  20.891   2.007   6.455
10466POPC   C2B62432  20.811   1.955   6.755
10466POPC   C3B62433  20.849   1.988   7.055
10466POPC   C4B62434  20.849   2.022   7.355
10467POPC   NC362435  34.593  22.136   5.555
10467POPC   PO462436  34.566  22.205   5.855
10467POPC   GL162437  34.611  22.193   6.155
10467POPC   GL262438  34.718  22.159   6.155
10467POPC   C1A62439  34.571  22.140   6.455
10467POPC   D2A62440  34.542  22.199   6.755
10467POPC   C3A62441  34.580  22.163   7.055
10467POPC   C4A62442  34.572  22.157   7.355
10467POPC   C1B62443  34.780  22.144   6.455
10467POPC   C2B62444  34.778  22.118   6.755
10467POPC   C3B62445  34.826  22.130   7.055
10467POPC   C4B62446  34.854  22.136   7.355
10468POPC   NC362447  15.959  25.245   5.555
10468POPC   PO462448  15.952  25.249   5.855
10468POPC   GL162449  15.916  25.245   6.155
10468POPC   GL262450  16.001  25.410   6.155
10468POPC   C1A62451  15.930  25.290   6.455
10468POPC   D2A62452  16.001  25.255   6.755
10468POPC   C3A62453  16.002  25.238   7.055
10468POPC   C4A62454  15.931  25.265   7.355
10468POPC   C1B62455  16.100  25.534   6.455
10468POPC   C2B62456  16.086  25.496   6.755
10468POPC   C3B62457  16.018  25.519   7.055
10468POPC   C4B62458  16.102  25.540   7.355
10469POPC   NC362459  15.146  40.742   5.555
10469POPC   PO462460  15.137  40.751   5.855
10469POPC   GL162461  15.214  40.768   6.155
10469POPC   GL262462  15.029  40.860   6.155
10469POPC   C1A62463  15.144  40.775   6.455
10469POPC   D2A62464  15.169  40.789   6.755
10469POPC   C3A62465  15.170  40.739   7.055
10469POPC   C4A62466  15.200  40.815   7.355
10469POPC   C1B62467  14.972  40.863   6.455
10469POPC   C2B62468  14.975  40.831   6.755
10469POPC   C3B62469  14.958  40.861   7.055
10469POPC   C4B62470  14.963  40.875   7.355
10470POPC   NC362471   1.985  36.854   5.555
10470POPC   PO462472   2.012  36.873   5.855
10470POPC   GL162473   1.947  36.926   6.155
10470POPC   GL262474   1.869  36.955   6.155
10470POPC   C1A62475   1.958  36.911   6.455
10470POPC   D2A62476   1.983  36.870   6.755
10470POPC   C3A62477   1.982  36.916   7.055
10470POPC   C4A62478   1.967  36.916   7.355
10470POPC   C1B62479   1.831  37.126   6.455
10470POPC   C2B62480   1.871  37.141   6.755
10470POPC   C3B62481   1.869  37.112   7.055
10470POPC   C4B62482   1.808  37.102   7.355
10471POPC   NC362483  33.048   5.094   5.555
10471POPC   PO462484  33.066   5.063   5.855
10471POPC   GL162485  33.067   5.104   6.155
10471POPC   GL262486  32.915   5.143   6.155
10471POPC   C1A62487  33.018   5.119   6.455
10471POPC   D2A62488  32.996   5.121   6.755
10471POPC   C3A62489  33.058   5.065   7.055
10471POPC   C4A62490  33.053   5.054   7.355
10471POPC   C1B62491  32.764   5.125   6.455
10471POPC   C2B62492  32.790   5.108   6.755
10471POPC   C3B62493  32.728   5.167   7.055
10471POPC   C4B62494  32.779   5.149   7.355
10472POPC   NC362495   5.080   2.788   5.555
10472POPC   PO462496   5.119   2.807   5.855
10472POPC   GL162497   5.058   2.761   6.155
10472POPC   GL262498   5.101   2.634   6.155
10472POPC   C1A62499   5.088   2.750   6.455
10472POPC   D2A62500   5.129   2.744   6.755
10472POPC   C3A62501   5.112   2.769   7.055
10472POPC   C4A62502   5.096   2.812   7.355
10472POPC   C1B62503   5.173   2.575   6.455
10472POPC   C2B62504   5.184   2.560   6.755
10472POPC   C3B62505   5.213   2.525   7.055
10472POPC   C4B62506   5.154   2.567   7.355
10473POPC   NC362507  26.863  39.182   5.555
10473POPC   PO462508  26.777  39.207   5.855
10473POPC   GL162509  26.827  39.189   6.155
10473POPC   GL262510  26.958  39.199   6.155
10473POPC   C1A62511  26.788  39.264   6.455
10473POPC   D2A62512  26.847  39.183   6.755
10473POPC   C3A62513  26.798  39.246   7.055
10473POPC   C4A62514  26.854  39.252   7.355
10473POPC   C1B62515  27.101  39.205   6.455
10473POPC   C2B62516  27.071  39.249   6.755
10473POPC   C3B62517  27.025  39.299   7.055
10473POPC   C4B62518  27.101  39.237   7.355
10474POPC   NC362519  12.026  36.873   5.555
10474POPC   PO462520  12.072  36.937   5.855
10474POPC   GL162521  12.076  36.938   6.155
10474POPC   GL262522  12.042  36.987   6.155
10474POPC   C1A62523  12.101  36.920   6.455
10474POPC   D2A62524  12.038  36.882   6.755
10474POPC   C3A62525  12.069  36.869   7.055
10474POPC   C4A62526  12.038  36.872   7.355
10474POPC   C1B62527  11.937  37.085   6.455
10474POPC   C2B62528  11.935  37.154   6.755
10474POPC   C3B62529  11.900  37.120   7.055
10474POPC   C4B62530  11.914  37.155   7.355
10475POPC   NC362531   5.137  23.737   5.555
10475POPC   PO462532   5.133  23.717   5.855
10475POPC   GL162533   5.109  23.690   6.155
10475POPC   GL262534   5.086  23.547   6.155
10475POPC   C1A62535   5.071  23.753   6.455
10475POPC   D2A62536   5.101  23.761   6.755
10475POPC   C3A62537   5.054  23.762   7.055
10475POPC   C4A62538   5.047  23.670   7.355
10475POPC   C1B62539   5.013  23.489   6.455
10475POPC   C2B62540   5.066  23.517   6.755
10475POPC   C3B62541   5.057  23.513   7.055
10475POPC   C4B62542   4.989  23.495   7.355
10476POPC   NC362543   1.167  14.420   5.555
10476POPC   PO462544   1.182  14.427   5.855
10476POPC   GL162545   1.201  14.443   6.155
10476POPC   GL262546   1.306  14.518   6.155
10476POPC   C1A62547   1.164  14.438   6.455
10476POPC   D2A62548   1.223  14.355   6.755
10476POPC   C3A62549   1.204  14.361   7.055
10476POPC   C4A62550   1.197  14.359   7.355
10476POPC   C1B62551   1.348  14.639   6.455
10476POPC   C2B62552   1.343  14.673   6.755
10476POPC   C3B62553   1.297  14.630   7.055
10476POPC   C4B62554   1.347  14.649   7.355
10477POPC   NC362555  36.147  13.587   5.555
10477POPC   PO462556  36.090  13.674   5.855
10477POPC   GL162557  36.177  13.607   6.155
10477POPC   GL262558  36.140  13.454   6.155
10477POPC   C1A62559  36.100  13.629   6.455
10477POPC   D2A62560  36.175  13.642   6.755
10477POPC   C3A62561  36.174  13.633   7.055
10477POPC   C4A62562  36.142  13.639   7.355
10477POPC   C1B62563  36.116  13.354   6.455
10477POPC   C2B62564  36.138  13.337   6.755
10477POPC   C3B62565  36.058  13.344   7.055
10477POPC   C4B62566  36.042  13.342   7.355
10478POPC   NC362567  43.142  25.285   5.555
10478POPC   PO462568  43.097  25.234   5.855
10478POPC   GL162569  43.154  25.297   6.155
10478POPC   GL262570  43.049  25.430   6.155
10478POPC   C1A62571  43.062  25.285   6.455
10478POPC   D2A62572  43.141  25.314   6.755
10478POPC   C3A62573  43.125  25.260   7.055
10478POPC   C4A62574  43.101  25.278   7.355
10478POPC   C1B62575  43.052  25.489   6.455
10478POPC   C2B62576  43.035  25.466   6.755
10478POPC   C3B62577  43.060  25.519   7.055
10478POPC   C4B62578  43.016  25.473   7.355
10479POPC   NC362579   4.313  12.866   5.555
10479POPC   PO462580   4.285  12.837   5.855
10479POPC   GL162581   4.328  12.887   6.155
10479POPC   GL262582   4.185  12.879   6.155
10479POPC   C1A62583   4.268  12.841   6.455
10479POPC   D2A62584   4.279  12.848   6.755
10479POPC   C3A62585   4.332  12.829   7.055
10479POPC   C4A62586   4.337  12.826   7.355
10479POPC   C1B62587   4.077  12.848   6.455
10479POPC   C2B62588   4.114  12.888   6.755
10479POPC   C3B62589   4.119  12.859   7.055
10479POPC   C4B62590   4.037  12.875   7.355
10480POPC   NC362591  10.518   8.225   5.555
10480POPC   PO462592  10.573   8.220   5.855
10480POPC   GL162593  10.506   8.210   6.155
10480POPC   GL262594  10.599   8.151   6.155
10480POPC   C1A62595  10.509   8.229   6.455
10480POPC   D2A62596  10.553   8.216   6.755
10480POPC   C3A62597  10.565   8.241   7.055
10480POPC   C4A62598  10.484   8.207   7.355
10480POPC   C1B62599  10.727   7.988   6.455
10480POPC   C2B62600  10.669   8.030   6.755
10480POPC   C3B62601  10.696   8.077   7.055
10480POPC   C4B62602  10.679   7.999   7.355
10481POPC   NC362603  14.443  10.508   5.555
10481POPC   PO462604  14.369  10.548   5.855
10481POPC   GL162605  14.356  10.505   6.155
10481POPC   GL262606  14.443  10.649   6.155
10481POPC   C1A62607  14.422  10.537   6.455
10481POPC   D2A62608  14.362  10.559   6.755
10481POPC   C3A62609  14.430  10.497   7.055
10481POPC   C4A62610  14.383  10.497   7.355
10481POPC   C1B62611  14.544  10.661   6.455
10481POPC   C2B62612  14.574  10.742   6.755
10481POPC   C3B62613  14.579  10.742   7.055
10481POPC   C4B62614  14.547  10.687   7.355
10482POPC   NC362615   5.840  40.033   5.555
10482POPC   PO462616   5.827  39.973   5.855
10482POPC   GL162617   5.853  40.046   6.155
10482POPC   GL262618   5.945  39.940   6.155
10482POPC   C1A62619   5.908  39.968   6.455
10482POPC   D2A62620   5.913  40.014   6.755
10482POPC   C3A62621   5.850  40.055   7.055
10482POPC   C4A62622   5.902  40.052   7.355
10482POPC   C1B62623   6.146  39.909   6.455
10482POPC   C2B62624   6.144  39.925   6.755
10482POPC   C3B62625   6.151  39.902   7.055
10482POPC   C4B62626   6.061  39.891   7.355
10483POPC   NC362627  19.798  41.547   5.555
10483POPC   PO462628  19.833  41.574   5.855
10483POPC   GL162629  19.846  41.588   6.155
10483POPC   GL262630  19.711  41.608   6.155
10483POPC   C1A62631  19.872  41.571   6.455
10483POPC   D2A62632  19.866  41.555   6.755
10483POPC   C3A62633  19.851  41.593   7.055
10483POPC   C4A62634  19.786  41.597   7.355
10483POPC   C1B62635  19.657  41.687   6.455
10483POPC   C2B62636  19.684  41.734   6.755
10483POPC   C3B62637  19.620  41.719   7.055
10483POPC   C4B62638  19.608  41.742   7.355
10484POPC   NC362639  11.328  39.959   5.555
10484POPC   PO462640  11.299  40.033   5.855
10484POPC   GL162641  11.263  39.981   6.155
10484POPC   GL262642  11.311  39.843   6.155
10484POPC   C1A62643  11.260  40.011   6.455
10484POPC   D2A62644  11.344  40.055   6.755
10484POPC   C3A62645  11.287  39.994   7.055
10484POPC   C4A62646  11.313  40.054   7.355
10484POPC   C1B62647  11.309  39.767   6.455
10484POPC   C2B62648  11.271  39.807   6.755
10484POPC   C3B62649  11.249  39.765   7.055
10484POPC   C4B62650  11.294  39.759   7.355
10485POPC   NC362651  18.233  33.764   5.555
10485POPC   PO462652  18.235  33.827   5.855
10485POPC   GL162653  18.282  33.845   6.155
10485POPC   GL262654  18.172  33.786   6.155
10485POPC   C1A62655  18.330  33.755   6.455
10485POPC   D2A62656  18.315  33.810   6.755
10485POPC   C3A62657  18.301  33.829   7.055
10485POPC   C4A62658  18.305  33.817   7.355
10485POPC   C1B62659  18.061  33.799   6.455
10485POPC   C2B62660  17.994  33.798   6.755
10485POPC   C3B62661  18.018  33.758   7.055
10485POPC   C4B62662  18.008  33.713   7.355
10486POPC   NC362663   5.906  32.974   5.555
10486POPC   PO462664   5.914  32.991   5.855
10486POPC   GL162665   5.850  33.057   6.155
10486POPC   GL262666   5.802  32.993   6.155
10486POPC   C1A62667   5.885  33.050   6.455
10486POPC   D2A62668   5.862  33.047   6.755
10486POPC   C3A62669   5.829  33.022   7.055
10486POPC   C4A62670   5.907  33.039   7.355
10486POPC   C1B62671   5.685  32.863   6.455
10486POPC   C2B62672   5.669  32.901   6.755
10486POPC   C3B62673   5.726  32.829   7.055
10486POPC   C4B62674   5.695  32.893   7.355
10487POPC   NC362675  17.507  35.303   5.555
10487POPC   PO462676  17.459  35.341   5.855
10487POPC   GL162677  17.494  35.364   6.155
10487POPC   GL262678  17.599  35.337   6.155
10487POPC   C1A62679  17.493  35.372   6.455
10487POPC   D2A62680  17.489  35.304   6.755
10487POPC   C3A62681  17.459  35.306   7.055
10487POPC   C4A62682  17.515  35.361   7.355
10487POPC   C1B62683  17.763  35.272   6.455
10487POPC   C2B62684  17.715  35.337   6.755
10487POPC   C3B62685  17.715  35.277   7.055
10487POPC   C4B62686  17.708  35.297   7.355
10488POPC   NC362687   1.983   6.640   5.555
10488POPC   PO462688   2.020   6.610   5.855
10488POPC   GL162689   1.947   6.618   6.155
10488POPC   GL262690   2.097   6.630   6.155
10488POPC   C1A62691   1.988   6.653   6.455
10488POPC   D2A62692   1.943   6.605   6.755
10488POPC   C3A62693   2.014   6.606   7.055
10488POPC   C4A62694   1.992   6.611   7.355
10488POPC   C1B62695   2.234   6.518   6.455
10488POPC   C2B62696   2.163   6.569   6.755
10488POPC   C3B62697   2.161   6.526   7.055
10488POPC   C4B62698   2.174   6.512   7.355
10489POPC   NC362699  37.702  26.789   5.555
10489POPC   PO462700  37.698  26.859   5.855
10489POPC   GL162701  37.631  26.861   6.155
10489POPC   GL262702  37.582  26.888   6.155
10489POPC   C1A62703  37.688  26.794   6.455
10489POPC   D2A62704  37.633  26.769   6.755
10489POPC   C3A62705  37.692  26.776   7.055
10489POPC   C4A62706  37.640  26.824   7.355
10489POPC   C1B62707  37.473  26.988   6.455
10489POPC   C2B62708  37.467  26.958   6.755
10489POPC   C3B62709  37.476  27.004   7.055
10489POPC   C4B62710  37.489  26.943   7.355
10490POPC   NC362711  40.050  25.241   5.555
10490POPC   PO462712  40.056  25.243   5.855
10490POPC   GL162713  40.007  25.266   6.155
10490POPC   GL262714  39.955  25.192   6.155
10490POPC   C1A62715  40.025  25.237   6.455
10490POPC   D2A62716  40.049  25.234   6.755
10490POPC   C3A62717  39.960  25.228   7.055
10490POPC   C4A62718  39.982  25.287   7.355
10490POPC   C1B62719  39.873  25.048   6.455
10490POPC   C2B62720  39.871  25.080   6.755
10490POPC   C3B62721  39.845  25.027   7.055
10490POPC   C4B62722  39.908  25.026   7.355
10491POPC   NC362723   1.989  10.496   5.555
10491POPC   PO462724   2.009  10.547   5.855
10491POPC   GL162725   1.993  10.561   6.155
10491POPC   GL262726   2.101  10.507   6.155
10491POPC   C1A62727   2.039  10.486   6.455
10491POPC   D2A62728   1.999  10.522   6.755
10491POPC   C3A62729   2.017  10.504   7.055
10491POPC   C4A62730   2.035  10.563   7.355
10491POPC   C1B62731   2.217  10.464   6.455
10491POPC   C2B62732   2.195  10.469   6.755
10491POPC   C3B62733   2.211  10.474   7.055
10491POPC   C4B62734   2.211  10.491   7.355
10492POPC   NC362735   7.390  32.210   5.555
10492POPC   PO462736   7.399  32.212   5.855
10492POPC   GL162737   7.434  32.253   6.155
10492POPC   GL262738   7.523  32.241   6.155
10492POPC   C1A62739   7.406  32.230   6.455
10492POPC   D2A62740   7.392  32.242   6.755
10492POPC   C3A62741   7.388  32.291   7.055
10492POPC   C4A62742   7.390  32.200   7.355
10492POPC   C1B62743   7.675  32.201   6.455
10492POPC   C2B62744   7.625  32.138   6.755
10492POPC   C3B62745   7.655  32.140   7.055
10492POPC   C4B62746   7.657  32.117   7.355
10493POPC   NC362747  16.707  21.435   5.555
10493POPC   PO462748  16.755  21.387   5.855
10493POPC   GL162749  16.706  21.384   6.155
10493POPC   GL262750  16.815  21.460   6.155
10493POPC   C1A62751  16.696  21.404   6.455
10493POPC   D2A62752  16.684  21.434   6.755
10493POPC   C3A62753  16.774  21.349   7.055
10493POPC   C4A62754  16.708  21.388   7.355
10493POPC   C1B62755  16.800  21.565   6.455
10493POPC   C2B62756  16.888  21.659   6.755
10493POPC   C3B62757  16.866  21.577   7.055
10493POPC   C4B62758  16.872  21.631   7.355
10494POPC   NC362759   5.913  35.317   5.555
10494POPC   PO462760   5.874  35.335   5.855
10494POPC   GL162761   5.882  35.385   6.155
10494POPC   GL262762   5.803  35.494   6.155
10494POPC   C1A62763   5.899  35.389   6.455
10494POPC   D2A62764   5.856  35.344   6.755
10494POPC   C3A62765   5.896  35.343   7.055
10494POPC   C4A62766   5.843  35.327   7.355
10494POPC   C1B62767   5.697  35.583   6.455
10494POPC   C2B62768   5.677  35.570   6.755
10494POPC   C3B62769   5.679  35.578   7.055
10494POPC   C4B62770   5.661  35.581   7.355
10495POPC   NC362771   8.190  23.667   5.555
10495POPC   PO462772   8.170  23.738   5.855
10495POPC   GL162773   8.227  23.738   6.155
10495POPC   GL262774   8.080  23.688   6.155
10495POPC   C1A62775   8.235  23.709   6.455
10495POPC   D2A62776   8.148  23.682   6.755
10495POPC   C3A62777   8.171  23.686   7.055
10495POPC   C4A62778   8.231  23.694   7.355
10495POPC   C1B62779   7.972  23.684   6.455
10495POPC   C2B62780   7.946  23.630   6.755
10495POPC   C3B62781   7.984  23.588   7.055
10495POPC   C4B62782   7.962  23.673   7.355
10496POPC   NC362783   6.608  24.532   5.555
10496POPC   PO462784   6.643  24.482   5.855
10496POPC   GL162785   6.659  24.516   6.155
10496POPC   GL262786   6.639  24.661   6.155
10496POPC   C1A62787   6.624  24.440   6.455
10496POPC   D2A62788   6.693  24.501   6.755
10496POPC   C3A62789   6.680  24.515   7.055
10496POPC   C4A62790   6.636  24.531   7.355
10496POPC   C1B62791   6.600  24.699   6.455
10496POPC   C2B62792   6.577  24.700   6.755
10496POPC   C3B62793   6.638  24.772   7.055
10496POPC   C4B62794   6.662  24.750   7.355
10497POPC   NC362795   7.394  29.180   5.555
10497POPC   PO462796   7.430  29.098   5.855
10497POPC   GL162797   7.385  29.109   6.155
10497POPC   GL262798   7.339  29.015   6.155
10497POPC   C1A62799   7.395  29.140   6.455
10497POPC   D2A62800   7.470  29.174   6.755
10497POPC   C3A62801   7.417  29.112   7.055
10497POPC   C4A62802   7.390  29.100   7.355
10497POPC   C1B62803   7.370  28.947   6.455
10497POPC   C2B62804   7.326  28.872   6.755
10497POPC   C3B62805   7.326  28.951   7.055
10497POPC   C4B62806   7.297  28.944   7.355
10498POPC   NC362807  16.774  42.352   5.555
10498POPC   PO462808  16.688  42.306   5.855
10498POPC   GL162809  16.711  42.335   6.155
10498POPC   GL262810  16.654  42.494   6.155
10498POPC   C1A62811  16.726  42.375   6.455
10498POPC   D2A62812  16.763  42.305   6.755
10498POPC   C3A62813  16.757  42.299   7.055
10498POPC   C4A62814  16.736  42.353   7.355
10498POPC   C1B62815  16.672  42.525   6.455
10498POPC   C2B62816  16.664  42.595   6.755
10498POPC   C3B62817  16.589  42.542   7.055
10498POPC   C4B62818  16.634  42.597   7.355
10499POPC   NC362819  17.486  12.873   5.555
10499POPC   PO462820  17.544  12.809   5.855
10499POPC   GL162821  17.475  12.871   6.155
10499POPC   GL262822  17.440  12.725   6.155
10499POPC   C1A62823  17.477  12.835   6.455
10499POPC   D2A62824  17.487  12.834   6.755
10499POPC   C3A62825  17.531  12.873   7.055
10499POPC   C4A62826  17.544  12.834   7.355
10499POPC   C1B62827  17.316  12.645   6.455
10499POPC   C2B62828  17.285  12.703   6.755
10499POPC   C3B62829  17.337  12.663   7.055
10499POPC   C4B62830  17.339  12.652   7.355
10500POPC   NC362831  15.187   6.671   5.555
10500POPC   PO462832  15.131   6.596   5.855
10500POPC   GL162833  15.213   6.631   6.155
10500POPC   GL262834  15.265   6.593   6.155
10500POPC   C1A62835  15.179   6.668   6.455
10500POPC   D2A62836  15.181   6.619   6.755
10500POPC   C3A62837  15.204   6.629   7.055
10500POPC   C4A62838  15.154   6.687   7.355
10500POPC   C1B62839  15.385   6.425   6.455
10500POPC   C2B62840  15.348   6.493   6.755
10500POPC   C3B62841  15.388   6.416   7.055
10500POPC   C4B62842  15.309   6.493   7.355
10501POPC   NC362843  19.876  14.405   5.555
10501POPC   PO462844  19.816  14.378   5.855
10501POPC   GL162845  19.874  14.385   6.155
10501POPC   GL262846  19.866  14.323   6.155
10501POPC   C1A62847  19.841  14.405   6.455
10501POPC   D2A62848  19.789  14.425   6.755
10501POPC   C3A62849  19.794  14.364   7.055
10501POPC   C4A62850  19.829  14.371   7.355
10501POPC   C1B62851  20.042  14.184   6.455
10501POPC   C2B62852  20.010  14.223   6.755
10501POPC   C3B62853  19.993  14.198   7.055
10501POPC   C4B62854  20.009  14.181   7.355
10502POPC   NC362855  36.112  19.096   5.555
10502POPC   PO462856  36.083  19.052   5.855
10502POPC   GL162857  36.097  19.091   6.155
10502POPC   GL262858  36.239  19.047   6.155
10502POPC   C1A62859  36.092  19.087   6.455
10502POPC   D2A62860  36.109  19.077   6.755
10502POPC   C3A62861  36.168  19.026   7.055
10502POPC   C4A62862  36.127  19.015   7.355
10502POPC   C1B62863  36.385  18.917   6.455
10502POPC   C2B62864  36.376  18.969   6.755
10502POPC   C3B62865  36.370  18.920   7.055
10502POPC   C4B62866  36.314  18.979   7.355
10503POPC   NC362867  19.880  21.407   5.555
10503POPC   PO462868  19.842  21.436   5.855
10503POPC   GL162869  19.877  21.397   6.155
10503POPC   GL262870  19.922  21.385   6.155
10503POPC   C1A62871  19.856  21.374   6.455
10503POPC   D2A62872  19.846  21.358   6.755
10503POPC   C3A62873  19.859  21.436   7.055
10503POPC   C4A62874  19.842  21.425   7.355
10503POPC   C1B62875  20.100  21.309   6.455
10503POPC   C2B62876  20.093  21.388   6.755
10503POPC   C3B62877  20.095  21.325   7.055
10503POPC   C4B62878  20.115  21.337   7.355
10504POPC   NC362879  12.827  39.273   5.555
10504POPC   PO462880  12.870  39.195   5.855
10504POPC   GL162881  12.850  39.273   6.155
10504POPC   GL262882  13.014  39.154   6.155
10504POPC   C1A62883  12.819  39.214   6.455
10504POPC   D2A62884  12.882  39.280   6.755
10504POPC   C3A62885  12.838  39.209   7.055
10504POPC   C4A62886  12.872  39.206   7.355
10504POPC   C1B62887  13.079  39.180   6.455
10504POPC   C2B62888  13.056  39.190   6.755
10504POPC   C3B62889  13.066  39.170   7.055
10504POPC   C4B62890  13.084  39.192   7.355
10505POPC   NC362891  28.403  19.834   5.555
10505POPC   PO462892  28.343  19.797   5.855
10505POPC   GL162893  28.357  19.879   6.155
10505POPC   GL262894  28.267  19.821   6.155
10505POPC   C1A62895  28.346  19.879   6.455
10505POPC   D2A62896  28.416  19.824   6.755
10505POPC   C3A62897  28.390  19.831   7.055
10505POPC   C4A62898  28.367  19.847   7.355
10505POPC   C1B62899  28.134  19.730   6.455
10505POPC   C2B62900  28.108  19.714   6.755
10505POPC   C3B62901  28.101  19.749   7.055
10505POPC   C4B62902  28.100  19.758   7.355
10506POPC   NC362903  24.511  22.186   5.555
10506POPC   PO462904  24.520  22.161   5.855
10506POPC   GL162905  24.469  22.196   6.155
10506POPC   GL262906  24.405  22.062   6.155
10506POPC   C1A62907  24.464  22.127   6.455
10506POPC   D2A62908  24.537  22.120   6.755
10506POPC   C3A62909  24.489  22.144   7.055
10506POPC   C4A62910  24.496  22.137   7.355
10506POPC   C1B62911  24.287  21.991   6.455
10506POPC   C2B62912  24.240  22.043   6.755
10506POPC   C3B62913  24.232  21.997   7.055
10506POPC   C4B62914  24.261  21.996   7.355
10507POPC   NC362915   4.286  23.732   5.555
10507POPC   PO462916   4.283  23.672   5.855
10507POPC   GL162917   4.359  23.743   6.155
10507POPC   GL262918   4.330  23.577   6.155
10507POPC   C1A62919   4.357  23.758   6.455
10507POPC   D2A62920   4.337  23.736   6.755
10507POPC   C3A62921   4.343  23.674   7.055
10507POPC   C4A62922   4.325  23.730   7.355
10507POPC   C1B62923   4.351  23.454   6.455
10507POPC   C2B62924   4.305  23.417   6.755
10507POPC   C3B62925   4.303  23.435   7.055
10507POPC   C4B62926   4.266  23.431   7.355
10508POPC   NC362927  13.661  40.833   5.555
10508POPC   PO462928  13.633  40.816   5.855
10508POPC   GL162929  13.646  40.776   6.155
10508POPC   GL262930  13.713  40.776   6.155
10508POPC   C1A62931  13.596  40.772   6.455
10508POPC   D2A62932  13.642  40.805   6.755
10508POPC   C3A62933  13.661  40.774   7.055
10508POPC   C4A62934  13.588  40.767   7.355
10508POPC   C1B62935  13.869  40.812   6.455
10508POPC   C2B62936  13.842  40.856   6.755
10508POPC   C3B62937  13.907  40.847   7.055
10508POPC   C4B62938  13.825  40.869   7.355
10509POPC   NC362939  12.116  19.871   5.555
10509POPC   PO462940  12.100  19.844   5.855
10509POPC   GL162941  12.074  19.858   6.155
10509POPC   GL262942  11.999  19.748   6.155
10509POPC   C1A62943  12.058  19.834   6.455
10509POPC   D2A62944  12.086  19.789   6.755
10509POPC   C3A62945  12.114  19.793   7.055
10509POPC   C4A62946  12.113  19.855   7.355
10509POPC   C1B62947  11.918  19.621   6.455
10509POPC   C2B62948  11.920  19.588   6.755
10509POPC   C3B62949  11.921  19.631   7.055
10509POPC   C4B62950  11.909  19.632   7.355
10510POPC   NC362951  43.862  36.136   5.555
10510POPC   PO462952  43.934  36.103   5.855
10510POPC   GL162953  43.880  36.148   6.155
10510POPC   GL262954  43.754  36.163   6.155
10510POPC   C1A62955  43.840  36.151   6.455
10510POPC   D2A62956  43.852  36.167   6.755
10510POPC   C3A62957  43.887  36.151   7.055
10510POPC   C4A62958  43.856  36.162   7.355
10510POPC   C1B62959  43.632  36.292   6.455
10510POPC   C2B62960  43.645  36.280   6.755
10510POPC   C3B62961  43.656  36.232   7.055
10510POPC   C4B62962  43.655  36.273   7.355
10511POPC   NC362963  36.086  30.698   5.555
10511POPC   PO462964  36.167  30.678   5.855
10511POPC   GL162965  36.132  30.649   6.155
10511POPC   GL262966  35.982  30.694   6.155
10511POPC   C1A62967  36.142  30.713   6.455
10511POPC   D2A62968  36.106  30.652   6.755
10511POPC   C3A62969  36.157  30.711   7.055
10511POPC   C4A62970  36.168  30.674   7.355
10511POPC   C1B62971  35.892  30.722   6.455
10511POPC   C2B62972  35.900  30.641   6.755
10511POPC   C3B62973  35.912  30.671   7.055
10511POPC   C4B62974  35.834  30.682   7.355
10512POPC   NC362975   0.475   6.622   5.555
10512POPC   PO462976   0.397   6.678   5.855
10512POPC   GL162977   0.412   6.679   6.155
10512POPC   GL262978   0.317   6.576   6.155
10512POPC   C1A62979   0.465   6.599   6.455
10512POPC   D2A62980   0.411   6.635   6.755
10512POPC   C3A62981   0.452   6.629   7.055
10512POPC   C4A62982   0.434   6.617   7.355
10512POPC   C1B62983   0.160   6.590   6.455
10512POPC   C2B62984   0.232   6.535   6.755
10512POPC   C3B62985   0.157   6.562   7.055
10512POPC   C4B62986   0.250   6.571   7.355
10513POPC   NC362987  20.621   4.310   5.555
10513POPC   PO462988  20.584   4.306   5.855
10513POPC   GL162989  20.600   4.345   6.155
10513POPC   GL262990  20.460   4.410   6.155
10513POPC   C1A62991  20.630   4.306   6.455
10513POPC   D2A62992  20.634   4.294   6.755
10513POPC   C3A62993  20.635   4.339   7.055
10513POPC   C4A62994  20.620   4.300   7.355
10513POPC   C1B62995  20.392   4.450   6.455
10513POPC   C2B62996  20.399   4.446   6.755
10513POPC   C3B62997  20.334   4.434   7.055
10513POPC   C4B62998  20.413   4.435   7.355
10514POPC   NC362999   2.794  36.116   5.555
10514POPC   PO463000   2.756  36.096   5.855
10514POPC   GL163001   2.757  36.098   6.155
10514POPC   GL263002   2.848  36.272   6.155
10514POPC   C1A63003   2.717  36.086   6.455
10514POPC   D2A63004   2.757  36.138   6.755
10514POPC   C3A63005   2.801  36.159   7.055
10514POPC   C4A63006   2.736  36.168   7.355
10514POPC   C1B63007   2.921  36.298   6.455
10514POPC   C2B63008   2.934  36.384   6.755
10514POPC   C3B63009   2.911  36.368   7.055
10514POPC   C4B63010   2.884  36.302   7.355
10515POPC   NC363011  34.542   5.054   5.555
10515POPC   PO463012  34.598   5.065   5.855
10515POPC   GL163013  34.541   5.066   6.155
10515POPC   GL263014  34.619   5.176   6.155
10515POPC   C1A63015  34.613   5.048   6.455
10515POPC   D2A63016  34.549   5.126   6.755
10515POPC   C3A63017  34.556   5.050   7.055
10515POPC   C4A63018  34.613   5.053   7.355
10515POPC   C1B63019  34.721   5.346   6.455
10515POPC   C2B63020  34.693   5.353   6.755
10515POPC   C3B63021  34.676   5.319   7.055
10515POPC   C4B63022  34.714   5.271   7.355
10516POPC   NC363023  15.218  10.481   5.555
10516POPC   PO463024  15.184  10.538   5.855
10516POPC   GL163025  15.183  10.489   6.155
10516POPC   GL263026  15.225  10.641   6.155
10516POPC   C1A63027  15.219  10.492   6.455
10516POPC   D2A63028  15.183  10.485   6.755
10516POPC   C3A63029  15.162  10.545   7.055
10516POPC   C4A63030  15.215  10.534   7.355
10516POPC   C1B63031  15.241  10.797   6.455
10516POPC   C2B63032  15.209  10.724   6.755
10516POPC   C3B63033  15.201  10.752   7.055
10516POPC   C4B63034  15.283  10.719   7.355
10517POPC   NC363035  14.375  22.956   5.555
10517POPC   PO463036  14.399  22.973   5.855
10517POPC   GL163037  14.430  22.890   6.155
10517POPC   GL263038  14.494  22.908   6.155
10517POPC   C1A63039  14.409  22.898   6.455
10517POPC   D2A63040  14.385  22.954   6.755
10517POPC   C3A63041  14.375  22.895   7.055
10517POPC   C4A63042  14.368  22.943   7.355
10517POPC   C1B63043  14.610  22.788   6.455
10517POPC   C2B63044  14.613  22.802   6.755
10517POPC   C3B63045  14.626  22.802   7.055
10517POPC   C4B63046  14.614  22.794   7.355
10518POPC   NC363047  38.503  26.025   5.555
10518POPC   PO463048  38.505  26.001   5.855
10518POPC   GL163049  38.423  26.011   6.155
10518POPC   GL263050  38.341  26.156   6.155
10518POPC   C1A63051  38.489  26.065   6.455
10518POPC   D2A63052  38.474  26.035   6.755
10518POPC   C3A63053  38.482  26.058   7.055
10518POPC   C4A63054  38.427  26.005   7.355
10518POPC   C1B63055  38.243  26.225   6.455
10518POPC   C2B63056  38.248  26.155   6.755
10518POPC   C3B63057  38.220  26.241   7.055
10518POPC   C4B63058  38.239  26.172   7.355
10519POPC   NC363059  26.046  25.283   5.555
10519POPC   PO463060  26.060  25.269   5.855
10519POPC   GL163061  26.028  25.273   6.155
10519POPC   GL263062  26.168  25.332   6.155
10519POPC   C1A63063  25.992  25.259   6.455
10519POPC   D2A63064  26.051  25.249   6.755
10519POPC   C3A63065  26.032  25.299   7.055
10519POPC   C4A63066  26.076  25.266   7.355
10519POPC   C1B63067  26.233  25.387   6.455
10519POPC   C2B63068  26.185  25.395   6.755
10519POPC   C3B63069  26.207  25.419   7.055
10519POPC   C4B63070  26.232  25.443   7.355
10520POPC   NC363071  44.639  12.057   5.555
10520POPC   PO463072  44.632  12.118   5.855
10520POPC   GL163073  44.633  12.047   6.155
10520POPC   GL263074  44.667  11.971   6.155
10520POPC   C1A63075  44.709  12.115   6.455
10520POPC   D2A63076  44.646  12.117   6.755
10520POPC   C3A63077  44.689  12.122   7.055
10520POPC   C4A63078  44.669  12.063   7.355
10520POPC   C1B63079  44.603  11.839   6.455
10520POPC   C2B63080  44.658  11.818   6.755
10520POPC   C3B63081  44.650  11.820   7.055
10520POPC   C4B63082  44.604  11.857   7.355
10521POPC   NC363083  25.262  26.049   5.555
10521POPC   PO463084  25.255  26.066   5.855
10521POPC   GL163085  25.284  25.996   6.155
10521POPC   GL263086  25.181  26.087   6.155
10521POPC   C1A63087  25.245  26.006   6.455
10521POPC   D2A63088  25.274  25.995   6.755
10521POPC   C3A63089  25.291  26.080   7.055
10521POPC   C4A63090  25.241  26.087   7.355
10521POPC   C1B63091  25.046  26.186   6.455
10521POPC   C2B63092  25.052  26.189   6.755
10521POPC   C3B63093  25.067  26.114   7.055
10521POPC   C4B63094  25.045  26.152   7.355
10522POPC   NC363095  15.907  29.143   5.555
10522POPC   PO463096  15.977  29.174   5.855
10522POPC   GL163097  15.957  29.167   6.155
10522POPC   GL263098  15.826  29.070   6.155
10522POPC   C1A63099  15.944  29.124   6.455
10522POPC   D2A63100  15.977  29.147   6.755
10522POPC   C3A63101  15.980  29.111   7.055
10522POPC   C4A63102  15.945  29.117   7.355
10522POPC   C1B63103  15.765  29.024   6.455
10522POPC   C2B63104  15.759  29.036   6.755
10522POPC   C3B63105  15.684  29.091   7.055
10522POPC   C4B63106  15.733  29.027   7.355
10523POPC   NC363107   1.973  19.819   5.555
10523POPC   PO463108   1.998  19.807   5.855
10523POPC   GL163109   1.992  19.880   6.155
10523POPC   GL263110   2.056  19.932   6.155
10523POPC   C1A63111   1.999  19.877   6.455
10523POPC   D2A63112   1.987  19.832   6.755
10523POPC   C3A63113   2.020  19.814   7.055
10523POPC   C4A63114   1.945  19.880   7.355
10523POPC   C1B63115   2.023  20.066   6.455
10523POPC   C2B63116   2.082  20.093   6.755
10523POPC   C3B63117   2.056  20.060   7.055
10523POPC   C4B63118   2.087  20.051   7.355
10524POPC   NC363119  38.504  20.567   5.555
10524POPC   PO463120  38.437  20.618   5.855
10524POPC   GL163121  38.497  20.639   6.155
10524POPC   GL263122  38.313  20.599   6.155
10524POPC   C1A63123  38.444  20.637   6.455
10524POPC   D2A63124  38.482  20.615   6.755
10524POPC   C3A63125  38.497  20.592   7.055
10524POPC   C4A63126  38.467  20.632   7.355
10524POPC   C1B63127  38.168  20.525   6.455
10524POPC   C2B63128  38.255  20.502   6.755
10524POPC   C3B63129  38.200  20.559   7.055
10524POPC   C4B63130  38.264  20.498   7.355
10525POPC   NC363131   4.273  24.468   5.555
10525POPC   PO463132   4.364  24.476   5.855
10525POPC   GL163133   4.306  24.516   6.155
10525POPC   GL263134   4.355  24.628   6.155
10525POPC   C1A63135   4.303  24.495   6.455
10525POPC   D2A63136   4.299  24.471   6.755
10525POPC   C3A63137   4.302  24.491   7.055
10525POPC   C4A63138   4.297  24.535   7.355
10525POPC   C1B63139   4.279  24.707   6.455
10525POPC   C2B63140   4.320  24.788   6.755
10525POPC   C3B63141   4.267  24.708   7.055
10525POPC   C4B63142   4.322  24.776   7.355
10526POPC   NC363143  20.637  25.224   5.555
10526POPC   PO463144  20.613  25.294   5.855
10526POPC   GL163145  20.580  25.263   6.155
10526POPC   GL263146  20.515  25.206   6.155
10526POPC   C1A63147  20.573  25.302   6.455
10526POPC   D2A63148  20.605  25.311   6.755
10526POPC   C3A63149  20.569  25.274   7.055
10526POPC   C4A63150  20.598  25.307   7.355
10526POPC   C1B63151  20.369  25.067   6.455
10526POPC   C2B63152  20.448  25.112   6.755
10526POPC   C3B63153  20.408  25.095   7.055
10526POPC   C4B63154  20.377  25.149   7.355
10527POPC   NC363155   8.231  42.295   5.555
10527POPC   PO463156   8.168  42.291   5.855
10527POPC   GL163157   8.173  42.348   6.155
10527POPC   GL263158   8.260  42.227   6.155
10527POPC   C1A63159   8.214  42.359   6.455
10527POPC   D2A63160   8.244  42.321   6.755
10527POPC   C3A63161   8.196  42.378   7.055
10527POPC   C4A63162   8.203  42.351   7.355
10527POPC   C1B63163   8.445  42.180   6.455
10527POPC   C2B63164   8.461  42.198   6.755
10527POPC   C3B63165   8.383  42.234   7.055
10527POPC   C4B63166   8.408  42.185   7.355
10528POPC   NC363167  38.497  36.887   5.555
10528POPC   PO463168  38.472  36.896   5.855
10528POPC   GL163169  38.465  36.904   6.155
10528POPC   GL263170  38.489  36.744   6.155
10528POPC   C1A63171  38.460  36.906   6.455
10528POPC   D2A63172  38.458  36.930   6.755
10528POPC   C3A63173  38.481  36.911   7.055
10528POPC   C4A63174  38.493  36.909   7.355
10528POPC   C1B63175  38.413  36.675   6.455
10528POPC   C2B63176  38.381  36.691   6.755
10528POPC   C3B63177  38.454  36.641   7.055
10528POPC   C4B63178  38.468  36.645   7.355
10529POPC   NC363179  19.090  12.806   5.555
10529POPC   PO463180  19.049  12.869   5.855
10529POPC   GL163181  19.009  12.828   6.155
10529POPC   GL263182  18.978  12.851   6.155
10529POPC   C1A63183  19.093  12.858   6.455
10529POPC   D2A63184  19.025  12.805   6.755
10529POPC   C3A63185  19.012  12.893   7.055
10529POPC   C4A63186  19.053  12.824   7.355
10529POPC   C1B63187  18.773  12.856   6.455
10529POPC   C2B63188  18.796  12.908   6.755
10529POPC   C3B63189  18.770  12.921   7.055
10529POPC   C4B63190  18.834  12.830   7.355
10530POPC   NC363191   6.688  33.058   5.555
10530POPC   PO463192   6.637  33.002   5.855
10530POPC   GL163193   6.599  32.982   6.155
10530POPC   GL263194   6.580  32.902   6.155
10530POPC   C1A63195   6.669  33.001   6.455
10530POPC   D2A63196   6.683  33.011   6.755
10530POPC   C3A63197   6.667  33.051   7.055
10530POPC   C4A63198   6.613  32.979   7.355
10530POPC   C1B63199   6.454  32.850   6.455
10530POPC   C2B63200   6.495  32.780   6.755
10530POPC   C3B63201   6.517  32.840   7.055
10530POPC   C4B63202   6.540  32.794   7.355
10531POPC   NC363203  28.334   5.062   5.555
10531POPC   PO463204  28.342   5.106   5.855
10531POPC   GL163205  28.381   5.071   6.155
10531POPC   GL263206  28.256   4.996   6.155
10531POPC   C1A63207  28.411   5.058   6.455
10531POPC   D2A63208  28.388   5.136   6.755
10531POPC   C3A63209  28.415   5.129   7.055
10531POPC   C4A63210  28.360   5.071   7.355
10531POPC   C1B63211  28.180   4.900   6.455
10531POPC   C2B63212  28.126   4.910   6.755
10531POPC   C3B63213  28.209   4.912   7.055
10531POPC   C4B63214  28.167   4.942   7.355
10532POPC   NC363215  15.928  36.081   5.555
10532POPC   PO463216  15.988  36.130   5.855
10532POPC   GL163217  15.924  36.148   6.155
10532POPC   GL263218  15.881  36.080   6.155
10532POPC   C1A63219  15.909  36.082   6.455
10532POPC   D2A63220  15.929  36.117   6.755
10532POPC   C3A63221  15.927  36.133   7.055
10532POPC   C4A63222  16.000  36.147   7.355
10532POPC   C1B63223  15.754  36.090   6.455
10532POPC   C2B63224  15.730  36.016   6.755
10532POPC   C3B63225  15.688  36.051   7.055
10532POPC   C4B63226  15.685  36.082   7.355
10533POPC   NC363227  35.372   6.693   5.555
10533POPC   PO463228  35.354   6.623   5.855
10533POPC   GL163229  35.388   6.679   6.155
10533POPC   GL263230  35.325   6.518   6.155
10533POPC   C1A63231  35.350   6.665   6.455
10533POPC   D2A63232  35.344   6.665   6.755
10533POPC   C3A63233  35.394   6.647   7.055
10533POPC   C4A63234  35.351   6.662   7.355
10533POPC   C1B63235  35.257   6.354   6.455
10533POPC   C2B63236  35.330   6.437   6.755
10533POPC   C3B63237  35.268   6.441   7.055
10533POPC   C4B63238  35.279   6.365   7.355
10534POPC   NC363239  44.661  39.970   5.555
10534POPC   PO463240  44.710  39.973   5.855
10534POPC   GL163241  44.670  40.052   6.155
10534POPC   GL263242  44.762  39.914   6.155
10534POPC   C1A63243  44.656  40.014   6.455
10534POPC   D2A63244  44.681  40.021   6.755
10534POPC   C3A63245  44.674  39.978   7.055
10534POPC   C4A63246  44.676  40.012   7.355
10534POPC   C1B63247  44.802  39.802   6.455
10534POPC   C2B63248  44.799  39.883   6.755
10534POPC   C3B63249  44.898  39.840   7.055
10534POPC   C4B63250  44.884  39.834   7.355
10535POPC   NC363251  42.355  16.750   5.555
10535POPC   PO463252  42.311  16.712   5.855
10535POPC   GL163253  42.293  16.696   6.155
10535POPC   GL263254  42.363  16.844   6.155
10535POPC   C1A63255  42.351  16.734   6.455
10535POPC   D2A63256  42.301  16.733   6.755
10535POPC   C3A63257  42.297  16.692   7.055
10535POPC   C4A63258  42.325  16.689   7.355
10535POPC   C1B63259  42.423  16.984   6.455
10535POPC   C2B63260  42.443  17.002   6.755
10535POPC   C3B63261  42.416  16.936   7.055
10535POPC   C4B63262  42.412  16.955   7.355
10536POPC   NC363263  26.088  34.530   5.555
10536POPC   PO463264  25.992  34.567   5.855
10536POPC   GL163265  26.025  34.579   6.155
10536POPC   GL263266  26.110  34.601   6.155
10536POPC   C1A63267  26.025  34.619   6.455
10536POPC   D2A63268  26.081  34.547   6.755
10536POPC   C3A63269  26.052  34.565   7.055
10536POPC   C4A63270  26.072  34.561   7.355
10536POPC   C1B63271  26.237  34.749   6.455
10536POPC   C2B63272  26.210  34.745   6.755
10536POPC   C3B63273  26.245  34.750   7.055
10536POPC   C4B63274  26.223  34.682   7.355
10537POPC   NC363275  38.476  41.578   5.555
10537POPC   PO463276  38.465  41.521   5.855
10537POPC   GL163277  38.447  41.601   6.155
10537POPC   GL263278  38.365  41.549   6.155
10537POPC   C1A63279  38.407  41.602   6.455
10537POPC   D2A63280  38.481  41.543   6.755
10537POPC   C3A63281  38.487  41.562   7.055
10537POPC   C4A63282  38.455  41.578   7.355
10537POPC   C1B63283  38.186  41.582   6.455
10537POPC   C2B63284  38.252  41.634   6.755
10537POPC   C3B63285  38.249  41.647   7.055
10537POPC   C4B63286  38.258  41.586   7.355
10538POPC   NC363287  39.266  35.401   5.555
10538POPC   PO463288  39.272  35.381   5.855
10538POPC   GL163289  39.259  35.338   6.155
10538POPC   GL263290  39.296  35.198   6.155
10538POPC   C1A63291  39.247  35.341   6.455
10538POPC   D2A63292  39.247  35.369   6.755
10538POPC   C3A63293  39.223  35.337   7.055
10538POPC   C4A63294  39.234  35.328   7.355
10538POPC   C1B63295  39.410  35.173   6.455
10538POPC   C2B63296  39.363  35.118   6.755
10538POPC   C3B63297  39.367  35.173   7.055
10538POPC   C4B63298  39.393  35.095   7.355
10539POPC   NC363299  20.597  11.326   5.555
10539POPC   PO463300  20.602  11.321   5.855
10539POPC   GL163301  20.577  11.298   6.155
10539POPC   GL263302  20.733  11.200   6.155
10539POPC   C1A63303  20.626  11.301   6.455
10539POPC   D2A63304  20.562  11.265   6.755
10539POPC   C3A63305  20.634  11.316   7.055
10539POPC   C4A63306  20.607  11.346   7.355
10539POPC   C1B63307  20.778  11.164   6.455
10539POPC   C2B63308  20.829  11.116   6.755
10539POPC   C3B63309  20.811  11.081   7.055
10539POPC   C4B63310  20.780  11.100   7.355
10540POPC   NC363311   9.745  32.260   5.555
10540POPC   PO463312   9.792  32.221   5.855
10540POPC   GL163313   9.776  32.282   6.155
10540POPC   GL263314   9.888  32.285   6.155
10540POPC   C1A63315   9.790  32.293   6.455
10540POPC   D2A63316   9.753  32.258   6.755
10540POPC   C3A63317   9.748  32.251   7.055
10540POPC   C4A63318   9.768  32.242   7.355
10540POPC   C1B63319   9.962  32.256   6.455
10540POPC   C2B63320  10.019  32.249   6.755
10540POPC   C3B63321   9.967  32.288   7.055
10540POPC   C4B63322  10.015  32.308   7.355
10541POPC   NC363323   3.496  13.593   5.555
10541POPC   PO463324   3.556  13.642   5.855
10541POPC   GL163325   3.547  13.662   6.155
10541POPC   GL263326   3.409  13.641   6.155
10541POPC   C1A63327   3.539  13.602   6.455
10541POPC   D2A63328   3.582  13.663   6.755
10541POPC   C3A63329   3.583  13.586   7.055
10541POPC   C4A63330   3.518  13.620   7.355
10541POPC   C1B63331   3.276  13.553   6.455
10541POPC   C2B63332   3.270  13.582   6.755
10541POPC   C3B63333   3.281  13.534   7.055
10541POPC   C4B63334   3.320  13.518   7.355
10542POPC   NC363335  30.707   5.045   5.555
10542POPC   PO463336  30.654   5.094   5.855
10542POPC   GL163337  30.744   5.070   6.155
10542POPC   GL263338  30.848   5.116   6.155
10542POPC   C1A63339  30.714   5.068   6.455
10542POPC   D2A63340  30.743   5.138   6.755
10542POPC   C3A63341  30.671   5.087   7.055
10542POPC   C4A63342  30.698   5.088   7.355
10542POPC   C1B63343  30.926   5.187   6.455
10542POPC   C2B63344  30.958   5.163   6.755
10542POPC   C3B63345  30.928   5.209   7.055
10542POPC   C4B63346  30.919   5.182   7.355
10543POPC   NC363347  14.452   3.548   5.555
10543POPC   PO463348  14.429   3.562   5.855
10543POPC   GL163349  14.434   3.542   6.155
10543POPC   GL263350  14.308   3.524   6.155
10543POPC   C1A63351  14.431   3.506   6.455
10543POPC   D2A63352  14.368   3.578   6.755
10543POPC   C3A63353  14.385   3.579   7.055
10543POPC   C4A63354  14.396   3.511   7.355
10543POPC   C1B63355  14.137   3.459   6.455
10543POPC   C2B63356  14.195   3.496   6.755
10543POPC   C3B63357  14.186   3.538   7.055
10543POPC   C4B63358  14.180   3.515   7.355
10544POPC   NC363359  34.544  10.555   5.555
10544POPC   PO463360  34.592  10.491   5.855
10544POPC   GL163361  34.530  10.475   6.155
10544POPC   GL263362  34.599  10.441   6.155
10544POPC   C1A63363  34.577  10.566   6.455
10544POPC   D2A63364  34.598  10.548   6.755
10544POPC   C3A63365  34.537  10.530   7.055
10544POPC   C4A63366  34.566  10.546   7.355
10544POPC   C1B63367  34.706  10.309   6.455
10544POPC   C2B63368  34.655  10.318   6.755
10544POPC   C3B63369  34.728  10.276   7.055
10544POPC   C4B63370  34.678  10.253   7.355
10545POPC   NC363371   5.096  42.312   5.555
10545POPC   PO463372   5.122  42.298   5.855
10545POPC   GL163373   5.095  42.342   6.155
10545POPC   GL263374   5.125  42.211   6.155
10545POPC   C1A63375   5.066  42.300   6.455
10545POPC   D2A63376   5.089  42.347   6.755
10545POPC   C3A63377   5.136  42.368   7.055
10545POPC   C4A63378   5.116  42.330   7.355
10545POPC   C1B63379   5.270  42.179   6.455
10545POPC   C2B63380   5.280  42.135   6.755
10545POPC   C3B63381   5.204  42.155   7.055
10545POPC   C4B63382   5.243  42.107   7.355
10546POPC   NC363383  35.357  40.826   5.555
10546POPC   PO463384  35.336  40.749   5.855
10546POPC   GL163385  35.342  40.799   6.155
10546POPC   GL263386  35.360  40.890   6.155
10546POPC   C1A63387  35.315  40.770   6.455
10546POPC   D2A63388  35.318  40.823   6.755
10546POPC   C3A63389  35.302  40.810   7.055
10546POPC   C4A63390  35.322  40.796   7.355
10546POPC   C1B63391  35.419  41.051   6.455
10546POPC   C2B63392  35.430  41.063   6.755
10546POPC   C3B63393  35.434  41.047   7.055
10546POPC   C4B63394  35.373  40.994   7.355
10547POPC   NC363395  19.080   1.952   5.555
10547POPC   PO463396  19.016   1.996   5.855
10547POPC   GL163397  19.045   2.015   6.155
10547POPC   GL263398  19.125   2.132   6.155
10547POPC   C1A63399  19.099   2.034   6.455
10547POPC   D2A63400  19.055   1.952   6.755
10547POPC   C3A63401  19.091   1.944   7.055
10547POPC   C4A63402  19.011   1.994   7.355
10547POPC   C1B63403  19.140   2.223   6.455
10547POPC   C2B63404  19.104   2.279   6.755
10547POPC   C3B63405  19.071   2.243   7.055
10547POPC   C4B63406  19.095   2.268   7.355
10548POPC   NC363407  33.794  33.758   5.555
10548POPC   PO463408  33.771  33.833   5.855
10548POPC   GL163409  33.801  33.773   6.155
10548POPC   GL263410  33.686  33.736   6.155
10548POPC   C1A63411  33.799  33.837   6.455
10548POPC   D2A63412  33.833  33.825   6.755
10548POPC   C3A63413  33.841  33.839   7.055
10548POPC   C4A63414  33.764  33.776   7.355
10548POPC   C1B63415  33.568  33.705   6.455
10548POPC   C2B63416  33.576  33.729   6.755
10548POPC   C3B63417  33.531  33.701   7.055
10548POPC   C4B63418  33.600  33.738   7.355
10549POPC   NC363419  43.877  15.133   5.555
10549POPC   PO463420  43.927  15.207   5.855
10549POPC   GL163421  43.893  15.212   6.155
10549POPC   GL263422  43.973  15.213   6.155
10549POPC   C1A63423  43.890  15.190   6.455
10549POPC   D2A63424  43.926  15.225   6.755
10549POPC   C3A63425  43.860  15.199   7.055
10549POPC   C4A63426  43.846  15.188   7.355
10549POPC   C1B63427  44.126  15.167   6.455
10549POPC   C2B63428  44.085  15.123   6.755
10549POPC   C3B63429  44.131  15.200   7.055
10549POPC   C4B63430  44.114  15.122   7.355
10550POPC   NC363431  36.934  38.432   5.555
10550POPC   PO463432  36.940  38.487   5.855
10550POPC   GL163433  36.945  38.469   6.155
10550POPC   GL263434  36.798  38.442   6.155
10550POPC   C1A63435  36.939  38.419   6.455
10550POPC   D2A63436  36.924  38.504   6.755
10550POPC   C3A63437  36.897  38.441   7.055
10550POPC   C4A63438  36.933  38.481   7.355
10550POPC   C1B63439  36.670  38.446   6.455
10550POPC   C2B63440  36.627  38.379   6.755
10550POPC   C3B63441  36.627  38.395   7.055
10550POPC   C4B63442  36.626  38.392   7.355
10551POPC   NC363443   5.828  12.104   5.555
10551POPC   PO463444   5.826  12.106   5.855
10551POPC   GL163445   5.901  12.063   6.155
10551POPC   GL263446   5.964  11.948   6.155
10551POPC   C1A63447   5.860  12.073   6.455
10551POPC   D2A63448   5.854  12.094   6.755
10551POPC   C3A63449   5.826  12.050   7.055
10551POPC   C4A63450   5.850  12.074   7.355
10551POPC   C1B63451   6.082  11.899   6.455
10551POPC   C2B63452   6.096  11.901   6.755
10551POPC   C3B63453   6.052  11.949   7.055
10551POPC   C4B63454   6.095  11.928   7.355
10552POPC   NC363455  22.197  18.318   5.555
10552POPC   PO463456  22.136  18.292   5.855
10552POPC   GL163457  22.140  18.302   6.155
10552POPC   GL263458  22.254  18.161   6.155
10552POPC   C1A63459  22.122  18.258   6.455
10552POPC   D2A63460  22.169  18.300   6.755
10552POPC   C3A63461  22.173  18.319   7.055
10552POPC   C4A63462  22.159  18.297   7.355
10552POPC   C1B63463  22.332  18.060   6.455
10552POPC   C2B63464  22.334  18.097   6.755
10552POPC   C3B63465  22.312  18.092   7.055
10552POPC   C4B63466  22.281  18.117   7.355
10553POPC   NC363467  39.978  22.955   5.555
10553POPC   PO463468  40.045  22.914   5.855
10553POPC   GL163469  40.049  22.966   6.155
10553POPC   GL263470  40.111  22.978   6.155
10553POPC   C1A63471  39.997  22.921   6.455
10553POPC   D2A63472  39.972  22.931   6.755
10553POPC   C3A63473  40.004  22.892   7.055
10553POPC   C4A63474  40.045  22.920   7.355
10553POPC   C1B63475  40.202  23.119   6.455
10553POPC   C2B63476  40.199  23.123   6.755
10553POPC   C3B63477  40.213  23.140   7.055
10553POPC   C4B63478  40.213  23.162   7.355
10554POPC   NC363479   8.950  26.036   5.555
10554POPC   PO463480   8.975  26.061   5.855
10554POPC   GL163481   8.951  26.025   6.155
10554POPC   GL263482   8.833  26.151   6.155
10554POPC   C1A63483   8.977  26.023   6.455
10554POPC   D2A63484   8.970  26.003   6.755
10554POPC   C3A63485   8.924  26.008   7.055
10554POPC   C4A63486   8.931  26.052   7.355
10554POPC   C1B63487   8.764  26.190   6.455
10554POPC   C2B63488   8.783  26.240   6.755
10554POPC   C3B63489   8.754  26.199   7.055
10554POPC   C4B63490   8.773  26.252   7.355
10555POPC   NC363491  18.252  28.339   5.555
10555POPC   PO463492  18.280  28.381   5.855
10555POPC   GL163493  18.247  28.329   6.155
10555POPC   GL263494  18.409  28.393   6.155
10555POPC   C1A63495  18.321  28.367   6.455
10555POPC   D2A63496  18.268  28.355   6.755
10555POPC   C3A63497  18.289  28.369   7.055
10555POPC   C4A63498  18.270  28.376   7.355
10555POPC   C1B63499  18.559  28.373   6.455
10555POPC   C2B63500  18.521  28.432   6.755
10555POPC   C3B63501  18.519  28.402   7.055
10555POPC   C4B63502  18.570  28.367   7.355
10556POPC   NC363503  34.606  31.464   5.555
10556POPC   PO463504  34.622  31.506   5.855
10556POPC   GL163505  34.560  31.436   6.155
10556POPC   GL263506  34.608  31.551   6.155
10556POPC   C1A63507  34.532  31.464   6.455
10556POPC   D2A63508  34.526  31.455   6.755
10556POPC   C3A63509  34.575  31.457   7.055
10556POPC   C4A63510  34.535  31.451   7.355
10556POPC   C1B63511  34.687  31.697   6.455
10556POPC   C2B63512  34.674  31.659   6.755
10556POPC   C3B63513  34.653  31.724   7.055
10556POPC   C4B63514  34.640  31.702   7.355
10557POPC   NC363515   6.597   8.221   5.555
10557POPC   PO463516   6.671   8.239   5.855
10557POPC   GL163517   6.611   8.200   6.155
10557POPC   GL263518   6.768   8.164   6.155
10557POPC   C1A63519   6.621   8.235   6.455
10557POPC   D2A63520   6.605   8.216   6.755
10557POPC   C3A63521   6.692   8.212   7.055
10557POPC   C4A63522   6.625   8.208   7.355
10557POPC   C1B63523   6.829   8.059   6.455
10557POPC   C2B63524   6.871   8.057   6.755
10557POPC   C3B63525   6.827   8.083   7.055
10557POPC   C4B63526   6.852   8.100   7.355
10558POPC   NC363527  29.146  32.201   5.555
10558POPC   PO463528  29.180  32.281   5.855
10558POPC   GL163529  29.152  32.263   6.155
10558POPC   GL263530  28.988  32.172   6.155
10558POPC   C1A63531  29.146  32.231   6.455
10558POPC   D2A63532  29.184  32.234   6.755
10558POPC   C3A63533  29.151  32.270   7.055
10558POPC   C4A63534  29.118  32.256   7.355
10558POPC   C1B63535  28.879  32.232   6.455
10558POPC   C2B63536  28.872  32.142   6.755
10558POPC   C3B63537  28.896  32.231   7.055
10558POPC   C4B63538  28.897  32.191   7.355
10559POPC   NC363539  14.409  15.178   5.555
10559POPC   PO463540  14.430  15.217   5.855
10559POPC   GL163541  14.368  15.140   6.155
10559POPC   GL263542  14.244  15.208   6.155
10559POPC   C1A63543  14.403  15.177   6.455
10559POPC   D2A63544  14.448  15.191   6.755
10559POPC   C3A63545  14.425  15.209   7.055
10559POPC   C4A63546  14.377  15.227   7.355
10559POPC   C1B63547  14.180  15.160   6.455
10559POPC   C2B63548  14.131  15.239   6.755
10559POPC   C3B63549  14.121  15.216   7.055
10559POPC   C4B63550  14.170  15.185   7.355
10560POPC   NC363551  38.421  12.068   5.555
10560POPC   PO463552  38.490  12.077   5.855
10560POPC   GL163553  38.435  12.062   6.155
10560POPC   GL263554  38.467  12.184   6.155
10560POPC   C1A63555  38.488  12.052   6.455
10560POPC   D2A63556  38.461  12.109   6.755
10560POPC   C3A63557  38.432  12.100   7.055
10560POPC   C4A63558  38.458  12.077   7.355
10560POPC   C1B63559  38.462  12.283   6.455
10560POPC   C2B63560  38.539  12.304   6.755
10560POPC   C3B63561  38.537  12.345   7.055
10560POPC   C4B63562  38.526  12.280   7.355
10561POPC   NC363563  41.523  22.149   5.555
10561POPC   PO463564  41.567  22.149   5.855
10561POPC   GL163565  41.605  22.142   6.155
10561POPC   GL263566  41.495  22.064   6.155
10561POPC   C1A63567  41.608  22.132   6.455
10561POPC   D2A63568  41.521  22.113   6.755
10561POPC   C3A63569  41.513  22.185   7.055
10561POPC   C4A63570  41.538  22.194   7.355
10561POPC   C1B63571  41.457  21.973   6.455
10561POPC   C2B63572  41.451  21.899   6.755
10561POPC   C3B63573  41.506  21.901   7.055
10561POPC   C4B63574  41.512  21.897   7.355
10562POPC   NC363575  12.048   8.189   5.555
10562POPC   PO463576  12.090   8.191   5.855
10562POPC   GL163577  12.027   8.219   6.155
10562POPC   GL263578  11.953   8.247   6.155
10562POPC   C1A63579  12.077   8.226   6.455
10562POPC   D2A63580  12.112   8.198   6.755
10562POPC   C3A63581  12.052   8.193   7.055
10562POPC   C4A63582  12.089   8.161   7.355
10562POPC   C1B63583  11.810   8.241   6.455
10562POPC   C2B63584  11.844   8.297   6.755
10562POPC   C3B63585  11.839   8.325   7.055
10562POPC   C4B63586  11.837   8.310   7.355
10563POPC   NC363587  12.882  22.922   5.555
10563POPC   PO463588  12.836  22.906   5.855
10563POPC   GL163589  12.803  22.946   6.155
10563POPC   GL263590  12.767  23.006   6.155
10563POPC   C1A63591  12.868  22.890   6.455
10563POPC   D2A63592  12.833  22.893   6.755
10563POPC   C3A63593  12.848  22.982   7.055
10563POPC   C4A63594  12.825  22.923   7.355
10563POPC   C1B63595  12.634  23.090   6.455
10563POPC   C2B63596  12.687  23.065   6.755
10563POPC   C3B63597  12.676  23.114   7.055
10563POPC   C4B63598  12.590  23.091   7.355
10564POPC   NC363599   5.133  26.831   5.555
10564POPC   PO463600   5.049  26.785   5.855
10564POPC   GL163601   5.087  26.796   6.155
10564POPC   GL263602   5.088  26.945   6.155
10564POPC   C1A63603   5.131  26.836   6.455
10564POPC   D2A63604   5.107  26.837   6.755
10564POPC   C3A63605   5.132  26.781   7.055
10564POPC   C4A63606   5.132  26.796   7.355
10564POPC   C1B63607   5.198  27.040   6.455
10564POPC   C2B63608   5.180  27.032   6.755
10564POPC   C3B63609   5.194  27.050   7.055
10564POPC   C4B63610   5.172  27.104   7.355
10565POPC   NC363611  44.687  37.658   5.555
10565POPC   PO463612  44.668  37.698   5.855
10565POPC   GL163613  44.685  37.674   6.155
10565POPC   GL263614  44.602  37.542   6.155
10565POPC   C1A63615  44.653  37.665   6.455
10565POPC   D2A63616  44.627  37.717   6.755
10565POPC   C3A63617  44.667  37.713   7.055
10565POPC   C4A63618  44.671  37.631   7.355
10565POPC   C1B63619  44.491  37.485   6.455
10565POPC   C2B63620  44.505  37.501   6.755
10565POPC   C3B63621  44.535  37.452   7.055
10565POPC   C4B63622  44.470  37.455   7.355
10566POPC   NC363623  43.896  29.158   5.555
10566POPC   PO463624  43.848  29.188   5.855
10566POPC   GL163625  43.896  29.097   6.155
10566POPC   GL263626  43.976  29.025   6.155
10566POPC   C1A63627  43.932  29.153   6.455
10566POPC   D2A63628  43.901  29.187   6.755
10566POPC   C3A63629  43.929  29.170   7.055
10566POPC   C4A63630  43.933  29.125   7.355
10566POPC   C1B63631  44.124  28.983   6.455
10566POPC   C2B63632  44.063  28.982   6.755
10566POPC   C3B63633  44.049  29.011   7.055
10566POPC   C4B63634  44.083  29.006   7.355
10567POPC   NC363635  26.803  24.538   5.555
10567POPC   PO463636  26.859  24.466   5.855
10567POPC   GL163637  26.781  24.466   6.155
10567POPC   GL263638  26.965  24.549   6.155
10567POPC   C1A63639  26.774  24.449   6.455
10567POPC   D2A63640  26.797  24.519   6.755
10567POPC   C3A63641  26.808  24.450   7.055
10567POPC   C4A63642  26.794  24.514   7.355
10567POPC   C1B63643  27.007  24.610   6.455
10567POPC   C2B63644  27.019  24.562   6.755
10567POPC   C3B63645  27.080  24.548   7.055
10567POPC   C4B63646  27.065  24.583   7.355
10568POPC   NC363647  23.668  10.519   5.555
10568POPC   PO463648  23.680  10.522   5.855
10568POPC   GL163649  23.719  10.550   6.155
10568POPC   GL263650  23.727  10.414   6.155
10568POPC   C1A63651  23.763  10.532   6.455
10568POPC   D2A63652  23.685  10.511   6.755
10568POPC   C3A63653  23.758  10.528   7.055
10568POPC   C4A63654  23.693  10.501   7.355
10568POPC   C1B63655  23.711  10.268   6.455
10568POPC   C2B63656  23.712  10.301   6.755
10568POPC   C3B63657  23.770  10.287   7.055
10568POPC   C4B63658  23.760  10.317   7.355
10569POPC   NC363659   5.107   7.378   5.555
10569POPC   PO463660   5.053   7.384   5.855
10569POPC   GL163661   5.133   7.450   6.155
10569POPC   GL263662   5.029   7.366   6.155
10569POPC   C1A63663   5.056   7.410   6.455
10569POPC   D2A63664   5.099   7.399   6.755
10569POPC   C3A63665   5.070   7.424   7.055
10569POPC   C4A63666   5.140   7.388   7.355
10569POPC   C1B63667   4.916   7.288   6.455
10569POPC   C2B63668   4.897   7.229   6.755
10569POPC   C3B63669   4.916   7.219   7.055
10569POPC   C4B63670   4.869   7.222   7.355
10570POPC   NC363671  16.754  40.747   5.555
10570POPC   PO463672  16.742  40.780   5.855
10570POPC   GL163673  16.711  40.743   6.155
10570POPC   GL263674  16.761  40.917   6.155
10570POPC   C1A63675  16.710  40.772   6.455
10570POPC   D2A63676  16.686  40.761   6.755
10570POPC   C3A63677  16.719  40.780   7.055
10570POPC   C4A63678  16.768  40.826   7.355
10570POPC   C1B63679  16.745  41.056   6.455
10570POPC   C2B63680  16.686  41.055   6.755
10570POPC   C3B63681  16.729  41.078   7.055
10570POPC   C4B63682  16.725  41.033   7.355
10571POPC   NC363683  25.999  39.239   5.555
10571POPC   PO463684  26.090  39.195   5.855
10571POPC   GL163685  26.041  39.224   6.155
10571POPC   GL263686  26.162  39.330   6.155
10571POPC   C1A63687  26.075  39.247   6.455
10571POPC   D2A63688  26.056  39.205   6.755
10571POPC   C3A63689  26.053  39.269   7.055
10571POPC   C4A63690  26.072  39.276   7.355
10571POPC   C1B63691  26.248  39.309   6.455
10571POPC   C2B63692  26.269  39.299   6.755
10571POPC   C3B63693  26.259  39.374   7.055
10571POPC   C4B63694  26.313  39.339   7.355
10572POPC   NC363695  28.374  35.372   5.555
10572POPC   PO463696  28.386  35.335   5.855
10572POPC   GL163697  28.369  35.302   6.155
10572POPC   GL263698  28.246  35.327   6.155
10572POPC   C1A63699  28.369  35.309   6.455
10572POPC   D2A63700  28.383  35.398   6.755
10572POPC   C3A63701  28.418  35.385   7.055
10572POPC   C4A63702  28.359  35.366   7.355
10572POPC   C1B63703  28.156  35.221   6.455
10572POPC   C2B63704  28.173  35.272   6.755
10572POPC   C3B63705  28.176  35.240   7.055
10572POPC   C4B63706  28.186  35.262   7.355
10573POPC   NC363707   5.880   3.508   5.555
10573POPC   PO463708   5.865   3.525   5.855
10573POPC   GL163709   5.868   3.574   6.155
10573POPC   GL263710   5.894   3.411   6.155
10573POPC   C1A63711   5.820   3.546   6.455
10573POPC   D2A63712   5.901   3.577   6.755
10573POPC   C3A63713   5.839   3.588   7.055
10573POPC   C4A63714   5.901   3.532   7.355
10573POPC   C1B63715   5.877   3.331   6.455
10573POPC   C2B63716   5.906   3.314   6.755
10573POPC   C3B63717   5.913   3.296   7.055
10573POPC   C4B63718   5.917   3.319   7.355
10574POPC   NC363719  21.347  39.988   5.555
10574POPC   PO463720  21.354  40.042   5.855
10574POPC   GL163721  21.390  39.992   6.155
10574POPC   GL263722  21.421  39.892   6.155
10574POPC   C1A63723  21.367  39.964   6.455
10574POPC   D2A63724  21.347  40.001   6.755
10574POPC   C3A63725  21.388  40.057   7.055
10574POPC   C4A63726  21.392  40.022   7.355
10574POPC   C1B63727  21.420  39.781   6.455
10574POPC   C2B63728  21.396  39.742   6.755
10574POPC   C3B63729  21.405  39.793   7.055
10574POPC   C4B63730  21.475  39.770   7.355
10575POPC   NC363731  44.630  33.026   5.555
10575POPC   PO463732  44.625  33.007   5.855
10575POPC   GL163733  44.645  33.018   6.155
10575POPC   GL263734  44.550  32.871   6.155
10575POPC   C1A63735  44.686  33.010   6.455
10575POPC   D2A63736  44.620  33.003   6.755
10575POPC   C3A63737  44.623  33.034   7.055
10575POPC   C4A63738  44.637  32.993   7.355
10575POPC   C1B63739  44.573  32.819   6.455
10575POPC   C2B63740  44.506  32.794   6.755
10575POPC   C3B63741  44.488  32.835   7.055
10575POPC   C4B63742  44.574  32.839   7.355
10576POPC   NC363743  34.537  30.684   5.555
10576POPC   PO463744  34.531  30.673   5.855
10576POPC   GL163745  34.584  30.704   6.155
10576POPC   GL263746  34.458  30.647   6.155
10576POPC   C1A63747  34.612  30.669   6.455
10576POPC   D2A63748  34.605  30.744   6.755
10576POPC   C3A63749  34.604  30.730   7.055
10576POPC   C4A63750  34.583  30.745   7.355
10576POPC   C1B63751  34.392  30.618   6.455
10576POPC   C2B63752  34.396  30.594   6.755
10576POPC   C3B63753  34.379  30.551   7.055
10576POPC   C4B63754  34.385  30.570   7.355
10577POPC   NC363755  16.000  34.624   5.555
10577POPC   PO463756  15.995  34.605   5.855
10577POPC   GL163757  15.938  34.556   6.155
10577POPC   GL263758  15.989  34.666   6.155
10577POPC   C1A63759  15.981  34.544   6.455
10577POPC   D2A63760  15.986  34.596   6.755
10577POPC   C3A63761  15.938  34.527   7.055
10577POPC   C4A63762  15.948  34.601   7.355
10577POPC   C1B63763  16.073  34.764   6.455
10577POPC   C2B63764  16.065  34.786   6.755
10577POPC   C3B63765  16.049  34.824   7.055
10577POPC   C4B63766  16.038  34.831   7.355
10578POPC   NC363767  15.942  12.071   5.555
10578POPC   PO463768  15.917  12.074   5.855
10578POPC   GL163769  15.946  12.049   6.155
10578POPC   GL263770  16.074  12.065   6.155
10578POPC   C1A63771  15.913  12.039   6.455
10578POPC   D2A63772  15.934  12.045   6.755
10578POPC   C3A63773  15.976  12.117   7.055
10578POPC   C4A63774  15.970  12.086   7.355
10578POPC   C1B63775  16.205  12.057   6.455
10578POPC   C2B63776  16.179  12.091   6.755
10578POPC   C3B63777  16.191  12.123   7.055
10578POPC   C4B63778  16.225  12.071   7.355
10579POPC   NC363779   3.563  33.040   5.555
10579POPC   PO463780   3.527  33.017   5.855
10579POPC   GL163781   3.559  33.063   6.155
10579POPC   GL263782   3.396  32.954   6.155
10579POPC   C1A63783   3.516  33.052   6.455
10579POPC   D2A63784   3.507  33.007   6.755
10579POPC   C3A63785   3.526  33.032   7.055
10579POPC   C4A63786   3.549  33.015   7.355
10579POPC   C1B63787   3.294  32.958   6.455
10579POPC   C2B63788   3.258  32.965   6.755
10579POPC   C3B63789   3.344  32.941   7.055
10579POPC   C4B63790   3.263  32.903   7.355
10580POPC   NC363791  15.197  27.616   5.555
10580POPC   PO463792  15.171  27.545   5.855
10580POPC   GL163793  15.172  27.570   6.155
10580POPC   GL263794  15.280  27.604   6.155
10580POPC   C1A63795  15.217  27.606   6.455
10580POPC   D2A63796  15.211  27.640   6.755
10580POPC   C3A63797  15.216  27.617   7.055
10580POPC   C4A63798  15.212  27.598   7.355
10580POPC   C1B63799  15.459  27.673   6.455
10580POPC   C2B63800  15.461  27.703   6.755
10580POPC   C3B63801  15.414  27.658   7.055
10580POPC   C4B63802  15.439  27.661   7.355
10581POPC   NC363803  19.068  18.279   5.555
10581POPC   PO463804  19.015  18.286   5.855
10581POPC   GL163805  19.049  18.289   6.155
10581POPC   GL263806  19.029  18.112   6.155
10581POPC   C1A63807  19.025  18.266   6.455
10581POPC   D2A63808  19.081  18.285   6.755
10581POPC   C3A63809  19.054  18.241   7.055
10581POPC   C4A63810  19.067  18.306   7.355
10581POPC   C1B63811  19.011  18.004   6.455
10581POPC   C2B63812  19.102  18.070   6.755
10581POPC   C3B63813  19.016  18.044   7.055
10581POPC   C4B63814  19.075  18.069   7.355
10582POPC   NC363815   9.015  12.857   5.555
10582POPC   PO463816   9.000  12.840   5.855
10582POPC   GL163817   8.931  12.869   6.155
10582POPC   GL263818   8.875  12.976   6.155
10582POPC   C1A63819   8.996  12.803   6.455
10582POPC   D2A63820   8.944  12.882   6.755
10582POPC   C3A63821   8.993  12.807   7.055
10582POPC   C4A63822   8.927  12.823   7.355
10582POPC   C1B63823   8.833  13.068   6.455
10582POPC   C2B63824   8.859  13.109   6.755
10582POPC   C3B63825   8.887  13.059   7.055
10582POPC   C4B63826   8.811  13.030   7.355
10583POPC   NC363827   2.033  16.728   5.555
10583POPC   PO463828   1.983  16.710   5.855
10583POPC   GL163829   1.942  16.778   6.155
10583POPC   GL263830   2.033  16.631   6.155
10583POPC   C1A63831   1.960  16.688   6.455
10583POPC   D2A63832   1.967  16.764   6.755
10583POPC   C3A63833   1.964  16.773   7.055
10583POPC   C4A63834   2.027  16.757   7.355
10583POPC   C1B63835   1.987  16.464   6.455
10583POPC   C2B63836   2.006  16.498   6.755
10583POPC   C3B63837   1.982  16.480   7.055
10583POPC   C4B63838   2.022  16.472   7.355
10584POPC   NC363839  23.739  26.016   5.555
10584POPC   PO463840  23.671  26.055   5.855
10584POPC   GL163841  23.715  26.015   6.155
10584POPC   GL263842  23.815  26.126   6.155
10584POPC   C1A63843  23.744  26.030   6.455
10584POPC   D2A63844  23.741  26.090   6.755
10584POPC   C3A63845  23.675  25.992   7.055
10584POPC   C4A63846  23.743  26.038   7.355
10584POPC   C1B63847  23.896  26.235   6.455
10584POPC   C2B63848  23.854  26.281   6.755
10584POPC   C3B63849  23.835  26.234   7.055
10584POPC   C4B63850  23.816  26.281   7.355
10585POPC   NC363851  19.010  39.208   5.555
10585POPC   PO463852  19.044  39.265   5.855
10585POPC   GL163853  19.052  39.256   6.155
10585POPC   GL263854  18.909  39.260   6.155
10585POPC   C1A63855  19.080  39.217   6.455
10585POPC   D2A63856  19.095  39.254   6.755
10585POPC   C3A63857  19.077  39.185   7.055
10585POPC   C4A63858  19.011  39.252   7.355
10585POPC   C1B63859  18.803  39.182   6.455
10585POPC   C2B63860  18.765  39.200   6.755
10585POPC   C3B63861  18.821  39.250   7.055
10585POPC   C4B63862  18.834  39.165   7.355
10586POPC   NC363863  17.539  33.839   5.555
10586POPC   PO463864  17.541  33.771   5.855
10586POPC   GL163865  17.553  33.757   6.155
10586POPC   GL263866  17.583  33.681   6.155
10586POPC   C1A63867  17.516  33.779   6.455
10586POPC   D2A63868  17.510  33.778   6.755
10586POPC   C3A63869  17.519  33.803   7.055
10586POPC   C4A63870  17.471  33.789   7.355
10586POPC   C1B63871  17.577  33.537   6.455
10586POPC   C2B63872  17.613  33.557   6.755
10586POPC   C3B63873  17.588  33.529   7.055
10586POPC   C4B63874  17.658  33.566   7.355
10587POPC   NC363875  26.052  36.130   5.555
10587POPC   PO463876  25.995  36.132   5.855
10587POPC   GL163877  26.013  36.121   6.155
10587POPC   GL263878  25.909  36.191   6.155
10587POPC   C1A63879  26.041  36.149   6.455
10587POPC   D2A63880  26.034  36.109   6.755
10587POPC   C3A63881  26.040  36.130   7.055
10587POPC   C4A63882  26.023  36.165   7.355
10587POPC   C1B63883  25.797  36.241   6.455
10587POPC   C2B63884  25.789  36.262   6.755
10587POPC   C3B63885  25.821  36.252   7.055
10587POPC   C4B63886  25.848  36.259   7.355
10588POPC   NC363887  22.123  39.246   5.555
10588POPC   PO463888  22.172  39.196   5.855
10588POPC   GL163889  22.197  39.199   6.155
10588POPC   GL263890  22.297  39.327   6.155
10588POPC   C1A63891  22.115  39.272   6.455
10588POPC   D2A63892  22.123  39.239   6.755
10588POPC   C3A63893  22.148  39.213   7.055
10588POPC   C4A63894  22.209  39.203   7.355
10588POPC   C1B63895  22.355  39.457   6.455
10588POPC   C2B63896  22.370  39.413   6.755
10588POPC   C3B63897  22.307  39.397   7.055
10588POPC   C4B63898  22.356  39.407   7.355
10589POPC   NC363899  43.071   1.962   5.555
10589POPC   PO463900  43.082   1.941   5.855
10589POPC   GL163901  43.102   1.943   6.155
10589POPC   GL263902  42.958   2.035   6.155
10589POPC   C1A63903  43.081   2.021   6.455
10589POPC   D2A63904  43.095   2.035   6.755
10589POPC   C3A63905  43.074   1.948   7.055
10589POPC   C4A63906  43.134   1.941   7.355
10589POPC   C1B63907  42.879   2.086   6.455
10589POPC   C2B63908  42.896   2.084   6.755
10589POPC   C3B63909  42.854   2.073   7.055
10589POPC   C4B63910  42.907   2.160   7.355
10590POPC   NC363911  43.920  30.672   5.555
10590POPC   PO463912  43.846  30.713   5.855
10590POPC   GL163913  43.853  30.704   6.155
10590POPC   GL263914  43.957  30.746   6.155
10590POPC   C1A63915  43.850  30.661   6.455
10590POPC   D2A63916  43.927  30.663   6.755
10590POPC   C3A63917  43.844  30.674   7.055
10590POPC   C4A63918  43.890  30.675   7.355
10590POPC   C1B63919  44.101  30.842   6.455
10590POPC   C2B63920  44.057  30.850   6.755
10590POPC   C3B63921  44.121  30.784   7.055
10590POPC   C4B63922  44.135  30.861   7.355
10591POPC   NC363923   8.964   4.353   5.555
10591POPC   PO463924   8.933   4.331   5.855
10591POPC   GL163925   9.010   4.276   6.155
10591POPC   GL263926   9.065   4.404   6.155
10591POPC   C1A63927   8.958   4.355   6.455
10591POPC   D2A63928   8.993   4.301   6.755
10591POPC   C3A63929   8.978   4.285   7.055
10591POPC   C4A63930   9.017   4.333   7.355
10591POPC   C1B63931   9.202   4.360   6.455
10591POPC   C2B63932   9.220   4.441   6.755
10591POPC   C3B63933   9.182   4.380   7.055
10591POPC   C4B63934   9.170   4.400   7.355
10592POPC   NC363935  38.415  29.177   5.555
10592POPC   PO463936  38.486  29.170   5.855
10592POPC   GL163937  38.445  29.134   6.155
10592POPC   GL263938  38.336  29.132   6.155
10592POPC   C1A63939  38.453  29.156   6.455
10592POPC   D2A63940  38.465  29.160   6.755
10592POPC   C3A63941  38.480  29.164   7.055
10592POPC   C4A63942  38.481  29.150   7.355
10592POPC   C1B63943  38.162  29.213   6.455
10592POPC   C2B63944  38.199  29.211   6.755
10592POPC   C3B63945  38.187  29.174   7.055
10592POPC   C4B63946  38.165  29.153   7.355
10593POPC   NC363947  13.617  39.218   5.555
10593POPC   PO463948  13.668  39.249   5.855
10593POPC   GL163949  13.641  39.255   6.155
10593POPC   GL263950  13.776  39.200   6.155
10593POPC   C1A63951  13.588  39.222   6.455
10593POPC   D2A63952  13.665  39.268   6.755
10593POPC   C3A63953  13.580  39.262   7.055
10593POPC   C4A63954  13.673  39.272   7.355
10593POPC   C1B63955  13.791  39.081   6.455
10593POPC   C2B63956  13.811  39.086   6.755
10593POPC   C3B63957  13.870  39.096   7.055
10593POPC   C4B63958  13.837  39.053   7.355
10594POPC   NC363959  26.039  41.538   5.555
10594POPC   PO463960  26.064  41.572   5.855
10594POPC   GL163961  26.042  41.582   6.155
10594POPC   GL263962  25.970  41.391   6.155
10594POPC   C1A63963  25.999  41.519   6.455
10594POPC   D2A63964  26.032  41.550   6.755
10594POPC   C3A63965  26.001  41.521   7.055
10594POPC   C4A63966  26.038  41.582   7.355
10594POPC   C1B63967  25.963  41.306   6.455
10594POPC   C2B63968  26.027  41.316   6.755
10594POPC   C3B63969  26.001  41.345   7.055
10594POPC   C4B63970  26.028  41.288   7.355
10595POPC   NC363971  16.700  26.018   5.555
10595POPC   PO463972  16.750  26.091   5.855
10595POPC   GL163973  16.704  26.088   6.155
10595POPC   GL263974  16.675  25.886   6.155
10595POPC   C1A63975  16.732  26.002   6.455
10595POPC   D2A63976  16.724  26.056   6.755
10595POPC   C3A63977  16.749  26.012   7.055
10595POPC   C4A63978  16.717  26.004   7.355
10595POPC   C1B63979  16.611  25.852   6.455
10595POPC   C2B63980  16.637  25.873   6.755
10595POPC   C3B63981  16.599  25.863   7.055
10595POPC   C4B63982  16.653  25.872   7.355
10596POPC   NC363983  43.092  10.574   5.555
10596POPC   PO463984  43.089  10.519   5.855
10596POPC   GL163985  43.086  10.553   6.155
10596POPC   GL263986  43.020  10.607   6.155
10596POPC   C1A63987  43.103  10.506   6.455
10596POPC   D2A63988  43.077  10.484   6.755
10596POPC   C3A63989  43.074  10.514   7.055
10596POPC   C4A63990  43.124  10.531   7.355
10596POPC   C1B63991  42.922  10.678   6.455
10596POPC   C2B63992  42.929  10.675   6.755
10596POPC   C3B63993  42.881  10.620   7.055
10596POPC   C4B63994  42.911  10.651   7.355
10597POPC   NC363995  41.533  41.563   5.555
10597POPC   PO463996  41.605  41.529   5.855
10597POPC   GL163997  41.536  41.524   6.155
10597POPC   GL263998  41.552  41.388   6.155
10597POPC   C1A63999  41.572  41.590   6.455
10597POPC   D2A64000  41.532  41.547   6.755
10597POPC   C3A64001  41.521  41.589   7.055
10597POPC   C4A64002  41.586  41.562   7.355
10597POPC   C1B64003  41.575  41.328   6.455
10597POPC   C2B64004  41.616  41.273   6.755
10597POPC   C3B64005  41.552  41.308   7.055
10597POPC   C4B64006  41.532  41.331   7.355
10598POPC   NC364007  19.093  13.671   5.555
10598POPC   PO464008  19.056  13.598   5.855
10598POPC   GL164009  19.027  13.639   6.155
10598POPC   GL264010  18.923  13.685   6.155
10598POPC   C1A64011  19.066  13.669   6.455
10598POPC   D2A64012  19.083  13.606   6.755
10598POPC   C3A64013  19.014  13.644   7.055
10598POPC   C4A64014  19.093  13.664   7.355
10598POPC   C1B64015  18.927  13.760   6.455
10598POPC   C2B64016  18.926  13.815   6.755
10598POPC   C3B64017  18.884  13.848   7.055
10598POPC   C4B64018  18.895  13.811   7.355
10599POPC   NC364019  40.023  29.182   5.555
10599POPC   PO464020  40.030  29.118   5.855
10599POPC   GL164021  40.053  29.190   6.155
10599POPC   GL264022  40.048  29.220   6.155
10599POPC   C1A64023  40.044  29.165   6.455
10599POPC   D2A64024  39.959  29.099   6.755
10599POPC   C3A64025  39.995  29.160   7.055
10599POPC   C4A64026  40.040  29.148   7.355
10599POPC   C1B64027  39.997  29.350   6.455
10599POPC   C2B64028  40.024  29.368   6.755
10599POPC   C3B64029  39.982  29.353   7.055
10599POPC   C4B64030  40.016  29.386   7.355
10600POPC   NC364031  12.074   5.128   5.555
10600POPC   PO464032  12.109   5.107   5.855
10600POPC   GL164033  12.071   5.044   6.155
10600POPC   GL264034  11.959   5.026   6.155
10600POPC   C1A64035  12.095   5.085   6.455
10600POPC   D2A64036  12.111   5.057   6.755
10600POPC   C3A64037  12.089   5.097   7.055
10600POPC   C4A64038  12.060   5.061   7.355
10600POPC   C1B64039  11.872   4.887   6.455
10600POPC   C2B64040  11.912   4.949   6.755
10600POPC   C3B64041  11.873   4.863   7.055
10600POPC   C4B64042  11.875   4.907   7.355
10601POPC   NC364043  40.030  22.138   5.555
10601POPC   PO464044  40.020  22.167   5.855
10601POPC   GL164045  40.051  22.208   6.155
10601POPC   GL264046  40.019  22.315   6.155
10601POPC   C1A64047  40.041  22.139   6.455
10601POPC   D2A64048  40.027  22.119   6.755
10601POPC   C3A64049  39.996  22.164   7.055
10601POPC   C4A64050  39.993  22.130   7.355
10601POPC   C1B64051  39.997  22.376   6.455
10601POPC   C2B64052  40.045  22.453   6.755
10601POPC   C3B64053  40.004  22.428   7.055
10601POPC   C4B64054  39.973  22.408   7.355
10602POPC   NC364055  24.450  32.201   5.555
10602POPC   PO464056  24.507  32.229   5.855
10602POPC   GL164057  24.441  32.247   6.155
10602POPC   GL264058  24.346  32.302   6.155
10602POPC   C1A64059  24.449  32.270   6.455
10602POPC   D2A64060  24.441  32.270   6.755
10602POPC   C3A64061  24.448  32.253   7.055
10602POPC   C4A64062  24.467  32.295   7.355
10602POPC   C1B64063  24.261  32.288   6.455
10602POPC   C2B64064  24.226  32.252   6.755
10602POPC   C3B64065  24.215  32.238   7.055
10602POPC   C4B64066  24.272  32.253   7.355
10603POPC   NC364067   1.204  23.681   5.555
10603POPC   PO464068   1.199  23.752   5.855
10603POPC   GL164069   1.212  23.703   6.155
10603POPC   GL264070   1.137  23.620   6.155
10603POPC   C1A64071   1.240  23.687   6.455
10603POPC   D2A64072   1.219  23.738   6.755
10603POPC   C3A64073   1.222  23.722   7.055
10603POPC   C4A64074   1.234  23.689   7.355
10603POPC   C1B64075   1.100  23.507   6.455
10603POPC   C2B64076   1.168  23.466   6.755
10603POPC   C3B64077   1.092  23.475   7.055
10603POPC   C4B64078   1.118  23.431   7.355
10604POPC   NC364079  43.930  29.900   5.555
10604POPC   PO464080  43.886  29.934   5.855
10604POPC   GL164081  43.874  29.917   6.155
10604POPC   GL264082  44.033  29.886   6.155
10604POPC   C1A64083  43.921  29.956   6.455
10604POPC   D2A64084  43.882  29.917   6.755
10604POPC   C3A64085  43.881  29.901   7.055
10604POPC   C4A64086  43.906  29.906   7.355
10604POPC   C1B64087  44.076  29.804   6.455
10604POPC   C2B64088  44.089  29.810   6.755
10604POPC   C3B64089  44.164  29.856   7.055
10604POPC   C4B64090  44.094  29.862   7.355
10605POPC   NC364091  32.227   2.798   5.555
10605POPC   PO464092  32.223   2.739   5.855
10605POPC   GL164093  32.263   2.735   6.155
10605POPC   GL264094  32.235   2.920   6.155
10605POPC   C1A64095  32.231   2.804   6.455
10605POPC   D2A64096  32.261   2.765   6.755
10605POPC   C3A64097  32.283   2.746   7.055
10605POPC   C4A64098  32.243   2.787   7.355
10605POPC   C1B64099  32.179   2.966   6.455
10605POPC   C2B64100  32.258   2.980   6.755
10605POPC   C3B64101  32.255   3.061   7.055
10605POPC   C4B64102  32.230   2.983   7.355
10606POPC   NC364103  37.651  27.593   5.555
10606POPC   PO464104  37.696  27.575   5.855
10606POPC   GL164105  37.659  27.578   6.155
10606POPC   GL264106  37.573  27.494   6.155
10606POPC   C1A64107  37.686  27.573   6.455
10606POPC   D2A64108  37.661  27.573   6.755
10606POPC   C3A64109  37.663  27.604   7.055
10606POPC   C4A64110  37.719  27.637   7.355
10606POPC   C1B64111  37.478  27.370   6.455
10606POPC   C2B64112  37.562  27.412   6.755
10606POPC   C3B64113  37.544  27.429   7.055
10606POPC   C4B64114  37.535  27.411   7.355
10607POPC   NC364115  42.349  30.704   5.555
10607POPC   PO464116  42.365  30.696   5.855
10607POPC   GL164117  42.302  30.714   6.155
10607POPC   GL264118  42.432  30.751   6.155
10607POPC   C1A64119  42.290  30.653   6.455
10607POPC   D2A64120  42.300  30.741   6.755
10607POPC   C3A64121  42.364  30.670   7.055
10607POPC   C4A64122  42.323  30.707   7.355
10607POPC   C1B64123  42.577  30.790   6.455
10607POPC   C2B64124  42.518  30.765   6.755
10607POPC   C3B64125  42.583  30.752   7.055
10607POPC   C4B64126  42.543  30.776   7.355
10608POPC   NC364127  44.692  42.369   5.555
10608POPC   PO464128  44.616  42.352   5.855
10608POPC   GL164129  44.690  42.325   6.155
10608POPC   GL264130  44.777  42.395   6.155
10608POPC   C1A64131  44.701  42.383   6.455
10608POPC   D2A64132  44.633  42.301   6.755
10608POPC   C3A64133  44.624  42.358   7.055
10608POPC   C4A64134  44.682  42.339   7.355
10608POPC   C1B64135  44.922  42.406   6.455
10608POPC   C2B64136  44.896  42.461   6.755
10608POPC   C3B64137  44.890  42.385   7.055
10608POPC   C4B64138  44.916  42.368   7.355
10609POPC   NC364139  43.102  22.920   5.555
10609POPC   PO464140  43.108  22.986   5.855
10609POPC   GL164141  43.141  22.917   6.155
10609POPC   GL264142  43.095  23.083   6.155
10609POPC   C1A64143  43.141  22.922   6.455
10609POPC   D2A64144  43.093  22.934   6.755
10609POPC   C3A64145  43.158  22.978   7.055
10609POPC   C4A64146  43.109  22.936   7.355
10609POPC   C1B64147  43.125  23.229   6.455
10609POPC   C2B64148  43.096  23.167   6.755
10609POPC   C3B64149  43.124  23.161   7.055
10609POPC   C4B64150  43.121  23.232   7.355
10610POPC   NC364151  27.551  39.193   5.555
10610POPC   PO464152  27.640  39.252   5.855
10610POPC   GL164153  27.568  39.236   6.155
10610POPC   GL264154  27.565  39.379   6.155
10610POPC   C1A64155  27.568  39.263   6.455
10610POPC   D2A64156  27.633  39.181   6.755
10610POPC   C3A64157  27.565  39.264   7.055
10610POPC   C4A64158  27.637  39.200   7.355
10610POPC   C1B64159  27.582  39.449   6.455
10610POPC   C2B64160  27.511  39.516   6.755
10610POPC   C3B64161  27.609  39.455   7.055
10610POPC   C4B64162  27.603  39.493   7.355
10611POPC   NC364163  36.890  36.160   5.555
10611POPC   PO464164  36.933  36.138   5.855
10611POPC   GL164165  36.928  36.095   6.155
10611POPC   GL264166  36.903  36.006   6.155
10611POPC   C1A64167  36.920  36.168   6.455
10611POPC   D2A64168  36.888  36.101   6.755
10611POPC   C3A64169  36.875  36.107   7.055
10611POPC   C4A64170  36.854  36.136   7.355
10611POPC   C1B64171  36.840  35.893   6.455
10611POPC   C2B64172  36.777  35.880   6.755
10611POPC   C3B64173  36.843  35.934   7.055
10611POPC   C4B64174  36.772  35.944   7.355
10612POPC   NC364175  15.907  11.255   5.555
10612POPC   PO464176  15.971  11.341   5.855
10612POPC   GL164177  15.968  11.251   6.155
10612POPC   GL264178  15.950  11.422   6.155
10612POPC   C1A64179  15.947  11.309   6.455
10612POPC   D2A64180  15.968  11.270   6.755
10612POPC   C3A64181  15.959  11.281   7.055
10612POPC   C4A64182  15.915  11.349   7.355
10612POPC   C1B64183  16.001  11.521   6.455
10612POPC   C2B64184  15.967  11.499   6.755
10612POPC   C3B64185  16.032  11.552   7.055
10612POPC   C4B64186  16.013  11.567   7.355
10613POPC   NC364187   3.585   7.377   5.555
10613POPC   PO464188   3.540   7.380   5.855
10613POPC   GL164189   3.496   7.396   6.155
10613POPC   GL264190   3.654   7.335   6.155
10613POPC   C1A64191   3.536   7.395   6.455
10613POPC   D2A64192   3.518   7.383   6.755
10613POPC   C3A64193   3.569   7.434   7.055
10613POPC   C4A64194   3.504   7.399   7.355
10613POPC   C1B64195   3.667   7.221   6.455
10613POPC   C2B64196   3.695   7.242   6.755
10613POPC   C3B64197   3.681   7.240   7.055
10613POPC   C4B64198   3.701   7.237   7.355
10614POPC   NC364199  14.369   9.710   5.555
10614POPC   PO464200  14.444   9.732   5.855
10614POPC   GL164201  14.452   9.763   6.155
10614POPC   GL264202  14.395   9.603   6.155
10614POPC   C1A64203  14.360   9.728   6.455
10614POPC   D2A64204  14.387   9.755   6.755
10614POPC   C3A64205  14.363   9.796   7.055
10614POPC   C4A64206  14.435   9.766   7.355
10614POPC   C1B64207  14.342   9.462   6.455
10614POPC   C2B64208  14.357   9.482   6.755
10614POPC   C3B64209  14.369   9.543   7.055
10614POPC   C4B64210  14.343   9.538   7.355
10615POPC   NC364211  15.135   9.755   5.555
10615POPC   PO464212  15.138   9.737   5.855
10615POPC   GL164213  15.226   9.795   6.155
10615POPC   GL264214  15.285   9.824   6.155
10615POPC   C1A64215  15.216   9.707   6.455
10615POPC   D2A64216  15.200   9.794   6.755
10615POPC   C3A64217  15.181   9.737   7.055
10615POPC   C4A64218  15.197   9.772   7.355
10615POPC   C1B64219  15.381   9.856   6.455
10615POPC   C2B64220  15.430   9.813   6.755
10615POPC   C3B64221  15.417   9.806   7.055
10615POPC   C4B64222  15.381   9.875   7.355
10616POPC   NC364223   5.823   1.221   5.555
10616POPC   PO464224   5.833   1.193   5.855
10616POPC   GL164225   5.863   1.244   6.155
10616POPC   GL264226   5.951   1.224   6.155
10616POPC   C1A64227   5.884   1.221   6.455
10616POPC   D2A64228   5.875   1.190   6.755
10616POPC   C3A64229   5.907   1.227   7.055
10616POPC   C4A64230   5.865   1.235   7.355
10616POPC   C1B64231   6.146   1.178   6.455
10616POPC   C2B64232   6.124   1.088   6.755
10616POPC   C3B64233   6.084   1.156   7.055
10616POPC   C4B64234   6.080   1.096   7.355
10617POPC   NC364235  27.582  12.123   5.555
10617POPC   PO464236  27.631  12.066   5.855
10617POPC   GL164237  27.625  12.065   6.155
10617POPC   GL264238  27.518  12.204   6.155
10617POPC   C1A64239  27.601  12.114   6.455
10617POPC   D2A64240  27.586  12.039   6.755
10617POPC   C3A64241  27.621  12.097   7.055
10617POPC   C4A64242  27.626  12.121   7.355
10617POPC   C1B64243  27.506  12.306   6.455
10617POPC   C2B64244  27.515  12.330   6.755
10617POPC   C3B64245  27.531  12.304   7.055
10617POPC   C4B64246  27.490  12.307   7.355
10618POPC   NC364247   3.540  35.376   5.555
10618POPC   PO464248   3.545  35.385   5.855
10618POPC   GL164249   3.524  35.356   6.155
10618POPC   GL264250   3.483  35.465   6.155
10618POPC   C1A64251   3.572  35.392   6.455
10618POPC   D2A64252   3.509  35.367   6.755
10618POPC   C3A64253   3.547  35.380   7.055
10618POPC   C4A64254   3.554  35.395   7.355
10618POPC   C1B64255   3.355  35.529   6.455
10618POPC   C2B64256   3.366  35.485   6.755
10618POPC   C3B64257   3.379  35.518   7.055
10618POPC   C4B64258   3.311  35.529   7.355
10619POPC   NC364259  41.537  14.382   5.555
10619POPC   PO464260  41.571  14.373   5.855
10619POPC   GL164261  41.514  14.433   6.155
10619POPC   GL264262  41.540  14.255   6.155
10619POPC   C1A64263  41.598  14.418   6.455
10619POPC   D2A64264  41.605  14.375   6.755
10619POPC   C3A64265  41.572  14.394   7.055
10619POPC   C4A64266  41.560  14.399   7.355
10619POPC   C1B64267  41.584  14.132   6.455
10619POPC   C2B64268  41.585  14.196   6.755
10619POPC   C3B64269  41.591  14.137   7.055
10619POPC   C4B64270  41.601  14.160   7.355
10620POPC   NC364271  40.762  29.948   5.555
10620POPC   PO464272  40.744  29.937   5.855
10620POPC   GL164273  40.801  29.906   6.155
10620POPC   GL264274  40.777  30.004   6.155
10620POPC   C1A64275  40.744  29.962   6.455
10620POPC   D2A64276  40.793  29.946   6.755
10620POPC   C3A64277  40.823  29.884   7.055
10620POPC   C4A64278  40.811  29.885   7.355
10620POPC   C1B64279  40.815  30.153   6.455
10620POPC   C2B64280  40.814  30.118   6.755
10620POPC   C3B64281  40.803  30.120   7.055
10620POPC   C4B64282  40.780  30.214   7.355
10621POPC   NC364283  13.625  20.616   5.555
10621POPC   PO464284  13.640  20.619   5.855
10621POPC   GL164285  13.649  20.639   6.155
10621POPC   GL264286  13.464  20.666   6.155
10621POPC   C1A64287  13.630  20.646   6.455
10621POPC   D2A64288  13.589  20.638   6.755
10621POPC   C3A64289  13.622  20.659   7.055
10621POPC   C4A64290  13.668  20.652   7.355
10621POPC   C1B64291  13.347  20.665   6.455
10621POPC   C2B64292  13.433  20.730   6.755
10621POPC   C3B64293  13.424  20.701   7.055
10621POPC   C4B64294  13.400  20.665   7.355
10622POPC   NC364295  29.156  19.831   5.555
10622POPC   PO464296  29.162  19.802   5.855
10622POPC   GL164297  29.132  19.806   6.155
10622POPC   GL264298  29.252  19.713   6.155
10622POPC   C1A64299  29.095  19.805   6.455
10622POPC   D2A64300  29.167  19.810   6.755
10622POPC   C3A64301  29.171  19.820   7.055
10622POPC   C4A64302  29.102  19.859   7.355
10622POPC   C1B64303  29.303  19.680   6.455
10622POPC   C2B64304  29.381  19.715   6.755
10622POPC   C3B64305  29.349  19.662   7.055
10622POPC   C4B64306  29.378  19.708   7.355
10623POPC   NC364307  29.169   1.174   5.555
10623POPC   PO464308  29.187   1.205   5.855
10623POPC   GL164309  29.124   1.237   6.155
10623POPC   GL264310  29.080   1.108   6.155
10623POPC   C1A64311  29.116   1.196   6.455
10623POPC   D2A64312  29.158   1.164   6.755
10623POPC   C3A64313  29.166   1.196   7.055
10623POPC   C4A64314  29.136   1.235   7.355
10623POPC   C1B64315  29.046   0.972   6.455
10623POPC   C2B64316  29.034   1.014   6.755
10623POPC   C3B64317  29.026   1.033   7.055
10623POPC   C4B64318  29.031   1.014   7.355
10624POPC   NC364319  16.779  36.895   5.555
10624POPC   PO464320  16.751  36.870   5.855
10624POPC   GL164321  16.756  36.864   6.155
10624POPC   GL264322  16.727  37.005   6.155
10624POPC   C1A64323  16.690  36.881   6.455
10624POPC   D2A64324  16.765  36.925   6.755
10624POPC   C3A64325  16.731  36.934   7.055
10624POPC   C4A64326  16.734  36.915   7.355
10624POPC   C1B64327  16.796  37.181   6.455
10624POPC   C2B64328  16.823  37.164   6.755
10624POPC   C3B64329  16.793  37.167   7.055
10624POPC   C4B64330  16.747  37.187   7.355
10625POPC   NC364331   9.749   7.438   5.555
10625POPC   PO464332   9.738   7.440   5.855
10625POPC   GL164333   9.741   7.431   6.155
10625POPC   GL264334   9.686   7.514   6.155
10625POPC   C1A64335   9.776   7.405   6.455
10625POPC   D2A64336   9.754   7.452   6.755
10625POPC   C3A64337   9.730   7.388   7.055
10625POPC   C4A64338   9.767   7.463   7.355
10625POPC   C1B64339   9.511   7.564   6.455
10625POPC   C2B64340   9.482   7.541   6.755
10625POPC   C3B64341   9.487   7.563   7.055
10625POPC   C4B64342   9.577   7.583   7.355
10626POPC   NC364343  23.673  29.961   5.555
10626POPC   PO464344  23.763  29.915   5.855
10626POPC   GL164345  23.742  29.897   6.155
10626POPC   GL264346  23.593  29.918   6.155
10626POPC   C1A64347  23.754  29.919   6.455
10626POPC   D2A64348  23.669  29.924   6.755
10626POPC   C3A64349  23.684  29.912   7.055
10626POPC   C4A64350  23.714  29.873   7.355
10626POPC   C1B64351  23.518  29.834   6.455
10626POPC   C2B64352  23.477  29.890   6.755
10626POPC   C3B64353  23.429  29.805   7.055
10626POPC   C4B64354  23.496  29.834   7.355
10627POPC   NC364355  36.123  28.389   5.555
10627POPC   PO464356  36.171  28.396   5.855
10627POPC   GL164357  36.088  28.368   6.155
10627POPC   GL264358  36.128  28.202   6.155
10627POPC   C1A64359  36.128  28.336   6.455
10627POPC   D2A64360  36.109  28.334   6.755
10627POPC   C3A64361  36.169  28.349   7.055
10627POPC   C4A64362  36.138  28.396   7.355
10627POPC   C1B64363  36.179  28.120   6.455
10627POPC   C2B64364  36.139  28.094   6.755
10627POPC   C3B64365  36.149  28.167   7.055
10627POPC   C4B64366  36.222  28.134   7.355
10628POPC   NC364367  28.384  32.295   5.555
10628POPC   PO464368  28.325  32.295   5.855
10628POPC   GL164369  28.376  32.217   6.155
10628POPC   GL264370  28.408  32.359   6.155
10628POPC   C1A64371  28.352  32.215   6.455
10628POPC   D2A64372  28.352  32.271   6.755
10628POPC   C3A64373  28.377  32.288   7.055
10628POPC   C4A64374  28.366  32.238   7.355
10628POPC   C1B64375  28.472  32.476   6.455
10628POPC   C2B64376  28.420  32.484   6.755
10628POPC   C3B64377  28.417  32.528   7.055
10628POPC   C4B64378  28.441  32.481   7.355
10629POPC   NC364379  18.297  26.832   5.555
10629POPC   PO464380  18.263  26.811   5.855
10629POPC   GL164381  18.321  26.847   6.155
10629POPC   GL264382  18.351  26.766   6.155
10629POPC   C1A64383  18.302  26.867   6.455
10629POPC   D2A64384  18.333  26.786   6.755
10629POPC   C3A64385  18.262  26.867   7.055
10629POPC   C4A64386  18.331  26.777   7.355
10629POPC   C1B64387  18.482  26.677   6.455
10629POPC   C2B64388  18.505  26.632   6.755
10629POPC   C3B64389  18.430  26.666   7.055
10629POPC   C4B64390  18.493  26.602   7.355
10630POPC   NC364391  18.276  36.130   5.555
10630POPC   PO464392  18.248  36.102   5.855
10630POPC   GL164393  18.290  36.111   6.155
10630POPC   GL264394  18.192  36.116   6.155
10630POPC   C1A64395  18.274  36.145   6.455
10630POPC   D2A64396  18.280  36.170   6.755
10630POPC   C3A64397  18.260  36.144   7.055
10630POPC   C4A64398  18.304  36.140   7.355
10630POPC   C1B64399  17.995  36.087   6.455
10630POPC   C2B64400  18.064  36.124   6.755
10630POPC   C3B64401  18.037  36.079   7.055
10630POPC   C4B64402  18.055  36.035   7.355
10631POPC   NC364403  11.342  19.046   5.555
10631POPC   PO464404  11.259  19.012   5.855
10631POPC   GL164405  11.327  19.035   6.155
10631POPC   GL264406  11.352  19.165   6.155
10631POPC   C1A64407  11.330  19.075   6.455
10631POPC   D2A64408  11.308  19.054   6.755
10631POPC   C3A64409  11.337  19.085   7.055
10631POPC   C4A64410  11.331  19.032   7.355
10631POPC   C1B64411  11.317  19.333   6.455
10631POPC   C2B64412  11.272  19.264   6.755
10631POPC   C3B64413  11.298  19.262   7.055
10631POPC   C4B64414  11.291  19.263   7.355
10632POPC   NC364415  40.780  36.855   5.555
10632POPC   PO464416  40.774  36.923   5.855
10632POPC   GL164417  40.734  36.902   6.155
10632POPC   GL264418  40.626  36.857   6.155
10632POPC   C1A64419  40.794  36.920   6.455
10632POPC   D2A64420  40.789  36.923   6.755
10632POPC   C3A64421  40.788  36.919   7.055
10632POPC   C4A64422  40.778  36.941   7.355
10632POPC   C1B64423  40.571  36.810   6.455
10632POPC   C2B64424  40.542  36.768   6.755
10632POPC   C3B64425  40.595  36.768   7.055
10632POPC   C4B64426  40.540  36.767   7.355
10633POPC   NC364427  29.941   5.840   5.555
10633POPC   PO464428  29.920   5.896   5.855
10633POPC   GL164429  29.957   5.832   6.155
10633POPC   GL264430  30.000   5.985   6.155
10633POPC   C1A64431  29.958   5.824   6.455
10633POPC   D2A64432  29.908   5.880   6.755
10633POPC   C3A64433  29.901   5.883   7.055
10633POPC   C4A64434  29.930   5.874   7.355
10633POPC   C1B64435  30.007   6.094   6.455
10633POPC   C2B64436  30.011   6.068   6.755
10633POPC   C3B64437  29.967   6.066   7.055
10633POPC   C4B64438  30.001   6.077   7.355
10634POPC   NC364439   8.212   6.658   5.555
10634POPC   PO464440   8.216   6.673   5.855
10634POPC   GL164441   8.240   6.682   6.155
10634POPC   GL264442   8.361   6.703   6.155
10634POPC   C1A64443   8.158   6.641   6.455
10634POPC   D2A64444   8.200   6.621   6.755
10634POPC   C3A64445   8.197   6.647   7.055
10634POPC   C4A64446   8.160   6.662   7.355
10634POPC   C1B64447   8.405   6.752   6.455
10634POPC   C2B64448   8.456   6.689   6.755
10634POPC   C3B64449   8.468   6.751   7.055
10634POPC   C4B64450   8.450   6.757   7.355
10635POPC   NC364451  11.286  36.162   5.555
10635POPC   PO464452  11.297  36.099   5.855
10635POPC   GL164453  11.289  36.171   6.155
10635POPC   GL264454  11.429  36.079   6.155
10635POPC   C1A64455  11.254  36.157   6.455
10635POPC   D2A64456  11.263  36.094   6.755
10635POPC   C3A64457  11.251  36.136   7.055
10635POPC   C4A64458  11.339  36.100   7.355
10635POPC   C1B64459  11.506  36.044   6.455
10635POPC   C2B64460  11.502  36.026   6.755
10635POPC   C3B64461  11.489  36.027   7.055
10635POPC   C4B64462  11.527  36.031   7.355
10636POPC   NC364463  35.327  26.046   5.555
10636POPC   PO464464  35.339  26.013   5.855
10636POPC   GL164465  35.312  26.076   6.155
10636POPC   GL264466  35.363  25.889   6.155
10636POPC   C1A64467  35.361  26.034   6.455
10636POPC   D2A64468  35.380  26.027   6.755
10636POPC   C3A64469  35.371  26.047   7.055
10636POPC   C4A64470  35.340  26.069   7.355
10636POPC   C1B64471  35.253  25.800   6.455
10636POPC   C2B64472  35.270  25.787   6.755
10636POPC   C3B64473  35.274  25.837   7.055
10636POPC   C4B64474  35.313  25.812   7.355
10637POPC   NC364475  15.205  43.108   5.555
10637POPC   PO464476  15.218  43.107   5.855
10637POPC   GL164477  15.211  43.094   6.155
10637POPC   GL264478  15.054  43.033   6.155
10637POPC   C1A64479  15.221  43.105   6.455
10637POPC   D2A64480  15.201  43.137   6.755
10637POPC   C3A64481  15.216  43.147   7.055
10637POPC   C4A64482  15.168  43.142   7.355
10637POPC   C1B64483  14.997  43.003   6.455
10637POPC   C2B64484  14.982  43.057   6.755
10637POPC   C3B64485  14.943  42.993   7.055
10637POPC   C4B64486  14.909  42.986   7.355
10638POPC   NC364487  39.247   0.449   5.555
10638POPC   PO464488  39.264   0.487   5.855
10638POPC   GL164489  39.237   0.417   6.155
10638POPC   GL264490  39.104   0.533   6.155
10638POPC   C1A64491  39.223   0.404   6.455
10638POPC   D2A64492  39.274   0.425   6.755
10638POPC   C3A64493  39.226   0.475   7.055
10638POPC   C4A64494  39.200   0.417   7.355
10638POPC   C1B64495  39.092   0.576   6.455
10638POPC   C2B64496  39.035   0.649   6.755
10638POPC   C3B64497  39.067   0.612   7.055
10638POPC   C4B64498  39.009   0.595   7.355
10639POPC   NC364499  19.070   5.110   5.555
10639POPC   PO464500  19.044   5.111   5.855
10639POPC   GL164501  19.009   5.100   6.155
10639POPC   GL264502  18.994   5.031   6.155
10639POPC   C1A64503  19.031   5.059   6.455
10639POPC   D2A64504  19.088   5.058   6.755
10639POPC   C3A64505  19.078   5.048   7.055
10639POPC   C4A64506  19.011   5.086   7.355
10639POPC   C1B64507  18.932   4.932   6.455
10639POPC   C2B64508  18.881   4.922   6.755
10639POPC   C3B64509  18.858   4.952   7.055
10639POPC   C4B64510  18.856   4.880   7.355
10640POPC   NC364511  43.865   5.102   5.555
10640POPC   PO464512  43.889   5.133   5.855
10640POPC   GL164513  43.889   5.077   6.155
10640POPC   GL264514  43.985   5.189   6.155
10640POPC   C1A64515  43.841   5.064   6.455
10640POPC   D2A64516  43.907   5.123   6.755
10640POPC   C3A64517  43.874   5.074   7.055
10640POPC   C4A64518  43.926   5.093   7.355
10640POPC   C1B64519  44.120   5.232   6.455
10640POPC   C2B64520  44.112   5.200   6.755
10640POPC   C3B64521  44.106   5.207   7.055
10640POPC   C4B64522  44.106   5.237   7.355
10641POPC   NC364523  36.099  32.240   5.555
10641POPC   PO464524  36.150  32.222   5.855
10641POPC   GL164525  36.106  32.255   6.155
10641POPC   GL264526  36.208  32.337   6.155
10641POPC   C1A64527  36.148  32.212   6.455
10641POPC   D2A64528  36.172  32.236   6.755
10641POPC   C3A64529  36.086  32.207   7.055
10641POPC   C4A64530  36.086  32.279   7.355
10641POPC   C1B64531  36.320  32.441   6.455
10641POPC   C2B64532  36.245  32.443   6.755
10641POPC   C3B64533  36.277  32.402   7.055
10641POPC   C4B64534  36.258  32.436   7.355
10642POPC   NC364535  36.952   2.768   5.555
10642POPC   PO464536  36.882   2.777   5.855
10642POPC   GL164537  36.913   2.809   6.155
10642POPC   GL264538  37.059   2.790   6.155
10642POPC   C1A64539  36.885   2.813   6.455
10642POPC   D2A64540  36.926   2.734   6.755
10642POPC   C3A64541  36.861   2.772   7.055
10642POPC   C4A64542  36.921   2.720   7.355
10642POPC   C1B64543  37.129   2.914   6.455
10642POPC   C2B64544  37.155   2.862   6.755
10642POPC   C3B64545  37.154   2.939   7.055
10642POPC   C4B64546  37.111   2.849   7.355
10643POPC   NC364547  39.979  12.046   5.555
10643POPC   PO464548  39.999  12.030   5.855
10643POPC   GL164549  40.020  12.101   6.155
10643POPC   GL264550  40.009  12.002   6.155
10643POPC   C1A64551  39.974  12.041   6.455
10643POPC   D2A64552  40.041  12.073   6.755
10643POPC   C3A64553  39.991  12.120   7.055
10643POPC   C4A64554  39.982  12.030   7.355
10643POPC   C1B64555  40.069  11.851   6.455
10643POPC   C2B64556  40.129  11.829   6.755
10643POPC   C3B64557  40.108  11.895   7.055
10643POPC   C4B64558  40.138  11.860   7.355
10644POPC   NC364559  30.705  15.969   5.555
10644POPC   PO464560  30.670  15.977   5.855
10644POPC   GL164561  30.648  15.984   6.155
10644POPC   GL264562  30.781  15.989   6.155
10644POPC   C1A64563  30.700  15.971   6.455
10644POPC   D2A64564  30.718  15.974   6.755
10644POPC   C3A64565  30.702  15.978   7.055
10644POPC   C4A64566  30.703  15.938   7.355
10644POPC   C1B64567  30.968  15.939   6.455
10644POPC   C2B64568  30.980  15.905   6.755
10644POPC   C3B64569  30.946  15.914   7.055
10644POPC   C4B64570  30.912  15.941   7.355
10645POPC   NC364571  19.028   9.763   5.555
10645POPC   PO464572  19.031   9.721   5.855
10645POPC   GL164573  19.028   9.763   6.155
10645POPC   GL264574  19.098   9.627   6.155
10645POPC   C1A64575  19.017   9.789   6.455
10645POPC   D2A64576  19.078   9.712   6.755
10645POPC   C3A64577  19.101   9.790   7.055
10645POPC   C4A64578  19.068   9.768   7.355
10645POPC   C1B64579  19.194   9.591   6.455
10645POPC   C2B64580  19.271   9.516   6.755
10645POPC   C3B64581  19.203   9.564   7.055
10645POPC   C4B64582  19.211   9.532   7.355
10646POPC   NC364583  11.280  16.715   5.555
10646POPC   PO464584  11.315  16.753   5.855
10646POPC   GL164585  11.277  16.690   6.155
10646POPC   GL264586  11.322  16.817   6.155
10646POPC   C1A64587  11.283  16.779   6.455
10646POPC   D2A64588  11.311  16.693   6.755
10646POPC   C3A64589  11.322  16.718   7.055
10646POPC   C4A64590  11.280  16.767   7.355
10646POPC   C1B64591  11.255  17.022   6.455
10646POPC   C2B64592  11.267  16.962   6.755
10646POPC   C3B64593  11.231  16.955   7.055
10646POPC   C4B64594  11.247  16.961   7.355
10647POPC   NC364595   2.746  18.266   5.555
10647POPC   PO464596   2.765  18.321   5.855
10647POPC   GL164597   2.804  18.247   6.155
10647POPC   GL264598   2.894  18.182   6.155
10647POPC   C1A64599   2.721  18.293   6.455
10647POPC   D2A64600   2.750  18.287   6.755
10647POPC   C3A64601   2.755  18.239   7.055
10647POPC   C4A64602   2.750  18.260   7.355
10647POPC   C1B64603   2.959  18.117   6.455
10647POPC   C2B64604   2.956  18.142   6.755
10647POPC   C3B64605   3.019  18.091   7.055
10647POPC   C4B64606   2.986  18.098   7.355
10648POPC   NC364607  30.690   6.635   5.555
10648POPC   PO464608  30.654   6.675   5.855
10648POPC   GL164609  30.709   6.643   6.155
10648POPC   GL264610  30.667   6.794   6.155
10648POPC   C1A64611  30.704   6.622   6.455
10648POPC   D2A64612  30.692   6.664   6.755
10648POPC   C3A64613  30.658   6.666   7.055
10648POPC   C4A64614  30.712   6.627   7.355
10648POPC   C1B64615  30.590   6.854   6.455
10648POPC   C2B64616  30.534   6.806   6.755
10648POPC   C3B64617  30.593   6.833   7.055
10648POPC   C4B64618  30.549   6.895   7.355
10649POPC   NC364619   1.247  12.812   5.555
10649POPC   PO464620   1.226  12.838   5.855
10649POPC   GL164621   1.166  12.828   6.155
10649POPC   GL264622   1.255  12.717   6.155
10649POPC   C1A64623   1.176  12.882   6.455
10649POPC   D2A64624   1.236  12.872   6.755
10649POPC   C3A64625   1.178  12.817   7.055
10649POPC   C4A64626   1.233  12.847   7.355
10649POPC   C1B64627   1.256  12.653   6.455
10649POPC   C2B64628   1.218  12.566   6.755
10649POPC   C3B64629   1.254  12.639   7.055
10649POPC   C4B64630   1.209  12.627   7.355
10650POPC   NC364631  20.635  22.966   5.555
10650POPC   PO464632  20.562  22.898   5.855
10650POPC   GL164633  20.621  22.907   6.155
10650POPC   GL264634  20.641  22.823   6.155
10650POPC   C1A64635  20.639  22.964   6.455
10650POPC   D2A64636  20.576  22.963   6.755
10650POPC   C3A64637  20.574  22.905   7.055
10650POPC   C4A64638  20.630  22.971   7.355
10650POPC   C1B64639  20.686  22.711   6.455
10650POPC   C2B64640  20.725  22.702   6.755
10650POPC   C3B64641  20.709  22.681   7.055
10650POPC   C4B64642  20.733  22.678   7.355
10651POPC   NC364643  25.304   3.515   5.555
10651POPC   PO464644  25.281   3.578   5.855
10651POPC   GL164645  25.228   3.532   6.155
10651POPC   GL264646  25.337   3.694   6.155
10651POPC   C1A64647  25.292   3.502   6.455
10651POPC   D2A64648  25.281   3.579   6.755
10651POPC   C3A64649  25.247   3.510   7.055
10651POPC   C4A64650  25.219   3.527   7.355
10651POPC   C1B64651  25.447   3.748   6.455
10651POPC   C2B64652  25.363   3.787   6.755
10651POPC   C3B64653  25.451   3.728   7.055
10651POPC   C4B64654  25.397   3.760   7.355
10652POPC   NC364655   0.403  35.362   5.555
10652POPC   PO464656   0.395  35.331   5.855
10652POPC   GL164657   0.404  35.320   6.155
10652POPC   GL264658   0.603  35.328   6.155
10652POPC   C1A64659   0.462  35.345   6.455
10652POPC   D2A64660   0.429  35.394   6.755
10652POPC   C3A64661   0.447  35.346   7.055
10652POPC   C4A64662   0.404  35.352   7.355
10652POPC   C1B64663   0.643  35.416   6.455
10652POPC   C2B64664   0.675  35.387   6.755
10652POPC   C3B64665   0.719  35.336   7.055
10652POPC   C4B64666   0.696  35.415   7.355
10653POPC   NC364667  33.023  20.655   5.555
10653POPC   PO464668  33.037  20.631   5.855
10653POPC   GL164669  33.016  20.609   6.155
10653POPC   GL264670  33.114  20.720   6.155
10653POPC   C1A64671  32.996  20.596   6.455
10653POPC   D2A64672  33.045  20.634   6.755
10653POPC   C3A64673  33.045  20.573   7.055
10653POPC   C4A64674  32.981  20.645   7.355
10653POPC   C1B64675  33.245  20.767   6.455
10653POPC   C2B64676  33.205  20.761   6.755
10653POPC   C3B64677  33.204  20.741   7.055
10653POPC   C4B64678  33.266  20.772   7.355
10654POPC   NC364679   8.980  38.438   5.555
10654POPC   PO464680   8.935  38.407   5.855
10654POPC   GL164681   9.004  38.491   6.155
10654POPC   GL264682   8.911  38.335   6.155
10654POPC   C1A64683   9.019  38.470   6.455
10654POPC   D2A64684   8.979  38.488   6.755
10654POPC   C3A64685   8.963  38.411   7.055
10654POPC   C4A64686   8.993  38.448   7.355
10654POPC   C1B64687   8.813  38.290   6.455
10654POPC   C2B64688   8.871  38.259   6.755
10654POPC   C3B64689   8.822  38.260   7.055
10654POPC   C4B64690   8.862  38.276   7.355
10655POPC   NC364691  44.694   9.727   5.555
10655POPC   PO464692  44.667   9.720   5.855
10655POPC   GL164693  44.660   9.746   6.155
10655POPC   GL264694  44.551   9.878   6.155
10655POPC   C1A64695  44.670   9.772   6.455
10655POPC   D2A64696  44.654   9.753   6.755
10655POPC   C3A64697  44.711   9.740   7.055
10655POPC   C4A64698  44.693   9.702   7.355
10655POPC   C1B64699  44.452   9.917   6.455
10655POPC   C2B64700  44.444   9.965   6.755
10655POPC   C3B64701  44.468   9.885   7.055
10655POPC   C4B64702  44.468   9.903   7.355
10656POPC   NC364703  16.687   0.466   5.555
10656POPC   PO464704  16.767   0.437   5.855
10656POPC   GL164705  16.754   0.467   6.155
10656POPC   GL264706  16.853   0.571   6.155
10656POPC   C1A64707  16.702   0.404   6.455
10656POPC   D2A64708  16.747   0.422   6.755
10656POPC   C3A64709  16.747   0.391   7.055
10656POPC   C4A64710  16.760   0.434   7.355
10656POPC   C1B64711  16.895   0.629   6.455
10656POPC   C2B64712  16.900   0.578   6.755
10656POPC   C3B64713  16.859   0.595   7.055
10656POPC   C4B64714  16.915   0.642   7.355
10657POPC   NC364715   7.442   1.195   5.555
10657POPC   PO464716   7.462   1.212   5.855
10657POPC   GL164717   7.446   1.173   6.155
10657POPC   GL264718   7.503   1.149   6.155
10657POPC   C1A64719   7.390   1.229   6.455
10657POPC   D2A64720   7.391   1.204   6.755
10657POPC   C3A64721   7.388   1.214   7.055
10657POPC   C4A64722   7.460   1.256   7.355
10657POPC   C1B64723   7.526   0.978   6.455
10657POPC   C2B64724   7.612   1.049   6.755
10657POPC   C3B64725   7.556   1.058   7.055
10657POPC   C4B64726   7.590   0.973   7.355
10658POPC   NC364727  19.107   5.913   5.555
10658POPC   PO464728  19.036   5.846   5.855
10658POPC   GL164729  19.060   5.866   6.155
10658POPC   GL264730  18.963   5.718   6.155
10658POPC   C1A64731  19.027   5.915   6.455
10658POPC   D2A64732  19.097   5.881   6.755
10658POPC   C3A64733  19.080   5.870   7.055
10658POPC   C4A64734  19.040   5.865   7.355
10658POPC   C1B64735  18.970   5.654   6.455
10658POPC   C2B64736  18.966   5.614   6.755
10658POPC   C3B64737  18.949   5.636   7.055
10658POPC   C4B64738  18.926   5.698   7.355
10659POPC   NC364739  30.740  33.038   5.555
10659POPC   PO464740  30.727  33.046   5.855
10659POPC   GL164741  30.683  32.991   6.155
10659POPC   GL264742  30.611  33.091   6.155
10659POPC   C1A64743  30.744  33.064   6.455
10659POPC   D2A64744  30.708  32.984   6.755
10659POPC   C3A64745  30.694  33.064   7.055
10659POPC   C4A64746  30.730  33.073   7.355
10659POPC   C1B64747  30.509  33.178   6.455
10659POPC   C2B64748  30.565  33.226   6.755
10659POPC   C3B64749  30.500  33.211   7.055
10659POPC   C4B64750  30.542  33.194   7.355
10660POPC   NC364751  25.257  27.625   5.555
10660POPC   PO464752  25.253  27.584   5.855
10660POPC   GL164753  25.303  27.594   6.155
10660POPC   GL264754  25.148  27.628   6.155
10660POPC   C1A64755  25.262  27.574   6.455
10660POPC   D2A64756  25.227  27.590   6.755
10660POPC   C3A64757  25.301  27.567   7.055
10660POPC   C4A64758  25.309  27.634   7.355
10660POPC   C1B64759  25.001  27.704   6.455
10660POPC   C2B64760  24.999  27.667   6.755
10660POPC   C3B64761  25.026  27.690   7.055
10660POPC   C4B64762  25.010  27.727   7.355
10661POPC   NC364763  34.625  38.419   5.555
10661POPC   PO464764  34.547  38.503   5.855
10661POPC   GL164765  34.581  38.483   6.155
10661POPC   GL264766  34.465  38.512   6.155
10661POPC   C1A64767  34.530  38.497   6.455
10661POPC   D2A64768  34.567  38.447   6.755
10661POPC   C3A64769  34.587  38.434   7.055
10661POPC   C4A64770  34.560  38.463   7.355
10661POPC   C1B64771  34.338  38.468   6.455
10661POPC   C2B64772  34.315  38.450   6.755
10661POPC   C3B64773  34.332  38.511   7.055
10661POPC   C4B64774  34.365  38.437   7.355
10662POPC   NC364775  33.014  41.585   5.555
10662POPC   PO464776  33.041  41.579   5.855
10662POPC   GL164777  33.069  41.540   6.155
10662POPC   GL264778  32.933  41.615   6.155
10662POPC   C1A64779  33.043  41.593   6.455
10662POPC   D2A64780  33.005  41.580   6.755
10662POPC   C3A64781  33.052  41.553   7.055
10662POPC   C4A64782  33.063  41.537   7.355
10662POPC   C1B64783  32.868  41.662   6.455
10662POPC   C2B64784  32.823  41.650   6.755
10662POPC   C3B64785  32.795  41.664   7.055
10662POPC   C4B64786  32.866  41.671   7.355
10663POPC   NC364787   4.331  22.205   5.555
10663POPC   PO464788   4.299  22.179   5.855
10663POPC   GL164789   4.280  22.200   6.155
10663POPC   GL264790   4.204  22.074   6.155
10663POPC   C1A64791   4.326  22.182   6.455
10663POPC   D2A64792   4.323  22.168   6.755
10663POPC   C3A64793   4.270  22.196   7.055
10663POPC   C4A64794   4.320  22.155   7.355
10663POPC   C1B64795   4.193  21.951   6.455
10663POPC   C2B64796   4.203  21.936   6.755
10663POPC   C3B64797   4.142  21.979   7.055
10663POPC   C4B64798   4.180  21.983   7.355
10664POPC   NC364799  37.636  18.323   5.555
10664POPC   PO464800  37.673  18.308   5.855
10664POPC   GL164801  37.663  18.268   6.155
10664POPC   GL264802  37.599  18.362   6.155
10664POPC   C1A64803  37.689  18.255   6.455
10664POPC   D2A64804  37.658  18.299   6.755
10664POPC   C3A64805  37.647  18.294   7.055
10664POPC   C4A64806  37.640  18.240   7.355
10664POPC   C1B64807  37.442  18.460   6.455
10664POPC   C2B64808  37.482  18.418   6.755
10664POPC   C3B64809  37.479  18.399   7.055
10664POPC   C4B64810  37.430  18.460   7.355
10665POPC   NC364811   9.705  20.571   5.555
10665POPC   PO464812   9.752  20.607   5.855
10665POPC   GL164813   9.747  20.564   6.155
10665POPC   GL264814   9.669  20.678   6.155
10665POPC   C1A64815   9.709  20.633   6.455
10665POPC   D2A64816   9.731  20.639   6.755
10665POPC   C3A64817   9.735  20.592   7.055
10665POPC   C4A64818   9.699  20.585   7.355
10665POPC   C1B64819   9.610  20.791   6.455
10665POPC   C2B64820   9.522  20.816   6.755
10665POPC   C3B64821   9.601  20.823   7.055
10665POPC   C4B64822   9.545  20.765   7.355
10666POPC   NC364823  15.913  39.187   5.555
10666POPC   PO464824  15.929  39.199   5.855
10666POPC   GL164825  15.983  39.242   6.155
10666POPC   GL264826  15.872  39.383   6.155
10666POPC   C1A64827  16.001  39.235   6.455
10666POPC   D2A64828  15.992  39.233   6.755
10666POPC   C3A64829  15.934  39.259   7.055
10666POPC   C4A64830  15.991  39.217   7.355
10666POPC   C1B64831  15.859  39.439   6.455
10666POPC   C2B64832  15.839  39.502   6.755
10666POPC   C3B64833  15.825  39.474   7.055
10666POPC   C4B64834  15.840  39.409   7.355
10667POPC   NC364835  39.232  16.713   5.555
10667POPC   PO464836  39.184  16.717   5.855
10667POPC   GL164837  39.268  16.738   6.155
10667POPC   GL264838  39.388  16.656   6.155
10667POPC   C1A64839  39.200  16.781   6.455
10667POPC   D2A64840  39.244  16.756   6.755
10667POPC   C3A64841  39.213  16.702   7.055
10667POPC   C4A64842  39.183  16.748   7.355
10667POPC   C1B64843  39.467  16.658   6.455
10667POPC   C2B64844  39.429  16.666   6.755
10667POPC   C3B64845  39.464  16.615   7.055
10667POPC   C4B64846  39.469  16.622   7.355
10668POPC   NC364847  37.654  36.911   5.555
10668POPC   PO464848  37.675  36.859   5.855
10668POPC   GL164849  37.725  36.951   6.155
10668POPC   GL264850  37.583  37.033   6.155
10668POPC   C1A64851  37.636  36.950   6.455
10668POPC   D2A64852  37.701  36.911   6.755
10668POPC   C3A64853  37.702  36.891   7.055
10668POPC   C4A64854  37.689  36.855   7.355
10668POPC   C1B64855  37.510  37.075   6.455
10668POPC   C2B64856  37.507  37.080   6.755
10668POPC   C3B64857  37.486  37.025   7.055
10668POPC   C4B64858  37.470  37.079   7.355
10669POPC   NC364859  18.275   7.454   5.555
10669POPC   PO464860  18.278   7.467   5.855
10669POPC   GL164861  18.329   7.388   6.155
10669POPC   GL264862  18.253   7.304   6.155
10669POPC   C1A64863  18.304   7.469   6.455
10669POPC   D2A64864  18.315   7.464   6.755
10669POPC   C3A64865  18.257   7.452   7.055
10669POPC   C4A64866  18.245   7.447   7.355
10669POPC   C1B64867  18.199   7.220   6.455
10669POPC   C2B64868  18.166   7.205   6.755
10669POPC   C3B64869  18.221   7.145   7.055
10669POPC   C4B64870  18.232   7.174   7.355
10670POPC   NC364871  15.205  22.965   5.555
10670POPC   PO464872  15.151  22.960   5.855
10670POPC   GL164873  15.152  22.966   6.155
10670POPC   GL264874  15.267  22.894   6.155
10670POPC   C1A64875  15.150  22.928   6.455
10670POPC   D2A64876  15.169  22.951   6.755
10670POPC   C3A64877  15.188  22.910   7.055
10670POPC   C4A64878  15.184  22.975   7.355
10670POPC   C1B64879  15.427  22.821   6.455
10670POPC   C2B64880  15.364  22.795   6.755
10670POPC   C3B64881  15.426  22.875   7.055
10670POPC   C4B64882  15.453  22.863   7.355
10671POPC   NC364883  24.495  26.003   5.555
10671POPC   PO464884  24.538  26.073   5.855
10671POPC   GL164885  24.468  26.009   6.155
10671POPC   GL264886  24.400  26.006   6.155
10671POPC   C1A64887  24.538  26.058   6.455
10671POPC   D2A64888  24.440  26.079   6.755
10671POPC   C3A64889  24.524  26.023   7.055
10671POPC   C4A64890  24.457  26.050   7.355
10671POPC   C1B64891  24.286  25.909   6.455
10671POPC   C2B64892  24.284  25.955   6.755
10671POPC   C3B64893  24.289  25.960   7.055
10671POPC   C4B64894  24.278  25.944   7.355
10672POPC   NC364895  39.991  40.753   5.555
10672POPC   PO464896  40.001  40.806   5.855
10672POPC   GL164897  40.041  40.827   6.155
10672POPC   GL264898  39.887  40.759   6.155
10672POPC   C1A64899  40.042  40.794   6.455
10672POPC   D2A64900  40.008  40.752   6.755
10672POPC   C3A64901  39.995  40.763   7.055
10672POPC   C4A64902  39.992  40.733   7.355
10672POPC   C1B64903  39.807  40.596   6.455
10672POPC   C2B64904  39.800  40.614   6.755
10672POPC   C3B64905  39.847  40.603   7.055
10672POPC   C4B64906  39.836  40.616   7.355
10673POPC   NC364907  15.990  43.864   5.555
10673POPC   PO464908  15.950  43.925   5.855
10673POPC   GL164909  15.919  43.880   6.155
10673POPC   GL264910  15.843  43.741   6.155
10673POPC   C1A64911  15.990  43.844   6.455
10673POPC   D2A64912  15.928  43.865   6.755
10673POPC   C3A64913  15.984  43.838   7.055
10673POPC   C4A64914  15.954  43.853   7.355
10673POPC   C1B64915  15.840  43.697   6.455
10673POPC   C2B64916  15.862  43.634   6.755
10673POPC   C3B64917  15.797  43.629   7.055
10673POPC   C4B64918  15.775  43.629   7.355
10674POPC   NC364919  33.032  16.765   5.555
10674POPC   PO464920  33.030  16.694   5.855
10674POPC   GL164921  32.993  16.770   6.155
10674POPC   GL264922  32.994  16.648   6.155
10674POPC   C1A64923  33.044  16.749   6.455
10674POPC   D2A64924  33.028  16.743   6.755
10674POPC   C3A64925  33.064  16.777   7.055
10674POPC   C4A64926  33.030  16.694   7.355
10674POPC   C1B64927  33.009  16.492   6.455
10674POPC   C2B64928  33.007  16.495   6.755
10674POPC   C3B64929  33.003  16.516   7.055
10674POPC   C4B64930  33.034  16.475   7.355
10675POPC   NC364931  38.417  33.042   5.555
10675POPC   PO464932  38.437  33.067   5.855
10675POPC   GL164933  38.416  33.074   6.155
10675POPC   GL264934  38.526  33.078   6.155
10675POPC   C1A64935  38.443  33.003   6.455
10675POPC   D2A64936  38.426  33.010   6.755
10675POPC   C3A64937  38.453  33.044   7.055
10675POPC   C4A64938  38.419  33.007   7.355
10675POPC   C1B64939  38.702  33.080   6.455
10675POPC   C2B64940  38.724  33.156   6.755
10675POPC   C3B64941  38.667  33.172   7.055
10675POPC   C4B64942  38.649  33.132   7.355
10676POPC   NC364943   6.661   7.469   5.555
10676POPC   PO464944   6.679   7.421   5.855
10676POPC   GL164945   6.657   7.450   6.155
10676POPC   GL264946   6.532   7.419   6.155
10676POPC   C1A64947   6.612   7.439   6.455
10676POPC   D2A64948   6.602   7.405   6.755
10676POPC   C3A64949   6.624   7.378   7.055
10676POPC   C4A64950   6.620   7.469   7.355
10676POPC   C1B64951   6.405   7.483   6.455
10676POPC   C2B64952   6.433   7.475   6.755
10676POPC   C3B64953   6.414   7.513   7.055
10676POPC   C4B64954   6.442   7.545   7.355
10677POPC   NC364955   5.822  30.744   5.555
10677POPC   PO464956   5.891  30.694   5.855
10677POPC   GL164957   5.825  30.733   6.155
10677POPC   GL264958   5.972  30.613   6.155
10677POPC   C1A64959   5.913  30.724   6.455
10677POPC   D2A64960   5.868  30.743   6.755
10677POPC   C3A64961   5.837  30.680   7.055
10677POPC   C4A64962   5.900  30.668   7.355
10677POPC   C1B64963   6.144  30.630   6.455
10677POPC   C2B64964   6.106  30.581   6.755
10677POPC   C3B64965   6.109  30.559   7.055
10677POPC   C4B64966   6.114  30.583   7.355
10678POPC   NC364967   7.440  30.681   5.555
10678POPC   PO464968   7.433  30.688   5.855
10678POPC   GL164969   7.456  30.649   6.155
10678POPC   GL264970   7.381  30.840   6.155
10678POPC   C1A64971   7.416  30.689   6.455
10678POPC   D2A64972   7.419  30.670   6.755
10678POPC   C3A64973   7.389  30.690   7.055
10678POPC   C4A64974   7.447  30.746   7.355
10678POPC   C1B64975   7.294  30.889   6.455
10678POPC   C2B64976   7.274  30.933   6.755
10678POPC   C3B64977   7.339  30.951   7.055
10678POPC   C4B64978   7.315  30.903   7.355
10679POPC   NC364979   9.746  22.983   5.555
10679POPC   PO464980   9.773  22.918   5.855
10679POPC   GL164981   9.796  22.953   6.155
10679POPC   GL264982   9.631  22.890   6.155
10679POPC   C1A64983   9.715  22.981   6.455
10679POPC   D2A64984   9.780  22.913   6.755
10679POPC   C3A64985   9.796  22.927   7.055
10679POPC   C4A64986   9.780  22.957   7.355
10679POPC   C1B64987   9.515  22.827   6.455
10679POPC   C2B64988   9.502  22.754   6.755
10679POPC   C3B64989   9.592  22.787   7.055
10679POPC   C4B64990   9.526  22.759   7.355
10680POPC   NC364991  36.134  23.720   5.555
10680POPC   PO464992  36.095  23.679   5.855
10680POPC   GL164993  36.124  23.746   6.155
10680POPC   GL264994  35.993  23.800   6.155
10680POPC   C1A64995  36.160  23.718   6.455
10680POPC   D2A64996  36.100  23.724   6.755
10680POPC   C3A64997  36.151  23.675   7.055
10680POPC   C4A64998  36.100  23.683   7.355
10680POPC   C1B64999  35.934  23.884   6.455
10680POPC   C2B65000  35.909  23.899   6.755
10680POPC   C3B65001  35.947  23.901   7.055
10680POPC   C4B65002  35.939  23.893   7.355
10681POPC   NC365003  40.752  10.506   5.555
10681POPC   PO465004  40.824  10.539   5.855
10681POPC   GL165005  40.758  10.552   6.155
10681POPC   GL265006  40.878  10.608   6.155
10681POPC   C1A65007  40.798  10.540   6.455
10681POPC   D2A65008  40.803  10.476   6.755
10681POPC   C3A65009  40.825  10.542   7.055
10681POPC   C4A65010  40.763  10.479   7.355
10681POPC   C1B65011  41.017  10.587   6.455
10681POPC   C2B65012  41.057  10.641   6.755
10681POPC   C3B65013  41.018  10.626   7.055
10681POPC   C4B65014  41.043  10.647   7.355
10682POPC   NC365015  28.392  29.193   5.555
10682POPC   PO465016  28.355  29.137   5.855
10682POPC   GL165017  28.411  29.184   6.155
10682POPC   GL265018  28.273  29.133   6.155
10682POPC   C1A65019  28.390  29.121   6.455
10682POPC   D2A65020  28.376  29.140   6.755
10682POPC   C3A65021  28.381  29.113   7.055
10682POPC   C4A65022  28.385  29.121   7.355
10682POPC   C1B65023  28.151  29.016   6.455
10682POPC   C2B65024  28.105  29.025   6.755
10682POPC   C3B65025  28.170  29.066   7.055
10682POPC   C4B65026  28.109  29.076   7.355
10683POPC   NC365027  22.137  36.126   5.555
10683POPC   PO465028  22.193  36.095   5.855
10683POPC   GL165029  22.149  36.143   6.155
10683POPC   GL265030  22.027  36.076   6.155
10683POPC   C1A65031  22.178  36.161   6.455
10683POPC   D2A65032  22.205  36.162   6.755
10683POPC   C3A65033  22.131  36.146   7.055
10683POPC   C4A65034  22.140  36.159   7.355
10683POPC   C1B65035  21.902  36.075   6.455
10683POPC   C2B65036  21.909  36.078   6.755
10683POPC   C3B65037  21.959  36.094   7.055
10683POPC   C4B65038  21.877  36.082   7.355
10684POPC   NC365039  28.358  37.694   5.555
10684POPC   PO465040  28.319  37.688   5.855
10684POPC   GL165041  28.326  37.695   6.155
10684POPC   GL265042  28.419  37.562   6.155
10684POPC   C1A65043  28.352  37.684   6.455
10684POPC   D2A65044  28.356  37.662   6.755
10684POPC   C3A65045  28.380  37.704   7.055
10684POPC   C4A65046  28.417  37.712   7.355
10684POPC   C1B65047  28.365  37.395   6.455
10684POPC   C2B65048  28.365  37.450   6.755
10684POPC   C3B65049  28.424  37.459   7.055
10684POPC   C4B65050  28.326  37.399   7.355
10685POPC   NC365051  21.345  16.755   5.555
10685POPC   PO465052  21.374  16.769   5.855
10685POPC   GL165053  21.396  16.764   6.155
10685POPC   GL265054  21.430  16.871   6.155
10685POPC   C1A65055  21.410  16.687   6.455
10685POPC   D2A65056  21.340  16.740   6.755
10685POPC   C3A65057  21.364  16.688   7.055
10685POPC   C4A65058  21.384  16.733   7.355
10685POPC   C1B65059  21.388  16.937   6.455
10685POPC   C2B65060  21.420  16.982   6.755
10685POPC   C3B65061  21.427  16.986   7.055
10685POPC   C4B65062  21.450  16.976   7.355
10686POPC   NC365063  26.086  24.505   5.555
10686POPC   PO465064  26.077  24.477   5.855
10686POPC   GL165065  26.008  24.538   6.155
10686POPC   GL265066  25.950  24.394   6.155
10686POPC   C1A65067  26.041  24.539   6.455
10686POPC   D2A65068  26.000  24.456   6.755
10686POPC   C3A65069  26.065  24.475   7.055
10686POPC   C4A65070  26.041  24.455   7.355
10686POPC   C1B65071  25.921  24.341   6.455
10686POPC   C2B65072  25.882  24.289   6.755
10686POPC   C3B65073  25.879  24.313   7.055
10686POPC   C4B65074  25.908  24.292   7.355
10687POPC   NC365075   6.685  21.395   5.555
10687POPC   PO465076   6.693  21.392   5.855
10687POPC   GL165077   6.664  21.420   6.155
10687POPC   GL265078   6.790  21.466   6.155
10687POPC   C1A65079   6.686  21.362   6.455
10687POPC   D2A65080   6.673  21.353   6.755
10687POPC   C3A65081   6.599  21.374   7.055
10687POPC   C4A65082   6.664  21.395   7.355
10687POPC   C1B65083   6.847  21.524   6.455
10687POPC   C2B65084   6.823  21.471   6.755
10687POPC   C3B65085   6.910  21.443   7.055
10687POPC   C4B65086   6.857  21.541   7.355
10688POPC   NC365087  13.654  26.042   5.555
10688POPC   PO465088  13.673  26.038   5.855
10688POPC   GL165089  13.658  26.003   6.155
10688POPC   GL265090  13.652  25.900   6.155
10688POPC   C1A65091  13.670  26.081   6.455
10688POPC   D2A65092  13.618  26.011   6.755
10688POPC   C3A65093  13.621  26.087   7.055
10688POPC   C4A65094  13.672  26.039   7.355
10688POPC   C1B65095  13.735  25.768   6.455
10688POPC   C2B65096  13.745  25.782   6.755
10688POPC   C3B65097  13.712  25.812   7.055
10688POPC   C4B65098  13.753  25.787   7.355
10689POPC   NC365099  11.317  37.697   5.555
10689POPC   PO465100  11.279  37.728   5.855
10689POPC   GL165101  11.300  37.709   6.155
10689POPC   GL265102  11.140  37.656   6.155
10689POPC   C1A65103  11.262  37.678   6.455
10689POPC   D2A65104  11.261  37.721   6.755
10689POPC   C3A65105  11.341  37.729   7.055
10689POPC   C4A65106  11.273  37.673   7.355
10689POPC   C1B65107  11.101  37.640   6.455
10689POPC   C2B65108  11.092  37.604   6.755
10689POPC   C3B65109  11.064  37.556   7.055
10689POPC   C4B65110  11.025  37.617   7.355
10690POPC   NC365111   7.392  39.209   5.555
10690POPC   PO465112   7.429  39.255   5.855
10690POPC   GL165113   7.390  39.250   6.155
10690POPC   GL265114   7.296  39.189   6.155
10690POPC   C1A65115   7.449  39.257   6.455
10690POPC   D2A65116   7.444  39.183   6.755
10690POPC   C3A65117   7.400  39.197   7.055
10690POPC   C4A65118   7.461  39.228   7.355
10690POPC   C1B65119   7.223  39.010   6.455
10690POPC   C2B65120   7.223  39.059   6.755
10690POPC   C3B65121   7.283  39.051   7.055
10690POPC   C4B65122   7.295  39.077   7.355
10691POPC   NC365123  26.049  33.807   5.555
10691POPC   PO465124  26.079  33.829   5.855
10691POPC   GL165125  26.069  33.830   6.155
10691POPC   GL265126  25.984  33.668   6.155
10691POPC   C1A65127  26.059  33.800   6.455
10691POPC   D2A65128  26.017  33.803   6.755
10691POPC   C3A65129  26.029  33.822   7.055
10691POPC   C4A65130  26.004  33.794   7.355
10691POPC   C1B65131  25.900  33.585   6.455
10691POPC   C2B65132  25.877  33.602   6.755
10691POPC   C3B65133  25.862  33.558   7.055
10691POPC   C4B65134  25.898  33.634   7.355
10692POPC   NC365135  24.456  39.184   5.555
10692POPC   PO465136  24.490  39.281   5.855
10692POPC   GL165137  24.511  39.188   6.155
10692POPC   GL265138  24.449  39.143   6.155
10692POPC   C1A65139  24.519  39.191   6.455
10692POPC   D2A65140  24.496  39.261   6.755
10692POPC   C3A65141  24.449  39.204   7.055
10692POPC   C4A65142  24.538  39.190   7.355
10692POPC   C1B65143  24.447  39.020   6.455
10692POPC   C2B65144  24.425  38.995   6.755
10692POPC   C3B65145  24.402  39.043   7.055
10692POPC   C4B65146  24.448  38.965   7.355
10693POPC   NC365147   9.701   4.299   5.555
10693POPC   PO465148   9.707   4.346   5.855
10693POPC   GL165149   9.781   4.329   6.155
10693POPC   GL265150   9.643   4.389   6.155
10693POPC   C1A65151   9.741   4.332   6.455
10693POPC   D2A65152   9.742   4.359   6.755
10693POPC   C3A65153   9.776   4.315   7.055
10693POPC   C4A65154   9.766   4.268   7.355
10693POPC   C1B65155   9.490   4.361   6.455
10693POPC   C2B65156   9.516   4.414   6.755
10693POPC   C3B65157   9.514   4.359   7.055
10693POPC   C4B65158   9.479   4.410   7.355
10694POPC   NC365159  29.941   9.014   5.555
10694POPC   PO465160  29.956   9.006   5.855
10694POPC   GL165161  29.959   8.958   6.155
10694POPC   GL265162  29.813   8.901   6.155
10694POPC   C1A65163  29.880   8.925   6.455
10694POPC   D2A65164  29.891   8.944   6.755
10694POPC   C3A65165  29.917   8.957   7.055
10694POPC   C4A65166  29.887   9.012   7.355
10694POPC   C1B65167  29.740   8.858   6.455
10694POPC   C2B65168  29.689   8.830   6.755
10694POPC   C3B65169  29.688   8.891   7.055
10694POPC   C4B65170  29.690   8.825   7.355
10695POPC   NC365171   6.665   1.172   5.555
10695POPC   PO465172   6.659   1.253   5.855
10695POPC   GL165173   6.682   1.214   6.155
10695POPC   GL265174   6.514   1.209   6.155
10695POPC   C1A65175   6.613   1.240   6.455
10695POPC   D2A65176   6.626   1.182   6.755
10695POPC   C3A65177   6.666   1.199   7.055
10695POPC   C4A65178   6.689   1.214   7.355
10695POPC   C1B65179   6.443   1.192   6.455
10695POPC   C2B65180   6.365   1.108   6.755
10695POPC   C3B65181   6.359   1.135   7.055
10695POPC   C4B65182   6.432   1.152   7.355
10696POPC   NC365183   2.023  15.174   5.555
10696POPC   PO465184   2.008  15.140   5.855
10696POPC   GL165185   1.982  15.187   6.155
10696POPC   GL265186   1.853  15.123   6.155
10696POPC   C1A65187   2.027  15.208   6.455
10696POPC   D2A65188   2.029  15.135   6.755
10696POPC   C3A65189   1.967  15.187   7.055
10696POPC   C4A65190   1.974  15.163   7.355
10696POPC   C1B65191   1.734  15.107   6.455
10696POPC   C2B65192   1.702  15.184   6.755
10696POPC   C3B65193   1.779  15.138   7.055
10696POPC   C4B65194   1.702  15.189   7.355
10697POPC   NC365195   5.901  24.472   5.555
10697POPC   PO465196   5.882  24.535   5.855
10697POPC   GL165197   5.819  24.475   6.155
10697POPC   GL265198   5.735  24.495   6.155
10697POPC   C1A65199   5.825  24.454   6.455
10697POPC   D2A65200   5.913  24.535   6.755
10697POPC   C3A65201   5.854  24.529   7.055
10697POPC   C4A65202   5.841  24.502   7.355
10697POPC   C1B65203   5.668  24.525   6.455
10697POPC   C2B65204   5.610  24.613   6.755
10697POPC   C3B65205   5.642  24.548   7.055
10697POPC   C4B65206   5.602  24.588   7.355
10698POPC   NC365207  19.038   9.013   5.555
10698POPC   PO465208  19.098   8.944   5.855
10698POPC   GL165209  19.107   8.974   6.155
10698POPC   GL265210  19.171   8.991   6.155
10698POPC   C1A65211  19.081   8.937   6.455
10698POPC   D2A65212  19.104   9.009   6.755
10698POPC   C3A65213  19.057   8.956   7.055
10698POPC   C4A65214  19.105   9.000   7.355
10698POPC   C1B65215  19.329   9.106   6.455
10698POPC   C2B65216  19.252   9.050   6.755
10698POPC   C3B65217  19.241   9.081   7.055
10698POPC   C4B65218  19.292   9.071   7.355
10699POPC   NC365219  15.187   4.322   5.555
10699POPC   PO465220  15.157   4.347   5.855
10699POPC   GL165221  15.151   4.355   6.155
10699POPC   GL265222  15.083   4.311   6.155
10699POPC   C1A65223  15.194   4.309   6.455
10699POPC   D2A65224  15.204   4.285   6.755
10699POPC   C3A65225  15.220   4.352   7.055
10699POPC   C4A65226  15.203   4.310   7.355
10699POPC   C1B65227  14.903   4.257   6.455
10699POPC   C2B65228  14.955   4.210   6.755
10699POPC   C3B65229  14.970   4.225   7.055
10699POPC   C4B65230  14.917   4.172   7.355
10700POPC   NC365231  42.366  22.194   5.555
10700POPC   PO465232  42.354  22.140   5.855
10700POPC   GL165233  42.310  22.119   6.155
10700POPC   GL265234  42.390  22.028   6.155
10700POPC   C1A65235  42.291  22.142   6.455
10700POPC   D2A65236  42.364  22.166   6.755
10700POPC   C3A65237  42.328  22.182   7.055
10700POPC   C4A65238  42.312  22.136   7.355
10700POPC   C1B65239  42.469  21.909   6.455
10700POPC   C2B65240  42.408  21.927   6.755
10700POPC   C3B65241  42.444  21.883   7.055
10700POPC   C4B65242  42.433  21.887   7.355
10701POPC   NC365243  43.876  34.534   5.555
10701POPC   PO465244  43.866  34.548   5.855
10701POPC   GL165245  43.909  34.600   6.155
10701POPC   GL265246  43.790  34.549   6.155
10701POPC   C1A65247  43.869  34.626   6.455
10701POPC   D2A65248  43.933  34.571   6.755
10701POPC   C3A65249  43.848  34.548   7.055
10701POPC   C4A65250  43.855  34.547   7.355
10701POPC   C1B65251  43.665  34.471   6.455
10701POPC   C2B65252  43.643  34.397   6.755
10701POPC   C3B65253  43.654  34.432   7.055
10701POPC   C4B65254  43.676  34.433   7.355
10702POPC   NC365255   0.438  39.277   5.555
10702POPC   PO465256   0.432  39.209   5.855
10702POPC   GL165257   0.407  39.190   6.155
10702POPC   GL265258   0.319  39.275   6.155
10702POPC   C1A65259   0.388  39.197   6.455
10702POPC   D2A65260   0.467  39.272   6.755
10702POPC   C3A65261   0.395  39.227   7.055
10702POPC   C4A65262   0.418  39.191   7.355
10702POPC   C1B65263   0.244  39.334   6.455
10702POPC   C2B65264   0.208  39.341   6.755
10702POPC   C3B65265   0.186  39.378   7.055
10702POPC   C4B65266   0.232  39.298   7.355
10703POPC   NC365267   3.538  38.440   5.555
10703POPC   PO465268   3.559  38.482   5.855
10703POPC   GL165269   3.545  38.475   6.155
10703POPC   GL265270   3.449  38.296   6.155
10703POPC   C1A65271   3.513  38.420   6.455
10703POPC   D2A65272   3.575  38.496   6.755
10703POPC   C3A65273   3.545  38.455   7.055
10703POPC   C4A65274   3.562  38.423   7.355
10703POPC   C1B65275   3.434  38.246   6.455
10703POPC   C2B65276   3.405  38.202   6.755
10703POPC   C3B65277   3.419  38.183   7.055
10703POPC   C4B65278   3.383  38.245   7.355
10704POPC   NC365279  27.544  43.142   5.555
10704POPC   PO465280  27.616  43.120   5.855
10704POPC   GL165281  27.639  43.133   6.155
10704POPC   GL265282  27.464  43.106   6.155
10704POPC   C1A65283  27.625  43.136   6.455
10704POPC   D2A65284  27.600  43.062   6.755
10704POPC   C3A65285  27.563  43.099   7.055
10704POPC   C4A65286  27.571  43.134   7.355
10704POPC   C1B65287  27.380  43.127   6.455
10704POPC   C2B65288  27.331  43.171   6.755
10704POPC   C3B65289  27.315  43.192   7.055
10704POPC   C4B65290  27.307  43.170   7.355
10705POPC   NC365291  10.495   0.487   5.555
10705POPC   PO465292  10.521   0.465   5.855
10705POPC   GL165293  10.513   0.480   6.155
10705POPC   GL265294  10.487   0.551   6.155
10705POPC   C1A65295  10.479   0.398   6.455
10705POPC   D2A65296  10.509   0.452   6.755
10705POPC   C3A65297  10.573   0.451   7.055
10705POPC   C4A65298  10.545   0.389   7.355
10705POPC   C1B65299  10.492   0.671   6.455
10705POPC   C2B65300  10.538   0.682   6.755
10705POPC   C3B65301  10.509   0.667   7.055
10705POPC   C4B65302  10.507   0.673   7.355
10706POPC   NC365303  24.491  13.610   5.555
10706POPC   PO465304  24.503  13.623   5.855
10706POPC   GL165305  24.533  13.623   6.155
10706POPC   GL265306  24.394  13.673   6.155
10706POPC   C1A65307  24.457  13.663   6.455
10706POPC   D2A65308  24.472  13.665   6.755
10706POPC   C3A65309  24.529  13.602   7.055
10706POPC   C4A65310  24.538  13.628   7.355
10706POPC   C1B65311  24.272  13.670   6.455
10706POPC   C2B65312  24.202  13.594   6.755
10706POPC   C3B65313  24.233  13.584   7.055
10706POPC   C4B65314  24.242  13.580   7.355
10707POPC   NC365315  44.676  38.410   5.555
10707POPC   PO465316  44.688  38.449   5.855
10707POPC   GL165317  44.707  38.419   6.155
10707POPC   GL265318  44.762  38.359   6.155
10707POPC   C1A65319  44.628  38.463   6.455
10707POPC   D2A65320  44.696  38.464   6.755
10707POPC   C3A65321  44.655  38.407   7.055
10707POPC   C4A65322  44.639  38.489   7.355
10707POPC   C1B65323  44.854  38.332   6.455
10707POPC   C2B65324  44.921  38.298   6.755
10707POPC   C3B65325  44.878  38.334   7.055
10707POPC   C4B65326  44.922  38.283   7.355
10708POPC   NC365327  19.071   7.459   5.555
10708POPC   PO465328  19.060   7.383   5.855
10708POPC   GL165329  19.033   7.456   6.155
10708POPC   GL265330  18.997   7.521   6.155
10708POPC   C1A65331  19.106   7.413   6.455
10708POPC   D2A65332  19.068   7.442   6.755
10708POPC   C3A65333  19.069   7.430   7.055
10708POPC   C4A65334  19.033   7.377   7.355
10708POPC   C1B65335  18.960   7.613   6.455
10708POPC   C2B65336  18.889   7.585   6.755
10708POPC   C3B65337  18.945   7.628   7.055
10708POPC   C4B65338  18.965   7.664   7.355
10709POPC   NC365339   4.272  10.533   5.555
10709POPC   PO465340   4.356  10.501   5.855
10709POPC   GL165341   4.290  10.485   6.155
10709POPC   GL265342   4.403  10.627   6.155
10709POPC   C1A65343   4.346  10.498   6.455
10709POPC   D2A65344   4.288  10.533   6.755
10709POPC   C3A65345   4.349  10.490   7.055
10709POPC   C4A65346   4.348  10.497   7.355
10709POPC   C1B65347   4.569  10.653   6.455
10709POPC   C2B65348   4.528  10.630   6.755
10709POPC   C3B65349   4.570  10.623   7.055
10709POPC   C4B65350   4.522  10.664   7.355
10710POPC   NC365351  43.088  27.550   5.555
10710POPC   PO465352  43.106  27.590   5.855
10710POPC   GL165353  43.110  27.636   6.155
10710POPC   GL265354  43.033  27.735   6.155
10710POPC   C1A65355  43.128  27.611   6.455
10710POPC   D2A65356  43.139  27.622   6.755
10710POPC   C3A65357  43.128  27.564   7.055
10710POPC   C4A65358  43.077  27.584   7.355
10710POPC   C1B65359  42.997  27.776   6.455
10710POPC   C2B65360  42.973  27.795   6.755
10710POPC   C3B65361  42.966  27.820   7.055
10710POPC   C4B65362  43.007  27.824   7.355
10711POPC   NC365363  14.406  16.684   5.555
10711POPC   PO465364  14.427  16.683   5.855
10711POPC   GL165365  14.370  16.780   6.155
10711POPC   GL265366  14.339  16.651   6.155
10711POPC   C1A65367  14.354  16.764   6.455
10711POPC   D2A65368  14.412  16.760   6.755
10711POPC   C3A65369  14.445  16.739   7.055
10711POPC   C4A65370  14.428  16.717   7.355
10711POPC   C1B65371  14.372  16.495   6.455
10711POPC   C2B65372  14.374  16.496   6.755
10711POPC   C3B65373  14.290  16.480   7.055
10711POPC   C4B65374  14.338  16.538   7.355
10712POPC   NC365375  40.794  15.953   5.555
10712POPC   PO465376  40.751  15.961   5.855
10712POPC   GL165377  40.757  15.928   6.155
10712POPC   GL265378  40.887  15.961   6.155
10712POPC   C1A65379  40.756  15.984   6.455
10712POPC   D2A65380  40.790  15.922   6.755
10712POPC   C3A65381  40.777  15.963   7.055
10712POPC   C4A65382  40.751  16.002   7.355
10712POPC   C1B65383  40.967  16.011   6.455
10712POPC   C2B65384  40.991  16.069   6.755
10712POPC   C3B65385  41.035  16.019   7.055
10712POPC   C4B65386  41.062  16.025   7.355
10713POPC   NC365387  17.502   2.752   5.555
10713POPC   PO465388  17.526   2.795   5.855
10713POPC   GL165389  17.543   2.727   6.155
10713POPC   GL265390  17.584   2.657   6.155
10713POPC   C1A65391  17.475   2.805   6.455
10713POPC   D2A65392  17.498   2.783   6.755
10713POPC   C3A65393  17.468   2.749   7.055
10713POPC   C4A65394  17.491   2.805   7.355
10713POPC   C1B65395  17.615   2.598   6.455
10713POPC   C2B65396  17.650   2.548   6.755
10713POPC   C3B65397  17.669   2.533   7.055
10713POPC   C4B65398  17.640   2.587   7.355
10714POPC   NC365399  19.879  17.516   5.555
10714POPC   PO465400  19.818  17.479   5.855
10714POPC   GL165401  19.788  17.500   6.155
10714POPC   GL265402  19.936  17.585   6.155
10714POPC   C1A65403  19.852  17.532   6.455
10714POPC   D2A65404  19.818  17.521   6.755
10714POPC   C3A65405  19.845  17.530   7.055
10714POPC   C4A65406  19.824  17.458   7.355
10714POPC   C1B65407  20.082  17.635   6.455
10714POPC   C2B65408  20.047  17.580   6.755
10714POPC   C3B65409  20.093  17.599   7.055
10714POPC   C4B65410  20.038  17.621   7.355
10715POPC   NC365411  12.083  38.498   5.555
10715POPC   PO465412  12.063  38.430   5.855
10715POPC   GL165413  12.040  38.478   6.155
10715POPC   GL265414  11.954  38.364   6.155
10715POPC   C1A65415  12.101  38.409   6.455
10715POPC   D2A65416  12.124  38.479   6.755
10715POPC   C3A65417  12.108  38.439   7.055
10715POPC   C4A65418  12.063  38.461   7.355
10715POPC   C1B65419  11.953  38.255   6.455
10715POPC   C2B65420  11.865  38.258   6.755
10715POPC   C3B65421  11.910  38.306   7.055
10715POPC   C4B65422  11.868  38.240   7.355
10716POPC   NC365423  23.721  16.745   5.555
10716POPC   PO465424  23.727  16.776   5.855
10716POPC   GL165425  23.699  16.731   6.155
10716POPC   GL265426  23.704  16.830   6.155
10716POPC   C1A65427  23.694  16.703   6.455
10716POPC   D2A65428  23.736  16.761   6.755
10716POPC   C3A65429  23.727  16.702   7.055
10716POPC   C4A65430  23.671  16.761   7.355
10716POPC   C1B65431  23.591  16.943   6.455
10716POPC   C2B65432  23.647  17.000   6.755
10716POPC   C3B65433  23.637  17.003   7.055
10716POPC   C4B65434  23.616  16.941   7.355
10717POPC   NC365435  28.361  43.931   5.555
10717POPC   PO465436  28.330  43.858   5.855
10717POPC   GL165437  28.384  43.850   6.155
10717POPC   GL265438  28.234  43.997   6.155
10717POPC   C1A65439  28.340  43.910   6.455
10717POPC   D2A65440  28.355  43.899   6.755
10717POPC   C3A65441  28.362  43.839   7.055
10717POPC   C4A65442  28.357  43.869   7.355
10717POPC   C1B65443  28.161  44.039   6.455
10717POPC   C2B65444  28.178  44.006   6.755
10717POPC   C3B65445  28.206  43.995   7.055
10717POPC   C4B65446  28.109  43.991   7.355
10718POPC   NC365447  38.420  36.101   5.555
10718POPC   PO465448  38.477  36.145   5.855
10718POPC   GL165449  38.486  36.156   6.155
10718POPC   GL265450  38.442  36.038   6.155
10718POPC   C1A65451  38.420  36.099   6.455
10718POPC   D2A65452  38.419  36.093   6.755
10718POPC   C3A65453  38.479  36.114   7.055
10718POPC   C4A65454  38.432  36.110   7.355
10718POPC   C1B65455  38.489  35.842   6.455
10718POPC   C2B65456  38.531  35.889   6.755
10718POPC   C3B65457  38.499  35.875   7.055
10718POPC   C4B65458  38.560  35.905   7.355
10719POPC   NC365459  26.015  42.345   5.555
10719POPC   PO465460  26.009  42.289   5.855
10719POPC   GL165461  26.056  42.381   6.155
10719POPC   GL265462  26.132  42.442   6.155
10719POPC   C1A65463  25.992  42.318   6.455
10719POPC   D2A65464  26.060  42.315   6.755
10719POPC   C3A65465  26.029  42.370   7.055
10719POPC   C4A65466  26.058  42.325   7.355
10719POPC   C1B65467  26.240  42.480   6.455
10719POPC   C2B65468  26.226  42.469   6.755
10719POPC   C3B65469  26.221  42.501   7.055
10719POPC   C4B65470  26.215  42.479   7.355
10720POPC   NC365471   4.303  18.276   5.555
10720POPC   PO465472   4.346  18.282   5.855
10720POPC   GL165473   4.345  18.296   6.155
10720POPC   GL265474   4.266  18.329   6.155
10720POPC   C1A65475   4.291  18.249   6.455
10720POPC   D2A65476   4.280  18.261   6.755
10720POPC   C3A65477   4.275  18.266   7.055
10720POPC   C4A65478   4.285  18.314   7.355
10720POPC   C1B65479   4.106  18.461   6.455
10720POPC   C2B65480   4.188  18.473   6.755
10720POPC   C3B65481   4.115  18.477   7.055
10720POPC   C4B65482   4.135  18.471   7.355
10721POPC   NC365483   5.084  21.427   5.555
10721POPC   PO465484   5.073  21.435   5.855
10721POPC   GL165485   5.115  21.339   6.155
10721POPC   GL265486   5.046  21.473   6.155
10721POPC   C1A65487   5.084  21.406   6.455
10721POPC   D2A65488   5.051  21.406   6.755
10721POPC   C3A65489   5.061  21.414   7.055
10721POPC   C4A65490   5.044  21.353   7.355
10721POPC   C1B65491   5.000  21.660   6.455
10721POPC   C2B65492   5.029  21.660   6.755
10721POPC   C3B65493   5.010  21.609   7.055
10721POPC   C4B65494   5.044  21.642   7.355
10722POPC   NC365495  20.656   5.044   5.555
10722POPC   PO465496  20.599   5.058   5.855
10722POPC   GL165497  20.645   5.048   6.155
10722POPC   GL265498  20.445   5.044   6.155
10722POPC   C1A65499  20.622   5.065   6.455
10722POPC   D2A65500  20.647   5.066   6.755
10722POPC   C3A65501  20.593   5.087   7.055
10722POPC   C4A65502  20.615   5.120   7.355
10722POPC   C1B65503  20.360   5.034   6.455
10722POPC   C2B65504  20.335   5.066   6.755
10722POPC   C3B65505  20.388   5.015   7.055
10722POPC   C4B65506  20.401   4.990   7.355
10723POPC   NC365507   1.977   1.950   5.555
10723POPC   PO465508   1.988   1.963   5.855
10723POPC   GL165509   1.956   2.013   6.155
10723POPC   GL265510   1.864   1.951   6.155
10723POPC   C1A65511   2.037   1.949   6.455
10723POPC   D2A65512   2.004   1.961   6.755
10723POPC   C3A65513   1.940   2.032   7.055
10723POPC   C4A65514   1.995   1.960   7.355
10723POPC   C1B65515   1.751   1.961   6.455
10723POPC   C2B65516   1.721   1.875   6.755
10723POPC   C3B65517   1.744   1.918   7.055
10723POPC   C4B65518   1.732   1.899   7.355
10724POPC   NC365519  27.610  33.775   5.555
10724POPC   PO465520  27.617  33.804   5.855
10724POPC   GL165521  27.589  33.805   6.155
10724POPC   GL265522  27.524  33.912   6.155
10724POPC   C1A65523  27.578  33.825   6.455
10724POPC   D2A65524  27.553  33.821   6.755
10724POPC   C3A65525  27.600  33.828   7.055
10724POPC   C4A65526  27.629  33.768   7.355
10724POPC   C1B65527  27.533  33.994   6.455
10724POPC   C2B65528  27.514  34.029   6.755
10724POPC   C3B65529  27.525  34.015   7.055
10724POPC   C4B65530  27.579  34.063   7.355
10725POPC   NC365531   5.846  15.927   5.555
10725POPC   PO465532   5.895  15.922   5.855
10725POPC   GL165533   5.859  15.964   6.155
10725POPC   GL265534   5.802  15.815   6.155
10725POPC   C1A65535   5.907  15.931   6.455
10725POPC   D2A65536   5.902  15.969   6.755
10725POPC   C3A65537   5.857  15.916   7.055
10725POPC   C4A65538   5.883  15.977   7.355
10725POPC   C1B65539   5.794  15.696   6.455
10725POPC   C2B65540   5.820  15.767   6.755
10725POPC   C3B65541   5.742  15.674   7.055
10725POPC   C4B65542   5.800  15.696   7.355
10726POPC   NC365543  40.019  36.168   5.555
10726POPC   PO465544  39.974  36.173   5.855
10726POPC   GL165545  40.050  36.078   6.155
10726POPC   GL265546  40.094  36.188   6.155
10726POPC   C1A65547  39.969  36.092   6.455
10726POPC   D2A65548  39.975  36.106   6.755
10726POPC   C3A65549  40.034  36.104   7.055
10726POPC   C4A65550  40.024  36.135   7.355
10726POPC   C1B65551  40.214  36.313   6.455
10726POPC   C2B65552  40.149  36.251   6.755
10726POPC   C3B65553  40.240  36.335   7.055
10726POPC   C4B65554  40.185  36.260   7.355
10727POPC   NC365555  39.229  43.114   5.555
10727POPC   PO465556  39.264  43.061   5.855
10727POPC   GL165557  39.230  43.094   6.155
10727POPC   GL265558  39.248  43.268   6.155
10727POPC   C1A65559  39.221  43.075   6.455
10727POPC   D2A65560  39.272  43.071   6.755
10727POPC   C3A65561  39.240  43.133   7.055
10727POPC   C4A65562  39.211  43.111   7.355
10727POPC   C1B65563  39.280  43.386   6.455
10727POPC   C2B65564  39.258  43.353   6.755
10727POPC   C3B65565  39.311  43.403   7.055
10727POPC   C4B65566  39.297  43.310   7.355
10728POPC   NC365567  35.380  19.048   5.555
10728POPC   PO465568  35.374  19.081   5.855
10728POPC   GL165569  35.307  19.079   6.155
10728POPC   GL265570  35.526  19.104   6.155
10728POPC   C1A65571  35.345  19.103   6.455
10728POPC   D2A65572  35.354  19.048   6.755
10728POPC   C3A65573  35.376  19.098   7.055
10728POPC   C4A65574  35.368  19.075   7.355
10728POPC   C1B65575  35.585  19.111   6.455
10728POPC   C2B65576  35.582  19.121   6.755
10728POPC   C3B65577  35.627  19.037   7.055
10728POPC   C4B65578  35.645  19.067   7.355
10729POPC   NC365579  28.358  33.007   5.555
10729POPC   PO465580  28.381  33.036   5.855
10729POPC   GL165581  28.374  33.057   6.155
10729POPC   GL265582  28.423  33.102   6.155
10729POPC   C1A65583  28.404  33.059   6.455
10729POPC   D2A65584  28.408  32.986   6.755
10729POPC   C3A65585  28.360  33.024   7.055
10729POPC   C4A65586  28.347  33.053   7.355
10729POPC   C1B65587  28.382  33.275   6.455
10729POPC   C2B65588  28.406  33.280   6.755
10729POPC   C3B65589  28.441  33.253   7.055
10729POPC   C4B65590  28.391  33.265   7.355
10730POPC   NC365591  16.699   5.116   5.555
10730POPC   PO465592  16.725   5.109   5.855
10730POPC   GL165593  16.720   5.138   6.155
10730POPC   GL265594  16.664   5.145   6.155
10730POPC   C1A65595  16.739   5.054   6.455
10730POPC   D2A65596  16.683   5.086   6.755
10730POPC   C3A65597  16.687   5.088   7.055
10730POPC   C4A65598  16.682   5.126   7.355
10730POPC   C1B65599  16.546   5.235   6.455
10730POPC   C2B65600  16.476   5.245   6.755
10730POPC   C3B65601  16.465   5.265   7.055
10730POPC   C4B65602  16.487   5.221   7.355
10731POPC   NC365603  33.754   1.203   5.555
10731POPC   PO465604  33.824   1.189   5.855
10731POPC   GL165605  33.769   1.264   6.155
10731POPC   GL265606  33.656   1.153   6.155
10731POPC   C1A65607  33.792   1.170   6.455
10731POPC   D2A65608  33.847   1.205   6.755
10731POPC   C3A65609  33.808   1.178   7.055
10731POPC   C4A65610  33.822   1.227   7.355
10731POPC   C1B65611  33.598   1.171   6.455
10731POPC   C2B65612  33.593   1.175   6.755
10731POPC   C3B65613  33.530   1.122   7.055
10731POPC   C4B65614  33.517   1.193   7.355
10732POPC   NC365615   1.263  39.999   5.555
10732POPC   PO465616   1.234  39.981   5.855
10732POPC   GL165617   1.245  39.975   6.155
10732POPC   GL265618   1.091  40.150   6.155
10732POPC   C1A65619   1.231  40.013   6.455
10732POPC   D2A65620   1.262  39.976   6.755
10732POPC   C3A65621   1.203  40.036   7.055
10732POPC   C4A65622   1.241  39.958   7.355
10732POPC   C1B65623   1.041  40.177   6.455
10732POPC   C2B65624   1.081  40.230   6.755
10732POPC   C3B65625   1.057  40.221   7.055
10732POPC   C4B65626   1.028  40.159   7.355
10733POPC   NC365627  12.074  12.880   5.555
10733POPC   PO465628  12.070  12.893   5.855
10733POPC   GL165629  12.051  12.843   6.155
10733POPC   GL265630  12.171  12.763   6.155
10733POPC   C1A65631  12.086  12.809   6.455
10733POPC   D2A65632  12.089  12.879   6.755
10733POPC   C3A65633  12.120  12.849   7.055
10733POPC   C4A65634  12.069  12.858   7.355
10733POPC   C1B65635  12.263  12.711   6.455
10733POPC   C2B65636  12.285  12.709   6.755
10733POPC   C3B65637  12.283  12.770   7.055
10733POPC   C4B65638  12.286  12.736   7.355
10734POPC   NC365639  28.397  18.314   5.555
10734POPC   PO465640  28.366  18.256   5.855
10734POPC   GL165641  28.382  18.299   6.155
10734POPC   GL265642  28.425  18.225   6.155
10734POPC   C1A65643  28.412  18.309   6.455
10734POPC   D2A65644  28.410  18.298   6.755
10734POPC   C3A65645  28.405  18.285   7.055
10734POPC   C4A65646  28.338  18.288   7.355
10734POPC   C1B65647  28.544  18.127   6.455
10734POPC   C2B65648  28.472  18.125   6.755
10734POPC   C3B65649  28.483  18.099   7.055
10734POPC   C4B65650  28.484  18.100   7.355
10735POPC   NC365651  17.462   8.194   5.555
10735POPC   PO465652  17.479   8.178   5.855
10735POPC   GL165653  17.530   8.195   6.155
10735POPC   GL265654  17.545   8.105   6.155
10735POPC   C1A65655  17.500   8.202   6.455
10735POPC   D2A65656  17.536   8.226   6.755
10735POPC   C3A65657  17.514   8.207   7.055
10735POPC   C4A65658  17.474   8.240   7.355
10735POPC   C1B65659  17.497   7.969   6.455
10735POPC   C2B65660  17.555   7.922   6.755
10735POPC   C3B65661  17.497   7.945   7.055
10735POPC   C4B65662  17.557   7.973   7.355
10736POPC   NC365663  14.446   1.228   5.555
10736POPC   PO465664  14.436   1.243   5.855
10736POPC   GL165665  14.379   1.256   6.155
10736POPC   GL265666  14.270   1.184   6.155
10736POPC   C1A65667  14.432   1.257   6.455
10736POPC   D2A65668  14.363   1.229   6.755
10736POPC   C3A65669  14.451   1.181   7.055
10736POPC   C4A65670  14.391   1.202   7.355
10736POPC   C1B65671  14.174   1.062   6.455
10736POPC   C2B65672  14.175   1.089   6.755
10736POPC   C3B65673  14.162   1.121   7.055
10736POPC   C4B65674  14.163   1.099   7.355
10737POPC   NC365675  15.913  15.967   5.555
10737POPC   PO465676  16.000  15.924   5.855
10737POPC   GL165677  15.985  15.935   6.155
10737POPC   GL265678  15.870  15.974   6.155
10737POPC   C1A65679  15.992  15.955   6.455
10737POPC   D2A65680  16.001  16.003   6.755
10737POPC   C3A65681  15.942  15.963   7.055
10737POPC   C4A65682  15.993  15.982   7.355
10737POPC   C1B65683  15.746  16.056   6.455
10737POPC   C2B65684  15.710  16.069   6.755
10737POPC   C3B65685  15.684  16.057   7.055
10737POPC   C4B65686  15.705  16.020   7.355
10738POPC   NC365687  32.212  43.144   5.555
10738POPC   PO465688  32.259  43.068   5.855
10738POPC   GL165689  32.221  43.064   6.155
10738POPC   GL265690  32.245  43.025   6.155
10738POPC   C1A65691  32.285  43.076   6.455
10738POPC   D2A65692  32.256  43.091   6.755
10738POPC   C3A65693  32.293  43.127   7.055
10738POPC   C4A65694  32.208  43.069   7.355
10738POPC   C1B65695  32.137  42.907   6.455
10738POPC   C2B65696  32.113  42.923   6.755
10738POPC   C3B65697  32.115  42.869   7.055
10738POPC   C4B65698  32.171  42.881   7.355
10739POPC   NC365699  44.676   8.222   5.555
10739POPC   PO465700  44.680   8.233   5.855
10739POPC   GL165701  44.646   8.177   6.155
10739POPC   GL265702  44.568   8.103   6.155
10739POPC   C1A65703  44.612   8.219   6.455
10739POPC   D2A65704  44.669   8.228   6.755
10739POPC   C3A65705  44.676   8.175   7.055
10739POPC   C4A65706  44.661   8.169   7.355
10739POPC   C1B65707  44.449   8.021   6.455
10739POPC   C2B65708  44.494   8.055   6.755
10739POPC   C3B65709  44.487   8.008   7.055
10739POPC   C4B65710  44.464   8.057   7.355
10740POPC   NC365711   2.782  22.136   5.555
10740POPC   PO465712   2.741  22.161   5.855
10740POPC   GL165713   2.745  22.180   6.155
10740POPC   GL265714   2.595  22.105   6.155
10740POPC   C1A65715   2.722  22.144   6.455
10740POPC   D2A65716   2.814  22.155   6.755
10740POPC   C3A65717   2.748  22.164   7.055
10740POPC   C4A65718   2.716  22.126   7.355
10740POPC   C1B65719   2.479  22.157   6.455
10740POPC   C2B65720   2.566  22.100   6.755
10740POPC   C3B65721   2.530  22.139   7.055
10740POPC   C4B65722   2.528  22.176   7.355
10741POPC   NC365723  33.835  43.120   5.555
10741POPC   PO465724  33.818  43.065   5.855
10741POPC   GL165725  33.817  43.067   6.155
10741POPC   GL265726  33.830  43.234   6.155
10741POPC   C1A65727  33.797  43.112   6.455
10741POPC   D2A65728  33.841  43.113   6.755
10741POPC   C3A65729  33.845  43.116   7.055
10741POPC   C4A65730  33.776  43.098   7.355
10741POPC   C1B65731  34.004  43.262   6.455
10741POPC   C2B65732  33.987  43.299   6.755
10741POPC   C3B65733  33.985  43.263   7.055
10741POPC   C4B65734  33.931  43.321   7.355
10742POPC   NC365735   7.447  36.890   5.555
10742POPC   PO465736   7.419  36.858   5.855
10742POPC   GL165737   7.388  36.946   6.155
10742POPC   GL265738   7.517  36.812   6.155
10742POPC   C1A65739   7.393  36.862   6.455
10742POPC   D2A65740   7.431  36.867   6.755
10742POPC   C3A65741   7.428  36.913   7.055
10742POPC   C4A65742   7.439  36.895   7.355
10742POPC   C1B65743   7.623  36.798   6.455
10742POPC   C2B65744   7.599  36.800   6.755
10742POPC   C3B65745   7.676  36.814   7.055
10742POPC   C4B65746   7.675  36.788   7.355
10743POPC   NC365747  14.450  14.415   5.555
10743POPC   PO465748  14.387  14.386   5.855
10743POPC   GL165749  14.356  14.383   6.155
10743POPC   GL265750  14.276  14.409   6.155
10743POPC   C1A65751  14.389  14.385   6.455
10743POPC   D2A65752  14.362  14.388   6.755
10743POPC   C3A65753  14.404  14.386   7.055
10743POPC   C4A65754  14.438  14.378   7.355
10743POPC   C1B65755  14.189  14.302   6.455
10743POPC   C2B65756  14.182  14.318   6.755
10743POPC   C3B65757  14.120  14.291   7.055
10743POPC   C4B65758  14.172  14.374   7.355
10744POPC   NC365759   9.751  10.542   5.555
10744POPC   PO465760   9.796  10.529   5.855
10744POPC   GL165761   9.767  10.558   6.155
10744POPC   GL265762   9.842  10.634   6.155
10744POPC   C1A65763   9.757  10.493   6.455
10744POPC   D2A65764   9.790  10.569   6.755
10744POPC   C3A65765   9.786  10.573   7.055
10744POPC   C4A65766   9.791  10.475   7.355
10744POPC   C1B65767   9.892  10.726   6.455
10744POPC   C2B65768   9.954  10.699   6.755
10744POPC   C3B65769   9.918  10.735   7.055
10744POPC   C4B65770   9.957  10.663   7.355
10745POPC   NC365771  22.177  26.831   5.555
10745POPC   PO465772  22.203  26.775   5.855
10745POPC   GL165773  22.172  26.776   6.155
10745POPC   GL265774  22.094  26.696   6.155
10745POPC   C1A65775  22.117  26.813   6.455
10745POPC   D2A65776  22.161  26.812   6.755
10745POPC   C3A65777  22.155  26.832   7.055
10745POPC   C4A65778  22.162  26.841   7.355
10745POPC   C1B65779  21.919  26.687   6.455
10745POPC   C2B65780  21.957  26.668   6.755
10745POPC   C3B65781  21.947  26.687   7.055
10745POPC   C4B65782  22.005  26.649   7.355
10746POPC   NC365783  32.981  32.239   5.555
10746POPC   PO465784  33.028  32.280   5.855
10746POPC   GL165785  33.059  32.284   6.155
10746POPC   GL265786  33.008  32.341   6.155
10746POPC   C1A65787  33.040  32.297   6.455
10746POPC   D2A65788  33.069  32.256   6.755
10746POPC   C3A65789  32.979  32.204   7.055
10746POPC   C4A65790  33.024  32.265   7.355
10746POPC   C1B65791  32.974  32.498   6.455
10746POPC   C2B65792  32.966  32.512   6.755
10746POPC   C3B65793  32.982  32.511   7.055
10746POPC   C4B65794  32.993  32.485   7.355
10747POPC   NC365795   9.019  37.708   5.555
10747POPC   PO465796   8.966  37.717   5.855
10747POPC   GL165797   8.994  37.688   6.155
10747POPC   GL265798   8.904  37.680   6.155
10747POPC   C1A65799   9.007  37.655   6.455
10747POPC   D2A65800   9.021  37.642   6.755
10747POPC   C3A65801   9.015  37.686   7.055
10747POPC   C4A65802   8.970  37.652   7.355
10747POPC   C1B65803   8.712  37.821   6.455
10747POPC   C2B65804   8.753  37.809   6.755
10747POPC   C3B65805   8.741  37.750   7.055
10747POPC   C4B65806   8.738  37.731   7.355
10748POPC   NC365807  31.475  44.620   5.555
10748POPC   PO465808  31.437  44.671   5.855
10748POPC   GL165809  31.448  44.711   6.155
10748POPC   GL265810  31.410  44.762   6.155
10748POPC   C1A65811  31.450  44.615   6.455
10748POPC   D2A65812  31.450  44.634   6.755
10748POPC   C3A65813  31.435  44.657   7.055
10748POPC   C4A65814  31.432  44.652   7.355
10748POPC   C1B65815  31.324  44.930   6.455
10748POPC   C2B65816  31.324  44.854   6.755
10748POPC   C3B65817  31.309  44.902   7.055
10748POPC   C4B65818  31.360  44.843   7.355
10749POPC   NC365819  15.978  24.478   5.555
10749POPC   PO465820  15.954  24.525   5.855
10749POPC   GL165821  15.925  24.520   6.155
10749POPC   GL265822  15.874  24.369   6.155
10749POPC   C1A65823  16.000  24.512   6.455
10749POPC   D2A65824  15.995  24.480   6.755
10749POPC   C3A65825  15.914  24.449   7.055
10749POPC   C4A65826  15.936  24.534   7.355
10749POPC   C1B65827  15.839  24.264   6.455
10749POPC   C2B65828  15.820  24.245   6.755
10749POPC   C3B65829  15.878  24.242   7.055
10749POPC   C4B65830  15.806  24.245   7.355
10750POPC   NC365831  43.860  12.066   5.555
10750POPC   PO465832  43.878  12.110   5.855
10750POPC   GL165833  43.927  12.101   6.155
10750POPC   GL265834  43.840  12.203   6.155
10750POPC   C1A65835  43.854  12.037   6.455
10750POPC   D2A65836  43.933  12.084   6.755
10750POPC   C3A65837  43.854  12.123   7.055
10750POPC   C4A65838  43.884  12.048   7.355
10750POPC   C1B65839  43.883  12.276   6.455
10750POPC   C2B65840  43.854  12.338   6.755
10750POPC   C3B65841  43.897  12.322   7.055
10750POPC   C4B65842  43.842  12.350   7.355
10751POPC   NC365843  15.906  41.570   5.555
10751POPC   PO465844  15.948  41.585   5.855
10751POPC   GL165845  15.937  41.520   6.155
10751POPC   GL265846  15.952  41.462   6.155
10751POPC   C1A65847  15.975  41.589   6.455
10751POPC   D2A65848  15.978  41.587   6.755
10751POPC   C3A65849  15.953  41.513   7.055
10751POPC   C4A65850  15.951  41.604   7.355
10751POPC   C1B65851  15.894  41.353   6.455
10751POPC   C2B65852  15.860  41.322   6.755
10751POPC   C3B65853  15.835  41.293   7.055
10751POPC   C4B65854  15.917  41.337   7.355
10752POPC   NC365855  42.380  36.883   5.555
10752POPC   PO465856  42.286  36.876   5.855
10752POPC   GL165857  42.335  36.932   6.155
10752POPC   GL265858  42.168  36.965   6.155
10752POPC   C1A65859  42.376  36.894   6.455
10752POPC   D2A65860  42.307  36.952   6.755
10752POPC   C3A65861  42.317  36.898   7.055
10752POPC   C4A65862  42.361  36.858   7.355
10752POPC   C1B65863  42.037  36.960   6.455
10752POPC   C2B65864  42.038  36.958   6.755
10752POPC   C3B65865  42.069  36.922   7.055
10752POPC   C4B65866  42.081  36.900   7.355
10753POPC   NC365867  42.286   3.499   5.555
10753POPC   PO465868  42.311   3.530   5.855
10753POPC   GL165869  42.344   3.536   6.155
10753POPC   GL265870  42.328   3.393   6.155
10753POPC   C1A65871  42.339   3.547   6.455
10753POPC   D2A65872  42.294   3.583   6.755
10753POPC   C3A65873  42.367   3.565   7.055
10753POPC   C4A65874  42.363   3.519   7.355
10753POPC   C1B65875  42.416   3.343   6.455
10753POPC   C2B65876  42.391   3.325   6.755
10753POPC   C3B65877  42.419   3.268   7.055
10753POPC   C4B65878  42.357   3.284   7.355
10754POPC   NC365879  21.392  40.747   5.555
10754POPC   PO465880  21.413  40.802   5.855
10754POPC   GL165881  21.361  40.793   6.155
10754POPC   GL265882  21.439  40.639   6.155
10754POPC   C1A65883  21.420  40.781   6.455
10754POPC   D2A65884  21.431  40.742   6.755
10754POPC   C3A65885  21.398  40.764   7.055
10754POPC   C4A65886  21.338  40.818   7.355
10754POPC   C1B65887  21.483  40.561   6.455
10754POPC   C2B65888  21.457  40.545   6.755
10754POPC   C3B65889  21.493  40.570   7.055
10754POPC   C4B65890  21.433  40.562   7.355
10755POPC   NC365891   8.934   2.768   5.555
10755POPC   PO465892   8.994   2.751   5.855
10755POPC   GL165893   9.021   2.757   6.155
10755POPC   GL265894   9.070   2.744   6.155
10755POPC   C1A65895   8.940   2.728   6.455
10755POPC   D2A65896   8.938   2.762   6.755
10755POPC   C3A65897   8.943   2.733   7.055
10755POPC   C4A65898   8.924   2.734   7.355
10755POPC   C1B65899   9.176   2.744   6.455
10755POPC   C2B65900   9.233   2.784   6.755
10755POPC   C3B65901   9.227   2.791   7.055
10755POPC   C4B65902   9.254   2.794   7.355
10756POPC   NC365903  38.420  40.036   5.555
10756POPC   PO465904  38.467  39.981   5.855
10756POPC   GL165905  38.496  40.015   6.155
10756POPC   GL265906  38.561  40.026   6.155
10756POPC   C1A65907  38.498  39.995   6.455
10756POPC   D2A65908  38.472  39.990   6.755
10756POPC   C3A65909  38.406  40.034   7.055
10756POPC   C4A65910  38.425  39.998   7.355
10756POPC   C1B65911  38.657  40.025   6.455
10756POPC   C2B65912  38.729  40.044   6.755
10756POPC   C3B65913  38.660  40.099   7.055
10756POPC   C4B65914  38.697  40.063   7.355
10757POPC   NC365915  36.107  19.841   5.555
10757POPC   PO465916  36.176  19.802   5.855
10757POPC   GL165917  36.149  19.803   6.155
10757POPC   GL265918  36.032  19.789   6.155
10757POPC   C1A65919  36.093  19.841   6.455
10757POPC   D2A65920  36.096  19.833   6.755
10757POPC   C3A65921  36.130  19.829   7.055
10757POPC   C4A65922  36.130  19.816   7.355
10757POPC   C1B65923  35.892  19.792   6.455
10757POPC   C2B65924  35.846  19.782   6.755
10757POPC   C3B65925  35.922  19.829   7.055
10757POPC   C4B65926  35.834  19.788   7.355
10758POPC   NC365927  22.980  25.290   5.555
10758POPC   PO465928  22.921  25.309   5.855
10758POPC   GL165929  22.978  25.219   6.155
10758POPC   GL265930  22.810  25.318   6.155
10758POPC   C1A65931  22.939  25.279   6.455
10758POPC   D2A65932  22.977  25.246   6.755
10758POPC   C3A65933  22.893  25.290   7.055
10758POPC   C4A65934  22.911  25.291   7.355
10758POPC   C1B65935  22.739  25.329   6.455
10758POPC   C2B65936  22.738  25.368   6.755
10758POPC   C3B65937  22.674  25.338   7.055
10758POPC   C4B65938  22.743  25.323   7.355
10759POPC   NC365939  32.999  22.983   5.555
10759POPC   PO465940  32.979  22.934   5.855
10759POPC   GL165941  32.991  22.940   6.155
10759POPC   GL265942  33.190  22.897   6.155
10759POPC   C1A65943  33.013  22.894   6.455
10759POPC   D2A65944  33.006  22.950   6.755
10759POPC   C3A65945  33.014  22.924   7.055
10759POPC   C4A65946  33.073  22.930   7.355
10759POPC   C1B65947  33.295  22.890   6.455
10759POPC   C2B65948  33.272  22.935   6.755
10759POPC   C3B65949  33.290  22.937   7.055
10759POPC   C4B65950  33.261  22.908   7.355
10760POPC   NC365951  41.578  27.618   5.555
10760POPC   PO465952  41.602  27.588   5.855
10760POPC   GL165953  41.590  27.561   6.155
10760POPC   GL265954  41.527  27.718   6.155
10760POPC   C1A65955  41.576  27.642   6.455
10760POPC   D2A65956  41.556  27.561   6.755
10760POPC   C3A65957  41.596  27.613   7.055
10760POPC   C4A65958  41.576  27.628   7.355
10760POPC   C1B65959  41.431  27.857   6.455
10760POPC   C2B65960  41.457  27.838   6.755
10760POPC   C3B65961  41.399  27.828   7.055
10760POPC   C4B65962  41.468  27.791   7.355
10761POPC   NC365963   8.997   0.455   5.555
10761POPC   PO465964   8.982   0.404   5.855
10761POPC   GL165965   8.968   0.402   6.155
10761POPC   GL265966   8.907   0.547   6.155
10761POPC   C1A65967   9.013   0.450   6.455
10761POPC   D2A65968   8.989   0.439   6.755
10761POPC   C3A65969   8.973   0.401   7.055
10761POPC   C4A65970   9.020   0.464   7.355
10761POPC   C1B65971   8.772   0.621   6.455
10761POPC   C2B65972   8.790   0.604   6.755
10761POPC   C3B65973   8.774   0.599   7.055
10761POPC   C4B65974   8.842   0.589   7.355
10762POPC   NC365975   2.001  36.091   5.555
10762POPC   PO465976   2.037  36.150   5.855
10762POPC   GL165977   2.011  36.151   6.155
10762POPC   GL265978   2.150  36.117   6.155
10762POPC   C1A65979   1.977  36.111   6.455
10762POPC   D2A65980   1.992  36.094   6.755
10762POPC   C3A65981   2.021  36.114   7.055
10762POPC   C4A65982   2.024  36.132   7.355
10762POPC   C1B65983   2.244  36.078   6.455
10762POPC   C2B65984   2.280  36.053   6.755
10762POPC   C3B65985   2.191  36.092   7.055
10762POPC   C4B65986   2.190  36.043   7.355
10763POPC   NC365987   3.505  19.854   5.555
10763POPC   PO465988   3.572  19.855   5.855
10763POPC   GL165989   3.536  19.855   6.155
10763POPC   GL265990   3.623  19.861   6.155
10763POPC   C1A65991   3.502  19.861   6.455
10763POPC   D2A65992   3.502  19.805   6.755
10763POPC   C3A65993   3.569  19.866   7.055
10763POPC   C4A65994   3.499  19.868   7.355
10763POPC   C1B65995   3.720  19.984   6.455
10763POPC   C2B65996   3.731  19.916   6.755
10763POPC   C3B65997   3.783  19.953   7.055
10763POPC   C4B65998   3.762  19.938   7.355
10764POPC   NC365999  18.261  19.015   5.555
10764POPC   PO466000  18.234  19.022   5.855
10764POPC   GL166001  18.331  19.053   6.155
10764POPC   GL266002  18.195  19.138   6.155
10764POPC   C1A66003  18.275  19.061   6.455
10764POPC   D2A66004  18.318  19.027   6.755
10764POPC   C3A66005  18.240  19.086   7.055
10764POPC   C4A66006  18.267  19.069   7.355
10764POPC   C1B66007  18.114  19.266   6.455
10764POPC   C2B66008  18.109  19.274   6.755
10764POPC   C3B66009  18.151  19.249   7.055
10764POPC   C4B66010  18.106  19.264   7.355
10765POPC   NC366011  22.933  11.296   5.555
10765POPC   PO466012  22.939  11.292   5.855
10765POPC   GL166013  22.895  11.283   6.155
10765POPC   GL266014  22.962  11.469   6.155
10765POPC   C1A66015  22.922  11.278   6.455
10765POPC   D2A66016  22.922  11.282   6.755
10765POPC   C3A66017  22.892  11.333   7.055
10765POPC   C4A66018  22.947  11.295   7.355
10765POPC   C1B66019  22.940  11.565   6.455
10765POPC   C2B66020  22.987  11.546   6.755
10765POPC   C3B66021  22.988  11.575   7.055
10765POPC   C4B66022  22.924  11.503   7.355
10766POPC   NC366023  24.472  40.803   5.555
10766POPC   PO466024  24.453  40.769   5.855
10766POPC   GL166025  24.448  40.806   6.155
10766POPC   GL266026  24.448  40.659   6.155
10766POPC   C1A66027  24.487  40.738   6.455
10766POPC   D2A66028  24.515  40.825   6.755
10766POPC   C3A66029  24.462  40.814   7.055
10766POPC   C4A66030  24.465  40.745   7.355
10766POPC   C1B66031  24.452  40.532   6.455
10766POPC   C2B66032  24.411  40.525   6.755
10766POPC   C3B66033  24.371  40.504   7.055
10766POPC   C4B66034  24.426  40.557   7.355
10767POPC   NC366035  37.676  22.144   5.555
10767POPC   PO466036  37.630  22.179   5.855
10767POPC   GL166037  37.699  22.184   6.155
10767POPC   GL266038  37.621  22.258   6.155
10767POPC   C1A66039  37.716  22.179   6.455
10767POPC   D2A66040  37.672  22.190   6.755
10767POPC   C3A66041  37.660  22.126   7.055
10767POPC   C4A66042  37.706  22.132   7.355
10767POPC   C1B66043  37.521  22.291   6.455
10767POPC   C2B66044  37.502  22.354   6.755
10767POPC   C3B66045  37.468  22.288   7.055
10767POPC   C4B66046  37.498  22.328   7.355
10768POPC   NC366047  44.641  32.287   5.555
10768POPC   PO466048  44.619  32.289   5.855
10768POPC   GL166049  44.661  32.219   6.155
10768POPC   GL266050  44.753  32.388   6.155
10768POPC   C1A66051  44.658  32.227   6.455
10768POPC   D2A66052  44.693  32.291   6.755
10768POPC   C3A66053  44.622  32.221   7.055
10768POPC   C4A66054  44.677  32.240   7.355
10768POPC   C1B66055  44.758  32.471   6.455
10768POPC   C2B66056  44.827  32.473   6.755
10768POPC   C3B66057  44.794  32.488   7.055
10768POPC   C4B66058  44.754  32.438   7.355
10769POPC   NC366059  12.806   8.158   5.555
10769POPC   PO466060  12.822   8.203   5.855
10769POPC   GL166061  12.849   8.180   6.155
10769POPC   GL266062  13.004   8.225   6.155
10769POPC   C1A66063  12.843   8.166   6.455
10769POPC   D2A66064  12.860   8.212   6.755
10769POPC   C3A66065  12.861   8.149   7.055
10769POPC   C4A66066  12.885   8.217   7.355
10769POPC   C1B66067  13.063   8.169   6.455
10769POPC   C2B66068  13.054   8.199   6.755
10769POPC   C3B66069  13.085   8.203   7.055
10769POPC   C4B66070  13.103   8.128   7.355
10770POPC   NC366071   8.168  21.435   5.555
10770POPC   PO466072   8.185  21.341   5.855
10770POPC   GL166073   8.220  21.347   6.155
10770POPC   GL266074   8.217  21.465   6.155
10770POPC   C1A66075   8.238  21.381   6.455
10770POPC   D2A66076   8.216  21.418   6.755
10770POPC   C3A66077   8.207  21.390   7.055
10770POPC   C4A66078   8.185  21.414   7.355
10770POPC   C1B66079   8.164  21.616   6.455
10770POPC   C2B66080   8.225  21.616   6.755
10770POPC   C3B66081   8.237  21.613   7.055
10770POPC   C4B66082   8.177  21.597   7.355
10771POPC   NC366083   2.783  39.271   5.555
10771POPC   PO466084   2.725  39.244   5.855
10771POPC   GL166085   2.757  39.205   6.155
10771POPC   GL266086   2.631  39.196   6.155
10771POPC   C1A66087   2.745  39.211   6.455
10771POPC   D2A66088   2.812  39.265   6.755
10771POPC   C3A66089   2.752  39.239   7.055
10771POPC   C4A66090   2.793  39.279   7.355
10771POPC   C1B66091   2.529  39.082   6.455
10771POPC   C2B66092   2.536  39.115   6.755
10771POPC   C3B66093   2.600  39.111   7.055
10771POPC   C4B66094   2.611  39.126   7.355
10772POPC   NC366095   7.394   4.316   5.555
10772POPC   PO466096   7.441   4.279   5.855
10772POPC   GL166097   7.447   4.277   6.155
10772POPC   GL266098   7.336   4.285   6.155
10772POPC   C1A66099   7.423   4.269   6.455
10772POPC   D2A66100   7.396   4.334   6.755
10772POPC   C3A66101   7.412   4.285   7.055
10772POPC   C4A66102   7.452   4.312   7.355
10772POPC   C1B66103   7.173   4.157   6.455
10772POPC   C2B66104   7.213   4.188   6.755
10772POPC   C3B66105   7.188   4.185   7.055
10772POPC   C4B66106   7.219   4.212   7.355
10773POPC   NC366107  42.290  39.970   5.555
10773POPC   PO466108  42.339  39.967   5.855
10773POPC   GL166109  42.310  40.029   6.155
10773POPC   GL266110  42.408  40.094   6.155
10773POPC   C1A66111  42.330  39.987   6.455
10773POPC   D2A66112  42.374  39.964   6.755
10773POPC   C3A66113  42.377  39.970   7.055
10773POPC   C4A66114  42.303  40.030   7.355
10773POPC   C1B66115  42.568  40.121   6.455
10773POPC   C2B66116  42.582  40.137   6.755
10773POPC   C3B66117  42.554  40.076   7.055
10773POPC   C4B66118  42.535  40.059   7.355
10774POPC   NC366119  34.586   4.334   5.555
10774POPC   PO466120  34.561   4.304   5.855
10774POPC   GL166121  34.598   4.329   6.155
10774POPC   GL266122  34.578   4.421   6.155
10774POPC   C1A66123  34.602   4.326   6.455
10774POPC   D2A66124  34.549   4.350   6.755
10774POPC   C3A66125  34.592   4.330   7.055
10774POPC   C4A66126  34.579   4.319   7.355
10774POPC   C1B66127  34.573   4.612   6.455
10774POPC   C2B66128  34.618   4.574   6.755
10774POPC   C3B66129  34.555   4.576   7.055
10774POPC   C4B66130  34.521   4.544   7.355
10775POPC   NC366131  13.616  12.841   5.555
10775POPC   PO466132  13.613  12.805   5.855
10775POPC   GL166133  13.671  12.871   6.155
10775POPC   GL266134  13.468  12.909   6.155
10775POPC   C1A66135  13.579  12.896   6.455
10775POPC   D2A66136  13.639  12.821   6.755
10775POPC   C3A66137  13.620  12.874   7.055
10775POPC   C4A66138  13.599  12.878   7.355
10775POPC   C1B66139  13.406  12.876   6.455
10775POPC   C2B66140  13.329  12.843   6.755
10775POPC   C3B66141  13.380  12.827   7.055
10775POPC   C4B66142  13.348  12.894   7.355
10776POPC   NC366143  22.979  32.272   5.555
10776POPC   PO466144  22.947  32.289   5.855
10776POPC   GL166145  22.894  32.286   6.155
10776POPC   GL266146  22.873  32.168   6.155
10776POPC   C1A66147  22.966  32.201   6.455
10776POPC   D2A66148  22.902  32.211   6.755
10776POPC   C3A66149  22.935  32.219   7.055
10776POPC   C4A66150  22.914  32.243   7.355
10776POPC   C1B66151  22.706  32.077   6.455
10776POPC   C2B66152  22.751  32.063   6.755
10776POPC   C3B66153  22.711  32.063   7.055
10776POPC   C4B66154  22.739  32.100   7.355
10777POPC   NC366155  16.776  15.952   5.555
10777POPC   PO466156  16.697  15.970   5.855
10777POPC   GL166157  16.693  15.913   6.155
10777POPC   GL266158  16.706  16.098   6.155
10777POPC   C1A66159  16.716  15.985   6.455
10777POPC   D2A66160  16.746  15.958   6.755
10777POPC   C3A66161  16.770  15.973   7.055
10777POPC   C4A66162  16.753  16.002   7.355
10777POPC   C1B66163  16.616  16.196   6.455
10777POPC   C2B66164  16.645  16.194   6.755
10777POPC   C3B66165  16.595  16.227   7.055
10777POPC   C4B66166  16.609  16.207   7.355
10778POPC   NC366167  32.994  44.659   5.555
10778POPC   PO466168  33.001  44.630   5.855
10778POPC   GL166169  33.029  44.632   6.155
10778POPC   GL266170  33.062  44.568   6.155
10778POPC   C1A66171  33.029  44.672   6.455
10778POPC   D2A66172  33.046  44.615   6.755
10778POPC   C3A66173  33.007  44.696   7.055
10778POPC   C4A66174  32.986  44.635   7.355
10778POPC   C1B66175  33.177  44.512   6.455
10778POPC   C2B66176  33.193  44.417   6.755
10778POPC   C3B66177  33.139  44.465   7.055
10778POPC   C4B66178  33.170  44.438   7.355
10779POPC   NC366179  35.323  30.715   5.555
10779POPC   PO466180  35.371  30.688   5.855
10779POPC   GL166181  35.358  30.709   6.155
10779POPC   GL266182  35.236  30.643   6.155
10779POPC   C1A66183  35.345  30.674   6.455
10779POPC   D2A66184  35.364  30.711   6.755
10779POPC   C3A66185  35.386  30.678   7.055
10779POPC   C4A66186  35.352  30.718   7.355
10779POPC   C1B66187  35.125  30.609   6.455
10779POPC   C2B66188  35.174  30.566   6.755
10779POPC   C3B66189  35.100  30.557   7.055
10779POPC   C4B66190  35.174  30.521   7.355
10780POPC   NC366191  27.552  25.246   5.555
10780POPC   PO466192  27.621  25.276   5.855
10780POPC   GL166193  27.605  25.285   6.155
10780POPC   GL266194  27.504  25.338   6.155
10780POPC   C1A66195  27.642  25.270   6.455
10780POPC   D2A66196  27.637  25.292   6.755
10780POPC   C3A66197  27.619  25.283   7.055
10780POPC   C4A66198  27.550  25.245   7.355
10780POPC   C1B66199  27.440  25.439   6.455
10780POPC   C2B66200  27.462  25.400   6.755
10780POPC   C3B66201  27.389  25.409   7.055
10780POPC   C4B66202  27.415  25.404   7.355
10781POPC   NC366203  37.695  10.570   5.555
10781POPC   PO466204  37.694  10.479   5.855
10781POPC   GL166205  37.661  10.570   6.155
10781POPC   GL266206  37.529  10.535   6.155
10781POPC   C1A66207  37.696  10.506   6.455
10781POPC   D2A66208  37.714  10.483   6.755
10781POPC   C3A66209  37.705  10.480   7.055
10781POPC   C4A66210  37.686  10.517   7.355
10781POPC   C1B66211  37.392  10.600   6.455
10781POPC   C2B66212  37.403  10.607   6.755
10781POPC   C3B66213  37.444  10.539   7.055
10781POPC   C4B66214  37.483  10.605   7.355
10782POPC   NC366215  40.809  42.294   5.555
10782POPC   PO466216  40.738  42.292   5.855
10782POPC   GL166217  40.777  42.356   6.155
10782POPC   GL266218  40.696  42.414   6.155
10782POPC   C1A66219  40.773  42.373   6.455
10782POPC   D2A66220  40.811  42.378   6.755
10782POPC   C3A66221  40.752  42.369   7.055
10782POPC   C4A66222  40.794  42.346   7.355
10782POPC   C1B66223  40.641  42.599   6.455
10782POPC   C2B66224  40.709  42.563   6.755
10782POPC   C3B66225  40.671  42.555   7.055
10782POPC   C4B66226  40.690  42.590   7.355
10783POPC   NC366227  40.040  20.599   5.555
10783POPC   PO466228  40.009  20.586   5.855
10783POPC   GL166229  40.042  20.565   6.155
10783POPC   GL266230  40.013  20.503   6.155
10783POPC   C1A66231  40.050  20.592   6.455
10783POPC   D2A66232  40.055  20.577   6.755
10783POPC   C3A66233  39.995  20.592   7.055
10783POPC   C4A66234  40.045  20.658   7.355
10783POPC   C1B66235  39.951  20.345   6.455
10783POPC   C2B66236  39.918  20.327   6.755
10783POPC   C3B66237  39.974  20.320   7.055
10783POPC   C4B66238  39.921  20.418   7.355
10784POPC   NC366239  40.004  37.642   5.555
10784POPC   PO466240  40.032  37.718   5.855
10784POPC   GL166241  40.024  37.633   6.155
10784POPC   GL266242  40.157  37.593   6.155
10784POPC   C1A66243  40.001  37.651   6.455
10784POPC   D2A66244  40.043  37.690   6.755
10784POPC   C3A66245  40.026  37.630   7.055
10784POPC   C4A66246  40.050  37.710   7.355
10784POPC   C1B66247  40.182  37.602   6.455
10784POPC   C2B66248  40.259  37.587   6.755
10784POPC   C3B66249  40.268  37.547   7.055
10784POPC   C4B66250  40.265  37.581   7.355
10785POPC   NC366251  15.181  12.097   5.555
10785POPC   PO466252  15.158  12.089   5.855
10785POPC   GL166253  15.155  12.092   6.155
10785POPC   GL266254  15.272  12.167   6.155
10785POPC   C1A66255  15.199  12.112   6.455
10785POPC   D2A66256  15.203  12.044   6.755
10785POPC   C3A66257  15.157  12.102   7.055
10785POPC   C4A66258  15.156  12.052   7.355
10785POPC   C1B66259  15.402  12.232   6.455
10785POPC   C2B66260  15.355  12.221   6.755
10785POPC   C3B66261  15.377  12.222   7.055
10785POPC   C4B66262  15.388  12.179   7.355
10786POPC   NC366263   5.108  30.723   5.555
10786POPC   PO466264   5.097  30.720   5.855
10786POPC   GL166265   5.074  30.664   6.155
10786POPC   GL266266   5.039  30.744   6.155
10786POPC   C1A66267   5.106  30.744   6.455
10786POPC   D2A66268   5.116  30.695   6.755
10786POPC   C3A66269   5.114  30.694   7.055
10786POPC   C4A66270   5.110  30.720   7.355
10786POPC   C1B66271   4.911  30.866   6.455
10786POPC   C2B66272   4.869  30.899   6.755
10786POPC   C3B66273   4.859  30.884   7.055
10786POPC   C4B66274   4.860  30.879   7.355
10787POPC   NC366275  20.587   9.705   5.555
10787POPC   PO466276  20.596   9.737   5.855
10787POPC   GL166277  20.601   9.742   6.155
10787POPC   GL266278  20.577   9.890   6.155
10787POPC   C1A66279  20.583   9.714   6.455
10787POPC   D2A66280  20.592   9.714   6.755
10787POPC   C3A66281  20.617   9.766   7.055
10787POPC   C4A66282  20.577   9.722   7.355
10787POPC   C1B66283  20.592  10.028   6.455
10787POPC   C2B66284  20.527   9.996   6.755
10787POPC   C3B66285  20.565  10.017   7.055
10787POPC   C4B66286  20.590   9.991   7.355
10788POPC   NC366287  15.992  36.856   5.555
10788POPC   PO466288  15.938  36.921   5.855
10788POPC   GL166289  15.953  36.878   6.155
10788POPC   GL266290  15.997  36.814   6.155
10788POPC   C1A66291  15.952  36.943   6.455
10788POPC   D2A66292  15.984  36.874   6.755
10788POPC   C3A66293  15.988  36.859   7.055
10788POPC   C4A66294  15.999  36.943   7.355
10788POPC   C1B66295  15.929  36.688   6.455
10788POPC   C2B66296  15.926  36.688   6.755
10788POPC   C3B66297  15.925  36.675   7.055
10788POPC   C4B66298  16.005  36.659   7.355
10789POPC   NC366299  36.132   0.428   5.555
10789POPC   PO466300  36.099   0.407   5.855
10789POPC   GL166301  36.078   0.396   6.155
10789POPC   GL266302  35.992   0.392   6.155
10789POPC   C1A66303  36.138   0.484   6.455
10789POPC   D2A66304  36.108   0.464   6.755
10789POPC   C3A66305  36.133   0.473   7.055
10789POPC   C4A66306  36.094   0.486   7.355
10789POPC   C1B66307  35.859   0.371   6.455
10789POPC   C2B66308  35.914   0.360   6.755
10789POPC   C3B66309  35.879   0.356   7.055
10789POPC   C4B66310  35.865   0.390   7.355
10790POPC   NC366311  43.910   5.917   5.555
10790POPC   PO466312  43.866   5.909   5.855
10790POPC   GL166313  43.852   5.833   6.155
10790POPC   GL266314  43.995   5.913   6.155
10790POPC   C1A66315  43.878   5.863   6.455
10790POPC   D2A66316  43.894   5.839   6.755
10790POPC   C3A66317  43.920   5.914   7.055
10790POPC   C4A66318  43.894   5.913   7.355
10790POPC   C1B66319  44.085   5.937   6.455
10790POPC   C2B66320  44.096   5.953   6.755
10790POPC   C3B66321  44.111   5.989   7.055
10790POPC   C4B66322  44.103   5.950   7.355
10791POPC   NC366323  19.843   5.066   5.555
10791POPC   PO466324  19.835   5.072   5.855
10791POPC   GL166325  19.791   5.085   6.155
10791POPC   GL266326  19.901   5.218   6.155
10791POPC   C1A66327  19.876   5.061   6.455
10791POPC   D2A66328  19.850   5.122   6.755
10791POPC   C3A66329  19.831   5.073   7.055
10791POPC   C4A66330  19.792   5.055   7.355
10791POPC   C1B66331  19.948   5.374   6.455
10791POPC   C2B66332  19.959   5.339   6.755
10791POPC   C3B66333  19.965   5.318   7.055
10791POPC   C4B66334  19.950   5.319   7.355
10792POPC   NC366335  21.418  33.049   5.555
10792POPC   PO466336  21.415  32.981   5.855
10792POPC   GL166337  21.341  33.021   6.155
10792POPC   GL266338  21.238  33.016   6.155
10792POPC   C1A66339  21.409  33.012   6.455
10792POPC   D2A66340  21.382  32.978   6.755
10792POPC   C3A66341  21.375  32.993   7.055
10792POPC   C4A66342  21.376  33.068   7.355
10792POPC   C1B66343  21.163  32.911   6.455
10792POPC   C2B66344  21.178  32.930   6.755
10792POPC   C3B66345  21.123  32.872   7.055
10792POPC   C4B66346  21.193  32.892   7.355
10793POPC   NC366347  12.860   8.999   5.555
10793POPC   PO466348  12.855   8.961   5.855
10793POPC   GL166349  12.835   8.927   6.155
10793POPC   GL266350  12.812   9.077   6.155
10793POPC   C1A66351  12.822   8.990   6.455
10793POPC   D2A66352  12.840   8.977   6.755
10793POPC   C3A66353  12.869   8.970   7.055
10793POPC   C4A66354  12.892   9.006   7.355
10793POPC   C1B66355  12.801   9.206   6.455
10793POPC   C2B66356  12.834   9.266   6.755
10793POPC   C3B66357  12.888   9.208   7.055
10793POPC   C4B66358  12.882   9.237   7.355
10794POPC   NC366359  13.660  36.878   5.555
10794POPC   PO466360  13.578  36.892   5.855
10794POPC   GL166361  13.636  36.889   6.155
10794POPC   GL266362  13.539  36.799   6.155
10794POPC   C1A66363  13.616  36.870   6.455
10794POPC   D2A66364  13.666  36.885   6.755
10794POPC   C3A66365  13.583  36.887   7.055
10794POPC   C4A66366  13.656  36.862   7.355
10794POPC   C1B66367  13.532  36.670   6.455
10794POPC   C2B66368  13.527  36.652   6.755
10794POPC   C3B66369  13.491  36.713   7.055
10794POPC   C4B66370  13.462  36.685   7.355
10795POPC   NC366371  26.816  35.379   5.555
10795POPC   PO466372  26.799  35.337   5.855
10795POPC   GL166373  26.808  35.383   6.155
10795POPC   GL266374  26.802  35.444   6.155
10795POPC   C1A66375  26.826  35.369   6.455
10795POPC   D2A66376  26.790  35.390   6.755
10795POPC   C3A66377  26.805  35.324   7.055
10795POPC   C4A66378  26.803  35.351   7.355
10795POPC   C1B66379  26.847  35.646   6.455
10795POPC   C2B66380  26.846  35.615   6.755
10795POPC   C3B66381  26.808  35.579   7.055
10795POPC   C4B66382  26.824  35.557   7.355
10796POPC   NC366383  10.557  23.753   5.555
10796POPC   PO466384  10.545  23.734   5.855
10796POPC   GL166385  10.551  23.732   6.155
10796POPC   GL266386  10.641  23.746   6.155
10796POPC   C1A66387  10.504  23.691   6.455
10796POPC   D2A66388  10.515  23.760   6.755
10796POPC   C3A66389  10.561  23.716   7.055
10796POPC   C4A66390  10.535  23.681   7.355
10796POPC   C1B66391  10.700  23.831   6.455
10796POPC   C2B66392  10.778  23.816   6.755
10796POPC   C3B66393  10.745  23.822   7.055
10796POPC   C4B66394  10.794  23.873   7.355
10797POPC   NC366395  37.709  12.876   5.555
10797POPC   PO466396  37.710  12.868   5.855
10797POPC   GL166397  37.670  12.817   6.155
10797POPC   GL266398  37.648  12.764   6.155
10797POPC   C1A66399  37.664  12.854   6.455
10797POPC   D2A66400  37.669  12.900   6.755
10797POPC   C3A66401  37.687  12.825   7.055
10797POPC   C4A66402  37.631  12.831   7.355
10797POPC   C1B66403  37.592  12.594   6.455
10797POPC   C2B66404  37.547  12.623   6.755
10797POPC   C3B66405  37.598  12.646   7.055
10797POPC   C4B66406  37.533  12.682   7.355
10798POPC   NC366407  14.382   8.994   5.555
10798POPC   PO466408  14.415   9.005   5.855
10798POPC   GL166409  14.411   8.934   6.155
10798POPC   GL266410  14.417   8.802   6.155
10798POPC   C1A66411  14.367   8.927   6.455
10798POPC   D2A66412  14.438   9.007   6.755
10798POPC   C3A66413  14.409   9.014   7.055
10798POPC   C4A66414  14.420   8.927   7.355
10798POPC   C1B66415  14.366   8.704   6.455
10798POPC   C2B66416  14.388   8.696   6.755
10798POPC   C3B66417  14.351   8.738   7.055
10798POPC   C4B66418  14.350   8.744   7.355
10799POPC   NC366419  16.711  33.779   5.555
10799POPC   PO466420  16.743  33.760   5.855
10799POPC   GL166421  16.780  33.845   6.155
10799POPC   GL266422  16.582  33.699   6.155
10799POPC   C1A66423  16.736  33.839   6.455
10799POPC   D2A66424  16.689  33.766   6.755
10799POPC   C3A66425  16.722  33.780   7.055
10799POPC   C4A66426  16.712  33.824   7.355
10799POPC   C1B66427  16.554  33.672   6.455
10799POPC   C2B66428  16.477  33.683   6.755
10799POPC   C3B66429  16.548  33.624   7.055
10799POPC   C4B66430  16.565  33.699   7.355
10800POPC   NC366431  42.289  43.088   5.555
10800POPC   PO466432  42.305  43.070   5.855
10800POPC   GL166433  42.362  43.142   6.155
10800POPC   GL266434  42.280  43.240   6.155
10800POPC   C1A66435  42.349  43.131   6.455
10800POPC   D2A66436  42.285  43.069   6.755
10800POPC   C3A66437  42.370  43.078   7.055
10800POPC   C4A66438  42.360  43.063   7.355
10800POPC   C1B66439  42.142  43.313   6.455
10800POPC   C2B66440  42.177  43.272   6.755
10800POPC   C3B66441  42.209  43.313   7.055
10800POPC   C4B66442  42.202  43.352   7.355
10801POPC   NC366443  23.672  40.767   5.555
10801POPC   PO466444  23.687  40.781   5.855
10801POPC   GL166445  23.696  40.790   6.155
10801POPC   GL266446  23.885  40.741   6.155
10801POPC   C1A66447  23.758  40.812   6.455
10801POPC   D2A66448  23.699  40.733   6.755
10801POPC   C3A66449  23.673  40.783   7.055
10801POPC   C4A66450  23.708  40.785   7.355
10801POPC   C1B66451  23.967  40.804   6.455
10801POPC   C2B66452  23.984  40.706   6.755
10801POPC   C3B66453  23.992  40.755   7.055
10801POPC   C4B66454  23.928  40.749   7.355
10802POPC   NC366455  43.105   4.345   5.555
10802POPC   PO466456  43.099   4.325   5.855
10802POPC   GL166457  43.113   4.328   6.155
10802POPC   GL266458  42.985   4.444   6.155
10802POPC   C1A66459  43.111   4.331   6.455
10802POPC   D2A66460  43.157   4.319   6.755
10802POPC   C3A66461  43.106   4.339   7.055
10802POPC   C4A66462  43.111   4.323   7.355
10802POPC   C1B66463  42.935   4.460   6.455
10802POPC   C2B66464  42.918   4.471   6.755
10802POPC   C3B66465  42.877   4.466   7.055
10802POPC   C4B66466  42.928   4.506   7.355
10803POPC   NC366467  22.189  20.655   5.555
10803POPC   PO466468  22.178  20.651   5.855
10803POPC   GL166469  22.112  20.601   6.155
10803POPC   GL266470  22.180  20.478   6.155
10803POPC   C1A66471  22.159  20.655   6.455
10803POPC   D2A66472  22.192  20.651   6.755
10803POPC   C3A66473  22.191  20.632   7.055
10803POPC   C4A66474  22.112  20.645   7.355
10803POPC   C1B66475  22.145  20.404   6.455
10803POPC   C2B66476  22.094  20.410   6.755
10803POPC   C3B66477  22.063  20.374   7.055
10803POPC   C4B66478  22.056  20.362   7.355
10804POPC   NC366479  27.565  40.769   5.555
10804POPC   PO466480  27.599  40.778   5.855
10804POPC   GL166481  27.562  40.768   6.155
10804POPC   GL266482  27.633  40.929   6.155
10804POPC   C1A66483  27.635  40.767   6.455
10804POPC   D2A66484  27.572  40.832   6.755
10804POPC   C3A66485  27.582  40.823   7.055
10804POPC   C4A66486  27.604  40.817   7.355
10804POPC   C1B66487  27.711  41.022   6.455
10804POPC   C2B66488  27.643  41.033   6.755
10804POPC   C3B66489  27.686  40.976   7.055
10804POPC   C4B66490  27.675  41.038   7.355
10805POPC   NC366491   4.310   4.344   5.555
10805POPC   PO466492   4.338   4.310   5.855
10805POPC   GL166493   4.283   4.360   6.155
10805POPC   GL266494   4.424   4.291   6.155
10805POPC   C1A66495   4.271   4.351   6.455
10805POPC   D2A66496   4.311   4.304   6.755
10805POPC   C3A66497   4.354   4.324   7.055
10805POPC   C4A66498   4.273   4.343   7.355
10805POPC   C1B66499   4.490   4.245   6.455
10805POPC   C2B66500   4.574   4.192   6.755
10805POPC   C3B66501   4.543   4.190   7.055
10805POPC   C4B66502   4.561   4.164   7.355
10806POPC   NC366503  17.469  36.898   5.555
10806POPC   PO466504  17.487  36.897   5.855
10806POPC   GL166505  17.517  36.904   6.155
10806POPC   GL266506  17.647  36.982   6.155
10806POPC   C1A66507  17.494  36.933   6.455
10806POPC   D2A66508  17.458  36.925   6.755
10806POPC   C3A66509  17.552  36.912   7.055
10806POPC   C4A66510  17.481  36.900   7.355
10806POPC   C1B66511  17.762  36.994   6.455
10806POPC   C2B66512  17.769  36.933   6.755
10806POPC   C3B66513  17.764  37.014   7.055
10806POPC   C4B66514  17.796  36.996   7.355
10807POPC   NC366515   7.413  28.345   5.555
10807POPC   PO466516   7.416  28.370   5.855
10807POPC   GL166517   7.401  28.375   6.155
10807POPC   GL266518   7.474  28.464   6.155
10807POPC   C1A66519   7.378  28.371   6.455
10807POPC   D2A66520   7.417  28.362   6.755
10807POPC   C3A66521   7.423  28.417   7.055
10807POPC   C4A66522   7.388  28.329   7.355
10807POPC   C1B66523   7.575  28.594   6.455
10807POPC   C2B66524   7.586  28.609   6.755
10807POPC   C3B66525   7.550  28.579   7.055
10807POPC   C4B66526   7.551  28.530   7.355
10808POPC   NC366527  37.639  33.815   5.555
10808POPC   PO466528  37.690  33.783   5.855
10808POPC   GL166529  37.728  33.803   6.155
10808POPC   GL266530  37.538  33.701   6.155
10808POPC   C1A66531  37.672  33.829   6.455
10808POPC   D2A66532  37.723  33.758   6.755
10808POPC   C3A66533  37.714  33.769   7.055
10808POPC   C4A66534  37.718  33.813   7.355
10808POPC   C1B66535  37.415  33.735   6.455
10808POPC   C2B66536  37.469  33.672   6.755
10808POPC   C3B66537  37.480  33.655   7.055
10808POPC   C4B66538  37.446  33.727   7.355
10809POPC   NC366539  20.638  21.429   5.555
10809POPC   PO466540  20.625  21.389   5.855
10809POPC   GL166541  20.564  21.387   6.155
10809POPC   GL266542  20.591  21.230   6.155
10809POPC   C1A66543  20.576  21.360   6.455
10809POPC   D2A66544  20.613  21.386   6.755
10809POPC   C3A66545  20.607  21.360   7.055
10809POPC   C4A66546  20.618  21.359   7.355
10809POPC   C1B66547  20.667  21.104   6.455
10809POPC   C2B66548  20.626  21.146   6.755
10809POPC   C3B66549  20.662  21.166   7.055
10809POPC   C4B66550  20.710  21.156   7.355
10810POPC   NC366551   1.168  12.118   5.555
10810POPC   PO466552   1.180  12.088   5.855
10810POPC   GL166553   1.256  12.060   6.155
10810POPC   GL266554   1.269  12.000   6.155
10810POPC   C1A66555   1.227  12.034   6.455
10810POPC   D2A66556   1.198  12.073   6.755
10810POPC   C3A66557   1.245  12.103   7.055
10810POPC   C4A66558   1.193  12.041   7.355
10810POPC   C1B66559   1.320  11.879   6.455
10810POPC   C2B66560   1.310  11.863   6.755
10810POPC   C3B66561   1.290  11.891   7.055
10810POPC   C4B66562   1.255  11.804   7.355
10811POPC   NC366563  13.586  10.487   5.555
10811POPC   PO466564  13.584  10.534   5.855
10811POPC   GL166565  13.585  10.551   6.155
10811POPC   GL266566  13.698  10.426   6.155
10811POPC   C1A66567  13.580  10.526   6.455
10811POPC   D2A66568  13.601  10.572   6.755
10811POPC   C3A66569  13.645  10.498   7.055
10811POPC   C4A66570  13.670  10.502   7.355
10811POPC   C1B66571  13.846  10.383   6.455
10811POPC   C2B66572  13.764  10.339   6.755
10811POPC   C3B66573  13.780  10.319   7.055
10811POPC   C4B66574  13.814  10.314   7.355
10812POPC   NC366575  32.288   8.996   5.555
10812POPC   PO466576  32.286   8.946   5.855
10812POPC   GL166577  32.294   9.005   6.155
10812POPC   GL266578  32.265   9.104   6.155
10812POPC   C1A66579  32.267   8.962   6.455
10812POPC   D2A66580  32.230   8.938   6.755
10812POPC   C3A66581  32.262   8.930   7.055
10812POPC   C4A66582  32.223   8.964   7.355
10812POPC   C1B66583  32.303   9.246   6.455
10812POPC   C2B66584  32.280   9.237   6.755
10812POPC   C3B66585  32.235   9.187   7.055
10812POPC   C4B66586  32.322   9.194   7.355
10813POPC   NC366587  15.139  33.006   5.555
10813POPC   PO466588  15.200  32.975   5.855
10813POPC   GL166589  15.173  33.028   6.155
10813POPC   GL266590  15.075  33.064   6.155
10813POPC   C1A66591  15.197  32.993   6.455
10813POPC   D2A66592  15.226  33.016   6.755
10813POPC   C3A66593  15.197  33.060   7.055
10813POPC   C4A66594  15.151  33.006   7.355
10813POPC   C1B66595  14.941  33.025   6.455
10813POPC   C2B66596  14.895  33.089   6.755
10813POPC   C3B66597  14.948  33.089   7.055
10813POPC   C4B66598  14.957  33.089   7.355
10814POPC   NC366599  11.312  39.188   5.555
10814POPC   PO466600  11.338  39.261   5.855
10814POPC   GL166601  11.253  39.232   6.155
10814POPC   GL266602  11.251  39.135   6.155
10814POPC   C1A66603  11.253  39.258   6.455
10814POPC   D2A66604  11.255  39.274   6.755
10814POPC   C3A66605  11.250  39.204   7.055
10814POPC   C4A66606  11.267  39.274   7.355
10814POPC   C1B66607  11.316  38.984   6.455
10814POPC   C2B66608  11.314  38.948   6.755
10814POPC   C3B66609  11.323  39.020   7.055
10814POPC   C4B66610  11.250  38.976   7.355
10815POPC   NC366611   6.636   6.622   5.555
10815POPC   PO466612   6.614   6.679   5.855
10815POPC   GL166613   6.636   6.652   6.155
10815POPC   GL266614   6.640   6.726   6.155
10815POPC   C1A66615   6.644   6.638   6.455
10815POPC   D2A66616   6.682   6.627   6.755
10815POPC   C3A66617   6.631   6.615   7.055
10815POPC   C4A66618   6.653   6.693   7.355
10815POPC   C1B66619   6.600   6.903   6.455
10815POPC   C2B66620   6.684   6.894   6.755
10815POPC   C3B66621   6.670   6.850   7.055
10815POPC   C4B66622   6.633   6.938   7.355
10816POPC   NC366623  42.303  29.166   5.555
10816POPC   PO466624  42.299  29.164   5.855
10816POPC   GL166625  42.357  29.152   6.155
10816POPC   GL266626  42.429  29.127   6.155
10816POPC   C1A66627  42.369  29.097   6.455
10816POPC   D2A66628  42.366  29.132   6.755
10816POPC   C3A66629  42.316  29.105   7.055
10816POPC   C4A66630  42.355  29.129   7.355
10816POPC   C1B66631  42.612  29.075   6.455
10816POPC   C2B66632  42.543  28.999   6.755
10816POPC   C3B66633  42.526  29.036   7.055
10816POPC   C4B66634  42.560  29.015   7.355
10817POPC   NC366635  36.112  21.368   5.555
10817POPC   PO466636  36.125  21.354   5.855
10817POPC   GL166637  36.167  21.369   6.155
10817POPC   GL266638  36.139  21.221   6.155
10817POPC   C1A66639  36.103  21.426   6.455
10817POPC   D2A66640  36.161  21.407   6.755
10817POPC   C3A66641  36.105  21.360   7.055
10817POPC   C4A66642  36.110  21.393   7.355
10817POPC   C1B66643  36.115  21.103   6.455
10817POPC   C2B66644  36.141  21.170   6.755
10817POPC   C3B66645  36.198  21.151   7.055
10817POPC   C4B66646  36.156  21.145   7.355
10818POPC   NC366647  43.079  12.064   5.555
10818POPC   PO466648  43.106  12.096   5.855
10818POPC   GL166649  43.066  12.094   6.155
10818POPC   GL266650  43.252  12.153   6.155
10818POPC   C1A66651  43.145  12.065   6.455
10818POPC   D2A66652  43.071  12.113   6.755
10818POPC   C3A66653  43.067  12.110   7.055
10818POPC   C4A66654  43.132  12.046   7.355
10818POPC   C1B66655  43.338  12.166   6.455
10818POPC   C2B66656  43.350  12.185   6.755
10818POPC   C3B66657  43.288  12.236   7.055
10818POPC   C4B66658  43.370  12.205   7.355
10819POPC   NC366659  15.145  35.315   5.555
10819POPC   PO466660  15.219  35.349   5.855
10819POPC   GL166661  15.189  35.304   6.155
10819POPC   GL266662  15.087  35.329   6.155
10819POPC   C1A66663  15.160  35.376   6.455
10819POPC   D2A66664  15.159  35.314   6.755
10819POPC   C3A66665  15.129  35.310   7.055
10819POPC   C4A66666  15.142  35.306   7.355
10819POPC   C1B66667  14.938  35.211   6.455
10819POPC   C2B66668  14.965  35.204   6.755
10819POPC   C3B66669  14.927  35.256   7.055
10819POPC   C4B66670  14.946  35.251   7.355
10820POPC   NC366671  25.310  18.299   5.555
10820POPC   PO466672  25.240  18.317   5.855
10820POPC   GL166673  25.265  18.272   6.155
10820POPC   GL266674  25.388  18.412   6.155
10820POPC   C1A66675  25.242  18.324   6.455
10820POPC   D2A66676  25.290  18.310   6.755
10820POPC   C3A66677  25.293  18.247   7.055
10820POPC   C4A66678  25.296  18.294   7.355
10820POPC   C1B66679  25.420  18.461   6.455
10820POPC   C2B66680  25.496  18.466   6.755
10820POPC   C3B66681  25.503  18.471   7.055
10820POPC   C4B66682  25.459  18.428   7.355
10821POPC   NC366683  14.353   2.800   5.555
10821POPC   PO466684  14.439   2.727   5.855
10821POPC   GL166685  14.356   2.755   6.155
10821POPC   GL266686  14.291   2.725   6.155
10821POPC   C1A66687  14.391   2.764   6.455
10821POPC   D2A66688  14.432   2.778   6.755
10821POPC   C3A66689  14.446   2.734   7.055
10821POPC   C4A66690  14.403   2.798   7.355
10821POPC   C1B66691  14.203   2.615   6.455
10821POPC   C2B66692  14.225   2.603   6.755
10821POPC   C3B66693  14.213   2.580   7.055
10821POPC   C4B66694  14.232   2.568   7.355
10822POPC   NC366695   6.642  26.841   5.555
10822POPC   PO466696   6.662  26.788   5.855
10822POPC   GL166697   6.644  26.860   6.155
10822POPC   GL266698   6.500  26.823   6.155
10822POPC   C1A66699   6.624  26.836   6.455
10822POPC   D2A66700   6.620  26.787   6.755
10822POPC   C3A66701   6.679  26.809   7.055
10822POPC   C4A66702   6.638  26.809   7.355
10822POPC   C1B66703   6.426  26.785   6.455
10822POPC   C2B66704   6.438  26.771   6.755
10822POPC   C3B66705   6.371  26.752   7.055
10822POPC   C4B66706   6.379  26.714   7.355
10823POPC   NC366707  37.632  29.907   5.555
10823POPC   PO466708  37.698  29.945   5.855
10823POPC   GL166709  37.678  29.968   6.155
10823POPC   GL266710  37.644  30.002   6.155
10823POPC   C1A66711  37.671  29.925   6.455
10823POPC   D2A66712  37.650  29.871   6.755
10823POPC   C3A66713  37.645  29.923   7.055
10823POPC   C4A66714  37.664  29.948   7.355
10823POPC   C1B66715  37.600  30.180   6.455
10823POPC   C2B66716  37.600  30.134   6.755
10823POPC   C3B66717  37.536  30.087   7.055
10823POPC   C4B66718  37.527  30.101   7.355
10824POPC   NC366719  25.283  15.945   5.555
10824POPC   PO466720  25.259  15.929   5.855
10824POPC   GL166721  25.246  15.933   6.155
10824POPC   GL266722  25.236  15.784   6.155
10824POPC   C1A66723  25.239  15.980   6.455
10824POPC   D2A66724  25.309  15.990   6.755
10824POPC   C3A66725  25.217  15.965   7.055
10824POPC   C4A66726  25.278  15.946   7.355
10824POPC   C1B66727  25.273  15.699   6.455
10824POPC   C2B66728  25.283  15.674   6.755
10824POPC   C3B66729  25.289  15.745   7.055
10824POPC   C4B66730  25.249  15.751   7.355
10825POPC   NC366731  17.470   6.667   5.555
10825POPC   PO466732  17.497   6.625   5.855
10825POPC   GL166733  17.545   6.634   6.155
10825POPC   GL266734  17.487   6.500   6.155
10825POPC   C1A66735  17.509   6.661   6.455
10825POPC   D2A66736  17.500   6.638   6.755
10825POPC   C3A66737  17.537   6.603   7.055
10825POPC   C4A66738  17.544   6.627   7.355
10825POPC   C1B66739  17.448   6.421   6.455
10825POPC   C2B66740  17.401   6.438   6.755
10825POPC   C3B66741  17.380   6.438   7.055
10825POPC   C4B66742  17.392   6.370   7.355
10826POPC   NC366743  10.511  24.522   5.555
10826POPC   PO466744  10.526  24.479   5.855
10826POPC   GL166745  10.550  24.463   6.155
10826POPC   GL266746  10.427  24.391   6.155
10826POPC   C1A66747  10.555  24.450   6.455
10826POPC   D2A66748  10.546  24.511   6.755
10826POPC   C3A66749  10.512  24.522   7.055
10826POPC   C4A66750  10.519  24.514   7.355
10826POPC   C1B66751  10.412  24.222   6.455
10826POPC   C2B66752  10.389  24.280   6.755
10826POPC   C3B66753  10.446  24.279   7.055
10826POPC   C4B66754  10.409  24.295   7.355
10827POPC   NC366755  11.261  24.463   5.555
10827POPC   PO466756  11.264  24.452   5.855
10827POPC   GL166757  11.282  24.455   6.155
10827POPC   GL266758  11.432  24.489   6.155
10827POPC   C1A66759  11.254  24.526   6.455
10827POPC   D2A66760  11.301  24.498   6.755
10827POPC   C3A66761  11.319  24.459   7.055
10827POPC   C4A66762  11.311  24.510   7.355
10827POPC   C1B66763  11.578  24.414   6.455
10827POPC   C2B66764  11.555  24.381   6.755
10827POPC   C3B66765  11.498  24.472   7.055
10827POPC   C4B66766  11.509  24.392   7.355
10828POPC   NC366767  34.553  22.926   5.555
10828POPC   PO466768  34.590  22.964   5.855
10828POPC   GL166769  34.615  22.889   6.155
10828POPC   GL266770  34.635  23.021   6.155
10828POPC   C1A66771  34.621  22.979   6.455
10828POPC   D2A66772  34.552  22.966   6.755
10828POPC   C3A66773  34.606  22.896   7.055
10828POPC   C4A66774  34.616  22.936   7.355
10828POPC   C1B66775  34.736  23.106   6.455
10828POPC   C2B66776  34.653  23.157   6.755
10828POPC   C3B66777  34.688  23.138   7.055
10828POPC   C4B66778  34.696  23.173   7.355
10829POPC   NC366779  27.637  23.748   5.555
10829POPC   PO466780  27.576  23.687   5.855
10829POPC   GL166781  27.582  23.718   6.155
10829POPC   GL266782  27.694  23.763   6.155
10829POPC   C1A66783  27.627  23.736   6.455
10829POPC   D2A66784  27.621  23.687   6.755
10829POPC   C3A66785  27.635  23.685   7.055
10829POPC   C4A66786  27.634  23.747   7.355
10829POPC   C1B66787  27.755  23.879   6.455
10829POPC   C2B66788  27.754  23.814   6.755
10829POPC   C3B66789  27.805  23.879   7.055
10829POPC   C4B66790  27.778  23.889   7.355
10830POPC   NC366791   8.200  10.498   5.555
10830POPC   PO466792   8.203  10.500   5.855
10830POPC   GL166793   8.191  10.573   6.155
10830POPC   GL266794   8.082  10.595   6.155
10830POPC   C1A66795   8.180  10.538   6.455
10830POPC   D2A66796   8.189  10.559   6.755
10830POPC   C3A66797   8.166  10.548   7.055
10830POPC   C4A66798   8.185  10.552   7.355
10830POPC   C1B66799   8.075  10.677   6.455
10830POPC   C2B66800   8.040  10.711   6.755
10830POPC   C3B66801   8.042  10.708   7.055
10830POPC   C4B66802   8.043  10.757   7.355
10831POPC   NC366803  29.154   6.643   5.555
10831POPC   PO466804  29.101   6.614   5.855
10831POPC   GL166805  29.159   6.660   6.155
10831POPC   GL266806  29.165   6.481   6.155
10831POPC   C1A66807  29.162   6.694   6.455
10831POPC   D2A66808  29.104   6.620   6.755
10831POPC   C3A66809  29.170   6.642   7.055
10831POPC   C4A66810  29.169   6.677   7.355
10831POPC   C1B66811  29.113   6.354   6.455
10831POPC   C2B66812  29.144   6.430   6.755
10831POPC   C3B66813  29.110   6.437   7.055
10831POPC   C4B66814  29.111   6.353   7.355
10832POPC   NC366815  43.101  33.044   5.555
10832POPC   PO466816  43.119  33.029   5.855
10832POPC   GL166817  43.142  33.009   6.155
10832POPC   GL266818  43.097  32.854   6.155
10832POPC   C1A66819  43.129  33.018   6.455
10832POPC   D2A66820  43.096  33.044   6.755
10832POPC   C3A66821  43.129  33.006   7.055
10832POPC   C4A66822  43.156  33.045   7.355
10832POPC   C1B66823  43.176  32.791   6.455
10832POPC   C2B66824  43.154  32.796   6.755
10832POPC   C3B66825  43.172  32.806   7.055
10832POPC   C4B66826  43.177  32.817   7.355
10833POPC   NC366827  16.713   2.009   5.555
10833POPC   PO466828  16.741   2.007   5.855
10833POPC   GL166829  16.775   1.969   6.155
10833POPC   GL266830  16.867   1.911   6.155
10833POPC   C1A66831  16.687   2.007   6.455
10833POPC   D2A66832  16.742   2.034   6.755
10833POPC   C3A66833  16.770   2.035   7.055
10833POPC   C4A66834  16.743   1.981   7.355
10833POPC   C1B66835  16.945   1.864   6.455
10833POPC   C2B66836  16.932   1.910   6.755
10833POPC   C3B66837  17.017   1.909   7.055
10833POPC   C4B66838  16.955   1.939   7.355
10834POPC   NC366839   2.034  33.064   5.555
10834POPC   PO466840   1.955  33.020   5.855
10834POPC   GL166841   2.003  33.063   6.155
10834POPC   GL266842   1.896  32.995   6.155
10834POPC   C1A66843   2.036  32.978   6.455
10834POPC   D2A66844   2.007  33.042   6.755
10834POPC   C3A66845   2.037  33.070   7.055
10834POPC   C4A66846   2.034  33.068   7.355
10834POPC   C1B66847   1.773  33.059   6.455
10834POPC   C2B66848   1.726  33.068   6.755
10834POPC   C3B66849   1.764  33.093   7.055
10834POPC   C4B66850   1.780  33.094   7.355
10835POPC   NC366851  34.555   0.472   5.555
10835POPC   PO466852  34.562   0.431   5.855
10835POPC   GL166853  34.600   0.456   6.155
10835POPC   GL266854  34.707   0.392   6.155
10835POPC   C1A66855  34.603   0.461   6.455
10835POPC   D2A66856  34.560   0.486   6.755
10835POPC   C3A66857  34.614   0.470   7.055
10835POPC   C4A66858  34.561   0.483   7.355
10835POPC   C1B66859  34.787   0.262   6.455
10835POPC   C2B66860  34.805   0.235   6.755
10835POPC   C3B66861  34.733   0.280   7.055
10835POPC   C4B66862  34.754   0.264   7.355
10836POPC   NC366863  23.745  33.795   5.555
10836POPC   PO466864  23.676  33.770   5.855
10836POPC   GL166865  23.764  33.807   6.155
10836POPC   GL266866  23.859  33.782   6.155
10836POPC   C1A66867  23.728  33.784   6.455
10836POPC   D2A66868  23.726  33.813   6.755
10836POPC   C3A66869  23.674  33.837   7.055
10836POPC   C4A66870  23.707  33.775   7.355
10836POPC   C1B66871  23.929  33.701   6.455
10836POPC   C2B66872  23.935  33.727   6.755
10836POPC   C3B66873  23.917  33.688   7.055
10836POPC   C4B66874  23.986  33.669   7.355
10837POPC   NC366875  23.668  13.615   5.555
10837POPC   PO466876  23.751  13.581   5.855
10837POPC   GL166877  23.745  13.625   6.155
10837POPC   GL266878  23.545  13.620   6.155
10837POPC   C1A66879  23.721  13.624   6.455
10837POPC   D2A66880  23.669  13.649   6.755
10837POPC   C3A66881  23.702  13.594   7.055
10837POPC   C4A66882  23.726  13.585   7.355
10837POPC   C1B66883  23.452  13.620   6.455
10837POPC   C2B66884  23.508  13.659   6.755
10837POPC   C3B66885  23.434  13.688   7.055
10837POPC   C4B66886  23.481  13.656   7.355
10838POPC   NC366887   7.447  26.035   5.555
10838POPC   PO466888   7.459  26.054   5.855
10838POPC   GL166889   7.379  26.045   6.155
10838POPC   GL266890   7.352  26.116   6.155
10838POPC   C1A66891   7.395  26.012   6.455
10838POPC   D2A66892   7.412  26.048   6.755
10838POPC   C3A66893   7.381  26.001   7.055
10838POPC   C4A66894   7.426  26.073   7.355
10838POPC   C1B66895   7.182  26.144   6.455
10838POPC   C2B66896   7.199  26.171   6.755
10838POPC   C3B66897   7.179  26.085   7.055
10838POPC   C4B66898   7.143  26.089   7.355
10839POPC   NC366899   9.716  43.932   5.555
10839POPC   PO466900   9.774  43.862   5.855
10839POPC   GL166901   9.783  43.842   6.155
10839POPC   GL266902   9.662  43.833   6.155
10839POPC   C1A66903   9.746  43.851   6.455
10839POPC   D2A66904   9.790  43.921   6.755
10839POPC   C3A66905   9.754  43.872   7.055
10839POPC   C4A66906   9.728  43.851   7.355
10839POPC   C1B66907   9.522  43.845   6.455
10839POPC   C2B66908   9.488  43.779   6.755
10839POPC   C3B66909   9.482  43.840   7.055
10839POPC   C4B66910   9.480  43.851   7.355
10840POPC   NC366911  33.066  22.133   5.555
10840POPC   PO466912  33.029  22.206   5.855
10840POPC   GL166913  33.026  22.121   6.155
10840POPC   GL266914  32.862  22.209   6.155
10840POPC   C1A66915  33.035  22.148   6.455
10840POPC   D2A66916  33.011  22.202   6.755
10840POPC   C3A66917  32.982  22.123   7.055
10840POPC   C4A66918  33.008  22.144   7.355
10840POPC   C1B66919  32.771  22.203   6.455
10840POPC   C2B66920  32.794  22.183   6.755
10840POPC   C3B66921  32.785  22.229   7.055
10840POPC   C4B66922  32.773  22.231   7.355
10841POPC   NC366923  39.250  27.557   5.555
10841POPC   PO466924  39.200  27.603   5.855
10841POPC   GL166925  39.278  27.587   6.155
10841POPC   GL266926  39.315  27.522   6.155
10841POPC   C1A66927  39.249  27.604   6.455
10841POPC   D2A66928  39.225  27.551   6.755
10841POPC   C3A66929  39.271  27.566   7.055
10841POPC   C4A66930  39.209  27.564   7.355
10841POPC   C1B66931  39.448  27.523   6.455
10841POPC   C2B66932  39.462  27.471   6.755
10841POPC   C3B66933  39.473  27.500   7.055
10841POPC   C4B66934  39.424  27.543   7.355
10842POPC   NC366935  15.197  21.420   5.555
10842POPC   PO466936  15.216  21.393   5.855
10842POPC   GL166937  15.219  21.412   6.155
10842POPC   GL266938  15.111  21.311   6.155
10842POPC   C1A66939  15.186  21.396   6.455
10842POPC   D2A66940  15.144  21.377   6.755
10842POPC   C3A66941  15.138  21.399   7.055
10842POPC   C4A66942  15.176  21.363   7.355
10842POPC   C1B66943  14.987  21.246   6.455
10842POPC   C2B66944  14.988  21.287   6.755
10842POPC   C3B66945  14.956  21.236   7.055
10842POPC   C4B66946  14.949  21.247   7.355
10843POPC   NC366947   1.190   7.384   5.555
10843POPC   PO466948   1.248   7.450   5.855
10843POPC   GL166949   1.180   7.415   6.155
10843POPC   GL266950   1.386   7.371   6.155
10843POPC   C1A66951   1.176   7.429   6.455
10843POPC   D2A66952   1.230   7.463   6.755
10843POPC   C3A66953   1.221   7.398   7.055
10843POPC   C4A66954   1.186   7.432   7.355
10843POPC   C1B66955   1.416   7.355   6.455
10843POPC   C2B66956   1.468   7.387   6.755
10843POPC   C3B66957   1.487   7.383   7.055
10843POPC   C4B66958   1.491   7.404   7.355
10844POPC   NC366959  26.843  23.694   5.555
10844POPC   PO466960  26.844  23.735   5.855
10844POPC   GL166961  26.815  23.692   6.155
10844POPC   GL266962  26.955  23.681   6.155
10844POPC   C1A66963  26.781  23.744   6.455
10844POPC   D2A66964  26.768  23.745   6.755
10844POPC   C3A66965  26.772  23.695   7.055
10844POPC   C4A66966  26.800  23.702   7.355
10844POPC   C1B66967  27.026  23.563   6.455
10844POPC   C2B66968  26.988  23.562   6.755
10844POPC   C3B66969  27.065  23.551   7.055
10844POPC   C4B66970  26.983  23.599   7.355
10845POPC   NC366971  20.658  27.548   5.555
10845POPC   PO466972  20.613  27.643   5.855
10845POPC   GL166973  20.591  27.625   6.155
10845POPC   GL266974  20.697  27.499   6.155
10845POPC   C1A66975  20.658  27.612   6.455
10845POPC   D2A66976  20.601  27.580   6.755
10845POPC   C3A66977  20.629  27.594   7.055
10845POPC   C4A66978  20.599  27.574   7.355
10845POPC   C1B66979  20.726  27.398   6.455
10845POPC   C2B66980  20.699  27.403   6.755
10845POPC   C3B66981  20.765  27.392   7.055
10845POPC   C4B66982  20.757  27.329   7.355
10846POPC   NC366983   0.424  14.366   5.555
10846POPC   PO466984   0.467  14.452   5.855
10846POPC   GL166985   0.449  14.449   6.155
10846POPC   GL266986   0.571  14.420   6.155
10846POPC   C1A66987   0.481  14.432   6.455
10846POPC   D2A66988   0.440  14.374   6.755
10846POPC   C3A66989   0.416  14.424   7.055
10846POPC   C4A66990   0.448  14.378   7.355
10846POPC   C1B66991   0.640  14.415   6.455
10846POPC   C2B66992   0.678  14.404   6.755
10846POPC   C3B66993   0.726  14.388   7.055
10846POPC   C4B66994   0.655  14.463   7.355
10847POPC   NC366995   0.433  38.466   5.555
10847POPC   PO466996   0.460  38.485   5.855
10847POPC   GL166997   0.453  38.439   6.155
10847POPC   GL266998   0.488  38.320   6.155
10847POPC   C1A66999   0.391  38.409   6.455
10847POPC   D2A67000   0.388  38.411   6.755
10847POPC   C3A67001   0.488  38.451   7.055
10847POPC   C4A67002   0.476  38.406   7.355
10847POPC   C1B67003   0.565  38.259   6.455
10847POPC   C2B67004   0.530  38.223   6.755
10847POPC   C3B67005   0.570  38.278   7.055
10847POPC   C4B67006   0.579  38.278   7.355
10848POPC   NC367007   7.418  21.361   5.555
10848POPC   PO467008   7.388  21.406   5.855
10848POPC   GL167009   7.386  21.350   6.155
10848POPC   GL267010   7.394  21.476   6.155
10848POPC   C1A67011   7.409  21.362   6.455
10848POPC   D2A67012   7.385  21.350   6.755
10848POPC   C3A67013   7.442  21.393   7.055
10848POPC   C4A67014   7.435  21.386   7.355
10848POPC   C1B67015   7.496  21.602   6.455
10848POPC   C2B67016   7.458  21.645   6.755
10848POPC   C3B67017   7.465  21.603   7.055
10848POPC   C4B67018   7.418  21.617   7.355
10849POPC   NC367019  23.738  33.013   5.555
10849POPC   PO467020  23.729  33.038   5.855
10849POPC   GL167021  23.737  32.985   6.155
10849POPC   GL267022  23.604  33.083   6.155
10849POPC   C1A67023  23.694  33.041   6.455
10849POPC   D2A67024  23.726  33.062   6.755
10849POPC   C3A67025  23.720  32.979   7.055
10849POPC   C4A67026  23.761  32.978   7.355
10849POPC   C1B67027  23.470  33.192   6.455
10849POPC   C2B67028  23.506  33.196   6.755
10849POPC   C3B67029  23.494  33.163   7.055
10849POPC   C4B67030  23.519  33.197   7.355
10850POPC   NC367031  20.579  29.922   5.555
10850POPC   PO467032  20.641  29.971   5.855
10850POPC   GL167033  20.582  29.897   6.155
10850POPC   GL267034  20.518  30.000   6.155
10850POPC   C1A67035  20.577  29.968   6.455
10850POPC   D2A67036  20.633  29.875   6.755
10850POPC   C3A67037  20.627  29.928   7.055
10850POPC   C4A67038  20.650  29.959   7.355
10850POPC   C1B67039  20.457  30.154   6.455
10850POPC   C2B67040  20.475  30.088   6.755
10850POPC   C3B67041  20.489  30.161   7.055
10850POPC   C4B67042  20.497  30.165   7.355
10851POPC   NC367043  39.192   1.185   5.555
10851POPC   PO467044  39.183   1.248   5.855
10851POPC   GL167045  39.220   1.229   6.155
10851POPC   GL267046  39.310   1.351   6.155
10851POPC   C1A67047  39.278   1.261   6.455
10851POPC   D2A67048  39.272   1.168   6.755
10851POPC   C3A67049  39.214   1.214   7.055
10851POPC   C4A67050  39.257   1.209   7.355
10851POPC   C1B67051  39.297   1.429   6.455
10851POPC   C2B67052  39.296   1.419   6.755
10851POPC   C3B67053  39.357   1.464   7.055
10851POPC   C4B67054  39.328   1.403   7.355
10852POPC   NC367055  15.912   1.967   5.555
10852POPC   PO467056  15.964   1.942   5.855
10852POPC   GL167057  15.997   1.945   6.155
10852POPC   GL267058  15.809   1.929   6.155
10852POPC   C1A67059  15.964   2.017   6.455
10852POPC   D2A67060  15.916   2.006   6.755
10852POPC   C3A67061  15.957   1.964   7.055
10852POPC   C4A67062  15.929   1.941   7.355
10852POPC   C1B67063  15.726   1.887   6.455
10852POPC   C2B67064  15.761   1.795   6.755
10852POPC   C3B67065  15.804   1.888   7.055
10852POPC   C4B67066  15.772   1.840   7.355
10853POPC   NC367067  36.118  41.510   5.555
10853POPC   PO467068  36.130  41.555   5.855
10853POPC   GL167069  36.090  41.538   6.155
10853POPC   GL267070  36.010  41.517   6.155
10853POPC   C1A67071  36.151  41.516   6.455
10853POPC   D2A67072  36.102  41.529   6.755
10853POPC   C3A67073  36.144  41.571   7.055
10853POPC   C4A67074  36.091  41.539   7.355
10853POPC   C1B67075  35.893  41.437   6.455
10853POPC   C2B67076  35.914  41.431   6.755
10853POPC   C3B67077  35.921  41.400   7.055
10853POPC   C4B67078  35.890  41.359   7.355
10854POPC   NC367079  33.834  26.810   5.555
10854POPC   PO467080  33.754  26.806   5.855
10854POPC   GL167081  33.825  26.858   6.155
10854POPC   GL267082  33.755  26.663   6.155
10854POPC   C1A67083  33.756  26.859   6.455
10854POPC   D2A67084  33.837  26.835   6.755
10854POPC   C3A67085  33.757  26.866   7.055
10854POPC   C4A67086  33.759  26.769   7.355
10854POPC   C1B67087  33.715  26.542   6.455
10854POPC   C2B67088  33.744  26.550   6.755
10854POPC   C3B67089  33.732  26.629   7.055
10854POPC   C4B67090  33.732  26.620   7.355
10855POPC   NC367091  16.716   9.723   5.555
10855POPC   PO467092  16.729   9.787   5.855
10855POPC   GL167093  16.702   9.714   6.155
10855POPC   GL267094  16.802   9.857   6.155
10855POPC   C1A67095  16.701   9.702   6.455
10855POPC   D2A67096  16.777   9.716   6.755
10855POPC   C3A67097  16.710   9.784   7.055
10855POPC   C4A67098  16.776   9.706   7.355
10855POPC   C1B67099  16.760  10.018   6.455
10855POPC   C2B67100  16.810  10.028   6.755
10855POPC   C3B67101  16.745   9.946   7.055
10855POPC   C4B67102  16.799   9.951   7.355
10856POPC   NC367103  39.986  38.426   5.555
10856POPC   PO467104  39.981  38.438   5.855
10856POPC   GL167105  40.022  38.490   6.155
10856POPC   GL267106  39.926  38.566   6.155
10856POPC   C1A67107  39.959  38.436   6.455
10856POPC   D2A67108  39.967  38.461   6.755
10856POPC   C3A67109  39.959  38.483   7.055
10856POPC   C4A67110  39.988  38.496   7.355
10856POPC   C1B67111  39.773  38.592   6.455
10856POPC   C2B67112  39.837  38.621   6.755
10856POPC   C3B67113  39.755  38.608   7.055
10856POPC   C4B67114  39.758  38.597   7.355
10857POPC   NC367115  40.795  29.153   5.555
10857POPC   PO467116  40.832  29.173   5.855
10857POPC   GL167117  40.744  29.160   6.155
10857POPC   GL267118  40.926  29.175   6.155
10857POPC   C1A67119  40.823  29.111   6.455
10857POPC   D2A67120  40.789  29.160   6.755
10857POPC   C3A67121  40.808  29.134   7.055
10857POPC   C4A67122  40.756  29.098   7.355
10857POPC   C1B67123  40.955  29.326   6.455
10857POPC   C2B67124  40.971  29.252   6.755
10857POPC   C3B67125  41.007  29.287   7.055
10857POPC   C4B67126  40.967  29.241   7.355
10858POPC   NC367127   2.012   1.258   5.555
10858POPC   PO467128   2.022   1.210   5.855
10858POPC   GL167129   1.954   1.205   6.155
10858POPC   GL267130   1.891   1.253   6.155
10858POPC   C1A67131   1.991   1.166   6.455
10858POPC   D2A67132   1.976   1.240   6.755
10858POPC   C3A67133   2.026   1.227   7.055
10858POPC   C4A67134   2.038   1.241   7.355
10858POPC   C1B67135   1.794   1.286   6.455
10858POPC   C2B67136   1.803   1.272   6.755
10858POPC   C3B67137   1.759   1.365   7.055
10858POPC   C4B67138   1.775   1.349   7.355
10859POPC   NC367139   4.301  33.053   5.555
10859POPC   PO467140   4.275  33.032   5.855
10859POPC   GL167141   4.361  33.009   6.155
10859POPC   GL267142   4.208  33.073   6.155
10859POPC   C1A67143   4.354  33.042   6.455
10859POPC   D2A67144   4.331  33.046   6.755
10859POPC   C3A67145   4.319  33.059   7.055
10859POPC   C4A67146   4.298  33.033   7.355
10859POPC   C1B67147   4.176  33.198   6.455
10859POPC   C2B67148   4.144  33.224   6.755
10859POPC   C3B67149   4.147  33.187   7.055
10859POPC   C4B67150   4.178  33.157   7.355
10860POPC   NC367151  39.968  29.960   5.555
10860POPC   PO467152  40.054  29.955   5.855
10860POPC   GL167153  39.997  29.970   6.155
10860POPC   GL267154  39.934  30.083   6.155
10860POPC   C1A67155  39.981  29.895   6.455
10860POPC   D2A67156  40.019  29.936   6.755
10860POPC   C3A67157  39.970  29.908   7.055
10860POPC   C4A67158  39.983  29.923   7.355
10860POPC   C1B67159  39.979  30.183   6.455
10860POPC   C2B67160  39.973  30.153   6.755
10860POPC   C3B67161  39.931  30.212   7.055
10860POPC   C4B67162  39.944  30.199   7.355
10861POPC   NC367163   4.326  19.045   5.555
10861POPC   PO467164   4.356  19.039   5.855
10861POPC   GL167165   4.280  19.075   6.155
10861POPC   GL267166   4.183  18.991   6.155
10861POPC   C1A67167   4.332  19.075   6.455
10861POPC   D2A67168   4.277  19.027   6.755
10861POPC   C3A67169   4.346  19.042   7.055
10861POPC   C4A67170   4.290  19.022   7.355
10861POPC   C1B67171   4.068  19.051   6.455
10861POPC   C2B67172   4.035  19.008   6.755
10861POPC   C3B67173   4.025  19.068   7.055
10861POPC   C4B67174   4.083  19.010   7.355
10862POPC   NC367175  42.305   2.729   5.555
10862POPC   PO467176  42.328   2.726   5.855
10862POPC   GL167177  42.289   2.736   6.155
10862POPC   GL267178  42.248   2.792   6.155
10862POPC   C1A67179  42.328   2.814   6.455
10862POPC   D2A67180  42.313   2.764   6.755
10862POPC   C3A67181  42.335   2.783   7.055
10862POPC   C4A67182  42.370   2.731   7.355
10862POPC   C1B67183  42.091   2.770   6.455
10862POPC   C2B67184  42.109   2.830   6.755
10862POPC   C3B67185  42.087   2.749   7.055
10862POPC   C4B67186  42.049   2.822   7.355
10863POPC   NC367187  12.045  22.916   5.555
10863POPC   PO467188  12.059  22.950   5.855
10863POPC   GL167189  12.065  22.969   6.155
10863POPC   GL267190  11.924  22.992   6.155
10863POPC   C1A67191  12.109  22.897   6.455
10863POPC   D2A67192  12.089  22.917   6.755
10863POPC   C3A67193  12.042  22.892   7.055
10863POPC   C4A67194  12.036  22.949   7.355
10863POPC   C1B67195  11.836  22.989   6.455
10863POPC   C2B67196  11.845  22.921   6.755
10863POPC   C3B67197  11.854  22.941   7.055
10863POPC   C4B67198  11.826  22.921   7.355
10864POPC   NC367199  41.585  39.203   5.555
10864POPC   PO467200  41.510  39.232   5.855
10864POPC   GL167201  41.558  39.212   6.155
10864POPC   GL267202  41.713  39.200   6.155
10864POPC   C1A67203  41.538  39.244   6.455
10864POPC   D2A67204  41.578  39.263   6.755
10864POPC   C3A67205  41.538  39.193   7.055
10864POPC   C4A67206  41.556  39.224   7.355
10864POPC   C1B67207  41.778  39.169   6.455
10864POPC   C2B67208  41.791  39.208   6.755
10864POPC   C3B67209  41.761  39.223   7.055
10864POPC   C4B67210  41.790  39.252   7.355
10865POPC   NC367211  19.814   2.005   5.555
10865POPC   PO467212  19.813   1.999   5.855
10865POPC   GL167213  19.855   2.025   6.155
10865POPC   GL267214  19.879   2.131   6.155
10865POPC   C1A67215  19.868   2.027   6.455
10865POPC   D2A67216  19.804   1.999   6.755
10865POPC   C3A67217  19.813   1.961   7.055
10865POPC   C4A67218  19.866   1.941   7.355
10865POPC   C1B67219  19.924   2.236   6.455
10865POPC   C2B67220  19.925   2.249   6.755
10865POPC   C3B67221  19.986   2.194   7.055
10865POPC   C4B67222  19.924   2.213   7.355
10866POPC   NC367223   2.004  22.131   5.555
10866POPC   PO467224   1.944  22.177   5.855
10866POPC   GL167225   2.000  22.138   6.155
10866POPC   GL267226   1.925  22.242   6.155
10866POPC   C1A67227   2.003  22.190   6.455
10866POPC   D2A67228   1.977  22.191   6.755
10866POPC   C3A67229   1.946  22.205   7.055
10866POPC   C4A67230   1.978  22.203   7.355
10866POPC   C1B67231   1.924  22.371   6.455
10866POPC   C2B67232   1.970  22.391   6.755
10866POPC   C3B67233   1.950  22.413   7.055
10866POPC   C4B67234   1.963  22.356   7.355
10867POPC   NC367235  36.096  44.702   5.555
10867POPC   PO467236  36.099  44.688   5.855
10867POPC   GL167237  36.087  44.651   6.155
10867POPC   GL267238  36.087  44.752   6.155
10867POPC   C1A67239  36.138  44.624   6.455
10867POPC   D2A67240  36.118  44.688   6.755
10867POPC   C3A67241  36.165  44.698   7.055
10867POPC   C4A67242  36.152  44.662   7.355
10867POPC   C1B67243  36.108  44.901   6.455
10867POPC   C2B67244  36.092  44.897   6.755
10867POPC   C3B67245  36.147  44.867   7.055
10867POPC   C4B67246  36.171  44.870   7.355
10868POPC   NC367247   0.467   5.108   5.555
10868POPC   PO467248   0.419   5.044   5.855
10868POPC   GL167249   0.451   5.086   6.155
10868POPC   GL267250   0.399   5.182   6.155
10868POPC   C1A67251   0.454   5.104   6.455
10868POPC   D2A67252   0.456   5.131   6.755
10868POPC   C3A67253   0.486   5.109   7.055
10868POPC   C4A67254   0.473   5.046   7.355
10868POPC   C1B67255   0.368   5.302   6.455
10868POPC   C2B67256   0.396   5.294   6.755
10868POPC   C3B67257   0.369   5.369   7.055
10868POPC   C4B67258   0.436   5.379   7.355
10869POPC   NC367259  44.706  41.556   5.555
10869POPC   PO467260  44.637  41.531   5.855
10869POPC   GL167261  44.675  41.572   6.155
10869POPC   GL267262  44.736  41.543   6.155
10869POPC   C1A67263  44.643  41.545   6.455
10869POPC   D2A67264  44.688  41.510   6.755
10869POPC   C3A67265  44.665  41.535   7.055
10869POPC   C4A67266  44.634  41.603   7.355
10869POPC   C1B67267  44.950  41.589   6.455
10869POPC   C2B67268  44.922  41.630   6.755
10869POPC   C3B67269  44.862  41.593   7.055
10869POPC   C4B67270  44.951  41.610   7.355
10870POPC   NC367271   6.693  38.431   5.555
10870POPC   PO467272   6.610  38.447   5.855
10870POPC   GL167273   6.621  38.437   6.155
10870POPC   GL267274   6.689  38.539   6.155
10870POPC   C1A67275   6.664  38.444   6.455
10870POPC   D2A67276   6.641  38.499   6.755
10870POPC   C3A67277   6.615  38.451   7.055
10870POPC   C4A67278   6.605  38.463   7.355
10870POPC   C1B67279   6.667  38.664   6.455
10870POPC   C2B67280   6.646  38.731   6.755
10870POPC   C3B67281   6.697  38.672   7.055
10870POPC   C4B67282   6.691  38.673   7.355
10871POPC   NC367283   1.255  15.971   5.555
10871POPC   PO467284   1.241  15.949   5.855
10871POPC   GL167285   1.217  15.959   6.155
10871POPC   GL267286   1.279  15.876   6.155
10871POPC   C1A67287   1.182  15.949   6.455
10871POPC   D2A67288   1.214  15.929   6.755
10871POPC   C3A67289   1.222  16.001   7.055
10871POPC   C4A67290   1.230  15.946   7.355
10871POPC   C1B67291   1.295  15.684   6.455
10871POPC   C2B67292   1.235  15.672   6.755
10871POPC   C3B67293   1.306  15.742   7.055
10871POPC   C4B67294   1.299  15.710   7.355
10872POPC   NC367295  19.053  16.772   5.555
10872POPC   PO467296  19.009  16.731   5.855
10872POPC   GL167297  19.032  16.740   6.155
10872POPC   GL267298  19.120  16.814   6.155
10872POPC   C1A67299  19.055  16.727   6.455
10872POPC   D2A67300  19.065  16.703   6.755
10872POPC   C3A67301  19.087  16.768   7.055
10872POPC   C4A67302  19.109  16.726   7.355
10872POPC   C1B67303  19.203  16.895   6.455
10872POPC   C2B67304  19.241  16.939   6.755
10872POPC   C3B67305  19.242  16.945   7.055
10872POPC   C4B67306  19.181  16.914   7.355
10873POPC   NC367307  31.505  19.876   5.555
10873POPC   PO467308  31.489  19.819   5.855
10873POPC   GL167309  31.491  19.860   6.155
10873POPC   GL267310  31.539  19.726   6.155
10873POPC   C1A67311  31.438  19.869   6.455
10873POPC   D2A67312  31.425  19.838   6.755
10873POPC   C3A67313  31.485  19.792   7.055
10873POPC   C4A67314  31.463  19.797   7.355
10873POPC   C1B67315  31.525  19.620   6.455
10873POPC   C2B67316  31.567  19.557   6.755
10873POPC   C3B67317  31.553  19.586   7.055
10873POPC   C4B67318  31.579  19.634   7.355
10874POPC   NC367319  11.327  23.692   5.555
10874POPC   PO467320  11.332  23.713   5.855
10874POPC   GL167321  11.342  23.742   6.155
10874POPC   GL267322  11.314  23.794   6.155
10874POPC   C1A67323  11.320  23.708   6.455
10874POPC   D2A67324  11.332  23.681   6.755
10874POPC   C3A67325  11.313  23.731   7.055
10874POPC   C4A67326  11.345  23.667   7.355
10874POPC   C1B67327  11.347  23.905   6.455
10874POPC   C2B67328  11.340  23.936   6.755
10874POPC   C3B67329  11.400  23.905   7.055
10874POPC   C4B67330  11.363  23.976   7.355
10875POPC   NC367331  32.287  29.928   5.555
10875POPC   PO467332  32.232  29.882   5.855
10875POPC   GL167333  32.207  29.889   6.155
10875POPC   GL267334  32.243  29.834   6.155
10875POPC   C1A67335  32.262  29.927   6.455
10875POPC   D2A67336  32.274  29.936   6.755
10875POPC   C3A67337  32.260  29.930   7.055
10875POPC   C4A67338  32.298  29.942   7.355
10875POPC   C1B67339  32.209  29.687   6.455
10875POPC   C2B67340  32.167  29.681   6.755
10875POPC   C3B67341  32.201  29.680   7.055
10875POPC   C4B67342  32.173  29.627   7.355
10876POPC   NC367343  36.093   1.944   5.555
10876POPC   PO467344  36.079   1.949   5.855
10876POPC   GL167345  36.112   1.942   6.155
10876POPC   GL267346  36.229   1.982   6.155
10876POPC   C1A67347  36.140   1.966   6.455
10876POPC   D2A67348  36.132   2.037   6.755
10876POPC   C3A67349  36.157   1.940   7.055
10876POPC   C4A67350  36.170   1.942   7.355
10876POPC   C1B67351  36.413   2.071   6.455
10876POPC   C2B67352  36.344   2.051   6.755
10876POPC   C3B67353  36.396   2.020   7.055
10876POPC   C4B67354  36.374   2.071   7.355
10877POPC   NC367355  20.587  43.845   5.555
10877POPC   PO467356  20.583  43.909   5.855
10877POPC   GL167357  20.651  43.918   6.155
10877POPC   GL267358  20.749  43.887   6.155
10877POPC   C1A67359  20.616  43.882   6.455
10877POPC   D2A67360  20.583  43.889   6.755
10877POPC   C3A67361  20.584  43.928   7.055
10877POPC   C4A67362  20.576  43.903   7.355
10877POPC   C1B67363  20.850  43.915   6.455
10877POPC   C2B67364  20.890  43.942   6.755
10877POPC   C3B67365  20.821  43.904   7.055
10877POPC   C4B67366  20.814  43.950   7.355
10878POPC   NC367367  25.275  31.487   5.555
10878POPC   PO467368  25.268  31.516   5.855
10878POPC   GL167369  25.297  31.507   6.155
10878POPC   GL267370  25.201  31.313   6.155
10878POPC   C1A67371  25.306  31.493   6.455
10878POPC   D2A67372  25.244  31.442   6.755
10878POPC   C3A67373  25.261  31.444   7.055
10878POPC   C4A67374  25.300  31.484   7.355
10878POPC   C1B67375  25.149  31.236   6.455
10878POPC   C2B67376  25.207  31.246   6.755
10878POPC   C3B67377  25.188  31.226   7.055
10878POPC   C4B67378  25.117  31.217   7.355
10879POPC   NC367379  18.324  31.515   5.555
10879POPC   PO467380  18.292  31.438   5.855
10879POPC   GL167381  18.308  31.474   6.155
10879POPC   GL267382  18.435  31.551   6.155
10879POPC   C1A67383  18.289  31.461   6.455
10879POPC   D2A67384  18.290  31.444   6.755
10879POPC   C3A67385  18.288  31.456   7.055
10879POPC   C4A67386  18.283  31.510   7.355
10879POPC   C1B67387  18.511  31.647   6.455
10879POPC   C2B67388  18.483  31.613   6.755
10879POPC   C3B67389  18.449  31.583   7.055
10879POPC   C4B67390  18.535  31.601   7.355
10880POPC   NC367391  43.150  23.722   5.555
10880POPC   PO467392  43.131  23.700   5.855
10880POPC   GL167393  43.157  23.678   6.155
10880POPC   GL267394  43.211  23.782   6.155
10880POPC   C1A67395  43.121  23.739   6.455
10880POPC   D2A67396  43.142  23.695   6.755
10880POPC   C3A67397  43.148  23.746   7.055
10880POPC   C4A67398  43.069  23.676   7.355
10880POPC   C1B67399  43.287  23.933   6.455
10880POPC   C2B67400  43.272  23.954   6.755
10880POPC   C3B67401  43.226  23.941   7.055
10880POPC   C4B67402  43.266  23.934   7.355
10881POPC   NC367403  25.997  32.203   5.555
10881POPC   PO467404  26.016  32.286   5.855
10881POPC   GL167405  26.004  32.237   6.155
10881POPC   GL267406  26.020  32.116   6.155
10881POPC   C1A67407  26.032  32.281   6.455
10881POPC   D2A67408  26.074  32.263   6.755
10881POPC   C3A67409  26.071  32.282   7.055
10881POPC   C4A67410  26.034  32.275   7.355
10881POPC   C1B67411  25.922  32.075   6.455
10881POPC   C2B67412  25.934  32.006   6.755
10881POPC   C3B67413  25.876  31.996   7.055
10881POPC   C4B67414  25.903  31.995   7.355
10882POPC   NC367415   8.213  43.881   5.555
10882POPC   PO467416   8.239  43.844   5.855
10882POPC   GL167417   8.169  43.871   6.155
10882POPC   GL267418   8.155  43.975   6.155
10882POPC   C1A67419   8.241  43.935   6.455
10882POPC   D2A67420   8.185  43.924   6.755
10882POPC   C3A67421   8.217  43.909   7.055
10882POPC   C4A67422   8.167  43.847   7.355
10882POPC   C1B67423   8.124  44.105   6.455
10882POPC   C2B67424   8.152  44.131   6.755
10882POPC   C3B67425   8.136  44.144   7.055
10882POPC   C4B67426   8.205  44.177   7.355
10883POPC   NC367427   8.167   1.171   5.555
10883POPC   PO467428   8.226   1.235   5.855
10883POPC   GL167429   8.214   1.263   6.155
10883POPC   GL267430   8.284   1.198   6.155
10883POPC   C1A67431   8.204   1.185   6.455
10883POPC   D2A67432   8.245   1.247   6.755
10883POPC   C3A67433   8.159   1.190   7.055
10883POPC   C4A67434   8.172   1.239   7.355
10883POPC   C1B67435   8.483   1.297   6.455
10883POPC   C2B67436   8.470   1.307   6.755
10883POPC   C3B67437   8.481   1.307   7.055
10883POPC   C4B67438   8.491   1.251   7.355
10884POPC   NC367439  29.964   5.132   5.555
10884POPC   PO467440  29.951   5.115   5.855
10884POPC   GL167441  29.912   5.069   6.155
10884POPC   GL267442  30.055   5.037   6.155
10884POPC   C1A67443  29.913   5.071   6.455
10884POPC   D2A67444  29.951   5.070   6.755
10884POPC   C3A67445  29.958   5.054   7.055
10884POPC   C4A67446  29.924   5.111   7.355
10884POPC   C1B67447  30.191   5.067   6.455
10884POPC   C2B67448  30.189   5.020   6.755
10884POPC   C3B67449  30.124   5.071   7.055
10884POPC   C4B67450  30.166   5.046   7.355
10885POPC   NC367451  40.054  42.357   5.555
10885POPC   PO467452  39.975  42.321   5.855
10885POPC   GL167453  40.019  42.341   6.155
10885POPC   GL267454  40.126  42.422   6.155
10885POPC   C1A67455  40.043  42.362   6.455
10885POPC   D2A67456  39.977  42.359   6.755
10885POPC   C3A67457  39.994  42.334   7.055
10885POPC   C4A67458  40.015  42.343   7.355
10885POPC   C1B67459  40.196  42.413   6.455
10885POPC   C2B67460  40.246  42.367   6.755
10885POPC   C3B67461  40.288  42.408   7.055
10885POPC   C4B67462  40.242  42.445   7.355
10886POPC   NC367463  17.552  16.731   5.555
10886POPC   PO467464  17.546  16.702   5.855
10886POPC   GL167465  17.463  16.774   6.155
10886POPC   GL267466  17.443  16.840   6.155
10886POPC   C1A67467  17.477  16.779   6.455
10886POPC   D2A67468  17.545  16.738   6.755
10886POPC   C3A67469  17.524  16.690   7.055
10886POPC   C4A67470  17.511  16.734   7.355
10886POPC   C1B67471  17.364  16.908   6.455
10886POPC   C2B67472  17.367  16.910   6.755
10886POPC   C3B67473  17.388  16.911   7.055
10886POPC   C4B67474  17.377  16.969   7.355
10887POPC   NC367475  36.929   0.430   5.555
10887POPC   PO467476  36.908   0.459   5.855
10887POPC   GL167477  36.887   0.429   6.155
10887POPC   GL267478  37.036   0.453   6.155
10887POPC   C1A67479  36.926   0.397   6.455
10887POPC   D2A67480  36.927   0.472   6.755
10887POPC   C3A67481  36.910   0.401   7.055
10887POPC   C4A67482  36.908   0.468   7.355
10887POPC   C1B67483  37.123   0.407   6.455
10887POPC   C2B67484  37.147   0.384   6.755
10887POPC   C3B67485  37.173   0.382   7.055
10887POPC   C4B67486  37.193   0.432   7.355
10888POPC   NC367487  37.631   3.528   5.555
10888POPC   PO467488  37.706   3.585   5.855
10888POPC   GL167489  37.648   3.563   6.155
10888POPC   GL267490  37.848   3.510   6.155
10888POPC   C1A67491  37.673   3.526   6.455
10888POPC   D2A67492  37.723   3.546   6.755
10888POPC   C3A67493  37.718   3.572   7.055
10888POPC   C4A67494  37.647   3.557   7.355
10888POPC   C1B67495  37.917   3.474   6.455
10888POPC   C2B67496  37.878   3.460   6.755
10888POPC   C3B67497  37.919   3.464   7.055
10888POPC   C4B67498  37.915   3.504   7.355
10889POPC   NC367499  37.679   2.801   5.555
10889POPC   PO467500  37.696   2.736   5.855
10889POPC   GL167501  37.683   2.813   6.155
10889POPC   GL267502  37.626   2.870   6.155
10889POPC   C1A67503  37.658   2.746   6.455
10889POPC   D2A67504  37.682   2.744   6.755
10889POPC   C3A67505  37.662   2.776   7.055
10889POPC   C4A67506  37.657   2.794   7.355
10889POPC   C1B67507  37.510   2.911   6.455
10889POPC   C2B67508  37.485   2.973   6.755
10889POPC   C3B67509  37.542   2.959   7.055
10889POPC   C4B67510  37.533   2.922   7.355
10890POPC   NC367511  19.081  10.476   5.555
10890POPC   PO467512  19.054  10.485   5.855
10890POPC   GL167513  19.032  10.513   6.155
10890POPC   GL267514  19.090  10.395   6.155
10890POPC   C1A67515  19.021  10.511   6.455
10890POPC   D2A67516  19.096  10.533   6.755
10890POPC   C3A67517  19.061  10.476   7.055
10890POPC   C4A67518  19.024  10.542   7.355
10890POPC   C1B67519  19.229  10.345   6.455
10890POPC   C2B67520  19.185  10.366   6.755
10890POPC   C3B67521  19.169  10.309   7.055
10890POPC   C4B67522  19.197  10.336   7.355
10891POPC   NC367523   4.272   1.982   5.555
10891POPC   PO467524   4.314   1.966   5.855
10891POPC   GL167525   4.309   2.002   6.155
10891POPC   GL267526   4.234   2.021   6.155
10891POPC   C1A67527   4.309   1.957   6.455
10891POPC   D2A67528   4.285   2.007   6.755
10891POPC   C3A67529   4.290   1.964   7.055
10891POPC   C4A67530   4.313   1.984   7.355
10891POPC   C1B67531   4.041   2.041   6.455
10891POPC   C2B67532   4.076   2.074   6.755
10891POPC   C3B67533   4.090   2.052   7.055
10891POPC   C4B67534   4.109   2.029   7.355
10892POPC   NC367535  28.394  22.144   5.555
10892POPC   PO467536  28.356  22.200   5.855
10892POPC   GL167537  28.408  22.136   6.155
10892POPC   GL267538  28.360  22.286   6.155
10892POPC   C1A67539  28.334  22.203   6.455
10892POPC   D2A67540  28.409  22.118   6.755
10892POPC   C3A67541  28.326  22.115   7.055
10892POPC   C4A67542  28.350  22.136   7.355
10892POPC   C1B67543  28.478  22.410   6.455
10892POPC   C2B67544  28.469  22.356   6.755
10892POPC   C3B67545  28.414  22.436   7.055
10892POPC   C4B67546  28.471  22.378   7.355
10893POPC   NC367547  19.017  29.117   5.555
10893POPC   PO467548  19.065  29.141   5.855
10893POPC   GL167549  19.026  29.121   6.155
10893POPC   GL267550  19.160  29.109   6.155
10893POPC   C1A67551  19.031  29.123   6.455
10893POPC   D2A67552  19.011  29.170   6.755
10893POPC   C3A67553  19.095  29.173   7.055
10893POPC   C4A67554  19.085  29.163   7.355
10893POPC   C1B67555  19.286  29.153   6.455
10893POPC   C2B67556  19.303  29.121   6.755
10893POPC   C3B67557  19.353  29.132   7.055
10893POPC   C4B67558  19.337  29.094   7.355
10894POPC   NC367559  15.158  37.705   5.555
10894POPC   PO467560  15.173  37.646   5.855
10894POPC   GL167561  15.143  37.650   6.155
10894POPC   GL267562  15.081  37.728   6.155
10894POPC   C1A67563  15.155  37.684   6.455
10894POPC   D2A67564  15.138  37.699   6.755
10894POPC   C3A67565  15.221  37.715   7.055
10894POPC   C4A67566  15.162  37.702   7.355
10894POPC   C1B67567  15.001  37.791   6.455
10894POPC   C2B67568  14.969  37.745   6.755
10894POPC   C3B67569  14.906  37.819   7.055
10894POPC   C4B67570  14.951  37.756   7.355
10895POPC   NC367571  40.780  11.264   5.555
10895POPC   PO467572  40.768  11.287   5.855
10895POPC   GL167573  40.791  11.289   6.155
10895POPC   GL267574  40.918  11.177   6.155
10895POPC   C1A67575  40.796  11.265   6.455
10895POPC   D2A67576  40.750  11.311   6.755
10895POPC   C3A67577  40.830  11.292   7.055
10895POPC   C4A67578  40.764  11.345   7.355
10895POPC   C1B67579  40.941  11.132   6.455
10895POPC   C2B67580  40.943  11.122   6.755
10895POPC   C3B67581  40.998  11.120   7.055
10895POPC   C4B67582  41.001  11.106   7.355
10896POPC   NC367583   9.703   8.222   5.555
10896POPC   PO467584   9.760   8.173   5.855
10896POPC   GL167585   9.761   8.229   6.155
10896POPC   GL267586   9.640   8.226   6.155
10896POPC   C1A67587   9.717   8.192   6.455
10896POPC   D2A67588   9.719   8.225   6.755
10896POPC   C3A67589   9.749   8.150   7.055
10896POPC   C4A67590   9.732   8.172   7.355
10896POPC   C1B67591   9.487   8.274   6.455
10896POPC   C2B67592   9.512   8.285   6.755
10896POPC   C3B67593   9.487   8.325   7.055
10896POPC   C4B67594   9.552   8.229   7.355
10897POPC   NC367595   3.524  10.549   5.555
10897POPC   PO467596   3.524  10.559   5.855
10897POPC   GL167597   3.581  10.492   6.155
10897POPC   GL267598   3.380  10.544   6.155
10897POPC   C1A67599   3.503  10.556   6.455
10897POPC   D2A67600   3.577  10.540   6.755
10897POPC   C3A67601   3.568  10.527   7.055
10897POPC   C4A67602   3.511  10.534   7.355
10897POPC   C1B67603   3.313  10.541   6.455
10897POPC   C2B67604   3.304  10.601   6.755
10897POPC   C3B67605   3.250  10.515   7.055
10897POPC   C4B67606   3.275  10.556   7.355
10898POPC   NC367607  26.860  36.106   5.555
10898POPC   PO467608  26.853  36.099   5.855
10898POPC   GL167609  26.781  36.112   6.155
10898POPC   GL267610  26.906  36.085   6.155
10898POPC   C1A67611  26.805  36.081   6.455
10898POPC   D2A67612  26.768  36.177   6.755
10898POPC   C3A67613  26.800  36.162   7.055
10898POPC   C4A67614  26.811  36.128   7.355
10898POPC   C1B67615  27.104  36.141   6.455
10898POPC   C2B67616  27.032  36.119   6.755
10898POPC   C3B67617  27.091  36.067   7.055
10898POPC   C4B67618  27.060  36.139   7.355
10899POPC   NC367619  18.331  35.308   5.555
10899POPC   PO467620  18.322  35.398   5.855
10899POPC   GL167621  18.251  35.309   6.155
10899POPC   GL267622  18.420  35.371   6.155
10899POPC   C1A67623  18.245  35.351   6.455
10899POPC   D2A67624  18.309  35.397   6.755
10899POPC   C3A67625  18.234  35.306   7.055
10899POPC   C4A67626  18.309  35.365   7.355
10899POPC   C1B67627  18.486  35.401   6.455
10899POPC   C2B67628  18.495  35.422   6.755
10899POPC   C3B67629  18.562  35.375   7.055
10899POPC   C4B67630  18.495  35.433   7.355
10900POPC   NC367631  14.438   4.303   5.555
10900POPC   PO467632  14.423   4.269   5.855
10900POPC   GL167633  14.418   4.270   6.155
10900POPC   GL267634  14.250   4.296   6.155
10900POPC   C1A67635  14.399   4.293   6.455
10900POPC   D2A67636  14.429   4.327   6.755
10900POPC   C3A67637  14.383   4.359   7.055
10900POPC   C4A67638  14.383   4.361   7.355
10900POPC   C1B67639  14.153   4.286   6.455
10900POPC   C2B67640  14.196   4.279   6.755
10900POPC   C3B67641  14.145   4.320   7.055
10900POPC   C4B67642  14.171   4.320   7.355
10901POPC   NC367643  15.156   1.985   5.555
10901POPC   PO467644  15.154   1.968   5.855
10901POPC   GL167645  15.226   1.947   6.155
10901POPC   GL267646  15.035   1.968   6.155
10901POPC   C1A67647  15.204   1.997   6.455
10901POPC   D2A67648  15.148   1.953   6.755
10901POPC   C3A67649  15.179   1.995   7.055
10901POPC   C4A67650  15.131   2.028   7.355
10901POPC   C1B67651  14.971   2.001   6.455
10901POPC   C2B67652  14.939   2.017   6.755
10901POPC   C3B67653  14.973   2.016   7.055
10901POPC   C4B67654  14.961   1.997   7.355
10902POPC   NC367655  25.273  16.749   5.555
10902POPC   PO467656  25.311  16.738   5.855
10902POPC   GL167657  25.237  16.750   6.155
10902POPC   GL267658  25.209  16.837   6.155
10902POPC   C1A67659  25.310  16.750   6.455
10902POPC   D2A67660  25.251  16.719   6.755
10902POPC   C3A67661  25.274  16.731   7.055
10902POPC   C4A67662  25.221  16.758   7.355
10902POPC   C1B67663  25.074  16.883   6.455
10902POPC   C2B67664  25.121  16.948   6.755
10902POPC   C3B67665  25.074  16.863   7.055
10902POPC   C4B67666  25.074  16.948   7.355
10903POPC   NC367667  27.568  41.542   5.555
10903POPC   PO467668  27.590  41.557   5.855
10903POPC   GL167669  27.555  41.513   6.155
10903POPC   GL267670  27.519  41.622   6.155
10903POPC   C1A67671  27.626  41.569   6.455
10903POPC   D2A67672  27.617  41.545   6.755
10903POPC   C3A67673  27.617  41.600   7.055
10903POPC   C4A67674  27.615  41.594   7.355
10903POPC   C1B67675  27.461  41.768   6.455
10903POPC   C2B67676  27.514  41.732   6.755
10903POPC   C3B67677  27.429  41.780   7.055
10903POPC   C4B67678  27.465  41.799   7.355
10904POPC   NC367679  19.820   8.964   5.555
10904POPC   PO467680  19.873   9.018   5.855
10904POPC   GL167681  19.847   8.975   6.155
10904POPC   GL267682  19.774   8.891   6.155
10904POPC   C1A67683  19.801   8.993   6.455
10904POPC   D2A67684  19.852   8.976   6.755
10904POPC   C3A67685  19.828   8.990   7.055
10904POPC   C4A67686  19.857   9.016   7.355
10904POPC   C1B67687  19.773   8.746   6.455
10904POPC   C2B67688  19.726   8.696   6.755
10904POPC   C3B67689  19.778   8.776   7.055
10904POPC   C4B67690  19.724   8.705   7.355
10905POPC   NC367691   5.078  14.409   5.555
10905POPC   PO467692   5.132  14.377   5.855
10905POPC   GL167693   5.079  14.411   6.155
10905POPC   GL267694   5.232  14.377   6.155
10905POPC   C1A67695   5.119  14.368   6.455
10905POPC   D2A67696   5.057  14.400   6.755
10905POPC   C3A67697   5.128  14.430   7.055
10905POPC   C4A67698   5.059  14.432   7.355
10905POPC   C1B67699   5.327  14.312   6.455
10905POPC   C2B67700   5.307  14.270   6.755
10905POPC   C3B67701   5.295  14.269   7.055
10905POPC   C4B67702   5.364  14.262   7.355
10906POPC   NC367703   3.515   8.977   5.555
10906POPC   PO467704   3.557   8.941   5.855
10906POPC   GL167705   3.557   8.973   6.155
10906POPC   GL267706   3.701   8.991   6.155
10906POPC   C1A67707   3.568   8.999   6.455
10906POPC   D2A67708   3.531   8.942   6.755
10906POPC   C3A67709   3.542   8.923   7.055
10906POPC   C4A67710   3.498   8.953   7.355
10906POPC   C1B67711   3.750   9.067   6.455
10906POPC   C2B67712   3.794   9.029   6.755
10906POPC   C3B67713   3.775   9.083   7.055
10906POPC   C4B67714   3.736   9.002   7.355
10907POPC   NC367715   2.741  33.028   5.555
10907POPC   PO467716   2.792  33.017   5.855
10907POPC   GL167717   2.729  33.070   6.155
10907POPC   GL267718   2.863  32.973   6.155
10907POPC   C1A67719   2.773  32.996   6.455
10907POPC   D2A67720   2.792  32.985   6.755
10907POPC   C3A67721   2.735  32.987   7.055
10907POPC   C4A67722   2.775  32.987   7.355
10907POPC   C1B67723   2.893  32.880   6.455
10907POPC   C2B67724   2.939  32.849   6.755
10907POPC   C3B67725   2.958  32.833   7.055
10907POPC   C4B67726   2.943  32.881   7.355
10908POPC   NC367727   1.172  33.788   5.555
10908POPC   PO467728   1.250  33.845   5.855
10908POPC   GL167729   1.264  33.811   6.155
10908POPC   GL267730   1.348  33.846   6.155
10908POPC   C1A67731   1.225  33.833   6.455
10908POPC   D2A67732   1.203  33.763   6.755
10908POPC   C3A67733   1.234  33.783   7.055
10908POPC   C4A67734   1.260  33.833   7.355
10908POPC   C1B67735   1.421  33.799   6.455
10908POPC   C2B67736   1.433  33.856   6.755
10908POPC   C3B67737   1.418  33.807   7.055
10908POPC   C4B67738   1.500  33.833   7.355
10909POPC   NC367739   5.866  37.700   5.555
10909POPC   PO467740   5.872  37.715   5.855
10909POPC   GL167741   5.902  37.696   6.155
10909POPC   GL267742   5.830  37.803   6.155
10909POPC   C1A67743   5.858  37.674   6.455
10909POPC   D2A67744   5.918  37.631   6.755
10909POPC   C3A67745   5.853  37.683   7.055
10909POPC   C4A67746   5.876  37.640   7.355
10909POPC   C1B67747   5.741  37.820   6.455
10909POPC   C2B67748   5.656  37.815   6.755
10909POPC   C3B67749   5.724  37.862   7.055
10909POPC   C4B67750   5.650  37.880   7.355
10910POPC   NC367751  32.233  19.831   5.555
10910POPC   PO467752  32.272  19.793   5.855
10910POPC   GL167753  32.205  19.882   6.155
10910POPC   GL267754  32.147  19.686   6.155
10910POPC   C1A67755  32.279  19.846   6.455
10910POPC   D2A67756  32.257  19.798   6.755
10910POPC   C3A67757  32.246  19.806   7.055
10910POPC   C4A67758  32.274  19.803   7.355
10910POPC   C1B67759  32.112  19.560   6.455
10910POPC   C2B67760  32.131  19.567   6.755
10910POPC   C3B67761  32.153  19.656   7.055
10910POPC   C4B67762  32.171  19.647   7.355
10911POPC   NC367763  19.852  15.130   5.555
10911POPC   PO467764  19.869  15.215   5.855
10911POPC   GL167765  19.831  15.224   6.155
10911POPC   GL267766  19.791  15.329   6.155
10911POPC   C1A67767  19.856  15.134   6.455
10911POPC   D2A67768  19.874  15.136   6.755
10911POPC   C3A67769  19.788  15.135   7.055
10911POPC   C4A67770  19.808  15.135   7.355
10911POPC   C1B67771  19.747  15.378   6.455
10911POPC   C2B67772  19.713  15.433   6.755
10911POPC   C3B67773  19.748  15.407   7.055
10911POPC   C4B67774  19.708  15.374   7.355
10912POPC   NC367775  39.240  29.184   5.555
10912POPC   PO467776  39.227  29.172   5.855
10912POPC   GL167777  39.248  29.133   6.155
10912POPC   GL267778  39.156  29.062   6.155
10912POPC   C1A67779  39.237  29.100   6.455
10912POPC   D2A67780  39.261  29.180   6.755
10912POPC   C3A67781  39.201  29.190   7.055
10912POPC   C4A67782  39.249  29.149   7.355
10912POPC   C1B67783  38.994  29.002   6.455
10912POPC   C2B67784  38.994  29.006   6.755
10912POPC   C3B67785  39.045  29.009   7.055
10912POPC   C4B67786  38.996  29.091   7.355
10913POPC   NC367787  43.913  32.214   5.555
10913POPC   PO467788  43.922  32.251   5.855
10913POPC   GL167789  43.892  32.214   6.155
10913POPC   GL267790  43.797  32.182   6.155
10913POPC   C1A67791  43.905  32.264   6.455
10913POPC   D2A67792  43.862  32.236   6.755
10913POPC   C3A67793  43.935  32.284   7.055
10913POPC   C4A67794  43.861  32.227   7.355
10913POPC   C1B67795  43.718  31.990   6.455
10913POPC   C2B67796  43.732  32.010   6.755
10913POPC   C3B67797  43.803  31.992   7.055
10913POPC   C4B67798  43.734  32.032   7.355
10914POPC   NC367799  26.808   6.616   5.555
10914POPC   PO467800  26.867   6.657   5.855
10914POPC   GL167801  26.771   6.678   6.155
10914POPC   GL267802  26.813   6.760   6.155
10914POPC   C1A67803  26.772   6.655   6.455
10914POPC   D2A67804  26.843   6.603   6.755
10914POPC   C3A67805  26.772   6.694   7.055
10914POPC   C4A67806  26.788   6.635   7.355
10914POPC   C1B67807  26.851   6.838   6.455
10914POPC   C2B67808  26.917   6.901   6.755
10914POPC   C3B67809  26.853   6.861   7.055
10914POPC   C4B67810  26.895   6.932   7.355
10915POPC   NC367811  21.436   0.432   5.555
10915POPC   PO467812  21.416   0.428   5.855
10915POPC   GL167813  21.394   0.487   6.155
10915POPC   GL267814  21.508   0.449   6.155
10915POPC   C1A67815  21.353   0.432   6.455
10915POPC   D2A67816  21.423   0.459   6.755
10915POPC   C3A67817  21.372   0.463   7.055
10915POPC   C4A67818  21.425   0.476   7.355
10915POPC   C1B67819  21.633   0.435   6.455
10915POPC   C2B67820  21.684   0.421   6.755
10915POPC   C3B67821  21.675   0.452   7.055
10915POPC   C4B67822  21.594   0.420   7.355
10916POPC   NC367823  37.643  40.823   5.555
10916POPC   PO467824  37.636  40.828   5.855
10916POPC   GL167825  37.706  40.787   6.155
10916POPC   GL267826  37.767  40.720   6.155
10916POPC   C1A67827  37.721  40.802   6.455
10916POPC   D2A67828  37.657  40.824   6.755
10916POPC   C3A67829  37.661  40.775   7.055
10916POPC   C4A67830  37.663  40.786   7.355
10916POPC   C1B67831  37.797  40.533   6.455
10916POPC   C2B67832  37.745  40.600   6.755
10916POPC   C3B67833  37.779  40.546   7.055
10916POPC   C4B67834  37.748  40.533   7.355
10917POPC   NC367835  39.238  12.893   5.555
10917POPC   PO467836  39.208  12.894   5.855
10917POPC   GL167837  39.254  12.831   6.155
10917POPC   GL267838  39.156  12.929   6.155
10917POPC   C1A67839  39.219  12.850   6.455
10917POPC   D2A67840  39.201  12.879   6.755
10917POPC   C3A67841  39.277  12.845   7.055
10917POPC   C4A67842  39.235  12.894   7.355
10917POPC   C1B67843  39.049  13.028   6.455
10917POPC   C2B67844  39.106  13.036   6.755
10917POPC   C3B67845  39.101  13.030   7.055
10917POPC   C4B67846  39.044  13.055   7.355
10918POPC   NC367847  20.619  32.202   5.555
10918POPC   PO467848  20.618  32.229   5.855
10918POPC   GL167849  20.572  32.250   6.155
10918POPC   GL267850  20.519  32.255   6.155
10918POPC   C1A67851  20.657  32.288   6.455
10918POPC   D2A67852  20.595  32.238   6.755
10918POPC   C3A67853  20.629  32.263   7.055
10918POPC   C4A67854  20.602  32.239   7.355
10918POPC   C1B67855  20.397  32.181   6.455
10918POPC   C2B67856  20.394  32.216   6.755
10918POPC   C3B67857  20.350  32.185   7.055
10918POPC   C4B67858  20.339  32.147   7.355
10919POPC   NC367859  33.840   7.375   5.555
10919POPC   PO467860  33.812   7.442   5.855
10919POPC   GL167861  33.845   7.417   6.155
10919POPC   GL267862  33.760   7.549   6.155
10919POPC   C1A67863  33.826   7.430   6.455
10919POPC   D2A67864  33.840   7.418   6.755
10919POPC   C3A67865  33.822   7.447   7.055
10919POPC   C4A67866  33.752   7.422   7.355
10919POPC   C1B67867  33.666   7.662   6.455
10919POPC   C2B67868  33.631   7.585   6.755
10919POPC   C3B67869  33.688   7.655   7.055
10919POPC   C4B67870  33.641   7.666   7.355
10920POPC   NC367871  43.150  31.429   5.555
10920POPC   PO467872  43.152  31.461   5.855
10920POPC   GL167873  43.068  31.460   6.155
10920POPC   GL267874  43.227  31.453   6.155
10920POPC   C1A67875  43.133  31.442   6.455
10920POPC   D2A67876  43.067  31.493   6.755
10920POPC   C3A67877  43.093  31.482   7.055
10920POPC   C4A67878  43.112  31.428   7.355
10920POPC   C1B67879  43.316  31.331   6.455
10920POPC   C2B67880  43.294  31.378   6.755
10920POPC   C3B67881  43.379  31.398   7.055
10920POPC   C4B67882  43.332  31.364   7.355
10921POPC   NC367883  40.032  31.520   5.555
10921POPC   PO467884  40.022  31.432   5.855
10921POPC   GL167885  39.967  31.443   6.155
10921POPC   GL267886  39.861  31.380   6.155
10921POPC   C1A67887  39.960  31.515   6.455
10921POPC   D2A67888  40.011  31.492   6.755
10921POPC   C3A67889  39.969  31.454   7.055
10921POPC   C4A67890  39.998  31.487   7.355
10921POPC   C1B67891  39.794  31.384   6.455
10921POPC   C2B67892  39.832  31.371   6.755
10921POPC   C3B67893  39.765  31.316   7.055
10921POPC   C4B67894  39.814  31.305   7.355
10922POPC   NC367895  20.576  29.190   5.555
10922POPC   PO467896  20.568  29.121   5.855
10922POPC   GL167897  20.627  29.148   6.155
10922POPC   GL267898  20.631  29.260   6.155
10922POPC   C1A67899  20.658  29.173   6.455
10922POPC   D2A67900  20.613  29.110   6.755
10922POPC   C3A67901  20.564  29.112   7.055
10922POPC   C4A67902  20.590  29.186   7.355
10922POPC   C1B67903  20.616  29.406   6.455
10922POPC   C2B67904  20.560  29.445   6.755
10922POPC   C3B67905  20.623  29.346   7.055
10922POPC   C4B67906  20.593  29.352   7.355
10923POPC   NC367907  40.033  23.708   5.555
10923POPC   PO467908  40.000  23.755   5.855
10923POPC   GL167909  39.992  23.675   6.155
10923POPC   GL267910  39.921  23.667   6.155
10923POPC   C1A67911  40.001  23.708   6.455
10923POPC   D2A67912  39.963  23.688   6.755
10923POPC   C3A67913  40.014  23.736   7.055
10923POPC   C4A67914  40.055  23.691   7.355
10923POPC   C1B67915  39.793  23.539   6.455
10923POPC   C2B67916  39.870  23.552   6.755
10923POPC   C3B67917  39.790  23.519   7.055
10923POPC   C4B67918  39.780  23.523   7.355
10924POPC   NC367919  37.636  12.068   5.555
10924POPC   PO467920  37.678  12.040   5.855
10924POPC   GL167921  37.695  12.123   6.155
10924POPC   GL267922  37.560  12.204   6.155
10924POPC   C1A67923  37.717  12.030   6.455
10924POPC   D2A67924  37.688  12.038   6.755
10924POPC   C3A67925  37.687  12.034   7.055
10924POPC   C4A67926  37.661  12.121   7.355
10924POPC   C1B67927  37.534  12.275   6.455
10924POPC   C2B67928  37.516  12.263   6.755
10924POPC   C3B67929  37.539  12.211   7.055
10924POPC   C4B67930  37.495  12.241   7.355
10925POPC   NC367931   8.235  36.858   5.555
10925POPC   PO467932   8.199  36.859   5.855
10925POPC   GL167933   8.209  36.914   6.155
10925POPC   GL267934   8.190  37.045   6.155
10925POPC   C1A67935   8.245  36.883   6.455
10925POPC   D2A67936   8.221  36.879   6.755
10925POPC   C3A67937   8.227  36.935   7.055
10925POPC   C4A67938   8.152  36.913   7.355
10925POPC   C1B67939   8.157  37.118   6.455
10925POPC   C2B67940   8.128  37.156   6.755
10925POPC   C3B67941   8.091  37.173   7.055
10925POPC   C4B67942   8.161  37.127   7.355
10926POPC   NC367943  19.062  11.314   5.555
10926POPC   PO467944  19.052  11.272   5.855
10926POPC   GL167945  19.069  11.330   6.155
10926POPC   GL267946  19.173  11.254   6.155
10926POPC   C1A67947  19.072  11.342   6.455
10926POPC   D2A67948  19.034  11.323   6.755
10926POPC   C3A67949  19.015  11.335   7.055
10926POPC   C4A67950  19.080  11.282   7.355
10926POPC   C1B67951  19.292  11.261   6.455
10926POPC   C2B67952  19.260  11.280   6.755
10926POPC   C3B67953  19.326  11.191   7.055
10926POPC   C4B67954  19.278  11.286   7.355
10927POPC   NC367955  35.375  21.339   5.555
10927POPC   PO467956  35.401  21.397   5.855
10927POPC   GL167957  35.342  21.396   6.155
10927POPC   GL267958  35.452  21.513   6.155
10927POPC   C1A67959  35.328  21.353   6.455
10927POPC   D2A67960  35.309  21.372   6.755
10927POPC   C3A67961  35.323  21.387   7.055
10927POPC   C4A67962  35.390  21.372   7.355
10927POPC   C1B67963  35.520  21.655   6.455
10927POPC   C2B67964  35.508  21.567   6.755
10927POPC   C3B67965  35.521  21.636   7.055
10927POPC   C4B67966  35.482  21.577   7.355
10928POPC   NC367967  39.233  41.573   5.555
10928POPC   PO467968  39.196  41.527   5.855
10928POPC   GL167969  39.195  41.523   6.155
10928POPC   GL267970  39.226  41.651   6.155
10928POPC   C1A67971  39.240  41.556   6.455
10928POPC   D2A67972  39.266  41.514   6.755
10928POPC   C3A67973  39.219  41.523   7.055
10928POPC   C4A67974  39.193  41.539   7.355
10928POPC   C1B67975  39.114  41.778   6.455
10928POPC   C2B67976  39.100  41.738   6.755
10928POPC   C3B67977  39.095  41.815   7.055
10928POPC   C4B67978  39.145  41.774   7.355
10929POPC   NC367979  22.180   5.914   5.555
10929POPC   PO467980  22.123   5.847   5.855
10929POPC   GL167981  22.198   5.854   6.155
10929POPC   GL267982  22.042   5.874   6.155
10929POPC   C1A67983  22.207   5.868   6.455
10929POPC   D2A67984  22.144   5.823   6.755
10929POPC   C3A67985  22.207   5.896   7.055
10929POPC   C4A67986  22.126   5.864   7.355
10929POPC   C1B67987  21.924   5.843   6.455
10929POPC   C2B67988  21.883   5.829   6.755
10929POPC   C3B67989  21.947   5.811   7.055
10929POPC   C4B67990  21.880   5.796   7.355
10930POPC   NC367991  38.412  27.545   5.555
10930POPC   PO467992  38.448  27.589   5.855
10930POPC   GL167993  38.487  27.593   6.155
10930POPC   GL267994  38.312  27.478   6.155
10930POPC   C1A67995  38.486  27.591   6.455
10930POPC   D2A67996  38.419  27.559   6.755
10930POPC   C3A67997  38.407  27.626   7.055
10930POPC   C4A67998  38.478  27.606   7.355
10930POPC   C1B67999  38.259  27.493   6.455
10930POPC   C2B68000  38.204  27.447   6.755
10930POPC   C3B68001  38.269  27.472   7.055
10930POPC   C4B68002  38.218  27.450   7.355
10931POPC   NC368003  19.038  20.601   5.555
10931POPC   PO468004  19.028  20.591   5.855
10931POPC   GL168005  19.030  20.597   6.155
10931POPC   GL268006  18.897  20.587   6.155
10931POPC   C1A68007  19.009  20.629   6.455
10931POPC   D2A68008  19.063  20.587   6.755
10931POPC   C3A68009  19.073  20.584   7.055
10931POPC   C4A68010  19.043  20.569   7.355
10931POPC   C1B68011  18.767  20.583   6.455
10931POPC   C2B68012  18.784  20.638   6.755
10931POPC   C3B68013  18.767  20.584   7.055
10931POPC   C4B68014  18.801  20.643   7.355
10932POPC   NC368015  12.813  12.821   5.555
10932POPC   PO468016  12.890  12.886   5.855
10932POPC   GL168017  12.826  12.827   6.155
10932POPC   GL268018  12.954  12.828   6.155
10932POPC   C1A68019  12.886  12.856   6.455
10932POPC   D2A68020  12.820  12.811   6.755
10932POPC   C3A68021  12.866  12.808   7.055
10932POPC   C4A68022  12.883  12.857   7.355
10932POPC   C1B68023  13.116  12.888   6.455
10932POPC   C2B68024  13.091  12.883   6.755
10932POPC   C3B68025  13.149  12.848   7.055
10932POPC   C4B68026  13.123  12.906   7.355
10933POPC   NC368027  35.390  10.506   5.555
10933POPC   PO468028  35.311  10.569   5.855
10933POPC   GL168029  35.372  10.529   6.155
10933POPC   GL268030  35.302  10.642   6.155
10933POPC   C1A68031  35.376  10.574   6.455
10933POPC   D2A68032  35.366  10.542   6.755
10933POPC   C3A68033  35.366  10.485   7.055
10933POPC   C4A68034  35.338  10.506   7.355
10933POPC   C1B68035  35.322  10.797   6.455
10933POPC   C2B68036  35.376  10.739   6.755
10933POPC   C3B68037  35.369  10.814   7.055
10933POPC   C4B68038  35.297  10.759   7.355
10934POPC   NC368039  40.054  15.224   5.555
10934POPC   PO468040  39.987  15.140   5.855
10934POPC   GL168041  39.986  15.189   6.155
10934POPC   GL268042  40.051  15.238   6.155
10934POPC   C1A68043  39.984  15.197   6.455
10934POPC   D2A68044  40.011  15.160   6.755
10934POPC   C3A68045  40.020  15.156   7.055
10934POPC   C4A68046  40.025  15.196   7.355
10934POPC   C1B68047  40.157  15.323   6.455
10934POPC   C2B68048  40.224  15.317   6.755
10934POPC   C3B68049  40.131  15.321   7.055
10934POPC   C4B68050  40.202  15.349   7.355
10935POPC   NC368051   1.257   8.211   5.555
10935POPC   PO468052   1.167   8.175   5.855
10935POPC   GL168053   1.169   8.151   6.155
10935POPC   GL268054   1.055   8.156   6.155
10935POPC   C1A68055   1.221   8.198   6.455
10935POPC   D2A68056   1.221   8.227   6.755
10935POPC   C3A68057   1.230   8.212   7.055
10935POPC   C4A68058   1.230   8.243   7.355
10935POPC   C1B68059   1.019   8.132   6.455
10935POPC   C2B68060   1.018   8.099   6.755
10935POPC   C3B68061   0.965   8.154   7.055
10935POPC   C4B68062   0.931   8.114   7.355
10936POPC   NC368063  26.845  11.291   5.555
10936POPC   PO468064  26.823  11.285   5.855
10936POPC   GL168065  26.803  11.253   6.155
10936POPC   GL268066  26.978  11.301   6.155
10936POPC   C1A68067  26.858  11.267   6.455
10936POPC   D2A68068  26.785  11.267   6.755
10936POPC   C3A68069  26.834  11.337   7.055
10936POPC   C4A68070  26.828  11.321   7.355
10936POPC   C1B68071  27.029  11.287   6.455
10936POPC   C2B68072  27.030  11.236   6.755
10936POPC   C3B68073  27.058  11.227   7.055
10936POPC   C4B68074  27.038  11.287   7.355
10937POPC   NC368075  33.823  23.745   5.555
10937POPC   PO468076  33.776  23.739   5.855
10937POPC   GL168077  33.845  23.670   6.155
10937POPC   GL268078  33.679  23.762   6.155
10937POPC   C1A68079  33.774  23.710   6.455
10937POPC   D2A68080  33.809  23.761   6.755
10937POPC   C3A68081  33.795  23.666   7.055
10937POPC   C4A68082  33.766  23.756   7.355
10937POPC   C1B68083  33.549  23.725   6.455
10937POPC   C2B68084  33.521  23.732   6.755
10937POPC   C3B68085  33.586  23.699   7.055
10937POPC   C4B68086  33.554  23.739   7.355
10938POPC   NC368087  43.071   0.454   5.555
10938POPC   PO468088  43.129   0.395   5.855
10938POPC   GL168089  43.102   0.403   6.155
10938POPC   GL268090  43.048   0.331   6.155
10938POPC   C1A68091  43.071   0.391   6.455
10938POPC   D2A68092  43.098   0.399   6.755
10938POPC   C3A68093  43.071   0.467   7.055
10938POPC   C4A68094  43.137   0.444   7.355
10938POPC   C1B68095  42.847   0.350   6.455
10938POPC   C2B68096  42.905   0.342   6.755
10938POPC   C3B68097  42.867   0.313   7.055
10938POPC   C4B68098  42.861   0.346   7.355
10939POPC   NC368099  17.532   9.745   5.555
10939POPC   PO468100  17.481   9.734   5.855
10939POPC   GL168101  17.514   9.742   6.155
10939POPC   GL268102  17.604   9.746   6.155
10939POPC   C1A68103  17.472   9.767   6.455
10939POPC   D2A68104  17.464   9.731   6.755
10939POPC   C3A68105  17.537   9.780   7.055
10939POPC   C4A68106  17.467   9.776   7.355
10939POPC   C1B68107  17.758   9.736   6.455
10939POPC   C2B68108  17.707   9.757   6.755
10939POPC   C3B68109  17.784   9.764   7.055
10939POPC   C4B68110  17.744   9.792   7.355
10940POPC   NC368111  10.515  43.870   5.555
10940POPC   PO468112  10.493  43.861   5.855
10940POPC   GL168113  10.567  43.854   6.155
10940POPC   GL268114  10.464  44.031   6.155
10940POPC   C1A68115  10.534  43.857   6.455
10940POPC   D2A68116  10.481  43.928   6.755
10940POPC   C3A68117  10.517  43.842   7.055
10940POPC   C4A68118  10.571  43.909   7.355
10940POPC   C1B68119  10.376  44.136   6.455
10940POPC   C2B68120  10.361  44.114   6.755
10940POPC   C3B68121  10.404  44.053   7.055
10940POPC   C4B68122  10.349  44.059   7.355
10941POPC   NC368123  15.132  36.953   5.555
10941POPC   PO468124  15.174  36.951   5.855
10941POPC   GL168125  15.207  36.893   6.155
10941POPC   GL268126  15.104  36.858   6.155
10941POPC   C1A68127  15.159  36.897   6.455
10941POPC   D2A68128  15.137  36.907   6.755
10941POPC   C3A68129  15.151  36.895   7.055
10941POPC   C4A68130  15.154  36.948   7.355
10941POPC   C1B68131  14.976  36.849   6.455
10941POPC   C2B68132  14.934  36.799   6.755
10941POPC   C3B68133  14.991  36.763   7.055
10941POPC   C4B68134  14.989  36.797   7.355
10942POPC   NC368135  10.478   4.309   5.555
10942POPC   PO468136  10.535   4.287   5.855
10942POPC   GL168137  10.498   4.316   6.155
10942POPC   GL268138  10.648   4.274   6.155
10942POPC   C1A68139  10.506   4.303   6.455
10942POPC   D2A68140  10.550   4.352   6.755
10942POPC   C3A68141  10.536   4.304   7.055
10942POPC   C4A68142  10.568   4.326   7.355
10942POPC   C1B68143  10.814   4.261   6.455
10942POPC   C2B68144  10.797   4.309   6.755
10942POPC   C3B68145  10.748   4.238   7.055
10942POPC   C4B68146  10.727   4.281   7.355
10943POPC   NC368147   8.179   7.466   5.555
10943POPC   PO468148   8.245   7.405   5.855
10943POPC   GL168149   8.233   7.380   6.155
10943POPC   GL268150   8.196   7.271   6.155
10943POPC   C1A68151   8.188   7.423   6.455
10943POPC   D2A68152   8.175   7.469   6.755
10943POPC   C3A68153   8.243   7.396   7.055
10943POPC   C4A68154   8.168   7.408   7.355
10943POPC   C1B68155   8.143   7.214   6.455
10943POPC   C2B68156   8.194   7.128   6.755
10943POPC   C3B68157   8.142   7.147   7.055
10943POPC   C4B68158   8.179   7.154   7.355
10944POPC   NC368159  29.158  19.104   5.555
10944POPC   PO468160  29.136  19.069   5.855
10944POPC   GL168161  29.097  19.049   6.155
10944POPC   GL268162  29.002  19.114   6.155
10944POPC   C1A68163  29.193  19.033   6.455
10944POPC   D2A68164  29.143  19.043   6.755
10944POPC   C3A68165  29.104  19.081   7.055
10944POPC   C4A68166  29.098  19.076   7.355
10944POPC   C1B68167  28.869  19.179   6.455
10944POPC   C2B68168  28.967  19.181   6.755
10944POPC   C3B68169  28.877  19.178   7.055
10944POPC   C4B68170  28.877  19.193   7.355
10945POPC   NC368171  16.761   2.795   5.555
10945POPC   PO468172  16.755   2.736   5.855
10945POPC   GL168173  16.744   2.778   6.155
10945POPC   GL268174  16.778   2.890   6.155
10945POPC   C1A68175  16.752   2.778   6.455
10945POPC   D2A68176  16.699   2.804   6.755
10945POPC   C3A68177  16.781   2.721   7.055
10945POPC   C4A68178  16.735   2.738   7.355
10945POPC   C1B68179  16.952   2.896   6.455
10945POPC   C2B68180  16.967   2.971   6.755
10945POPC   C3B68181  16.964   2.914   7.055
10945POPC   C4B68182  16.880   2.927   7.355
10946POPC   NC368183  41.567   0.454   5.555
10946POPC   PO468184  41.566   0.410   5.855
10946POPC   GL168185  41.529   0.401   6.155
10946POPC   GL268186  41.460   0.540   6.155
10946POPC   C1A68187  41.581   0.424   6.455
10946POPC   D2A68188  41.576   0.469   6.755
10946POPC   C3A68189  41.509   0.401   7.055
10946POPC   C4A68190  41.545   0.390   7.355
10946POPC   C1B68191  41.325   0.543   6.455
10946POPC   C2B68192  41.335   0.591   6.755
10946POPC   C3B68193  41.329   0.631   7.055
10946POPC   C4B68194  41.380   0.583   7.355
10947POPC   NC368195  44.637   1.968   5.555
10947POPC   PO468196  44.617   2.020   5.855
10947POPC   GL168197  44.636   1.982   6.155
10947POPC   GL268198  44.574   2.001   6.155
10947POPC   C1A68199  44.657   1.949   6.455
10947POPC   D2A68200  44.654   1.968   6.755
10947POPC   C3A68201  44.685   1.970   7.055
10947POPC   C4A68202  44.708   1.956   7.355
10947POPC   C1B68203  44.452   1.990   6.455
10947POPC   C2B68204  44.405   2.039   6.755
10947POPC   C3B68205  44.439   2.052   7.055
10947POPC   C4B68206  44.409   2.043   7.355
10948POPC   NC368207   8.175  29.902   5.555
10948POPC   PO468208   8.209  29.944   5.855
10948POPC   GL168209   8.191  29.938   6.155
10948POPC   GL268210   8.317  29.816   6.155
10948POPC   C1A68211   8.168  29.901   6.455
10948POPC   D2A68212   8.224  29.909   6.755
10948POPC   C3A68213   8.157  29.895   7.055
10948POPC   C4A68214   8.168  29.902   7.355
10948POPC   C1B68215   8.387  29.733   6.455
10948POPC   C2B68216   8.384  29.720   6.755
10948POPC   C3B68217   8.356  29.772   7.055
10948POPC   C4B68218   8.325  29.696   7.355
10949POPC   NC368219  41.598  31.520   5.555
10949POPC   PO468220  41.518  31.432   5.855
10949POPC   GL168221  41.577  31.454   6.155
10949POPC   GL268222  41.450  31.390   6.155
10949POPC   C1A68223  41.580  31.517   6.455
10949POPC   D2A68224  41.586  31.522   6.755
10949POPC   C3A68225  41.595  31.477   7.055
10949POPC   C4A68226  41.562  31.517   7.355
10949POPC   C1B68227  41.391  31.274   6.455
10949POPC   C2B68228  41.356  31.321   6.755
10949POPC   C3B68229  41.415  31.300   7.055
10949POPC   C4B68230  41.425  31.233   7.355
10950POPC   NC368231  32.268   3.582   5.555
10950POPC   PO468232  32.229   3.570   5.855
10950POPC   GL168233  32.250   3.492   6.155
10950POPC   GL268234  32.337   3.381   6.155
10950POPC   C1A68235  32.220   3.547   6.455
10950POPC   D2A68236  32.231   3.586   6.755
10950POPC   C3A68237  32.245   3.533   7.055
10950POPC   C4A68238  32.286   3.519   7.355
10950POPC   C1B68239  32.357   3.265   6.455
10950POPC   C2B68240  32.352   3.258   6.755
10950POPC   C3B68241  32.377   3.278   7.055
10950POPC   C4B68242  32.287   3.291   7.355
10951POPC   NC368243  42.360  10.527   5.555
10951POPC   PO468244  42.300  10.566   5.855
10951POPC   GL168245  42.322  10.529   6.155
10951POPC   GL268246  42.361  10.659   6.155
10951POPC   C1A68247  42.379  10.507   6.455
10951POPC   D2A68248  42.326  10.519   6.755
10951POPC   C3A68249  42.340  10.492   7.055
10951POPC   C4A68250  42.345  10.550   7.355
10951POPC   C1B68251  42.382  10.737   6.455
10951POPC   C2B68252  42.428  10.806   6.755
10951POPC   C3B68253  42.378  10.809   7.055
10951POPC   C4B68254  42.449  10.777   7.355
10952POPC   NC368255  39.184  32.292   5.555
10952POPC   PO468256  39.278  32.265   5.855
10952POPC   GL168257  39.270  32.206   6.155
10952POPC   GL268258  39.352  32.215   6.155
10952POPC   C1A68259  39.265  32.227   6.455
10952POPC   D2A68260  39.237  32.243   6.755
10952POPC   C3A68261  39.254  32.228   7.055
10952POPC   C4A68262  39.184  32.221   7.355
10952POPC   C1B68263  39.452  32.328   6.455
10952POPC   C2B68264  39.498  32.247   6.755
10952POPC   C3B68265  39.461  32.271   7.055
10952POPC   C4B68266  39.485  32.282   7.355
10953POPC   NC368267  33.018   8.923   5.555
10953POPC   PO468268  33.053   8.942   5.855
10953POPC   GL168269  33.008   8.989   6.155
10953POPC   GL268270  33.151   9.014   6.155
10953POPC   C1A68271  33.049   8.968   6.455
10953POPC   D2A68272  33.030   8.961   6.755
10953POPC   C3A68273  32.983   8.965   7.055
10953POPC   C4A68274  33.007   8.971   7.355
10953POPC   C1B68275  33.257   8.942   6.455
10953POPC   C2B68276  33.246   8.993   6.755
10953POPC   C3B68277  33.301   8.959   7.055
10953POPC   C4B68278  33.321   8.941   7.355
10954POPC   NC368279  33.025  42.375   5.555
10954POPC   PO468280  32.989  42.325   5.855
10954POPC   GL168281  33.018  42.352   6.155
10954POPC   GL268282  33.048  42.469   6.155
10954POPC   C1A68283  33.013  42.363   6.455
10954POPC   D2A68284  33.025  42.290   6.755
10954POPC   C3A68285  33.030  42.336   7.055
10954POPC   C4A68286  33.050  42.296   7.355
10954POPC   C1B68287  33.095  42.543   6.455
10954POPC   C2B68288  33.152  42.533   6.755
10954POPC   C3B68289  33.119  42.597   7.055
10954POPC   C4B68290  33.171  42.584   7.355
10955POPC   NC368291  22.144  38.484   5.555
10955POPC   PO468292  22.117  38.504   5.855
10955POPC   GL168293  22.122  38.466   6.155
10955POPC   GL268294  22.194  38.361   6.155
10955POPC   C1A68295  22.208  38.497   6.455
10955POPC   D2A68296  22.196  38.469   6.755
10955POPC   C3A68297  22.115  38.477   7.055
10955POPC   C4A68298  22.146  38.451   7.355
10955POPC   C1B68299  22.209  38.242   6.455
10955POPC   C2B68300  22.199  38.218   6.755
10955POPC   C3B68301  22.241  38.175   7.055
10955POPC   C4B68302  22.193  38.201   7.355
10956POPC   NC368303  26.818  12.820   5.555
10956POPC   PO468304  26.844  12.816   5.855
10956POPC   GL168305  26.779  12.889   6.155
10956POPC   GL268306  26.740  12.753   6.155
10956POPC   C1A68307  26.838  12.878   6.455
10956POPC   D2A68308  26.809  12.824   6.755
10956POPC   C3A68309  26.854  12.833   7.055
10956POPC   C4A68310  26.773  12.836   7.355
10956POPC   C1B68311  26.652  12.625   6.455
10956POPC   C2B68312  26.712  12.620   6.755
10956POPC   C3B68313  26.636  12.673   7.055
10956POPC   C4B68314  26.708  12.641   7.355
10957POPC   NC368315  21.368  43.150   5.555
10957POPC   PO468316  21.421  43.135   5.855
10957POPC   GL168317  21.407  43.154   6.155
10957POPC   GL268318  21.446  42.975   6.155
10957POPC   C1A68319  21.412  43.111   6.455
10957POPC   D2A68320  21.389  43.151   6.755
10957POPC   C3A68321  21.339  43.104   7.055
10957POPC   C4A68322  21.423  43.086   7.355
10957POPC   C1B68323  21.505  42.868   6.455
10957POPC   C2B68324  21.532  42.890   6.755
10957POPC   C3B68325  21.498  42.944   7.055
10957POPC   C4B68326  21.545  42.857   7.355
10958POPC   NC368327  22.920  37.674   5.555
10958POPC   PO468328  22.982  37.665   5.855
10958POPC   GL168329  22.912  37.728   6.155
10958POPC   GL268330  22.889  37.592   6.155
10958POPC   C1A68331  22.896  37.646   6.455
10958POPC   D2A68332  22.901  37.655   6.755
10958POPC   C3A68333  22.948  37.673   7.055
10958POPC   C4A68334  22.980  37.638   7.355
10958POPC   C1B68335  22.886  37.411   6.455
10958POPC   C2B68336  22.933  37.458   6.755
10958POPC   C3B68337  22.884  37.481   7.055
10958POPC   C4B68338  22.929  37.462   7.355
10959POPC   NC368339  24.490  43.136   5.555
10959POPC   PO468340  24.472  43.141   5.855
10959POPC   GL168341  24.455  43.093   6.155
10959POPC   GL268342  24.441  42.998   6.155
10959POPC   C1A68343  24.515  43.128   6.455
10959POPC   D2A68344  24.499  43.101   6.755
10959POPC   C3A68345  24.475  43.070   7.055
10959POPC   C4A68346  24.473  43.142   7.355
10959POPC   C1B68347  24.319  42.913   6.455
10959POPC   C2B68348  24.353  42.941   6.755
10959POPC   C3B68349  24.330  42.927   7.055
10959POPC   C4B68350  24.370  42.855   7.355
10960POPC   NC368351  38.500  13.634   5.555
10960POPC   PO468352  38.449  13.604   5.855
10960POPC   GL168353  38.433  13.613   6.155
10960POPC   GL268354  38.414  13.717   6.155
10960POPC   C1A68355  38.489  13.586   6.455
10960POPC   D2A68356  38.464  13.595   6.755
10960POPC   C3A68357  38.486  13.620   7.055
10960POPC   C4A68358  38.413  13.615   7.355
10960POPC   C1B68359  38.475  13.872   6.455
10960POPC   C2B68360  38.447  13.847   6.755
10960POPC   C3B68361  38.461  13.890   7.055
10960POPC   C4B68362  38.427  13.887   7.355
10961POPC   NC368363  35.344   8.220   5.555
10961POPC   PO468364  35.382   8.186   5.855
10961POPC   GL168365  35.399   8.239   6.155
10961POPC   GL268366  35.262   8.094   6.155
10961POPC   C1A68367  35.391   8.193   6.455
10961POPC   D2A68368  35.386   8.167   6.755
10961POPC   C3A68369  35.330   8.161   7.055
10961POPC   C4A68370  35.353   8.164   7.355
10961POPC   C1B68371  35.235   7.960   6.455
10961POPC   C2B68372  35.257   7.953   6.755
10961POPC   C3B68373  35.260   7.936   7.055
10961POPC   C4B68374  35.283   7.925   7.355
10962POPC   NC368375   6.646  22.936   5.555
10962POPC   PO468376   6.614  22.928   5.855
10962POPC   GL168377   6.689  22.970   6.155
10962POPC   GL268378   6.550  22.857   6.155
10962POPC   C1A68379   6.635  22.979   6.455
10962POPC   D2A68380   6.632  22.915   6.755
10962POPC   C3A68381   6.675  22.890   7.055
10962POPC   C4A68382   6.666  22.929   7.355
10962POPC   C1B68383   6.393  22.871   6.455
10962POPC   C2B68384   6.378  22.864   6.755
10962POPC   C3B68385   6.416  22.826   7.055
10962POPC   C4B68386   6.418  22.865   7.355
10963POPC   NC368387  20.654  12.877   5.555
10963POPC   PO468388  20.636  12.830   5.855
10963POPC   GL168389  20.659  12.822   6.155
10963POPC   GL268390  20.493  12.796   6.155
10963POPC   C1A68391  20.575  12.821   6.455
10963POPC   D2A68392  20.587  12.829   6.755
10963POPC   C3A68393  20.623  12.850   7.055
10963POPC   C4A68394  20.624  12.849   7.355
10963POPC   C1B68395  20.484  12.682   6.455
10963POPC   C2B68396  20.517  12.692   6.755
10963POPC   C3B68397  20.515  12.607   7.055
10963POPC   C4B68398  20.425  12.649   7.355
10964POPC   NC368399  39.209  29.959   5.555
10964POPC   PO468400  39.210  29.969   5.855
10964POPC   GL168401  39.252  29.945   6.155
10964POPC   GL268402  39.203  30.018   6.155
10964POPC   C1A68403  39.255  29.918   6.455
10964POPC   D2A68404  39.240  29.918   6.755
10964POPC   C3A68405  39.200  29.892   7.055
10964POPC   C4A68406  39.275  29.946   7.355
10964POPC   C1B68407  39.224  30.132   6.455
10964POPC   C2B68408  39.242  30.210   6.755
10964POPC   C3B68409  39.219  30.166   7.055
10964POPC   C4B68410  39.220  30.140   7.355
10965POPC   NC368411  11.294   5.110   5.555
10965POPC   PO468412  11.322   5.121   5.855
10965POPC   GL168413  11.266   5.136   6.155
10965POPC   GL268414  11.261   4.961   6.155
10965POPC   C1A68415  11.280   5.138   6.455
10965POPC   D2A68416  11.300   5.094   6.755
10965POPC   C3A68417  11.252   5.118   7.055
10965POPC   C4A68418  11.344   5.077   7.355
10965POPC   C1B68419  11.237   4.801   6.455
10965POPC   C2B68420  11.259   4.830   6.755
10965POPC   C3B68421  11.276   4.878   7.055
10965POPC   C4B68422  11.282   4.870   7.355
10966POPC   NC368423  39.224  42.318   5.555
10966POPC   PO468424  39.211  42.368   5.855
10966POPC   GL168425  39.280  42.287   6.155
10966POPC   GL268426  39.270  42.207   6.155
10966POPC   C1A68427  39.225  42.299   6.455
10966POPC   D2A68428  39.261  42.313   6.755
10966POPC   C3A68429  39.267  42.298   7.055
10966POPC   C4A68430  39.257  42.307   7.355
10966POPC   C1B68431  39.373  42.167   6.455
10966POPC   C2B68432  39.432  42.156   6.755
10966POPC   C3B68433  39.415  42.168   7.055
10966POPC   C4B68434  39.377  42.180   7.355
10967POPC   NC368435  19.063  40.021   5.555
10967POPC   PO468436  19.092  39.961   5.855
10967POPC   GL168437  19.083  40.023   6.155
10967POPC   GL268438  18.958  39.971   6.155
10967POPC   C1A68439  19.073  39.982   6.455
10967POPC   D2A68440  19.080  40.049   6.755
10967POPC   C3A68441  19.017  40.037   7.055
10967POPC   C4A68442  19.046  39.991   7.355
10967POPC   C1B68443  18.897  39.871   6.455
10967POPC   C2B68444  18.882  39.865   6.755
10967POPC   C3B68445  18.896  39.842   7.055
10967POPC   C4B68446  18.873  39.821   7.355
10968POPC   NC368447  30.729   5.881   5.555
10968POPC   PO468448  30.692   5.912   5.855
10968POPC   GL168449  30.735   5.843   6.155
10968POPC   GL268450  30.682   6.005   6.155
10968POPC   C1A68451  30.713   5.898   6.455
10968POPC   D2A68452  30.707   5.820   6.755
10968POPC   C3A68453  30.698   5.866   7.055
10968POPC   C4A68454  30.710   5.861   7.355
10968POPC   C1B68455  30.619   6.076   6.455
10968POPC   C2B68456  30.629   6.094   6.755
10968POPC   C3B68457  30.621   6.066   7.055
10968POPC   C4B68458  30.609   6.123   7.355
10969POPC   NC368459   5.063  37.707   5.555
10969POPC   PO468460   5.116  37.703   5.855
10969POPC   GL168461   5.140  37.711   6.155
10969POPC   GL268462   5.241  37.667   6.155
10969POPC   C1A68463   5.085  37.719   6.455
10969POPC   D2A68464   5.051  37.646   6.755
10969POPC   C3A68465   5.081  37.718   7.055
10969POPC   C4A68466   5.066  37.687   7.355
10969POPC   C1B68467   5.367  37.684   6.455
10969POPC   C2B68468   5.296  37.599   6.755
10969POPC   C3B68469   5.360  37.687   7.055
10969POPC   C4B68470   5.316  37.633   7.355
10970POPC   NC368471  22.942  33.823   5.555
10970POPC   PO468472  22.912  33.832   5.855
10970POPC   GL168473  22.942  33.766   6.155
10970POPC   GL268474  22.987  33.641   6.155
10970POPC   C1A68475  22.927  33.801   6.455
10970POPC   D2A68476  22.919  33.821   6.755
10970POPC   C3A68477  22.907  33.761   7.055
10970POPC   C4A68478  22.902  33.755   7.355
10970POPC   C1B68479  22.909  33.583   6.455
10970POPC   C2B68480  22.928  33.508   6.755
10970POPC   C3B68481  22.933  33.545   7.055
10970POPC   C4B68482  22.932  33.519   7.355
10971POPC   NC368483   8.939  29.112   5.555
10971POPC   PO468484   9.005  29.103   5.855
10971POPC   GL168485   8.936  29.114   6.155
10971POPC   GL268486   9.092  29.242   6.155
10971POPC   C1A68487   8.925  29.125   6.455
10971POPC   D2A68488   8.994  29.182   6.755
10971POPC   C3A68489   8.998  29.140   7.055
10971POPC   C4A68490   8.926  29.144   7.355
10971POPC   C1B68491   9.230  29.297   6.455
10971POPC   C2B68492   9.231  29.263   6.755
10971POPC   C3B68493   9.150  29.209   7.055
10971POPC   C4B68494   9.185  29.250   7.355
10972POPC   NC368495  36.082  29.878   5.555
10972POPC   PO468496  36.147  29.900   5.855
10972POPC   GL168497  36.123  29.921   6.155
10972POPC   GL268498  36.170  30.047   6.155
10972POPC   C1A68499  36.164  29.959   6.455
10972POPC   D2A68500  36.167  29.927   6.755
10972POPC   C3A68501  36.091  29.891   7.055
10972POPC   C4A68502  36.149  29.895   7.355
10972POPC   C1B68503  36.255  30.069   6.455
10972POPC   C2B68504  36.268  30.092   6.755
10972POPC   C3B68505  36.334  30.101   7.055
10972POPC   C4B68506  36.265  30.126   7.355
10973POPC   NC368507   6.666  25.289   5.555
10973POPC   PO468508   6.608  25.265   5.855
10973POPC   GL168509   6.652  25.261   6.155
10973POPC   GL268510   6.505  25.259   6.155
10973POPC   C1A68511   6.656  25.310   6.455
10973POPC   D2A68512   6.659  25.239   6.755
10973POPC   C3A68513   6.652  25.286   7.055
10973POPC   C4A68514   6.623  25.315   7.355
10973POPC   C1B68515   6.415  25.320   6.455
10973POPC   C2B68516   6.442  25.287   6.755
10973POPC   C3B68517   6.419  25.294   7.055
10973POPC   C4B68518   6.356  25.316   7.355
10974POPC   NC368519  28.369  40.004   5.555
10974POPC   PO468520  28.360  39.991   5.855
10974POPC   GL168521  28.371  39.957   6.155
10974POPC   GL268522  28.340  40.066   6.155
10974POPC   C1A68523  28.340  40.009   6.455
10974POPC   D2A68524  28.328  40.051   6.755
10974POPC   C3A68525  28.356  40.029   7.055
10974POPC   C4A68526  28.347  39.981   7.355
10974POPC   C1B68527  28.198  40.210   6.455
10974POPC   C2B68528  28.271  40.260   6.755
10974POPC   C3B68529  28.246  40.226   7.055
10974POPC   C4B68530  28.222  40.247   7.355
10975POPC   NC368531  16.757  38.429   5.555
10975POPC   PO468532  16.770  38.461   5.855
10975POPC   GL168533  16.700  38.442   6.155
10975POPC   GL268534  16.644  38.449   6.155
10975POPC   C1A68535  16.720  38.493   6.455
10975POPC   D2A68536  16.746  38.453   6.755
10975POPC   C3A68537  16.733  38.434   7.055
10975POPC   C4A68538  16.765  38.418   7.355
10975POPC   C1B68539  16.462  38.423   6.455
10975POPC   C2B68540  16.505  38.442   6.755
10975POPC   C3B68541  16.455  38.426   7.055
10975POPC   C4B68542  16.442  38.465   7.355
10976POPC   NC368543  42.349  42.314   5.555
10976POPC   PO468544  42.314  42.301   5.855
10976POPC   GL168545  42.374  42.371   6.155
10976POPC   GL268546  42.310  42.440   6.155
10976POPC   C1A68547  42.321  42.381   6.455
10976POPC   D2A68548  42.335  42.312   6.755
10976POPC   C3A68549  42.287  42.354   7.055
10976POPC   C4A68550  42.380  42.341   7.355
10976POPC   C1B68551  42.320  42.576   6.455
10976POPC   C2B68552  42.350  42.597   6.755
10976POPC   C3B68553  42.301  42.556   7.055
10976POPC   C4B68554  42.295  42.535   7.355
10977POPC   NC368555   4.268  40.822   5.555
10977POPC   PO468556   4.359  40.789   5.855
10977POPC   GL168557   4.301  40.801   6.155
10977POPC   GL268558   4.305  40.616   6.155
10977POPC   C1A68559   4.306  40.812   6.455
10977POPC   D2A68560   4.313  40.780   6.755
10977POPC   C3A68561   4.334  40.769   7.055
10977POPC   C4A68562   4.331  40.790   7.355
10977POPC   C1B68563   4.357  40.501   6.455
10977POPC   C2B68564   4.319  40.523   6.755
10977POPC   C3B68565   4.304  40.553   7.055
10977POPC   C4B68566   4.353  40.538   7.355
10978POPC   NC368567  18.276   5.826   5.555
10978POPC   PO468568  18.252   5.906   5.855
10978POPC   GL168569  18.240   5.905   6.155
10978POPC   GL268570  18.306   5.986   6.155
10978POPC   C1A68571  18.302   5.861   6.455
10978POPC   D2A68572  18.263   5.865   6.755
10978POPC   C3A68573  18.272   5.864   7.055
10978POPC   C4A68574  18.261   5.913   7.355
10978POPC   C1B68575  18.387   6.061   6.455
10978POPC   C2B68576  18.430   6.099   6.755
10978POPC   C3B68577  18.460   6.061   7.055
10978POPC   C4B68578  18.452   6.073   7.355
10979POPC   NC368579  37.671  33.030   5.555
10979POPC   PO468580  37.637  32.995   5.855
10979POPC   GL168581  37.630  33.015   6.155
10979POPC   GL268582  37.612  32.908   6.155
10979POPC   C1A68583  37.672  32.993   6.455
10979POPC   D2A68584  37.637  33.042   6.755
10979POPC   C3A68585  37.697  33.043   7.055
10979POPC   C4A68586  37.690  33.040   7.355
10979POPC   C1B68587  37.555  32.827   6.455
10979POPC   C2B68588  37.587  32.822   6.755
10979POPC   C3B68589  37.560  32.777   7.055
10979POPC   C4B68590  37.587  32.796   7.355
10980POPC   NC368591  11.264  42.381   5.555
10980POPC   PO468592  11.261  42.316   5.855
10980POPC   GL168593  11.288  42.293   6.155
10980POPC   GL268594  11.322  42.496   6.155
10980POPC   C1A68595  11.328  42.303   6.455
10980POPC   D2A68596  11.267  42.302   6.755
10980POPC   C3A68597  11.274  42.324   7.055
10980POPC   C4A68598  11.256  42.362   7.355
10980POPC   C1B68599  11.356  42.575   6.455
10980POPC   C2B68600  11.317  42.623   6.755
10980POPC   C3B68601  11.310  42.593   7.055
10980POPC   C4B68602  11.309  42.595   7.355
10981POPC   NC368603  10.569  39.245   5.555
10981POPC   PO468604  10.495  39.223   5.855
10981POPC   GL168605  10.490  39.205   6.155
10981POPC   GL268606  10.607  39.281   6.155
10981POPC   C1A68607  10.531  39.245   6.455
10981POPC   D2A68608  10.512  39.215   6.755
10981POPC   C3A68609  10.516  39.259   7.055
10981POPC   C4A68610  10.510  39.221   7.355
10981POPC   C1B68611  10.765  39.239   6.455
10981POPC   C2B68612  10.806  39.185   6.755
10981POPC   C3B68613  10.750  39.203   7.055
10981POPC   C4B68614  10.798  39.261   7.355
10982POPC   NC368615  20.659  24.485   5.555
10982POPC   PO468616  20.598  24.503   5.855
10982POPC   GL168617  20.595  24.486   6.155
10982POPC   GL268618  20.546  24.428   6.155
10982POPC   C1A68619  20.576  24.471   6.455
10982POPC   D2A68620  20.628  24.534   6.755
10982POPC   C3A68621  20.641  24.536   7.055
10982POPC   C4A68622  20.620  24.479   7.355
10982POPC   C1B68623  20.504  24.287   6.455
10982POPC   C2B68624  20.442  24.279   6.755
10982POPC   C3B68625  20.489  24.253   7.055
10982POPC   C4B68626  20.478  24.332   7.355
10983POPC   NC368627   9.763  44.690   5.555
10983POPC   PO468628   9.794  44.702   5.855
10983POPC   GL168629   9.768  44.680   6.155
10983POPC   GL268630   9.614  44.671   6.155
10983POPC   C1A68631   9.766  44.645   6.455
10983POPC   D2A68632   9.744  44.709   6.755
10983POPC   C3A68633   9.772  44.688   7.055
10983POPC   C4A68634   9.740  44.675   7.355
10983POPC   C1B68635   9.477  44.610   6.455
10983POPC   C2B68636   9.558  44.565   6.755
10983POPC   C3B68637   9.465  44.561   7.055
10983POPC   C4B68638   9.560  44.608   7.355
10984POPC   NC368639  31.522   0.437   5.555
10984POPC   PO468640  31.498   0.443   5.855
10984POPC   GL168641  31.522   0.446   6.155
10984POPC   GL268642  31.571   0.411   6.155
10984POPC   C1A68643  31.494   0.388   6.455
10984POPC   D2A68644  31.506   0.422   6.755
10984POPC   C3A68645  31.445   0.391   7.055
10984POPC   C4A68646  31.431   0.430   7.355
10984POPC   C1B68647  31.736   0.293   6.455
10984POPC   C2B68648  31.741   0.301   6.755
10984POPC   C3B68649  31.684   0.333   7.055
10984POPC   C4B68650  31.675   0.349   7.355
10985POPC   NC368651  14.437  23.678   5.555
10985POPC   PO468652  14.410  23.732   5.855
10985POPC   GL168653  14.424  23.676   6.155
10985POPC   GL268654  14.440  23.574   6.155
10985POPC   C1A68655  14.417  23.726   6.455
10985POPC   D2A68656  14.433  23.742   6.755
10985POPC   C3A68657  14.355  23.716   7.055
10985POPC   C4A68658  14.393  23.680   7.355
10985POPC   C1B68659  14.392  23.467   6.455
10985POPC   C2B68660  14.408  23.454   6.755
10985POPC   C3B68661  14.408  23.430   7.055
10985POPC   C4B68662  14.473  23.473   7.355
10986POPC   NC368663   2.762  32.231   5.555
10986POPC   PO468664   2.735  32.241   5.855
10986POPC   GL168665   2.786  32.254   6.155
10986POPC   GL268666   2.873  32.166   6.155
10986POPC   C1A68667   2.812  32.263   6.455
10986POPC   D2A68668   2.772  32.219   6.755
10986POPC   C3A68669   2.764  32.237   7.055
10986POPC   C4A68670   2.750  32.254   7.355
10986POPC   C1B68671   2.953  32.115   6.455
10986POPC   C2B68672   3.008  32.094   6.755
10986POPC   C3B68673   2.929  32.085   7.055
10986POPC   C4B68674   2.964  32.117   7.355
10987POPC   NC368675  13.665  23.731   5.555
10987POPC   PO468676  13.643  23.731   5.855
10987POPC   GL168677  13.603  23.720   6.155
10987POPC   GL268678  13.683  23.579   6.155
10987POPC   C1A68679  13.646  23.757   6.455
10987POPC   D2A68680  13.635  23.757   6.755
10987POPC   C3A68681  13.623  23.672   7.055
10987POPC   C4A68682  13.640  23.751   7.355
10987POPC   C1B68683  13.792  23.491   6.455
10987POPC   C2B68684  13.813  23.505   6.755
10987POPC   C3B68685  13.778  23.556   7.055
10987POPC   C4B68686  13.743  23.499   7.355
10988POPC   NC368687  22.144  23.712   5.555
10988POPC   PO468688  22.196  23.739   5.855
10988POPC   GL168689  22.162  23.689   6.155
10988POPC   GL268690  22.124  23.797   6.155
10988POPC   C1A68691  22.130  23.740   6.455
10988POPC   D2A68692  22.198  23.683   6.755
10988POPC   C3A68693  22.160  23.675   7.055
10988POPC   C4A68694  22.160  23.683   7.355
10988POPC   C1B68695  22.128  23.995   6.455
10988POPC   C2B68696  22.144  23.915   6.755
10988POPC   C3B68697  22.146  23.952   7.055
10988POPC   C4B68698  22.148  23.934   7.355
10989POPC   NC368699   6.616   5.103   5.555
10989POPC   PO468700   6.638   5.103   5.855
10989POPC   GL168701   6.671   5.083   6.155
10989POPC   GL268702   6.506   5.056   6.155
10989POPC   C1A68703   6.668   5.115   6.455
10989POPC   D2A68704   6.627   5.059   6.755
10989POPC   C3A68705   6.672   5.098   7.055
10989POPC   C4A68706   6.641   5.061   7.355
10989POPC   C1B68707   6.439   5.068   6.455
10989POPC   C2B68708   6.420   5.099   6.755
10989POPC   C3B68709   6.392   5.101   7.055
10989POPC   C4B68710   6.409   5.103   7.355
10990POPC   NC368711  25.315  12.857   5.555
10990POPC   PO468712  25.276  12.851   5.855
10990POPC   GL168713  25.254  12.814   6.155
10990POPC   GL268714  25.152  12.856   6.155
10990POPC   C1A68715  25.298  12.877   6.455
10990POPC   D2A68716  25.282  12.865   6.755
10990POPC   C3A68717  25.221  12.804   7.055
10990POPC   C4A68718  25.298  12.872   7.355
10990POPC   C1B68719  25.050  12.812   6.455
10990POPC   C2B68720  24.985  12.872   6.755
10990POPC   C3B68721  25.038  12.816   7.055
10990POPC   C4B68722  25.051  12.825   7.355
10991POPC   NC368723  39.987  40.041   5.555
10991POPC   PO468724  39.994  40.014   5.855
10991POPC   GL168725  40.021  40.041   6.155
10991POPC   GL268726  39.990  39.907   6.155
10991POPC   C1A68727  40.026  40.038   6.455
10991POPC   D2A68728  40.056  39.962   6.755
10991POPC   C3A68729  40.001  40.035   7.055
10991POPC   C4A68730  40.041  40.010   7.355
10991POPC   C1B68731  39.897  39.774   6.455
10991POPC   C2B68732  39.940  39.756   6.755
10991POPC   C3B68733  39.893  39.780   7.055
10991POPC   C4B68734  39.941  39.816   7.355
10992POPC   NC368735   8.221  29.124   5.555
10992POPC   PO468736   8.233  29.125   5.855
10992POPC   GL168737   8.147  29.173   6.155
10992POPC   GL268738   8.305  29.125   6.155
10992POPC   C1A68739   8.246  29.114   6.455
10992POPC   D2A68740   8.205  29.176   6.755
10992POPC   C3A68741   8.164  29.157   7.055
10992POPC   C4A68742   8.201  29.112   7.355
10992POPC   C1B68743   8.385  28.964   6.455
10992POPC   C2B68744   8.448  28.975   6.755
10992POPC   C3B68745   8.440  28.964   7.055
10992POPC   C4B68746   8.373  28.993   7.355
10993POPC   NC368747   2.798   6.690   5.555
10993POPC   PO468748   2.770   6.617   5.855
10993POPC   GL168749   2.777   6.650   6.155
10993POPC   GL268750   2.882   6.654   6.155
10993POPC   C1A68751   2.799   6.621   6.455
10993POPC   D2A68752   2.804   6.684   6.755
10993POPC   C3A68753   2.728   6.608   7.055
10993POPC   C4A68754   2.751   6.631   7.355
10993POPC   C1B68755   3.035   6.642   6.455
10993POPC   C2B68756   3.004   6.623   6.755
10993POPC   C3B68757   2.998   6.577   7.055
10993POPC   C4B68758   3.024   6.642   7.355
10994POPC   NC368759  37.677  19.019   5.555
10994POPC   PO468760  37.630  19.092   5.855
10994POPC   GL168761  37.722  19.020   6.155
10994POPC   GL268762  37.678  18.905   6.155
10994POPC   C1A68763  37.696  19.091   6.455
10994POPC   D2A68764  37.629  19.105   6.755
10994POPC   C3A68765  37.639  19.106   7.055
10994POPC   C4A68766  37.672  19.102   7.355
10994POPC   C1B68767  37.686  18.775   6.455
10994POPC   C2B68768  37.696  18.825   6.755
10994POPC   C3B68769  37.768  18.763   7.055
10994POPC   C4B68770  37.743  18.851   7.355
10995POPC   NC368771  38.466  12.901   5.555
10995POPC   PO468772  38.435  12.834   5.855
10995POPC   GL168773  38.425  12.858   6.155
10995POPC   GL268774  38.548  12.812   6.155
10995POPC   C1A68775  38.501  12.877   6.455
10995POPC   D2A68776  38.501  12.804   6.755
10995POPC   C3A68777  38.438  12.855   7.055
10995POPC   C4A68778  38.451  12.883   7.355
10995POPC   C1B68779  38.634  12.685   6.455
10995POPC   C2B68780  38.664  12.675   6.755
10995POPC   C3B68781  38.619  12.722   7.055
10995POPC   C4B68782  38.608  12.710   7.355
10996POPC   NC368783  26.088  22.168   5.555
10996POPC   PO468784  26.085  22.112   5.855
10996POPC   GL168785  26.015  22.113   6.155
10996POPC   GL268786  25.945  22.142   6.155
10996POPC   C1A68787  26.002  22.179   6.455
10996POPC   D2A68788  26.029  22.191   6.755
10996POPC   C3A68789  26.046  22.114   7.055
10996POPC   C4A68790  26.033  22.165   7.355
10996POPC   C1B68791  25.796  22.121   6.455
10996POPC   C2B68792  25.762  22.146   6.755
10996POPC   C3B68793  25.764  22.067   7.055
10996POPC   C4B68794  25.793  22.089   7.355
10997POPC   NC368795   5.074  29.108   5.555
10997POPC   PO468796   5.081  29.101   5.855
10997POPC   GL168797   5.069  29.117   6.155
10997POPC   GL268798   4.986  29.085   6.155
10997POPC   C1A68799   5.084  29.140   6.455
10997POPC   D2A68800   5.085  29.153   6.755
10997POPC   C3A68801   5.118  29.181   7.055
10997POPC   C4A68802   5.079  29.192   7.355
10997POPC   C1B68803   4.806  29.064   6.455
10997POPC   C2B68804   4.893  29.055   6.755
10997POPC   C3B68805   4.811  29.142   7.055
10997POPC   C4B68806   4.839  29.091   7.355
10998POPC   NC368807  27.585  22.180   5.555
10998POPC   PO468808  27.623  22.120   5.855
10998POPC   GL168809  27.579  22.168   6.155
10998POPC   GL268810  27.510  22.082   6.155
10998POPC   C1A68811  27.630  22.145   6.455
10998POPC   D2A68812  27.627  22.179   6.755
10998POPC   C3A68813  27.563  22.198   7.055
10998POPC   C4A68814  27.575  22.143   7.355
10998POPC   C1B68815  27.324  22.145   6.455
10998POPC   C2B68816  27.370  22.131   6.755
10998POPC   C3B68817  27.331  22.064   7.055
10998POPC   C4B68818  27.377  22.069   7.355
10999POPC   NC368819   6.663   2.779   5.555
10999POPC   PO468820   6.601   2.807   5.855
10999POPC   GL168821   6.606   2.717   6.155
10999POPC   GL268822   6.722   2.659   6.155
10999POPC   C1A68823   6.620   2.747   6.455
10999POPC   D2A68824   6.617   2.815   6.755
10999POPC   C3A68825   6.676   2.774   7.055
10999POPC   C4A68826   6.664   2.754   7.355
10999POPC   C1B68827   6.754   2.593   6.455
10999POPC   C2B68828   6.776   2.563   6.755
10999POPC   C3B68829   6.781   2.540   7.055
10999POPC   C4B68830   6.840   2.610   7.355
11000POPC   NC368831  43.880   0.427   5.555
11000POPC   PO468832  43.851   0.411   5.855
11000POPC   GL168833  43.854   0.449   6.155
11000POPC   GL268834  43.957   0.347   6.155
11000POPC   C1A68835  43.843   0.397   6.455
11000POPC   D2A68836  43.885   0.409   6.755
11000POPC   C3A68837  43.918   0.466   7.055
11000POPC   C4A68838  43.890   0.443   7.355
11000POPC   C1B68839  44.070   0.327   6.455
11000POPC   C2B68840  44.092   0.344   6.755
11000POPC   C3B68841  44.088   0.296   7.055
11000POPC   C4B68842  44.097   0.324   7.355
11001POPC   NC368843  28.414  20.635   5.555
11001POPC   PO468844  28.400  20.622   5.855
11001POPC   GL168845  28.346  20.604   6.155
11001POPC   GL268846  28.265  20.662   6.155
11001POPC   C1A68847  28.334  20.624   6.455
11001POPC   D2A68848  28.341  20.649   6.755
11001POPC   C3A68849  28.350  20.625   7.055
11001POPC   C4A68850  28.359  20.578   7.355
11001POPC   C1B68851  28.091  20.653   6.455
11001POPC   C2B68852  28.168  20.654   6.755
11001POPC   C3B68853  28.077  20.666   7.055
11001POPC   C4B68854  28.154  20.608   7.355
11002POPC   NC368855  32.290  20.620   5.555
11002POPC   PO468856  32.206  20.615   5.855
11002POPC   GL168857  32.292  20.568   6.155
11002POPC   GL268858  32.177  20.513   6.155
11002POPC   C1A68859  32.263  20.602   6.455
11002POPC   D2A68860  32.213  20.634   6.755
11002POPC   C3A68861  32.215  20.598   7.055
11002POPC   C4A68862  32.217  20.561   7.355
11002POPC   C1B68863  31.996  20.456   6.455
11002POPC   C2B68864  32.008  20.496   6.755
11002POPC   C3B68865  31.988  20.541   7.055
11002POPC   C4B68866  32.069  20.475   7.355
11003POPC   NC368867  33.781  22.951   5.555
11003POPC   PO468868  33.821  22.916   5.855
11003POPC   GL168869  33.822  22.970   6.155
11003POPC   GL268870  33.824  22.803   6.155
11003POPC   C1A68871  33.830  22.981   6.455
11003POPC   D2A68872  33.830  22.933   6.755
11003POPC   C3A68873  33.768  22.901   7.055
11003POPC   C4A68874  33.760  22.966   7.355
11003POPC   C1B68875  33.910  22.705   6.455
11003POPC   C2B68876  33.904  22.684   6.755
11003POPC   C3B68877  33.881  22.736   7.055
11003POPC   C4B68878  33.833  22.713   7.355
11004POPC   NC368879  29.929   2.794   5.555
11004POPC   PO468880  29.873   2.813   5.855
11004POPC   GL168881  29.887   2.725   6.155
11004POPC   GL268882  30.018   2.858   6.155
11004POPC   C1A68883  29.963   2.776   6.455
11004POPC   D2A68884  29.874   2.752   6.755
11004POPC   C3A68885  29.957   2.737   7.055
11004POPC   C4A68886  29.903   2.761   7.355
11004POPC   C1B68887  30.035   3.019   6.455
11004POPC   C2B68888  30.074   3.019   6.755
11004POPC   C3B68889  30.060   3.019   7.055
11004POPC   C4B68890  30.024   3.008   7.355
11005POPC   NC368891  43.919  44.706   5.555
11005POPC   PO468892  43.848  44.706   5.855
11005POPC   GL168893  43.898  44.693   6.155
11005POPC   GL268894  43.837  44.713   6.155
11005POPC   C1A68895  43.935  44.629   6.455
11005POPC   D2A68896  43.911  44.662   6.755
11005POPC   C3A68897  43.865  44.639   7.055
11005POPC   C4A68898  43.918  44.647   7.355
11005POPC   C1B68899  43.661  44.844   6.455
11005POPC   C2B68900  43.734  44.799   6.755
11005POPC   C3B68901  43.687  44.876   7.055
11005POPC   C4B68902  43.715  44.846   7.355
11006POPC   NC368903  25.232  33.793   5.555
11006POPC   PO468904  25.307  33.774   5.855
11006POPC   GL168905  25.261  33.763   6.155
11006POPC   GL268906  25.266  33.674   6.155
11006POPC   C1A68907  25.310  33.812   6.455
11006POPC   D2A68908  25.238  33.835   6.755
11006POPC   C3A68909  25.237  33.798   7.055
11006POPC   C4A68910  25.284  33.829   7.355
11006POPC   C1B68911  25.125  33.518   6.455
11006POPC   C2B68912  25.134  33.591   6.755
11006POPC   C3B68913  25.152  33.551   7.055
11006POPC   C4B68914  25.206  33.529   7.355
11007POPC   NC368915   5.872  42.371   5.555
11007POPC   PO468916   5.851  42.308   5.855
11007POPC   GL168917   5.900  42.292   6.155
11007POPC   GL268918   5.969  42.381   6.155
11007POPC   C1A68919   5.856  42.313   6.455
11007POPC   D2A68920   5.918  42.293   6.755
11007POPC   C3A68921   5.885  42.338   7.055
11007POPC   C4A68922   5.846  42.293   7.355
11007POPC   C1B68923   6.035  42.467   6.455
11007POPC   C2B68924   6.055  42.487   6.755
11007POPC   C3B68925   6.075  42.506   7.055
11007POPC   C4B68926   6.070  42.489   7.355
11008POPC   NC368927   8.225  28.419   5.555
11008POPC   PO468928   8.189  28.356   5.855
11008POPC   GL168929   8.161  28.406   6.155
11008POPC   GL268930   8.050  28.476   6.155
11008POPC   C1A68931   8.229  28.336   6.455
11008POPC   D2A68932   8.201  28.364   6.755
11008POPC   C3A68933   8.231  28.346   7.055
11008POPC   C4A68934   8.219  28.371   7.355
11008POPC   C1B68935   8.017  28.471   6.455
11008POPC   C2B68936   8.000  28.484   6.755
11008POPC   C3B68937   7.966  28.475   7.055
11008POPC   C4B68938   7.964  28.467   7.355
11009POPC   NC368939   4.335  41.516   5.555
11009POPC   PO468940   4.316  41.548   5.855
11009POPC   GL168941   4.311  41.558   6.155
11009POPC   GL268942   4.384  41.665   6.155
11009POPC   C1A68943   4.313  41.576   6.455
11009POPC   D2A68944   4.281  41.582   6.755
11009POPC   C3A68945   4.275  41.580   7.055
11009POPC   C4A68946   4.328  41.567   7.355
11009POPC   C1B68947   4.413  41.825   6.455
11009POPC   C2B68948   4.348  41.820   6.755
11009POPC   C3B68949   4.420  41.814   7.055
11009POPC   C4B68950   4.333  41.764   7.355
11010POPC   NC368951  40.046  21.428   5.555
11010POPC   PO468952  40.017  21.371   5.855
11010POPC   GL168953  39.991  21.358   6.155
11010POPC   GL268954  40.076  21.493   6.155
11010POPC   C1A68955  39.963  21.342   6.455
11010POPC   D2A68956  40.004  21.415   6.755
11010POPC   C3A68957  40.029  21.390   7.055
11010POPC   C4A68958  40.029  21.424   7.355
11010POPC   C1B68959  40.235  21.532   6.455
11010POPC   C2B68960  40.175  21.564   6.755
11010POPC   C3B68961  40.199  21.577   7.055
11010POPC   C4B68962  40.196  21.541   7.355
11011POPC   NC368963  43.104  37.660   5.555
11011POPC   PO468964  43.150  37.719   5.855
11011POPC   GL168965  43.077  37.715   6.155
11011POPC   GL268966  43.170  37.654   6.155
11011POPC   C1A68967  43.114  37.642   6.455
11011POPC   D2A68968  43.152  37.675   6.755
11011POPC   C3A68969  43.114  37.683   7.055
11011POPC   C4A68970  43.158  37.727   7.355
11011POPC   C1B68971  43.280  37.511   6.455
11011POPC   C2B68972  43.349  37.538   6.755
11011POPC   C3B68973  43.272  37.579   7.055
11011POPC   C4B68974  43.272  37.569   7.355
11012POPC   NC368975  10.492  19.064   5.555
11012POPC   PO468976  10.487  19.107   5.855
11012POPC   GL168977  10.503  19.024   6.155
11012POPC   GL268978  10.531  19.208   6.155
11012POPC   C1A68979  10.544  19.052   6.455
11012POPC   D2A68980  10.536  19.089   6.755
11012POPC   C3A68981  10.567  19.094   7.055
11012POPC   C4A68982  10.538  19.079   7.355
11012POPC   C1B68983  10.632  19.299   6.455
11012POPC   C2B68984  10.590  19.312   6.755
11012POPC   C3B68985  10.613  19.291   7.055
11012POPC   C4B68986  10.613  19.317   7.355
11013POPC   NC368987  21.355   7.386   5.555
11013POPC   PO468988  21.423   7.396   5.855
11013POPC   GL168989  21.432   7.403   6.155
11013POPC   GL268990  21.370   7.577   6.155
11013POPC   C1A68991  21.436   7.469   6.455
11013POPC   D2A68992  21.398   7.447   6.755
11013POPC   C3A68993  21.355   7.383   7.055
11013POPC   C4A68994  21.428   7.377   7.355
11013POPC   C1B68995  21.381   7.664   6.455
11013POPC   C2B68996  21.347   7.636   6.755
11013POPC   C3B68997  21.396   7.710   7.055
11013POPC   C4B68998  21.333   7.659   7.355
11014POPC   NC368999   8.194  37.666   5.555
11014POPC   PO469000   8.213  37.708   5.855
11014POPC   GL169001   8.232  37.656   6.155
11014POPC   GL269002   8.317  37.587   6.155
11014POPC   C1A69003   8.207  37.653   6.455
11014POPC   D2A69004   8.211  37.651   6.755
11014POPC   C3A69005   8.168  37.679   7.055
11014POPC   C4A69006   8.230  37.706   7.355
11014POPC   C1B69007   8.372  37.568   6.455
11014POPC   C2B69008   8.419  37.586   6.755
11014POPC   C3B69009   8.442  37.570   7.055
11014POPC   C4B69010   8.470  37.532   7.355
11015POPC   NC369011   7.416   6.600   5.555
11015POPC   PO469012   7.401   6.605   5.855
11015POPC   GL169013   7.442   6.597   6.155
11015POPC   GL269014   7.341   6.543   6.155
11015POPC   C1A69015   7.418   6.684   6.455
11015POPC   D2A69016   7.466   6.665   6.755
11015POPC   C3A69017   7.387   6.618   7.055
11015POPC   C4A69018   7.399   6.624   7.355
11015POPC   C1B69019   7.221   6.516   6.455
11015POPC   C2B69020   7.201   6.532   6.755
11015POPC   C3B69021   7.236   6.503   7.055
11015POPC   C4B69022   7.175   6.482   7.355
11016POPC   NC369023  36.101   3.507   5.555
11016POPC   PO469024  36.108   3.514   5.855
11016POPC   GL169025  36.150   3.547   6.155
11016POPC   GL269026  36.047   3.508   6.155
11016POPC   C1A69027  36.114   3.512   6.455
11016POPC   D2A69028  36.164   3.570   6.755
11016POPC   C3A69029  36.137   3.580   7.055
11016POPC   C4A69030  36.114   3.499   7.355
11016POPC   C1B69031  35.839   3.576   6.455
11016POPC   C2B69032  35.883   3.530   6.755
11016POPC   C3B69033  35.927   3.485   7.055
11016POPC   C4B69034  35.927   3.514   7.355
11017POPC   NC369035  11.335  21.392   5.555
11017POPC   PO469036  11.273  21.386   5.855
11017POPC   GL169037  11.317  21.348   6.155
11017POPC   GL269038  11.283  21.308   6.155
11017POPC   C1A69039  11.280  21.354   6.455
11017POPC   D2A69040  11.332  21.371   6.755
11017POPC   C3A69041  11.327  21.398   7.055
11017POPC   C4A69042  11.341  21.394   7.355
11017POPC   C1B69043  11.310  21.095   6.455
11017POPC   C2B69044  11.358  21.157   6.755
11017POPC   C3B69045  11.281  21.132   7.055
11017POPC   C4B69046  11.301  21.099   7.355
11018POPC   NC369047  28.378  23.714   5.555
11018POPC   PO469048  28.363  23.738   5.855
11018POPC   GL169049  28.344  23.762   6.155
11018POPC   GL269050  28.196  23.699   6.155
11018POPC   C1A69051  28.349  23.732   6.455
11018POPC   D2A69052  28.344  23.685   6.755
11018POPC   C3A69053  28.414  23.747   7.055
11018POPC   C4A69054  28.325  23.665   7.355
11018POPC   C1B69055  28.131  23.739   6.455
11018POPC   C2B69056  28.114  23.708   6.755
11018POPC   C3B69057  28.147  23.767   7.055
11018POPC   C4B69058  28.145  23.737   7.355
11019POPC   NC369059  28.320   1.969   5.555
11019POPC   PO469060  28.350   2.035   5.855
11019POPC   GL169061  28.367   1.951   6.155
11019POPC   GL269062  28.387   1.834   6.155
11019POPC   C1A69063  28.386   1.945   6.455
11019POPC   D2A69064  28.330   2.007   6.755
11019POPC   C3A69065  28.349   2.021   7.055
11019POPC   C4A69066  28.392   1.993   7.355
11019POPC   C1B69067  28.379   1.718   6.455
11019POPC   C2B69068  28.353   1.778   6.755
11019POPC   C3B69069  28.351   1.744   7.055
11019POPC   C4B69070  28.340   1.775   7.355
11020POPC   NC369071   3.548   5.878   5.555
11020POPC   PO469072   3.564   5.876   5.855
11020POPC   GL169073   3.523   5.848   6.155
11020POPC   GL269074   3.700   5.872   6.155
11020POPC   C1A69075   3.525   5.915   6.455
11020POPC   D2A69076   3.494   5.891   6.755
11020POPC   C3A69077   3.553   5.847   7.055
11020POPC   C4A69078   3.553   5.853   7.355
11020POPC   C1B69079   3.776   5.897   6.455
11020POPC   C2B69080   3.745   5.919   6.755
11020POPC   C3B69081   3.804   5.979   7.055
11020POPC   C4B69082   3.829   5.901   7.355
11021POPC   NC369083  40.766  12.838   5.555
11021POPC   PO469084  40.797  12.856   5.855
11021POPC   GL169085  40.750  12.813   6.155
11021POPC   GL269086  40.881  12.869   6.155
11021POPC   C1A69087  40.772  12.847   6.455
11021POPC   D2A69088  40.750  12.899   6.755
11021POPC   C3A69089  40.793  12.847   7.055
11021POPC   C4A69090  40.747  12.882   7.355
11021POPC   C1B69091  41.025  12.950   6.455
11021POPC   C2B69092  41.059  12.921   6.755
11021POPC   C3B69093  41.010  12.944   7.055
11021POPC   C4B69094  41.035  12.913   7.355
11022POPC   NC369095  35.324  32.199   5.555
11022POPC   PO469096  35.360  32.286   5.855
11022POPC   GL169097  35.400  32.256   6.155
11022POPC   GL269098  35.266  32.197   6.155
11022POPC   C1A69099  35.318  32.257   6.455
11022POPC   D2A69100  35.349  32.208   6.755
11022POPC   C3A69101  35.334  32.253   7.055
11022POPC   C4A69102  35.366  32.218   7.355
11022POPC   C1B69103  35.137  32.081   6.455
11022POPC   C2B69104  35.183  32.126   6.755
11022POPC   C3B69105  35.155  32.094   7.055
11022POPC   C4B69106  35.134  32.150   7.355
11023POPC   NC369107  41.571  29.932   5.555
11023POPC   PO469108  41.593  29.957   5.855
11023POPC   GL169109  41.563  29.906   6.155
11023POPC   GL269110  41.613  30.085   6.155
11023POPC   C1A69111  41.539  29.903   6.455
11023POPC   D2A69112  41.561  29.952   6.755
11023POPC   C3A69113  41.522  29.925   7.055
11023POPC   C4A69114  41.573  29.876   7.355
11023POPC   C1B69115  41.594  30.145   6.455
11023POPC   C2B69116  41.611  30.184   6.755
11023POPC   C3B69117  41.579  30.209   7.055
11023POPC   C4B69118  41.633  30.173   7.355
11024POPC   NC369119  36.863  16.758   5.555
11024POPC   PO469120  36.930  16.766   5.855
11024POPC   GL169121  36.903  16.718   6.155
11024POPC   GL269122  36.871  16.853   6.155
11024POPC   C1A69123  36.948  16.682   6.455
11024POPC   D2A69124  36.882  16.706   6.755
11024POPC   C3A69125  36.932  16.699   7.055
11024POPC   C4A69126  36.904  16.774   7.355
11024POPC   C1B69127  36.808  16.961   6.455
11024POPC   C2B69128  36.825  17.003   6.755
11024POPC   C3B69129  36.809  16.999   7.055
11024POPC   C4B69130  36.747  16.978   7.355
11025POPC   NC369131  35.330   8.984   5.555
11025POPC   PO469132  35.399   8.950   5.855
11025POPC   GL169133  35.361   8.946   6.155
11025POPC   GL269134  35.438   9.019   6.155
11025POPC   C1A69135  35.378   8.938   6.455
11025POPC   D2A69136  35.354   8.976   6.755
11025POPC   C3A69137  35.366   8.931   7.055
11025POPC   C4A69138  35.372   8.983   7.355
11025POPC   C1B69139  35.582   9.151   6.455
11025POPC   C2B69140  35.522   9.151   6.755
11025POPC   C3B69141  35.569   9.146   7.055
11025POPC   C4B69142  35.594   9.067   7.355
11026POPC   NC369143  38.424  14.451   5.555
11026POPC   PO469144  38.481  14.393   5.855
11026POPC   GL169145  38.449  14.363   6.155
11026POPC   GL269146  38.620  14.432   6.155
11026POPC   C1A69147  38.504  14.430   6.455
11026POPC   D2A69148  38.452  14.384   6.755
11026POPC   C3A69149  38.444  14.404   7.055
11026POPC   C4A69150  38.430  14.411   7.355
11026POPC   C1B69151  38.749  14.357   6.455
11026POPC   C2B69152  38.692  14.387   6.755
11026POPC   C3B69153  38.720  14.371   7.055
11026POPC   C4B69154  38.712  14.359   7.355
11027POPC   NC369155  24.448  10.552   5.555
11027POPC   PO469156  24.526  10.530   5.855
11027POPC   GL169157  24.529  10.508   6.155
11027POPC   GL269158  24.329  10.531   6.155
11027POPC   C1A69159  24.502  10.524   6.455
11027POPC   D2A69160  24.447  10.534   6.755
11027POPC   C3A69161  24.477  10.480   7.055
11027POPC   C4A69162  24.488  10.568   7.355
11027POPC   C1B69163  24.202  10.484   6.455
11027POPC   C2B69164  24.261  10.478   6.755
11027POPC   C3B69165  24.221  10.538   7.055
11027POPC   C4B69166  24.218  10.488   7.355
11028POPC   NC369167  14.400   5.104   5.555
11028POPC   PO469168  14.378   5.070   5.855
11028POPC   GL169169  14.376   5.130   6.155
11028POPC   GL269170  14.462   4.978   6.155
11028POPC   C1A69171  14.423   5.048   6.455
11028POPC   D2A69172  14.379   5.054   6.755
11028POPC   C3A69173  14.401   5.110   7.055
11028POPC   C4A69174  14.413   5.055   7.355
11028POPC   C1B69175  14.504   4.867   6.455
11028POPC   C2B69176  14.556   4.863   6.755
11028POPC   C3B69177  14.525   4.839   7.055
11028POPC   C4B69178  14.541   4.906   7.355
11029POPC   NC369179  10.495  15.225   5.555
11029POPC   PO469180  10.487  15.206   5.855
11029POPC   GL169181  10.573  15.174   6.155
11029POPC   GL269182  10.634  15.208   6.155
11029POPC   C1A69183  10.539  15.173   6.455
11029POPC   D2A69184  10.484  15.148   6.755
11029POPC   C3A69185  10.511  15.224   7.055
11029POPC   C4A69186  10.541  15.138   7.355
11029POPC   C1B69187  10.777  15.255   6.455
11029POPC   C2B69188  10.772  15.240   6.755
11029POPC   C3B69189  10.721  15.244   7.055
11029POPC   C4B69190  10.809  15.215   7.355
11030POPC   NC369191  33.774   4.357   5.555
11030POPC   PO469192  33.770   4.328   5.855
11030POPC   GL169193  33.812   4.362   6.155
11030POPC   GL269194  33.926   4.322   6.155
11030POPC   C1A69195  33.776   4.322   6.455
11030POPC   D2A69196  33.831   4.278   6.755
11030POPC   C3A69197  33.769   4.348   7.055
11030POPC   C4A69198  33.759   4.301   7.355
11030POPC   C1B69199  34.032   4.279   6.455
11030POPC   C2B69200  34.043   4.281   6.755
11030POPC   C3B69201  34.086   4.278   7.055
11030POPC   C4B69202  34.068   4.346   7.355
11031POPC   NC369203  36.893   9.766   5.555
11031POPC   PO469204  36.887   9.794   5.855
11031POPC   GL169205  36.886   9.732   6.155
11031POPC   GL269206  36.991   9.639   6.155
11031POPC   C1A69207  36.941   9.746   6.455
11031POPC   D2A69208  36.885   9.742   6.755
11031POPC   C3A69209  36.949   9.740   7.055
11031POPC   C4A69210  36.886   9.748   7.355
11031POPC   C1B69211  37.100   9.602   6.455
11031POPC   C2B69212  37.053   9.606   6.755
11031POPC   C3B69213  37.044   9.545   7.055
11031POPC   C4B69214  37.120   9.565   7.355
11032POPC   NC369215   1.179   2.762   5.555
11032POPC   PO469216   1.200   2.751   5.855
11032POPC   GL169217   1.198   2.768   6.155
11032POPC   GL269218   1.253   2.871   6.155
11032POPC   C1A69219   1.166   2.737   6.455
11032POPC   D2A69220   1.246   2.800   6.755
11032POPC   C3A69221   1.236   2.754   7.055
11032POPC   C4A69222   1.166   2.778   7.355
11032POPC   C1B69223   1.232   3.037   6.455
11032POPC   C2B69224   1.287   2.982   6.755
11032POPC   C3B69225   1.239   3.056   7.055
11032POPC   C4B69226   1.289   3.015   7.355
11033POPC   NC369227  42.335  34.622   5.555
11033POPC   PO469228  42.311  34.548   5.855
11033POPC   GL169229  42.318  34.608   6.155
11033POPC   GL269230  42.181  34.555   6.155
11033POPC   C1A69231  42.372  34.576   6.455
11033POPC   D2A69232  42.356  34.551   6.755
11033POPC   C3A69233  42.312  34.592   7.055
11033POPC   C4A69234  42.303  34.528   7.355
11033POPC   C1B69235  42.086  34.577   6.455
11033POPC   C2B69236  42.068  34.547   6.755
11033POPC   C3B69237  42.060  34.599   7.055
11033POPC   C4B69238  42.061  34.564   7.355
11034POPC   NC369239  43.911  13.643   5.555
11034POPC   PO469240  43.899  13.622   5.855
11034POPC   GL169241  43.844  13.592   6.155
11034POPC   GL269242  43.809  13.488   6.155
11034POPC   C1A69243  43.857  13.579   6.455
11034POPC   D2A69244  43.880  13.652   6.755
11034POPC   C3A69245  43.931  13.647   7.055
11034POPC   C4A69246  43.847  13.593   7.355
11034POPC   C1B69247  43.683  13.440   6.455
11034POPC   C2B69248  43.713  13.448   6.755
11034POPC   C3B69249  43.741  13.485   7.055
11034POPC   C4B69250  43.707  13.426   7.355
11035POPC   NC369251  21.417   8.946   5.555
11035POPC   PO469252  21.360   8.996   5.855
11035POPC   GL169253  21.366   8.976   6.155
11035POPC   GL269254  21.461   9.071   6.155
11035POPC   C1A69255  21.351   9.011   6.455
11035POPC   D2A69256  21.406   8.987   6.755
11035POPC   C3A69257  21.414   8.983   7.055
11035POPC   C4A69258  21.342   8.964   7.355
11035POPC   C1B69259  21.603   9.135   6.455
11035POPC   C2B69260  21.528   9.173   6.755
11035POPC   C3B69261  21.569   9.122   7.055
11035POPC   C4B69262  21.554   9.175   7.355
11036POPC   NC369263   5.116  22.951   5.555
11036POPC   PO469264   5.049  22.939   5.855
11036POPC   GL169265   5.059  22.977   6.155
11036POPC   GL269266   5.072  22.798   6.155
11036POPC   C1A69267   5.062  22.917   6.455
11036POPC   D2A69268   5.108  22.970   6.755
11036POPC   C3A69269   5.076  22.891   7.055
11036POPC   C4A69270   5.101  22.956   7.355
11036POPC   C1B69271   5.086  22.730   6.455
11036POPC   C2B69272   5.125  22.724   6.755
11036POPC   C3B69273   5.143  22.646   7.055
11036POPC   C4B69274   5.110  22.713   7.355
11037POPC   NC369275  39.247  21.389   5.555
11037POPC   PO469276  39.214  21.434   5.855
11037POPC   GL169277  39.272  21.397   6.155
11037POPC   GL269278  39.317  21.277   6.155
11037POPC   C1A69279  39.236  21.389   6.455
11037POPC   D2A69280  39.277  21.415   6.755
11037POPC   C3A69281  39.268  21.419   7.055
11037POPC   C4A69282  39.219  21.383   7.355
11037POPC   C1B69283  39.421  21.257   6.455
11037POPC   C2B69284  39.428  21.235   6.755
11037POPC   C3B69285  39.388  21.222   7.055
11037POPC   C4B69286  39.448  21.273   7.355
11038POPC   NC369287  11.341  26.061   5.555
11038POPC   PO469288  11.284  26.034   5.855
11038POPC   GL169289  11.300  26.043   6.155
11038POPC   GL269290  11.356  25.893   6.155
11038POPC   C1A69291  11.296  26.080   6.455
11038POPC   D2A69292  11.317  26.077   6.755
11038POPC   C3A69293  11.338  26.056   7.055
11038POPC   C4A69294  11.252  26.003   7.355
11038POPC   C1B69295  11.332  25.800   6.455
11038POPC   C2B69296  11.372  25.787   6.755
11038POPC   C3B69297  11.330  25.781   7.055
11038POPC   C4B69298  11.309  25.756   7.355
11039POPC   NC369299  36.147  39.253   5.555
11039POPC   PO469300  36.148  39.251   5.855
11039POPC   GL169301  36.078  39.207   6.155
11039POPC   GL269302  36.129  39.078   6.155
11039POPC   C1A69303  36.093  39.202   6.455
11039POPC   D2A69304  36.081  39.223   6.755
11039POPC   C3A69305  36.080  39.245   7.055
11039POPC   C4A69306  36.152  39.188   7.355
11039POPC   C1B69307  36.081  38.973   6.455
11039POPC   C2B69308  36.045  38.960   6.755
11039POPC   C3B69309  36.050  38.961   7.055
11039POPC   C4B69310  36.052  38.979   7.355
11040POPC   NC369311  28.365  10.555   5.555
11040POPC   PO469312  28.367  10.500   5.855
11040POPC   GL169313  28.392  10.574   6.155
11040POPC   GL269314  28.493  10.459   6.155
11040POPC   C1A69315  28.330  10.554   6.455
11040POPC   D2A69316  28.406  10.527   6.755
11040POPC   C3A69317  28.355  10.533   7.055
11040POPC   C4A69318  28.401  10.475   7.355
11040POPC   C1B69319  28.562  10.406   6.455
11040POPC   C2B69320  28.599  10.489   6.755
11040POPC   C3B69321  28.636  10.477   7.055
11040POPC   C4B69322  28.631  10.468   7.355
11041POPC   NC369323   1.950  25.236   5.555
11041POPC   PO469324   1.946  25.301   5.855
11041POPC   GL169325   1.976  25.285   6.155
11041POPC   GL269326   2.020  25.199   6.155
11041POPC   C1A69327   1.976  25.252   6.455
11041POPC   D2A69328   1.987  25.257   6.755
11041POPC   C3A69329   2.039  25.233   7.055
11041POPC   C4A69330   2.026  25.244   7.355
11041POPC   C1B69331   2.084  25.064   6.455
11041POPC   C2B69332   2.103  25.022   6.755
11041POPC   C3B69333   2.129  25.011   7.055
11041POPC   C4B69334   2.052  25.059   7.355
11042POPC   NC369335   3.591  20.655   5.555
11042POPC   PO469336   3.497  20.635   5.855
11042POPC   GL169337   3.581  20.622   6.155
11042POPC   GL269338   3.413  20.646   6.155
11042POPC   C1A69339   3.539  20.638   6.455
11042POPC   D2A69340   3.585  20.646   6.755
11042POPC   C3A69341   3.494  20.583   7.055
11042POPC   C4A69342   3.547  20.575   7.355
11042POPC   C1B69343   3.298  20.701   6.455
11042POPC   C2B69344   3.325  20.703   6.755
11042POPC   C3B69345   3.295  20.647   7.055
11042POPC   C4B69346   3.328  20.663   7.355
11043POPC   NC369347  12.056   5.843   5.555
11043POPC   PO469348  12.028   5.875   5.855
11043POPC   GL169349  12.117   5.899   6.155
11043POPC   GL269350  12.121   5.970   6.155
11043POPC   C1A69351  12.114   5.830   6.455
11043POPC   D2A69352  12.070   5.819   6.755
11043POPC   C3A69353  12.089   5.895   7.055
11043POPC   C4A69354  12.089   5.917   7.355
11043POPC   C1B69355  12.302   6.090   6.455
11043POPC   C2B69356  12.250   6.064   6.755
11043POPC   C3B69357  12.224   6.082   7.055
11043POPC   C4B69358  12.285   5.995   7.355
11044POPC   NC369359  15.963  23.740   5.555
11044POPC   PO469360  15.926  23.757   5.855
11044POPC   GL169361  15.997  23.759   6.155
11044POPC   GL269362  15.906  23.672   6.155
11044POPC   C1A69363  15.931  23.751   6.455
11044POPC   D2A69364  15.911  23.716   6.755
11044POPC   C3A69365  15.961  23.680   7.055
11044POPC   C4A69366  15.977  23.697   7.355
11044POPC   C1B69367  15.788  23.584   6.455
11044POPC   C2B69368  15.747  23.508   6.755
11044POPC   C3B69369  15.734  23.531   7.055
11044POPC   C4B69370  15.794  23.533   7.355
11045POPC   NC369371  40.049   1.233   5.555
11045POPC   PO469372  39.990   1.182   5.855
11045POPC   GL169373  40.043   1.260   6.155
11045POPC   GL269374  40.075   1.165   6.155
11045POPC   C1A69375  40.014   1.185   6.455
11045POPC   D2A69376  39.989   1.190   6.755
11045POPC   C3A69377  40.024   1.241   7.055
11045POPC   C4A69378  40.051   1.176   7.355
11045POPC   C1B69379  40.240   1.148   6.455
11045POPC   C2B69380  40.240   1.100   6.755
11045POPC   C3B69381  40.266   1.101   7.055
11045POPC   C4B69382  40.216   1.113   7.355
11046POPC   NC369383   2.795   8.986   5.555
11046POPC   PO469384   2.785   8.948   5.855
11046POPC   GL169385   2.806   8.955   6.155
11046POPC   GL269386   2.648   9.023   6.155
11046POPC   C1A69387   2.767   8.925   6.455
11046POPC   D2A69388   2.809   8.972   6.755
11046POPC   C3A69389   2.788   8.976   7.055
11046POPC   C4A69390   2.731   8.941   7.355
11046POPC   C1B69391   2.608   9.218   6.455
11046POPC   C2B69392   2.585   9.171   6.755
11046POPC   C3B69393   2.658   9.136   7.055
11046POPC   C4B69394   2.658   9.138   7.355
11047POPC   NC369395  17.509  19.064   5.555
11047POPC   PO469396  17.504  19.036   5.855
11047POPC   GL169397  17.517  19.102   6.155
11047POPC   GL269398  17.466  18.959   6.155
11047POPC   C1A69399  17.538  19.090   6.455
11047POPC   D2A69400  17.494  19.010   6.755
11047POPC   C3A69401  17.510  19.074   7.055
11047POPC   C4A69402  17.548  19.024   7.355
11047POPC   C1B69403  17.354  18.845   6.455
11047POPC   C2B69404  17.354  18.917   6.755
11047POPC   C3B69405  17.295  18.919   7.055
11047POPC   C4B69406  17.316  18.903   7.355
11048POPC   NC369407  26.833  15.927   5.555
11048POPC   PO469408  26.775  15.950   5.855
11048POPC   GL169409  26.811  15.964   6.155
11048POPC   GL269410  26.725  15.915   6.155
11048POPC   C1A69411  26.779  16.002   6.455
11048POPC   D2A69412  26.840  15.932   6.755
11048POPC   C3A69413  26.820  15.962   7.055
11048POPC   C4A69414  26.799  15.993   7.355
11048POPC   C1B69415  26.526  15.903   6.455
11048POPC   C2B69416  26.539  15.883   6.755
11048POPC   C3B69417  26.527  15.862   7.055
11048POPC   C4B69418  26.560  15.846   7.355
11049POPC   NC369419  23.699  41.579   5.555
11049POPC   PO469420  23.738  41.595   5.855
11049POPC   GL169421  23.716  41.582   6.155
11049POPC   GL269422  23.722  41.391   6.155
11049POPC   C1A69423  23.683  41.538   6.455
11049POPC   D2A69424  23.674  41.577   6.755
11049POPC   C3A69425  23.747  41.540   7.055
11049POPC   C4A69426  23.740  41.537   7.355
11049POPC   C1B69427  23.690  41.356   6.455
11049POPC   C2B69428  23.683  41.320   6.755
11049POPC   C3B69429  23.634  41.282   7.055
11049POPC   C4B69430  23.643  41.309   7.355
11050POPC   NC369431   6.667   5.864   5.555
11050POPC   PO469432   6.666   5.852   5.855
11050POPC   GL169433   6.643   5.902   6.155
11050POPC   GL269434   6.729   5.915   6.155
11050POPC   C1A69435   6.674   5.839   6.455
11050POPC   D2A69436   6.618   5.918   6.755
11050POPC   C3A69437   6.672   5.824   7.055
11050POPC   C4A69438   6.603   5.845   7.355
11050POPC   C1B69439   6.851   6.014   6.455
11050POPC   C2B69440   6.832   6.100   6.755
11050POPC   C3B69441   6.841   6.080   7.055
11050POPC   C4B69442   6.809   6.038   7.355
11051POPC   NC369443  16.721  34.611   5.555
11051POPC   PO469444  16.751  34.582   5.855
11051POPC   GL169445  16.714  34.598   6.155
11051POPC   GL269446  16.808  34.623   6.155
11051POPC   C1A69447  16.722  34.556   6.455
11051POPC   D2A69448  16.738  34.609   6.755
11051POPC   C3A69449  16.734  34.615   7.055
11051POPC   C4A69450  16.780  34.619   7.355
11051POPC   C1B69451  16.913  34.717   6.455
11051POPC   C2B69452  16.985  34.688   6.755
11051POPC   C3B69453  16.967  34.712   7.055
11051POPC   C4B69454  16.993  34.677   7.355
11052POPC   NC369455  16.002  13.609   5.555
11052POPC   PO469456  15.979  13.636   5.855
11052POPC   GL169457  15.988  13.655   6.155
11052POPC   GL269458  15.935  13.770   6.155
11052POPC   C1A69459  15.970  13.602   6.455
11052POPC   D2A69460  15.956  13.589   6.755
11052POPC   C3A69461  15.942  13.653   7.055
11052POPC   C4A69462  15.987  13.653   7.355
11052POPC   C1B69463  16.031  13.888   6.455
11052POPC   C2B69464  15.976  13.824   6.755
11052POPC   C3B69465  16.049  13.832   7.055
11052POPC   C4B69466  16.012  13.913   7.355
11053POPC   NC369467  20.623  19.851   5.555
11053POPC   PO469468  20.585  19.849   5.855
11053POPC   GL169469  20.629  19.879   6.155
11053POPC   GL269470  20.598  19.674   6.155
11053POPC   C1A69471  20.573  19.860   6.455
11053POPC   D2A69472  20.574  19.863   6.755
11053POPC   C3A69473  20.631  19.840   7.055
11053POPC   C4A69474  20.658  19.864   7.355
11053POPC   C1B69475  20.620  19.597   6.455
11053POPC   C2B69476  20.659  19.632   6.755
11053POPC   C3B69477  20.652  19.546   7.055
11053POPC   C4B69478  20.616  19.572   7.355
11054POPC   NC369479  26.857  13.653   5.555
11054POPC   PO469480  26.800  13.650   5.855
11054POPC   GL169481  26.835  13.648   6.155
11054POPC   GL269482  26.897  13.599   6.155
11054POPC   C1A69483  26.833  13.675   6.455
11054POPC   D2A69484  26.858  13.659   6.755
11054POPC   C3A69485  26.786  13.666   7.055
11054POPC   C4A69486  26.861  13.579   7.355
11054POPC   C1B69487  27.035  13.582   6.455
11054POPC   C2B69488  27.043  13.529   6.755
11054POPC   C3B69489  27.020  13.534   7.055
11054POPC   C4B69490  27.033  13.587   7.355
11055POPC   NC369491   9.705  40.758   5.555
11055POPC   PO469492   9.776  40.784   5.855
11055POPC   GL169493   9.723  40.775   6.155
11055POPC   GL269494   9.918  40.789   6.155
11055POPC   C1A69495   9.775  40.741   6.455
11055POPC   D2A69496   9.745  40.806   6.755
11055POPC   C3A69497   9.723  40.797   7.055
11055POPC   C4A69498   9.741  40.739   7.355
11055POPC   C1B69499  10.033  40.780   6.455
11055POPC   C2B69500  10.046  40.847   6.755
11055POPC   C3B69501   9.972  40.803   7.055
11055POPC   C4B69502  10.039  40.795   7.355
11056POPC   NC369503  12.802  42.357   5.555
11056POPC   PO469504  12.812  42.317   5.855
11056POPC   GL169505  12.892  42.371   6.155
11056POPC   GL269506  12.940  42.442   6.155
11056POPC   C1A69507  12.851  42.315   6.455
11056POPC   D2A69508  12.897  42.312   6.755
11056POPC   C3A69509  12.895  42.343   7.055
11056POPC   C4A69510  12.876  42.356   7.355
11056POPC   C1B69511  13.018  42.464   6.455
11056POPC   C2B69512  13.016  42.530   6.755
11056POPC   C3B69513  13.059  42.451   7.055
11056POPC   C4B69514  12.998  42.489   7.355
11057POPC   NC369515  36.090   8.980   5.555
11057POPC   PO469516  36.177   8.990   5.855
11057POPC   GL169517  36.111   9.019   6.155
11057POPC   GL269518  36.115   8.818   6.155
11057POPC   C1A69519  36.142   8.978   6.455
11057POPC   D2A69520  36.141   8.964   6.755
11057POPC   C3A69521  36.144   8.948   7.055
11057POPC   C4A69522  36.163   8.952   7.355
11057POPC   C1B69523  36.060   8.703   6.455
11057POPC   C2B69524  36.079   8.720   6.755
11057POPC   C3B69525  36.070   8.725   7.055
11057POPC   C4B69526  36.099   8.775   7.355
11058POPC   NC369527   9.734   2.723   5.555
11058POPC   PO469528   9.735   2.795   5.855
11058POPC   GL169529   9.780   2.747   6.155
11058POPC   GL269530   9.745   2.624   6.155
11058POPC   C1A69531   9.723   2.735   6.455
11058POPC   D2A69532   9.778   2.763   6.755
11058POPC   C3A69533   9.701   2.733   7.055
11058POPC   C4A69534   9.773   2.815   7.355
11058POPC   C1B69535   9.777   2.525   6.455
11058POPC   C2B69536   9.805   2.553   6.755
11058POPC   C3B69537   9.763   2.470   7.055
11058POPC   C4B69538   9.814   2.558   7.355
11059POPC   NC369539  23.736  23.708   5.555
11059POPC   PO469540  23.750  23.732   5.855
11059POPC   GL169541  23.695  23.727   6.155
11059POPC   GL269542  23.603  23.656   6.155
11059POPC   C1A69543  23.737  23.728   6.455
11059POPC   D2A69544  23.732  23.695   6.755
11059POPC   C3A69545  23.693  23.666   7.055
11059POPC   C4A69546  23.692  23.724   7.355
11059POPC   C1B69547  23.458  23.570   6.455
11059POPC   C2B69548  23.459  23.544   6.755
11059POPC   C3B69549  23.512  23.623   7.055
11059POPC   C4B69550  23.499  23.592   7.355
11060POPC   NC369551   6.637   9.793   5.555
11060POPC   PO469552   6.615   9.700   5.855
11060POPC   GL169553   6.606   9.718   6.155
11060POPC   GL269554   6.568   9.676   6.155
11060POPC   C1A69555   6.629   9.699   6.455
11060POPC   D2A69556   6.597   9.759   6.755
11060POPC   C3A69557   6.674   9.760   7.055
11060POPC   C4A69558   6.641   9.720   7.355
11060POPC   C1B69559   6.427   9.606   6.455
11060POPC   C2B69560   6.425   9.571   6.755
11060POPC   C3B69561   6.414   9.577   7.055
11060POPC   C4B69562   6.387   9.581   7.355
11061POPC   NC369563  22.161  27.581   5.555
11061POPC   PO469564  22.157  27.577   5.855
11061POPC   GL169565  22.163  27.583   6.155
11061POPC   GL269566  22.150  27.733   6.155
11061POPC   C1A69567  22.158  27.546   6.455
11061POPC   D2A69568  22.128  27.625   6.755
11061POPC   C3A69569  22.137  27.596   7.055
11061POPC   C4A69570  22.140  27.557   7.355
11061POPC   C1B69571  22.086  27.871   6.455
11061POPC   C2B69572  22.088  27.866   6.755
11061POPC   C3B69573  22.046  27.778   7.055
11061POPC   C4B69574  22.098  27.850   7.355
11062POPC   NC369575   8.949   8.962   5.555
11062POPC   PO469576   8.981   9.013   5.855
11062POPC   GL169577   8.965   9.000   6.155
11062POPC   GL269578   8.978   9.114   6.155
11062POPC   C1A69579   8.971   8.933   6.455
11062POPC   D2A69580   8.986   8.925   6.755
11062POPC   C3A69581   9.002   8.995   7.055
11062POPC   C4A69582   8.942   8.977   7.355
11062POPC   C1B69583   8.878   9.256   6.455
11062POPC   C2B69584   8.934   9.165   6.755
11062POPC   C3B69585   8.938   9.183   7.055
11062POPC   C4B69586   8.890   9.259   7.355
11063POPC   NC369587  32.264  23.757   5.555
11063POPC   PO469588  32.262  23.747   5.855
11063POPC   GL169589  32.270  23.712   6.155
11063POPC   GL269590  32.161  23.644   6.155
11063POPC   C1A69591  32.220  23.683   6.455
11063POPC   D2A69592  32.202  23.730   6.755
11063POPC   C3A69593  32.241  23.698   7.055
11063POPC   C4A69594  32.246  23.693   7.355
11063POPC   C1B69595  32.037  23.585   6.455
11063POPC   C2B69596  32.040  23.620   6.755
11063POPC   C3B69597  32.074  23.565   7.055
11063POPC   C4B69598  32.048  23.619   7.355
11064POPC   NC369599  11.267  22.931   5.555
11064POPC   PO469600  11.346  22.925   5.855
11064POPC   GL169601  11.282  22.945   6.155
11064POPC   GL269602  11.194  22.899   6.155
11064POPC   C1A69603  11.280  22.941   6.455
11064POPC   D2A69604  11.291  22.895   6.755
11064POPC   C3A69605  11.295  22.969   7.055
11064POPC   C4A69606  11.305  22.954   7.355
11064POPC   C1B69607  11.069  22.905   6.455
11064POPC   C2B69608  11.027  22.905   6.755
11064POPC   C3B69609  11.042  22.901   7.055
11064POPC   C4B69610  11.054  22.902   7.355
11065POPC   NC369611   0.461   8.183   5.555
11065POPC   PO469612   0.453   8.171   5.855
11065POPC   GL169613   0.478   8.188   6.155
11065POPC   GL269614   0.520   8.061   6.155
11065POPC   C1A69615   0.475   8.192   6.455
11065POPC   D2A69616   0.421   8.202   6.755
11065POPC   C3A69617   0.406   8.246   7.055
11065POPC   C4A69618   0.393   8.172   7.355
11065POPC   C1B69619   0.516   7.923   6.455
11065POPC   C2B69620   0.516   7.982   6.755
11065POPC   C3B69621   0.509   7.929   7.055
11065POPC   C4B69622   0.560   7.933   7.355
11066POPC   NC369623  16.754  26.798   5.555
11066POPC   PO469624  16.762  26.789   5.855
11066POPC   GL169625  16.737  26.791   6.155
11066POPC   GL269626  16.834  26.835   6.155
11066POPC   C1A69627  16.752  26.843   6.455
11066POPC   D2A69628  16.697  26.841   6.755
11066POPC   C3A69629  16.692  26.774   7.055
11066POPC   C4A69630  16.768  26.822   7.355
11066POPC   C1B69631  16.956  26.865   6.455
11066POPC   C2B69632  16.996  26.800   6.755
11066POPC   C3B69633  16.931  26.831   7.055
11066POPC   C4B69634  17.017  26.864   7.355
11067POPC   NC369635  28.363   5.821   5.555
11067POPC   PO469636  28.408   5.899   5.855
11067POPC   GL169637  28.396   5.903   6.155
11067POPC   GL269638  28.316   6.001   6.155
11067POPC   C1A69639  28.330   5.892   6.455
11067POPC   D2A69640  28.320   5.871   6.755
11067POPC   C3A69641  28.349   5.843   7.055
11067POPC   C4A69642  28.373   5.842   7.355
11067POPC   C1B69643  28.292   6.074   6.455
11067POPC   C2B69644  28.213   6.077   6.755
11067POPC   C3B69645  28.282   6.142   7.055
11067POPC   C4B69646  28.217   6.089   7.355
11068POPC   NC369647  39.222  34.530   5.555
11068POPC   PO469648  39.246  34.556   5.855
11068POPC   GL169649  39.187  34.595   6.155
11068POPC   GL269650  39.247  34.487   6.155
11068POPC   C1A69651  39.264  34.611   6.455
11068POPC   D2A69652  39.240  34.536   6.755
11068POPC   C3A69653  39.235  34.563   7.055
11068POPC   C4A69654  39.281  34.538   7.355
11068POPC   C1B69655  39.202  34.363   6.455
11068POPC   C2B69656  39.187  34.316   6.755
11068POPC   C3B69657  39.149  34.280   7.055
11068POPC   C4B69658  39.188  34.304   7.355
11069POPC   NC369659  28.370   9.712   5.555
11069POPC   PO469660  28.342   9.778   5.855
11069POPC   GL169661  28.364   9.699   6.155
11069POPC   GL269662  28.370   9.847   6.155
11069POPC   C1A69663  28.380   9.752   6.455
11069POPC   D2A69664  28.343   9.742   6.755
11069POPC   C3A69665  28.411   9.740   7.055
11069POPC   C4A69666  28.326   9.745   7.355
11069POPC   C1B69667  28.440  10.030   6.455
11069POPC   C2B69668  28.472   9.973   6.755
11069POPC   C3B69669  28.451   9.980   7.055
11069POPC   C4B69670  28.417   9.941   7.355
11070POPC   NC369671   3.586  16.705   5.555
11070POPC   PO469672   3.497  16.764   5.855
11070POPC   GL169673   3.534  16.690   6.155
11070POPC   GL269674   3.640  16.633   6.155
11070POPC   C1A69675   3.534  16.691   6.455
11070POPC   D2A69676   3.515  16.714   6.755
11070POPC   C3A69677   3.551  16.691   7.055
11070POPC   C4A69678   3.547  16.700   7.355
11070POPC   C1B69679   3.727  16.568   6.455
11070POPC   C2B69680   3.738  16.537   6.755
11070POPC   C3B69681   3.714  16.583   7.055
11070POPC   C4B69682   3.747  16.549   7.355
11071POPC   NC369683  26.069  16.724   5.555
11071POPC   PO469684  26.061  16.746   5.855
11071POPC   GL169685  26.006  16.718   6.155
11071POPC   GL269686  26.122  16.800   6.155
11071POPC   C1A69687  26.070  16.703   6.455
11071POPC   D2A69688  26.002  16.736   6.755
11071POPC   C3A69689  26.079  16.745   7.055
11071POPC   C4A69690  26.035  16.733   7.355
11071POPC   C1B69691  26.214  16.923   6.455
11071POPC   C2B69692  26.251  16.923   6.755
11071POPC   C3B69693  26.207  16.931   7.055
11071POPC   C4B69694  26.192  16.958   7.355
11072POPC   NC369695   5.062  36.914   5.555
11072POPC   PO469696   5.101  36.934   5.855
11072POPC   GL169697   5.092  36.936   6.155
11072POPC   GL269698   5.036  37.042   6.155
11072POPC   C1A69699   5.119  36.892   6.455
11072POPC   D2A69700   5.088  36.929   6.755
11072POPC   C3A69701   5.117  36.907   7.055
11072POPC   C4A69702   5.077  36.862   7.355
11072POPC   C1B69703   4.982  37.085   6.455
11072POPC   C2B69704   4.911  37.082   6.755
11072POPC   C3B69705   4.973  37.070   7.055
11072POPC   C4B69706   5.003  37.151   7.355
11073POPC   NC369707  32.276  15.218   5.555
11073POPC   PO469708  32.257  15.142   5.855
11073POPC   GL169709  32.248  15.211   6.155
11073POPC   GL269710  32.361  15.101   6.155
11073POPC   C1A69711  32.226  15.216   6.455
11073POPC   D2A69712  32.256  15.171   6.755
11073POPC   C3A69713  32.249  15.180   7.055
11073POPC   C4A69714  32.234  15.210   7.355
11073POPC   C1B69715  32.475  15.112   6.455
11073POPC   C2B69716  32.477  15.093   6.755
11073POPC   C3B69717  32.512  15.093   7.055
11073POPC   C4B69718  32.446  15.107   7.355
11074POPC   NC369719  10.571  29.953   5.555
11074POPC   PO469720  10.551  29.950   5.855
11074POPC   GL169721  10.502  29.954   6.155
11074POPC   GL269722  10.506  29.827   6.155
11074POPC   C1A69723  10.572  29.908   6.455
11074POPC   D2A69724  10.568  29.886   6.755
11074POPC   C3A69725  10.500  29.969   7.055
11074POPC   C4A69726  10.498  29.947   7.355
11074POPC   C1B69727  10.473  29.651   6.455
11074POPC   C2B69728  10.446  29.680   6.755
11074POPC   C3B69729  10.468  29.656   7.055
11074POPC   C4B69730  10.426  29.636   7.355
11075POPC   NC369731  22.144  41.517   5.555
11075POPC   PO469732  22.163  41.537   5.855
11075POPC   GL169733  22.195  41.602   6.155
11075POPC   GL269734  22.115  41.721   6.155
11075POPC   C1A69735  22.170  41.597   6.455
11075POPC   D2A69736  22.165  41.567   6.755
11075POPC   C3A69737  22.115  41.514   7.055
11075POPC   C4A69738  22.197  41.575   7.355
11075POPC   C1B69739  22.144  41.772   6.455
11075POPC   C2B69740  22.139  41.857   6.755
11075POPC   C3B69741  22.194  41.759   7.055
11075POPC   C4B69742  22.200  41.798   7.355
11076POPC   NC369743  19.017  14.448   5.555
11076POPC   PO469744  19.027  14.420   5.855
11076POPC   GL169745  19.040  14.450   6.155
11076POPC   GL269746  18.981  14.312   6.155
11076POPC   C1A69747  19.086  14.390   6.455
11076POPC   D2A69748  19.047  14.429   6.755
11076POPC   C3A69749  19.064  14.370   7.055
11076POPC   C4A69750  19.059  14.367   7.355
11076POPC   C1B69751  18.917  14.214   6.455
11076POPC   C2B69752  18.971  14.213   6.755
11076POPC   C3B69753  19.004  14.182   7.055
11076POPC   C4B69754  18.973  14.209   7.355
11077POPC   NC369755   9.002  25.236   5.555
11077POPC   PO469756   9.003  25.260   5.855
11077POPC   GL169757   8.947  25.297   6.155
11077POPC   GL269758   8.921  25.354   6.155
11077POPC   C1A69759   9.000  25.290   6.455
11077POPC   D2A69760   8.954  25.284   6.755
11077POPC   C3A69761   8.974  25.239   7.055
11077POPC   C4A69762   8.994  25.297   7.355
11077POPC   C1B69763   8.831  25.519   6.455
11077POPC   C2B69764   8.897  25.489   6.755
11077POPC   C3B69765   8.808  25.451   7.055
11077POPC   C4B69766   8.851  25.466   7.355
11078POPC   NC369767  28.375   2.777   5.555
11078POPC   PO469768  28.370   2.752   5.855
11078POPC   GL169769  28.410   2.733   6.155
11078POPC   GL269770  28.330   2.655   6.155
11078POPC   C1A69771  28.327   2.770   6.455
11078POPC   D2A69772  28.416   2.805   6.755
11078POPC   C3A69773  28.345   2.782   7.055
11078POPC   C4A69774  28.397   2.765   7.355
11078POPC   C1B69775  28.239   2.574   6.455
11078POPC   C2B69776  28.172   2.584   6.755
11078POPC   C3B69777  28.226   2.618   7.055
11078POPC   C4B69778  28.173   2.552   7.355
11079POPC   NC369779  40.794  35.377   5.555
11079POPC   PO469780  40.742  35.370   5.855
11079POPC   GL169781  40.805  35.395   6.155
11079POPC   GL269782  40.825  35.397   6.155
11079POPC   C1A69783  40.786  35.385   6.455
11079POPC   D2A69784  40.776  35.370   6.755
11079POPC   C3A69785  40.776  35.395   7.055
11079POPC   C4A69786  40.764  35.332   7.355
11079POPC   C1B69787  40.907  35.574   6.455
11079POPC   C2B69788  40.918  35.538   6.755
11079POPC   C3B69789  40.967  35.545   7.055
11079POPC   C4B69790  40.982  35.577   7.355
11080POPC   NC369791  16.737  18.281   5.555
11080POPC   PO469792  16.724  18.324   5.855
11080POPC   GL169793  16.682  18.262   6.155
11080POPC   GL269794  16.664  18.169   6.155
11080POPC   C1A69795  16.758  18.304   6.455
11080POPC   D2A69796  16.705  18.288   6.755
11080POPC   C3A69797  16.711  18.266   7.055
11080POPC   C4A69798  16.742  18.270   7.355
11080POPC   C1B69799  16.577  18.105   6.455
11080POPC   C2B69800  16.601  18.079   6.755
11080POPC   C3B69801  16.574  18.039   7.055
11080POPC   C4B69802  16.580  18.105   7.355
11081POPC   NC369803  19.844  36.871   5.555
11081POPC   PO469804  19.884  36.949   5.855
11081POPC   GL169805  19.881  36.890   6.155
11081POPC   GL269806  19.972  36.867   6.155
11081POPC   C1A69807  19.811  36.902   6.455
11081POPC   D2A69808  19.806  36.869   6.755
11081POPC   C3A69809  19.877  36.875   7.055
11081POPC   C4A69810  19.862  36.936   7.355
11081POPC   C1B69811  20.097  36.753   6.455
11081POPC   C2B69812  20.022  36.754   6.755
11081POPC   C3B69813  20.085  36.750   7.055
11081POPC   C4B69814  20.048  36.764   7.355
11082POPC   NC369815  19.099  24.488   5.555
11082POPC   PO469816  19.035  24.529   5.855
11082POPC   GL169817  19.038  24.525   6.155
11082POPC   GL269818  19.130  24.333   6.155
11082POPC   C1A69819  19.010  24.532   6.455
11082POPC   D2A69820  19.090  24.523   6.755
11082POPC   C3A69821  19.046  24.448   7.055
11082POPC   C4A69822  19.104  24.525   7.355
11082POPC   C1B69823  19.122  24.227   6.455
11082POPC   C2B69824  19.107  24.236   6.755
11082POPC   C3B69825  19.179  24.281   7.055
11082POPC   C4B69826  19.122  24.282   7.355
11083POPC   NC369827  22.940  21.418   5.555
11083POPC   PO469828  22.892  21.415   5.855
11083POPC   GL169829  22.908  21.347   6.155
11083POPC   GL269830  22.839  21.505   6.155
11083POPC   C1A69831  22.898  21.401   6.455
11083POPC   D2A69832  22.962  21.416   6.755
11083POPC   C3A69833  22.949  21.396   7.055
11083POPC   C4A69834  22.944  21.384   7.355
11083POPC   C1B69835  22.782  21.545   6.455
11083POPC   C2B69836  22.764  21.619   6.755
11083POPC   C3B69837  22.809  21.622   7.055
11083POPC   C4B69838  22.818  21.548   7.355
11084POPC   NC369839  23.759  36.926   5.555
11084POPC   PO469840  23.717  36.880   5.855
11084POPC   GL169841  23.740  36.943   6.155
11084POPC   GL269842  23.649  36.973   6.155
11084POPC   C1A69843  23.687  36.893   6.455
11084POPC   D2A69844  23.712  36.919   6.755
11084POPC   C3A69845  23.758  36.873   7.055
11084POPC   C4A69846  23.697  36.951   7.355
11084POPC   C1B69847  23.590  37.097   6.455
11084POPC   C2B69848  23.590  37.059   6.755
11084POPC   C3B69849  23.507  37.138   7.055
11084POPC   C4B69850  23.595  37.049   7.355
11085POPC   NC369851  34.533  36.924   5.555
11085POPC   PO469852  34.600  36.881   5.855
11085POPC   GL169853  34.587  36.925   6.155
11085POPC   GL269854  34.702  36.932   6.155
11085POPC   C1A69855  34.561  36.918   6.455
11085POPC   D2A69856  34.564  36.905   6.755
11085POPC   C3A69857  34.543  36.898   7.055
11085POPC   C4A69858  34.564  36.944   7.355
11085POPC   C1B69859  34.767  37.014   6.455
11085POPC   C2B69860  34.813  37.064   6.755
11085POPC   C3B69861  34.780  37.081   7.055
11085POPC   C4B69862  34.761  37.034   7.355
11086POPC   NC369863  13.633  28.389   5.555
11086POPC   PO469864  13.578  28.397   5.855
11086POPC   GL169865  13.605  28.350   6.155
11086POPC   GL269866  13.663  28.469   6.155
11086POPC   C1A69867  13.610  28.416   6.455
11086POPC   D2A69868  13.662  28.381   6.755
11086POPC   C3A69869  13.580  28.350   7.055
11086POPC   C4A69870  13.677  28.386   7.355
11086POPC   C1B69871  13.778  28.575   6.455
11086POPC   C2B69872  13.820  28.531   6.755
11086POPC   C3B69873  13.802  28.588   7.055
11086POPC   C4B69874  13.803  28.550   7.355
11087POPC   NC369875  35.379  15.175   5.555
11087POPC   PO469876  35.342  15.166   5.855
11087POPC   GL169877  35.328  15.147   6.155
11087POPC   GL269878  35.327  15.066   6.155
11087POPC   C1A69879  35.322  15.171   6.455
11087POPC   D2A69880  35.350  15.148   6.755
11087POPC   C3A69881  35.355  15.219   7.055
11087POPC   C4A69882  35.343  15.168   7.355
11087POPC   C1B69883  35.214  14.944   6.455
11087POPC   C2B69884  35.266  14.960   6.755
11087POPC   C3B69885  35.224  14.986   7.055
11087POPC   C4B69886  35.234  14.972   7.355
11088POPC   NC369887  16.729  43.874   5.555
11088POPC   PO469888  16.779  43.858   5.855
11088POPC   GL169889  16.689  43.896   6.155
11088POPC   GL269890  16.808  43.952   6.155
11088POPC   C1A69891  16.690  43.925   6.455
11088POPC   D2A69892  16.714  43.918   6.755
11088POPC   C3A69893  16.768  43.879   7.055
11088POPC   C4A69894  16.760  43.907   7.355
11088POPC   C1B69895  16.844  44.099   6.455
11088POPC   C2B69896  16.787  44.163   6.755
11088POPC   C3B69897  16.812  44.156   7.055
11088POPC   C4B69898  16.845  44.150   7.355
11089POPC   NC369899   5.086   3.556   5.555
11089POPC   PO469900   5.070   3.560   5.855
11089POPC   GL169901   5.104   3.539   6.155
11089POPC   GL269902   5.010   3.526   6.155
11089POPC   C1A69903   5.119   3.507   6.455
11089POPC   D2A69904   5.122   3.552   6.755
11089POPC   C3A69905   5.136   3.519   7.055
11089POPC   C4A69906   5.052   3.577   7.355
11089POPC   C1B69907   4.875   3.516   6.455
11089POPC   C2B69908   4.860   3.456   6.755
11089POPC   C3B69909   4.829   3.538   7.055
11089POPC   C4B69910   4.813   3.512   7.355
11090POPC   NC369911  31.430   4.360   5.555
11090POPC   PO469912  31.469   4.321   5.855
11090POPC   GL169913  31.442   4.289   6.155
11090POPC   GL269914  31.422   4.490   6.155
11090POPC   C1A69915  31.446   4.276   6.455
11090POPC   D2A69916  31.446   4.278   6.755
11090POPC   C3A69917  31.491   4.339   7.055
11090POPC   C4A69918  31.511   4.340   7.355
11090POPC   C1B69919  31.416   4.569   6.455
11090POPC   C2B69920  31.479   4.603   6.755
11090POPC   C3B69921  31.420   4.599   7.055
11090POPC   C4B69922  31.450   4.599   7.355
11091POPC   NC369923   6.630  12.806   5.555
11091POPC   PO469924   6.648  12.879   5.855
11091POPC   GL169925   6.661  12.895   6.155
11091POPC   GL269926   6.527  12.845   6.155
11091POPC   C1A69927   6.680  12.807   6.455
11091POPC   D2A69928   6.663  12.836   6.755
11091POPC   C3A69929   6.682  12.855   7.055
11091POPC   C4A69930   6.613  12.898   7.355
11091POPC   C1B69931   6.379  12.812   6.455
11091POPC   C2B69932   6.442  12.788   6.755
11091POPC   C3B69933   6.442  12.782   7.055
11091POPC   C4B69934   6.399  12.813   7.355
11092POPC   NC369935  13.620  40.023   5.555
11092POPC   PO469936  13.619  40.035   5.855
11092POPC   GL169937  13.666  40.038   6.155
11092POPC   GL269938  13.554  40.069   6.155
11092POPC   C1A69939  13.578  39.965   6.455
11092POPC   D2A69940  13.599  40.013   6.755
11092POPC   C3A69941  13.677  40.037   7.055
11092POPC   C4A69942  13.625  40.007   7.355
11092POPC   C1B69943  13.373  40.052   6.455
11092POPC   C2B69944  13.354  40.134   6.755
11092POPC   C3B69945  13.425  40.109   7.055
11092POPC   C4B69946  13.411  40.069   7.355
11093POPC   NC369947   5.098  20.609   5.555
11093POPC   PO469948   5.079  20.567   5.855
11093POPC   GL169949   5.091  20.612   6.155
11093POPC   GL269950   5.233  20.591   6.155
11093POPC   C1A69951   5.128  20.569   6.455
11093POPC   D2A69952   5.099  20.588   6.755
11093POPC   C3A69953   5.107  20.565   7.055
11093POPC   C4A69954   5.094  20.612   7.355
11093POPC   C1B69955   5.321  20.540   6.455
11093POPC   C2B69956   5.389  20.606   6.755
11093POPC   C3B69957   5.333  20.598   7.055
11093POPC   C4B69958   5.374  20.533   7.355
11094POPC   NC369959  20.643  19.063   5.555
11094POPC   PO469960  20.614  19.098   5.855
11094POPC   GL169961  20.568  19.106   6.155
11094POPC   GL269962  20.699  18.995   6.155
11094POPC   C1A69963  20.562  19.072   6.455
11094POPC   D2A69964  20.634  19.081   6.755
11094POPC   C3A69965  20.657  19.072   7.055
11094POPC   C4A69966  20.607  19.047   7.355
11094POPC   C1B69967  20.801  18.960   6.455
11094POPC   C2B69968  20.820  18.947   6.755
11094POPC   C3B69969  20.822  18.990   7.055
11094POPC   C4B69970  20.819  18.954   7.355
11095POPC   NC369971  27.621  10.524   5.555
11095POPC   PO469972  27.616  10.526   5.855
11095POPC   GL169973  27.624  10.530   6.155
11095POPC   GL269974  27.507  10.387   6.155
11095POPC   C1A69975  27.640  10.556   6.455
11095POPC   D2A69976  27.589  10.541   6.755
11095POPC   C3A69977  27.592  10.522   7.055
11095POPC   C4A69978  27.561  10.563   7.355
11095POPC   C1B69979  27.463  10.335   6.455
11095POPC   C2B69980  27.461  10.314   6.755
11095POPC   C3B69981  27.466  10.271   7.055
11095POPC   C4B69982  27.436  10.257   7.355
11096POPC   NC369983  12.867  20.565   5.555
11096POPC   PO469984  12.806  20.592   5.855
11096POPC   GL169985  12.874  20.561   6.155
11096POPC   GL269986  12.948  20.734   6.155
11096POPC   C1A69987  12.831  20.627   6.455
11096POPC   D2A69988  12.830  20.607   6.755
11096POPC   C3A69989  12.802  20.626   7.055
11096POPC   C4A69990  12.859  20.613   7.355
11096POPC   C1B69991  12.981  20.771   6.455
11096POPC   C2B69992  13.036  20.830   6.755
11096POPC   C3B69993  12.997  20.833   7.055
11096POPC   C4B69994  13.022  20.824   7.355
11097POPC   NC369995   9.795  29.120   5.555
11097POPC   PO469996   9.735  29.101   5.855
11097POPC   GL169997   9.708  29.143   6.155
11097POPC   GL269998   9.917  29.147   6.155
11097POPC   C1A69999   9.777  29.190   6.455
11097POPC   D2A70000   9.757  29.158   6.755
11097POPC   C3A70001   9.728  29.135   7.055
11097POPC   C4A70002   9.774  29.115   7.355
11097POPC   C1B70003   9.990  29.177   6.455
11097POPC   C2B70004  10.039  29.222   6.755
11097POPC   C3B70005   9.991  29.193   7.055
11097POPC   C4B70006  10.039  29.204   7.355
11098POPC   NC370007  22.153  42.320   5.555
11098POPC   PO470008  22.188  42.323   5.855
11098POPC   GL170009  22.170  42.350   6.155
11098POPC   GL270010  22.257  42.396   6.155
11098POPC   C1A70011  22.114  42.359   6.455
11098POPC   D2A70012  22.120  42.348   6.755
11098POPC   C3A70013  22.212  42.329   7.055
11098POPC   C4A70014  22.145  42.353   7.355
11098POPC   C1B70015  22.424  42.390   6.455
11098POPC   C2B70016  22.423  42.402   6.755
11098POPC   C3B70017  22.389  42.351   7.055
11098POPC   C4B70018  22.399  42.365   7.355
11099POPC   NC370019  22.139  14.413   5.555
11099POPC   PO470020  22.166  14.448   5.855
11099POPC   GL170021  22.192  14.434   6.155
11099POPC   GL270022  22.104  14.566   6.155
11099POPC   C1A70023  22.210  14.364   6.455
11099POPC   D2A70024  22.186  14.382   6.755
11099POPC   C3A70025  22.170  14.387   7.055
11099POPC   C4A70026  22.146  14.420   7.355
11099POPC   C1B70027  22.101  14.611   6.455
11099POPC   C2B70028  22.090  14.647   6.755
11099POPC   C3B70029  22.125  14.604   7.055
11099POPC   C4B70030  22.129  14.651   7.355
11100POPC   NC370031  40.782  17.460   5.555
11100POPC   PO470032  40.831  17.553   5.855
11100POPC   GL170033  40.830  17.557   6.155
11100POPC   GL270034  40.802  17.676   6.155
11100POPC   C1A70035  40.769  17.495   6.455
11100POPC   D2A70036  40.751  17.483   6.755
11100POPC   C3A70037  40.811  17.514   7.055
11100POPC   C4A70038  40.791  17.485   7.355
11100POPC   C1B70039  40.745  17.783   6.455
11100POPC   C2B70040  40.769  17.758   6.755
11100POPC   C3B70041  40.784  17.790   7.055
11100POPC   C4B70042  40.800  17.742   7.355
11101POPC   NC370043  32.277  22.184   5.555
11101POPC   PO470044  32.277  22.126   5.855
11101POPC   GL170045  32.229  22.117   6.155
11101POPC   GL270046  32.297  22.074   6.155
11101POPC   C1A70047  32.230  22.146   6.455
11101POPC   D2A70048  32.259  22.174   6.755
11101POPC   C3A70049  32.252  22.205   7.055
11101POPC   C4A70050  32.219  22.166   7.355
11101POPC   C1B70051  32.255  21.947   6.455
11101POPC   C2B70052  32.311  21.938   6.755
11101POPC   C3B70053  32.235  21.869   7.055
11101POPC   C4B70054  32.220  21.936   7.355
11102POPC   NC370055   3.552  18.271   5.555
11102POPC   PO470056   3.539  18.243   5.855
11102POPC   GL170057   3.533  18.326   6.155
11102POPC   GL270058   3.698  18.310   6.155
11102POPC   C1A70059   3.580  18.283   6.455
11102POPC   D2A70060   3.496  18.328   6.755
11102POPC   C3A70061   3.498  18.314   7.055
11102POPC   C4A70062   3.492  18.311   7.355
11102POPC   C1B70063   3.773  18.264   6.455
11102POPC   C2B70064   3.806  18.245   6.755
11102POPC   C3B70065   3.840  18.253   7.055
11102POPC   C4B70066   3.819  18.270   7.355
11103POPC   NC370067  19.861  25.259   5.555
11103POPC   PO470068  19.791  25.277   5.855
11103POPC   GL170069  19.846  25.289   6.155
11103POPC   GL270070  19.965  25.278   6.155
11103POPC   C1A70071  19.848  25.304   6.455
11103POPC   D2A70072  19.860  25.243   6.755
11103POPC   C3A70073  19.789  25.247   7.055
11103POPC   C4A70074  19.876  25.242   7.355
11103POPC   C1B70075  20.112  25.398   6.455
11103POPC   C2B70076  20.118  25.328   6.755
11103POPC   C3B70077  20.023  25.394   7.055
11103POPC   C4B70078  20.039  25.400   7.355
11104POPC   NC370079  34.625  15.132   5.555
11104POPC   PO470080  34.591  15.180   5.855
11104POPC   GL170081  34.526  15.172   6.155
11104POPC   GL270082  34.647  15.070   6.155
11104POPC   C1A70083  34.561  15.145   6.455
11104POPC   D2A70084  34.530  15.156   6.755
11104POPC   C3A70085  34.527  15.165   7.055
11104POPC   C4A70086  34.555  15.151   7.355
11104POPC   C1B70087  34.762  14.994   6.455
11104POPC   C2B70088  34.758  15.057   6.755
11104POPC   C3B70089  34.757  15.036   7.055
11104POPC   C4B70090  34.793  15.027   7.355
11105POPC   NC370091  10.515  27.555   5.555
11105POPC   PO470092  10.526  27.625   5.855
11105POPC   GL170093  10.526  27.587   6.155
11105POPC   GL270094  10.440  27.683   6.155
11105POPC   C1A70095  10.507  27.631   6.455
11105POPC   D2A70096  10.547  27.600   6.755
11105POPC   C3A70097  10.490  27.622   7.055
11105POPC   C4A70098  10.555  27.606   7.355
11105POPC   C1B70099  10.358  27.832   6.455
11105POPC   C2B70100  10.363  27.802   6.755
11105POPC   C3B70101  10.389  27.809   7.055
11105POPC   C4B70102  10.386  27.759   7.355
11106POPC   NC370103  41.545   5.906   5.555
11106POPC   PO470104  41.587   5.849   5.855
11106POPC   GL170105  41.597   5.850   6.155
11106POPC   GL270106  41.605   5.991   6.155
11106POPC   C1A70107  41.593   5.891   6.455
11106POPC   D2A70108  41.550   5.869   6.755
11106POPC   C3A70109  41.526   5.872   7.055
11106POPC   C4A70110  41.548   5.828   7.355
11106POPC   C1B70111  41.605   6.080   6.455
11106POPC   C2B70112  41.545   6.166   6.755
11106POPC   C3B70113  41.542   6.132   7.055
11106POPC   C4B70114  41.564   6.110   7.355
11107POPC   NC370115  29.162  42.316   5.555
11107POPC   PO470116  29.187  42.361   5.855
11107POPC   GL170117  29.109  42.325   6.155
11107POPC   GL270118  29.162  42.460   6.155
11107POPC   C1A70119  29.145  42.296   6.455
11107POPC   D2A70120  29.129  42.321   6.755
11107POPC   C3A70121  29.167  42.294   7.055
11107POPC   C4A70122  29.142  42.343   7.355
11107POPC   C1B70123  29.233  42.591   6.455
11107POPC   C2B70124  29.275  42.537   6.755
11107POPC   C3B70125  29.196  42.521   7.055
11107POPC   C4B70126  29.221  42.570   7.355
11108POPC   NC370127  11.329   4.344   5.555
11108POPC   PO470128  11.316   4.366   5.855
11108POPC   GL170129  11.310   4.296   6.155
11108POPC   GL270130  11.382   4.407   6.155
11108POPC   C1A70131  11.291   4.284   6.455
11108POPC   D2A70132  11.267   4.361   6.755
11108POPC   C3A70133  11.347   4.358   7.055
11108POPC   C4A70134  11.287   4.278   7.355
11108POPC   C1B70135  11.541   4.416   6.455
11108POPC   C2B70136  11.559   4.373   6.755
11108POPC   C3B70137  11.490   4.384   7.055
11108POPC   C4B70138  11.542   4.437   7.355
11109POPC   NC370139   1.944  35.401   5.555
11109POPC   PO470140   2.006  35.343   5.855
11109POPC   GL170141   2.019  35.400   6.155
11109POPC   GL270142   2.019  35.233   6.155
11109POPC   C1A70143   2.005  35.315   6.455
11109POPC   D2A70144   1.959  35.354   6.755
11109POPC   C3A70145   2.018  35.387   7.055
11109POPC   C4A70146   2.019  35.357   7.355
11109POPC   C1B70147   1.964  35.113   6.455
11109POPC   C2B70148   2.011  35.124   6.755
11109POPC   C3B70149   1.956  35.148   7.055
11109POPC   C4B70150   1.950  35.140   7.355
11110POPC   NC370151  17.473  40.772   5.555
11110POPC   PO470152  17.554  40.734   5.855
11110POPC   GL170153  17.543  40.770   6.155
11110POPC   GL270154  17.538  40.635   6.155
11110POPC   C1A70155  17.547  40.761   6.455
11110POPC   D2A70156  17.472  40.825   6.755
11110POPC   C3A70157  17.471  40.812   7.055
11110POPC   C4A70158  17.473  40.762   7.355
11110POPC   C1B70159  17.448  40.491   6.455
11110POPC   C2B70160  17.462  40.508   6.755
11110POPC   C3B70161  17.484  40.554   7.055
11110POPC   C4B70162  17.472  40.526   7.355
11111POPC   NC370163  37.683  16.694   5.555
11111POPC   PO470164  37.640  16.753   5.855
11111POPC   GL170165  37.721  16.726   6.155
11111POPC   GL270166  37.630  16.589   6.155
11111POPC   C1A70167  37.663  16.752   6.455
11111POPC   D2A70168  37.648  16.753   6.755
11111POPC   C3A70169  37.655  16.705   7.055
11111POPC   C4A70170  37.682  16.747   7.355
11111POPC   C1B70171  37.550  16.556   6.455
11111POPC   C2B70172  37.525  16.463   6.755
11111POPC   C3B70173  37.565  16.525   7.055
11111POPC   C4B70174  37.603  16.523   7.355
11112POPC   NC370175  42.315   9.715   5.555
11112POPC   PO470176  42.306   9.757   5.855
11112POPC   GL170177  42.290   9.720   6.155
11112POPC   GL270178  42.407   9.737   6.155
11112POPC   C1A70179  42.337   9.739   6.455
11112POPC   D2A70180  42.367   9.768   6.755
11112POPC   C3A70181  42.305   9.735   7.055
11112POPC   C4A70182  42.384   9.702   7.355
11112POPC   C1B70183  42.531   9.771   6.455
11112POPC   C2B70184  42.530   9.829   6.755
11112POPC   C3B70185  42.561   9.781   7.055
11112POPC   C4B70186  42.591   9.798   7.355
11113POPC   NC370187   2.029  39.219   5.555
11113POPC   PO470188   1.941  39.201   5.855
11113POPC   GL170189   2.033  39.208   6.155
11113POPC   GL270190   1.890  39.256   6.155
11113POPC   C1A70191   1.982  39.203   6.455
11113POPC   D2A70192   2.021  39.201   6.755
11113POPC   C3A70193   2.033  39.221   7.055
11113POPC   C4A70194   1.964  39.241   7.355
11113POPC   C1B70195   1.758  39.244   6.455
11113POPC   C2B70196   1.700  39.316   6.755
11113POPC   C3B70197   1.716  39.274   7.055
11113POPC   C4B70198   1.719  39.322   7.355
11114POPC   NC370199  37.646  42.342   5.555
11114POPC   PO470200  37.680  42.378   5.855
11114POPC   GL170201  37.640  42.384   6.155
11114POPC   GL270202  37.837  42.366   6.155
11114POPC   C1A70203  37.654  42.294   6.455
11114POPC   D2A70204  37.659  42.378   6.755
11114POPC   C3A70205  37.701  42.359   7.055
11114POPC   C4A70206  37.705  42.322   7.355
11114POPC   C1B70207  37.910  42.457   6.455
11114POPC   C2B70208  37.872  42.398   6.755
11114POPC   C3B70209  37.963  42.402   7.055
11114POPC   C4B70210  37.912  42.446   7.355
11115POPC   NC370211  36.920  25.265   5.555
11115POPC   PO470212  36.923  25.249   5.855
11115POPC   GL170213  36.906  25.269   6.155
11115POPC   GL270214  36.774  25.348   6.155
11115POPC   C1A70215  36.935  25.224   6.455
11115POPC   D2A70216  36.854  25.221   6.755
11115POPC   C3A70217  36.946  25.234   7.055
11115POPC   C4A70218  36.919  25.285   7.355
11115POPC   C1B70219  36.693  25.356   6.455
11115POPC   C2B70220  36.664  25.342   6.755
11115POPC   C3B70221  36.649  25.361   7.055
11115POPC   C4B70222  36.654  25.414   7.355
11116POPC   NC370223   5.906  19.028   5.555
11116POPC   PO470224   5.914  19.103   5.855
11116POPC   GL170225   5.909  19.022   6.155
11116POPC   GL270226   5.778  18.941   6.155
11116POPC   C1A70227   5.909  19.080   6.455
11116POPC   D2A70228   5.837  19.092   6.755
11116POPC   C3A70229   5.910  19.017   7.055
11116POPC   C4A70230   5.868  19.088   7.355
11116POPC   C1B70231   5.693  18.869   6.455
11116POPC   C2B70232   5.628  18.940   6.755
11116POPC   C3B70233   5.643  18.859   7.055
11116POPC   C4B70234   5.704  18.930   7.355
11117POPC   NC370235  11.257  19.835   5.555
11117POPC   PO470236  11.314  19.862   5.855
11117POPC   GL170237  11.330  19.808   6.155
11117POPC   GL270238  11.227  19.882   6.155
11117POPC   C1A70239  11.301  19.809   6.455
11117POPC   D2A70240  11.303  19.864   6.755
11117POPC   C3A70241  11.259  19.829   7.055
11117POPC   C4A70242  11.277  19.862   7.355
11117POPC   C1B70243  11.109  20.029   6.455
11117POPC   C2B70244  11.123  19.993   6.755
11117POPC   C3B70245  11.130  19.978   7.055
11117POPC   C4B70246  11.146  19.991   7.355
11118POPC   NC370247  28.393  44.692   5.555
11118POPC   PO470248  28.397  44.701   5.855
11118POPC   GL170249  28.356  44.664   6.155
11118POPC   GL270250  28.290  44.738   6.155
11118POPC   C1A70251  28.330  44.626   6.455
11118POPC   D2A70252  28.389  44.710   6.755
11118POPC   C3A70253  28.319  44.672   7.055
11118POPC   C4A70254  28.353  44.613   7.355
11118POPC   C1B70255  28.118  44.702   6.455
11118POPC   C2B70256  28.155  44.704   6.755
11118POPC   C3B70257  28.107  44.681   7.055
11118POPC   C4B70258  28.141  44.733   7.355
11119POPC   NC370259  24.460   8.246   5.555
11119POPC   PO470260  24.501   8.182   5.855
11119POPC   GL170261  24.497   8.213   6.155
11119POPC   GL270262  24.541   8.100   6.155
11119POPC   C1A70263  24.491   8.150   6.455
11119POPC   D2A70264  24.485   8.217   6.755
11119POPC   C3A70265  24.528   8.191   7.055
11119POPC   C4A70266  24.531   8.229   7.355
11119POPC   C1B70267  24.616   8.033   6.455
11119POPC   C2B70268  24.586   8.022   6.755
11119POPC   C3B70269  24.679   8.012   7.055
11119POPC   C4B70270  24.624   7.947   7.355
11120POPC   NC370271  39.275  40.787   5.555
11120POPC   PO470272  39.218  40.802   5.855
11120POPC   GL170273  39.240  40.759   6.155
11120POPC   GL270274  39.143  40.731   6.155
11120POPC   C1A70275  39.279  40.774   6.455
11120POPC   D2A70276  39.266  40.817   6.755
11120POPC   C3A70277  39.215  40.749   7.055
11120POPC   C4A70278  39.259  40.786   7.355
11120POPC   C1B70279  39.028  40.717   6.455
11120POPC   C2B70280  38.995  40.764   6.755
11120POPC   C3B70281  39.023  40.736   7.055
11120POPC   C4B70282  38.989  40.787   7.355
11121POPC   NC370283  25.284  36.952   5.555
11121POPC   PO470284  25.244  36.888   5.855
11121POPC   GL170285  25.263  36.938   6.155
11121POPC   GL270286  25.250  36.731   6.155
11121POPC   C1A70287  25.237  36.940   6.455
11121POPC   D2A70288  25.313  36.934   6.755
11121POPC   C3A70289  25.244  36.907   7.055
11121POPC   C4A70290  25.218  36.915   7.355
11121POPC   C1B70291  25.270  36.671   6.455
11121POPC   C2B70292  25.277  36.651   6.755
11121POPC   C3B70293  25.222  36.685   7.055
11121POPC   C4B70294  25.217  36.669   7.355
11122POPC   NC370295   7.437  19.841   5.555
11122POPC   PO470296   7.447  19.829   5.855
11122POPC   GL170297   7.441  19.816   6.155
11122POPC   GL270298   7.270  19.773   6.155
11122POPC   C1A70299   7.435  19.866   6.455
11122POPC   D2A70300   7.378  19.869   6.755
11122POPC   C3A70301   7.378  19.806   7.055
11122POPC   C4A70302   7.445  19.827   7.355
11122POPC   C1B70303   7.179  19.735   6.455
11122POPC   C2B70304   7.174  19.749   6.755
11122POPC   C3B70305   7.154  19.751   7.055
11122POPC   C4B70306   7.146  19.734   7.355
11123POPC   NC370307  26.797  18.251   5.555
11123POPC   PO470308  26.778  18.257   5.855
11123POPC   GL170309  26.845  18.278   6.155
11123POPC   GL270310  26.835  18.378   6.155
11123POPC   C1A70311  26.821  18.296   6.455
11123POPC   D2A70312  26.831  18.320   6.755
11123POPC   C3A70313  26.859  18.329   7.055
11123POPC   C4A70314  26.824  18.301   7.355
11123POPC   C1B70315  26.892  18.463   6.455
11123POPC   C2B70316  26.905  18.527   6.755
11123POPC   C3B70317  26.960  18.508   7.055
11123POPC   C4B70318  26.899  18.474   7.355
11124POPC   NC370319  17.496  25.277   5.555
11124POPC   PO470320  17.521  25.243   5.855
11124POPC   GL170321  17.488  25.255   6.155
11124POPC   GL270322  17.440  25.195   6.155
11124POPC   C1A70323  17.479  25.265   6.455
11124POPC   D2A70324  17.478  25.272   6.755
11124POPC   C3A70325  17.505  25.232   7.055
11124POPC   C4A70326  17.517  25.236   7.355
11124POPC   C1B70327  17.414  25.033   6.455
11124POPC   C2B70328  17.395  25.040   6.755
11124POPC   C3B70329  17.337  25.024   7.055
11124POPC   C4B70330  17.428  25.006   7.355
11125POPC   NC370331  36.914  22.158   5.555
11125POPC   PO470332  36.878  22.138   5.855
11125POPC   GL170333  36.908  22.190   6.155
11125POPC   GL270334  36.911  22.328   6.155
11125POPC   C1A70335  36.898  22.130   6.455
11125POPC   D2A70336  36.941  22.210   6.755
11125POPC   C3A70337  36.918  22.152   7.055
11125POPC   C4A70338  36.952  22.135   7.355
11125POPC   C1B70339  36.900  22.375   6.455
11125POPC   C2B70340  36.898  22.421   6.755
11125POPC   C3B70341  36.867  22.422   7.055
11125POPC   C4B70342  36.853  22.452   7.355
11126POPC   NC370343  24.465  35.313   5.555
11126POPC   PO470344  24.492  35.394   5.855
11126POPC   GL170345  24.460  35.328   6.155
11126POPC   GL270346  24.622  35.434   6.155
11126POPC   C1A70347  24.451  35.339   6.455
11126POPC   D2A70348  24.525  35.376   6.755
11126POPC   C3A70349  24.529  35.345   7.055
11126POPC   C4A70350  24.508  35.370   7.355
11126POPC   C1B70351  24.696  35.496   6.455
11126POPC   C2B70352  24.757  35.456   6.755
11126POPC   C3B70353  24.663  35.451   7.055
11126POPC   C4B70354  24.700  35.487   7.355
11127POPC   NC370355  26.775  25.304   5.555
11127POPC   PO470356  26.836  25.286   5.855
11127POPC   GL170357  26.862  25.313   6.155
11127POPC   GL270358  26.708  25.364   6.155
11127POPC   C1A70359  26.800  25.308   6.455
11127POPC   D2A70360  26.786  25.283   6.755
11127POPC   C3A70361  26.835  25.277   7.055
11127POPC   C4A70362  26.793  25.282   7.355
11127POPC   C1B70363  26.554  25.391   6.455
11127POPC   C2B70364  26.576  25.336   6.755
11127POPC   C3B70365  26.576  25.380   7.055
11127POPC   C4B70366  26.640  25.361   7.355
11128POPC   NC370367  14.445   8.246   5.555
11128POPC   PO470368  14.403   8.195   5.855
11128POPC   GL170369  14.442   8.189   6.155
11128POPC   GL270370  14.499   8.167   6.155
11128POPC   C1A70371  14.433   8.201   6.455
11128POPC   D2A70372  14.368   8.226   6.755
11128POPC   C3A70373  14.413   8.168   7.055
11128POPC   C4A70374  14.407   8.153   7.355
11128POPC   C1B70375  14.681   8.193   6.455
11128POPC   C2B70376  14.671   8.167   6.755
11128POPC   C3B70377  14.616   8.111   7.055
11128POPC   C4B70378  14.623   8.099   7.355
11129POPC   NC370379  15.221   3.518   5.555
11129POPC   PO470380  15.152   3.576   5.855
11129POPC   GL170381  15.228   3.494   6.155
11129POPC   GL270382  15.256   3.581   6.155
11129POPC   C1A70383  15.146   3.556   6.455
11129POPC   D2A70384  15.224   3.510   6.755
11129POPC   C3A70385  15.178   3.588   7.055
11129POPC   C4A70386  15.148   3.565   7.355
11129POPC   C1B70387  15.466   3.525   6.455
11129POPC   C2B70388  15.465   3.496   6.755
11129POPC   C3B70389  15.403   3.591   7.055
11129POPC   C4B70390  15.464   3.564   7.355
11130POPC   NC370391  36.918  42.378   5.555
11130POPC   PO470392  36.927  42.346   5.855
11130POPC   GL170393  36.903  42.354   6.155
11130POPC   GL270394  36.832  42.445   6.155
11130POPC   C1A70395  36.906  42.363   6.455
11130POPC   D2A70396  36.935  42.356   6.755
11130POPC   C3A70397  36.923  42.331   7.055
11130POPC   C4A70398  36.922  42.325   7.355
11130POPC   C1B70399  36.820  42.561   6.455
11130POPC   C2B70400  36.831  42.527   6.755
11130POPC   C3B70401  36.862  42.533   7.055
11130POPC   C4B70402  36.793  42.572   7.355
11131POPC   NC370403  40.733  34.615   5.555
11131POPC   PO470404  40.824  34.551   5.855
11131POPC   GL170405  40.743  34.562   6.155
11131POPC   GL270406  40.728  34.421   6.155
11131POPC   C1A70407  40.763  34.595   6.455
11131POPC   D2A70408  40.768  34.568   6.755
11131POPC   C3A70409  40.797  34.602   7.055
11131POPC   C4A70410  40.791  34.534   7.355
11131POPC   C1B70411  40.698  34.373   6.455
11131POPC   C2B70412  40.654  34.361   6.755
11131POPC   C3B70413  40.660  34.377   7.055
11131POPC   C4B70414  40.632  34.320   7.355
11132POPC   NC370415   3.544  12.107   5.555
11132POPC   PO470416   3.493  12.051   5.855
11132POPC   GL170417   3.563  12.103   6.155
11132POPC   GL270418   3.634  12.127   6.155
11132POPC   C1A70419   3.555  12.068   6.455
11132POPC   D2A70420   3.538  12.074   6.755
11132POPC   C3A70421   3.509  12.094   7.055
11132POPC   C4A70422   3.500  12.027   7.355
11132POPC   C1B70423   3.697  12.268   6.455
11132POPC   C2B70424   3.659  12.250   6.755
11132POPC   C3B70425   3.741  12.266   7.055
11132POPC   C4B70426   3.665  12.223   7.355
11133POPC   NC370427  33.789  18.289   5.555
11133POPC   PO470428  33.836  18.276   5.855
11133POPC   GL170429  33.759  18.261   6.155
11133POPC   GL270430  33.905  18.288   6.155
11133POPC   C1A70431  33.846  18.269   6.455
11133POPC   D2A70432  33.835  18.272   6.755
11133POPC   C3A70433  33.780  18.256   7.055
11133POPC   C4A70434  33.774  18.305   7.355
11133POPC   C1B70435  34.026  18.243   6.455
11133POPC   C2B70436  34.079  18.283   6.755
11133POPC   C3B70437  34.038  18.311   7.055
11133POPC   C4B70438  34.094  18.298   7.355
11134POPC   NC370439   1.947  32.238   5.555
11134POPC   PO470440   2.035  32.236   5.855
11134POPC   GL170441   2.016  32.233   6.155
11134POPC   GL270442   2.061  32.214   6.155
11134POPC   C1A70443   1.995  32.270   6.455
11134POPC   D2A70444   2.003  32.265   6.755
11134POPC   C3A70445   1.967  32.241   7.055
11134POPC   C4A70446   1.975  32.258   7.355
11134POPC   C1B70447   2.201  32.136   6.455
11134POPC   C2B70448   2.176  32.114   6.755
11134POPC   C3B70449   2.197  32.134   7.055
11134POPC   C4B70450   2.223  32.120   7.355
11135POPC   NC370451  36.148  35.387   5.555
11135POPC   PO470452  36.103  35.386   5.855
11135POPC   GL170453  36.135  35.306   6.155
11135POPC   GL270454  36.061  35.404   6.155
11135POPC   C1A70455  36.080  35.302   6.455
11135POPC   D2A70456  36.102  35.323   6.755
11135POPC   C3A70457  36.099  35.352   7.055
11135POPC   C4A70458  36.152  35.400   7.355
11135POPC   C1B70459  36.014  35.568   6.455
11135POPC   C2B70460  36.006  35.498   6.755
11135POPC   C3B70461  35.983  35.500   7.055
11135POPC   C4B70462  35.924  35.511   7.355
11136POPC   NC370463  12.882  14.375   5.555
11136POPC   PO470464  12.819  14.440   5.855
11136POPC   GL170465  12.872  14.425   6.155
11136POPC   GL270466  12.872  14.307   6.155
11136POPC   C1A70467  12.847  14.436   6.455
11136POPC   D2A70468  12.832  14.442   6.755
11136POPC   C3A70469  12.832  14.358   7.055
11136POPC   C4A70470  12.889  14.398   7.355
11136POPC   C1B70471  12.921  14.114   6.455
11136POPC   C2B70472  12.890  14.197   6.755
11136POPC   C3B70473  12.845  14.166   7.055
11136POPC   C4B70474  12.897  14.118   7.355
11137POPC   NC370475  43.936  33.772   5.555
11137POPC   PO470476  43.849  33.762   5.855
11137POPC   GL170477  43.886  33.813   6.155
11137POPC   GL270478  43.961  33.782   6.155
11137POPC   C1A70479  43.855  33.761   6.455
11137POPC   D2A70480  43.882  33.832   6.755
11137POPC   C3A70481  43.932  33.804   7.055
11137POPC   C4A70482  43.867  33.847   7.355
11137POPC   C1B70483  44.157  33.758   6.455
11137POPC   C2B70484  44.091  33.769   6.755
11137POPC   C3B70485  44.133  33.712   7.055
11137POPC   C4B70486  44.113  33.759   7.355
11138POPC   NC370487  35.326   3.495   5.555
11138POPC   PO470488  35.324   3.544   5.855
11138POPC   GL170489  35.378   3.515   6.155
11138POPC   GL270490  35.220   3.431   6.155
11138POPC   C1A70491  35.372   3.590   6.455
11138POPC   D2A70492  35.390   3.591   6.755
11138POPC   C3A70493  35.318   3.572   7.055
11138POPC   C4A70494  35.329   3.565   7.355
11138POPC   C1B70495  35.230   3.365   6.455
11138POPC   C2B70496  35.223   3.386   6.755
11138POPC   C3B70497  35.163   3.352   7.055
11138POPC   C4B70498  35.203   3.350   7.355
11139POPC   NC370499  15.148  25.268   5.555
11139POPC   PO470500  15.190  25.270   5.855
11139POPC   GL170501  15.142  25.296   6.155
11139POPC   GL270502  15.037  25.302   6.155
11139POPC   C1A70503  15.172  25.304   6.455
11139POPC   D2A70504  15.198  25.304   6.755
11139POPC   C3A70505  15.143  25.227   7.055
11139POPC   C4A70506  15.220  25.286   7.355
11139POPC   C1B70507  14.996  25.438   6.455
11139POPC   C2B70508  14.984  25.453   6.755
11139POPC   C3B70509  14.942  25.443   7.055
11139POPC   C4B70510  14.942  25.379   7.355
11140POPC   NC370511  27.563  18.324   5.555
11140POPC   PO470512  27.584  18.242   5.855
11140POPC   GL170513  27.576  18.245   6.155
11140POPC   GL270514  27.671  18.154   6.155
11140POPC   C1A70515  27.640  18.306   6.455
11140POPC   D2A70516  27.555  18.269   6.755
11140POPC   C3A70517  27.591  18.248   7.055
11140POPC   C4A70518  27.589  18.247   7.355
11140POPC   C1B70519  27.676  18.012   6.455
11140POPC   C2B70520  27.644  18.007   6.755
11140POPC   C3B70521  27.693  18.056   7.055
11140POPC   C4B70522  27.630  18.029   7.355
11141POPC   NC370523  29.872   4.297   5.555
11141POPC   PO470524  29.941   4.294   5.855
11141POPC   GL170525  29.946   4.297   6.155
11141POPC   GL270526  29.829   4.294   6.155
11141POPC   C1A70527  29.938   4.308   6.455
11141POPC   D2A70528  29.894   4.357   6.755
11141POPC   C3A70529  29.950   4.335   7.055
11141POPC   C4A70530  29.958   4.317   7.355
11141POPC   C1B70531  29.676   4.258   6.455
11141POPC   C2B70532  29.715   4.209   6.755
11141POPC   C3B70533  29.684   4.282   7.055
11141POPC   C4B70534  29.673   4.250   7.355
11142POPC   NC370535  15.226   1.247   5.555
11142POPC   PO470536  15.227   1.203   5.855
11142POPC   GL170537  15.177   1.210   6.155
11142POPC   GL270538  15.061   1.170   6.155
11142POPC   C1A70539  15.179   1.199   6.455
11142POPC   D2A70540  15.187   1.181   6.755
11142POPC   C3A70541  15.167   1.251   7.055
11142POPC   C4A70542  15.205   1.188   7.355
11142POPC   C1B70543  14.947   1.151   6.455
11142POPC   C2B70544  14.899   1.182   6.755
11142POPC   C3B70545  14.975   1.179   7.055
11142POPC   C4B70546  14.949   1.124   7.355
11143POPC   NC370547  22.973  29.159   5.555
11143POPC   PO470548  22.912  29.184   5.855
11143POPC   GL170549  22.923  29.124   6.155
11143POPC   GL270550  23.007  28.988   6.155
11143POPC   C1A70551  22.950  29.168   6.455
11143POPC   D2A70552  22.958  29.149   6.755
11143POPC   C3A70553  22.980  29.144   7.055
11143POPC   C4A70554  22.957  29.106   7.355
11143POPC   C1B70555  23.040  28.938   6.455
11143POPC   C2B70556  23.038  28.918   6.755
11143POPC   C3B70557  23.053  28.874   7.055
11143POPC   C4B70558  23.051  28.866   7.355
11144POPC   NC370559  39.218  33.003   5.555
11144POPC   PO470560  39.236  33.062   5.855
11144POPC   GL170561  39.210  32.982   6.155
11144POPC   GL270562  39.158  33.045   6.155
11144POPC   C1A70563  39.216  33.022   6.455
11144POPC   D2A70564  39.242  33.048   6.755
11144POPC   C3A70565  39.188  32.999   7.055
11144POPC   C4A70566  39.223  33.046   7.355
11144POPC   C1B70567  38.995  33.132   6.455
11144POPC   C2B70568  38.953  33.114   6.755
11144POPC   C3B70569  38.948  33.094   7.055
11144POPC   C4B70570  39.033  33.124   7.355
11145POPC   NC370571  15.918   2.756   5.555
11145POPC   PO470572  15.933   2.806   5.855
11145POPC   GL170573  15.928   2.719   6.155
11145POPC   GL270574  16.066   2.677   6.155
11145POPC   C1A70575  15.984   2.765   6.455
11145POPC   D2A70576  15.916   2.716   6.755
11145POPC   C3A70577  15.933   2.754   7.055
11145POPC   C4A70578  15.965   2.814   7.355
11145POPC   C1B70579  16.141   2.674   6.455
11145POPC   C2B70580  16.207   2.655   6.755
11145POPC   C3B70581  16.215   2.683   7.055
11145POPC   C4B70582  16.206   2.670   7.355
11146POPC   NC370583  26.842  15.197   5.555
11146POPC   PO470584  26.817  15.151   5.855
11146POPC   GL170585  26.864  15.183   6.155
11146POPC   GL270586  26.950  15.107   6.155
11146POPC   C1A70587  26.790  15.163   6.455
11146POPC   D2A70588  26.841  15.208   6.755
11146POPC   C3A70589  26.807  15.217   7.055
11146POPC   C4A70590  26.795  15.215   7.355
11146POPC   C1B70591  27.073  15.046   6.455
11146POPC   C2B70592  27.048  15.045   6.755
11146POPC   C3B70593  27.015  15.035   7.055
11146POPC   C4B70594  27.071  15.057   7.355
11147POPC   NC370595  43.103  41.514   5.555
11147POPC   PO470596  43.095  41.585   5.855
11147POPC   GL170597  43.125  41.536   6.155
11147POPC   GL270598  43.192  41.604   6.155
11147POPC   C1A70599  43.109  41.544   6.455
11147POPC   D2A70600  43.134  41.582   6.755
11147POPC   C3A70601  43.157  41.527   7.055
11147POPC   C4A70602  43.103  41.544   7.355
11147POPC   C1B70603  43.318  41.663   6.455
11147POPC   C2B70604  43.333  41.693   6.755
11147POPC   C3B70605  43.306  41.680   7.055
11147POPC   C4B70606  43.311  41.596   7.355
11148POPC   NC370607  36.917  19.857   5.555
11148POPC   PO470608  36.907  19.880   5.855
11148POPC   GL170609  36.884  19.855   6.155
11148POPC   GL270610  37.024  19.813   6.155
11148POPC   C1A70611  36.925  19.838   6.455
11148POPC   D2A70612  36.891  19.793   6.755
11148POPC   C3A70613  36.873  19.866   7.055
11148POPC   C4A70614  36.927  19.794   7.355
11148POPC   C1B70615  37.187  19.715   6.455
11148POPC   C2B70616  37.116  19.755   6.755
11148POPC   C3B70617  37.105  19.762   7.055
11148POPC   C4B70618  37.150  19.779   7.355
11149POPC   NC370619  30.685  32.266   5.555
11149POPC   PO470620  30.654  32.239   5.855
11149POPC   GL170621  30.730  32.263   6.155
11149POPC   GL270622  30.784  32.125   6.155
11149POPC   C1A70623  30.708  32.203   6.455
11149POPC   D2A70624  30.709  32.207   6.755
11149POPC   C3A70625  30.725  32.270   7.055
11149POPC   C4A70626  30.664  32.232   7.355
11149POPC   C1B70627  30.761  32.024   6.455
11149POPC   C2B70628  30.764  32.009   6.755
11149POPC   C3B70629  30.784  32.024   7.055
11149POPC   C4B70630  30.823  32.010   7.355
11150POPC   NC370631   8.192  33.781   5.555
11150POPC   PO470632   8.235  33.823   5.855
11150POPC   GL170633   8.183  33.845   6.155
11150POPC   GL270634   8.075  33.676   6.155
11150POPC   C1A70635   8.223  33.828   6.455
11150POPC   D2A70636   8.184  33.777   6.755
11150POPC   C3A70637   8.206  33.770   7.055
11150POPC   C4A70638   8.221  33.814   7.355
11150POPC   C1B70639   7.972  33.634   6.455
11150POPC   C2B70640   7.983  33.589   6.755
11150POPC   C3B70641   8.011  33.595   7.055
11150POPC   C4B70642   7.968  33.637   7.355
11151POPC   NC370643  12.810   0.465   5.555
11151POPC   PO470644  12.846   0.470   5.855
11151POPC   GL170645  12.853   0.476   6.155
11151POPC   GL270646  12.982   0.375   6.155
11151POPC   C1A70647  12.870   0.443   6.455
11151POPC   D2A70648  12.810   0.460   6.755
11151POPC   C3A70649  12.804   0.484   7.055
11151POPC   C4A70650  12.812   0.401   7.355
11151POPC   C1B70651  13.070   0.405   6.455
11151POPC   C2B70652  13.110   0.391   6.755
11151POPC   C3B70653  13.073   0.401   7.055
11151POPC   C4B70654  13.085   0.322   7.355
11152W        W70655  26.205  43.854   2.209
11153W        W70656  13.345   4.839   0.473
11154W        W70657  27.489  10.358   0.962
11155W        W70658  16.693   8.227   3.839
11156W        W70659  42.463  44.909   0.463
11157W        W70660  37.890  27.535   2.295
11158W        W70661  35.459  34.903   4.320
11159W        W70662  10.257   2.924  12.551
11160W        W70663  38.016  33.483  12.926
11161W        W70664  19.090   1.278  14.996
11162W        W70665  32.410   2.842   4.741
11163W        W70666  18.195  18.157  13.829
11164W        W70667  34.923  38.011   2.227
11165W        W70668  33.573  25.201   0.931
11166W        W70669  15.160  23.008   1.815
11167W        W70670  38.958  33.016  13.460
11168W        W70671  10.371  19.217  14.287
11169W        W70672  30.026  18.785  14.408
11170W        W70673  18.596  44.265   2.254
11171W        W70674  34.570  12.306  14.788
11172W        W70675  35.011   9.749   4.166
11173W        W70676  38.963  39.036  13.546
11174W        W70677   6.347  28.064   0.882
11175W        W70678  36.091  32.053   0.892
11176W        W70679  37.503  28.578  12.382
11177W        W70680  22.728  10.747  11.596
11178W        W70681  38.443  15.802  11.993
11179W        W70682   9.808   1.966  14.842
11180W        W70683  26.984   0.827  13.457
11181W        W70684  40.520  37.561  12.413
11182W        W70685  23.136  21.048   0.396
11183W        W70686  18.225  15.227  11.378
11184W        W70687  22.084   0.745  11.374
11185W        W70688   8.865  19.714  11.433
11186W        W70689  38.433  29.618   0.751
11187W        W70690  37.460  13.188  13.357
11188W        W70691  29.429  29.601   4.150
11189W        W70692  14.292  17.694  14.896
11190W        W70693  17.154   1.870  11.462
11191W        W70694  12.281  29.621  11.054
11192W        W70695   0.870  35.870   5.158
11193W        W70696  16.655  37.033  12.878
11194W        W70697  20.158  26.647   2.223
11195W        W70698  34.588   4.236   4.218
11196W        W70699   8.325  21.120  11.056
11197W        W70700  25.014  32.495   0.264
11198W        W70701  27.681  17.300  12.537
11199W        W70702  17.664  17.267  14.978
11200W        W70703  38.542  39.983   1.308
11201W        W70704  13.219  40.353   2.690
11202W        W70705   5.347  14.329  11.114
11203W        W70706   8.809  40.491   5.285
11204W        W70707  20.582  21.572  11.880
11205W        W70708  28.034   3.719  10.632
11206W        W70709  21.559  22.013   3.368
11207W        W70710  12.303  35.090   4.195
11208W        W70711   6.766  40.938  11.065
11209W        W70712  13.689  44.779   1.896
11210W        W70713  39.837  17.250  11.456
11211W        W70714  28.020  22.187   2.775
11212W        W70715   0.421  32.533  14.423
11213W        W70716  10.155  32.473  13.844
11214W        W70717   8.377   5.299   4.330
11215W        W70718  37.518  24.185   0.947
11216W        W70719  22.605  25.566   0.414
11217W        W70720  18.721  37.424   5.095
11218W        W70721  21.549  41.421  10.509
11219W        W70722   9.230  29.091  11.476
11220W        W70723   0.338  16.318  12.975
11221W        W70724   0.272  10.332   0.401
11222W        W70725   0.800  44.977  13.952
11223W        W70726  34.429  42.847  13.404
11224W        W70727  38.974  36.076   3.710
11225W        W70728  29.171   1.903  13.803
11226W        W70729  15.598   4.719   0.948
11227W        W70730  19.186  20.051   1.337
11228W        W70731  37.475   2.306   0.343
11229W        W70732  30.545  18.674   3.223
11230W        W70733  13.829  16.594  11.120
11231W        W70734  27.511  13.716   0.930
11232W        W70735   7.354  34.532  12.450
11233W        W70736   1.863  17.657  12.427
11234W        W70737  30.504  29.109  11.398
11235W        W70738   5.399  23.597   2.756
11236W        W70739  33.445  11.649   4.291
11237W        W70740  22.696  34.890   2.351
11238W        W70741  15.732  32.574  10.566
11239W        W70742  14.120  31.951   4.307
11240W        W70743   4.856  21.656  10.422
11241W        W70744  13.693  33.421  13.480
11242W        W70745  20.050   6.365  13.945
11243W        W70746   1.404  31.074  12.904
11244W        W70747   9.347  35.451   0.445
11245W        W70748   5.721  35.051   4.332
11246W        W70749  22.185  19.088   4.211
11247W        W70750   0.941   0.862   3.173
11248W        W70751  33.589  26.523  11.416
11249W        W70752  31.537  40.995  11.996
11250W        W70753  30.449  31.926   2.331
11251W        W70754   2.797  25.145  13.866
11252W        W70755  25.537  44.505   0.393
11253W        W70756  29.019  34.387   1.847
11254W        W70757   4.752   0.312  12.527
11255W        W70758  44.321  21.744  11.559
11256W        W70759  14.281  36.438  13.837
11257W        W70760  28.992   1.943   3.170
11258W        W70761  35.481   2.939   3.338
11259W        W70762  11.640  10.176  12.484
11260W        W70763  17.599   4.838   3.746
11261W        W70764  40.035   5.704  11.938
11262W        W70765   3.895  24.114  13.533
11263W        W70766   7.758  20.145   4.207
11264W        W70767  38.899  42.878   5.289
11265W        W70768  23.108   6.209  12.533
11266W        W70769  33.017  34.579   5.083
11267W        W70770  30.521   5.239  13.882
11268W        W70771   0.778   5.851  12.057
11269W        W70772  27.628  31.075   0.395
11270W        W70773  35.387   2.357  14.401
11271W        W70774   0.820  39.027  10.640
11272W        W70775  12.132   0.954   1.399
11273W        W70776  26.119  43.874  13.548
11274W        W70777  22.010   1.758   4.819
11275W        W70778  29.561  21.138  12.915
11276W        W70779   5.710   2.830   2.892
11277W        W70780  44.907   1.314   0.253
11278W        W70781  24.679  38.892  11.993
11279W        W70782  40.344  42.025  12.846
11280W        W70783  29.576  11.677  14.328
11281W        W70784   6.228  11.208  11.123
11282W        W70785  40.853   1.415   3.842
11283W        W70786  35.411  16.614   4.736
11284W        W70787  40.305  38.957   1.724
11285W        W70788  35.041  24.581  11.412
11286W        W70789  20.191  32.972   1.798
11287W        W70790  13.112   7.326   0.844
11288W        W70791  35.967  31.524   1.811
11289W        W70792  25.625  27.047  10.429
11290W        W70793  13.180  42.978   2.817
11291W        W70794  15.722  27.990  11.466
11292W        W70795  20.175   2.324  13.869
11293W        W70796  12.727  24.668  11.458
11294W        W70797  44.852  12.208   2.899
11295W        W70798   7.377   9.757  12.978
11296W        W70799   7.823   9.875   1.799
11297W        W70800  16.656  13.797  14.402
11298W        W70801   0.420   2.277   0.908
11299W        W70802   3.401  42.387  11.909
11300W        W70803  32.439  15.195   3.710
11301W        W70804  20.654  30.067   2.412
11302W        W70805  18.291  19.590   0.907
11303W        W70806  16.705  44.778   0.953
11304W        W70807  25.514  24.634   2.692
11305W        W70808  14.206  13.344  12.869
11306W        W70809   8.198  10.690   4.713
11307W        W70810  17.695  25.603   4.821
11308W        W70811  30.435  38.989  11.441
11309W        W70812  32.136  31.583   4.834
11310W        W70813  20.123   1.925   5.153
11311W        W70814  30.419  43.791   0.878
11312W        W70815  13.316  38.828  13.035
11313W        W70816  20.258   9.710  14.875
11314W        W70817  20.715  17.616  13.524
11315W        W70818  33.097  27.055  13.536
11316W        W70819  31.996   2.832   1.696
11317W        W70820  25.211  27.064  13.820
11318W        W70821   5.358   8.763   0.924
11319W        W70822  38.544  43.882  12.412
11320W        W70823  25.991  11.806  14.850
11321W        W70824  21.132  13.268   3.704
11322W        W70825   7.268  28.094   2.817
11323W        W70826  13.767  20.252   2.365
11324W        W70827  38.964  31.900   0.402
11325W        W70828  37.967   3.415  14.987
11326W        W70829  44.502  41.431  14.982
11327W        W70830  19.120  24.159  13.480
11328W        W70831   1.432  43.507  13.529
11329W        W70832  21.740   0.851   2.730
11330W        W70833  38.559  30.462  13.912
11331W        W70834  12.828  35.852   1.247
11332W        W70835  24.139  34.008   3.214
11333W        W70836   4.790  37.876   4.741
11334W        W70837   3.369  11.760  12.581
11335W        W70838  11.199  19.171   4.171
11336W        W70839  23.011   3.283  12.961
11337W        W70840  28.551  30.944   0.350
11338W        W70841  25.506   8.665   1.845
11339W        W70842  43.275  12.849  11.948
11340W        W70843  21.090  15.743   1.795
11341W        W70844  24.181  39.845  10.911
11342W        W70845  24.108  25.671  14.970
11343W        W70846  21.723  24.661  13.317
11344W        W70847  36.050  33.468  10.494
11345W        W70848  13.716   4.450  14.868
11346W        W70849  29.142  20.764  13.483
11347W        W70850   6.419  17.648   3.149
11348W        W70851   6.746  36.983  12.913
11349W        W70852  37.904  10.309   4.708
11350W        W70853  14.622  17.773  14.451
11351W        W70854  41.790   1.798   2.690
11352W        W70855  40.818  36.496  13.939
11353W        W70856  10.739  40.019   4.834
11354W        W70857  22.195  40.327  10.517
11355W        W70858  31.123  17.078   3.759
11356W        W70859   6.213   7.782   2.211
11357W        W70860   9.688  10.792   4.265
11358W        W70861  16.605   1.943  12.927
11359W        W70862  29.923  17.224  13.519
11360W        W70863  43.346  10.195  10.009
11361W        W70864  14.292  13.620   0.389
11362W        W70865  17.205  36.385  13.000
11363W        W70866   2.436   9.216  13.503
11364W        W70867  17.557   7.189  10.607
11365W        W70868  27.635  44.480   1.849
11366W        W70869  29.450  17.140  11.066
11367W        W70870   8.723   0.251   4.642
11368W        W70871  17.145   7.391   2.208
11369W        W70872  29.021  40.961  11.424
11370W        W70873  24.145   9.837   4.153
11371W        W70874  17.259  11.706   3.639
11372W        W70875  41.436  38.346  11.445
11373W        W70876  21.712   2.338  14.389
11374W        W70877  10.703   0.343  14.909
11375W        W70878  10.261  24.668   2.230
11376W        W70879  34.108  10.789   0.880
11377W        W70880  10.722  28.440   1.449
11378W        W70881  38.535  33.997  13.524
11379W        W70882  27.597   7.698  12.054
11380W        W70883  13.208   3.823   2.191
11381W        W70884   4.773  17.742   1.902
11382W        W70885  25.470  29.099  10.479
11383W        W70886  23.725  29.560   4.697
11384W        W70887  35.367  33.982   1.214
11385W        W70888  38.026  15.090  14.486
11386W        W70889  21.077  16.771  12.520
11387W        W70890   8.258  39.530  11.549
11388W        W70891  33.974  14.155  11.516
11389W        W70892  27.685  32.100  12.856
11390W        W70893  24.673  37.362   2.365
11391W        W70894  10.290   3.902  14.475
11392W        W70895  28.090  10.634   1.795
11393W        W70896  19.215  16.238   3.867
11394W        W70897  28.149   3.787   2.866
11395W        W70898  31.576   6.279  13.883
11396W        W70899  18.078  20.753   1.361
11397W        W70900   0.940  35.508   2.262
11398W        W70901   4.802   2.767  10.158
11399W        W70902  14.161  41.917  12.347
11400W        W70903  28.179   2.292   4.712
11401W        W70904   6.884   6.834   1.881
11402W        W70905  31.948  38.914   4.758
11403W        W70906  25.035  15.613  11.428
11404W        W70907  24.564  12.826  12.974
11405W        W70908  41.010  10.759   4.131
11406W        W70909   0.310  17.797  12.008
11407W        W70910  44.817  31.009  11.102
11408W        W70911  12.687  22.550  13.533
11409W        W70912  32.967  30.915   3.677
11410W        W70913  38.425  22.237  11.867
11411W        W70914  24.549  42.403   2.281
11412W        W70915  18.244  10.141  10.568
11413W        W70916  43.773  29.952   2.319
11414W        W70917  38.505  17.739  10.952
11415W        W70918  13.293   0.913  13.411
11416W        W70919  12.666  44.303   2.335
11417W        W70920  41.819  41.368   3.649
11418W        W70921  25.120  35.409   1.271
11419W        W70922  23.188  17.208  12.993
11420W        W70923  11.741  38.891  13.045
11421W        W70924  44.902  23.675  10.080
11422W        W70925   6.744  10.264   3.678
11423W        W70926  43.426  36.879  13.823
11424W        W70927  14.336  17.674  14.487
11425W        W70928  43.879  12.657   2.335
11426W        W70929  43.364  41.461   2.662
11427W        W70930  14.684  38.046  13.452
11428W        W70931  43.278  37.534  11.972
11429W        W70932  35.358  34.379  13.830
11430W        W70933  33.579  32.988  14.810
11431W        W70934  23.220  15.685   1.296
11432W        W70935  21.161  22.071  14.875
11433W        W70936  29.011   2.935   3.802
11434W        W70937  34.957   2.308   1.870
11435W        W70938  35.926  33.899  13.447
11436W        W70939  21.668  39.958   0.480
11437W        W70940   1.388  12.302   0.301
11438W        W70941  16.773  10.351   3.802
11439W        W70942  19.648  42.461  13.873
11440W        W70943   2.721   7.867   2.880
11441W        W70944  35.459  37.029   1.748
11442W        W70945  10.862  37.441  12.549
11443W        W70946  37.464   2.918  11.376
11444W        W70947   3.778  32.545   3.322
11445W        W70948   3.382  36.031   3.662
11446W        W70949  38.928  44.910  11.037
11447W        W70950  41.786  25.139   1.705
11448W        W70951  33.396   5.239  12.036
11449W        W70952   9.823  14.237  11.527
11450W        W70953   4.441   5.928   1.385
11451W        W70954  13.636   1.763  14.765
11452W        W70955  32.134  31.985   3.152
11453W        W70956  12.126  33.395  10.944
11454W        W70957  26.463  34.411  11.470
11455W        W70958  33.560  35.470  13.319
11456W        W70959   0.325   1.738   0.930
11457W        W70960  15.681  10.270   0.333
11458W        W70961  42.310  35.065  11.039
11459W        W70962  24.683   3.765  10.539
11460W        W70963  44.968  22.067  14.952
11461W        W70964  40.949  41.939   2.843
11462W        W70965  41.029   4.698   0.455
11463W        W70966  24.171   2.925   0.934
11464W        W70967  43.817  42.997  14.465
11465W        W70968   7.677  24.490  12.479
11466W        W70969  41.368  43.293  14.984
11467W        W70970  32.134  34.559   2.384
11468W        W70971  22.134  40.893  14.470
11469W        W70972  41.889   3.770  14.978
11470W        W70973  16.762  18.054   0.934
11471W        W70974  24.509   2.826   4.817
11472W        W70975  28.058  32.108   0.408
11473W        W70976  22.592  28.447  14.423
11474W        W70977  21.730  17.757   3.858
11475W        W70978   6.685  26.566   1.791
11476W        W70979  28.596   4.930  11.409
11477W        W70980  24.558  18.566  13.831
11478W        W70981  35.570   6.793  11.895
11479W        W70982   5.725  10.147   1.883
11480W        W70983   8.290  23.644  13.532
11481W        W70984  28.180  39.549   4.187
11482W        W70985  23.116   2.408   4.800
11483W        W70986   8.833  24.120   4.801
11484W        W70987  30.583  11.373   2.354
11485W        W70988   0.479   5.406  14.900
11486W        W70989   7.828  20.665   0.477
11487W        W70990   7.226  20.750  14.849
11488W        W70991  15.134  21.717  13.367
11489W        W70992  38.532  41.003   4.760
11490W        W70993  36.017  27.446  11.573
11491W        W70994  31.505   9.757  11.610
11492W        W70995   3.954  24.677   3.812
11493W        W70996   4.443  20.057   3.734
11494W        W70997  21.183  40.819  10.448
11495W        W70998   5.804   3.887   4.311
11496W        W70999   5.322   8.828  12.464
11497W        W71000  12.145   7.207   2.359
11498W        W71001  38.929   1.337   3.757
11499W        W71002  38.507  33.902   4.256
11500W        W71003  14.111  42.899   2.734
11501W        W71004  10.213  42.943   1.365
11502W        W71005   5.259  35.362   3.198
11503W        W71006   4.232  13.214  12.391
11504W        W71007  40.941   6.221  13.024
11505W        W71008  18.698   2.279  14.903
11506W        W71009  20.530   4.450   2.756
11507W        W71010   8.299  33.049  12.375
11508W        W71011  15.594  38.521  12.547
11509W        W71012  30.522  21.021  12.360
11510W        W71013  41.295  40.515  12.394
11511W        W71014  31.555  36.981   0.251
11512W        W71015  24.073  34.969  10.888
11513W        W71016  40.043  34.030   4.623
11514W        W71017  34.407  39.949   2.873
11515W        W71018  39.846  12.151  14.498
11516W        W71019  15.641  32.042   4.328
11517W        W71020  36.883  18.760   0.376
11518W        W71021   6.357  31.583   0.834
11519W        W71022  42.507  35.106   0.762
11520W        W71023   2.830  41.863   9.494
11521W        W71024  20.738  22.741  13.806
11522W        W71025   3.278  28.605   0.866
11523W        W71026  30.131  33.040  10.515
11524W        W71027  15.184   8.263   1.438
11525W        W71028  44.498  16.803   3.365
11526W        W71029  33.926  13.307   3.801
11527W        W71030  24.629   8.209  11.086
11528W        W71031   7.771   5.428  14.806
11529W        W71032  20.120   7.173   3.385
11530W        W71033  33.116  14.707  12.030
11531W        W71034  30.908  31.525  14.476
11532W        W71035  39.437   3.715  14.791
11533W        W71036   9.358   3.328  12.531
11534W        W71037  37.536   5.697  13.343
11535W        W71038  24.562   3.896   2.409
11536W        W71039  36.434  23.522   4.205
11537W        W71040  29.549  35.108  14.317
11538W        W71041  28.129   1.832  12.446
11539W        W71042   7.327  27.485  10.901
11540W        W71043  26.636  36.479   4.790
11541W        W71044  21.720  39.024   9.955
11542W        W71045  29.641  35.995  11.052
11543W        W71046  24.574  22.652  12.429
11544W        W71047  44.890  21.188   3.147
11545W        W71048  11.773  43.992  14.920
11546W        W71049  31.489  21.548  13.452
11547W        W71050  20.735  19.223  11.556
11548W        W71051   1.451   4.922   3.235
11549W        W71052  13.174  33.927   2.825
11550W        W71053  28.075  43.928   3.293
11551W        W71054  16.768  18.099   3.343
11552W        W71055  12.185  41.346   1.810
11553W        W71056  38.566  20.124  13.471
11554W        W71057  39.409  41.014  13.865
11555W        W71058  31.416  21.044   2.209
11556W        W71059   3.418  16.807  10.553
11557W        W71060  10.673  10.772  13.870
11558W        W71061  38.484  36.500   1.720
11559W        W71062   9.842   9.754   2.218
11560W        W71063  21.090  34.562  11.079
11561W        W71064  39.028  12.759  10.932
11562W        W71065  44.346  18.666   2.328
11563W        W71066  12.287  42.478   3.692
11564W        W71067  40.339   5.338   1.265
11565W        W71068   9.366  16.684   2.697
11566W        W71069  12.174   5.313  12.070
11567W        W71070   4.415   3.857  13.420
11568W        W71071   2.256  16.151  12.353
11569W        W71072  33.438  16.168  13.021
11570W        W71073   1.776  20.253   2.852
11571W        W71074  30.518  33.442   4.125
11572W        W71075  14.694  17.282   3.165
11573W        W71076  25.609  21.032   3.679
11574W        W71077   5.316  23.136   3.754
11575W        W71078  38.921  32.558  14.031
11576W        W71079   4.288  21.020  13.931
11577W        W71080  37.849  18.093   0.429
11578W        W71081  12.342  34.083   2.411
11579W        W71082   2.875  31.931  13.384
11580W        W71083   0.891   6.386   4.265
11581W        W71084  40.805   1.777   3.870
11582W        W71085   5.727  40.310   1.798
11583W        W71086  32.041  38.936  11.074
11584W        W71087  20.670  32.613   3.224
11585W        W71088  25.128  29.949   3.157
11586W        W71089   7.282   0.948   1.419
11587W        W71090  17.654   6.677  14.894
11588W        W71091   6.197  12.295  10.603
11589W        W71092   8.715  28.977   2.370
11590W        W71093  37.891  32.495   2.900
11591W        W71094  14.603  25.103   0.904
11592W        W71095  22.242  25.504  14.966
11593W        W71096   8.336  20.087  13.316
11594W        W71097  23.722  42.852   1.786
11595W        W71098  15.771   0.844   1.336
11596W        W71099  25.024   7.670   1.774
11597W        W71100  15.772  42.347   2.743
11598W        W71101  42.951  20.142  14.326
11599W        W71102  19.267  28.611  12.847
11600W        W71103  31.404  17.186  13.544
11601W        W71104  40.046  21.705   4.252
11602W        W71105  27.067  40.539   4.821
11603W        W71106  18.584  34.574  10.470
11604W        W71107   7.903  39.416  11.451
11605W        W71108   1.967  34.999  12.930
11606W        W71109  27.039  23.170   1.755
11607W        W71110  30.094  33.580  12.367
11608W        W71111  17.189   5.756  10.568
11609W        W71112   6.292  35.088  10.607
11610W        W71113  36.458  12.208  12.824
11611W        W71114  31.059  25.967  11.457
11612W        W71115  17.121  11.742   1.807
11613W        W71116  19.601  16.311  14.985
11614W        W71117   6.407   9.387  14.775
11615W        W71118  25.216  25.525   2.301
11616W        W71119  14.260   7.709  12.399
11617W        W71120  44.416  24.082  11.527
11618W        W71121  41.424  36.522  12.843
11619W        W71122  28.091  30.053   3.306
11620W        W71123  41.909  38.486  14.804
11621W        W71124  22.174  27.947  14.019
11622W        W71125  15.631  41.959  12.880
11623W        W71126  40.452  41.393  10.487
11624W        W71127  23.152   9.369  11.455
11625W        W71128  38.913  24.086   4.612
11626W        W71129   7.299  34.520   2.811
11627W        W71130  10.232   5.792  11.601
11628W        W71131  37.416  40.321   4.181
11629W        W71132   7.707  26.665   3.149
11630W        W71133   0.866   6.822   0.300
11631W        W71134   3.817   9.388   2.723
11632W        W71135   6.264  15.656   2.842
11633W        W71136  44.321   7.771   1.866
11634W        W71137  13.787  26.117   2.719
11635W        W71138  22.106  26.983   3.654
11636W        W71139  36.047  44.753   1.807
11637W        W71140  36.913  12.139  12.867
11638W        W71141  44.831   2.315  14.469
11639W        W71142   9.739   4.209  12.418
11640W        W71143  26.092   8.761  12.045
11641W        W71144   8.866  18.632  14.481
11642W        W71145   4.794  29.623  11.020
11643W        W71146   2.849  30.927   4.741
11644W        W71147  18.759  29.064   0.277
11645W        W71148  12.736  29.609  10.536
11646W        W71149  44.934  23.683   2.281
11647W        W71150  27.571  17.201   0.318
11648W        W71151  35.073  21.630   3.260
11649W        W71152  44.925  36.921  13.489
11650W        W71153   1.343   9.164  13.848
11651W        W71154  19.615  38.437  13.947
11652W        W71155   8.717  41.021  11.860
11653W        W71156  24.701  11.214   4.209
11654W        W71157  19.654   1.747   2.831
11655W        W71158  11.148  41.439   2.809
11656W        W71159   7.865  25.055   4.276
11657W        W71160  29.039  36.399  11.039
11658W        W71161  15.216  15.822  11.091
11659W        W71162  43.444  13.228  10.907
11660W        W71163  35.395  37.038  12.074
11661W        W71164  17.678  44.803   3.648
11662W        W71165   8.291  10.736   1.884
11663W        W71166  43.318  26.579   4.153
11664W        W71167  40.845   0.796  12.907
11665W        W71168  44.854  16.120  13.854
11666W        W71169   5.893  24.660  10.454
11667W        W71170  22.165  19.749  11.456
11668W        W71171  27.105  43.855   0.948
11669W        W71172  37.407   4.817  10.538
11670W        W71173  25.206  40.824   2.187
11671W        W71174  43.462  36.861   0.437
11672W        W71175  39.847   2.342   3.630
11673W        W71176  21.710  37.831  13.791
11674W        W71177  16.076  15.303   0.470
11675W        W71178  35.448  16.603  12.902
11676W        W71179  25.702  24.663  10.993
11677W        W71180   4.767  14.690   3.338
11678W        W71181  37.383   5.705   9.439
11679W        W71182   8.668  20.670   3.267
11680W        W71183   6.369  35.604   3.316
11681W        W71184   7.357  44.292  11.572
11682W        W71185  12.611   6.753  10.610
11683W        W71186  12.252   5.717   3.330
11684W        W71187  32.895  43.428   4.658
11685W        W71188  39.531   9.343  13.007
11686W        W71189  43.313  33.934   1.291
11687W        W71190   0.394  23.636   9.563
11688W        W71191  22.018  19.067  12.015
11689W        W71192  15.634  35.883   0.740
11690W        W71193  44.349  38.038  13.390
11691W        W71194  21.251  24.720  14.363
11692W        W71195   6.408  30.011   2.204
11693W        W71196  11.347  19.666   0.314
11694W        W71197  15.150   1.237   4.721
11695W        W71198  11.807  10.253  11.984
11696W        W71199  32.455  16.315  10.928
11697W        W71200  18.635  32.967  13.005
11698W        W71201   3.294  16.211   3.213
11699W        W71202  34.096  44.330   4.187
11700W        W71203   4.917  30.559   4.705
11701W        W71204  35.019  40.350   3.790
11702W        W71205  18.682   6.691  12.961
11703W        W71206  42.892  29.433  11.984
11704W        W71207  42.451  28.968   0.431
11705W        W71208   7.736  29.952  14.478
11706W        W71209  18.677  44.304   3.645
11707W        W71210  27.197   1.433  14.864
11708W        W71211  21.589  30.910   1.706
11709W        W71212  14.658  22.241   1.242
11710W        W71213  43.805  18.662   4.209
11711W        W71214   6.699   6.195   1.215
11712W        W71215  31.588  42.440  11.409
11713W        W71216  41.416  19.053   5.085
11714W        W71217  16.205  11.347   0.947
11715W        W71218  24.562  31.545   1.804
11716W        W71219  30.601  34.579   1.861
11717W        W71220   0.298  42.925  12.837
11718W        W71221  23.542  17.168   4.164
11719W        W71222  32.080  38.976  13.322
11720W        W71223  27.590  15.129  11.465
11721W        W71224  31.122  42.461  13.471
11722W        W71225  44.821   5.783  11.870
11723W        W71226  16.125  28.152  11.573
11724W        W71227  21.131  12.689  12.924
11725W        W71228  37.419  12.623   3.864
11726W        W71229  13.230  27.689  13.903
11727W        W71230  44.847   8.252   4.160
11728W        W71231  37.510  16.782  11.926
11729W        W71232   2.844  28.088   3.189
11730W        W71233   5.406   9.260   2.201
11731W        W71234  41.302  19.217   3.848
11732W        W71235  30.659  16.624  10.158
11733W        W71236   3.925   4.417   0.826
11734W        W71237  25.985  14.205  11.485
11735W        W71238  37.884   7.888  13.055
11736W        W71239  43.998  38.570   4.666
11737W        W71240   8.328   7.874   2.897
11738W        W71241  29.097  17.796  11.106
11739W        W71242  33.394  21.031  11.404
11740W        W71243  20.222  33.129   1.266
11741W        W71244  33.035  14.791   4.239
11742W        W71245  37.060   9.222   4.135
11743W        W71246  25.055  10.750  14.315
11744W        W71247  34.411  41.015   0.430
11745W        W71248  39.558  12.228   0.373
11746W        W71249  42.338  42.419  13.005
11747W        W71250  40.412   2.296   3.339
11748W        W71251  37.884  32.472  13.440
11749W        W71252   7.265   3.307  11.070
11750W        W71253   7.690  37.001   4.270
11751W        W71254   2.311  26.175   2.265
11752W        W71255  44.373  29.504   0.478
11753W        W71256  12.273  22.049  14.494
11754W        W71257   5.798  42.420  13.044
11755W        W71258  42.283   3.884   2.408
11756W        W71259   6.919  40.374  10.940
11757W        W71260  21.617  32.921   1.335
11758W        W71261   8.224  20.605   3.380
11759W        W71262  17.224  24.149   0.338
11760W        W71263  36.942  19.677  13.025
11761W        W71264  17.645   4.928  10.530
11762W        W71265   7.701  29.069   4.154
11763W        W71266  18.245  32.125  12.456
11764W        W71267  38.822  33.081   5.225
11765W        W71268   1.935  41.381  12.499
11766W        W71269   1.332  36.945   0.276
11767W        W71270  26.540  15.211  10.955
11768W        W71271  41.839  36.982   3.712
11769W        W71272   5.806   6.186   3.803
11770W        W71273  17.080  22.251   3.259
11771W        W71274  10.813  34.462   2.739
11772W        W71275  34.032  20.762   1.758
11773W        W71276  44.291  14.172   5.124
11774W        W71277  29.526  33.567   5.088
11775W        W71278  27.955  34.085   4.696
11776W        W71279   2.924  11.805  11.934
11777W        W71280  19.635  15.686  11.099
11778W        W71281  40.872  15.257   2.401
11779W        W71282  15.792  38.533   3.642
11780W        W71283  18.633  41.844  14.872
11781W        W71284   2.352  25.987  13.465
11782W        W71285  14.624  13.619   4.830
11783W        W71286   7.228   3.247  12.481
11784W        W71287  31.095  40.035   1.783
11785W        W71288  13.714  10.147  12.365
11786W        W71289  34.604  35.914  10.970
11787W        W71290  11.148  14.690  10.904
11788W        W71291   0.946  33.013  12.940
11789W        W71292  43.848  12.164  13.011
11790W        W71293  42.444  29.111   1.890
11791W        W71294   4.940  13.196  12.844
11792W        W71295  35.089  12.701  12.947
11793W        W71296  36.048  39.344  12.404
11794W        W71297   1.962  20.236  14.306
11795W        W71298  40.384  32.115  11.555
11796W        W71299   5.784  12.753  14.897
11797W        W71300  16.298   2.434   1.441
11798W        W71301   5.302  10.256   0.383
11799W        W71302  33.941  44.961   0.342
11800W        W71303   1.416  18.746   0.825
11801W        W71304   3.301  22.558   1.281
11802W        W71305   9.364  42.798  12.456
11803W        W71306  28.626  38.517  10.062
11804W        W71307  25.055  22.573  12.936
11805W        W71308  38.365  36.895  11.447
11806W        W71309  21.261  20.241  12.364
11807W        W71310   7.700  42.505  13.811
11808W        W71311  34.903  34.458  11.404
11809W        W71312   2.346  37.032  11.860
11810W        W71313  29.555  16.297  14.449
11811W        W71314  43.856  32.478   1.371
11812W        W71315  31.411  18.119  14.889
11813W        W71316   3.728  16.203   0.404
11814W        W71317  35.947   1.304  10.955
11815W        W71318  19.231  42.880   2.287
11816W        W71319  40.490  43.316   0.733
11817W        W71320   7.200  23.706  10.595
11818W        W71321  11.770  17.291   1.860
11819W        W71322  33.530  18.741   0.309
11820W        W71323   1.411   9.299   1.705
11821W        W71324   8.685  27.945   4.276
11822W        W71325  33.080  19.586  14.925
11823W        W71326  33.585   8.247  14.504
11824W        W71327   2.331   1.841   4.145
11825W        W71328  24.626  35.883   0.947
11826W        W71329  27.106  16.245   1.832
11827W        W71330  33.929  16.146   4.709
11828W        W71331  13.265  33.508   2.850
11829W        W71332  29.630  18.208   4.215
11830W        W71333  14.291  30.598  10.003
11831W        W71334   2.438  28.097  12.880
11832W        W71335   6.886  20.523   0.305
11833W        W71336   8.871  22.241  11.563
11834W        W71337   1.876  41.398  13.322
11835W        W71338  37.952  41.327   4.710
11836W        W71339  41.945  37.981  14.365
11837W        W71340  44.405  14.829  12.989
11838W        W71341  34.069  30.156  10.496
11839W        W71342  25.105  16.206   4.787
11840W        W71343  10.776  27.168  11.071
11841W        W71344  14.098   2.877  11.882
11842W        W71345  11.246  19.696  10.451
11843W        W71346  16.749   0.883  11.074
11844W        W71347   4.218  28.110  12.874
11845W        W71348  19.655  21.564   1.392
11846W        W71349  34.052   0.394  11.985
11847W        W71350  18.052  32.014  13.793
11848W        W71351  17.213  22.618   0.820
11849W        W71352  35.095  34.391  14.007
11850W        W71353  18.717  42.417   4.626
11851W        W71354  38.472   8.203   4.166
11852W        W71355  16.267  17.276   4.240
11853W        W71356   7.367  13.178  11.491
11854W        W71357  26.200   4.338   4.154
11855W        W71358  34.026   2.835   2.200
11856W        W71359  16.621  44.461  12.980
11857W        W71360  26.504   5.804   4.152
11858W        W71361  21.128  21.149   1.353
11859W        W71362   4.283   8.225   3.629
11860W        W71363   9.172  43.008   5.177
11861W        W71364  40.049  29.449   4.628
11862W        W71365  11.654  30.603   0.313
11863W        W71366  13.133  12.163  14.000
11864W        W71367  12.308  29.932   2.839
11865W        W71368  28.094  27.126   0.726
11866W        W71369  39.064  41.019   0.249
11867W        W71370  16.612  40.498   0.456
11868W        W71371  12.724   8.309   3.825
11869W        W71372  23.678  25.655   3.729
11870W        W71373  22.072  34.585   2.402
11871W        W71374  23.168   3.950  12.442
11872W        W71375  30.544  29.480  12.078
11873W        W71376  39.876  28.972   3.182
11874W        W71377  39.449  40.953   0.464
11875W        W71378  39.050  37.836  11.947
11876W        W71379  20.116  35.466   0.833
11877W        W71380  30.540   5.287   0.937
11878W        W71381   1.931  31.980  12.906
11879W        W71382  38.055  41.410  10.126
11880W        W71383   5.416  14.273   0.792
11881W        W71384   8.805  38.531  13.398
11882W        W71385  14.180  44.987   3.635
11883W        W71386  41.437  22.646  11.577
11884W        W71387  42.397  16.579   4.125
11885W        W71388  42.410  33.536  12.998
11886W        W71389  28.635  16.251   2.668
11887W        W71390  20.614  14.813  10.544
11888W        W71391  16.781   3.733   2.206
11889W        W71392   4.321  34.863   2.347
11890W        W71393   5.828   7.715  12.042
11891W        W71394  34.118   7.265  13.390
11892W        W71395  16.766  14.791   3.812
11893W        W71396  36.952  24.091   3.317
11894W        W71397   6.291  15.662   2.281
11895W        W71398  19.587  21.184  14.374
11896W        W71399  26.976   1.926  10.612
11897W        W71400   5.244   6.874  13.907
11898W        W71401  10.839  17.095   2.710
11899W        W71402  40.874  21.159  13.506
11900W        W71403  31.618   3.956  10.961
11901W        W71404  15.120  29.162   0.925
11902W        W71405  38.864  32.459   3.764
11903W        W71406  11.844   7.267  12.901
11904W        W71407  20.104   8.248  13.363
11905W        W71408   3.791   7.884   2.706
11906W        W71409  41.922  35.894   4.217
11907W        W71410  27.031   1.826   3.719
11908W        W71411  21.210  38.524  13.836
11909W        W71412  30.930  19.732  13.039
11910W        W71413   8.213  32.950  12.066
11911W        W71414  24.139   3.330   3.185
11912W        W71415  43.459  12.781   0.935
11913W        W71416  10.276   6.230  11.949
11914W        W71417  43.907  17.610   2.770
11915W        W71418   3.717  20.589   3.661
11916W        W71419  32.932  22.643  12.354
11917W        W71420  38.069  22.195  12.889
11918W        W71421  18.736   3.280  11.930
11919W        W71422  18.136  20.043  13.921
11920W        W71423  26.464  11.627  11.490
11921W        W71424  16.203   0.929   4.709
11922W        W71425  28.675  24.194  14.285
11923W        W71426  32.509  42.882  11.406
11924W        W71427   5.205   9.383  11.068
11925W        W71428  11.321  21.019  10.904
11926W        W71429  43.895  15.696  12.572
11927W        W71430   1.237   6.827   4.182
11928W        W71431  26.017   4.218  10.592
11929W        W71432  40.885   3.413  11.558
11930W        W71433  27.086  18.644   1.802
11931W        W71434   0.893  41.521  14.772
11932W        W71435   0.938   3.855  11.915
11933W        W71436  31.579  11.786   0.902
11934W        W71437  42.490  11.323  13.012
11935W        W71438  10.758  28.961  10.996
11936W        W71439  38.985  16.792  14.987
11937W        W71440   0.265  16.217  11.449
11938W        W71441  10.366   6.352   2.250
11939W        W71442  14.668   9.320   4.204
11940W        W71443  19.264   8.705  14.007
11941W        W71444  10.262  29.985  13.335
11942W        W71445  25.965   5.911   1.325
11943W        W71446  39.473  35.537   3.167
11944W        W71447  24.068  22.700   3.811
11945W        W71448  29.522  35.896   4.276
11946W        W71449  18.553   2.743   1.409
11947W        W71450  41.374  19.550   4.775
11948W        W71451  18.067  31.539  10.575
11949W        W71452   1.805  27.612   1.799
11950W        W71453   0.283   3.231   1.712
11951W        W71454   1.935  18.683  14.368
11952W        W71455  42.798  37.473  12.454
11953W        W71456  26.479   9.835   0.878
11954W        W71457  13.706  42.917   0.439
11955W        W71458  24.029  13.129  14.346
11956W        W71459  16.141  36.888  12.470
11957W        W71460  24.650  29.452   3.349
11958W        W71461  40.949  40.956  14.396
11959W        W71462  13.800  28.609   1.369
11960W        W71463   2.454  26.558   1.754
11961W        W71464  44.445  15.311  10.006
11962W        W71465   9.156  11.277   0.782
11963W        W71466  29.993  29.121   1.875
11964W        W71467  42.304   0.439  12.474
11965W        W71468  18.650   9.335   2.248
11966W        W71469  28.540  31.557  13.328
11967W        W71470  16.800  22.501  11.596
11968W        W71471  24.068   7.359   3.271
11969W        W71472  19.051  12.186  14.834
11970W        W71473  27.686  32.100   0.755
11971W        W71474  16.205   9.683   4.638
11972W        W71475   7.706  19.243   4.326
11973W        W71476  36.846   4.337  14.292
11974W        W71477  13.268   0.979  11.988
11975W        W71478   5.696  16.585  13.419
11976W        W71479  25.111   6.793   1.444
11977W        W71480  36.882  44.421   3.631
11978W        W71481  31.063  20.572   4.816
11979W        W71482   6.297  29.455   2.889
11980W        W71483  43.414   1.755   3.704
11981W        W71484  28.597  18.607  13.813
11982W        W71485  22.657   1.286   0.823
11983W        W71486  10.701  30.943   4.248
11984W        W71487  14.299  21.035  14.366
11985W        W71488  40.420  16.567  12.418
11986W        W71489  27.961  30.579   3.774
11987W        W71490  44.492  15.215  13.342
11988W        W71491  35.002  24.637   4.174
11989W        W71492  26.098  36.353  11.931
11990W        W71493   2.471   8.877   0.832
11991W        W71494  35.948  10.194  13.051
11992W        W71495   1.391  13.841  14.916
11993W        W71496  13.758  12.759  14.300
11994W        W71497   0.842  15.289  14.350
11995W        W71498  16.722   4.824  12.530
11996W        W71499  38.420  29.998   3.164
11997W        W71500  42.834   6.320   0.381
11998W        W71501   2.731  37.394  11.570
11999W        W71502   1.974   6.739  13.908
12000W        W71503  43.384  40.486  14.865
12001W        W71504   2.863  12.630   1.355
12002W        W71505  27.153  42.944  12.014
12003W        W71506  17.198  31.069  11.467
12004W        W71507  40.857   4.815   0.932
12005W        W71508  29.038  20.676  13.878
12006W        W71509  35.412  19.646   0.934
12007W        W71510  18.068  16.735   2.390
12008W        W71511  14.644  26.694  10.563
12009W        W71512  24.226  26.143  14.926
12010W        W71513  18.098  13.717  11.040
12011W        W71514  16.104  40.892  10.541
12012W        W71515  18.689   7.282  12.469
12013W        W71516  24.001  39.817  10.120
12014W        W71517  43.768   3.401  12.090
12015W        W71518  15.737   6.766   2.800
12016W        W71519  10.266  44.485   4.825
12017W        W71520  31.483  39.377   4.761
12018W        W71521  23.131   6.870  14.420
12019W        W71522  13.760  27.464   3.146
12020W        W71523  26.696  41.968  10.576
12021W        W71524  11.131   1.890   1.909
12022W        W71525  42.024  24.579   4.807
12023W        W71526   1.339  32.027   4.339
12024W        W71527   1.431  13.690  12.032
12025W        W71528  43.469  29.920  12.418
12026W        W71529   1.964  27.539  13.498
12027W        W71530   7.334  30.989   1.343
12028W        W71531  42.990   6.384   1.260
12029W        W71532  42.365  13.733   3.775
12030W        W71533  44.798   9.229  10.898
12031W        W71534  19.252   8.692  11.428
12032W        W71535  12.749   8.888   0.790
12033W        W71536   7.770   2.434   4.204
12034W        W71537   7.898  18.701  13.836
12035W        W71538   8.399  10.327   4.613
12036W        W71539  40.836  37.842   0.919
12037W        W71540  16.802  18.611   0.409
12038W        W71541  20.234   5.796  11.994
12039W        W71542  41.878  25.166   3.196
12040W        W71543  41.924   6.276  12.946
12041W        W71544  37.992   6.353  11.453
12042W        W71545  25.064  28.588   1.868
12043W        W71546  21.731  37.529  13.823
12044W        W71547  21.171  20.213   4.754
12045W        W71548   1.892  40.839   5.272
12046W        W71549   9.686  20.658  11.900
12047W        W71550  36.483  31.562  10.997
12048W        W71551  29.942  29.638   4.187
12049W        W71552   1.411  10.674  10.633
12050W        W71553  17.061  10.635   3.286
12051W        W71554  36.593  30.155  14.770
12052W        W71555  37.362  41.927  11.885
12053W        W71556  39.002   1.334   4.187
12054W        W71557  24.517  11.790  14.341
12055W        W71558  43.830   5.267  13.812
12056W        W71559   2.333   7.258   0.311
12057W        W71560  24.201  11.161   4.336
12058W        W71561  26.959  11.133   0.321
12059W        W71562  31.421  34.558   1.357
12060W        W71563  13.792   9.353  12.423
12061W        W71564   0.875  16.624   2.854
12062W        W71565  19.120  15.771   2.663
12063W        W71566  10.289  16.226   4.695
12064W        W71567   9.804  29.131   2.854
12065W        W71568  10.665  11.356  10.908
12066W        W71569  39.559  23.647   0.351
12067W        W71570  34.425  11.811  14.842
12068W        W71571  44.765  33.514   4.271
12069W        W71572  25.018  34.004  12.542
12070W        W71573  34.543  37.561   1.915
12071W        W71574  24.588  41.498   2.711
12072W        W71575  29.992  19.233   3.178
12073W        W71576  37.986  25.180  14.334
12074W        W71577  25.171  24.092  13.003
12075W        W71578  15.190  15.317   4.345
12076W        W71579  38.918   8.807   3.685
12077W        W71580  33.513  21.702  11.882
12078W        W71581  29.568  27.543   0.390
12079W        W71582  35.061  21.242  14.894
12080W        W71583  27.984  18.084  13.507
12081W        W71584  23.991   0.406  14.291
12082W        W71585   7.749  17.748   1.359
12083W        W71586  41.903  11.744   3.291
12084W        W71587   9.789  24.168   3.655
12085W        W71588  12.732   2.784  14.445
12086W        W71589  29.593  40.306  13.458
12087W        W71590   7.820  32.045   1.226
12088W        W71591  36.349  30.635  11.582
12089W        W71592  42.966  40.498  13.004
12090W        W71593  15.234  25.022   3.315
12091W        W71594  40.461  44.927   4.118
12092W        W71595  26.523  35.895   0.444
12093W        W71596  16.079  22.081  11.963
12094W        W71597   1.824  19.122   2.835
12095W        W71598  26.647  27.955  13.527
12096W        W71599  30.420   3.717   0.837
12097W        W71600  14.283  42.860  11.863
12098W        W71601   3.298  22.738   4.620
12099W        W71602  33.560  10.807   0.741
12100W        W71603  21.635  18.783   3.727
12101W        W71604  20.713  16.676  11.127
12102W        W71605   8.239  28.461   4.233
12103W        W71606  28.493   4.220  13.969
12104W        W71607  11.228  35.405   1.357
12105W        W71608   1.799   0.914   0.285
12106W        W71609  28.604  28.983   1.921
12107W        W71610  26.168   9.872  12.019
12108W        W71611  37.464  41.826   0.732
12109W        W71612  20.081  36.503  11.056
12110W        W71613  39.016  38.923   5.245
12111W        W71614  12.176  34.481   0.771
12112W        W71615  30.996   1.253  11.909
12113W        W71616   9.885  20.746  11.528
12114W        W71617   0.944   9.831  12.343
12115W        W71618  36.090  37.484   1.332
12116W        W71619  12.264  27.524   3.334
12117W        W71620  23.525   1.795   0.454
12118W        W71621  41.923  36.394  12.346
12119W        W71622  43.342  29.070   1.807
12120W        W71623  22.177  11.662   1.850
12121W        W71624  10.688  35.563  11.475
12122W        W71625  44.835  19.043  12.830
12123W        W71626  31.056   4.838  12.041
12124W        W71627  15.290  25.205  13.359
12125W        W71628  11.342   9.293  14.932
12126W        W71629   7.309   5.874  13.988
12127W        W71630   7.276  32.014  14.474
12128W        W71631   9.311  29.648   4.335
12129W        W71632  21.526  37.409   1.870
12130W        W71633  11.277   0.302  14.910
12131W        W71634  10.797  30.510   0.304
12132W        W71635  29.969  33.621   0.885
12133W        W71636  29.159   7.684   1.899
12134W        W71637  25.002  40.910   0.436
12135W        W71638  22.196  15.791   3.793
12136W        W71639  38.482  18.251   0.370
12137W        W71640  42.846  33.445  10.631
12138W        W71641  12.787   4.428   2.325
12139W        W71642   1.733  20.051  10.417
12140W        W71643   0.933  16.161  10.539
12141W        W71644  39.926  16.715   3.777
12142W        W71645  41.314  15.725  14.284
12143W        W71646   9.815   8.725   3.268
12144W        W71647  21.213  34.488   1.360
12145W        W71648  24.590  40.010  13.496
12146W        W71649  17.184   8.298  10.503
12147W        W71650  22.525  10.245   4.786
12148W        W71651   4.261  26.690  12.462
12149W        W71652   4.429  21.208  14.996
12150W        W71653  11.817  17.110   2.764
12151W        W71654  36.583  15.227  10.995
12152W        W71655  41.312   0.318  14.979
12153W        W71656  28.524   9.165  12.908
12154W        W71657  19.122  33.465   0.869
12155W        W71658   2.891  16.131   1.695
12156W        W71659  15.092  28.125   4.793
12157W        W71660   2.837  39.065   3.363
12158W        W71661  44.356  22.097  14.764
12159W        W71662  31.152   3.243  12.082
12160W        W71663  31.530  21.643  12.850
12161W        W71664  28.956   6.224  11.564
12162W        W71665  40.822  24.479  14.461
12163W        W71666   8.331   2.433   3.845
12164W        W71667  10.761  16.684   4.623
12165W        W71668  36.036  34.570  14.495
12166W        W71669  37.011   8.260   0.862
12167W        W71670  17.768  16.570  10.422
12168W        W71671   6.792  39.914   2.343
12169W        W71672  32.008  32.634  12.377
12170W        W71673   5.892  32.610   4.316
12171W        W71674  35.940   5.318   0.308
12172W        W71675  25.191   2.722   3.733
12173W        W71676  36.007   6.207   4.133
12174W        W71677  31.061  34.042  13.367
12175W        W71678  11.808  17.132  11.528
12176W        W71679  26.152   2.333  10.516
12177W        W71680  18.242  29.602   1.935
12178W        W71681  26.576  11.173   1.737
12179W        W71682  19.272   8.809  14.989
12180W        W71683  33.481  27.677   3.638
12181W        W71684  37.424  37.074  13.956
12182W        W71685  37.930  23.989  11.465
12183W        W71686  42.885  33.978   4.238
12184W        W71687  16.224   1.405  11.988
12185W        W71688  19.071  17.557   3.164
12186W        W71689  30.547  41.296   4.349
12187W        W71690  20.583  27.986   4.202
12188W        W71691  30.486   9.364   3.324
12189W        W71692  30.131  12.130  13.403
12190W        W71693  34.557  44.818   3.724
12191W        W71694  37.477  15.118   2.201
12192W        W71695  15.313  23.000  13.492
12193W        W71696  28.016  34.117   4.256
12194W        W71697  25.019  29.948  12.488
12195W        W71698  26.626  24.622  11.950
12196W        W71699  23.110  31.527  10.432
12197W        W71700  23.114  15.323  13.024
12198W        W71701   7.836  22.997   4.633
12199W        W71702  43.957  39.912  10.420
12200W        W71703   2.819  29.464   3.839
12201W        W71704  44.913  35.481   2.336
12202W        W71705   5.816   0.782  14.924
12203W        W71706   4.354  37.529  13.821
12204W        W71707  25.209  33.104   0.376
12205W        W71708  11.228  31.531  13.062
12206W        W71709  36.413  12.700  11.559
12207W        W71710   6.731  21.729  10.468
12208W        W71711  24.649  16.213   1.430
12209W        W71712  11.697  22.539   5.144
12210W        W71713  23.064  18.644  11.459
12211W        W71714  22.672  18.660   1.736
12212W        W71715  25.621  37.464   0.259
12213W        W71716  39.859   2.745  13.319
12214W        W71717  39.034   4.828   4.663
12215W        W71718   4.387  30.968  13.948
12216W        W71719   3.229  33.590  11.438
12217W        W71720  24.093  15.732  14.966
12218W        W71721   2.826  40.520  12.014
12219W        W71722  33.969   3.345  13.872
12220W        W71723   0.814  39.861   3.746
12221W        W71724  33.119  29.956  14.824
12222W        W71725  40.952  41.345  11.458
12223W        W71726  11.357  10.327  13.918
12224W        W71727  44.921  34.487   0.927
12225W        W71728   1.857  23.497   0.915
12226W        W71729  26.509  16.804   2.746
12227W        W71730  18.060  20.114   2.337
12228W        W71731   5.258  43.942  12.527
12229W        W71732  18.683   1.787  11.490
12230W        W71733  43.272  13.830  10.449
12231W        W71734  36.564  22.196   3.207
12232W        W71735   1.468  38.365   3.191
12233W        W71736   6.816  42.379   3.739
12234W        W71737   1.827  30.443  12.394
12235W        W71738   6.298  42.507   1.273
12236W        W71739  16.770  17.199  10.521
12237W        W71740  32.581   6.195   4.157
12238W        W71741  27.590  29.441  10.590
12239W        W71742   3.238  27.066   3.383
12240W        W71743  43.473   3.335   5.226
12241W        W71744  41.825  36.905  12.050
12242W        W71745  19.710  22.171   2.672
12243W        W71746  25.477  13.725   2.876
12244W        W71747  24.692   6.399  13.548
12245W        W71748  30.502   5.918   4.818
12246W        W71749  31.947   1.768   2.821
12247W        W71750  13.679  13.780   0.316
12248W        W71751  20.145  42.865  12.942
12249W        W71752  40.885  42.339   1.444
12250W        W71753  31.581  43.956  10.563
12251W        W71754  34.096  21.157   4.696
12252W        W71755  44.786  30.442  10.493
12253W        W71756  22.101  36.958   3.275
12254W        W71757  20.123   1.887   9.999
12255W        W71758  41.019  36.082   2.185
12256W        W71759   6.285  37.934   4.646
12257W        W71760   6.722  30.520   3.670
12258W        W71761  37.840  42.902   0.343
12259W        W71762  32.139  29.953  12.480
12260W        W71763  13.637  25.519  14.002
12261W        W71764  16.135  37.399   3.644
12262W        W71765  41.369  35.580   0.747
12263W        W71766  30.503  12.294   9.503
12264W        W71767  16.222  24.701  12.391
12265W        W71768  15.822  20.155  13.513
12266W        W71769  18.102  17.208   2.283
12267W        W71770  14.110  19.111  13.437
12268W        W71771  11.197  32.047   0.324
12269W        W71772  17.168  27.087   3.787
12270W        W71773   4.912  10.341   1.710
12271W        W71774  38.846  27.000   2.249
12272W        W71775  39.832  32.557  12.838
12273W        W71776  42.326  10.226  14.803
12274W        W71777   6.707  18.670  11.872
12275W        W71778  32.456  36.382  13.449
12276W        W71779  25.588  41.429   1.860
12277W        W71780  19.273  23.541   4.606
12278W        W71781   9.763  29.983   1.842
12279W        W71782  21.527  14.642  13.311
12280W        W71783  13.121  34.890   1.364
12281W        W71784  13.319  16.153  11.397
12282W        W71785  24.010  15.248   2.418
12283W        W71786  18.718  13.760   0.407
12284W        W71787  32.563   3.447   2.399
12285W        W71788  17.783   8.830  10.449
12286W        W71789   0.331   9.787  11.398
12287W        W71790  21.757  17.685   2.793
12288W        W71791  23.074  35.570  11.495
12289W        W71792  30.940  14.131  12.529
12290W        W71793   2.297  24.040  13.353
12291W        W71794  32.992   8.400  14.440
12292W        W71795   7.173   4.746  13.337
12293W        W71796  28.477  20.125  11.548
12294W        W71797  25.045  32.124  11.974
12295W        W71798  41.313  42.896  12.377
12296W        W71799  28.089   9.857  14.298
12297W        W71800  29.477  10.380   4.287
12298W        W71801  17.108   1.339  11.126
12299W        W71802  10.734   4.337   0.465
12300W        W71803  28.980  13.283  13.843
12301W        W71804  36.401   2.942  10.610
12302W        W71805  14.635  10.655  11.947
12303W        W71806  40.387  36.917  12.939
12304W        W71807   6.300  39.556  12.906
12305W        W71808  37.044  30.132   0.420
12306W        W71809  41.926  31.058   2.803
12307W        W71810   2.298  21.130  11.597
12308W        W71811  14.827  39.546  10.892
12309W        W71812  44.343  14.230   9.930
12310W        W71813  22.617  11.867  14.785
12311W        W71814  12.721  40.516   4.234
12312W        W71815   8.257  40.450  11.938
12313W        W71816  19.191   2.280  14.774
12314W        W71817  18.139  36.949  11.106
12315W        W71818  13.673   7.314  13.440
12316W        W71819  31.406  13.746  13.503
12317W        W71820  40.013  20.135  14.022
12318W        W71821   5.740  22.221  11.527
12319W        W71822  15.643  14.260  14.304
12320W        W71823  38.834  26.631  12.941
12321W        W71824  24.152   2.280   1.325
12322W        W71825  13.312  14.109  14.884
12323W        W71826  14.248  11.647  12.425
12324W        W71827  14.766  10.850   1.753
12325W        W71828   8.888   3.280   2.844
12326W        W71829  27.571  29.617  11.571
12327W        W71830  24.065  34.521  12.383
12328W        W71831   3.458  41.810   0.425
12329W        W71832  38.524  20.155   1.930
12330W        W71833  32.462   0.430  10.511
12331W        W71834  11.130  23.029  11.392
12332W        W71835   3.894   7.307  12.473
12333W        W71836   4.833  26.178  10.985
12334W        W71837  30.995   9.720   3.328
12335W        W71838  35.420  20.577  11.948
12336W        W71839  20.189  33.936   0.890
12337W        W71840   0.381  23.541  12.862
12338W        W71841  39.974  29.041  13.917
12339W        W71842  44.926   5.776  11.537
12340W        W71843  23.564  36.896  12.470
12341W        W71844  10.684  18.633   5.112
12342W        W71845   3.339  33.588   0.928
12343W        W71846   9.793  25.168  14.860
12344W        W71847  36.033  20.194  13.503
12345W        W71848  40.400   0.347   1.864
12346W        W71849  12.242  42.012  14.015
12347W        W71850  31.028   4.281   3.833
12348W        W71851  33.613   3.940  10.991
12349W        W71852  41.307  10.712  14.514
12350W        W71853  15.233  21.742   1.358
12351W        W71854   7.406  13.604  12.519
12352W        W71855   7.184  16.637   0.331
12353W        W71856   3.765  23.080  12.561
12354W        W71857  31.557  12.827   1.825
12355W        W71858  22.721  26.067  11.490
12356W        W71859  23.524  41.293   1.870
12357W        W71860  44.483  20.697   2.789
12358W        W71861  41.518  23.519  11.882
12359W        W71862   2.859  12.158  12.456
12360W        W71863  29.074  31.498  13.367
12361W        W71864  36.503  28.026  10.469
12362W        W71865  27.043  29.559   1.887
12363W        W71866  25.004  41.351  13.482
12364W        W71867   1.970  36.877  13.388
12365W        W71868  43.494   8.715  12.885
12366W        W71869  39.477  32.620  12.343
12367W        W71870   5.694  10.641  13.389
12368W        W71871  20.531  19.172   3.295
12369W        W71872  22.706  21.259   4.677
12370W        W71873   6.686  44.910   4.598
12371W        W71874  21.047  19.229   4.737
12372W        W71875  18.727  36.032   1.263
12373W        W71876  43.814  22.560  14.340
12374W        W71877  32.127  20.240  10.451
12375W        W71878   5.309  24.227   0.408
12376W        W71879  16.574  37.335   2.351
12377W        W71880  17.604   3.232  12.406
12378W        W71881  40.052  38.975   0.947
12379W        W71882  30.414  38.918  14.925
12380W        W71883  24.048  22.136   1.451
12381W        W71884  31.508   0.364  14.478
12382W        W71885  10.298   6.863  14.901
12383W        W71886  39.909  30.931   0.403
12384W        W71887  20.034  21.574   2.301
12385W        W71888  42.470  14.649   4.349
12386W        W71889  31.532   9.251   4.738
12387W        W71890   0.348  32.532   4.297
12388W        W71891   5.774   0.416  13.371
12389W        W71892  39.026  23.063  11.373
12390W        W71893   4.845  31.460  12.872
12391W        W71894  29.990  25.964  13.913
12392W        W71895  16.218  17.789   0.839
12393W        W71896  17.743  34.447  14.941
12394W        W71897  20.532  37.338  13.544
12395W        W71898  27.172  14.324   3.836
12396W        W71899  29.050   8.212  14.897
12397W        W71900   3.367  26.519  12.402
12398W        W71901  43.806  34.069   0.886
12399W        W71902  27.485  25.130  10.946
12400W        W71903   1.453  43.284   0.928
12401W        W71904   2.739  18.689  12.489
12402W        W71905  16.075  39.814   1.269
12403W        W71906  17.611  40.982  14.943
12404W        W71907  10.687  11.646  14.782
12405W        W71908  26.018  44.927  14.851
12406W        W71909  28.186  11.740  14.468
12407W        W71910   8.878   6.876   3.834
12408W        W71911   9.721  42.886   2.346
12409W        W71912  15.214   7.193  13.487
12410W        W71913  15.796   7.826   3.249
12411W        W71914  31.978  39.871   3.308
12412W        W71915  25.666   7.247  13.370
12413W        W71916  31.632   6.734   1.296
12414W        W71917  25.181  22.194   0.778
12415W        W71918  42.919  36.459  14.774
12416W        W71919  27.531  44.308   3.721
12417W        W71920  44.334  44.900   3.174
12418W        W71921  16.206  13.292  10.424
12419W        W71922  41.299  23.648  12.478
12420W        W71923  35.539  10.817  14.507
12421W        W71924  22.056  42.871  11.563
12422W        W71925  25.113   7.383   1.384
12423W        W71926   9.298  40.038  11.070
12424W        W71927  20.124  17.558   1.310
12425W        W71928  30.505  28.173   5.126
12426W        W71929  20.578  11.694  12.362
12427W        W71930  27.497  27.145   0.245
12428W        W71931  26.655  11.783   3.850
12429W        W71932   3.418   2.923  10.441
12430W        W71933  44.868  18.234  14.341
12431W        W71934   2.312  30.978   4.645
12432W        W71935   3.813  34.421  13.394
12433W        W71936  23.222  19.606  10.596
12434W        W71937   2.849  31.122   2.279
12435W        W71938  22.544   6.819   1.288
12436W        W71939   8.771   1.817  11.396
12437W        W71940  43.839  11.135  11.877
12438W        W71941  28.540  33.595  12.390
12439W        W71942  24.064  30.423   1.884
12440W        W71943  10.819  26.485   0.349
12441W        W71944  34.596  19.663   3.151
12442W        W71945   5.429  35.529  11.439
12443W        W71946  44.372   9.304  12.348
12444W        W71947  30.931   3.287  14.494
12445W        W71948   7.884  18.662   3.837
12446W        W71949  29.057  33.590   0.439
12447W        W71950   4.942  13.343  13.920
12448W        W71951   1.753  20.198   0.806
12449W        W71952  17.638  13.236  12.555
12450W        W71953  39.401  39.989  13.945
12451W        W71954  28.163  35.514  14.475
12452W        W71955   4.724  29.011   0.830
12453W        W71956  36.514  32.476   1.873
12454W        W71957  37.844  33.582   2.804
12455W        W71958   5.863  21.749  14.359
12456W        W71959  23.149  12.812   0.783
12457W        W71960  30.423  35.057   5.171
12458W        W71961  38.538  25.665   1.239
12459W        W71962  20.557  25.531  14.827
12460W        W71963  27.641  29.020  14.492
12461W        W71964  38.456  12.261  10.498
12462W        W71965  40.467  21.018   2.727
12463W        W71966  35.061  10.742   1.782
12464W        W71967   4.794  10.177   2.276
12465W        W71968  40.547  34.378  12.344
12466W        W71969  30.049   3.737   3.855
12467W        W71970  29.662  42.861  12.400
12468W        W71971  41.496  26.457   0.382
12469W        W71972  33.541   8.743   0.882
12470W        W71973  41.910  18.784   3.745
12471W        W71974  28.603  32.565   1.918
12472W        W71975  29.940  41.484  14.295
12473W        W71976  29.106  31.484  13.061
12474W        W71977  33.525  39.316  13.477
12475W        W71978   4.941  23.712   2.764
12476W        W71979   4.745  29.598   1.859
12477W        W71980  44.788   6.375   2.412
12478W        W71981   6.793  26.994   3.735
12479W        W71982  40.520   7.199  14.342
12480W        W71983  15.277  15.670   0.967
12481W        W71984  39.340  22.541   4.310
12482W        W71985  29.032  40.799   2.372
12483W        W71986  18.561  41.842   3.377
12484W        W71987  14.756   3.299   1.790
12485W        W71988   7.174  30.545  14.350
12486W        W71989  40.900  37.851  14.802
12487W        W71990  36.432  31.611   1.742
12488W        W71991  26.701   7.285  10.644
12489W        W71992  21.033   6.851  14.408
12490W        W71993  40.806  26.695   4.300
12491W        W71994  24.507  17.214   2.243
12492W        W71995  18.598  10.147   3.203
12493W        W71996  35.951  38.543   2.675
12494W        W71997  14.590  20.134   2.394
12495W        W71998  36.848   5.897   5.631
12496W        W71999  15.231  36.991  11.062
12497W        W72000  39.446  38.562   0.320
12498W        W72001  19.039  31.041  12.066
12499W        W72002  35.976   6.775  13.805
12500W        W72003  42.427  43.314  13.338
12501W        W72004  10.203  16.724  10.405
12502W        W72005   6.760  32.990  10.611
12503W        W72006  17.640  27.519  10.994
12504W        W72007  21.240  13.278  11.449
12505W        W72008  31.939  35.034  14.279
12506W        W72009  39.372  44.916   2.287
12507W        W72010   5.208  14.636   9.593
12508W        W72011  37.418  25.665  14.948
12509W        W72012  28.074   0.337   1.306
12510W        W72013   7.411  30.152  12.345
12511W        W72014  26.490  27.006   1.708
12512W        W72015  31.531  32.011  14.333
12513W        W72016  32.126  28.148   2.723
12514W        W72017  22.611   4.325   2.830
12515W        W72018  13.315  13.174   0.338
12516W        W72019   0.398  43.875  12.346
12517W        W72020   6.676  36.842   1.795
12518W        W72021  37.355  44.929  10.987
12519W        W72022  25.490  27.958   0.748
12520W        W72023   8.756  41.525  14.830
12521W        W72024  15.721  44.347   1.283
12522W        W72025  40.492   4.770  11.024
12523W        W72026  14.713   4.279   1.300
12524W        W72027  41.918   9.715  13.511
12525W        W72028  13.200   9.679  12.516
12526W        W72029   1.377  25.561   2.849
12527W        W72030  42.970   2.832  13.435
12528W        W72031  25.995  31.583  13.817
12529W        W72032   4.303  28.066  11.127
12530W        W72033  28.014  12.246   3.334
12531W        W72034  12.797  36.028  11.382
12532W        W72035   9.856  32.622  11.875
12533W        W72036  21.589   8.679   2.799
12534W        W72037  24.020  25.636   4.622
12535W        W72038   0.851  13.721   4.170
12536W        W72039  35.468  39.890   3.774
12537W        W72040   9.239   6.745   0.791
12538W        W72041   9.884  43.378   1.737
12539W        W72042  32.412   1.359   4.768
12540W        W72043   3.380  34.550  12.830
12541W        W72044  21.116  38.480  14.446
12542W        W72045   3.846  21.634   0.356
12543W        W72046  23.727  22.620  10.601
12544W        W72047  41.023  29.164  11.030
12545W        W72048  29.060  28.169   5.284
12546W        W72049  10.168   6.319   3.704
12547W        W72050  12.212  43.780  14.340
12548W        W72051  30.993  27.451   1.822
12549W        W72052  33.471  26.119  14.839
12550W        W72053   8.367  32.098   2.244
12551W        W72054  11.242  23.077   3.204
12552W        W72055  20.208  20.072   0.389
12553W        W72056  37.403  33.932   0.907
12554W        W72057  28.951   0.339  11.475
12555W        W72058  11.160  44.888  14.477
12556W        W72059  38.455  43.011   1.797
12557W        W72060  10.718  14.660   0.787
12558W        W72061  43.834  18.168   9.632
12559W        W72062  40.420  21.029   4.751
12560W        W72063  14.290  25.678  14.958
12561W        W72064  35.070  16.697   1.277
12562W        W72065  20.036  36.842   2.823
12563W        W72066  12.306  30.498  14.958
12564W        W72067  25.087  43.418   4.173
12565W        W72068  30.092  29.158   4.224
12566W        W72069  41.444  14.712   2.332
12567W        W72070  38.950  16.104   3.679
12568W        W72071  34.611  19.591  14.926
12569W        W72072  29.055   2.865   4.213
12570W        W72073   9.235  42.958   2.809
12571W        W72074  10.673   9.241  14.442
12572W        W72075   8.222  19.597   4.334
12573W        W72076   6.874  10.727   1.390
12574W        W72077  33.023   1.862   3.729
12575W        W72078  24.111   6.761  10.986
12576W        W72079  14.169  43.863   4.161
12577W        W72080  42.891  27.516  12.451
12578W        W72081  14.233  19.164  11.477
12579W        W72082  32.591  40.021   0.355
12580W        W72083  39.813  35.488  13.812
12581W        W72084   5.868  20.156   2.741
12582W        W72085  18.107  27.038   4.784
12583W        W72086  10.783   1.848   3.351
12584W        W72087  17.139  32.460   0.925
12585W        W72088  24.055  38.966   1.721
12586W        W72089   1.405   8.894  11.428
12587W        W72090  44.444  10.694   3.868
12588W        W72091   0.375  43.004  14.888
12589W        W72092  17.255  11.845  10.112
12590W        W72093  30.934  33.060   0.746
12591W        W72094  16.244   6.291   4.605
12592W        W72095  39.834  38.980  14.902
12593W        W72096  23.157   9.270  12.994
12594W        W72097   3.427   3.878   2.738
12595W        W72098  25.680  34.093   4.204
12596W        W72099  21.207  35.981  12.372
12597W        W72100  25.681  44.464  12.488
12598W        W72101  40.409   9.257  13.899
12599W        W72102   6.691  30.990   1.846
12600W        W72103  12.270   1.481   3.681
12601W        W72104  40.391  37.894  12.015
12602W        W72105   1.246  33.621   4.770
12603W        W72106   8.296  14.306   2.304
12604W        W72107  15.644  26.956  13.417
12605W        W72108  24.480  41.515  14.978
12606W        W72109  12.273  14.300  10.498
12607W        W72110   7.361  37.032   3.869
12608W        W72111  30.082  22.633   2.740
12609W        W72112  36.885  43.799   2.192
12610W        W72113  23.524  27.556   3.785
12611W        W72114  12.271  10.313  12.406
12612W        W72115   1.734  10.760  14.909
12613W        W72116  30.908  36.368  11.953
12614W        W72117   0.943  18.721  11.106
12615W        W72118   1.357  26.574   2.715
12616W        W72119  33.991  39.376  10.897
12617W        W72120  42.449   7.214   1.270
12618W        W72121   0.287  31.004   4.191
12619W        W72122  17.252  31.075   4.233
12620W        W72123  39.363   1.793  14.381
12621W        W72124  15.241  14.139   4.700
12622W        W72125  35.471   3.383  13.893
12623W        W72126  22.052  28.980   1.358
12624W        W72127  41.522  39.992   3.300
12625W        W72128  44.793  16.211  11.923
12626W        W72129  21.178  18.261  14.447
12627W        W72130  13.670  12.245   4.605
12628W        W72131  26.504  27.154   4.148
12629W        W72132  21.538  25.630   4.263
12630W        W72133  12.644  35.888   1.711
12631W        W72134  27.592  13.742  14.299
12632W        W72135  20.688  35.862   2.835
12633W        W72136  21.125  26.558   3.249
12634W        W72137   7.824   4.771  13.819
12635W        W72138  26.469   3.218   0.333
12636W        W72139  43.457  18.146   5.627
12637W        W72140  12.851  34.923   5.127
12638W        W72141  30.460  40.392   4.781
12639W        W72142  44.265  18.130  10.576
12640W        W72143  23.062  33.615   2.747
12641W        W72144  33.507  27.681  11.928
12642W        W72145  22.650  26.971   4.350
12643W        W72146  24.560  14.814   3.285
12644W        W72147  44.375   6.835  14.510
12645W        W72148  28.601  41.930  11.112
12646W        W72149  12.288  16.772   1.310
12647W        W72150  24.998  15.166  11.462
12648W        W72151   4.318   1.840   1.279
12649W        W72152  14.163   3.722  13.535
12650W        W72153  31.950   4.395   1.260
12651W        W72154  20.542  21.626  13.817
12652W        W72155  19.265  11.624   2.299
12653W        W72156  19.266  26.064   2.396
12654W        W72157  16.676  40.959  13.794
12655W        W72158   7.416  12.309  13.939
12656W        W72159  22.178   8.295  14.850
12657W        W72160  24.674  14.298   2.385
12658W        W72161  16.125  21.527  14.809
12659W        W72162  30.929  12.757   0.730
12660W        W72163  27.671   8.399  12.486
12661W        W72164  22.550  44.850  10.931
12662W        W72165  38.983  23.601   3.634
12663W        W72166  35.476  35.083  13.357
12664W        W72167  32.509  42.393   0.787
12665W        W72168   9.723  39.411   2.680
12666W        W72169  23.567  14.746  11.002
12667W        W72170  11.698   2.951   4.232
12668W        W72171  27.995  10.361  14.833
12669W        W72172  20.109  43.463  11.010
12670W        W72173  43.770  19.769  11.919
12671W        W72174  29.667   8.850  13.811
12672W        W72175  38.976  34.480  10.616
12673W        W72176  17.741   3.714  12.456
12674W        W72177  37.538   2.886   3.257
12675W        W72178  24.112  37.902  12.856
12676W        W72179  19.146  34.020   2.216
12677W        W72180  23.595  32.906  14.029
12678W        W72181  31.567  42.456   1.418
12679W        W72182  34.099  16.111   0.411
12680W        W72183  12.229   1.243  10.536
12681W        W72184   9.651  39.030  13.414
12682W        W72185  28.552  22.110  14.442
12683W        W72186  20.154  36.416   1.828
12684W        W72187  44.862   8.681  11.107
12685W        W72188  44.333   2.954   0.917
12686W        W72189   2.397   0.943  14.446
12687W        W72190  23.005  19.239   0.389
12688W        W72191  33.492  34.992   1.743
12689W        W72192  12.145  34.003  14.299
12690W        W72193   8.329  13.180  11.866
12691W        W72194  15.789  26.181   4.685
12692W        W72195  14.635   2.461  14.797
12693W        W72196   4.830   9.161   0.280
12694W        W72197  34.495  11.837  13.927
12695W        W72198   9.245  37.352   0.315
12696W        W72199  30.532  41.393   2.376
12697W        W72200  36.957  15.736   4.244
12698W        W72201  15.284   8.356   0.320
12699W        W72202   4.833  10.325  11.554
12700W        W72203   2.446  22.568   3.233
12701W        W72204  39.513   4.754  14.319
12702W        W72205  28.509  32.453  14.299
12703W        W72206  28.535  43.505   4.341
12704W        W72207  31.016  28.446  13.319
12705W        W72208  19.646  35.968   1.720
12706W        W72209  11.628   3.388  10.447
12707W        W72210  33.099  18.632  13.835
12708W        W72211  20.035  39.371  11.576
12709W        W72212  13.681   0.750   3.714
12710W        W72213  30.604  19.749  13.918
12711W        W72214  17.111   0.266   2.721
12712W        W72215  30.568  42.839  13.386
12713W        W72216  25.970  23.129   1.906
12714W        W72217  32.595  26.170  14.875
12715W        W72218  28.021  17.289  10.405
12716W        W72219  39.918  19.203   0.314
12717W        W72220  32.139  11.297  12.452
12718W        W72221   2.413   3.376   0.858
12719W        W72222  28.550  39.858  10.081
12720W        W72223   4.700  20.047   3.713
12721W        W72224   7.370   2.411  14.371
12722W        W72225   5.900  19.697   2.763
12723W        W72226  36.893   6.199   2.858
12724W        W72227   6.318  15.261   1.265
12725W        W72228  28.669  36.569  14.846
12726W        W72229   3.263  29.430   0.384
12727W        W72230  32.602   6.194  14.474
12728W        W72231  44.865   4.717  11.982
12729W        W72232  24.184   5.919  10.922
12730W        W72233  36.078   0.815   1.253
12731W        W72234   8.873  40.902  10.425
12732W        W72235  34.394  17.582   1.813
12733W        W72236  41.529  17.174   2.202
12734W        W72237  13.279  34.425   2.868
12735W        W72238  32.015   3.286   0.362
12736W        W72239  16.599  35.566   2.712
12737W        W72240  35.359   7.235   4.207
12738W        W72241   2.287   2.354   5.154
12739W        W72242  40.480  24.705  12.078
12740W        W72243  28.075  11.279   2.335
12741W        W72244  31.641  35.906   1.741
12742W        W72245  35.385  40.829  10.592
12743W        W72246   6.853  35.092  14.918
12744W        W72247  27.121  25.663  11.481
12745W        W72248   3.880  29.043   2.894
12746W        W72249  36.368  20.157   3.772
12747W        W72250  22.627  16.147   3.860
12748W        W72251  30.124   7.769   1.728
12749W        W72252  26.016  25.518   2.772
12750W        W72253  12.172  16.668   2.324
12751W        W72254  32.923   4.945   1.694
12752W        W72255  14.148   9.347   4.600
12753W        W72256  28.464  25.522   4.276
12754W        W72257  14.263  27.196   3.372
12755W        W72258  15.191  36.410  12.440
12756W        W72259  37.017  36.561   0.252
12757W        W72260  27.661  30.057  14.855
12758W        W72261  20.613  42.994   4.627
12759W        W72262   0.459   1.473   4.193
12760W        W72263   2.434  38.039  12.556
12761W        W72264  33.539  41.960  12.525
12762W        W72265  32.016  25.679   3.652
12763W        W72266  15.644  39.977  14.894
12764W        W72267  26.689  31.598  12.372
12765W        W72268   1.908   7.317  10.888
12766W        W72269  13.194  29.432   0.380
12767W        W72270   7.868  31.992   4.660
12768W        W72271  10.377  18.089  11.532
12769W        W72272  14.174  19.099   3.327
12770W        W72273  41.036  17.073  12.046
12771W        W72274   2.953   8.335   3.649
12772W        W72275  37.399   4.283   1.395
12773W        W72276  26.512  10.297   5.286
12774W        W72277   7.723  27.990  12.989
12775W        W72278  18.109  27.104  13.349
12776W        W72279   2.744  13.698   0.366
12777W        W72280  33.930  19.056  11.442
12778W        W72281  19.545   4.260   1.867
12779W        W72282  22.634  12.291  14.020
12780W        W72283  18.096  38.910  12.341
12781W        W72284   2.826  34.953  14.421
12782W        W72285   6.888  33.472  14.936
12783W        W72286  16.786  36.429  12.020
12784W        W72287   8.880  42.829  10.952
12785W        W72288  18.291   9.798  12.569
12786W        W72289  26.529   1.821   0.739
12787W        W72290  22.728  34.053   1.341
12788W        W72291  36.470  44.335  12.092
12789W        W72292   9.743  34.373  10.449
12790W        W72293  32.896   1.826   4.242
12791W        W72294  31.465  22.583   4.253
12792W        W72295   8.304  37.402   2.201
12793W        W72296  29.580  10.178   4.729
12794W        W72297  16.227   9.186  14.451
12795W        W72298  39.014  15.607   1.930
12796W        W72299  38.969  15.089   0.283
12797W        W72300  36.562  28.498   1.758
12798W        W72301  25.004  12.229   0.394
12799W        W72302  36.998  33.046  12.975
12800W        W72303   6.389  44.873   4.254
12801W        W72304  35.426  29.031   2.891
12802W        W72305  25.091   7.696  11.590
12803W        W72306  25.188   4.268  12.968
12804W        W72307  13.127  17.236   2.327
12805W        W72308  33.600   7.673   2.817
12806W        W72309  27.516  35.370  12.361
12807W        W72310   9.775  40.829   1.921
12808W        W72311  17.673  11.292   2.210
12809W        W72312  32.071  13.726   2.724
12810W        W72313  16.262  22.048  13.062
12811W        W72314   1.343  29.988   2.869
12812W        W72315  43.886  33.500   1.894
12813W        W72316  29.955  14.227   0.252
12814W        W72317  32.402  37.497   0.401
12815W        W72318   2.441  11.206   3.637
12816W        W72319  21.105   0.297  10.011
12817W        W72320  14.824  32.035   3.223
12818W        W72321  16.737  12.644   3.280
12819W        W72322  12.630   6.274  13.508
12820W        W72323  14.313  28.476  13.517
12821W        W72324  26.571  42.298   4.204
12822W        W72325  25.710  29.567  11.079
12823W        W72326  41.332  19.090   4.707
12824W        W72327  25.193  12.167   3.184
12825W        W72328  37.378  41.292   0.296
12826W        W72329   1.333  19.544   0.476
12827W        W72330  37.373   9.782  11.589
12828W        W72331  40.448  21.041  10.092
12829W        W72332  38.349  32.458  11.084
12830W        W72333  15.704  23.038   3.663
12831W        W72334  40.385  38.455   0.890
12832W        W72335  37.370  12.791   2.391
12833W        W72336  28.101  22.047   0.297
12834W        W72337  22.592   5.242  10.051
12835W        W72338  42.782  29.171  10.899
12836W        W72339  11.630  37.894   3.291
12837W        W72340   2.322  32.887   1.391
12838W        W72341  19.631  34.475  13.356
12839W        W72342  15.225  40.996   2.256
12840W        W72343  19.165  38.408   4.607
12841W        W72344  36.974   9.201  14.416
12842W        W72345  24.063  41.874   0.902
12843W        W72346  12.250  25.543   1.437
12844W        W72347   9.196  26.649  13.870
12845W        W72348  21.741  33.075  10.912
12846W        W72349  35.893  28.596   1.219
12847W        W72350  12.122  35.107  12.876
12848W        W72351  13.778  34.375  12.493
12849W        W72352  25.538  14.337   2.666
12850W        W72353  33.010  41.980   0.429
12851W        W72354  18.594  32.898  10.959
12852W        W72355  15.723  28.030   1.897
12853W        W72356  31.107  27.021   0.941
12854W        W72357  34.106  36.489  13.932
12855W        W72358  27.616  21.561   2.315
12856W        W72359   7.820  26.488  11.933
12857W        W72360  21.521   5.411   3.692
12858W        W72361  33.910   3.765  10.898
12859W        W72362  42.413   2.790   2.287
12860W        W72363  33.482  12.163   4.620
12861W        W72364  29.027   0.755   2.183
12862W        W72365  23.611   3.813  11.894
12863W        W72366  27.058  12.840  14.410
12864W        W72367   0.861  37.405  10.983
12865W        W72368  25.122  29.552  11.437
12866W        W72369  10.664  34.427   1.931
12867W        W72370  12.651  18.586  12.512
12868W        W72371  20.198  21.241  14.788
12869W        W72372  22.147  15.821  11.085
12870W        W72373   7.325  39.836  13.029
12871W        W72374  42.388  33.582  10.611
12872W        W72375  13.633  18.098  14.834
12873W        W72376  10.661  19.671   2.795
12874W        W72377  43.014   8.873  13.809
12875W        W72378  11.725  31.985   2.710
12876W        W72379  22.531  35.092  10.149
12877W        W72380  40.369  20.236   2.331
12878W        W72381  25.057  19.774  10.505
12879W        W72382  42.929  12.203  13.933
12880W        W72383  36.082  40.464   3.682
12881W        W72384  11.724   9.841   3.697
12882W        W72385  16.640  44.823  11.921
12883W        W72386  43.462   7.708   1.274
12884W        W72387  13.220  18.115   3.209
12885W        W72388   8.296  34.927   3.764
12886W        W72389  19.680  11.779  13.307
12887W        W72390   0.456  17.175   5.567
12888W        W72391  37.901  10.265  14.900
12889W        W72392  17.638  12.312   3.343
12890W        W72393  20.225  40.496  12.887
12891W        W72394  16.707  28.471  12.358
12892W        W72395   8.372  26.677  14.360
12893W        W72396   7.361   6.793  13.345
12894W        W72397   8.377  22.164   3.715
12895W        W72398  37.934  25.135   0.740
12896W        W72399  40.365   1.273   3.714
12897W        W72400  15.760  12.158   4.816
12898W        W72401  42.521  31.526   0.456
12899W        W72402  10.753  36.083  14.904
12900W        W72403   7.872   5.913  10.444
12901W        W72404  25.708  23.508  13.316
12902W        W72405  31.417  27.676  10.946
12903W        W72406   3.389  22.135   0.442
12904W        W72407   2.359   9.729  13.362
12905W        W72408   0.887  18.179   2.292
12906W        W72409  37.570   9.381   2.787
12907W        W72410  27.129   1.309   0.422
12908W        W72411  29.099  30.081   2.325
12909W        W72412   9.647   3.938  10.526
12910W        W72413  32.047  28.615  11.878
12911W        W72414  32.407  22.184   2.837
12912W        W72415   9.861  40.053   4.205
12913W        W72416   5.291  38.915   0.425
12914W        W72417  24.047   1.477  11.023
12915W        W72418   9.156  42.288  12.840
12916W        W72419  13.290   3.404  12.353
12917W        W72420  43.767  23.076  11.452
12918W        W72421  24.009  39.850  14.446
12919W        W72422  15.103  28.556   2.851
12920W        W72423  43.767  16.686   0.884
12921W        W72424   3.741  21.050   1.347
12922W        W72425  38.828   8.876  11.063
12923W        W72426  30.000  44.324  11.601
12924W        W72427  40.424  41.466  13.338
12925W        W72428  26.565  30.053   3.283
12926W        W72429   5.792  33.489  11.610
12927W        W72430   6.899   5.898   2.812
12928W        W72431   6.787  30.541  11.542
12929W        W72432  23.567   3.215  13.365
12930W        W72433  11.321  20.267   1.889
12931W        W72434  38.969   8.378   0.385
12932W        W72435  18.558  27.952   4.828
12933W        W72436  20.659  32.559   4.709
12934W        W72437  25.013  10.704  11.113
12935W        W72438  38.504  22.687   2.752
12936W        W72439  15.653  24.569   5.264
12937W        W72440   5.372   4.907  12.950
12938W        W72441  18.667  21.531  12.408
12939W        W72442   8.175  35.890   4.310
12940W        W72443  25.128   2.787  10.920
12941W        W72444  17.132  25.510  14.415
12942W        W72445  12.264  19.220   4.137
12943W        W72446  35.396  28.022  14.996
12944W        W72447   5.307  29.134  11.927
12945W        W72448  19.551   6.286  10.976
12946W        W72449  43.820  21.121   1.908
12947W        W72450  15.326  23.566   2.305
12948W        W72451   2.437  13.663   0.766
12949W        W72452  29.505  40.914   1.880
12950W        W72453   0.876  19.230  11.932
12951W        W72454   6.419   8.668  10.416
12952W        W72455  33.911  27.672   2.672
12953W        W72456  35.477  38.913  11.864
12954W        W72457   0.771  32.968   3.163
12955W        W72458  27.606  17.734   2.820
12956W        W72459  13.651  15.220  14.829
12957W        W72460  13.648  33.436   3.383
12958W        W72461  33.510   6.423   3.664
12959W        W72462   9.711  41.365  10.442
12960W        W72463  32.898  27.616   5.799
12961W        W72464  31.615  22.621  14.386
12962W        W72465   0.306  23.730   0.938
12963W        W72466  15.593  31.427   2.360
12964W        W72467  29.936   4.930   3.332
12965W        W72468  20.560  26.993  14.391
12966W        W72469  34.595  34.087  13.936
12967W        W72470  13.822   9.282   3.676
12968W        W72471  41.874   6.678   4.213
12969W        W72472  35.871  28.021   3.759
12970W        W72473  37.086  10.347   2.334
12971W        W72474  31.465  25.197  14.809
12972W        W72475  23.139   6.423   0.949
12973W        W72476  31.093   8.310   0.843
12974W        W72477  29.550  16.610  14.421
12975W        W72478  36.981   5.702  13.529
12976W        W72479  38.915   7.861   2.309
12977W        W72480  10.637  18.071   0.254
12978W        W72481  19.050  12.617   3.761
12979W        W72482  34.091  31.000  10.463
12980W        W72483  35.921  37.884  13.004
12981W        W72484  41.537  33.381   3.376
12982W        W72485   1.257  39.923   0.261
12983W        W72486   3.738  42.867   1.249
12984W        W72487   5.380  38.828  11.102
12985W        W72488  29.608   1.758   4.303
12986W        W72489   3.374   7.363   4.637
12987W        W72490   1.271  22.732  11.951
12988W        W72491  30.984   5.372  13.007
12989W        W72492  27.183  27.050  11.607
12990W        W72493   7.756   4.251   1.417
12991W        W72494   6.832   3.221  12.350
12992W        W72495  20.552  20.177  12.094
12993W        W72496  30.493  16.617   4.808
12994W        W72497  20.090  38.991  14.333
12995W        W72498  13.685  44.760  11.477
12996W        W72499  25.064  31.490   3.335
12997W        W72500  18.765   9.658  10.602
12998W        W72501  17.206  10.868  11.592
12999W        W72502   8.319  24.673   0.414
13000W        W72503   6.257  26.036   2.378
13001W        W72504  21.193   2.310  12.533
13002W        W72505  42.828  31.559   0.445
13003W        W72506  22.109  11.157   1.318
13004W        W72507   2.843  17.604   1.764
13005W        W72508   7.692  24.129   2.307
13006W        W72509  43.355  39.370   4.801
13007W        W72510  28.601  23.101   4.615
13008W        W72511  22.015  43.894   2.226
13009W        W72512  35.417  26.135  10.434
13010W        W72513  11.747  33.484  14.859
13011W        W72514  20.176  23.549   2.706
13012W        W72515  20.210  43.491  12.529
13013W        W72516  34.012  39.500  13.360
13014W        W72517  21.050  34.972   1.250
13015W        W72518   1.251   1.944   0.735
13016W        W72519  31.645   2.254   3.185
13017W        W72520  36.067  24.165  13.937
13018W        W72521  35.997   5.887   0.926
13019W        W72522  29.568  39.410   0.403
13020W        W72523   2.758  13.826  13.509
13021W        W72524  38.508  17.108  10.995
13022W        W72525  11.350   0.342  13.964
13023W        W72526  18.670  16.780   0.730
13024W        W72527  11.334  39.496   3.687
13025W        W72528  27.503   5.351  14.993
13026W        W72529   5.365  30.138  11.933
13027W        W72530  35.604   1.378  11.999
13028W        W72531  32.461  19.150   1.705
13029W        W72532  16.216  31.556   2.204
13030W        W72533  16.084  12.136   4.767
13031W        W72534  23.174  26.492  12.464
13032W        W72535   1.954  28.453   1.906
13033W        W72536  23.557  44.360  13.050
13034W        W72537  16.125  44.981   4.681
13035W        W72538  39.465   0.322  10.515
13036W        W72539   2.308  33.915   4.131
13037W        W72540  24.616  18.634  10.920
13038W        W72541  22.655  16.175   4.209
13039W        W72542  25.615   7.272  12.900
13040W        W72543  28.538   7.369   0.419
13041W        W72544  28.596  17.702  10.445
13042W        W72545  24.533  11.358   0.363
13043W        W72546   0.309  37.059  12.879
13044W        W72547  24.051  41.339   3.335
13045W        W72548  36.055  14.803   0.448
13046W        W72549  24.137  33.468  11.499
13047W        W72550  32.906  43.473   1.932
13048W        W72551  44.288   4.208  10.427
13049W        W72552  43.399  24.081  12.825
13050W        W72553  43.829   2.879  12.528
13051W        W72554  33.541  34.899  12.987
13052W        W72555  44.326  22.213   3.669
13053W        W72556  36.380  19.270  13.957
13054W        W72557  28.179  10.868  10.078
13055W        W72558  41.535  11.680   3.241
13056W        W72559  13.123  19.563  10.018
13057W        W72560   6.427  26.091   1.934
13058W        W72561  25.596  40.927  13.931
13059W        W72562  17.119  18.130   2.350
13060W        W72563  13.788  29.601   4.340
13061W        W72564  13.665  34.507   1.806
13062W        W72565  29.527  31.019  11.914
13063W        W72566  34.991  30.929   4.617
13064W        W72567  31.534  32.579   2.852
13065W        W72568  41.833   3.902   0.814
13066W        W72569  14.814  37.442  12.903
13067W        W72570  31.582  30.082  11.550
13068W        W72571  38.383  42.877  11.889
13069W        W72572  40.954   0.249   3.727
13070W        W72573  44.970   4.308  11.381
13071W        W72574  35.461   6.328   4.620
13072W        W72575  44.898  28.449   3.156
13073W        W72576  42.962  35.363  12.527
13074W        W72577   1.289   7.868  12.342
13075W        W72578  40.500   0.423   2.383
13076W        W72579  34.938  19.225  14.398
13077W        W72580  12.292  27.017  14.465
13078W        W72581  25.119  35.397   3.708
13079W        W72582  26.678  29.073   3.826
13080W        W72583  10.862  11.647   0.818
13081W        W72584   2.239  32.913  12.533
13082W        W72585  43.451  13.242   3.674
13083W        W72586  14.283  25.155   3.726
13084W        W72587  34.991  10.174  10.108
13085W        W72588  32.591  25.993  12.983
13086W        W72589   3.291  28.999  13.506
13087W        W72590   2.296  23.492   2.732
13088W        W72591  15.136   7.882   1.339
13089W        W72592   6.767  35.550   1.909
13090W        W72593  32.621  26.038   4.264
13091W        W72594   2.780   4.741  14.872
13092W        W72595  42.932  12.289  14.453
13093W        W72596  44.462   8.356   0.863
13094W        W72597   3.381  23.082   3.823
13095W        W72598   0.952  18.224  11.568
13096W        W72599  25.578  22.621   2.226
13097W        W72600   5.889  44.937   4.253
13098W        W72601  28.110  36.416   9.676
13099W        W72602  39.815   4.344   2.794
13100W        W72603  30.923   7.287   0.483
13101W        W72604   8.334   8.404  12.372
13102W        W72605   1.939  20.256  11.129
13103W        W72606  40.509  40.516  11.561
13104W        W72607  34.909   0.754   1.264
13105W        W72608   7.911   9.385   2.312
13106W        W72609  14.227  18.640   3.789
13107W        W72610  27.640  22.744  14.294
13108W        W72611  42.341  26.611  12.073
13109W        W72612  30.946  12.649  10.993
13110W        W72613  17.562  22.517  10.404
13111W        W72614  41.926  23.674   4.169
13112W        W72615  14.693  24.587   1.411
13113W        W72616   2.267   0.911   4.177
13114W        W72617  18.549  33.621  14.408
13115W        W72618  15.723  30.113  12.882
13116W        W72619   3.747  23.538   1.338
13117W        W72620  37.485  30.602   3.639
13118W        W72621  12.146  26.590   3.766
13119W        W72622  35.952   0.808   3.707
13120W        W72623  26.652  31.092  12.879
13121W        W72624  34.494  30.545  14.803
13122W        W72625  14.796  29.464   3.647
13123W        W72626  11.677  18.133   2.285
13124W        W72627  18.655  35.052  12.475
13125W        W72628  40.449  15.724   4.201
13126W        W72629  22.538  29.448  14.978
13127W        W72630  11.349  11.152  14.000
13128W        W72631  24.046  28.060  12.013
13129W        W72632  17.769  21.040  14.801
13130W        W72633  25.602  23.152   2.358
13131W        W72634  13.164   3.336  10.495
13132W        W72635  22.012  24.147  11.474
13133W        W72636  12.610  23.645   0.768
13134W        W72637  29.551   6.913   2.669
13135W        W72638  25.647  15.300   2.342
13136W        W72639  11.850  36.447   2.254
13137W        W72640  20.100   8.378   0.742
13138W        W72641  43.988  38.930   1.725
13139W        W72642  44.969  43.398   0.276
13140W        W72643  23.031  28.121  11.059
13141W        W72644  24.601  18.054   3.754
13142W        W72645  37.868   0.310   0.748
13143W        W72646  25.018  27.149  11.081
13144W        W72647  36.890  34.441   2.254
13145W        W72648  26.098  18.079  12.877
13146W        W72649   3.339  38.899   3.382
13147W        W72650  34.871  31.026  14.409
13148W        W72651   8.193  39.332   3.338
13149W        W72652  16.643   7.254  14.861
13150W        W72653  41.407   7.863   1.906
13151W        W72654  22.547   1.794   3.220
13152W        W72655  33.999   5.289  14.402
13153W        W72656  35.498   0.896  14.430
13154W        W72657   7.865  31.055   2.818
13155W        W72658  42.984  35.370  14.291
13156W        W72659   9.167  33.117   1.300
13157W        W72660  32.518   9.209  11.116
13158W        W72661  32.936   7.738   3.831
13159W        W72662   9.672   5.433  14.891
13160W        W72663  16.717  27.062  12.039
13161W        W72664  11.834  17.697   1.241
13162W        W72665  10.680  12.339  13.517
13163W        W72666  44.323  30.521  10.922
13164W        W72667  12.813  37.953  12.079
13165W        W72668   1.322  29.134  13.940
13166W        W72669  13.207  39.472  13.849
13167W        W72670   1.398  28.997   3.855
13168W        W72671  40.417  43.411   3.706
13169W        W72672  20.262  28.655  10.968
13170W        W72673  27.174  23.226  12.061
13171W        W72674  33.003  20.689  13.488
13172W        W72675  23.616  41.861   1.310
13173W        W72676   0.832  18.214  14.006
13174W        W72677  31.427  12.299  12.986
13175W        W72678  41.890  40.009   4.171
13176W        W72679  19.598  25.516   2.840
13177W        W72680  17.577  11.684   0.892
13178W        W72681  41.431  43.410   3.296
13179W        W72682   5.390   9.855   4.798
13180W        W72683  34.444  40.022  12.462
13181W        W72684  36.545   2.928   0.946
13182W        W72685  25.709  17.203   9.980
13183W        W72686  24.523  18.064   1.760
13184W        W72687  40.976  12.697   4.155
13185W        W72688  27.491  40.434   0.861
13186W        W72689  29.467  17.666   3.640
13187W        W72690  16.221  31.609   1.757
13188W        W72691  40.392  43.414  12.023
13189W        W72692  32.990  15.771  11.424
13190W        W72693   1.308  22.190  13.795
13191W        W72694  34.379  24.566  11.466
13192W        W72695  22.622  12.680  14.859
13193W        W72696  43.767  20.141   0.251
13194W        W72697  43.271  14.737  14.785
13195W        W72698  31.622  18.672  12.866
13196W        W72699  38.035   7.180  10.640
13197W        W72700  26.683  43.010   2.312
13198W        W72701  22.114  30.441   2.404
13199W        W72702   4.304  29.484   4.339
13200W        W72703   5.276  17.614  12.920
13201W        W72704  29.648   6.915  11.994
13202W        W72705   9.777  13.243   2.899
13203W        W72706  14.226  29.666   0.439
13204W        W72707  27.473   4.236   3.702
13205W        W72708  36.455  17.221  11.024
13206W        W72709   4.302  33.989   3.752
13207W        W72710  41.308  31.537  12.460
13208W        W72711  44.498  21.639   5.247
13209W        W72712  37.024  14.275   0.942
13210W        W72713  41.810   5.333   0.410
13211W        W72714  24.651  23.196   2.256
13212W        W72715   2.292   6.374  11.489
13213W        W72716  34.023   7.890  14.463
13214W        W72717   6.353  31.070  11.934
13215W        W72718  10.159  30.934   1.864
13216W        W72719  37.948  30.924  14.770
13217W        W72720   3.782  10.229  14.371
13218W        W72721   0.823  25.545   2.262
13219W        W72722  37.980  22.186   1.237
13220W        W72723  31.468  19.593  13.015
13221W        W72724  28.442  10.776   1.289
13222W        W72725  37.051   1.843  13.833
13223W        W72726  11.845  19.114   0.911
13224W        W72727  31.478   9.348   2.264
13225W        W72728  22.176  12.797  12.519
13226W        W72729  21.019   7.223   4.137
13227W        W72730  19.780  27.470  10.405
13228W        W72731  39.532  20.085  12.829
13229W        W72732  28.590   3.792   2.734
13230W        W72733  42.813   7.383   2.341
13231W        W72734  23.165  15.645  14.433
13232W        W72735   3.261  36.885   0.280
13233W        W72736  14.322  11.661   4.820
13234W        W72737  34.078  32.126   1.445
13235W        W72738  42.488  24.557  13.952
13236W        W72739  18.769   1.845   3.378
13237W        W72740  14.172  28.514  11.988
13238W        W72741  16.225  42.472   3.831
13239W        W72742  44.412  27.098  14.338
13240W        W72743   5.267  31.910  11.425
13241W        W72744  30.428   6.749   1.396
13242W        W72745   2.766  30.467  11.375
13243W        W72746  31.112  32.112   3.811
13244W        W72747  17.797  41.842  10.557
13245W        W72748  36.887  37.999  13.320
13246W        W72749  25.987  20.635   1.441
13247W        W72750  15.599  15.672  14.313
13248W        W72751  11.833  11.373   1.765
13249W        W72752  43.791  43.884  14.759
13250W        W72753  10.716  41.947  13.038
13251W        W72754  17.228  24.563  13.797
13252W        W72755  28.025  28.488   0.341
13253W        W72756  12.803  44.867   3.366
13254W        W72757  35.990  20.687  10.626
13255W        W72758  22.703   0.364  13.518
13256W        W72759  40.874  39.326  14.458
13257W        W72760  32.531  24.156   0.401
13258W        W72761  17.259  26.691   4.240
13259W        W72762  13.208  43.344   3.258
13260W        W72763  29.160  15.771  12.096
13261W        W72764   5.801   7.241  13.536
13262W        W72765  25.060  17.304   4.281
13263W        W72766  11.695  37.473  12.090
13264W        W72767  22.157  40.866  10.891
13265W        W72768  11.284  33.598   2.806
13266W        W72769  24.528  15.292  11.054
13267W        W72770  23.693  13.140  11.413
13268W        W72771  34.478   1.825  10.504
13269W        W72772  19.192   4.806  13.356
13270W        W72773  39.487  10.176  10.516
13271W        W72774  11.127   5.240  10.945
13272W        W72775   8.221  30.428  10.459
13273W        W72776  22.142  23.091   3.834
13274W        W72777  15.770  18.231  14.961
13275W        W72778  40.510  28.616  12.435
13276W        W72779  37.485  39.318  11.603
13277W        W72780  44.935  12.652  10.501
13278W        W72781  38.433  25.109  13.433
13279W        W72782  18.672  12.237   3.767
13280W        W72783  11.792  40.390   3.235
13281W        W72784  11.766  35.359   0.869
13282W        W72785  13.128   4.758   1.438
13283W        W72786  26.028   8.695  12.907
13284W        W72787  32.598  41.849   4.177
13285W        W72788   0.893  21.056  11.544
13286W        W72789   2.458   3.401  10.107
13287W        W72790   7.380   7.387   2.321
13288W        W72791  39.488  14.734  12.986
13289W        W72792   4.341  44.315  11.919
13290W        W72793  34.575  10.800   4.681
13291W        W72794  31.938  25.618  14.503
13292W        W72795   0.761  37.572   3.673
13293W        W72796   2.422  24.984  11.480
13294W        W72797  27.113  24.600   3.863
13295W        W72798  10.756  12.679  14.353
13296W        W72799  27.997  16.621   2.252
13297W        W72800  44.357  34.900  13.924
13298W        W72801  10.700  38.880   0.469
13299W        W72802  27.481   0.254  11.537
13300W        W72803  14.637  30.599  10.488
13301W        W72804   5.711  29.171   4.249
13302W        W72805  12.226  42.003   3.152
13303W        W72806   8.278  22.025  12.579
13304W        W72807  11.272  29.666  11.927
13305W        W72808   2.255  25.973   0.398
13306W        W72809  20.545  22.073   3.171
13307W        W72810   0.912  13.164  11.481
13308W        W72811  11.204  10.303  12.011
13309W        W72812  35.544  16.089  13.790
13310W        W72813   5.879  25.014   2.690
13311W        W72814  26.697  13.614  12.572
13312W        W72815  20.754  44.821   3.156
13313W        W72816  36.460  14.216  11.522
13314W        W72817  42.997   3.379   4.805
13315W        W72818  40.908   3.925   1.269
13316W        W72819   4.385  41.918  13.806
13317W        W72820  19.616  21.686  12.892
13318W        W72821  42.805   9.264  10.537
13319W        W72822  35.060  19.695  11.883
13320W        W72823  36.861  26.687   1.917
13321W        W72824  39.899   1.323  10.623
13322W        W72825  16.229  16.103   2.671
13323W        W72826  12.258  44.384   2.414
13324W        W72827  18.263  11.288   0.901
13325W        W72828  24.085  43.875   0.388
13326W        W72829  33.506  28.128   3.160
13327W        W72830   0.964   4.248  10.424
13328W        W72831  29.941   1.325   0.414
13329W        W72832  31.487  31.143  11.121
13330W        W72833  32.542  16.730   9.992
13331W        W72834  38.505  41.037  13.420
13332W        W72835   8.858  12.802   0.947
13333W        W72836  39.366  36.581  13.810
13334W        W72837  39.550  10.277  13.870
13335W        W72838  38.962  40.404   1.210
13336W        W72839   8.687   6.331  10.437
13337W        W72840  40.348   0.843   3.743
13338W        W72841  27.491  12.277   2.193
13339W        W72842  34.881  39.819   0.338
13340W        W72843  43.473   5.417  13.891
13341W        W72844   6.823  22.045   3.309
13342W        W72845  19.256   0.806  13.869
13343W        W72846  32.490   4.340  11.549
13344W        W72847   6.397  13.320  12.883
13345W        W72848   1.278  33.531  12.942
13346W        W72849  21.246   6.759   0.948
13347W        W72850  28.448  11.720   2.347
13348W        W72851  16.124  43.791  14.514
13349W        W72852  31.510   1.326  12.844
13350W        W72853  25.992  32.542  12.366
13351W        W72854   4.349  27.080   1.337
13352W        W72855  32.913  19.580  11.032
13353W        W72856  12.331  19.179  12.958
13354W        W72857   5.391  27.575   4.660
13355W        W72858  31.964  35.451   0.753
13356W        W72859   9.760  11.249   2.237
13357W        W72860  19.174  29.026   3.374
13358W        W72861  26.526  37.842  12.446
13359W        W72862  27.466  27.083  10.423
13360W        W72863  29.502   4.313  14.468
13361W        W72864  12.828  10.169  12.842
13362W        W72865  15.291   1.881   0.957
13363W        W72866  42.798  30.998   5.251
13364W        W72867  25.590   6.818   3.285
13365W        W72868   4.928  38.016  13.318
13366W        W72869  34.434   5.910  12.825
13367W        W72870  21.169  38.393  12.498
13368W        W72871  36.872  25.030   1.236
13369W        W72872  31.478  25.032  13.318
13370W        W72873  25.542   6.795   0.260
13371W        W72874  39.928  29.609  11.121
13372W        W72875   7.245  21.224   2.216
13373W        W72876  10.140   5.351   2.336
13374W        W72877  33.498   4.280   1.808
13375W        W72878  40.513  40.047   3.304
13376W        W72879  40.044   8.885   4.785
13377W        W72880  32.105  16.140  12.836
13378W        W72881  10.634  26.156  14.940
13379W        W72882  38.432   4.847   0.377
13380W        W72883  37.847  30.974   0.902
13381W        W72884  13.334  35.458   5.254
13382W        W72885  16.762  19.253  12.872
13383W        W72886  32.615  22.502   3.299
13384W        W72887  37.991   2.418   3.255
13385W        W72888  26.466  42.818  13.980
13386W        W72889  13.309  34.904  11.384
13387W        W72890  15.324  44.335  11.092
13388W        W72891  42.394  20.625  12.953
13389W        W72892  31.142  36.079   3.796
13390W        W72893  31.621   1.792  12.002
13391W        W72894   7.337  36.373   3.276
13392W        W72895  42.353  35.932  14.904
13393W        W72896  35.940  24.055  12.343
13394W        W72897  41.424  21.727   4.283
13395W        W72898   5.847  28.088   2.274
13396W        W72899   5.367  40.002  13.880
13397W        W72900  18.722   5.328  12.062
13398W        W72901  13.273  10.335  10.078
13399W        W72902  41.011  39.865  13.487
13400W        W72903   0.986  38.381  10.516
13401W        W72904  24.175  28.492   0.949
13402W        W72905  35.888  13.272  12.928
13403W        W72906  19.713  11.147  10.622
13404W        W72907  27.052  11.632   0.791
13405W        W72908   7.306  44.408   3.693
13406W        W72909  18.608  31.522  11.519
13407W        W72910  20.718   9.347   1.759
13408W        W72911   9.868  43.916  12.827
13409W        W72912  23.222   4.820  12.384
13410W        W72913  10.302  16.202  13.405
13411W        W72914  34.871  38.883   1.338
13412W        W72915   0.432  15.255   3.265
13413W        W72916  24.049  22.150   2.868
13414W        W72917  11.368  34.025   0.884
13415W        W72918  43.384  28.511   9.545
13416W        W72919  43.952  21.078  12.082
13417W        W72920  38.455  19.092   0.796
13418W        W72921  39.511  44.949  13.319
13419W        W72922  14.699  23.105   4.173
13420W        W72923  31.049  22.578   0.356
13421W        W72924  33.600  23.546   1.421
13422W        W72925  15.144  16.656   0.788
13423W        W72926  44.959  28.627   1.228
13424W        W72927  21.241   7.299  14.904
13425W        W72928  30.560  26.103  14.415
13426W        W72929   5.226  36.921   1.249
13427W        W72930  17.062   1.476   2.248
13428W        W72931  44.432  19.237   3.217
13429W        W72932  38.444   1.380  10.427
13430W        W72933  33.511  37.976   2.367
13431W        W72934  37.010  36.055  14.764
13432W        W72935   0.292  13.325   1.806
13433W        W72936  40.825   7.833   3.231
13434W        W72937  23.551   0.887  14.504
13435W        W72938  27.501  24.190   2.389
13436W        W72939  21.570  22.092  11.479
13437W        W72940   9.385  25.994  13.800
13438W        W72941  14.635  19.602   4.352
13439W        W72942  34.455  40.365  11.117
13440W        W72943  24.687  20.764  11.472
13441W        W72944   7.181  19.146   4.777
13442W        W72945   6.823  34.092   0.321
13443W        W72946  33.382  31.119   1.322
13444W        W72947  13.144   5.418   4.791
13445W        W72948   8.375  27.502  14.826
13446W        W72949  28.170  17.131  14.294
13447W        W72950  25.471  10.751  13.547
13448W        W72951  38.827  37.417  14.430
13449W        W72952  36.057   6.344  14.302
13450W        W72953  18.784   4.803   1.723
13451W        W72954  25.655   3.425   1.382
13452W        W72955  20.057  14.180   3.712
13453W        W72956  21.019  36.514  11.033
13454W        W72957  20.146   7.346   4.671
13455W        W72958   6.271  23.592   2.193
13456W        W72959  27.082  31.429   4.118
13457W        W72960  18.750  20.543   4.705
13458W        W72961  16.310   4.841   1.289
13459W        W72962  14.635  18.782   0.306
13460W        W72963  16.259  11.365   2.238
13461W        W72964  31.953  18.181   3.384
13462W        W72965  39.339  44.276   3.159
13463W        W72966  39.558  40.969  10.518
13464W        W72967  23.490  22.556  12.954
13465W        W72968   1.898   5.905  14.882
13466W        W72969   2.910  38.867  10.958
13467W        W72970  42.312  34.550  12.543
13468W        W72971  32.475  38.000   5.668
13469W        W72972  35.604  14.123   0.447
13470W        W72973  43.821  23.038   1.787
13471W        W72974  28.582  22.072   4.176
13472W        W72975   1.419  31.965   1.789
13473W        W72976  29.961  17.655   1.332
13474W        W72977   5.725  20.081  12.918
13475W        W72978  42.999   5.737   0.405
13476W        W72979   1.470   3.295  12.890
13477W        W72980  19.216  18.240   2.186
13478W        W72981  31.966  16.173   2.746
13479W        W72982  18.217  43.464   2.294
13480W        W72983   3.856   3.366   1.404
13481W        W72984  31.531   5.412  10.545
13482W        W72985   0.918  19.202   2.734
13483W        W72986  27.656   6.776  13.377
13484W        W72987  31.075  30.501   3.195
13485W        W72988   8.288  36.889   0.365
13486W        W72989  24.991  16.279   2.394
13487W        W72990   7.715   1.924  11.862
13488W        W72991  11.327  34.564   3.789
13489W        W72992  25.497  36.958   4.771
13490W        W72993   3.379   9.644   4.314
13491W        W72994  32.069  23.533   3.715
13492W        W72995  31.491  23.678   0.731
13493W        W72996   3.420   4.450  14.874
13494W        W72997  34.923  25.148   4.176
13495W        W72998  37.896  38.045   0.243
13496W        W72999   3.794  31.605   3.745
13497W        W73000  28.010  35.068  13.892
13498W        W73001  43.799  10.352  12.381
13499W        W73002   9.717   8.775  14.022
13500W        W73003  14.829  37.492   0.823
13501W        W73004  12.259  38.441   2.377
13502W        W73005  17.630   0.897   1.375
13503W        W73006  32.610  43.501  13.064
13504W        W73007  27.584  22.681  11.889
13505W        W73008  33.889  10.741  11.120
13506W        W73009  26.618  33.049   1.241
13507W        W73010  31.955  32.576  14.959
13508W        W73011  21.754  11.141  13.512
13509W        W73012   1.444   6.822   0.258
13510W        W73013   8.896  30.592  12.471
13511W        W73014  31.086  44.505  13.470
13512W        W73015   7.879  28.499  11.542
13513W        W73016  13.259   7.207  11.457
13514W        W73017  33.087  25.198   0.848
13515W        W73018  24.973  21.752  14.820
13516W        W73019  11.834  34.418   3.198
13517W        W73020  25.482  21.040  11.373
13518W        W73021   1.346   7.759  14.926
13519W        W73022  28.557  26.109   1.357
13520W        W73023  42.304   3.381  12.457
13521W        W73024  35.531  20.096   2.301
13522W        W73025  19.238  25.545  11.483
13523W        W73026   9.799  20.576  14.914
13524W        W73027   5.790  32.576  14.020
13525W        W73028  38.444  43.812  11.510
13526W        W73029  39.958  31.529  10.455
13527W        W73030   3.877  19.582  13.982
13528W        W73031  17.307  33.529   3.684
13529W        W73032  17.765  16.229   2.255
13530W        W73033  29.522  23.629   3.843
13531W        W73034  31.458  10.167   2.781
13532W        W73035  44.274  38.387   0.746
13533W        W73036  29.601   5.918  14.782
13534W        W73037  43.815  16.137   2.778
13535W        W73038  22.665  37.041  11.966
13536W        W73039   1.370  26.651  11.609
13537W        W73040  27.959  40.837  11.554
13538W        W73041   9.352  12.713   0.322
13539W        W73042   3.411   6.895  14.299
13540W        W73043   8.715  15.645  13.542
13541W        W73044  18.233  40.369  12.979
13542W        W73045  24.187  20.758  12.504
13543W        W73046  18.598   6.336  12.476
13544W        W73047  14.239   6.681   0.796
13545W        W73048   6.801  42.814  11.093
13546W        W73049  34.055  31.981  10.510
13547W        W73050   4.838   4.316   0.906
13548W        W73051   2.963  27.051   1.824
13549W        W73052  40.454  44.847  13.417
13550W        W73053   6.768  36.530  14.944
13551W        W73054   8.867  28.140   0.909
13552W        W73055  35.401   7.259   3.223
13553W        W73056   6.678   6.859   4.826
13554W        W73057  30.476  29.075  10.456
13555W        W73058   5.438  26.196  12.576
13556W        W73059  36.995  17.719   2.368
13557W        W73060  25.179  27.964   2.861
13558W        W73061  12.752  23.507   2.831
13559W        W73062  17.754  24.557  12.907
13560W        W73063   1.845  22.165   0.466
13561W        W73064  20.260  10.362   3.167
13562W        W73065  15.677  14.333   1.770
13563W        W73066  14.704   1.895   4.185
13564W        W73067  33.389  30.558  11.572
13565W        W73068  15.614  44.432   1.934
13566W        W73069   7.721  28.110  12.387
13567W        W73070   1.895  11.197  10.606
13568W        W73071   2.897  14.243   2.189
13569W        W73072  11.729  33.614  12.862
13570W        W73073   5.923  13.624  14.921
13571W        W73074   3.731  31.968  10.465
13572W        W73075  17.734   8.211   4.159
13573W        W73076  20.047  36.003   2.254
13574W        W73077  26.125  43.420  12.431
13575W        W73078  24.619  20.644  12.555
13576W        W73079  14.260   5.921   3.220
13577W        W73080  44.491  17.581  11.554
13578W        W73081  35.384  14.669  11.975
13579W        W73082  42.411   1.464  12.455
13580W        W73083  32.617  16.732   1.736
13581W        W73084  28.502   2.316  11.992
13582W        W73085  19.275  30.080   3.227
13583W        W73086   8.195  40.967  13.903
13584W        W73087  30.978  41.963  14.022
13585W        W73088  18.787  39.910  11.052
13586W        W73089   6.771  43.823  12.557
13587W        W73090  41.519  24.118  14.909
13588W        W73091   3.864  28.661  14.776
13589W        W73092  38.511  30.446  12.867
13590W        W73093  39.440   6.742   4.786
13591W        W73094  44.963  16.115   0.812
13592W        W73095  20.274  13.107  11.018
13593W        W73096  29.445  34.609  12.040
13594W        W73097  42.914  21.547  11.476
13595W        W73098  37.413  23.214  14.390
13596W        W73099  35.957   4.250  11.588
13597W        W73100  33.528  18.069  12.556
13598W        W73101  17.238   8.234  13.475
13599W        W73102  16.764  18.639   2.874
13600W        W73103  18.612   6.258   2.791
13601W        W73104  33.562  38.002  14.860
13602W        W73105   3.330  20.688   1.897
13603W        W73106   1.283  35.077  14.488
13604W        W73107   9.171  43.931  11.426
13605W        W73108  37.547  29.473   2.322
13606W        W73109  31.616  41.806  10.974
13607W        W73110  41.843  13.740   4.250
13608W        W73111  40.867  13.695  12.992
13609W        W73112  38.560   4.757   2.869
13610W        W73113   2.745  14.200  10.540
13611W        W73114   8.842   0.377  11.471
13612W        W73115   1.457   5.205   3.727
13613W        W73116  15.197   1.834   2.309
13614W        W73117   4.406  32.559   0.839
13615W        W73118  37.048  43.304   0.329
13616W        W73119  42.793  22.664   2.358
13617W        W73120   8.870  18.237  13.035
13618W        W73121  42.789   6.399   4.823
13619W        W73122   9.316  36.489  12.898
13620W        W73123  35.418  14.785   4.699
13621W        W73124  37.445   6.870  10.901
13622W        W73125  36.379  20.192   1.839
13623W        W73126   8.679  26.110  13.427
13624W        W73127  19.054  42.526  14.970
13625W        W73128  38.342  35.400  14.316
13626W        W73129  16.693  32.074   2.883
13627W        W73130  34.519  35.034  12.872
13628W        W73131  33.448  18.609  12.060
13629W        W73132   7.685   9.865  13.799
13630W        W73133  38.935  37.455   3.330
13631W        W73134  36.898   9.669  11.950
13632W        W73135  12.145  36.917  11.990
13633W        W73136  16.112  37.934   4.271
13634W        W73137  36.569  19.237   0.882
13635W        W73138  25.050  20.648  13.912
13636W        W73139  35.493  38.446  13.903
13637W        W73140  24.682   6.811   3.759
13638W        W73141  26.126   1.792   1.359
13639W        W73142  40.436   2.904   1.441
13640W        W73143  18.282   2.960  13.886
13641W        W73144  31.123  12.348   2.392
13642W        W73145   5.374  11.280  11.571
13643W        W73146  38.898  24.226   9.950
13644W        W73147  26.699  21.031   0.906
13645W        W73148  29.085  15.096  12.871
13646W        W73149  23.207  29.033  10.440
13647W        W73150  40.898  18.272  12.559
13648W        W73151  30.632  20.094  13.942
13649W        W73152   1.361  17.753  14.301
13650W        W73153  26.696   2.731  12.447
13651W        W73154   2.252  35.460  12.924
13652W        W73155  15.684   2.901  10.995
13653W        W73156   8.888  22.563  14.014
13654W        W73157   2.368   3.782  14.773
13655W        W73158  33.088  29.433   3.330
13656W        W73159  17.693  26.099  14.510
13657W        W73160  25.546  25.978   1.395
13658W        W73161   5.851  24.488  10.992
13659W        W73162  32.614  36.369  14.959
13660W        W73163  12.777  35.455   5.224
13661W        W73164  33.092   0.854   3.246
13662W        W73165  36.571  24.577   1.291
13663W        W73166  21.146  26.023   0.484
13664W        W73167   5.931   6.207   4.313
13665W        W73168   3.383   2.927  11.500
13666W        W73169  21.076   2.353   2.699
13667W        W73170  10.679  34.438   3.327
13668W        W73171  33.880  29.024   3.659
13669W        W73172  21.154  30.934  10.423
13670W        W73173   2.252  10.337  10.491
13671W        W73174  36.002  19.277  12.052
13672W        W73175   6.711  38.511   1.262
13673W        W73176   3.384  22.123  14.305
13674W        W73177  30.457  10.848  12.957
13675W        W73178  33.012  28.603   4.617
13676W        W73179  21.218  42.424   5.318
13677W        W73180  38.008  24.567  13.025
13678W        W73181  42.440   1.390   3.726
13679W        W73182  44.866  31.473   1.300
13680W        W73183  10.266  40.804   0.380
13681W        W73184   3.301  32.978  10.964
13682W        W73185  18.665   9.363  14.908
13683W        W73186  24.577  30.540   3.752
13684W        W73187   8.836  25.686   4.604
13685W        W73188  33.437  40.471  10.509
13686W        W73189  41.956   4.401  12.984
13687W        W73190  19.235  26.204  12.988
13688W        W73191  11.337  16.225   9.464
13689W        W73192  20.597   3.341   5.111
13690W        W73193  42.514  22.646   1.923
13691W        W73194  13.648  33.010   2.385
13692W        W73195   8.751  32.414   4.220
13693W        W73196  17.569  37.418  13.430
13694W        W73197  35.026   3.903  14.891
13695W        W73198   5.880  40.406  14.382
13696W        W73199  15.791  34.556  10.579
13697W        W73200  28.651  43.816   0.855
13698W        W73201  12.219  27.678  12.456
13699W        W73202  26.181  15.326  10.642
13700W        W73203  27.092  21.180  14.313
13701W        W73204  22.733  24.543  11.524
13702W        W73205  20.750   1.348   1.277
13703W        W73206  39.467  26.586   1.920
13704W        W73207  33.078  26.535   0.324
13705W        W73208   8.865  34.524   5.130
13706W        W73209   4.936  32.962   2.395
13707W        W73210  15.269  41.835  13.797
13708W        W73211  14.135  32.482  14.478
13709W        W73212  12.770  30.975   1.386
13710W        W73213  29.624  12.778  12.388
13711W        W73214  20.538  21.101  10.463
13712W        W73215   2.440   0.359  11.930
13713W        W73216  13.175  25.621  12.904
13714W        W73217  31.134  40.925   0.729
13715W        W73218   3.922   9.224  11.391
13716W        W73219   5.899  10.867  10.589
13717W        W73220  14.231   6.323   0.874
13718W        W73221   9.836  32.094   3.783
13719W        W73222   4.290  10.230   9.941
13720W        W73223  34.562  19.766  13.060
13721W        W73224  43.809  12.650  14.333
13722W        W73225  23.558  13.752  10.418
13723W        W73226  34.878  35.553   2.343
13724W        W73227  39.873   2.785   3.233
13725W        W73228  35.959   8.699   1.244
13726W        W73229   0.363   2.269  14.405
13727W        W73230  23.572  28.034  12.471
13728W        W73231  27.966  13.160  12.908
13729W        W73232   3.443  21.118   1.230
13730W        W73233   8.368  43.983  10.583
13731W        W73234  37.531  16.692  13.493
13732W        W73235  22.702  21.226  11.977
13733W        W73236  33.395   9.852   0.878
13734W        W73237  37.040   1.899   2.361
13735W        W73238  34.020  43.814   3.851
13736W        W73239  25.698  30.122  12.823
13737W        W73240   9.668   1.436   2.901
13738W        W73241  17.249  11.203  10.921
13739W        W73242  31.512  19.588  14.899
13740W        W73243  17.223  11.818  13.878
13741W        W73244  23.679  15.762   0.770
13742W        W73245  20.690  10.828  14.409
13743W        W73246   0.389   9.673   4.263
13744W        W73247  41.413  22.637  12.094
13745W        W73248   8.355  34.393  13.995
13746W        W73249  37.403  33.503  10.533
13747W        W73250   5.216  38.538   0.468
13748W        W73251  28.158   0.877  11.028
13749W        W73252  13.108  17.299   1.898
13750W        W73253  15.641  15.616   5.290
13751W        W73254  20.031  19.053  14.809
13752W        W73255  20.116  19.587  12.573
13753W        W73256   2.938   3.422   3.660
13754W        W73257  24.539  27.142  12.463
13755W        W73258  14.189  31.456  12.558
13756W        W73259  27.459  24.486   4.315
13757W        W73260  21.607  29.112  14.440
13758W        W73261  29.938  16.217  13.977
13759W        W73262  34.945  11.762  13.407
13760W        W73263  25.058  33.505   3.738
13761W        W73264  41.412  35.416  10.979
13762W        W73265  34.977   1.463  12.377
13763W        W73266  21.256  15.795  10.459
13764W        W73267  40.352  43.393  12.581
13765W        W73268  18.707   8.191   0.363
13766W        W73269   6.910  20.259   2.386
13767W        W73270  40.946  33.447  11.460
13768W        W73271  19.210  25.045   0.315
13769W        W73272  13.177  37.980   4.774
13770W        W73273  35.060  44.278   1.916
13771W        W73274  27.685  44.354  11.947
13772W        W73275   2.806  39.366  14.337
13773W        W73276  35.382  34.922   0.884
13774W        W73277  31.998  17.275   5.316
13775W        W73278  13.170  20.223   4.747
13776W        W73279  28.186   6.391  13.918
13777W        W73280  25.008   8.778   0.425
13778W        W73281  18.285  34.947  14.919
13779W        W73282  30.988  17.575   4.198
13780W        W73283  12.620  22.547   0.348
13781W        W73284   1.880  22.522   4.662
13782W        W73285   7.678  41.300   3.863
13783W        W73286  35.560  28.568  12.843
13784W        W73287  20.685  28.538  14.426
13785W        W73288  42.000  28.130  13.444
13786W        W73289  11.129   6.349   1.216
13787W        W73290   0.831  21.695  11.524
13788W        W73291  14.632  30.154  10.518
13789W        W73292  34.007   3.342   3.761
13790W        W73293  34.491   1.891   3.217
13791W        W73294  12.235  41.489  12.523
13792W        W73295   5.929  36.570  14.859
13793W        W73296  37.500  32.939  10.150
13794W        W73297  13.291  15.182  11.496
13795W        W73298  20.172  24.117   4.613
13796W        W73299  40.383  15.141   4.340
13797W        W73300  40.029   4.830  13.025
13798W        W73301  38.863  20.671   3.345
13799W        W73302  27.111  35.940  12.442
13800W        W73303   7.863  24.589  14.991
13801W        W73304   4.276  24.480   2.770
13802W        W73305  17.064  42.302   0.728
13803W        W73306  19.275  23.040   0.264
13804W        W73307   4.773  15.249   3.638
13805W        W73308  41.968  15.670  13.964
13806W        W73309  35.439  20.666   2.893
13807W        W73310  17.198  32.020   1.431
13808W        W73311  31.913  37.376   0.814
13809W        W73312   5.700  31.116  14.828
13810W        W73313   6.690  22.621  11.507
13811W        W73314  30.982  25.548  13.378
13812W        W73315  12.614  40.537   0.963
13813W        W73316  10.356  37.941   1.288
13814W        W73317  23.092   3.454  14.415
13815W        W73318  17.640  14.172  11.397
13816W        W73319  39.985  34.018  11.535
13817W        W73320  21.602  43.331   2.357
13818W        W73321  20.119  10.787  12.857
13819W        W73322  12.143  38.567  10.973
13820W        W73323  34.505   4.831   4.680
13821W        W73324  39.351  22.057  14.821
13822W        W73325  32.621  32.066  12.842
13823W        W73326  38.459  17.202  13.411
13824W        W73327  44.786  41.511  11.529
13825W        W73328  11.302  44.392   1.233
13826W        W73329  15.666  10.268  13.404
13827W        W73330  44.853  41.905   0.272
13828W        W73331  43.438  34.084   1.728
13829W        W73332   4.320   5.351   2.199
13830W        W73333  35.473   9.179  10.450
13831W        W73334   8.683   9.381  12.095
13832W        W73335  27.054  38.519  11.877
13833W        W73336   7.348  40.914   0.367
13834W        W73337  26.684  22.244   3.835
13835W        W73338   0.303  14.140  12.075
13836W        W73339  27.165  26.564   3.267
13837W        W73340   1.473  36.356   2.874
13838W        W73341  39.956   0.742  13.912
13839W        W73342   7.897  13.223  13.028
13840W        W73343  39.833  41.834  12.399
13841W        W73344   2.357   9.312   1.270
13842W        W73345   7.335  16.311  10.074
13843W        W73346  39.938  27.532  13.802
13844W        W73347  17.191  28.153  11.523
13845W        W73348  11.725   0.962  11.044
13846W        W73349  21.254  28.619  13.519
13847W        W73350  14.158   1.908   4.645
13848W        W73351  24.125  14.819   1.396
13849W        W73352  40.825  38.993   2.349
13850W        W73353  38.018  25.642  13.410
13851W        W73354  22.613  24.597   4.222
13852W        W73355  37.951  33.056   3.248
13853W        W73356  17.136  41.962   4.826
13854W        W73357   8.189  19.555   0.473
13855W        W73358  35.108  19.131  12.995
13856W        W73359  18.598  23.196  10.438
13857W        W73360  20.626  32.451  12.476
13858W        W73361  36.347  35.539   3.194
13859W        W73362  17.120  37.845  10.522
13860W        W73363   8.899   2.726   4.329
13861W        W73364  29.629  41.528  14.003
13862W        W73365   5.231  41.954   1.347
13863W        W73366  44.447  21.215   4.170
13864W        W73367  24.990  42.003  10.553
13865W        W73368  33.428  13.112   3.655
13866W        W73369  15.714   2.323   4.172
13867W        W73370  38.459  28.621  11.917
13868W        W73371  27.192  19.097   2.883
13869W        W73372  23.592  26.691  12.420
13870W        W73373  44.921  22.557   3.675
13871W        W73374  22.631  42.902  10.122
13872W        W73375   5.420  26.162   9.637
13873W        W73376  31.600  15.643  13.870
13874W        W73377  10.687  38.950  11.407
13875W        W73378   5.830  25.494   1.248
13876W        W73379  17.758  38.342  12.447
13877W        W73380  27.501  30.455  13.949
13878W        W73381  36.082   1.453  10.490
13879W        W73382  28.185  12.646   4.821
13880W        W73383  26.166  34.509   4.722
13881W        W73384  35.046   2.795  11.498
13882W        W73385  40.530   2.864  12.010
13883W        W73386  17.160  18.569  13.450
13884W        W73387  37.501  14.291   4.604
13885W        W73388   8.675  40.376  14.816
13886W        W73389  31.641  41.377  10.639
13887W        W73390  36.485  28.133   2.195
13888W        W73391  11.327   9.371  12.531
13889W        W73392   3.843   9.762   1.375
13890W        W73393  40.441   6.281   1.227
13891W        W73394  16.244  28.466  10.607
13892W        W73395  27.622  27.162   9.467
13893W        W73396  28.672  22.016   3.288
13894W        W73397   8.876  30.160   2.773
13895W        W73398   0.761  40.960  14.824
13896W        W73399   4.404  32.488  11.458
13897W        W73400  13.111   9.733   0.753
13898W        W73401  40.311   4.755  14.443
13899W        W73402   6.317  15.133  11.991
13900W        W73403  38.362  26.054  12.376
13901W        W73404  23.170  35.552   0.405
13902W        W73405  41.882  26.061  12.355
13903W        W73406  16.573  16.690   3.298
13904W        W73407   4.259  27.616  14.899
13905W        W73408  37.470  43.409   0.743
13906W        W73409  17.147  29.107  14.310
13907W        W73410  26.532  39.926   1.325
13908W        W73411  18.144  39.886  12.026
13909W        W73412   2.838  33.102  13.972
13910W        W73413  41.900  25.023  13.504
13911W        W73414   5.293  17.735   0.432
13912W        W73415   4.377  34.895  12.501
13913W        W73416  34.570   6.407  11.881
13914W        W73417  27.554  17.705   3.851
13915W        W73418   3.391  24.678   0.371
13916W        W73419  15.266  20.164  10.908
13917W        W73420   6.741  33.618   4.743
13918W        W73421  31.535   7.882  14.377
13919W        W73422  27.534  35.894   4.343
13920W        W73423   8.204  22.691   0.773
13921W        W73424  42.836  43.774  14.422
13922W        W73425   3.221  36.945   1.339
13923W        W73426  38.482  22.059   1.370
13924W        W73427  17.730  30.929   1.848
13925W        W73428  37.931   0.828   4.651
13926W        W73429  30.508  31.407   4.235
13927W        W73430  34.982  39.474  13.328
13928W        W73431  11.675  13.808  14.957
13929W        W73432  14.808   3.317  11.013
13930W        W73433   0.256  44.756  11.595
13931W        W73434   3.392  24.582   2.745
13932W        W73435  15.146   9.245  10.930
13933W        W73436  19.075   3.917  11.055
13934W        W73437  25.999  41.927   1.401
13935W        W73438  39.983  16.180   4.355
13936W        W73439  40.971  14.671   1.737
13937W        W73440  37.434   8.804  12.936
13938W        W73441  11.318  35.405  11.447
13939W        W73442  15.202   4.746  14.426
13940W        W73443  30.927   1.416   1.805
13941W        W73444  25.120  10.298  14.976
13942W        W73445  37.046  27.554  13.814
13943W        W73446  35.436  26.206   0.376
13944W        W73447  18.126  30.513  14.008
13945W        W73448  44.783  11.788   2.184
13946W        W73449  39.054  30.622   4.604
13947W        W73450  39.386  13.844  10.998
13948W        W73451  15.240  39.035  12.078
13949W        W73452  31.082  45.000  11.932
13950W        W73453  16.280  18.658   0.742
13951W        W73454   6.236  25.664   2.419
13952W        W73455  19.107  31.494  10.908
13953W        W73456   3.896  17.148   3.333
13954W        W73457  21.189  25.036   4.652
13955W        W73458  44.478  44.756   1.382
13956W        W73459  25.706  32.893   3.349
13957W        W73460  31.517   5.688  14.032
13958W        W73461  11.695  42.413   3.253
13959W        W73462  27.486   0.785  12.840
13960W        W73463  25.681  44.276  14.387
13961W        W73464  41.798   1.760  13.540
13962W        W73465  44.272   8.661   1.445
13963W        W73466  30.935  35.993  10.610
13964W        W73467  34.118  24.178  11.427
13965W        W73468  25.965   5.287   3.772
13966W        W73469   7.801  31.577   3.836
13967W        W73470   3.732   6.905   0.790
13968W        W73471  33.953  40.511   5.185
13969W        W73472   9.226  40.868   1.826
13970W        W73473   9.203  32.062  12.451
13971W        W73474  26.667  30.145   4.337
13972W        W73475   6.861   1.338   2.685
13973W        W73476  27.549  33.052   0.466
13974W        W73477  26.606  22.726  13.913
13975W        W73478  23.176  36.377   3.311
13976W        W73479   4.332  20.613  13.010
13977W        W73480  11.698  10.638   0.809
13978W        W73481  22.528   9.255   4.830
13979W        W73482  42.009  14.093   2.755
13980W        W73483  37.890  33.559  11.004
13981W        W73484  14.283   8.275   0.292
13982W        W73485  32.935  39.429  13.846
13983W        W73486  20.054  38.847   1.247
13984W        W73487  17.678  21.225  13.995
13985W        W73488   7.872  22.631  12.087
13986W        W73489  36.511  22.538  13.457
13987W        W73490  21.516  30.657  14.487
13988W        W73491  24.638   3.742  13.908
13989W        W73492  25.999  26.973   1.719
13990W        W73493  41.407  20.694  12.460
13991W        W73494  38.373  14.290   1.310
13992W        W73495   8.705   4.264  12.409
13993W        W73496  18.264  36.055  11.510
13994W        W73497   3.439  37.380   0.960
13995W        W73498  25.521  28.492  11.048
13996W        W73499   6.914   3.802  13.440
13997W        W73500  12.295   0.975  10.483
13998W        W73501  23.575  20.762  10.980
13999W        W73502  35.003  10.646  11.104
14000W        W73503   9.226  30.928   0.826
14001W        W73504  23.632  12.235  11.115
14002W        W73505  28.484  24.181  10.926
14003W        W73506  18.121  21.743  11.506
14004W        W73507  41.951  10.170   2.812
14005W        W73508  36.037   7.755   3.371
14006W        W73509  29.920  29.098  14.344
14007W        W73510   3.796   6.764   2.362
14008W        W73511  21.207  13.114  12.090
14009W        W73512   1.755   6.697  11.381
14010W        W73513  23.561   5.201  13.807
14011W        W73514   7.871  12.705  14.920
14012W        W73515   0.474  38.409  11.472
14013W        W73516   5.345  34.451  12.023
14014W        W73517  43.933  28.661   3.356
14015W        W73518  17.220  10.811   1.725
14016W        W73519  37.546   4.728   3.368
14017W        W73520  19.574  39.022  14.893
14018W        W73521  31.406   8.697  12.355
14019W        W73522  26.549  36.500   5.225
14020W        W73523  10.751  29.499   0.796
14021W        W73524   2.748  31.035  12.529
14022W        W73525  29.536  17.702   0.435
14023W        W73526   5.326  34.439   2.416
14024W        W73527  36.572  27.532   3.713
14025W        W73528  41.392   0.785  12.432
14026W        W73529  38.879  12.212   2.392
14027W        W73530  42.479  10.376  10.538
14028W        W73531  10.840  42.365   4.822
14029W        W73532  14.250  25.684   2.737
14030W        W73533  22.068  16.236   1.375
14031W        W73534  27.095   7.385   3.372
14032W        W73535  11.665  20.110  10.591
14033W        W73536  23.990  38.431   0.381
14034W        W73537   4.718   5.340  10.944
14035W        W73538  19.556  36.073   3.758
14036W        W73539  20.039  32.458   1.725
14037W        W73540   7.775  17.230   1.238
14038W        W73541  11.730  24.056   3.317
14039W        W73542  35.948  29.079   0.915
14040W        W73543   7.175   3.439  14.985
14041W        W73544  24.679  36.442   0.811
14042W        W73545  32.595  12.251   4.806
14043W        W73546  14.683  25.148   3.734
14044W        W73547  39.009  32.397  14.332
14045W        W73548  39.544  25.980  11.049
14046W        W73549  27.151  30.122   3.167
14047W        W73550   0.452  24.725   5.138
14048W        W73551   8.247   4.217   4.819
14049W        W73552  14.749  25.208   5.240
14050W        W73553  13.161  39.928  14.285
14051W        W73554   9.192  12.732  14.303
14052W        W73555  11.274  22.679  13.887
14053W        W73556  21.049  22.596  10.512
14054W        W73557  40.980  10.193   1.701
14055W        W73558  44.799  25.018  11.997
14056W        W73559  14.284  21.237   4.253
14057W        W73560  35.886  42.516  12.039
14058W        W73561  36.411  14.141  11.054
14059W        W73562  37.490  16.607  14.300
14060W        W73563  29.086  16.711   3.187
14061W        W73564  19.561  11.229   3.213
14062W        W73565  20.541  19.188   1.290
14063W        W73566  13.292   8.381   4.763
14064W        W73567  26.631  36.972  13.419
14065W        W73568  38.028  17.698  11.971
14066W        W73569   2.464   0.771  11.558
14067W        W73570  12.774  37.909  10.441
14068W        W73571   5.357  11.194  12.966
14069W        W73572  28.481  17.198  13.327
14070W        W73573  35.910   0.764  12.824
14071W        W73574  21.213   0.293  11.022
14072W        W73575  33.115   9.713   0.840
14073W        W73576  25.149   7.801   3.342
14074W        W73577  22.040  43.859   4.291
14075W        W73578  21.111  30.090   0.755
14076W        W73579  42.465  23.582   3.685
14077W        W73580  24.528  23.043   1.396
14078W        W73581  18.095   5.801  12.465
14079W        W73582  16.578   1.343   0.883
14080W        W73583   3.885  12.639   2.889
14081W        W73584  18.778  43.446  14.847
14082W        W73585  36.483  34.496   4.245
14083W        W73586   8.716  15.329   1.362
14084W        W73587  28.975  19.757  11.075
14085W        W73588  16.683  18.608   1.332
14086W        W73589   0.962  41.962  10.928
14087W        W73590  36.440  42.490   1.708
14088W        W73591   7.337  33.937   3.171
14089W        W73592  24.018  16.632  14.793
14090W        W73593  19.101  24.070  10.984
14091W        W73594  39.353  29.025  11.515
14092W        W73595   0.371  22.134   0.840
14093W        W73596   0.838  43.377   1.731
14094W        W73597  29.016  12.641   0.831
14095W        W73598  23.490  20.085  13.953
14096W        W73599  20.169   6.210  11.106
14097W        W73600  22.654  27.943   5.274
14098W        W73601  11.790   4.860   1.277
14099W        W73602   0.935  38.330   1.930
14100W        W73603  10.644  18.671  13.052
14101W        W73604  32.136   5.850  11.422
14102W        W73605   5.250  14.260   2.802
14103W        W73606  28.169   5.781   2.206
14104W        W73607  35.045  36.062  13.369
14105W        W73608  12.322  39.026  14.961
14106W        W73609  38.892   4.377   4.669
14107W        W73610  18.181  39.902   2.184
14108W        W73611   8.166  32.958   4.162
14109W        W73612  38.901  29.132   0.265
14110W        W73613  16.610  38.903  13.960
14111W        W73614  21.532  17.280  12.464
14112W        W73615  30.917  14.179  12.973
14113W        W73616  38.907  36.535  10.620
14114W        W73617  44.426  40.364   5.127
14115W        W73618  16.244  29.424  10.619
14116W        W73619  22.708  13.346  14.023
14117W        W73620  33.569  33.529  14.927
14118W        W73621   1.334   8.369  14.466
14119W        W73622  15.681  24.582   4.802
14120W        W73623  16.195  11.305   1.776
14121W        W73624  17.150  37.499  12.983
14122W        W73625  26.011  23.076  12.090
14123W        W73626  17.679   0.268  13.817
14124W        W73627  37.387   2.857  10.975
14125W        W73628   3.229   4.360   3.813
14126W        W73629  37.519  38.048  12.433
14127W        W73630   6.311  31.021  12.560
14128W        W73631   4.699   3.947  13.818
14129W        W73632  19.635   6.307  13.432
14130W        W73633  10.800  39.346   2.820
14131W        W73634   6.324   9.838   0.256
14132W        W73635  35.521  14.749   3.180
14133W        W73636  20.166  28.458  14.782
14134W        W73637  24.105  28.932  13.924
14135W        W73638  27.119  16.769  10.958
14136W        W73639  30.482  12.612   0.361
14137W        W73640   9.308  33.050   4.340
14138W        W73641  17.773  44.975  10.556
14139W        W73642  22.083  12.702  11.975
14140W        W73643  36.903  36.555   4.217
14141W        W73644  21.143  22.553   1.439
14142W        W73645   1.416  13.748  12.401
14143W        W73646  24.218  15.677  13.526
14144W        W73647  16.195   3.885   1.924
14145W        W73648  13.801  27.134   0.942
14146W        W73649  28.962   5.739  14.789
14147W        W73650  33.502   8.700   5.103
14148W        W73651  40.035  36.848   2.767
14149W        W73652  20.590   0.893   2.255
14150W        W73653   6.904  35.901  10.493
14151W        W73654   1.236  30.595   4.746
14152W        W73655  15.161  13.307   4.268
14153W        W73656  31.912   7.767  14.977
14154W        W73657  42.956  13.831  12.498
14155W        W73658   6.184  13.843   1.897
14156W        W73659  33.499   1.483  10.094
14157W        W73660  24.054  32.022   3.316
14158W        W73661   2.247   5.385  14.387
14159W        W73662  36.550   4.740   3.791
14160W        W73663   9.852   7.687  12.090
14161W        W73664  40.040   4.722  13.971
14162W        W73665   4.891  16.701   9.471
14163W        W73666  37.054  15.619   2.234
14164W        W73667  40.472  36.414  11.383
14165W        W73668  10.842  33.964  13.014
14166W        W73669  12.812  25.703   1.258
14167W        W73670  11.170   9.653  10.483
14168W        W73671  11.673   6.282   1.256
14169W        W73672   8.364  39.499  10.423
14170W        W73673   6.905   5.401  10.640
14171W        W73674   5.269  22.568  14.304
14172W        W73675   1.837  39.452  11.071
14173W        W73676  43.898   7.330  14.984
14174W        W73677  43.794   7.801  13.487
14175W        W73678  30.050  25.713   2.301
14176W        W73679  36.911  36.086   3.715
14177W        W73680  23.588  33.091  12.852
14178W        W73681   8.691  16.781   5.755
14179W        W73682  36.874  18.087   3.701
14180W        W73683  14.768  31.998  11.989
14181W        W73684  39.465   3.854   4.784
14182W        W73685  16.264   1.253   1.932
14183W        W73686  29.049  20.198   0.864
14184W        W73687   5.225  42.318  10.969
14185W        W73688  38.933   0.281  12.895
14186W        W73689  21.144  28.674   1.817
14187W        W73690  30.017   5.315   4.823
14188W        W73691  21.725  36.485  10.555
14189W        W73692  15.677  16.141   4.702
14190W        W73693   5.894   9.825   4.240
14191W        W73694  11.696  38.328  10.988
14192W        W73695  21.199  14.172   2.307
14193W        W73696   5.406  16.655   3.181
14194W        W73697  32.421   3.257   1.872
14195W        W73698  16.164   8.239  12.942
14196W        W73699  14.638   3.821   0.451
14197W        W73700  37.414   9.742   3.269
14198W        W73701  24.608  40.971   1.405
14199W        W73702   6.784  20.751  14.356
14200W        W73703  15.308  22.692  14.933
14201W        W73704   7.744  27.683  12.540
14202W        W73705  13.339   8.692   5.242
14203W        W73706  23.046  38.842   3.633
14204W        W73707  19.068  43.502  11.994
14205W        W73708  44.790  37.369   1.271
14206W        W73709  21.540   3.735  13.425
14207W        W73710   2.925  29.157  12.037
14208W        W73711  44.268  18.184  13.491
14209W        W73712   0.282  34.593   3.830
14210W        W73713  28.942  29.575   3.647
14211W        W73714  32.617  24.645   2.347
14212W        W73715  34.551  15.643  14.455
14213W        W73716  10.823   7.237  14.864
14214W        W73717  34.978  41.346   0.307
14215W        W73718   4.323  17.694  14.374
14216W        W73719  34.921   8.713  11.075
14217W        W73720  10.707  12.813  14.006
14218W        W73721  36.395   8.277   1.916
14219W        W73722   5.230   1.806   1.246
14220W        W73723  10.210  29.943   4.607
14221W        W73724   2.780  10.765   0.853
14222W        W73725  11.851  41.397   4.225
14223W        W73726  38.931  20.154  14.006
14224W        W73727  18.118  37.438   2.744
14225W        W73728  22.217  17.168   4.166
14226W        W73729  16.577  10.252  11.559
14227W        W73730  21.026  28.971  10.977
14228W        W73731  43.819  24.499   2.367
14229W        W73732  23.234  18.726   0.953
14230W        W73733   4.799  10.246  12.469
14231W        W73734  26.693  20.722   3.809
14232W        W73735   4.349  44.985   4.775
14233W        W73736  14.106  30.624   1.392
14234W        W73737  37.041  31.569  12.514
14235W        W73738  30.072   8.757  14.405
14236W        W73739  39.487  11.695   4.654
14237W        W73740  37.841  41.936   3.801
14238W        W73741  25.688  11.749   0.275
14239W        W73742   0.458  37.484  13.014
14240W        W73743  32.887   1.769  12.844
14241W        W73744  37.461  21.686   3.854
14242W        W73745   8.662  44.957  11.026
14243W        W73746   1.861  42.502  11.511
14244W        W73747   2.422  26.689   3.375
14245W        W73748  25.141  32.474   3.665
14246W        W73749  22.118  13.822  13.852
14247W        W73750  34.052  41.323   4.259
14248W        W73751  15.136  17.080  13.827
14249W        W73752  24.724  21.017  10.450
14250W        W73753  38.969   4.315   2.897
14251W        W73754  27.486  35.920  10.143
14252W        W73755  41.864  12.788   2.853
14253W        W73756  42.505  39.830  14.374
14254W        W73757  16.202  41.791   4.668
14255W        W73758  35.462  34.376  14.792
14256W        W73759  28.529  26.654  11.887
14257W        W73760  34.432  43.874   2.261
14258W        W73761  22.594  16.787   4.672
14259W        W73762   9.875  35.580   4.348
14260W        W73763  29.020  41.522  12.847
14261W        W73764  39.913  26.601  14.793
14262W        W73765   5.765   5.330  13.817
14263W        W73766  15.302  44.267   1.251
14264W        W73767   5.379  34.012  13.491
14265W        W73768  41.900  27.179   4.130
14266W        W73769   7.298  24.980  11.583
14267W        W73770  14.310  39.437  14.782
14268W        W73771  11.300  29.470   4.324
14269W        W73772  21.726  26.978   3.232
14270W        W73773  17.156  19.085   0.839
14271W        W73774  41.491  31.605  10.601
14272W        W73775  30.555  40.455  11.449
14273W        W73776  17.202  43.923  14.489
14274W        W73777  42.403  40.431  13.872
14275W        W73778  34.422  21.558  13.400
14276W        W73779   1.320  37.041   1.340
14277W        W73780   3.421  25.001   3.220
14278W        W73781  29.074  17.606  10.586
14279W        W73782  28.632  35.002  13.861
14280W        W73783   2.868  27.148   2.693
14281W        W73784  38.940  30.033   2.399
14282W        W73785  38.382  12.683  12.077
14283W        W73786  20.702  19.230  13.003
14284W        W73787   9.700   6.343   1.285
14285W        W73788  27.669  38.495   2.888
14286W        W73789  22.721  12.758  14.006
14287W        W73790  12.756  11.848   2.851
14288W        W73791   7.911   2.885  11.381
14289W        W73792  25.708  41.466   0.910
14290W        W73793  35.050  40.420   3.378
14291W        W73794   9.734   3.400  14.430
14292W        W73795  37.859   9.383  11.983
14293W        W73796  36.593  34.594  13.373
14294W        W73797  33.075  36.964  14.948
14295W        W73798  44.354   7.724  11.411
14296W        W73799   5.893  42.016  10.912
14297W        W73800  31.035   7.249  13.904
14298W        W73801  16.771  27.650  10.977
14299W        W73802  38.859   2.867  13.019
14300W        W73803  11.265   8.778   4.823
14301W        W73804  19.749  16.678  13.000
14302W        W73805  12.277   8.667  14.800
14303W        W73806  31.114  25.692  13.961
14304W        W73807  38.019  44.967   2.393
14305W        W73808   6.390  20.080  10.953
14306W        W73809  32.105  41.298  12.394
14307W        W73810   0.924   1.331   1.387
14308W        W73811  37.335  44.831  14.903
14309W        W73812  21.050  13.311  12.578
14310W        W73813   9.673  38.076   1.764
14311W        W73814  36.984  44.814   1.752
14312W        W73815   1.911  15.773   2.288
14313W        W73816  26.190   2.755   4.328
14314W        W73817  23.989  11.704   1.924
14315W        W73818   9.884  40.051   2.858
14316W        W73819  19.533  15.086   4.680
14317W        W73820  31.897  36.352  13.912
14318W        W73821  37.970  22.651   0.418
14319W        W73822   9.746  38.343   4.214
14320W        W73823  31.089  23.494  12.525
14321W        W73824  31.427   3.289  10.625
14322W        W73825  20.713  31.017  12.969
14323W        W73826   2.321  21.674  13.901
14324W        W73827   9.217  10.683   1.904
14325W        W73828  12.124  29.978   0.402
14326W        W73829   1.250  26.131  13.866
14327W        W73830  23.492  25.219  11.059
14328W        W73831   1.971  18.780   2.883
14329W        W73832  19.713  35.034  12.443
14330W        W73833   5.289  12.156   3.701
14331W        W73834  21.253   8.659  13.353
14332W        W73835  16.701  24.524   2.860
14333W        W73836  21.185  35.553   3.725
14334W        W73837   9.351  11.246  14.005
14335W        W73838  29.462  14.292   0.457
14336W        W73839  26.082  33.102   1.874
14337W        W73840  27.499  34.490   2.337
14338W        W73841  25.613  26.487  14.441
14339W        W73842  28.650  19.116   3.649
14340W        W73843   1.342   5.213  13.922
14341W        W73844   7.798  21.174  11.050
14342W        W73845  37.379  17.584   4.700
14343W        W73846   9.890  44.303  12.562
14344W        W73847  28.624  21.663   0.317
14345W        W73848  15.643   9.178   4.143
14346W        W73849  28.987  23.547  13.510
14347W        W73850  24.720  32.580   2.738
14348W        W73851  22.691  22.224   4.178
14349W        W73852  22.152  43.806  11.998
14350W        W73853   0.955  11.334   3.253
14351W        W73854  15.690  41.492   3.372
14352W        W73855  42.290  34.371   2.386
14353W        W73856  33.086  34.020  14.496
14354W        W73857  23.639  27.555   1.276
14355W        W73858   5.362  32.011  13.856
14356W        W73859  37.849   5.923  13.922
14357W        W73860   8.684  38.478  14.799
14358W        W73861  23.645  15.789  13.464
14359W        W73862  28.627  24.623   2.807
14360W        W73863  13.776  25.155   1.367
14361W        W73864   6.806  32.117   2.240
14362W        W73865   4.823   1.768  12.457
14363W        W73866   3.233  18.231  13.454
14364W        W73867  10.283  18.187  11.095
14365W        W73868  30.976  41.484  10.476
14366W        W73869  41.352  43.794   4.728
14367W        W73870   8.201   1.741   3.209
14368W        W73871  20.034  38.964  10.961
14369W        W73872   4.444   0.849  11.412
14370W        W73873  40.338  24.191  10.931
14371W        W73874  15.189  16.662   4.124
14372W        W73875  28.530   0.965  13.929
14373W        W73876  33.928   4.796   4.786
14374W        W73877   1.758  41.898  10.088
14375W        W73878  31.962  11.764  11.890
14376W        W73879  36.001  38.370  14.456
14377W        W73880  14.281  12.261   1.443
14378W        W73881  40.315   4.306   3.253
14379W        W73882   9.362  29.655  13.967
14380W        W73883  10.799   3.345   1.302
14381W        W73884  42.861  40.519   4.770
14382W        W73885  40.549  39.024  13.822
14383W        W73886  22.572  26.156  14.948
14384W        W73887  30.504  41.304  12.012
14385W        W73888  37.412  29.114  14.792
14386W        W73889  44.855  20.684  13.822
14387W        W73890   0.397  15.118  12.404
14388W        W73891  14.312  33.914   4.179
14389W        W73892  43.511   4.268  14.506
14390W        W73893  32.061  27.688  10.062
14391W        W73894   9.312  31.539   0.924
14392W        W73895  11.231  13.271  13.975
14393W        W73896  12.183  21.512  11.077
14394W        W73897  35.961  40.030   2.230
14395W        W73898  25.071   2.321   2.888
14396W        W73899  38.017  14.682   1.751
14397W        W73900  24.055  40.991   2.894
14398W        W73901  20.740  43.325   3.643
14399W        W73902   5.226  32.525   3.650
14400W        W73903  10.779  24.640  12.382
14401W        W73904   4.322  19.089  14.980
14402W        W73905  44.270  15.118   0.876
14403W        W73906  14.220  25.197  11.121
14404W        W73907   2.271  17.201   1.337
14405W        W73908  16.763   2.835   3.329
14406W        W73909  11.303   0.893   1.383
14407W        W73910  14.122   0.898  12.846
14408W        W73911  32.525  18.135   4.783
14409W        W73912   6.759   1.295   1.341
14410W        W73913  28.941  16.751  13.497
14411W        W73914  37.487  41.456  14.353
14412W        W73915  27.052  10.878   4.659
14413W        W73916  33.080  15.673   4.154
14414W        W73917  37.405   8.337   2.842
14415W        W73918  31.463  39.847  11.122
14416W        W73919  43.991  38.379  13.929
14417W        W73920  15.641   0.371  10.993
14418W        W73921   7.380   0.470  11.433
14419W        W73922   7.757  41.804  10.472
14420W        W73923  20.240   4.261  13.512
14421W        W73924  37.575  39.017   3.794
14422W        W73925  10.155   7.685   0.402
14423W        W73926  18.138   3.926  14.491
14424W        W73927  13.619  38.858   1.869
14425W        W73928  33.537  28.160   2.396
14426W        W73929  17.067  28.122  12.880
14427W        W73930   3.722  34.495   4.812
14428W        W73931  30.438  31.524   5.092
14429W        W73932  32.922   7.733  14.025
14430W        W73933  30.077   2.884  10.918
14431W        W73934  44.469  20.602  14.504
14432W        W73935  39.878  30.977  14.489
14433W        W73936  28.040   0.315  12.827
14434W        W73937  24.618  20.670  11.100
14435W        W73938   6.203  20.600   3.748
14436W        W73939  44.964   0.290  13.938
14437W        W73940   1.282  17.670   5.228
14438W        W73941  14.137  39.057  12.054
14439W        W73942  36.571  44.283  13.471
14440W        W73943  44.295  20.524   0.741
14441W        W73944   5.271   5.919  13.822
14442W        W73945  42.321   5.905   0.842
14443W        W73946  20.557  36.556  12.449
14444W        W73947  27.005  27.192   5.125
14445W        W73948  34.450  23.708  11.580
14446W        W73949  28.451  27.979   3.303
14447W        W73950  27.969  38.902   1.790
14448W        W73951  21.087  41.020  14.463
14449W        W73952  37.850  34.977   0.732
14450W        W73953   6.321  39.529   2.828
14451W        W73954  12.838  24.211  11.984
14452W        W73955  23.559  41.000  11.400
14453W        W73956  15.788  22.243  12.838
14454W        W73957  42.520  31.638  14.312
14455W        W73958   9.826  26.462   1.845
14456W        W73959  42.777  34.387  13.469
14457W        W73960  17.189  11.366   0.835
14458W        W73961  28.002  26.533   0.292
14459W        W73962   6.710   0.893   0.417
14460W        W73963  30.574  27.982  14.779
14461W        W73964   0.950   3.348  13.875
14462W        W73965  24.995  16.251  11.024
14463W        W73966   2.341   9.258  14.809
14464W        W73967  30.983  42.385   0.371
14465W        W73968  17.597  44.369  13.996
14466W        W73969  41.325  35.509   1.760
14467W        W73970  36.466   6.231  12.902
14468W        W73971  34.556  41.818   3.755
14469W        W73972   0.784  44.415   4.763
14470W        W73973  34.946  34.893  11.872
14471W        W73974  19.081  21.562  11.531
14472W        W73975  12.736  18.642  12.034
14473W        W73976  12.748  11.818   4.346
14474W        W73977  19.547  10.786   3.642
14475W        W73978  14.715  22.099  11.956
14476W        W73979   3.335  28.032   3.756
14477W        W73980  18.712  21.640  14.323
14478W        W73981  15.235  37.998   1.774
14479W        W73982   8.249  42.453   2.332
14480W        W73983  19.566  31.589  11.576
14481W        W73984   9.314  40.525  10.915
14482W        W73985  23.522  27.480  12.051
14483W        W73986  41.331  16.734   4.130
14484W        W73987  43.811   7.209   3.685
14485W        W73988   2.437  18.771   1.350
14486W        W73989  31.492  10.757   0.816
14487W        W73990  14.210  30.442  11.876
14488W        W73991  25.476   0.274   1.804
14489W        W73992   9.644  29.163  14.293
14490W        W73993   8.235  38.541   2.777
14491W        W73994  44.966  38.421   0.423
14492W        W73995  38.973  15.328   2.250
14493W        W73996   2.296  40.051   4.206
14494W        W73997   1.767  36.952  14.378
14495W        W73998   6.794  30.059   0.966
14496W        W73999  36.588  22.648   3.152
14497W        W74000  21.212  37.073   3.199
14498W        W74001  42.486  13.749  11.932
14499W        W74002  30.922  36.484  14.510
14500W        W74003  27.976  44.431   2.224
14501W        W74004  14.249  30.427   2.735
14502W        W74005  23.624   7.225   4.172
14503W        W74006   8.886   6.396  13.507
14504W        W74007   4.776  16.787  14.493
14505W        W74008  15.613  36.370  13.818
14506W        W74009  14.815  12.701   4.837
14507W        W74010   1.330  22.151   2.295
14508W        W74011  14.805  26.574   3.180
14509W        W74012  33.381  16.639  13.410
14510W        W74013  21.237   4.834   3.817
14511W        W74014  39.029  38.028  12.896
14512W        W74015  29.508  22.171   1.344
14513W        W74016  10.285  37.955  14.015
14514W        W74017  26.523  18.215   4.764
14515W        W74018  41.789  15.627   1.433
14516W        W74019   2.365  12.614  12.974
14517W        W74020  35.426  14.146   3.152
14518W        W74021   7.240  35.420  11.583
14519W        W74022  41.401   0.755  11.917
14520W        W74023   1.964   7.773   2.668
14521W        W74024  41.413   5.339   1.402
14522W        W74025  22.129  36.357   3.200
14523W        W74026  27.013   1.772   1.830
14524W        W74027  23.120  15.612  12.393
14525W        W74028  18.679  15.161  12.036
14526W        W74029  34.057  13.150   4.290
14527W        W74030  10.633   5.846  10.907
14528W        W74031  19.257  14.769  13.052
14529W        W74032   4.779  44.277   3.779
14530W        W74033  40.455   5.825  14.445
14531W        W74034  37.481  35.565   4.121
14532W        W74035  20.157  10.799   3.755
14533W        W74036  16.684   2.349   3.728
14534W        W74037   7.316  22.167   3.182
14535W        W74038  15.122  10.761  14.348
14536W        W74039  21.073  33.533   3.177
14537W        W74040  24.636  33.100  13.006
14538W        W74041  27.979  37.536  10.001
14539W        W74042  40.437  44.261  12.021
14540W        W74043   9.155  13.274   0.870
14541W        W74044  17.560  10.878  12.958
14542W        W74045  15.194  16.768   4.602
14543W        W74046  33.919  14.262   2.369
14544W        W74047  16.779  19.251   1.362
14545W        W74048   0.261   5.915  12.992
14546W        W74049  20.093  11.228  12.437
14547W        W74050  15.714   3.335  11.423
14548W        W74051   3.319  25.665   0.460
14549W        W74052  24.144  31.962  12.531
14550W        W74053  24.718   6.699  12.842
14551W        W74054  28.462   6.293  13.437
14552W        W74055  27.628  26.702  14.961
14553W        W74056   2.343  31.588   1.381
14554W        W74057  43.371  14.766  11.547
14555W        W74058  17.064  13.608   4.123
14556W        W74059  29.057   2.809  14.473
14557W        W74060  25.126  27.574   4.754
14558W        W74061  14.225  26.075   0.851
14559W        W74062  42.396  11.785   4.762
14560W        W74063  41.496   3.808   3.212
14561W        W74064  14.800  14.636  13.526
14562W        W74065   8.795  11.827  13.971
14563W        W74066  43.413   8.841   4.744
14564W        W74067  13.771  44.870   0.836
14565W        W74068  39.015  25.533   0.288
14566W        W74069   1.937  31.481  14.782
14567W        W74070  31.080  12.811  14.857
14568W        W74071  17.724  25.988   4.140
14569W        W74072  43.895  42.379  12.823
14570W        W74073   8.351  19.625  12.358
14571W        W74074  27.468  29.074  13.971
14572W        W74075  21.135  27.106  13.965
14573W        W74076  30.495  42.392  13.879
14574W        W74077  16.110  33.938   5.777
14575W        W74078  18.153  15.729  13.512
14576W        W74079   5.238   2.375  11.442
14577W        W74080  33.412  37.044   1.820
14578W        W74081  10.199  43.340  12.415
14579W        W74082   9.724  36.439   0.278
14580W        W74083  38.479  33.130  13.507
14581W        W74084  26.658   6.716  11.033
14582W        W74085  44.431  40.843  14.918
14583W        W74086  37.833  26.529  13.329
14584W        W74087  15.733   9.732   4.243
14585W        W74088  13.138  12.679  12.495
14586W        W74089  38.368   0.849  12.402
14587W        W74090   7.219  31.015   4.279
14588W        W74091  32.944   0.255   0.791
14589W        W74092   0.424  21.698  12.517
14590W        W74093  28.143  10.841  11.084
14591W        W74094  25.594  26.199  13.541
14592W        W74095   3.709  14.725  12.840
14593W        W74096  15.701  36.368   2.346
14594W        W74097  20.223  33.070  14.277
14595W        W74098   9.168  37.974  14.382
14596W        W74099  35.383  38.455   9.522
14597W        W74100  13.207   2.798   3.239
14598W        W74101  20.141   8.166  12.008
14599W        W74102  35.488   5.293  13.431
14600W        W74103  43.987  40.496  13.891
14601W        W74104  31.021  23.585  14.907
14602W        W74105  13.815   4.812  11.472
14603W        W74106  19.658   9.351  11.079
14604W        W74107   2.838  18.733  13.356
14605W        W74108  42.959  42.430  12.444
14606W        W74109  19.756  41.838  12.989
14607W        W74110   7.679   9.183   4.168
14608W        W74111   1.784  42.283   3.716
14609W        W74112  27.557  15.754   0.353
14610W        W74113   0.856  35.894  13.808
14611W        W74114  32.567  23.167   1.317
14612W        W74115   7.289  25.684   0.782
14613W        W74116  20.079  33.416  10.940
14614W        W74117  22.707  29.055  13.357
14615W        W74118  24.714  16.113   3.632
14616W        W74119  23.501  29.078   3.658
14617W        W74120   5.818  40.845  12.948
14618W        W74121  21.662  30.579   2.414
14619W        W74122  28.504  18.702   0.748
14620W        W74123  23.108  31.574   2.773
14621W        W74124  12.339  35.074  13.818
14622W        W74125  28.508  10.644  13.034
14623W        W74126  15.635  22.532  12.040
14624W        W74127  40.317  41.386   4.206
14625W        W74128  41.830  31.643   3.211
14626W        W74129  11.343  29.640   1.279
14627W        W74130  43.849  13.215   0.963
14628W        W74131  34.571  35.423   0.752
14629W        W74132  11.703  20.187  11.562
14630W        W74133  25.163   2.900   2.319
14631W        W74134   4.353  38.546   3.871
14632W        W74135  32.118   8.325   4.685
14633W        W74136   3.796  36.497  10.469
14634W        W74137  17.713  31.414  10.481
14635W        W74138  15.085  36.989   0.323
14636W        W74139   1.765   2.891   0.811
14637W        W74140  41.040  18.258   0.809
14638W        W74141   9.187   3.892   2.384
14639W        W74142  33.885  44.811  13.333
14640W        W74143  16.601  31.904   3.657
14641W        W74144   6.897   5.230   4.226
14642W        W74145  42.023  28.551  14.499
14643W        W74146  14.246   3.358  12.482
14644W        W74147   5.409   5.784   4.330
14645W        W74148  43.007  36.581  13.516
14646W        W74149   5.410  38.354  12.401
14647W        W74150  38.429  37.063   2.734
14648W        W74151  36.945   3.356  11.573
14649W        W74152  24.974  41.919   1.423
14650W        W74153  10.289  18.665   3.831
14651W        W74154  41.916   1.375  11.906
14652W        W74155  34.879  27.099   0.886
14653W        W74156  43.907  15.119   3.279
14654W        W74157  37.446  15.189   1.759
14655W        W74158  19.548  41.429  12.449
14656W        W74159  19.250  44.368   1.850
14657W        W74160  10.344   8.828   9.960
14658W        W74161  29.549  37.478   3.299
14659W        W74162  12.210  31.957  12.381
14660W        W74163   9.311   9.305   3.167
14661W        W74164  14.755  32.525   3.866
14662W        W74165  41.849  38.845   0.791
14663W        W74166  21.061  26.629   4.787
14664W        W74167   2.929  25.096  14.294
14665W        W74168   6.420  37.065  13.366
14666W        W74169  16.101  15.586  12.381
14667W        W74170  44.942   0.917   0.894
14668W        W74171   9.889  36.419   4.702
14669W        W74172   3.878  10.792  13.877
14670W        W74173  36.434  31.996   0.941
14671W        W74174  19.201  43.955  13.312
14672W        W74175  12.159  20.239   4.761
14673W        W74176   3.392  24.214   4.808
14674W        W74177   5.282   5.433   4.115
14675W        W74178   7.911  32.974  14.819
14676W        W74179  10.223  39.993  14.823
14677W        W74180  34.534  29.623   3.797
14678W        W74181  35.415  23.597   2.743
14679W        W74182  14.246  33.117  14.987
14680W        W74183  21.167  32.954  10.459
14681W        W74184  38.479  11.352  10.988
14682W        W74185  15.599  36.363  14.432
14683W        W74186  20.553  29.540  11.575
14684W        W74187  12.348  40.519   2.790
14685W        W74188  43.935  21.017  11.457
14686W        W74189  43.880  16.705   1.313
14687W        W74190  40.016  22.685  11.466
14688W        W74191   1.330  11.717  14.362
14689W        W74192  33.966  17.061   3.645
14690W        W74193  34.472  28.516  13.428
14691W        W74194  36.074   9.659  13.309
14692W        W74195   4.931   7.788   0.942
14693W        W74196   3.740   7.758   3.739
14694W        W74197  39.345  23.640  14.021
14695W        W74198   8.804  40.825  11.409
14696W        W74199  39.455   3.732   0.737
14697W        W74200  17.646  15.724   3.670
14698W        W74201  19.561  35.472   4.624
14699W        W74202  24.043   7.768  13.016
14700W        W74203  38.560  28.173   3.185
14701W        W74204  44.906  22.520   1.271
14702W        W74205  36.396  23.720   0.304
14703W        W74206  34.568  21.672   0.892
14704W        W74207  43.902   1.953  10.417
14705W        W74208  39.019  44.804  11.887
14706W        W74209   1.253  24.614   0.425
14707W        W74210   3.735  33.040  10.581
14708W        W74211  27.020  21.083  13.793
14709W        W74212  36.057  39.888  12.420
14710W        W74213  42.397   0.306  14.018
14711W        W74214  12.685  12.741  11.021
14712W        W74215  17.192  44.422  13.991
14713W        W74216  12.855   2.773  10.521
14714W        W74217  24.226  44.950   1.727
14715W        W74218  10.796  17.758   2.884
14716W        W74219  29.588  14.664  10.412
14717W        W74220   2.363  19.205   2.728
14718W        W74221  43.020  25.998   9.942
14719W        W74222   2.232  14.289   2.854
14720W        W74223  24.506  10.253  14.027
14721W        W74224   5.363  26.515   2.662
14722W        W74225  11.625  30.143   4.215
14723W        W74226  11.741   2.298   4.678
14724W        W74227  39.374  27.502  11.100
14725W        W74228  40.825  39.856   3.359
14726W        W74229   2.234  34.385  12.429
14727W        W74230  44.356   2.334   0.861
14728W        W74231  12.128  40.519  13.058
14729W        W74232  28.548  39.830  12.457
14730W        W74233  44.335  30.589   3.189
14731W        W74234  44.937  23.649  13.865
14732W        W74235  14.332  36.948  11.400
14733W        W74236  36.087  41.475   3.257
14734W        W74237  38.075   4.896   4.661
14735W        W74238  35.997  37.578   0.329
14736W        W74239  28.667   6.776  11.588
14737W        W74240  18.740  20.162  12.026
14738W        W74241   4.312  40.303   3.641
14739W        W74242   9.754  43.337   3.316
14740W        W74243  26.165  31.136  12.542
14741W        W74244  20.681  12.634  14.793
14742W        W74245   5.739  10.300   1.299
14743W        W74246  42.988  16.313  11.469
14744W        W74247  19.581   2.355  11.394
14745W        W74248  19.726  15.105   1.813
14746W        W74249  17.714  40.494   2.233
14747W        W74250  44.962  31.086   5.134
14748W        W74251  14.127  27.003   0.883
14749W        W74252  34.047  14.736   1.835
14750W        W74253  33.525  39.841   3.322
14751W        W74254  37.571  20.718   1.788
14752W        W74255  30.974  32.447  14.339
14753W        W74256   0.381  34.107  10.420
14754W        W74257  33.480  16.746   0.919
14755W        W74258  40.449  10.218  14.381
14756W        W74259  13.250   7.757  13.525
14757W        W74260  30.597  12.318  12.343
14758W        W74261  32.009  31.543   3.174
14759W        W74262  19.644  21.186   1.704
14760W        W74263  43.473  27.670  13.825
14761W        W74264   6.870  24.558  11.890
14762W        W74265  38.055  22.084  13.318
14763W        W74266  10.302  35.365   1.718
14764W        W74267  18.106  16.164  12.569
14765W        W74268   5.398  20.086   3.341
14766W        W74269  44.341  13.619  10.475
14767W        W74270   8.209  13.145  10.493
14768W        W74271  13.612  19.758   2.856
14769W        W74272  23.106  33.051  11.465
14770W        W74273  14.643  13.622  13.951
14771W        W74274  28.110   8.761   0.376
14772W        W74275   7.787   4.945   0.313
14773W        W74276  34.607   7.265  13.896
14774W        W74277  31.121   1.410   0.425
14775W        W74278  35.383   1.464   1.331
14776W        W74279  21.137   5.869   1.313
14777W        W74280  44.282  33.596   1.703
14778W        W74281  29.438  32.550  11.377
14779W        W74282  18.789  31.429   1.773
14780W        W74283  24.644  28.168  11.389
14781W        W74284  38.072  38.521  10.971
14782W        W74285  19.618   9.647   3.697
14783W        W74286  25.157  13.182   1.284
14784W        W74287  17.167  36.372  12.502
14785W        W74288   1.404  13.675  11.118
14786W        W74289  24.557  28.522  13.048
14787W        W74290  43.279  23.688  11.109
14788W        W74291  11.339  20.545  11.081
14789W        W74292  26.651  28.531   4.747
14790W        W74293  25.177   5.834  10.493
14791W        W74294   0.781  27.074   1.710
14792W        W74295  35.983  40.543   0.454
14793W        W74296  10.175  40.821  11.595
14794W        W74297  19.276   9.688   0.855
14795W        W74298  37.444  20.067   2.751
14796W        W74299   4.213  11.298  13.328
14797W        W74300  44.415  32.591   1.232
14798W        W74301  44.428  35.482  11.026
14799W        W74302  21.680  42.509   1.309
14800W        W74303  14.660  17.575  10.455
14801W        W74304  12.688  41.920   4.211
14802W        W74305  38.388  44.885   3.257
14803W        W74306   0.308   5.398   3.632
14804W        W74307  16.159   3.364  11.082
14805W        W74308   3.461  21.168   3.175
14806W        W74309  23.032   7.909   1.420
14807W        W74310   4.436  14.237   1.431
14808W        W74311  28.596   7.901  14.338
14809W        W74312  40.803  15.822  12.568
14810W        W74313   1.457  14.311  10.477
14811W        W74314  29.586  41.932   3.309
14812W        W74315  10.671  39.489  12.997
14813W        W74316  35.885  35.380  12.346
14814W        W74317  11.289  37.573  14.024
14815W        W74318  37.838  34.045  14.903
14816W        W74319  27.648  28.556   1.252
14817W        W74320  34.600   5.882   3.766
14818W        W74321  44.473   7.750   1.335
14819W        W74322   5.833  32.560   0.938
14820W        W74323  39.336  28.545   1.223
14821W        W74324   2.735  42.920   0.750
14822W        W74325   6.366  34.964  14.796
14823W        W74326  31.093  21.192  12.076
14824W        W74327  28.487  39.019  11.547
14825W        W74328   9.787   3.899   0.261
14826W        W74329   9.703   2.923   1.256
14827W        W74330  43.278  42.922  10.913
14828W        W74331  21.066  39.920  10.548
14829W        W74332  19.181  27.611  14.888
14830W        W74333  30.972  21.612   4.237
14831W        W74334   0.942   6.378   1.803
14832W        W74335  11.246  28.134   4.653
14833W        W74336  26.061  21.586  14.450
14834W        W74337  17.144  24.577  12.008
14835W        W74338   7.842   5.867   0.885
14836W        W74339  14.196  38.839   3.235
14837W        W74340   8.737   5.746   4.290
14838W        W74341  24.128  39.960  12.846
14839W        W74342  33.565   1.883   3.714
14840W        W74343  42.947  41.974   1.893
14841W        W74344   0.287   3.334   0.799
14842W        W74345  22.205  32.940  12.510
14843W        W74346   9.165  14.251   2.746
14844W        W74347  34.403   7.715  12.340
14845W        W74348   7.299  25.181   1.315
14846W        W74349   1.944   4.741  12.575
14847W        W74350  38.516   1.420   4.608
14848W        W74351  44.312  24.513   2.255
14849W        W74352  44.891  36.439  13.357
14850W        W74353  36.883  12.656  12.987
14851W        W74354   9.289  38.553  13.958
14852W        W74355  42.341  41.813  12.007
14853W        W74356  15.634  38.940   1.433
14854W        W74357  12.227   7.194  13.515
14855W        W74358  21.526  29.147   2.330
14856W        W74359   1.303  14.179  14.800
14857W        W74360   7.779   1.791  12.433
14858W        W74361  14.648  23.152  14.380
14859W        W74362  15.672  27.058  12.542
14860W        W74363  33.606  44.786  13.914
14861W        W74364  24.482  43.309   1.697
14862W        W74365  10.788   8.380  10.483
14863W        W74366  32.123  18.270   1.904
14864W        W74367   2.423  15.791   3.739
14865W        W74368  31.967  23.003   2.766
14866W        W74369  39.934  29.555  11.428
14867W        W74370  10.237  10.173  14.493
14868W        W74371  19.775  12.206   2.253
14869W        W74372  43.509  41.536  12.044
14870W        W74373  35.079   1.973   4.280
14871W        W74374  24.648  10.654   3.245
14872W        W74375   2.282  33.898   1.404
14873W        W74376  44.407  38.452  14.890
14874W        W74377   0.303  35.065  11.927
14875W        W74378   1.244  19.559   2.765
14876W        W74379  12.775  24.046   4.789
14877W        W74380  21.719  29.082   0.903
14878W        W74381  35.970   6.274   0.783
14879W        W74382  16.113   8.703   0.780
14880W        W74383  23.077  23.140  11.929
14881W        W74384  31.101   3.927   1.777
14882W        W74385  18.774  33.912   1.930
14883W        W74386  39.885  33.564   2.722
14884W        W74387  37.833  24.037   1.360
14885W        W74388  38.932   3.324   4.267
14886W        W74389  28.489  36.995  14.296
14887W        W74390  10.676  31.598   0.331
14888W        W74391  36.479   3.894  10.520
14889W        W74392   4.343  34.495   0.307
14890W        W74393  27.054  12.656   1.810
14891W        W74394  39.413  13.315  14.322
14892W        W74395  11.217   7.854   4.310
14893W        W74396  10.162  42.397  14.916
14894W        W74397   8.704   1.741   4.297
14895W        W74398  20.191   7.307  10.978
14896W        W74399   9.794  36.083   0.434
14897W        W74400  18.659  21.256  10.486
14898W        W74401  35.083  12.245   3.361
14899W        W74402  23.082   5.748  14.029
14900W        W74403  22.606  42.801   4.208
14901W        W74404  30.553  20.154  12.518
14902W        W74405  31.402  23.503   5.128
14903W        W74406   1.327  17.067   3.265
14904W        W74407  24.104  13.807  12.037
14905W        W74408   0.802  10.855   0.739
14906W        W74409   5.439  22.583  13.899
14907W        W74410   7.770  28.562   2.357
14908W        W74411  19.214   3.311   3.228
14909W        W74412  14.614  35.560   4.216
14910W        W74413  24.644  14.804  12.051
14911W        W74414  32.030  17.122  13.935
14912W        W74415  11.332   2.937  13.908
14913W        W74416  43.858  12.681   1.260
14914W        W74417  34.890  12.149  11.039
14915W        W74418   2.793  10.199  12.832
14916W        W74419  27.961  10.299  11.126
14917W        W74420  17.206  17.627   1.714
14918W        W74421  20.644  25.028   1.377
14919W        W74422  43.846  26.001  11.611
14920W        W74423  23.535  23.026  11.944
14921W        W74424   8.267  26.962   1.326
14922W        W74425   7.280  42.321  10.941
14923W        W74426  25.568   1.870   2.776
14924W        W74427  34.408   9.722   0.872
14925W        W74428  44.316  30.508   0.796
14926W        W74429  37.391   4.855   0.336
14927W        W74430  17.667   9.703   3.798
14928W        W74431  26.682  30.585  10.585
14929W        W74432   7.780  43.319   1.731
14930W        W74433   2.897  39.846   4.339
14931W        W74434   9.843  24.580   2.670
14932W        W74435  19.228  13.657   4.708
14933W        W74436   2.777  16.591  12.478
14934W        W74437  17.248  17.739  14.504
14935W        W74438  19.238  23.580   2.733
14936W        W74439   4.211  42.413  10.969
14937W        W74440  11.756  11.331  14.845
14938W        W74441  28.076   4.830   4.701
14939W        W74442   6.715  42.958   1.391
14940W        W74443  37.578  34.485   1.217
14941W        W74444  30.068   4.383   4.292
14942W        W74445   0.868  20.662   4.743
14943W        W74446  13.218   0.462  11.430
14944W        W74447  35.577  19.626   0.394
14945W        W74448  19.053  12.789  13.815
14946W        W74449  23.069   7.714  12.492
14947W        W74450  29.129  32.891   3.259
14948W        W74451  21.624  21.210   2.706
14949W        W74452   8.220  21.737   4.168
14950W        W74453  16.749   6.822   0.770
14951W        W74454  38.328  21.085  12.409
14952W        W74455  11.371  36.010   3.238
14953W        W74456  36.974  17.270  11.386
14954W        W74457  21.054   7.757  14.353
14955W        W74458  34.408  21.103  14.451
14956W        W74459  31.631  17.606   2.185
14957W        W74460  20.129  42.818  12.001
14958W        W74461  44.316  15.281  10.542
14959W        W74462  15.104  14.206  14.022
14960W        W74463  27.131  11.654   0.473
14961W        W74464  44.389  39.835  10.627
14962W        W74465   9.823   0.778   3.783
14963W        W74466   3.308  36.390  12.828
14964W        W74467  24.504   2.820   0.341
14965W        W74468  31.532  26.017  13.903
14966W        W74469  22.710  37.963  11.114
14967W        W74470  11.339  26.480  10.451
14968W        W74471   1.412  27.043   2.689
14969W        W74472  42.353   4.835   1.837
14970W        W74473  14.787  20.535  12.944
14971W        W74474  14.152   7.794   4.617
14972W        W74475  12.208   7.764   3.268
14973W        W74476  32.636  16.781  13.931
14974W        W74477  23.575  19.580   1.913
14975W        W74478  44.002  27.182   0.377
14976W        W74479  43.972  29.533   2.718
14977W        W74480  35.854  23.536   1.860
14978W        W74481  31.091  17.076  14.985
14979W        W74482   4.863  29.480   2.834
14980W        W74483  42.026  14.766  14.399
14981W        W74484  41.450  17.654   2.756
14982W        W74485   2.874  21.045  12.398
14983W        W74486   1.791  32.551   1.752
14984W        W74487  42.429  40.033   2.225
14985W        W74488   9.175  18.654  13.915
14986W        W74489  32.630  28.476   4.633
14987W        W74490  42.849  33.532   4.244
14988W        W74491  19.075  16.760   2.694
14989W        W74492   4.289  28.617   0.960
14990W        W74493  42.862  11.224   2.345
14991W        W74494  25.109  27.025   2.278
14992W        W74495  17.305  19.753  14.908
14993W        W74496  16.760  32.598   1.868
14994W        W74497  30.943  16.110   4.265
14995W        W74498  21.108   9.198  11.421
14996W        W74499   0.367   7.215  13.541
14997W        W74500  30.033  16.609   4.641
14998W        W74501  44.444  22.024   1.820
14999W        W74502  42.380  19.236  14.975
15000W        W74503  27.565  27.033  13.893
15001W        W74504  32.052  29.092   1.763
15002W        W74505   0.986   5.843   3.745
15003W        W74506  44.344  38.052   2.747
15004W        W74507   0.450  21.083   1.251
15005W        W74508  14.626   1.964   9.974
15006W        W74509  44.286  17.562  13.418
15007W        W74510   5.363  43.818   3.863
15008W        W74511   4.890   6.848   2.705
15009W        W74512  18.065  22.196   1.906
15010W        W74513  44.454  40.038   1.308
15011W        W74514  15.167  24.597   4.273
15012W        W74515  43.796  10.802  10.925
15013W        W74516   2.835  20.571   2.193
15014W        W74517  22.062   6.692   0.860
15015W        W74518  22.713  34.599   4.746
15016W        W74519  19.668  39.861  14.397
15017W        W74520   0.314   5.718   1.338
15018W        W74521  27.601   2.740  12.439
15019W        W74522  12.761  32.586   2.775
15020W        W74523  34.001  33.390  11.872
15021W        W74524  42.779  25.494   2.328
15022W        W74525   3.419   4.810   1.696
15023W        W74526   7.695   0.446   4.669
15024W        W74527  12.136  11.331  12.484
15025W        W74528  39.535  38.543   2.305
15026W        W74529   3.219  36.860  10.428
15027W        W74530  13.820   0.749   2.663
15028W        W74531   2.777  12.700  10.456
15029W        W74532  38.012  27.120  13.431
15030W        W74533  32.477  38.047   5.276
15031W        W74534  40.533   6.754  14.382
15032W        W74535  24.077  15.781   4.610
15033W        W74536  36.940  42.830  12.091
15034W        W74537  28.955  39.022  14.974
15035W        W74538  10.744  19.582   1.411
15036W        W74539  36.938  16.317  14.875
15037W        W74540  37.050  27.588   0.879
15038W        W74541  11.671  16.097   0.335
15039W        W74542  44.314  40.370   4.162
15040W        W74543  34.044  11.647   4.282
15041W        W74544  17.749  34.891   1.872
15042W        W74545  40.528  30.433  12.468
15043W        W74546  37.551  38.016  10.605
15044W        W74547   9.648   4.911  14.771
15045W        W74548  12.184  31.123  13.374
15046W        W74549  15.776   8.252  14.308
15047W        W74550  41.472  19.554  11.545
15048W        W74551  37.551  24.667   3.213
15049W        W74552  41.898  12.150  12.034
15050W        W74553   0.830  41.845   2.271
15051W        W74554  36.468  31.910  13.410
15052W        W74555  19.133   2.755  11.471
15053W        W74556  25.112  40.385  12.362
15054W        W74557  35.951  18.627   3.808
15055W        W74558  22.195  29.553  13.895
15056W        W74559  41.929  10.266   0.829
15057W        W74560  44.953  36.374   2.343
15058W        W74561  28.621  40.333  11.005
15059W        W74562  20.649  28.947   2.184
15060W        W74563  30.094  27.553  12.370
15061W        W74564  43.876   0.379   4.636
15062W        W74565  44.812  16.316   0.290
15063W        W74566  23.097  31.026   2.375
15064W        W74567  36.454  44.340  10.451
15065W        W74568  23.514  34.431  12.368
15066W        W74569  19.593  25.964  12.089
15067W        W74570  25.574  10.703  12.556
15068W        W74571  13.687   8.271  11.577
15069W        W74572  12.799  30.123   3.778
15070W        W74573   7.816  17.618   2.849
15071W        W74574  14.760  38.505   2.883
15072W        W74575   9.186  12.647   2.231
15073W        W74576  27.033  39.545   3.301
15074W        W74577   7.712  21.162   1.290
15075W        W74578  16.675  37.972  11.484
15076W        W74579  14.711  36.849  11.410
15077W        W74580   8.294  29.971  14.812
15078W        W74581  19.554  26.614   1.753
15079W        W74582  35.945   2.303  13.939
15080W        W74583  38.411  43.446   0.851
15081W        W74584  35.425  39.363   4.617
15082W        W74585  28.531  37.890  14.484
15083W        W74586  39.434   1.464   1.394
15084W        W74587  28.145  38.870   4.647
15085W        W74588  18.138  37.049  12.416
15086W        W74589  35.539  34.578  12.343
15087W        W74590  31.033  27.512  12.458
15088W        W74591  14.789  36.923  13.424
15089W        W74592  44.502   5.239  14.344
15090W        W74593  39.829  11.357  12.520
15091W        W74594   2.890  24.163  12.033
15092W        W74595  30.654   6.341  10.638
15093W        W74596  38.060  37.427  12.433
15094W        W74597  35.374  41.297   3.267
15095W        W74598  21.256   4.316  14.826
15096W        W74599  29.965  37.482  11.553
15097W        W74600  28.644  32.500   3.860
15098W        W74601  13.130  25.531   2.230
15099W        W74602  22.723  31.027   3.309
15100W        W74603  36.886  20.180   3.243
15101W        W74604  34.436  36.359   5.607
15102W        W74605  32.141   6.366  10.532
15103W        W74606  27.082  23.611   4.144
15104W        W74607  43.930  43.791  10.998
15105W        W74608   7.383  16.770  14.878
15106W        W74609  33.618  38.023  10.146
15107W        W74610  26.952  15.736  10.902
15108W        W74611  41.809   1.920   2.226
15109W        W74612  35.542  41.391  14.509
15110W        W74613  40.931  12.240   3.778
15111W        W74614  32.627   9.268   4.253
15112W        W74615  42.887  38.547   0.427
15113W        W74616   4.918   9.323   4.765
15114W        W74617  43.003  27.461   1.886
15115W        W74618  11.246  34.921  11.450
15116W        W74619  44.878  33.089  11.897
15117W        W74620  40.021  37.057   4.157
15118W        W74621  42.829  31.600   2.730
15119W        W74622   2.262  29.142   1.417
15120W        W74623  28.612  14.221   5.175
15121W        W74624  16.683  44.311   0.243
15122W        W74625  13.771   2.957   3.168
15123W        W74626  22.225  34.908   4.190
15124W        W74627  28.129  10.190   4.325
15125W        W74628  27.503   9.337   0.726
15126W        W74629  22.561  12.249  14.467
15127W        W74630   7.315  13.724  12.025
15128W        W74631   6.399  31.104  14.892
15129W        W74632  14.114  40.516   2.350
15130W        W74633  26.604  28.559   0.479
15131W        W74634  10.815  14.236  13.916
15132W        W74635  24.042  29.550  10.627
15133W        W74636  21.668   8.840   4.734
15134W        W74637  43.840  14.683   1.865
15135W        W74638  28.036   1.838  13.923
15136W        W74639  18.073  20.611   1.884
15137W        W74640   3.730  18.247  12.081
15138W        W74641  29.019  40.043  13.419
15139W        W74642  31.410  37.444   4.313
15140W        W74643  31.037  27.950   0.458
15141W        W74644  15.269  14.207  14.844
15142W        W74645   7.400  26.593   9.984
15143W        W74646   2.930  22.583   3.248
15144W        W74647  44.957  11.369  11.903
15145W        W74648  20.730  35.467   4.709
15146W        W74649  22.047  17.072  13.824
15147W        W74650  18.170  37.953   1.444
15148W        W74651   8.858   5.751  14.936
15149W        W74652  39.513   9.796   0.371
15150W        W74653   3.874  28.068  11.606
15151W        W74654   7.771   2.744  10.957
15152W        W74655  40.919  22.521  14.023
15153W        W74656  39.355  26.571  12.066
15154W        W74657  36.506  18.240   3.190
15155W        W74658  10.234  27.091  12.958
15156W        W74659  13.683   2.465   1.695
15157W        W74660   5.418  42.431   1.429
15158W        W74661  23.635   9.768   3.383
15159W        W74662  39.549  10.256   3.822
15160W        W74663   9.344  10.783   4.765
15161W        W74664  11.305  27.060   4.160
15162W        W74665  18.644  24.720  13.834
15163W        W74666   8.729  11.224   0.446
15164W        W74667  38.557  33.884   0.959
15165W        W74668   5.425  13.779   2.772
15166W        W74669  26.591  12.775   0.312
15167W        W74670   8.305  42.482  14.861
15168W        W74671  23.999  17.283  10.969
15169W        W74672  43.510  38.389   2.387
15170W        W74673  21.173  13.638   3.282
15171W        W74674  43.872  38.520  10.980
15172W        W74675  18.187  38.028  12.037
15173W        W74676   7.177  23.506  13.531
15174W        W74677  35.372  31.632  11.103
15175W        W74678  37.002  15.617   0.959
15176W        W74679  30.149   3.382  12.918
15177W        W74680  10.275   2.460   2.256
15178W        W74681   1.749  25.503  11.989
15179W        W74682  21.712  27.977   0.864
15180W        W74683  35.396  31.967   0.388
15181W        W74684  24.119  18.709   0.963
15182W        W74685   3.268  27.952   1.815
15183W        W74686  16.714  17.789   2.380
15184W        W74687  14.216  23.001   2.377
15185W        W74688  13.151   8.806  10.888
15186W        W74689  40.438  17.181   0.295
15187W        W74690  41.848  28.622   1.888
15188W        W74691  21.603   4.349  11.909
15189W        W74692  35.056  36.366   1.815
15190W        W74693   0.938  11.154  14.876
15191W        W74694   0.808   6.921   3.835
15192W        W74695  26.604  43.490   3.155
15193W        W74696  43.507   5.833   4.194
15194W        W74697   3.913  13.274   4.248
15195W        W74698  17.794   1.251  13.536
15196W        W74699  43.382  14.306   4.750
15197W        W74700  35.880  12.298  14.454
15198W        W74701   9.882  32.510  14.936
15199W        W74702  15.209  38.455   2.359
15200W        W74703  11.793  26.518  11.958
15201W        W74704  31.593   8.390   1.332
15202W        W74705  38.851  16.644   1.424
15203W        W74706   4.223  10.876   4.740
15204W        W74707  34.885  11.849  12.363
15205W        W74708   6.702  17.174  13.021
15206W        W74709  35.427  43.911  13.050
15207W        W74710  10.166   6.233   1.329
15208W        W74711   7.785  23.560   1.744
15209W        W74712   5.366  10.812   4.634
15210W        W74713   3.856  21.732   0.735
15211W        W74714  30.113  10.239  14.515
15212W        W74715   3.931  40.005   1.280
15213W        W74716  16.714  43.849  11.881
15214W        W74717  34.002  40.537  13.800
15215W        W74718  40.847   0.910   1.433
15216W        W74719  13.107  28.992   3.192
15217W        W74720  35.017  24.566   1.757
15218W        W74721  29.069  17.243   5.095
15219W        W74722  44.860  13.801   4.155
15220W        W74723   2.901   3.873  14.950
15221W        W74724   6.729  23.222   3.258
15222W        W74725  18.766   9.717  12.405
15223W        W74726   2.807  25.690   2.316
15224W        W74727  15.217  34.019  12.994
15225W        W74728  28.468  40.886   0.247
15226W        W74729  23.523  36.999  13.978
15227W        W74730   8.779   2.246   1.845
15228W        W74731  34.896  12.189  10.569
15229W        W74732  36.485  12.176   1.712
15230W        W74733   4.307  38.483  12.564
15231W        W74734  36.451  34.961  11.106
15232W        W74735   2.938  41.412   5.234
15233W        W74736  22.606  26.598  10.418
15234W        W74737  15.814  43.422  12.874
15235W        W74738  31.529  13.738  11.076
15236W        W74739   8.820   0.828   1.882
15237W        W74740  30.077  12.850  12.521
15238W        W74741  35.080   7.201   3.356
15239W        W74742   8.268  40.847  13.317
15240W        W74743  35.067  14.826   0.870
15241W        W74744  26.595  14.134  12.444
15242W        W74745  24.129  15.269   4.836
15243W        W74746  31.619  28.028   3.220
15244W        W74747  40.472  24.214  12.411
15245W        W74748   7.814  27.990  11.033
15246W        W74749   9.706  19.083  11.855
15247W        W74750  23.111  38.442   3.673
15248W        W74751  28.994  19.767  13.377
15249W        W74752  26.149  28.535  10.495
15250W        W74753  17.081  19.537   9.949
15251W        W74754  17.722  18.206   1.694
15252W        W74755  42.872   3.771  13.417
15253W        W74756  25.044  21.068  13.499
15254W        W74757  18.659  13.628  14.893
15255W        W74758   6.401   4.708   5.306
15256W        W74759  18.223  40.968   2.752
15257W        W74760  27.586  38.987   3.777
15258W        W74761  17.798  23.509   4.247
15259W        W74762   2.949  27.956   0.940
15260W        W74763  40.418  12.243  14.411
15261W        W74764  40.909   6.710  10.564
15262W        W74765  22.627  44.858  12.498
15263W        W74766  43.959  41.487  13.476
15264W        W74767  11.641  25.174  14.812
15265W        W74768   7.316  40.892  11.993
15266W        W74769  43.291   4.847  14.343
15267W        W74770  13.244  16.785  12.877
15268W        W74771  22.049  38.073  14.879
15269W        W74772  19.186   5.232   4.610
15270W        W74773  17.137  39.478   0.852
15271W        W74774  28.456  14.665  14.004
15272W        W74775   9.253  17.296   2.406
15273W        W74776  32.885   6.898   0.424
15274W        W74777   0.746  39.415   1.384
15275W        W74778   4.821  44.456  13.351
15276W        W74779  44.983  20.629   2.222
15277W        W74780  26.533  10.187   3.683
15278W        W74781  41.000  37.839  14.350
15279W        W74782  14.692  27.473   3.185
15280W        W74783  12.328  14.627  11.490
15281W        W74784   0.985   7.898   1.897
15282W        W74785  34.517   0.874  10.937
15283W        W74786   0.828  37.904   3.632
15284W        W74787  31.493  28.133   0.459
15285W        W74788  19.748  12.137   3.355
15286W        W74789  35.048  27.455   3.830
15287W        W74790  28.137  34.389  12.068
15288W        W74791  36.051   4.390   2.722
15289W        W74792   0.961  26.059  11.387
15290W        W74793   7.778  42.474   2.881
15291W        W74794  24.577   9.386  13.886
15292W        W74795   6.251  11.126  14.373
15293W        W74796  34.524  26.176   2.736
15294W        W74797  40.812  23.648   0.953
15295W        W74798  13.620  17.248  14.340
15296W        W74799   2.373  34.990  13.470
15297W        W74800  32.090   1.828  14.378
15298W        W74801   8.319  18.776  12.980
15299W        W74802   1.933  38.933   3.774
15300W        W74803  30.913  19.663  13.812
15301W        W74804  36.487  40.887  14.365
15302W        W74805  36.921  29.656  14.872
15303W        W74806  15.138  12.281  12.407
15304W        W74807  12.805  27.122  10.639
15305W        W74808  28.951   6.372   4.191
15306W        W74809  29.161  44.362  11.048
15307W        W74810  19.664  29.054  13.896
15308W        W74811  33.048  42.311  12.458
15309W        W74812  21.042  30.629   0.430
15310W        W74813  30.574  27.518  11.567
15311W        W74814  24.675   8.314  10.416
15312W        W74815  38.996  26.984  13.027
15313W        W74816  20.109  16.756  11.008
15314W        W74817   8.351  33.943   4.795
15315W        W74818  22.524   8.701  14.391
15316W        W74819   7.392  16.269   5.136
15317W        W74820   9.798  19.040   3.695
15318W        W74821  23.652   9.319  14.801
15319W        W74822   8.254  16.753  11.960
15320W        W74823  17.161  22.558  10.453
15321W        W74824  27.073  40.521  13.965
15322W        W74825  14.698  22.564  11.040
15323W        W74826  20.665  31.628   2.266
15324W        W74827  17.291  25.579   4.128
15325W        W74828  23.670  38.070   3.816
15326W        W74829  21.177   5.721  12.430
15327W        W74830  43.406  44.392  10.443
15328W        W74831  31.509  25.476  13.869
15329W        W74832   3.935   8.384  14.361
15330W        W74833  19.044  12.304  11.862
15331W        W74834  39.063  38.986   1.347
15332W        W74835  37.945   1.967  14.515
15333W        W74836  38.851   7.793   1.696
15334W        W74837   6.741  14.129  14.440
15335W        W74838  16.633   9.227   0.258
15336W        W74839  33.489  19.596   0.917
15337W        W74840  28.070  25.966  14.292
15338W        W74841  35.471  40.950   1.236
15339W        W74842  29.036  17.180   9.962
15340W        W74843  17.688  31.031  11.990
15341W        W74844  26.005  33.908  13.938
15342W        W74845  38.031  26.497   3.846
15343W        W74846  11.745  18.728  13.051
15344W        W74847  38.555  30.522   0.888
15345W        W74848  17.789   3.844  10.978
15346W        W74849  41.897  38.934  10.626
15347W        W74850  21.753  25.123  14.423
15348W        W74851  44.370  14.163   4.313
15349W        W74852   3.307  22.006  12.853
15350W        W74853  13.711  26.134  12.553
15351W        W74854  32.887   2.351  14.013
15352W        W74855  24.600  29.669   0.727
15353W        W74856  24.002  44.009   3.715
15354W        W74857  23.234  38.409  10.912
15355W        W74858  25.083  41.452   2.848
15356W        W74859   8.394  32.632   2.290
15357W        W74860   0.806  44.426  13.861
15358W        W74861  12.260   6.296  13.418
15359W        W74862  35.910  10.713  14.354
15360W        W74863   3.402  11.356  14.975
15361W        W74864  15.243  34.404   3.162
15362W        W74865  26.490  21.038  13.805
15363W        W74866  42.808  20.073   1.715
15364W        W74867   8.809   1.778   2.798
15365W        W74868   6.221  22.053   3.333
15366W        W74869  38.991  13.322  12.851
15367W        W74870  14.833  18.647   3.650
15368W        W74871   5.358  40.013   3.790
15369W        W74872  12.708  42.470   3.794
15370W        W74873  23.014  37.046  11.974
15371W        W74874  26.675  38.394  10.917
15372W        W74875  39.998  32.018   0.884
15373W        W74876  11.842  32.903   2.721
15374W        W74877   1.335   5.734   1.361
15375W        W74878  10.270  23.660  10.638
15376W        W74879  33.487  33.069   3.866
15377W        W74880  13.818  13.708  11.602
15378W        W74881  36.381  18.778   0.433
15379W        W74882  19.240  20.071  12.089
15380W        W74883  42.498  25.491  11.421
15381W        W74884  13.167  37.069   1.390
15382W        W74885  21.645  21.727  10.555
15383W        W74886  11.287  15.822  14.486
15384W        W74887   6.264  19.679  14.780
15385W        W74888  30.577   8.287  13.374
15386W        W74889  11.340  35.467  12.520
15387W        W74890  15.135   5.805   3.710
15388W        W74891  33.947   7.768   0.806
15389W        W74892   7.322  40.311   0.337
15390W        W74893  38.984  41.004   2.726
15391W        W74894  30.125  25.042   2.747
15392W        W74895  15.802  25.129  10.433
15393W        W74896  42.477  29.519  14.886
15394W        W74897  39.038  36.389   4.652
15395W        W74898  22.246   2.233  14.414
15396W        W74899   4.327  21.726   0.861
15397W        W74900  32.054   8.780  14.032
15398W        W74901   3.867  17.085   0.292
15399W        W74902   2.749  16.724   2.288
15400W        W74903  13.184  20.054   2.825
15401W        W74904  22.721  21.254   1.449
15402W        W74905  30.050  21.216  13.004
15403W        W74906  25.994  36.481   1.752
15404W        W74907  30.602   7.351   2.323
15405W        W74908  15.693  31.057  11.948
15406W        W74909  13.118   9.193   2.702
15407W        W74910  20.219  18.060  13.513
15408W        W74911  40.881  43.930  14.302
15409W        W74912  22.046   9.325  14.983
15410W        W74913  32.519   3.251  14.486
15411W        W74914  11.642  25.557  11.969
15412W        W74915   7.743  36.386  13.499
15413W        W74916  11.733   6.344  11.965
15414W        W74917  19.177  44.493   1.306
15415W        W74918  26.546  18.233   4.217
15416W        W74919  26.670  30.070  11.376
15417W        W74920  35.973   4.816  10.584
15418W        W74921  38.948  21.249   1.749
15419W        W74922  36.999   2.949   4.270
15420W        W74923  36.873   4.783  12.016
15421W        W74924  10.219   0.939  12.407
15422W        W74925   8.204  20.042   3.677
15423W        W74926  18.769  37.081   0.862
15424W        W74927   2.843   6.749  12.920
15425W        W74928  15.120  33.447   3.749
15426W        W74929  37.869  15.712   1.796
15427W        W74930  29.454  33.080  11.604
15428W        W74931  34.557  29.026  13.813
15429W        W74932  43.952  43.371  13.795
15430W        W74933  38.877  40.393   4.325
15431W        W74934  23.029  39.855   0.941
15432W        W74935  17.102  38.440   3.321
15433W        W74936   2.819  27.673  11.095
15434W        W74937  35.009  14.321   1.392
15435W        W74938  27.631  39.985   0.244
15436W        W74939  23.162  25.180   0.276
15437W        W74940  38.372  13.771  14.841
15438W        W74941  42.954  41.467   4.664
15439W        W74942  38.378  26.148   2.799
15440W        W74943   0.886  44.868  10.894
15441W        W74944  44.465  33.982   2.282
15442W        W74945   3.444  17.633  14.015
15443W        W74946   3.802   6.842  12.492
15444W        W74947  17.141   4.826   1.367
15445W        W74948  14.261   9.823  10.032
15446W        W74949  36.894  14.096   3.852
15447W        W74950  19.140  39.825   4.138
15448W        W74951  12.234  36.445  13.439
15449W        W74952  42.896  28.563   5.205
15450W        W74953   1.287  42.338   2.744
15451W        W74954  41.328  30.016   3.310
15452W        W74955  15.226  10.760   4.206
15453W        W74956  41.365  40.923   4.278
15454W        W74957   4.856  34.998  14.490
15455W        W74958  41.793  42.899   9.939
15456W        W74959  24.500  23.235   2.836
15457W        W74960  40.312   1.869  12.016
15458W        W74961   9.852   4.276   4.800
15459W        W74962  29.615  19.758  10.603
15460W        W74963  26.687   9.274   2.879
15461W        W74964  25.043  15.672   4.156
15462W        W74965   1.325  12.651  13.857
15463W        W74966  19.075  14.745   1.412
15464W        W74967  39.500  35.563   2.712
15465W        W74968  13.618   8.747  12.934
15466W        W74969  11.319  29.055   0.306
15467W        W74970  23.123  42.502  10.527
15468W        W74971  25.684  18.186   0.270
15469W        W74972  27.163   6.413  12.428
15470W        W74973  36.976  28.520   2.408
15471W        W74974  12.631   6.679   1.412
15472W        W74975  40.334  34.896   0.862
15473W        W74976   4.404  17.257   0.478
15474W        W74977   6.684  15.735  14.001
15475W        W74978  38.933  13.151  10.097
15476W        W74979   5.774  39.878   3.864
15477W        W74980   7.347  39.355   1.228
15478W        W74981  11.326  42.467   4.835
15479W        W74982  42.892  44.311  13.313
15480W        W74983   7.255  10.832   3.784
15481W        W74984  31.008  44.462   0.256
15482W        W74985  30.440  33.105  14.028
15483W        W74986  34.563  18.572   1.334
15484W        W74987  15.814  31.969  11.464
15485W        W74988  41.435  10.678  12.859
15486W        W74989  41.416  22.708   1.816
15487W        W74990  12.834   0.361   3.791
15488W        W74991  35.854  18.716   2.418
15489W        W74992   4.223   8.848  10.014
15490W        W74993  21.608  29.473   4.714
15491W        W74994   7.340  41.445  11.493
15492W        W74995   4.857   5.914  11.124
15493W        W74996   1.917  41.344  11.033
15494W        W74997  11.141  19.624   1.854
15495W        W74998  15.744  12.160   0.382
15496W        W74999  36.881  19.581   0.290
15497W        W75000  11.196  32.463  12.057
15498W        W75001  16.074  25.107   3.282
15499W        W75002  38.450  43.313   2.840
15500W        W75003  39.478   1.377   2.334
15501W        W75004  35.974  40.828  14.995
15502W        W75005  41.454   8.706   1.788
15503W        W75006   8.184  35.549  12.957
15504W        W75007  27.613  14.646   4.287
15505W        W75008   4.244  13.752  11.884
15506W        W75009  29.996  36.087   1.219
15507W        W75010   8.859   1.348  11.920
15508W        W75011  43.848  24.104   2.900
15509W        W75012  17.111   3.446   1.787
15510W        W75013  21.038  36.016   2.365
15511W        W75014  37.830  37.457  11.904
15512W        W75015  16.572  23.705   1.896
15513W        W75016  32.960   8.304   3.834
15514W        W75017  20.746  20.064   0.875
15515W        W75018  40.415  29.592   2.279
15516W        W75019  40.549  36.568  10.999
15517W        W75020  14.218  35.999   1.788
15518W        W75021   9.732  11.276  10.644
15519W        W75022  43.447  28.496  10.433
15520W        W75023  43.778   3.358  14.348
15521W        W75024   2.335  44.877   0.924
15522W        W75025  41.949  22.535  13.382
15523W        W75026  14.798  33.061   0.780
15524W        W75027   9.815  29.428  11.519
15525W        W75028  10.209   0.348   1.320
15526W        W75029  41.837  32.023  12.525
15527W        W75030  35.972  19.674  11.559
15528W        W75031  37.842  44.830   0.778
15529W        W75032   7.262  15.167  12.977
15530W        W75033  44.887  10.239   3.287
15531W        W75034   3.939  12.125  12.491
15532W        W75035  30.435  19.230  12.558
15533W        W75036   3.839  44.819  11.983
15534W        W75037  34.492  28.127   1.360
15535W        W75038   8.833   6.304  14.375
15536W        W75039  43.284   4.326  11.398
15537W        W75040  12.801  25.530   2.208
15538W        W75041  18.121   6.718   1.830
15539W        W75042  16.213  29.949  12.954
15540W        W75043  32.918  41.899  12.512
15541W        W75044  22.171  36.537  14.337
15542W        W75045  41.037  21.093  13.008
15543W        W75046  21.145  17.562   2.278
15544W        W75047  43.283  20.563  10.122
15545W        W75048  25.066  22.057  12.858
15546W        W75049  12.220  17.214   0.327
15547W        W75050  26.090  34.969  10.480
15548W        W75051  32.898  15.270  13.969
15549W        W75052  14.614  32.021   4.194
15550W        W75053   4.331   2.813   2.825
15551W        W75054   2.741  33.601  12.865
15552W        W75055  24.142  41.470   5.228
15553W        W75056  30.512  29.017  13.380
15554W        W75057   2.915  31.604  11.992
15555W        W75058  44.319   3.942  12.353
15556W        W75059  24.997  31.144   0.421
15557W        W75060   3.219  30.556   4.675
15558W        W75061  25.690  27.529  11.984
15559W        W75062  42.403   2.285  12.535
15560W        W75063  38.836  10.658   4.249
15561W        W75064  43.011  29.040   4.183
15562W        W75065  35.905   0.815   4.694
15563W        W75066  38.519  16.731   0.456
15564W        W75067  25.024   4.397  11.493
15565W        W75068   9.160  13.774   3.777
15566W        W75069  41.468  31.940  11.962
15567W        W75070  22.145  11.688   3.744
15568W        W75071   4.790   8.233  13.009
15569W        W75072  16.122  32.140  10.110
15570W        W75073  19.117  40.390   2.787
15571W        W75074  34.396  38.352  12.577
15572W        W75075  16.727   2.370   1.870
15573W        W75076  33.479  26.585  13.522
15574W        W75077  34.982  24.619   2.193
15575W        W75078   7.396  41.409  14.844
15576W        W75079  16.659  24.979  11.956
15577W        W75080   5.268  10.656   4.203
15578W        W75081   3.803  34.006   3.270
15579W        W75082  23.670  28.558   2.403
15580W        W75083  38.956  26.685   3.153
15581W        W75084  20.212  16.236   2.826
15582W        W75085  20.092  23.040  11.060
15583W        W75086  38.420  38.460   0.329
15584W        W75087   2.764  35.570   4.782
15585W        W75088  35.533  44.264  11.949
15586W        W75089  23.636  31.516  11.579
15587W        W75090  36.077  16.299   2.674
15588W        W75091  35.441  41.964  11.550
15589W        W75092  15.662   1.908  12.380
15590W        W75093  28.435  17.790  14.797
15591W        W75094  21.062  18.607  11.455
15592W        W75095  28.440  14.728   1.729
15593W        W75096  42.491   4.329   0.442
15594W        W75097  12.831  28.042  12.469
15595W        W75098   8.791   0.976  14.800
15596W        W75099  38.425   7.194  13.421
15597W        W75100  39.533  29.128   1.894
15598W        W75101  33.532   5.798   4.294
15599W        W75102  22.145  24.159   4.832
15600W        W75103  34.008   7.205  14.773
15601W        W75104  34.080  20.263   2.688
15602W        W75105  17.706   1.756   3.347
15603W        W75106   1.324   5.338   3.191
15604W        W75107  24.015  30.916  14.766
15605W        W75108  44.325   6.323   4.721
15606W        W75109   6.425  43.327  10.558
15607W        W75110  44.371  42.907   4.671
15608W        W75111  36.507  41.878  14.315
15609W        W75112  22.024  17.569   1.349
15610W        W75113  16.175  13.113  12.490
15611W        W75114  36.859  11.708  11.855
15612W        W75115  19.590  23.496  14.282
15613W        W75116   8.876  17.750   2.301
15614W        W75117   6.752   4.911   3.310
15615W        W75118   6.222  25.007   9.959
15616W        W75119  14.104  11.224  12.869
15617W        W75120  30.505  32.894  10.558
15618W        W75121  36.534   1.353   3.232
15619W        W75122  23.110  21.519  11.918
15620W        W75123  42.912  16.231   1.399
15621W        W75124   4.332  12.765  14.488
15622W        W75125  22.580  12.738  12.985
15623W        W75126  22.639  22.242  10.483
15624W        W75127  15.123  11.261   3.336
15625W        W75128  29.551  39.421  14.961
15626W        W75129  31.603  38.565  14.031
15627W        W75130  21.670   9.847   2.781
15628W        W75131   8.873  29.441   3.290
15629W        W75132  12.352  40.924   3.342
15630W        W75133   6.283  32.969  10.999
15631W        W75134  24.016  15.293   1.347
15632W        W75135  43.332   4.735   3.749
15633W        W75136  37.415  17.275   1.297
15634W        W75137   3.351  38.516  11.060
15635W        W75138   0.820  36.851  11.968
15636W        W75139  44.463   2.234   2.678
15637W        W75140  38.326  35.951   2.344
15638W        W75141  11.748   7.676  12.049
15639W        W75142   9.823  15.150   1.920
15640W        W75143  22.015   1.746   2.841
15641W        W75144  25.141  40.045  14.466
15642W        W75145   4.714   4.233   1.210
15643W        W75146   6.861  18.706  11.423
15644W        W75147  14.156   0.761   1.228
15645W        W75148  39.824  26.547  14.291
15646W        W75149  40.440  23.725  14.425
15647W        W75150  20.262  41.006  12.548
15648W        W75151  40.382  28.028   0.432
15649W        W75152  16.148  33.535  12.039
15650W        W75153  34.386   5.846  11.381
15651W        W75154  12.778  27.979  14.796
15652W        W75155   3.288  42.324  13.849
15653W        W75156  36.353  11.635   5.241
15654W        W75157  18.098  28.929   3.645
15655W        W75158  40.039  38.023   3.687
15656W        W75159  32.504  23.505   5.265
15657W        W75160  26.583  15.116  14.945
15658W        W75161   6.917  24.560   4.336
15659W        W75162  11.293  29.969   5.118
15660W        W75163  43.322   2.377   0.935
15661W        W75164   0.490  41.877  10.490
15662W        W75165  43.920  33.085  14.821
15663W        W75166  21.241  29.440   4.271
15664W        W75167  40.950  14.237  13.968
15665W        W75168  42.803  30.442   4.828
15666W        W75169  23.000  13.625  13.033
15667W        W75170  12.624  11.258   3.191
15668W        W75171  28.004  32.071  12.383
15669W        W75172  40.461  43.506  13.457
15670W        W75173  30.464  22.995  13.496
15671W        W75174  40.400  20.167  13.980
15672W        W75175  38.963  24.689  11.468
15673W        W75176  33.590  39.350  12.972
15674W        W75177  43.425  25.126   0.837
15675W        W75178  23.604  29.581   0.804
15676W        W75179  16.198  23.178  11.985
15677W        W75180   5.842  12.306  11.411
15678W        W75181   2.840  16.167   3.283
15679W        W75182   8.213  13.714  10.155
15680W        W75183  15.312  20.639   4.716
15681W        W75184  16.702  41.343  13.520
15682W        W75185  25.565  12.163  13.989
15683W        W75186  21.688  27.158  12.905
15684W        W75187  41.942  39.912  13.970
15685W        W75188  33.108  16.708   4.250
15686W        W75189  41.996  41.304  11.999
15687W        W75190  18.625  10.358   9.963
15688W        W75191  37.053  29.137  12.087
15689W        W75192  27.975  30.964  12.470
15690W        W75193  39.989  31.405   2.665
15691W        W75194  19.568  27.079  13.434
15692W        W75195  14.766  14.753   1.367
15693W        W75196   9.194  17.626  13.536
15694W        W75197   2.433   7.691   1.427
15695W        W75198  22.244   4.789  14.889
15696W        W75199  18.086  23.051   3.165
15697W        W75200  22.209  23.503  14.307
15698W        W75201  40.875  42.294  14.925
15699W        W75202   6.787  14.228  14.971
15700W        W75203  44.759   3.322  13.513
15701W        W75204  17.304  30.493  13.850
15702W        W75205  12.359   0.788   0.837
15703W        W75206  42.395   3.317  14.307
15704W        W75207   8.747  41.444   3.155
15705W        W75208  27.094  22.034  10.558
15706W        W75209  24.199   6.306  13.422
15707W        W75210  22.138  15.668   4.154
15708W        W75211  10.660  27.151   1.257
15709W        W75212  15.117  35.552   0.284
15710W        W75213  25.982  13.301   1.906
15711W        W75214  13.709  13.255   1.435
15712W        W75215  22.069  14.656  14.277
15713W        W75216  33.513   8.273  14.840
15714W        W75217   8.719   7.720  13.978
15715W        W75218   7.907  43.829  12.447
15716W        W75219  39.885  42.961   1.387
15717W        W75220  35.573  14.590  14.323
15718W        W75221  36.918   4.828  10.941
15719W        W75222  38.036  30.601  12.898
15720W        W75223  41.035   4.336  13.351
15721W        W75224   0.849  28.456   1.284
15722W        W75225   2.333  10.800   2.207
15723W        W75226   7.696   6.840   4.788
15724W        W75227  34.490  30.561   0.884
15725W        W75228  27.941  19.716  12.940
15726W        W75229  43.818  11.135   2.800
15727W        W75230  38.529  14.786  12.069
15728W        W75231  33.464  18.770  14.967
15729W        W75232  30.605  33.911  14.850
15730W        W75233  30.530  25.620  13.433
15731W        W75234   6.714  21.218   1.272
15732W        W75235  14.774  15.087  12.948
15733W        W75236  34.607   8.386   2.400
15734W        W75237  17.610  17.212   4.291
15735W        W75238   2.363  42.299   2.405
15736W        W75239  36.864  18.055   4.140
15737W        W75240  15.582  25.011  14.025
15738W        W75241  42.325  44.915  14.329
15739W        W75242  18.179   3.390   3.725
15740W        W75243  35.376  21.059  13.994
15741W        W75244  42.853  36.546   1.795
15742W        W75245   2.828   3.830  14.484
15743W        W75246  19.227  29.087   3.688
15744W        W75247   8.719   9.382  12.434
15745W        W75248  36.091   3.302  13.928
15746W        W75249  12.182  30.941   4.804
15747W        W75250  32.941  15.815  13.309
15748W        W75251  28.962   6.839   4.779
15749W        W75252   3.220  23.069  14.948
15750W        W75253  34.534  26.683   1.880
15751W        W75254  39.043   0.486  10.469
15752W        W75255  16.155  32.002   3.852
15753W        W75256  35.931  43.997   2.883
15754W        W75257   2.721  33.565   3.350
15755W        W75258  16.266  25.546   4.263
15756W        W75259  26.558  24.720   1.369
15757W        W75260   6.719  31.989  13.893
15758W        W75261   7.717  28.119  11.915
15759W        W75262  26.106  35.443  14.872
15760W        W75263   2.395  33.612  12.442
15761W        W75264  42.520  17.233  12.365
15762W        W75265  28.573  24.595  12.016
15763W        W75266  44.362  32.886   2.279
15764W        W75267  37.890  25.982  12.550
15765W        W75268  42.373   1.942   3.863
15766W        W75269  19.774   8.659  14.876
15767W        W75270  44.801  35.511  14.455
15768W        W75271  10.164  42.992   2.337
15769W        W75272  11.187  12.302  10.626
15770W        W75273   9.392  29.979  11.964
15771W        W75274  40.493  21.186   0.921
15772W        W75275  11.633  19.107   0.243
15773W        W75276  36.460  33.558   4.352
15774W        W75277   7.740   7.736   4.793
15775W        W75278  42.321  22.155  13.827
15776W        W75279  15.716  10.212   1.855
15777W        W75280  27.476  29.446   1.336
15778W        W75281  13.279   9.853  11.944
15779W        W75282  41.473  26.177   0.304
15780W        W75283  42.376   4.798  11.420
15781W        W75284  34.035  43.323   1.891
15782W        W75285  36.580  37.018  13.020
15783W        W75286  42.925  32.954  10.615
15784W        W75287   0.408   2.323  13.050
15785W        W75288   0.823  12.168  11.976
15786W        W75289   9.668  16.232  12.477
15787W        W75290  23.153  15.279  11.937
15788W        W75291  32.549  37.368   2.262
15789W        W75292  27.502  35.401   3.375
15790W        W75293  10.372  30.929   0.817
15791W        W75294  14.794  39.811  10.549
15792W        W75295  17.779  14.663  11.059
15793W        W75296  31.502  25.187  13.937
15794W        W75297  24.707   4.322   4.642
15795W        W75298  17.756   5.325  13.371
15796W        W75299  24.994   1.774   0.738
15797W        W75300  16.191  40.879   0.731
15798W        W75301   1.384   0.871  12.393
15799W        W75302   8.283  37.465   1.419
15800W        W75303  40.971   3.888   2.265
15801W        W75304  41.846   6.815   4.750
15802W        W75305   7.828   8.758  12.369
15803W        W75306  38.848  16.706   4.185
15804W        W75307  40.890  36.888   4.810
15805W        W75308  39.332   6.205   3.708
15806W        W75309  21.621  26.627   4.125
15807W        W75310  33.899  31.150   0.823
15808W        W75311  28.611  27.062   9.528
15809W        W75312  21.205  29.053  12.548
15810W        W75313  36.959  39.053  13.403
15811W        W75314  41.335  31.008   5.210
15812W        W75315  34.017  23.730  11.986
15813W        W75316  19.690  29.101   2.236
15814W        W75317  26.654  10.809   3.684
15815W        W75318  12.733  17.070   1.760
15816W        W75319  16.805   5.313  12.548
15817W        W75320   9.253  18.116  12.531
15818W        W75321  22.038  22.623   2.239
15819W        W75322  32.076   1.429   2.304
15820W        W75323   4.287  39.385  14.425
15821W        W75324   8.800  30.044   1.332
15822W        W75325  24.662  19.178   3.775
15823W        W75326  42.389   2.887  11.048
15824W        W75327   8.673  40.408   3.784
15825W        W75328  31.561  22.560  12.999
15826W        W75329  17.296  11.339  14.420
15827W        W75330  42.522  41.438  14.897
15828W        W75331  14.109  18.767  13.845
15829W        W75332  21.230  29.424   3.363
15830W        W75333  16.124   0.806  12.476
15831W        W75334  15.171   3.920  14.504
15832W        W75335  32.911  32.635   1.407
15833W        W75336  25.538  30.908   4.734
15834W        W75337  12.836  41.849   1.910
15835W        W75338   4.399  35.436   3.239
15836W        W75339  17.603  24.210   1.796
15837W        W75340  41.042  43.879  14.818
15838W        W75341  20.588   1.473  12.973
15839W        W75342  26.200  16.281   1.286
15840W        W75343  27.147  37.979   3.745
15841W        W75344  12.208   5.786  11.376
15842W        W75345  32.611  22.561  10.982
15843W        W75346  22.229  32.605   1.296
15844W        W75347  37.471  38.968  13.349
15845W        W75348   9.741  44.478   1.776
15846W        W75349  43.988  22.519  11.888
15847W        W75350   8.680  15.744   1.395
15848W        W75351  11.778  27.523  14.436
15849W        W75352  29.144  36.451  10.141
15850W        W75353  24.684  29.657   1.406
15851W        W75354  37.892  12.667  13.359
15852W        W75355  41.389  10.337   4.249
15853W        W75356  44.439   1.410  10.546
15854W        W75357  34.918  21.130   1.382
15855W        W75358  10.852  43.488  12.029
15856W        W75359   7.334  30.075  14.859
15857W        W75360  33.450  23.173  13.452
15858W        W75361  36.566  30.021   0.443
15859W        W75362  31.594  20.127  13.996
15860W        W75363  22.122  27.050   0.257
15861W        W75364  32.942  34.595  13.408
15862W        W75365   2.856  14.642   4.340
15863W        W75366  44.928  37.407  14.333
15864W        W75367  25.629  40.426  10.890
15865W        W75368  15.810  19.734  12.981
15866W        W75369  34.039  25.545   3.189
15867W        W75370  36.567  11.680  11.114
15868W        W75371  17.562  33.089  11.396
15869W        W75372  37.425  30.981   1.414
15870W        W75373  36.927   9.805   3.337
15871W        W75374  26.097  23.055  12.829
15872W        W75375  24.161  10.258   5.122
15873W        W75376  14.628  15.191  14.951
15874W        W75377  15.099  22.232   0.750
15875W        W75378  37.017  12.769   1.839
15876W        W75379  15.231   0.471   0.261
15877W        W75380  27.975  23.722   1.705
15878W        W75381  40.389  11.341  10.575
15879W        W75382  37.947   1.880   2.781
15880W        W75383  27.132   9.691   2.357
15881W        W75384  31.558  19.672  10.606
15882W        W75385   8.255  27.986   3.371
15883W        W75386  18.189   0.809   1.343
15884W        W75387  29.002  24.515   3.156
15885W        W75388  26.951  32.083  13.961
15886W        W75389   9.672  42.478  14.796
15887W        W75390   8.290  27.604   3.281
15888W        W75391  40.410  34.423  11.609
15889W        W75392   0.459   3.852   2.780
15890W        W75393  10.730  10.771  11.067
15891W        W75394  24.486  23.074   3.634
15892W        W75395  25.662  20.544   0.435
15893W        W75396  43.336  35.514   1.355
15894W        W75397  26.054  23.569  14.926
15895W        W75398  35.032   4.721   1.384
15896W        W75399  40.519   2.305   3.652
15897W        W75400  28.958   2.252  11.890
15898W        W75401  34.061  38.835   0.732
15899W        W75402  14.727  17.281  14.347
15900W        W75403  37.839  33.009   0.368
15901W        W75404   8.281  33.468  13.472
15902W        W75405  24.532  36.086   3.335
15903W        W75406  34.977  25.034  12.429
15904W        W75407  24.682  14.740  12.530
15905W        W75408  44.798  14.172   0.901
15906W        W75409  19.568   9.829   4.800
15907W        W75410  30.519  16.164  10.417
15908W        W75411  16.124  39.483   0.260
15909W        W75412  14.335  36.002   3.168
15910W        W75413  42.862  34.439  13.902
15911W        W75414  16.737  18.570  10.420
15912W        W75415  26.701   5.796  13.502
15913W        W75416   0.317  18.563   0.433
15914W        W75417  43.825  44.505  14.915
15915W        W75418  37.430   7.907   4.200
15916W        W75419  43.479  40.024   0.452
15917W        W75420  35.061  38.872   2.392
15918W        W75421   5.789   4.367   4.142
15919W        W75422  19.634  18.759  14.448
15920W        W75423  11.823   3.822   4.734
15921W        W75424   4.718   2.452  10.958
15922W        W75425  29.445  37.565  12.002
15923W        W75426   3.267   6.356   1.735
15924W        W75427  44.823  30.971  10.577
15925W        W75428  28.599   1.797  11.438
15926W        W75429  20.623  34.552  14.492
15927W        W75430   6.800   7.184  10.596
15928W        W75431   4.232  28.117  14.513
15929W        W75432  14.779   1.286  11.050
15930W        W75433  23.604  21.565   1.255
15931W        W75434  29.088  15.117  13.400
15932W        W75435   7.709   9.871  12.383
15933W        W75436  25.082  26.600   2.336
15934W        W75437  32.024   9.360   1.818
15935W        W75438   6.224  27.678  14.413
15936W        W75439  44.848  42.865   2.862
15937W        W75440   3.801  15.154  14.970
15938W        W75441  28.663  31.446   2.283
15939W        W75442  16.130  26.529   0.799
15940W        W75443  37.507  36.080   1.848
15941W        W75444  30.159   8.163   2.322
15942W        W75445  38.837  34.089   3.370
15943W        W75446   8.379  37.462  14.437
15944W        W75447  44.761  27.564  14.963
15945W        W75448  28.181  41.874  14.025
15946W        W75449  20.747   0.854   3.637
15947W        W75450  17.192  36.952  12.928
15948W        W75451  19.102  31.986  10.471
15949W        W75452  33.565   4.742   4.764
15950W        W75453   1.747   9.754  14.948
15951W        W75454  11.161  17.615   2.678
15952W        W75455  44.960   1.473  12.009
15953W        W75456  24.613   0.462  13.977
15954W        W75457  33.410  15.128  12.975
15955W        W75458  30.009  10.699   4.297
15956W        W75459  15.590   9.391   2.286
15957W        W75460  17.092  14.716   1.821
15958W        W75461  18.558   4.723   2.191
15959W        W75462  26.659   5.902  11.584
15960W        W75463  43.854  24.030   0.932
15961W        W75464  39.053  12.832  11.410
15962W        W75465  24.662  31.599  13.539
15963W        W75466  15.101  22.663  14.455
15964W        W75467  10.214   3.935  14.809
15965W        W75468   1.392  28.077  13.916
15966W        W75469  43.433  35.516  13.509
15967W        W75470  23.108  41.904   4.160
15968W        W75471   2.273  29.441   4.277
15969W        W75472  16.678  30.090   3.213
15970W        W75473  34.964  18.681   5.248
15971W        W75474  34.436  10.212   1.371
15972W        W75475   5.816  36.912   2.241
15973W        W75476  15.804  35.991  11.090
15974W        W75477  19.697   6.831  12.996
15975W        W75478  21.149  17.642  11.124
15976W        W75479  38.010  14.231  11.398
15977W        W75480   3.432  18.738  10.930
15978W        W75481  14.723  10.361  14.504
15979W        W75482  38.430  23.705  12.863
15980W        W75483  18.168  36.059  14.951
15981W        W75484   4.219   5.803  12.468
15982W        W75485  22.554  18.598   2.842
15983W        W75486  10.210  34.961  11.479
15984W        W75487  29.109  10.762  10.988
15985W        W75488  20.045  15.090   4.655
15986W        W75489  41.380  31.932   0.766
15987W        W75490  26.049  14.628  14.500
15988W        W75491  27.649  43.434  13.062
15989W        W75492  26.583  23.002  13.890
15990W        W75493  44.884  18.770  13.341
15991W        W75494  37.859  37.510   1.868
15992W        W75495  44.434  14.701   5.120
15993W        W75496  26.142  25.580  13.360
15994W        W75497  24.483  41.427  13.475
15995W        W75498  29.425  23.554   1.256
15996W        W75499  14.273  44.837  13.051
15997W        W75500   0.325  34.923  10.536
15998W        W75501  29.506  40.975   0.731
15999W        W75502   7.705   0.455   3.384
16000W        W75503  32.073  19.199   2.250
16001W        W75504  34.953  18.785  12.464
16002W        W75505  31.098  42.314  14.966
16003W        W75506   8.668   9.797   2.411
16004W        W75507  25.196  39.890  12.941
16005W        W75508  42.346  16.655  12.850
16006W        W75509  26.486  17.725   0.735
16007W        W75510  41.865  35.036  14.434
16008W        W75511   1.257  28.550  12.897
16009W        W75512  42.899  26.107  11.900
16010W        W75513   1.378  26.978  14.966
16011W        W75514   7.775   4.339   3.863
16012W        W75515  33.578  33.075  13.958
16013W        W75516  21.586  21.184   2.381
16014W        W75517  20.558  35.544   3.203
16015W        W75518  31.595   6.788   0.949
16016W        W75519   1.927  15.678  12.477
16017W        W75520  36.008   8.233   2.305
16018W        W75521  38.978  34.416  13.878
16019W        W75522  21.190  21.089   0.311
16020W        W75523  19.134  25.578   1.415
16021W        W75524  36.449  40.306   0.809
16022W        W75525   2.428  39.537  12.550
16023W        W75526  29.024  38.013   0.924
16024W        W75527  29.462   6.789  14.772
16025W        W75528  38.915  16.288  14.374
16026W        W75529  33.884  18.711   1.272
16027W        W75530  32.002  25.122  14.768
16028W        W75531  24.005  13.318   5.091
16029W        W75532   5.866  28.960  12.400
16030W        W75533  34.116  39.937   5.293
16031W        W75534   7.837  44.798   0.813
16032W        W75535  10.196   8.382  11.415
16033W        W75536   8.831  10.189  10.517
16034W        W75537  44.760  24.677  12.070
16035W        W75538  33.580   6.408  10.572
16036W        W75539  23.003  28.541  11.595
16037W        W75540  38.453  18.127   4.145
16038W        W75541  34.872  17.181  14.346
16039W        W75542  33.092   2.785  13.387
16040W        W75543  40.520  42.333   0.464
16041W        W75544  16.753  18.655   4.157
16042W        W75545   3.860   6.810  14.771
16043W        W75546  44.988  22.668   5.266
16044W        W75547  29.503   3.714  13.037
16045W        W75548  38.047  15.595  11.032
16046W        W75549  35.069  18.661  12.008
16047W        W75550  44.874  10.190   2.872
16048W        W75551  43.464  39.527  14.797
16049W        W75552   8.304  12.701  11.882
16050W        W75553   2.271  36.043   2.404
16051W        W75554  23.644  14.181  10.957
16052W        W75555  17.744  13.811   3.328
16053W        W75556  36.028  42.494   3.643
16054W        W75557  35.361   0.848   3.826
16055W        W75558  10.380  43.891   0.878
16056W        W75559  44.008   7.275  13.866
16057W        W75560  30.126  24.197  11.111
16058W        W75561  38.407  27.037  11.577
16059W        W75562  27.135   2.230  11.559
16060W        W75563  13.808  40.322  14.325
16061W        W75564  24.717  10.307  12.016
16062W        W75565  12.772  35.885   2.769
16063W        W75566  42.906  37.485  13.845
16064W        W75567  27.669   9.323   1.767
16065W        W75568  10.179  41.829  12.376
16066W        W75569   7.369  31.638  12.920
16067W        W75570  38.845  36.495  13.481
16068W        W75571   0.251  42.944  13.348
16069W        W75572  14.658   3.857  13.313
16070W        W75573  36.862   6.201  14.299
16071W        W75574  18.099  14.182   4.749
16072W        W75575  20.762  20.030   0.453
16073W        W75576   2.930  10.215   1.780
16074W        W75577  20.542  20.586  11.451
16075W        W75578   1.306   3.321  14.313
16076W        W75579  17.801  12.777  11.454
16077W        W75580  31.145   7.234  10.593
16078W        W75581  21.724  21.251  14.340
16079W        W75582  26.554  12.682   4.138
16080W        W75583  19.637   5.197  14.858
16081W        W75584  30.022  18.172  13.943
16082W        W75585  27.970   2.802  13.012
16083W        W75586   7.254  32.587   1.823
16084W        W75587  32.064   4.765  14.291
16085W        W75588  19.210  39.910  11.529
16086W        W75589  38.471  33.404   3.835
16087W        W75590  39.992  12.297  10.617
16088W        W75591  27.009  15.122  10.935
16089W        W75592  36.929   5.930   1.261
16090W        W75593   9.798  41.904  13.476
16091W        W75594   9.214  19.178   2.871
16092W        W75595  25.655   1.292   2.666
16093W        W75596  13.260  23.994   0.417
16094W        W75597  18.240   8.797   1.810
16095W        W75598  10.836  34.545  14.842
16096W        W75599  44.954  40.933   1.841
16097W        W75600  32.567  18.242  10.900
16098W        W75601  37.377  14.198  10.450
16099W        W75602  32.045  40.921   0.244
16100W        W75603   2.741  29.641   3.384
16101W        W75604  17.612  31.027  13.448
16102W        W75605   8.393  43.478   2.208
16103W        W75606  25.006  35.372  14.015
16104W        W75607  41.461  25.998  14.955
16105W        W75608  31.411  35.060   5.162
16106W        W75609  11.767  27.969   0.393
16107W        W75610  26.066  39.908  13.533
16108W        W75611  10.670  12.797  14.938
16109W        W75612  39.426  12.630  14.801
16110W        W75613  34.044  19.564  11.057
16111W        W75614  36.080  41.473   1.425
16112W        W75615   2.418  25.981   0.876
16113W        W75616  25.476  32.540   4.237
16114W        W75617   8.318   5.328  14.973
16115W        W75618   6.262  21.643   0.463
16116W        W75619  37.490  18.240  13.313
16117W        W75620   8.354  15.604   3.648
16118W        W75621  37.492   7.300  12.015
16119W        W75622  14.298   0.746   2.767
16120W        W75623  23.654  44.997   4.814
16121W        W75624  43.330   5.335   2.328
16122W        W75625  32.401  15.713   2.890
16123W        W75626  30.976  39.930  11.400
16124W        W75627  31.065  41.821  12.371
16125W        W75628  33.589   6.826  11.523
16126W        W75629  44.834  26.186  12.066
16127W        W75630   6.338  22.245  13.448
16128W        W75631  22.173  44.796   5.094
16129W        W75632  42.896   8.759  13.061
16130W        W75633  25.650  43.021  12.865
16131W        W75634   5.830  41.015   1.247
16132W        W75635  17.676  35.085  12.066
16133W        W75636  17.651  24.996   1.290
16134W        W75637   0.442  43.891   1.378
16135W        W75638  25.171   9.822   3.288
16136W        W75639  37.545   7.900   2.869
16137W        W75640   7.201  35.367  10.537
16138W        W75641  11.214   6.240   0.434
16139W        W75642   8.833  21.228  11.103
16140W        W75643   7.203  43.992   3.299
16141W        W75644   7.684  18.158  11.028
16142W        W75645  32.897  11.214  11.528
16143W        W75646  42.320  37.872   3.739
16144W        W75647  20.046  28.959   1.436
16145W        W75648  27.971  24.158  12.884
16146W        W75649  10.859  23.226  11.110
16147W        W75650  43.766  12.340  11.106
16148W        W75651  24.050  28.658  11.462
16149W        W75652  34.935   8.334  13.349
16150W        W75653  41.820   8.171  11.458
16151W        W75654  22.643  14.617  11.993
16152W        W75655  28.515  32.013   3.642
16153W        W75656  22.090  24.046   3.248
16154W        W75657  38.487  24.710  13.851
16155W        W75658  30.093  14.809   1.897
16156W        W75659  16.213  15.688  14.424
16157W        W75660  15.168   3.795   0.252
16158W        W75661  15.716  32.575  13.472
16159W        W75662  24.106  34.417   0.797
16160W        W75663  32.956  14.331   1.867
16161W        W75664  12.174   8.308  14.824
16162W        W75665   5.773  44.404  13.480
16163W        W75666  29.573   4.847  10.030
16164W        W75667   8.385  22.613   3.787
16165W        W75668  31.495  40.018  13.888
16166W        W75669  22.088  38.821   0.833
16167W        W75670  25.145  21.598  10.928
16168W        W75671   3.716  30.475   4.177
16169W        W75672  23.989   9.740   0.324
16170W        W75673  25.675  22.601  11.421
16171W        W75674   0.931  38.002  10.933
16172W        W75675   2.435  21.127   1.792
16173W        W75676  24.191  37.531   2.742
16174W        W75677  36.083  26.103  12.578
16175W        W75678  18.190  36.901   4.201
16176W        W75679  10.345  15.110   2.191
16177W        W75680   5.415  15.252  13.919
16178W        W75681  29.572  34.980   0.249
16179W        W75682   1.795  20.215   0.314
16180W        W75683  15.620  39.035   4.306
16181W        W75684  13.838  41.043   1.758
16182W        W75685   7.415  14.219  13.380
16183W        W75686   7.731  43.293  12.356
16184W        W75687  12.213  26.083  14.368
16185W        W75688  30.640  36.866  12.038
16186W        W75689  44.465  41.344   5.156
16187W        W75690   6.916  22.529   4.683
16188W        W75691  23.708  35.546  11.892
16189W        W75692  34.988  24.493  13.440
16190W        W75693  37.432  36.526   2.232
16191W        W75694   7.411  20.558   3.647
16192W        W75695  34.474  13.282   4.165
16193W        W75696  15.744  10.142  11.891
16194W        W75697   8.804  10.303   3.349
16195W        W75698  44.470  28.506   1.837
16196W        W75699   7.369   0.984   2.864
16197W        W75700  18.226  40.933  12.359
16198W        W75701  14.764  26.160  14.956
16199W        W75702   7.858  16.607  11.603
16200W        W75703  38.063  37.513  14.906
16201W        W75704  40.955  22.008   0.424
16202W        W75705   9.225  22.738  12.851
16203W        W75706   0.766  25.095  12.029
16204W        W75707  43.391  21.237   0.435
16205W        W75708  28.074   4.845   0.771
16206W        W75709  31.088  28.583   4.815
16207W        W75710  39.369  41.920   3.639
16208W        W75711  13.744  42.005  14.429
16209W        W75712  24.006  22.502  11.860
16210W        W75713  39.996   8.685   0.411
16211W        W75714  38.517  28.062  12.849
16212W        W75715  41.912  38.044   1.853
16213W        W75716  25.195   9.813  13.851
16214W        W75717  27.983   1.826   1.847
16215W        W75718  43.865  13.696  11.004
16216W        W75719  22.553   5.839  11.543
16217W        W75720   0.279   6.880  13.513
16218W        W75721   0.449  16.749   5.314
16219W        W75722   2.318  14.145   1.806
16220W        W75723  38.557   3.365   3.188
16221W        W75724  43.392  37.413   4.832
16222W        W75725  34.463  32.005  13.840
16223W        W75726  37.905  34.415   3.765
16224W        W75727  22.637  29.011  11.496
16225W        W75728  13.174  14.598  13.965
16226W        W75729  21.054  12.131   2.414
16227W        W75730  42.904  43.898   4.216
16228W        W75731  13.126   4.931   9.969
16229W        W75732  32.559   4.785  14.467
16230W        W75733   6.896  25.550   3.187
16231W        W75734  44.855   0.916   0.408
16232W        W75735  23.052  40.400   3.302
16233W        W75736  36.852  34.895   0.477
16234W        W75737  12.763  19.099  11.070
16235W        W75738  23.633  18.175  12.523
16236W        W75739  30.543  23.986   2.679
16237W        W75740  28.453  33.989  11.101
16238W        W75741  44.412  34.585  12.545
16239W        W75742  26.645  19.706   2.785
16240W        W75743  20.751  41.862   2.316
16241W        W75744   7.218  13.799   3.778
16242W        W75745  34.983   2.907  12.941
16243W        W75746  39.943   3.831   1.768
16244W        W75747   8.765  24.974  11.382
16245W        W75748  13.701  15.154   1.283
16246W        W75749  37.426   6.857   1.848
16247W        W75750  39.029  43.382  12.938
16248W        W75751  30.999  25.543   4.114
16249W        W75752  20.603  27.104  12.068
16250W        W75753   4.244   2.946   3.339
16251W        W75754  33.554   8.757   3.346
16252W        W75755  44.383  24.118  14.779
16253W        W75756  43.943  42.509   3.797
16254W        W75757  40.909  39.481   1.346
16255W        W75758   7.295   3.249   0.932
16256W        W75759  36.383  29.655   9.927
16257W        W75760   7.242  24.070  11.453
16258W        W75761   5.913  14.723  13.944
16259W        W75762  33.947  35.065   0.898
16260W        W75763  20.635  34.375   1.730
16261W        W75764  41.383  44.883   4.726
16262W        W75765  16.102  42.444  12.460
16263W        W75766  10.260  31.532  10.513
16264W        W75767   7.712   2.394   1.908
16265W        W75768  22.127  26.620  13.500
16266W        W75769  33.596  23.735  14.884
16267W        W75770  36.960   5.799  12.383
16268W        W75771  11.740  19.668  12.916
16269W        W75772  38.904  11.315   0.266
16270W        W75773  18.138   0.297   3.766
16271W        W75774  35.602  37.520   1.740
16272W        W75775   4.942  14.821  13.997
16273W        W75776   2.877   7.311   1.719
16274W        W75777  14.831  12.680  10.425
16275W        W75778  44.967  26.658   0.243
16276W        W75779  20.642   1.903  12.857
16277W        W75780  18.073  11.759   0.438
16278W        W75781  29.469  30.603   1.694
16279W        W75782  25.138  10.298   3.334
16280W        W75783  21.580  23.517   1.318
16281W        W75784  20.700  22.597   2.672
16282W        W75785  35.030  31.013  13.886
16283W        W75786  40.321  22.614   4.199
16284W        W75787  18.163  31.037   3.661
16285W        W75788  22.107   4.417  10.960
16286W        W75789  14.785  39.892  13.321
16287W        W75790   1.282  30.502   1.894
16288W        W75791  33.558  30.526   0.907
16289W        W75792  16.134  33.621   1.714
16290W        W75793  40.022  33.549   2.394
16291W        W75794  24.157  19.209  14.871
16292W        W75795   6.356  25.127  10.954
16293W        W75796  24.544  20.585  12.867
16294W        W75797  42.422  42.505   3.740
16295W        W75798  19.120   0.321   0.247
16296W        W75799  14.718   8.332  14.333
16297W        W75800  32.007   7.721   4.760
16298W        W75801  27.600  15.577  14.828
16299W        W75802  34.512  43.000  12.068
16300W        W75803   9.333   5.753  12.471
16301W        W75804  13.623  31.442   1.276
16302W        W75805  21.687  22.122  12.341
16303W        W75806  25.552  19.610  12.372
16304W        W75807  35.398   5.291   5.086
16305W        W75808  18.575  27.145  12.514
16306W        W75809  43.938  37.408   4.759
16307W        W75810  31.458  27.974   2.356
16308W        W75811  39.430  36.961   3.677
16309W        W75812  38.404  12.140   3.266
16310W        W75813   1.463   3.946   4.129
16311W        W75814  32.413  19.668   3.702
16312W        W75815  22.647  35.387  14.798
16313W        W75816  12.754   3.379   0.338
16314W        W75817   3.448  34.957   2.838
16315W        W75818  28.499  16.745   4.116
16316W        W75819   3.405   5.353   2.834
16317W        W75820  35.077   7.711   0.464
16318W        W75821  16.728  28.132  14.952
16319W        W75822  44.293  41.488   2.721
16320W        W75823  18.790  44.880  13.909
16321W        W75824  37.366  41.387   2.286
16322W        W75825  38.333  10.359  14.440
16323W        W75826  18.737   9.168  11.121
16324W        W75827  35.983  37.341   3.841
16325W        W75828  20.760  41.007  14.401
16326W        W75829  18.181  32.104   1.274
16327W        W75830  29.573  16.610   2.814
16328W        W75831  42.342  37.074   4.679
16329W        W75832   4.849  30.596  10.549
16330W        W75833   8.337  23.593  14.417
16331W        W75834  27.546  12.298   3.351
16332W        W75835  42.406  11.689   3.314
16333W        W75836  25.590   3.776  11.890
16334W        W75837  10.829  31.451   1.386
16335W        W75838   7.826  19.164  11.949
16336W        W75839  23.991  32.088   9.985
16337W        W75840  22.608  42.384  12.919
16338W        W75841  11.863  12.263   3.275
16339W        W75842  19.182  13.326  13.525
16340W        W75843  12.815  39.926   1.749
16341W        W75844   3.255   7.326   4.285
16342W        W75845  25.640  28.052  13.339
16343W        W75846  35.364  23.201   4.221
16344W        W75847  25.507  42.839   4.738
16345W        W75848  24.205  12.178   1.357
16346W        W75849  19.263   9.864   4.186
16347W        W75850  11.777  33.619  11.596
16348W        W75851  17.693  39.476   2.312
16349W        W75852  18.202   6.769   4.251
16350W        W75853   5.299  31.581   3.656
16351W        W75854  14.601  33.099  12.936
16352W        W75855   4.362  22.717   4.715
16353W        W75856  27.592  37.987   4.208
16354W        W75857   7.815  39.443   2.403
16355W        W75858  27.189  27.052   5.782
16356W        W75859  27.155  37.422  11.448
16357W        W75860   7.170  25.143  10.417
16358W        W75861  19.130  22.148   1.281
16359W        W75862  27.987  37.418   1.420
16360W        W75863  43.333  32.052  14.395
16361W        W75864  12.248  11.795  11.386
16362W        W75865  27.947  43.978  10.944
16363W        W75866  20.743  14.685  14.813
16364W        W75867   6.880  40.534  14.471
16365W        W75868  36.468   6.252   9.973
16366W        W75869  43.317  10.338   1.869
16367W        W75870  19.711  23.136  12.993
16368W        W75871  42.431  13.681  10.557
16369W        W75872  33.555  30.467  11.987
16370W        W75873  39.883  10.200   0.372
16371W        W75874  37.537  25.087   1.278
16372W        W75875  43.769   0.920  14.898
16373W        W75876  31.904  16.774  14.840
16374W        W75877  37.495  15.619   0.343
16375W        W75878   5.695  24.511  13.471
16376W        W75879   4.428  41.787  13.348
16377W        W75880  31.953  36.945   3.151
16378W        W75881   9.245  23.069   3.189
16379W        W75882   4.745   7.200  13.836
16380W        W75883  12.172  42.366  12.030
16381W        W75884   0.807  39.841  10.612
16382W        W75885   1.940  13.607   2.702
16383W        W75886  44.483  23.041  14.439
16384W        W75887   2.774   7.673   4.237
16385W        W75888  37.067  23.209   1.428
16386W        W75889  42.855  11.325  12.519
16387W        W75890   4.262   8.886   1.801
16388W        W75891  37.874   4.286   3.349
16389W        W75892  24.666  11.371  11.084
16390W        W75893  41.450  36.559  12.055
16391W        W75894   9.245  14.257  11.489
16392W        W75895  13.244  21.517   0.247
16393W        W75896  38.895  15.694  12.458
16394W        W75897  18.777  13.748   1.782
16395W        W75898   2.457  26.022   4.697
16396W        W75899  38.435  35.595  11.915
16397W        W75900  12.811  18.110   0.909
16398W        W75901   9.278  41.360   1.255
16399W        W75902  37.899  31.514   1.856
16400W        W75903   0.428   1.276   4.689
16401W        W75904  11.780  28.175  14.382
16402W        W75905  22.685  27.952   3.298
16403W        W75906  15.314  21.262  14.822
16404W        W75907  39.946  19.650   1.381
16405W        W75908  10.303   4.214  10.930
16406W        W75909   7.282  36.537  12.964
16407W        W75910  18.217   4.353  12.516
16408W        W75911  38.495  39.836   2.270
16409W        W75912  44.344  36.993   4.640
16410W        W75913  14.628  19.688   2.868
16411W        W75914  12.133  34.498   2.761
16412W        W75915  29.005  19.041  14.779
16413W        W75916  36.538   8.796  11.983
16414W        W75917  24.072  12.636  10.086
16415W        W75918  16.600  22.192  12.967
16416W        W75919  30.436  26.669   0.735
16417W        W75920  42.018  17.233  11.547
16418W        W75921  24.559  11.309   3.648
16419W        W75922  39.855  43.022   2.370
16420W        W75923  24.993  26.658   1.731
16421W        W75924  12.177  20.610   2.802
16422W        W75925   7.267  20.108  14.364
16423W        W75926  29.639  12.174   1.377
16424W        W75927  15.819  26.140  11.466
16425W        W75928  31.576  12.699  12.554
16426W        W75929  37.858  30.988  11.125
16427W        W75930  25.041  12.807  14.457
16428W        W75931  29.929  20.719  13.861
16429W        W75932  24.724  34.393   1.222
16430W        W75933   5.927  37.054   3.640
16431W        W75934  33.995  22.697  14.775
16432W        W75935   2.470  16.738   1.810
16433W        W75936  20.620  34.991   0.255
16434W        W75937   9.729  35.573   2.242
16435W        W75938  26.003  11.836  12.973
16436W        W75939  44.941  31.124  10.056
16437W        W75940  11.724  30.524  13.346
16438W        W75941  13.221  11.772  14.377
16439W        W75942  25.608  27.162   3.672
16440W        W75943  19.133  26.207  13.492
16441W        W75944  31.495  12.298   2.302
16442W        W75945  16.659  25.688  13.884
16443W        W75946  12.339  26.193   2.300
16444W        W75947  39.507  22.558   2.818
16445W        W75948   8.174  26.690   1.709
16446W        W75949   2.912   5.405  14.281
16447W        W75950  15.805  36.547   0.844
16448W        W75951  32.135   1.849   0.838
16449W        W75952  21.664   7.226   1.221
16450W        W75953  44.000  19.072   0.922
16451W        W75954  36.486   5.197   3.842
16452W        W75955  34.401   4.940  13.874
16453W        W75956   1.277  42.881   0.326
16454W        W75957  11.751  41.475  14.439
16455W        W75958  37.418  29.060  11.452
16456W        W75959  43.452  42.511  11.494
16457W        W75960  29.437  17.649  10.569
16458W        W75961   0.321  32.124  12.851
16459W        W75962  36.017   1.780  14.288
16460W        W75963  29.012  19.748   3.380
16461W        W75964  39.930  29.596  14.976
16462W        W75965   7.394  11.764   1.226
16463W        W75966  13.694  11.290   1.381
16464W        W75967  40.308  31.938  14.395
16465W        W75968  30.044   7.801   4.154
16466W        W75969  41.966  42.335  14.497
16467W        W75970  29.068  26.017  12.567
16468W        W75971  28.186  41.026   2.887
16469W        W75972  40.832   7.734   1.757
16470W        W75973  40.002  35.976  13.008
16471W        W75974  33.420   3.218  11.886
16472W        W75975  39.065  36.483  12.474
16473W        W75976  28.975  29.106  12.539
16474W        W75977  11.148  12.127   4.830
16475W        W75978  40.477  12.789  10.967
16476W        W75979  37.576  33.407   2.279
16477W        W75980   5.844   2.361   1.912
16478W        W75981  31.083  33.921  13.795
16479W        W75982  23.090  37.851   1.935
16480W        W75983  44.453  24.165  10.149
16481W        W75984  10.184  13.654   4.178
16482W        W75985   8.385  34.885   5.306
16483W        W75986   3.432  39.429   4.220
16484W        W75987  12.718   3.329   0.956
16485W        W75988  12.678  34.029   2.372
16486W        W75989   1.362  19.595  14.759
16487W        W75990  26.482  42.984  11.530
16488W        W75991  39.849   0.311   2.278
16489W        W75992  11.195  31.930  14.402
16490W        W75993  34.594  26.081  13.892
16491W        W75994  41.872  29.516   1.769
16492W        W75995  38.430  11.698   3.239
16493W        W75996  15.281  30.487   4.244
16494W        W75997  28.593  25.035  10.150
16495W        W75998  27.528  23.134  11.980
16496W        W75999  30.017  22.687  10.967
16497W        W76000  41.972   2.749   2.700
16498W        W76001   3.458  37.985   3.333
16499W        W76002  29.058  10.811   3.354
16500W        W76003  35.514  24.653  13.502
16501W        W76004  41.307  26.005  10.477
16502W        W76005   3.268   9.389  12.418
16503W        W76006  23.202   8.874  13.910
16504W        W76007  14.264  12.156  14.852
16505W        W76008  19.067  43.917   4.254
16506W        W76009  42.970  29.105  13.521
16507W        W76010  19.158  29.157   2.820
16508W        W76011  29.099  25.214  11.582
16509W        W76012  42.522  33.531   0.829
16510W        W76013  13.603  15.147   0.452
16511W        W76014  14.219  10.863   3.842
16512W        W76015   1.395  33.601  11.904
16513W        W76016   7.885   1.466   2.365
16514W        W76017  15.647  40.483  13.333
16515W        W76018  41.864  34.981   5.215
16516W        W76019  22.167  19.061  12.376
16517W        W76020  25.143   5.400  14.021
16518W        W76021  15.786   2.274   0.266
16519W        W76022  40.327  21.179  11.971
16520W        W76023  19.701  31.517   1.375
16521W        W76024  36.917  38.369   0.952
16522W        W76025   4.931   3.373   4.138
16523W        W76026   2.807   3.763  11.069
16524W        W76027  29.965  17.124  10.557
16525W        W76028  29.960   9.180  12.492
16526W        W76029  33.523  12.261   2.209
16527W        W76030  43.436  23.589   2.719
16528W        W76031  34.511  43.846  12.576
16529W        W76032  13.727  42.367   2.298
16530W        W76033  12.702  44.318  12.526
16531W        W76034  11.333  19.208  13.027
16532W        W76035   9.823   6.914  12.848
16533W        W76036  29.010  37.081   0.905
16534W        W76037  42.972  12.796   1.813
16535W        W76038  42.803  22.216   4.157
16536W        W76039  22.676   9.769   1.391
16537W        W76040  41.506  28.160   4.677
16538W        W76041  13.115   7.214   3.196
16539W        W76042  25.677  36.892   0.287
16540W        W76043  17.078  17.590   4.829
16541W        W76044  29.437  42.964  11.048
16542W        W76045  22.538  25.647   2.247
16543W        W76046  15.787  30.952   3.786
16544W        W76047   0.744  23.222  14.420
16545W        W76048  11.130   0.745   4.236
16546W        W76049   3.455  36.355   4.684
16547W        W76050  29.630  27.941   4.784
16548W        W76051  11.183  31.534  14.299
16549W        W76052  15.636  25.117  11.985
16550W        W76053   0.933   7.257   0.916
16551W        W76054   7.872  38.362   1.904
16552W        W76055   7.699  19.727  10.438
16553W        W76056  40.486   6.786  10.584
16554W        W76057  20.648  11.370  13.934
16555W        W76058  25.162  37.921  13.490
16556W        W76059  43.767   7.890   0.730
16557W        W76060  30.082  21.723  10.499
16558W        W76061  42.363  16.571   4.838
16559W        W76062  20.673  36.477   0.772
16560W        W76063  32.936  34.065  11.864
16561W        W76064  26.520  25.606  13.885
16562W        W76065  15.652  20.272   2.734
16563W        W76066  10.633  17.074  11.412
16564W        W76067   7.328  28.984   4.252
16565W        W76068   9.761  36.383   4.185
16566W        W76069  15.125  16.649  11.423
16567W        W76070  10.849   1.249  10.963
16568W        W76071  24.640  43.948  13.792
16569W        W76072   1.736  18.163  13.480
16570W        W76073  28.647   5.814   0.951
16571W        W76074  11.804   3.247   1.236
16572W        W76075  34.374  19.072  10.447
16573W        W76076  31.978  14.239   0.262
16574W        W76077  15.141  42.427  11.600
16575W        W76078   2.230   0.330   1.861
16576W        W76079  11.285  30.417  10.585
16577W        W76080   3.359  26.511   5.791
16578W        W76081  40.359   8.685  10.088
16579W        W76082  20.606  16.189   3.169
16580W        W76083  30.574  43.967   3.834
16581W        W76084  20.061  33.602   9.928
16582W        W76085   8.667  34.411  13.406
16583W        W76086  34.581  32.128   1.840
16584W        W76087  28.949  40.896  10.912
16585W        W76088  41.487  43.902  10.455
16586W        W76089  42.868   5.428  10.892
16587W        W76090  28.959  11.825  14.911
16588W        W76091   5.932  23.607  11.924
16589W        W76092  26.970  40.877   2.186
16590W        W76093  41.489  11.751  13.470
16591W        W76094   7.733  44.394  14.790
16592W        W76095   6.386  41.882   1.291
16593W        W76096  24.570  23.046  13.961
16594W        W76097  43.011  14.244   0.480
16595W        W76098  18.642  23.543   2.871
16596W        W76099  33.391   2.770   5.170
16597W        W76100   2.762  36.519   0.737
16598W        W76101  42.861  27.094   3.335
16599W        W76102  11.211  29.498   0.300
16600W        W76103  30.046  31.530   3.855
16601W        W76104  36.887  42.509   4.677
16602W        W76105   8.199  33.992  10.931
16603W        W76106   9.315  33.444   1.362
16604W        W76107  35.496  20.652  12.983
16605W        W76108  18.665  24.679   4.621
16606W        W76109  41.384  43.308   3.761
16607W        W76110  26.463  10.836  12.892
16608W        W76111   6.738  37.919   3.306
16609W        W76112  33.022   0.286  10.485
16610W        W76113   6.814  29.471   1.277
16611W        W76114  24.688  41.487   1.750
16612W        W76115  32.606  23.142   3.374
16613W        W76116   9.364  27.688   2.777
16614W        W76117   7.272   3.264   5.118
16615W        W76118  15.327  37.005  10.480
16616W        W76119  13.318   4.218   3.374
16617W        W76120   0.837   1.735   2.185
16618W        W76121   1.328  32.546  13.359
16619W        W76122   8.854  40.499   0.367
16620W        W76123  18.648  35.425  13.391
16621W        W76124  33.910  26.614   1.233
16622W        W76125  38.854  38.421   4.218
16623W        W76126  40.797  22.174   3.757
16624W        W76127   9.212  30.538   2.790
16625W        W76128  12.633  15.106  12.566
16626W        W76129   7.237  15.244   2.273
16627W        W76130   8.299  24.171  13.885
16628W        W76131  42.374  22.167   0.869
16629W        W76132  44.886  28.139   0.823
16630W        W76133   9.333   2.433  13.968
16631W        W76134  41.793  25.976   4.770
16632W        W76135  42.885  38.458  10.063
16633W        W76136  35.933   2.814   4.654
16634W        W76137  23.180  11.687  11.899
16635W        W76138  41.533  22.077   4.149
16636W        W76139  34.081  15.795  11.446
16637W        W76140  44.791  40.397  14.353
16638W        W76141  24.973  33.030   9.948
16639W        W76142  31.943   6.347  10.992
16640W        W76143  44.855  43.002  11.542
16641W        W76144  12.248  34.019  13.857
16642W        W76145  11.661   7.710   0.728
16643W        W76146   8.229  13.784   4.228
16644W        W76147   3.326   1.908  12.924
16645W        W76148  28.446  14.670   0.377
16646W        W76149  13.305  22.112   3.360
16647W        W76150  14.193  15.211  13.366
16648W        W76151  29.536  11.287  14.435
16649W        W76152  36.965   4.850  11.531
16650W        W76153   7.829  16.732  14.426
16651W        W76154  22.630   2.321   0.824
16652W        W76155  15.311  40.303   4.793
16653W        W76156  30.650  43.287  11.600
16654W        W76157  36.558  13.221  13.007
16655W        W76158   2.260  43.886  12.954
16656W        W76159  35.460  32.474  11.908
16657W        W76160   7.759   0.837   5.261
16658W        W76161  30.126   6.872   4.821
16659W        W76162  38.904   0.431   3.812
16660W        W76163   2.882  30.446   2.206
16661W        W76164  21.200  33.929   2.390
16662W        W76165  18.641  30.470   1.717
16663W        W76166  22.563  25.142   4.171
16664W        W76167  25.129   0.419   2.246
16665W        W76168  11.132  12.622   4.695
16666W        W76169  38.825   5.919  12.086
16667W        W76170  30.045  18.655  12.559
16668W        W76171  29.470  11.275  14.836
16669W        W76172  35.537   6.323   2.365
16670W        W76173   0.460  14.670  11.997
16671W        W76174  14.708  26.953   1.385
16672W        W76175   2.913  31.925   3.283
16673W        W76176  10.350  25.102   3.260
16674W        W76177  37.073  28.012   3.222
16675W        W76178  42.009   8.286  12.469
16676W        W76179   9.761  42.015   3.688
16677W        W76180   6.821  14.597  12.499
16678W        W76181  22.712  20.144  12.070
16679W        W76182   2.465  15.818   0.794
16680W        W76183  39.996   0.824   3.736
16681W        W76184  44.399   8.749   2.394
16682W        W76185   4.872   4.382   2.773
16683W        W76186  27.621  27.644  14.840
16684W        W76187  18.261  42.418  10.939
16685W        W76188  39.821  23.165  12.970
16686W        W76189  39.333   7.320  10.896
16687W        W76190  19.761  24.721   1.921
16688W        W76191  23.580  40.903  13.792
16689W        W76192   2.413  40.945   9.971
16690W        W76193   5.438  27.157   2.831
16691W        W76194  38.970  37.987  10.411
16692W        W76195  30.123  36.574  11.517
16693W        W76196  42.784  36.393   1.228
16694W        W76197  24.479  18.173   3.175
16695W        W76198  39.908  43.348  12.983
16696W        W76199  39.461   2.239  11.503
16697W        W76200   8.685  19.773  14.350
16698W        W76201   8.377  14.591  12.880
16699W        W76202   4.894  23.590  13.054
16700W        W76203  32.576   1.977   4.804
16701W        W76204  38.331  42.407  11.070
16702W        W76205  37.051  13.688  13.369
16703W        W76206  44.909  32.407   2.326
16704W        W76207  36.466  29.995  10.963
16705W        W76208  13.191  41.509  12.463
16706W        W76209   2.340  38.369   0.304
16707W        W76210  13.196  20.040   4.118
16708W        W76211  20.138   1.741   4.640
16709W        W76212  24.521  22.628   4.348
16710W        W76213  12.789  28.592  13.451
16711W        W76214  35.590  36.533   5.249
16712W        W76215  33.591  21.720   1.825
16713W        W76216  19.251   6.337  10.425
16714W        W76217   5.279   4.447  10.997
16715W        W76218   2.896  29.593  12.888
16716W        W76219  24.047  39.504  14.792
16717W        W76220  41.473   5.208  10.119
16718W        W76221  32.936  32.528   3.745
16719W        W76222  12.640  22.088  10.590
16720W        W76223  24.575  22.621  12.871
16721W        W76224  20.574   4.719  14.783
16722W        W76225  44.481  42.351  12.991
16723W        W76226  25.631  21.236   5.109
16724W        W76227  12.642  25.628  11.416
16725W        W76228  22.706  39.974  12.860
16726W        W76229  18.583  30.923  11.109
16727W        W76230  39.389  21.580   2.765
16728W        W76231  34.531  12.660   5.110
16729W        W76232  29.529  14.118   3.374
16730W        W76233  25.168  27.189  11.610
16731W        W76234  18.172  35.514  10.485
16732W        W76235  35.462   6.801  11.594
16733W        W76236  21.141   7.290  11.922
16734W        W76237  16.750  32.467   1.276
16735W        W76238  24.031   6.828  14.373
16736W        W76239  31.464  16.234  13.946
16737W        W76240  21.549  15.326  14.020
16738W        W76241  40.822  42.022  11.397
16739W        W76242  22.036  41.029   3.255
16740W        W76243   9.848  38.959  13.967
16741W        W76244  37.439  35.508   0.755
16742W        W76245  38.062  18.621   4.145
16743W        W76246  36.983   3.868  13.905
16744W        W76247   5.297  42.490  13.923
16745W        W76248  37.453  35.985  10.147
16746W        W76249  40.523  26.008   4.616
16747W        W76250  41.848   8.866   3.252
16748W        W76251  34.540  17.285   2.783
16749W        W76252  11.310  31.984   1.746
16750W        W76253  23.055  33.976   3.781
16751W        W76254  33.467  41.841  14.778
16752W        W76255  16.721  32.930  10.997
16753W        W76256  29.654  38.540   4.683
16754W        W76257  21.155  35.601   2.349
16755W        W76258   6.840  17.076  11.020
16756W        W76259   1.857  15.802  14.779
16757W        W76260  22.184  34.966   2.805
16758W        W76261   3.229   5.430  11.115
16759W        W76262  16.244   4.738   3.742
16760W        W76263  12.346  14.635   2.383
16761W        W76264  38.885  19.559  13.336
16762W        W76265  13.215  12.673   9.947
16763W        W76266  40.401  12.216  14.771
16764W        W76267   7.834  26.700  10.578
16765W        W76268   0.336  35.470   3.162
16766W        W76269  15.205  34.062   3.240
16767W        W76270  38.837  24.203  11.396
16768W        W76271   5.757  27.985  12.883
16769W        W76272   6.835  30.488  12.870
16770W        W76273  44.852  12.684   1.914
16771W        W76274   6.314   9.787  13.933
16772W        W76275  32.547  15.212   1.370
16773W        W76276  28.005  35.906  12.855
16774W        W76277   0.976  38.547   1.352
16775W        W76278  25.575   9.653  10.507
16776W        W76279  44.971  28.132   0.459
16777W        W76280  37.486  10.280   0.476
16778W        W76281  23.239  30.973  14.436
16779W        W76282  24.641   3.270  13.869
16780W        W76283  37.868  30.065  13.926
16781W        W76284  10.139  20.147  13.033
16782W        W76285  42.942  18.731  14.799
16783W        W76286  23.683  33.517  10.410
16784W        W76287  17.769  15.726  11.525
16785W        W76288  26.205   6.237   4.161
16786W        W76289  17.721  34.051  12.422
16787W        W76290  36.392   5.819   4.268
16788W        W76291  41.798  29.940  14.864
16789W        W76292  40.008  22.578  13.374
16790W        W76293   2.851  13.745   3.855
16791W        W76294  44.880  43.931   1.276
16792W        W76295  19.650  25.177  11.926
16793W        W76296  43.008  26.984   4.649
16794W        W76297   6.767  43.774  11.029
16795W        W76298   8.778  19.698  11.894
16796W        W76299  22.708   2.364   2.744
16797W        W76300  33.934  17.284  14.793
16798W        W76301   3.935   8.350  12.914
16799W        W76302  16.640  26.185  10.520
16800W        W76303  20.583   2.397  10.942
16801W        W76304   2.360   3.248   3.150
16802W        W76305  40.514  43.778  14.403
16803W        W76306  42.524  24.199   3.714
16804W        W76307  28.967  31.971   2.901
16805W        W76308  32.626  43.960   0.810
16806W        W76309  31.454  41.795  11.559
16807W        W76310   6.919  43.432  14.889
16808W        W76311  12.632  36.851   4.702
16809W        W76312  13.127   1.822  11.005
16810W        W76313  15.262   0.488   3.192
16811W        W76314   0.870  14.328   1.914
16812W        W76315  25.678  12.762  13.025
16813W        W76316  15.638  27.605  14.014
16814W        W76317  15.177   4.366   2.189
16815W        W76318  25.079  37.564   2.813
16816W        W76319  30.414  43.353   0.407
16817W        W76320  42.423  15.688   1.417
16818W        W76321  24.533  24.718   1.418
16819W        W76322  40.425  13.646  13.375
16820W        W76323  25.509   4.223  13.373
16821W        W76324   3.749  12.772  14.353
16822W        W76325  11.171  41.302  13.404
16823W        W76326   7.297  44.772  13.034
16824W        W76327  20.142  17.223  10.574
16825W        W76328  17.668  15.808   1.393
16826W        W76329   2.321   2.311   3.768
16827W        W76330  17.124  40.348  11.049
16828W        W76331  18.642  25.617   1.834
16829W        W76332  17.749  41.863   4.204
16830W        W76333  39.829   3.284  14.502
16831W        W76334  32.561  15.738   1.801
16832W        W76335  14.804  18.682   4.354
16833W        W76336  16.740   6.704   3.844
16834W        W76337  29.143  35.910  12.487
16835W        W76338  22.708   2.770  12.540
16836W        W76339   3.239  30.639  13.000
16837W        W76340  32.994  19.272  11.909
16838W        W76341  10.160   5.376  13.904
16839W        W76342  31.505  11.209   1.832
16840W        W76343   6.341  14.261  13.919
16841W        W76344  24.009  44.761   4.633
16842W        W76345  29.981  39.534   1.335
16843W        W76346  40.948  10.161  11.972
16844W        W76347  10.301  13.680   2.861
16845W        W76348  38.562  12.827   4.826
16846W        W76349  29.559   0.908  13.479
16847W        W76350  18.154  29.557   3.698
16848W        W76351   0.960  28.121   1.418
16849W        W76352  27.165  38.403  10.557
16850W        W76353  32.027  41.955   3.787
16851W        W76354  19.708   9.334  11.947
16852W        W76355  23.613   4.221   0.459
16853W        W76356   8.281  44.980   2.685
16854W        W76357   3.881  25.162   0.257
16855W        W76358   1.754  26.115  13.835
16856W        W76359  24.075  31.543   0.882
16857W        W76360  25.036   9.847  10.408
16858W        W76361  44.809  43.769   2.402
16859W        W76362  40.393  18.733  12.856
16860W        W76363   0.878  15.722  11.580
16861W        W76364  24.029  22.056  14.029
16862W        W76365  29.988  43.310  12.952
16863W        W76366  19.647  19.047   0.762
16864W        W76367  40.515  40.503  14.992
16865W        W76368  44.799  10.367  12.529
16866W        W76369  38.551  21.134   4.264
16867W        W76370  11.338  11.344  13.365
16868W        W76371  10.228   7.707   2.769
16869W        W76372  10.379  36.945  11.894
16870W        W76373  40.934  38.074  11.517
16871W        W76374  20.633  20.045  11.046
16872W        W76375  18.090  24.571   1.845
16873W        W76376  37.931  34.610  14.861
16874W        W76377  23.106  41.431  14.992
16875W        W76378  41.816  38.938   3.709
16876W        W76379  22.677  38.545  12.356
16877W        W76380  29.491  21.047  10.437
16878W        W76381   3.342   9.260   4.787
16879W        W76382  36.589   3.897  12.075
16880W        W76383  30.534   6.825   4.282
16881W        W76384  43.281   8.200  14.344
16882W        W76385  18.682  31.998  10.012
16883W        W76386   5.289   0.327   1.884
16884W        W76387  30.113  12.646   3.323
16885W        W76388  28.506  31.448   1.810
16886W        W76389  27.668  30.955   3.324
16887W        W76390  42.867  31.019  10.480
16888W        W76391  29.015  25.510  11.040
16889W        W76392   3.256  13.143   4.170
16890W        W76393  36.917  37.022   0.462
16891W        W76394  31.072   9.652   1.309
16892W        W76395  44.893  25.021  12.351
16893W        W76396  39.951  36.062   0.323
16894W        W76397   4.923  26.003   5.187
16895W        W76398  32.133  11.268   1.804
16896W        W76399  10.829   2.731   2.759
16897W        W76400  17.752   6.868  10.614
16898W        W76401  28.068  13.306  14.988
16899W        W76402  24.565   6.205  13.038
16900W        W76403   1.747   4.301  13.040
16901W        W76404  32.408  15.666  14.367
16902W        W76405  12.615  27.484   2.781
16903W        W76406  39.382  42.960  13.539
16904W        W76407  15.746  13.678   4.135
16905W        W76408  26.014  13.704  13.540
16906W        W76409   1.439  23.067   1.738
16907W        W76410   2.419  36.954   4.218
16908W        W76411  22.232  17.639  12.055
16909W        W76412  27.114  30.150   1.390
16910W        W76413  16.286  44.825   4.314
16911W        W76414  25.066  19.757   9.948
16912W        W76415   0.860  39.917   1.838
16913W        W76416   7.714  20.117   3.365
16914W        W76417  27.048   5.218   2.405
16915W        W76418  37.393   9.268  10.975
16916W        W76419  36.591  39.341  13.453
16917W        W76420  37.344   7.730  12.990
16918W        W76421  10.754  44.890  12.014
16919W        W76422  30.099   4.446   1.807
16920W        W76423   4.773  18.583  14.459
16921W        W76424   9.270  28.502  14.346
16922W        W76425  35.602   8.325   2.213
16923W        W76426  37.837  17.581  11.110
16924W        W76427  28.641   2.427  13.951
16925W        W76428  31.497  35.457   5.257
16926W        W76429  40.549  32.124   0.333
16927W        W76430  37.952  26.567  11.929
16928W        W76431  14.730  19.074  14.310
16929W        W76432   6.350  12.259   0.927
16930W        W76433  35.521  26.596   3.814
16931W        W76434  22.063  26.985   2.257
16932W        W76435  25.096  36.857  12.436
16933W        W76436   8.380  38.861   3.683
16934W        W76437  13.309  17.708  11.067
16935W        W76438   2.739   0.488  12.564
16936W        W76439  40.010  18.063  11.377
16937W        W76440  26.600  24.513   0.844
16938W        W76441   4.769  16.810  10.553
16939W        W76442  25.712   9.152   3.863
16940W        W76443  16.734  23.658   4.688
16941W        W76444  44.496  33.495  13.861
16942W        W76445  26.998  22.671   9.992
16943W        W76446  10.758  36.433   4.647
16944W        W76447   3.872  22.055  14.422
16945W        W76448  17.786  30.145  14.803
16946W        W76449  19.214  15.725  13.982
16947W        W76450  16.731  26.161   1.397
16948W        W76451  14.112  12.273   2.324
16949W        W76452  26.981  24.229  13.410
16950W        W76453  36.400   8.328   3.318
16951W        W76454   0.333  18.590   2.362
16952W        W76455  10.659   8.269  12.095
16953W        W76456   5.234  40.017   0.456
16954W        W76457  30.967  44.868   4.203
16955W        W76458  35.100   9.172  14.806
16956W        W76459  21.080   2.813  11.595
16957W        W76460  12.663  33.434  14.352
16958W        W76461  17.732  38.023   3.650
16959W        W76462  27.072  22.702  11.524
16960W        W76463   7.209  27.622  12.851
16961W        W76464  41.307  19.682  14.783
16962W        W76465  43.853  39.449  10.981
16963W        W76466  42.013  35.855   1.808
16964W        W76467  28.951  13.138   0.470
16965W        W76468  10.860   6.890   3.808
16966W        W76469   8.748  14.614  13.911
16967W        W76470  31.643  24.117  13.418
16968W        W76471  41.960  33.423  10.992
16969W        W76472  36.387  15.793   5.176
16970W        W76473  32.391  14.709   4.629
16971W        W76474  35.010   2.827  10.598
16972W        W76475  38.821   5.775   1.811
16973W        W76476  28.068  44.495   4.742
16974W        W76477   5.329  33.538   4.351
16975W        W76478  13.771  19.165  14.460
16976W        W76479  26.049   4.777  11.055
16977W        W76480  18.255  38.434  14.776
16978W        W76481  40.452  19.202  11.926
16979W        W76482   8.699   1.942  12.481
16980W        W76483  31.142  23.003   3.359
16981W        W76484  21.736   7.805  13.412
16982W        W76485   7.355   1.762   0.962
16983W        W76486   4.717  16.296   3.158
16984W        W76487  19.612   2.935  14.025
16985W        W76488  39.976  40.332   2.713
16986W        W76489  28.175  19.267  10.445
16987W        W76490  34.456  42.867   3.205
16988W        W76491  31.428  24.523  13.980
16989W        W76492  39.422  30.455  11.606
16990W        W76493  44.771   3.353   4.213
16991W        W76494  31.485  41.788  13.439
16992W        W76495  18.149  34.398  11.967
16993W        W76496   6.694  11.729   1.350
16994W        W76497  40.897  41.807  12.016
16995W        W76498  35.924  23.685  10.543
16996W        W76499  17.679  22.133   2.271
16997W        W76500  27.511  33.589  13.379
16998W        W76501  18.708  12.762  10.904
16999W        W76502  39.531  32.062  10.513
17000W        W76503  21.737  23.081  14.787
17001W        W76504   0.772  26.485  14.334
17002W        W76505  25.631  11.263  14.453
17003W        W76506   6.819   9.754   0.911
17004W        W76507  16.676  33.470  11.909
17005W        W76508  13.286  34.489   4.225
17006W        W76509  16.283  26.037  10.450
17007W        W76510   1.922  19.197  12.869
17008W        W76511  27.489   0.761  11.559
17009W        W76512  27.525  30.082   9.988
17010W        W76513  43.852  42.520   4.345
17011W        W76514  21.648  27.524   1.882
17012W        W76515  42.777   4.346  12.041
17013W        W76516  18.205  21.745  12.539
17014W        W76517  26.049  26.593  10.636
17015W        W76518   1.410  34.930   4.693
17016W        W76519  13.815  34.526  13.808
17017W        W76520  33.912   0.869  12.065
17018W        W76521  12.620   3.343   1.745
17019W        W76522   2.936  10.271  10.474
17020W        W76523  30.022   1.255   1.706
17021W        W76524  25.044  36.529   0.457
17022W        W76525   8.865  16.645  12.458
17023W        W76526  18.155  44.400  11.974
17024W        W76527  36.381  20.666  12.379
17025W        W76528  33.442  34.975   2.725
17026W        W76529  35.080  25.510   4.713
17027W        W76530  36.515   9.794   4.250
17028W        W76531  14.760  44.361  13.375
17029W        W76532  40.423  29.955   3.630
17030W        W76533   1.870  16.159  14.872
17031W        W76534  25.608  11.198  11.010
17032W        W76535   3.374   7.863   3.370
17033W        W76536   4.225  18.705   4.256
17034W        W76537  23.679  27.060   3.720
17035W        W76538  18.239  37.452  14.844
17036W        W76539  29.018  25.079   2.795
17037W        W76540   8.390   0.260   4.641
17038W        W76541   5.290  12.222   1.906
17039W        W76542  41.919  23.652  14.021
17040W        W76543  18.591   7.792  13.314
17041W        W76544  19.536  30.453   0.434
17042W        W76545  23.077  27.053   1.367
17043W        W76546  23.092   1.941  14.981
17044W        W76547   5.718  25.574  10.582
17045W        W76548  42.003   4.449   4.214
17046W        W76549  19.241  38.453   0.775
17047W        W76550   5.892   0.425  13.884
17048W        W76551  34.003  37.562   1.711
17049W        W76552  20.739  16.734  12.476
17050W        W76553  43.337  41.501  12.912
17051W        W76554  42.328   2.843  13.373
17052W        W76555   8.240  26.112   3.198
17053W        W76556  39.973  12.839   0.963
17054W        W76557  21.629  39.539   1.255
17055W        W76558   1.278   9.849   2.745
17056W        W76559  39.994  18.624  13.449
17057W        W76560  21.688  13.761  10.425
17058W        W76561  25.035  27.458  14.351
17059W        W76562  21.138   4.223   1.367
17060W        W76563  20.607  26.183   2.329
17061W        W76564  16.195  24.181   1.850
17062W        W76565  32.515  23.146  12.018
17063W        W76566  38.938  25.970   0.354
17064W        W76567  37.082  31.641   1.317
17065W        W76568  25.489   2.758   0.415
17066W        W76569  20.100  36.053   1.434
17067W        W76570  41.393   3.249  11.938
17068W        W76571  34.077  32.894   4.652
17069W        W76572   4.710  44.824   2.224
17070W        W76573  24.620  26.016  10.427
17071W        W76574  17.129  18.609   0.245
17072W        W76575   9.196  31.496   3.754
17073W        W76576  42.319  13.245  10.460
17074W        W76577  32.972  24.216  11.593
17075W        W76578   7.284  28.645   3.789
17076W        W76579   8.349  17.682  14.022
17077W        W76580  14.722  30.955  10.917
17078W        W76581   6.819  13.227  12.396
17079W        W76582   9.385  13.337   3.316
17080W        W76583   8.799  10.869   3.678
17081W        W76584  36.350  19.750   0.285
17082W        W76585  39.491  38.942  14.516
17083W        W76586  29.996  10.789   4.627
17084W        W76587  32.097  13.231   2.246
17085W        W76588   5.337  32.916   0.870
17086W        W76589  29.553  39.389  14.417
17087W        W76590   5.224  32.637  11.895
17088W        W76591  19.630  39.898  11.606
17089W        W76592  14.758   8.802   1.382
17090W        W76593   3.883   7.763  10.442
17091W        W76594   0.892  34.879   2.748
17092W        W76595   6.343  44.396  13.877
17093W        W76596  25.125   7.894  13.432
17094W        W76597   6.335  20.042   0.908
17095W        W76598   0.953  21.676  11.960
17096W        W76599   1.380  23.039   5.215
17097W        W76600  10.671  30.577  14.885
17098W        W76601  41.992  22.624   3.688
17099W        W76602  10.267  14.102  11.052
17100W        W76603  11.632  38.985  10.559
17101W        W76604  17.773  20.218  11.071
17102W        W76605  10.370  14.270   3.808
17103W        W76606  37.861  15.623  10.126
17104W        W76607  20.040   1.305  14.888
17105W        W76608  15.300  33.998  13.876
17106W        W76609  40.837  29.936   4.652
17107W        W76610  40.965  36.865   3.305
17108W        W76611   4.321  30.593  14.026
17109W        W76612   3.920  41.835  11.934
17110W        W76613   5.867   9.173  12.456
17111W        W76614   2.248  41.422   3.703
17112W        W76615  35.016  16.765  13.875
17113W        W76616  38.448   5.241   2.817
17114W        W76617  23.136  43.366  11.021
17115W        W76618   3.320  16.792  12.962
17116W        W76619  16.703   7.416  11.565
17117W        W76620  37.898  29.621  10.032
17118W        W76621  41.339  27.445  11.105
17119W        W76622   3.425  15.246  13.034
17120W        W76623  29.039  18.176  13.030
17121W        W76624  18.255  17.692   3.786
17122W        W76625  17.573  31.024   0.914
17123W        W76626   0.776  19.203  14.893
17124W        W76627   3.425  13.268   3.373
17125W        W76628  39.379   6.415  11.901
17126W        W76629  32.446   8.383   2.749
17127W        W76630   8.845  29.963   3.635
17128W        W76631  43.457   5.806  13.329
17129W        W76632  14.133  40.440  14.918
17130W        W76633   5.734  12.168  14.386
17131W        W76634   3.900  40.329   4.783
17132W        W76635   4.909   1.733   2.702
17133W        W76636  26.494  28.946  14.032
17134W        W76637  30.509  36.497  12.871
17135W        W76638  30.990  11.845  14.502
17136W        W76639  23.652  44.868   9.548
17137W        W76640  33.992  28.063   3.241
17138W        W76641  42.962  43.449   1.423
17139W        W76642  22.650  31.567   1.887
17140W        W76643  21.716  29.640  12.373
17141W        W76644  34.934  23.237  11.011
17142W        W76645  22.566  21.122  13.333
17143W        W76646  20.725  10.319  10.019
17144W        W76647  26.535  44.008  10.534
17145W        W76648  23.591  39.930  14.468
17146W        W76649   1.341  30.467   0.840
17147W        W76650  35.890  18.103   4.755
17148W        W76651  15.214  44.807   2.697
17149W        W76652  38.436  11.853  12.855
17150W        W76653  33.450  30.992  13.544
17151W        W76654   8.240  41.877   0.458
17152W        W76655   5.237   2.867   0.748
17153W        W76656  18.730  36.537  14.290
17154W        W76657  13.664  27.140  14.444
17155W        W76658  27.558  35.424  11.551
17156W        W76659  37.082  32.087  10.129
17157W        W76660  26.666  10.807  12.519
17158W        W76661  14.208   3.319  14.796
17159W        W76662  34.908  36.006   2.198
17160W        W76663   0.844  13.705  10.908
17161W        W76664   3.928  44.457   2.714
17162W        W76665  28.028  30.606  10.970
17163W        W76666  43.013  30.099  14.904
17164W        W76667   4.328  29.580   0.808
17165W        W76668  24.493  25.129   3.862
17166W        W76669  10.311  44.401   4.181
17167W        W76670  14.601  14.156   3.801
17168W        W76671  16.292  28.494   3.849
17169W        W76672  38.851   0.461   2.267
17170W        W76673   2.375  18.073  13.817
17171W        W76674   3.826  15.697   2.692
17172W        W76675   5.800   7.379  12.398
17173W        W76676  19.586  41.336  13.472
17174W        W76677  37.502  15.083   4.269
17175W        W76678  25.532   0.938   1.813
17176W        W76679  24.572   6.216  11.471
17177W        W76680  18.088  10.864   2.406
17178W        W76681  38.883  13.245  14.029
17179W        W76682  19.120  22.155   0.768
17180W        W76683  35.549  12.348   1.889
17181W        W76684  17.173  43.773   1.217
17182W        W76685  33.015  22.058   0.277
17183W        W76686  30.918  10.336   2.869
17184W        W76687  26.702  34.603  14.439
17185W        W76688   9.719  37.492  13.017
17186W        W76689  25.576  23.228   3.747
17187W        W76690  37.871   4.715   5.252
17188W        W76691  30.962   1.870  10.986
17189W        W76692  16.728  41.428   2.743
17190W        W76693  19.539  17.732  13.395
17191W        W76694   5.893  15.087   4.612
17192W        W76695   6.879  41.975   0.270
17193W        W76696   6.296  32.523   2.848
17194W        W76697  10.719  35.487  13.923
17195W        W76698  23.207  42.930  12.079
17196W        W76699  42.316  22.175   3.272
17197W        W76700  20.164  20.091   2.242
17198W        W76701  41.417   7.313   3.830
17199W        W76702  14.593   8.692   0.263
17200W        W76703   7.352  13.728  13.010
17201W        W76704  29.955   8.397   4.224
17202W        W76705   8.800   5.206   0.950
17203W        W76706  24.657  19.260  12.023
17204W        W76707  27.990  23.001  14.873
17205W        W76708  28.058  37.945  12.973
17206W        W76709   8.834  15.691  10.473
17207W        W76710   3.773  24.209  11.442
17208W        W76711  24.179  20.731   1.869
17209W        W76712  21.513   0.378  14.404
17210W        W76713  26.581  35.549   2.692
17211W        W76714  34.922  21.587   4.237
17212W        W76715  16.138   3.945   0.900
17213W        W76716  19.202  12.722   1.258
17214W        W76717  28.057  20.751   3.229
17215W        W76718  44.269   5.404   2.682
17216W        W76719   2.459  21.250  14.911
17217W        W76720  24.503  14.115   4.353
17218W        W76721  21.195  25.583   2.310
17219W        W76722   7.363   7.776  13.849
17220W        W76723  31.408  35.864  14.818
17221W        W76724   2.847   1.382   3.697
17222W        W76725   8.838  28.017   1.714
17223W        W76726  13.161  21.680  14.993
17224W        W76727   8.803   8.746   2.699
17225W        W76728  26.071  27.485  12.463
17226W        W76729  34.459   3.846   4.705
17227W        W76730  20.081  44.970  12.076
17228W        W76731  17.623  36.857   3.204
17229W        W76732  32.613  35.070   0.422
17230W        W76733   6.688  24.496   3.753
17231W        W76734  24.044   3.392  12.935
17232W        W76735  11.671   3.859   1.267
17233W        W76736   3.227  36.992   2.324
17234W        W76737  40.346  19.072  10.514
17235W        W76738  13.111   5.920  12.025
17236W        W76739  21.175  11.292  10.558
17237W        W76740  19.275  13.153  11.503
17238W        W76741  36.478  34.925  13.543
17239W        W76742  24.511  17.732   0.304
17240W        W76743  11.857   4.274  14.795
17241W        W76744  21.547   3.910  12.418
17242W        W76745  40.802  13.238   0.870
17243W        W76746  38.471  19.690   4.800
17244W        W76747   2.871  35.874  10.498
17245W        W76748   7.275  42.516   0.918
17246W        W76749  41.952   4.334   3.717
17247W        W76750  37.516  33.603  13.970
17248W        W76751   3.392  15.578  14.429
17249W        W76752  14.276  35.034   1.353
17250W        W76753  37.072  22.058   2.868
17251W        W76754   9.384  27.968  12.360
17252W        W76755  43.271  12.305   1.451
17253W        W76756  35.478   7.880  14.759
17254W        W76757  17.765  24.084  11.501
17255W        W76758  11.851   7.290   1.894
17256W        W76759   7.360  11.327  12.517
17257W        W76760  41.415  32.130   1.340
17258W        W76761  10.226  33.050  12.910
17259W        W76762   4.723  19.533   0.803
17260W        W76763  39.438   9.745   3.364
17261W        W76764  18.721   8.396  11.484
17262W        W76765  27.650   6.795   3.849
17263W        W76766  18.629  39.920   0.820
17264W        W76767  22.073  16.807   4.598
17265W        W76768   4.770  37.506  11.576
17266W        W76769  41.359  19.225   9.973
17267W        W76770   7.183  22.218   4.314
17268W        W76771  12.628   9.704   1.322
17269W        W76772  22.027  18.056   4.786
17270W        W76773  22.722   7.241  10.074
17271W        W76774   1.896  41.979   2.729
17272W        W76775  42.998  30.969   2.296
17273W        W76776   8.166  12.357   0.904
17274W        W76777  33.009  20.039   2.880
17275W        W76778  26.056   0.400   4.263
17276W        W76779  38.828  29.469   5.183
17277W        W76780  14.225  32.943   9.614
17278W        W76781  24.998   7.322   0.924
17279W        W76782  27.072   3.419   4.617
17280W        W76783  39.054  24.134   4.278
17281W        W76784  20.562  27.172   4.824
17282W        W76785  32.100   3.782   0.768
17283W        W76786  21.227  31.499   3.703
17284W        W76787   6.345   1.869   1.755
17285W        W76788   4.789  31.960  14.772
17286W        W76789  21.571  37.042  12.508
17287W        W76790   3.242  36.861  11.445
17288W        W76791   4.721  38.460  12.522
17289W        W76792  40.430   1.878  13.899
17290W        W76793  28.079   1.453  12.849
17291W        W76794  40.468  37.479  12.094
17292W        W76795  14.705  24.676  12.020
17293W        W76796  29.995  10.339  13.805
17294W        W76797  13.194  27.046   1.740
17295W        W76798  19.221  42.461   2.361
17296W        W76799  16.088  27.068  14.379
17297W        W76800  42.996  39.986   0.967
17298W        W76801  31.937  33.107   3.827
17299W        W76802   1.825  12.130  14.758
17300W        W76803  39.431  41.016  11.116
17301W        W76804  30.928  13.329   0.270
17302W        W76805  15.602  38.410  14.844
17303W        W76806  17.616  22.225   2.742
17304W        W76807   5.310  13.729  13.913
17305W        W76808   3.787   1.763   1.891
17306W        W76809  29.504  30.524   1.416
17307W        W76810  21.143   3.309   0.247
17308W        W76811  16.805   6.296  10.506
17309W        W76812  29.501  42.322  13.057
17310W        W76813  36.516  29.456   2.811
17311W        W76814  43.393  25.974   3.756
17312W        W76815  44.900   5.797  14.817
17313W        W76816  29.540  44.287  10.049
17314W        W76817  37.347  32.046   0.283
17315W        W76818   7.287   9.789   3.817
17316W        W76819  18.648  44.332  13.337
17317W        W76820  17.652  38.353  10.549
17318W        W76821   8.252  40.892   1.390
17319W        W76822  37.029   2.758  11.996
17320W        W76823   8.882  44.884   1.420
17321W        W76824  43.919   0.807   2.308
17322W        W76825  30.587  16.116   0.300
17323W        W76826  38.417  18.255  10.966
17324W        W76827  29.491  18.763   2.791
17325W        W76828  15.660  11.673  13.801
17326W        W76829   3.290  28.673  10.513
17327W        W76830  24.638  29.517   2.312
17328W        W76831  33.120  34.456  11.877
17329W        W76832   3.326  36.098   0.868
17330W        W76833  30.999  42.906  10.630
17331W        W76834  38.854  40.513  11.880
17332W        W76835   4.297  25.065  14.796
17333W        W76836   2.269   8.320   1.908
17334W        W76837  19.637  36.064  11.417
17335W        W76838  26.186   0.868   5.684
17336W        W76839  28.674   0.773   2.389
17337W        W76840  29.465   9.815  10.435
17338W        W76841  30.083  33.609   3.312
17339W        W76842   5.756   7.359  10.457
17340W        W76843  38.827  14.313   1.352
17341W        W76844  31.456  15.785  10.898
17342W        W76845  31.126  10.148  11.534
17343W        W76846  21.640  18.222  10.553
17344W        W76847  35.496  26.491  14.334
17345W        W76848  15.120  31.538   2.713
17346W        W76849  12.325   2.828  13.317
17347W        W76850  43.319  43.468  12.976
17348W        W76851   9.769  23.145  14.780
17349W        W76852  38.970  39.923   4.723
17350W        W76853  22.585  10.662   2.859
17351W        W76854  10.168  33.430  10.127
17352W        W76855  16.224  11.663  14.468
17353W        W76856  13.161  11.283   1.875
17354W        W76857  33.904  24.129   2.290
17355W        W76858  23.672  30.971   3.343
17356W        W76859  14.792   4.817  14.920
17357W        W76860  33.592  42.525   3.331
17358W        W76861  38.066  22.506  12.032
17359W        W76862   7.367  35.527   4.729
17360W        W76863  22.649   1.270  13.839
17361W        W76864  39.439  31.109   2.276
17362W        W76865  25.515  24.675  13.489
17363W        W76866  31.460  28.586  12.050
17364W        W76867   0.758   4.823  14.837
17365W        W76868   8.318  12.737  13.487
17366W        W76869  26.175   1.871   5.091
17367W        W76870  35.422   5.379   4.604
17368W        W76871  32.449  25.168   2.298
17369W        W76872  33.426  41.517   2.902
17370W        W76873  21.745  19.717   2.184
17371W        W76874  29.590  13.166   3.698
17372W        W76875  33.931  10.322   3.229
17373W        W76876   1.792  11.196   2.401
17374W        W76877  40.005  26.123   4.247
17375W        W76878  16.590  26.630   0.426
17376W        W76879  41.004   5.852   0.877
17377W        W76880  33.916   3.825   4.343
17378W        W76881  30.503   5.436  10.449
17379W        W76882  13.748  23.192  12.849
17380W        W76883   9.286  33.384  12.830
17381W        W76884  35.856  23.500   2.709
17382W        W76885  14.319  12.184   4.287
17383W        W76886   8.226   3.279  11.087
17384W        W76887  26.174  18.202   2.748
17385W        W76888  11.133   2.438  12.081
17386W        W76889  20.596  14.339  13.941
17387W        W76890  18.784  16.295   4.284
17388W        W76891  20.213  13.173  12.473
17389W        W76892   2.359   7.721   0.358
17390W        W76893  39.519  39.892   4.280
17391W        W76894  18.766  44.888  10.559
17392W        W76895  37.495  27.476  13.344
17393W        W76896  12.780  42.993  14.022
17394W        W76897   5.807  27.945  14.327
17395W        W76898  31.635  28.990  12.419
17396W        W76899  14.284  10.184   2.727
17397W        W76900  31.974   2.953  11.427
17398W        W76901  19.103   3.315  14.504
17399W        W76902  42.808  11.786   1.866
17400W        W76903   2.294   3.799   0.861
17401W        W76904  44.442   7.867  12.574
17402W        W76905  20.094  27.578  11.594
17403W        W76906  33.096  29.023   0.482
17404W        W76907  14.160   0.791  12.377
17405W        W76908  33.901  29.558   0.756
17406W        W76909  26.637  31.077   2.394
17407W        W76910  19.641   2.949  12.537
17408W        W76911  19.051  18.262  14.323
17409W        W76912  28.015   8.369   3.164
17410W        W76913  40.829  25.530   4.180
17411W        W76914   3.267  42.803  14.419
17412W        W76915   4.770  39.846   9.931
17413W        W76916  37.980  14.723   3.699
17414W        W76917   9.338  11.692  14.480
17415W        W76918   9.658  22.543   1.896
17416W        W76919  36.534  28.556   3.845
17417W        W76920  44.476  40.003  11.065
17418W        W76921  23.728  24.568   2.269
17419W        W76922  41.867  43.886   2.685
17420W        W76923  13.159  10.835   4.618
17421W        W76924   8.735   4.798   3.672
17422W        W76925  24.102  44.919   2.789
17423W        W76926  40.924  15.305  14.909
17424W        W76927  42.462  35.462  10.566
17425W        W76928   9.834   0.838   4.322
17426W        W76929   3.926  21.714  12.559
17427W        W76930  28.467   3.217   1.788
17428W        W76931  14.223   5.319  10.917
17429W        W76932  11.314  27.662   2.292
17430W        W76933   9.779   0.398   1.758
17431W        W76934   2.820   1.960  14.781
17432W        W76935   3.791  20.730  12.939
17433W        W76936  42.783  42.914   5.110
17434W        W76937  30.985  34.439   2.350
17435W        W76938  23.509  14.598  14.031
17436W        W76939  42.944  39.334   0.900
17437W        W76940  22.112  34.507  10.981
17438W        W76941   7.893  39.456  11.997
17439W        W76942   9.191  43.828   1.786
17440W        W76943  35.077  34.902  10.034
17441W        W76944  31.525  36.543   0.446
17442W        W76945  43.974  38.949  11.522
17443W        W76946  19.265  15.649   3.282
17444W        W76947  28.098  26.698   3.652
17445W        W76948  28.961  10.861   3.783
17446W        W76949  29.961  24.022  11.598
17447W        W76950  33.062  31.003   0.857
17448W        W76951   6.188  44.368   3.743
17449W        W76952  39.850   1.458   3.360
17450W        W76953   8.195  39.547  14.408
17451W        W76954  42.927  12.312   3.191
17452W        W76955   3.796   6.736  14.384
17453W        W76956  29.063  39.835  12.907
17454W        W76957  22.039  44.820   2.239
17455W        W76958  19.272  21.122   0.409
17456W        W76959  15.682  33.486  12.387
17457W        W76960  10.292   3.924  12.057
17458W        W76961  15.727  33.999  11.085
17459W        W76962  35.549  24.010   1.868
17460W        W76963   4.311  24.537  12.555
17461W        W76964   0.944  33.603   4.284
17462W        W76965  27.965   0.399   9.987
17463W        W76966   6.750   4.420   4.290
17464W        W76967  13.178  25.135   5.212
17465W        W76968  15.301  11.741   0.796
17466W        W76969  10.808  28.968   2.314
17467W        W76970   1.924  40.969  11.394
17468W        W76971  39.339  17.070  11.566
17469W        W76972  22.150  27.536   0.938
17470W        W76973  21.086  20.082   1.280
17471W        W76974  25.497  33.451  13.342
17472W        W76975  23.240   2.301   2.712
17473W        W76976  18.653   3.771  12.940
17474W        W76977  38.490  33.029   0.954
17475W        W76978  36.006   9.315  10.549
17476W        W76979  31.986  10.163   1.908
17477W        W76980  38.998  19.169   1.757
17478W        W76981   2.732  20.214  14.286
17479W        W76982   6.881  44.383  14.008
17480W        W76983  33.474   5.302  12.907
17481W        W76984  43.274  16.757  12.024
17482W        W76985  19.676   3.409  10.433
17483W        W76986  23.624  35.534  11.577
17484W        W76987  35.084   5.717  11.928
17485W        W76988  23.570  42.860  13.529
17486W        W76989  23.525  10.308   2.286
17487W        W76990  29.025  43.771  10.640
17488W        W76991   3.435  16.679  14.296
17489W        W76992   8.167   1.915  11.458
17490W        W76993  37.439  14.187  10.984
17491W        W76994  30.624  18.250   0.420
17492W        W76995  43.883   9.645  11.882
17493W        W76996  32.634  31.134  10.920
17494W        W76997  36.447   4.905  13.487
17495W        W76998  11.750  37.939  14.937
17496W        W76999  16.731  29.642   1.881
17497W        W77000   3.847   3.355  11.119
17498W        W77001  20.536  34.425  12.862
17499W        W77002   9.799  40.407   2.768
17500W        W77003   0.941  26.041   2.201
17501W        W77004   5.706   0.969  11.426
17502W        W77005   9.776  30.022  11.032
17503W        W77006   2.952  22.017  11.912
17504W        W77007  35.882  14.275  13.447
17505W        W77008  16.288  33.465  11.033
17506W        W77009  11.682  26.103   4.318
17507W        W77010  27.577  28.172  11.884
17508W        W77011   7.400   1.247  14.507
17509W        W77012   5.813  35.992   3.196
17510W        W77013   0.892  36.578   2.898
17511W        W77014  34.472  19.093   2.784
17512W        W77015  15.715  39.882   4.163
17513W        W77016  34.910  29.506  14.003
17514W        W77017  16.258  27.978   4.765
17515W        W77018  30.106   3.867  10.474
17516W        W77019  22.738  25.472  13.054
17517W        W77020   5.814  25.214  11.937
17518W        W77021  21.202  11.183  13.331
17519W        W77022  19.150  26.999   4.122
17520W        W77023   4.353  44.306   1.253
17521W        W77024  25.666  35.880  14.329
17522W        W77025  31.076  14.649  14.851
17523W        W77026  18.221   5.809  12.019
17524W        W77027  18.065  23.649   1.738
17525W        W77028  41.914  19.565   5.094
17526W        W77029  40.406  35.896   4.713
17527W        W77030  30.912  11.188  11.540
17528W        W77031  34.488  32.009   3.227
17529W        W77032   1.787   8.825  11.114
17530W        W77033   4.435  31.071  13.348
17531W        W77034  14.680  35.986   0.299
17532W        W77035  15.319  44.877   4.736
17533W        W77036   9.680  29.074  12.464
17534W        W77037  43.334   3.270  14.415
17535W        W77038  30.630  11.361   3.291
17536W        W77039  26.177  16.160   1.760
17537W        W77040  24.627   2.879  13.929
17538W        W77041  36.513  38.011  11.560
17539W        W77042  15.587   3.947  14.934
17540W        W77043  43.425   6.238  12.830
17541W        W77044   6.736  27.180  10.631
17542W        W77045  35.991  40.972   4.712
17543W        W77046  19.573  33.878   3.252
17544W        W77047  43.515  32.005   1.818
17545W        W77048   3.724   9.791   3.286
17546W        W77049  26.627  27.478  11.878
17547W        W77050  28.634  26.071   3.637
17548W        W77051  12.155   9.667   1.421
17549W        W77052  12.167  37.353   2.662
17550W        W77053  14.700  34.553   4.742
17551W        W77054   7.202  16.310  13.024
17552W        W77055  19.191  37.439   2.723
17553W        W77056   6.913  37.415   2.190
17554W        W77057  41.359  43.021   2.730
17555W        W77058  11.668  28.469   4.199
17556W        W77059  43.300  34.523  10.527
17557W        W77060  19.542  32.469   3.663
17558W        W77061  41.311  44.901  14.919
17559W        W77062  25.493  32.617  14.470
17560W        W77063  39.402   4.396   9.579
17561W        W77064   6.230  21.068  12.880
17562W        W77065  25.123  13.757   4.741
17563W        W77066  22.541  24.723   1.331
17564W        W77067  14.235  31.901   2.271
17565W        W77068  38.016  13.241  12.506
17566W        W77069   5.783   7.356  14.332
17567W        W77070  40.016  10.179  11.461
17568W        W77071  18.564  34.948   0.886
17569W        W77072  26.568  22.554   2.689
17570W        W77073  42.472  29.529  13.800
17571W        W77074  42.783  23.692   1.432
17572W        W77075  28.095   5.926   2.760
17573W        W77076  34.614  42.788  11.588
17574W        W77077  11.626  20.057   3.808
17575W        W77078  44.478   8.680   3.731
17576W        W77079  15.166  32.616  14.898
17577W        W77080  39.499  25.692   4.674
17578W        W77081  10.817  29.505   1.212
17579W        W77082  42.810  27.008  14.494
17580W        W77083   5.376   5.735  14.777
17581W        W77084  12.639   0.857  11.020
17582W        W77085   6.909  34.916  11.548
17583W        W77086  11.849   4.713   5.154
17584W        W77087  29.579  16.813  13.916
17585W        W77088  27.681   9.237  11.060
17586W        W77089  12.641  33.556  11.442
17587W        W77090   9.205  41.843  14.929
17588W        W77091  11.762  22.518  10.905
17589W        W77092   6.859  20.109   0.952
17590W        W77093  37.461  13.279  14.891
17591W        W77094  41.379  36.854   1.909
17592W        W77095  38.429  16.158   1.730
17593W        W77096   4.708  27.139  14.422
17594W        W77097  42.875  21.209   0.398
17595W        W77098  27.007   1.733   3.375
17596W        W77099  10.197  19.097  13.059
17597W        W77100  12.697  38.826   1.396
17598W        W77101  43.322  39.833   4.315
17599W        W77102   2.781  25.554  14.356
17600W        W77103   6.810  26.067   3.173
17601W        W77104   3.841  20.682  14.315
17602W        W77105  10.165  30.440   2.209
17603W        W77106  31.996  34.005  10.641
17604W        W77107  16.214  38.035   0.457
17605W        W77108  21.101  36.910   1.299
17606W        W77109   9.680  16.653  14.801
17607W        W77110  27.073  44.853   2.183
17608W        W77111  35.583   9.187   4.262
17609W        W77112  42.287   1.246  14.294
17610W        W77113   6.300  10.820  12.995
17611W        W77114  38.561  24.207  12.827
17612W        W77115  10.671  18.601  14.956
17613W        W77116  35.073  27.676  11.419
17614W        W77117  37.989  31.896  12.090
17615W        W77118  34.495  36.353  14.878
17616W        W77119  31.523  39.953  12.966
17617W        W77120  33.550  13.757   2.799
17618W        W77121  19.094   7.228  14.424
17619W        W77122   2.308  42.456   5.260
17620W        W77123  40.902  12.311  14.415
17621W        W77124  32.423   9.727   0.737
17622W        W77125  22.102  36.374   0.450
17623W        W77126  41.455  32.125  10.004
17624W        W77127  22.048  22.176  10.478
17625W        W77128  30.159   4.749  13.038
17626W        W77129  34.496   5.790  13.327
17627W        W77130  18.243   0.331   2.687
17628W        W77131  12.694  31.519   4.685
17629W        W77132   7.379  26.185   4.664
17630W        W77133  43.818   2.323   1.782
17631W        W77134   7.263   8.751   1.850
17632W        W77135  22.731  20.036  12.447
17633W        W77136  40.398  38.510  10.479
17634W        W77137  35.042   9.205   4.250
17635W        W77138  17.190   3.391  14.889
17636W        W77139  39.374  34.039  11.424
17637W        W77140   8.233   8.219   2.347
17638W        W77141  32.919  37.984  13.989
17639W        W77142   7.299  23.183   4.747
17640W        W77143  38.545  29.048   3.370
17641W        W77144  37.024  43.291  14.993
17642W        W77145  39.323  29.139  14.846
17643W        W77146  19.079  41.787   1.390
17644W        W77147  43.462  40.386   4.752
17645W        W77148  43.856  25.968   3.304
17646W        W77149   9.697  28.552  14.911
17647W        W77150  22.226  37.525  14.799
17648W        W77151  18.258   4.720   1.910
17649W        W77152  28.114  33.031  10.492
17650W        W77153   4.788  42.905   1.828
17651W        W77154  34.418  28.503   9.580
17652W        W77155  21.595   6.397   3.359
17653W        W77156  16.101  26.673   1.344
17654W        W77157  11.727  16.164  13.332
17655W        W77158  39.902   5.877  14.813
17656W        W77159  34.088  35.962  12.547
17657W        W77160  22.996  21.635  11.008
17658W        W77161  27.505  35.900  10.626
17659W        W77162  20.662  24.688  14.337
17660W        W77163   0.279  20.131  13.037
17661W        W77164  24.501  37.849   0.812
17662W        W77165  34.086  37.942   0.469
17663W        W77166  31.643   1.828   2.705
17664W        W77167   6.706  10.733  13.935
17665W        W77168  16.770  26.005   4.831
17666W        W77169  30.153  25.097   1.290
17667W        W77170   5.200  18.617   2.289
17668W        W77171  16.137  28.613   0.885
17669W        W77172  13.174  24.684  11.873
17670W        W77173   1.460   4.713   0.769
17671W        W77174  34.561  27.479   2.224
17672W        W77175  23.158   2.778   1.412
17673W        W77176   6.334  16.201   4.231
17674W        W77177  40.821   1.782   1.871
17675W        W77178  27.163  35.966  11.127
17676W        W77179  24.034  11.626   9.979
17677W        W77180   5.745   3.289   3.723
17678W        W77181  21.740   8.869  10.425
17679W        W77182  19.073  33.428   2.823
17680W        W77183   7.836  13.158   3.644
17681W        W77184   7.300   4.309   2.896
17682W        W77185  42.521  31.610  12.405
17683W        W77186  33.460   5.773  13.331
17684W        W77187  24.152  20.212   4.695
17685W        W77188  23.115  44.408  13.043
17686W        W77189   9.186   3.291  12.868
17687W        W77190  14.237  21.055   3.356
17688W        W77191   2.227  15.694  14.412
17689W        W77192  31.016   8.688  14.989
17690W        W77193  14.716   2.366  14.476
17691W        W77194  18.227  23.493   0.360
17692W        W77195  18.157   6.714   3.242
17693W        W77196   3.359   1.823  14.870
17694W        W77197   8.311   2.792  12.559
17695W        W77198  26.152  13.739   2.199
17696W        W77199  26.165  43.978  11.104
17697W        W77200   7.205  25.691  13.040
17698W        W77201   2.343   9.753   4.118
17699W        W77202  17.790  39.011   2.899
17700W        W77203  41.407  40.920   0.763
17701W        W77204  19.115  31.969   2.877
17702W        W77205  20.042  28.995  13.500
17703W        W77206   5.827  22.191   1.331
17704W        W77207   2.290   1.344   2.849
17705W        W77208   6.414   1.353  12.556
17706W        W77209  32.480  32.479   3.157
17707W        W77210  22.175  31.634   2.407
17708W        W77211   8.728  25.079   2.281
17709W        W77212  36.400  37.361  10.063
17710W        W77213  38.931   1.303  14.766
17711W        W77214  15.309  26.493   5.211
17712W        W77215  21.687  38.876   3.158
17713W        W77216  34.029  33.955   2.674
17714W        W77217  31.933  16.272  14.982
17715W        W77218  16.567  25.554  10.453
17716W        W77219  35.521  40.848  14.283
17717W        W77220  21.670  13.604  10.987
17718W        W77221   9.194  25.647   0.444
17719W        W77222  20.162  11.799  14.759
17720W        W77223  15.145  41.491  10.891
17721W        W77224  31.058   3.284   1.710
17722W        W77225  37.836  38.439  14.370
17723W        W77226  11.636  31.925  13.030
17724W        W77227  10.700  23.073   1.382
17725W        W77228  30.007  12.252   0.474
17726W        W77229   4.299  41.300  13.975
17727W        W77230  36.873  40.472  12.496
17728W        W77231  30.075   9.877   3.830
17729W        W77232   4.370  32.447  12.973
17730W        W77233  21.618   0.894  11.573
17731W        W77234  29.652  24.549  14.475
17732W        W77235   3.746  39.554   1.247
17733W        W77236  19.159  40.039  13.944
17734W        W77237  43.409  16.290   2.379
17735W        W77238  19.224   5.374  10.913
17736W        W77239  16.610  20.637  12.424
17737W        W77240  10.772   1.875  14.426
17738W        W77241  43.317  38.446  11.607
17739W        W77242   2.899  17.719  11.520
17740W        W77243  37.961  35.533   2.339
17741W        W77244  17.199   8.267   2.352
17742W        W77245  38.520   1.946   1.229
17743W        W77246  37.461   7.368  10.965
17744W        W77247   7.695  44.929   3.664
17745W        W77248  10.254  25.169  13.010
17746W        W77249  34.913  37.921   4.214
17747W        W77250  11.315   0.341   4.729
17748W        W77251  26.562  16.072   1.742
17749W        W77252  17.120  34.425   1.327
17750W        W77253   2.469  21.114  10.495
17751W        W77254  20.687   9.365   4.263
17752W        W77255  20.267  15.652   0.302
17753W        W77256  20.546  19.276   4.606
17754W        W77257  28.128   4.366  10.577
17755W        W77258  23.038  10.295  12.898
17756W        W77259   0.355  28.989  13.814
17757W        W77260  38.886  15.089  14.402
17758W        W77261   7.898   0.984  14.282
17759W        W77262  10.177   9.355  14.475
17760W        W77263  19.538  29.638  11.955
17761W        W77264  13.221  22.187  14.320
17762W        W77265   2.346   6.811  12.908
17763W        W77266  13.182  36.437  11.958
17764W        W77267  12.745  20.237   3.749
17765W        W77268  34.893   2.733  14.850
17766W        W77269  21.593  30.912   3.167
17767W        W77270  29.001  23.621   0.738
17768W        W77271  32.956   7.794   0.827
17769W        W77272  20.727  22.733  14.911
17770W        W77273  37.517  13.247   1.265
17771W        W77274  40.886  23.686  11.381
17772W        W77275   9.210   2.954   4.679
17773W        W77276  30.526  11.634  14.408
17774W        W77277  27.597  35.395   1.345
17775W        W77278   0.340  11.754   0.297
17776W        W77279  16.805   2.766   4.836
17777W        W77280   7.835  39.469   1.336
17778W        W77281  33.609   4.857  13.916
17779W        W77282   8.160   7.852   1.430
17780W        W77283  42.463   4.769  13.346
17781W        W77284  43.295  13.326   1.450
17782W        W77285  39.480  39.550   3.156
17783W        W77286  12.254  26.605  12.070
17784W        W77287  10.262  17.777  12.096
17785W        W77288  30.992  24.613   5.132
17786W        W77289  32.583  16.636   2.215
17787W        W77290  44.479  38.564   3.834
17788W        W77291  44.904  32.521  13.342
17789W        W77292  37.007  21.680  12.375
17790W        W77293  22.236   8.204  12.526
17791W        W77294  43.930   0.904   1.290
17792W        W77295  13.282  11.162  12.405
17793W        W77296  21.644  16.782   0.923
17794W        W77297  27.946  35.592  11.561
17795W        W77298  11.321  27.674  10.926
17796W        W77299  23.542  24.691   2.772
17797W        W77300  36.959   9.254   2.192
17798W        W77301   0.895  24.525   9.964
17799W        W77302  27.579  33.921   1.217
17800W        W77303  29.123  41.451   4.652
17801W        W77304   2.887  24.186   2.763
17802W        W77305  42.988  37.388  14.837
17803W        W77306  41.538  36.397   2.750
17804W        W77307  22.069  37.343  11.894
17805W        W77308  26.010   7.744  10.460
17806W        W77309  17.742   5.398   4.712
17807W        W77310   7.878   3.822   1.284
17808W        W77311   4.378  25.131   3.791
17809W        W77312  22.223  44.320   2.236
17810W        W77313  36.393  20.091  13.338
17811W        W77314  40.370  34.087  11.450
17812W        W77315  32.053  17.788  10.919
17813W        W77316   5.211  26.695  10.548
17814W        W77317  41.370   5.727   1.695
17815W        W77318   3.879  39.318   0.814
17816W        W77319  36.509  16.615   4.775
17817W        W77320  34.970  15.761   3.701
17818W        W77321   6.853  38.555   1.730
17819W        W77322  27.100   6.370  10.499
17820W        W77323  12.799   1.849  13.345
17821W        W77324  23.999  39.353  14.011
17822W        W77325  35.409  37.567  12.481
17823W        W77326  11.128  37.028   1.844
17824W        W77327  44.331   9.288   4.796
17825W        W77328  31.637  29.069  11.025
17826W        W77329  29.027  13.227  11.453
17827W        W77330  35.077  25.500   2.229
17828W        W77331  17.275  44.356   4.675
17829W        W77332   9.818  14.730   0.396
17830W        W77333  10.293  36.993  11.388
17831W        W77334  12.353   3.460   5.186
17832W        W77335  39.431  41.480  12.372
17833W        W77336  25.036  13.341  12.522
17834W        W77337  13.693  26.638   1.832
17835W        W77338  36.350  39.824  11.429
17836W        W77339  22.711  13.123   2.780
17837W        W77340  43.404   5.811  12.046
17838W        W77341  44.325   0.842  13.904
17839W        W77342  25.574  23.613  12.399
17840W        W77343   7.906  37.469   5.292
17841W        W77344  17.587   5.762   2.257
17842W        W77345  16.232   8.661  14.878
17843W        W77346   5.256   9.192   3.714
17844W        W77347   2.757  12.780  12.874
17845W        W77348  13.166  15.663  13.920
17846W        W77349  30.566  25.190  13.966
17847W        W77350  31.075  19.095   0.756
17848W        W77351   6.237  19.190  11.022
17849W        W77352  21.733   2.936  12.070
17850W        W77353  22.189   6.715  13.027
17851W        W77354   2.950  36.552   4.275
17852W        W77355  37.872  10.870   2.740
17853W        W77356  28.502  17.734  13.462
17854W        W77357  39.485  30.504   3.316
17855W        W77358  34.481  36.058  14.783
17856W        W77359  33.432  41.494  10.972
17857W        W77360  34.891  43.908  12.516
17858W        W77361  16.229  18.743  14.374
17859W        W77362   2.431  23.517   3.355
17860W        W77363  23.591  14.317   3.796
17861W        W77364  39.508  20.536  12.061
17862W        W77365  38.374  14.794  11.485
17863W        W77366  18.094  33.011   1.213
17864W        W77367  27.986  31.915   5.230
17865W        W77368  33.504  40.919   1.450
17866W        W77369  11.271  44.495  12.548
17867W        W77370  34.993  19.732  14.883
17868W        W77371  27.685  41.346   2.792
17869W        W77372  32.430  41.420   2.344
17870W        W77373  18.678  21.714  13.440
17871W        W77374  37.000  13.235  14.409
17872W        W77375  18.627   2.742  11.877
17873W        W77376  18.166  17.672   1.255
17874W        W77377  13.265  39.852  11.498
17875W        W77378  43.918  27.592  13.334
17876W        W77379  37.568  24.701  14.386
17877W        W77380   9.864   9.680   4.154
17878W        W77381  42.906  11.793  10.927
17879W        W77382   0.942  22.104  10.906
17880W        W77383   0.833  25.130   5.204
17881W        W77384  21.034  12.830  12.485
17882W        W77385   8.849  18.053  13.328
17883W        W77386   2.893  39.460  13.845
17884W        W77387   1.752  19.204   9.602
17885W        W77388  15.151   8.327  11.887
17886W        W77389  25.660  26.670   4.201
17887W        W77390  39.382  33.049  11.110
17888W        W77391   0.818  14.210  10.533
17889W        W77392   2.354   3.439  13.793
17890W        W77393  20.061  41.440  10.009
17891W        W77394   8.894  28.125  13.040
17892W        W77395  21.657  23.042  11.573
17893W        W77396  30.091  11.284   3.373
17894W        W77397  26.959  30.146   2.892
17895W        W77398  30.445  43.377   4.192
17896W        W77399  34.524  16.748  12.053
17897W        W77400   2.469   6.245   4.132
17898W        W77401  43.421  17.663   1.431
17899W        W77402  42.943  14.309   3.315
17900W        W77403   0.774  37.543   0.249
17901W        W77404   9.304  10.328   4.733
17902W        W77405  14.141  29.957   1.289
17903W        W77406  22.724  34.411  11.065
17904W        W77407   4.204  16.582  12.436
17905W        W77408  30.439  39.527  13.856
17906W        W77409   7.799  13.275  14.405
17907W        W77410  19.687   3.863   3.368
17908W        W77411  28.681  24.003   3.775
17909W        W77412  33.590  42.289  14.766
17910W        W77413  36.991   6.699   0.254
17911W        W77414  24.514  37.836   0.331
17912W        W77415  12.655   7.810   4.620
17913W        W77416  23.561  21.104  11.906
17914W        W77417  29.600   1.482   0.727
17915W        W77418  38.347  28.934   4.790
17916W        W77419   0.425  31.144  10.418
17917W        W77420   6.809   7.884  14.439
17918W        W77421  27.140  43.896   0.276
17919W        W77422  30.638  34.582  11.983
17920W        W77423  35.974  39.872  12.923
17921W        W77424  39.457  14.742  12.386
17922W        W77425  13.747   9.692   3.384
17923W        W77426   7.807  40.895  14.483
17924W        W77427   1.776  38.551   2.677
17925W        W77428  34.067   7.265   2.414
17926W        W77429  26.011  18.788   1.830
17927W        W77430  17.671   2.734   4.329
17928W        W77431  27.956   5.302   4.796
17929W        W77432  37.028   5.195   0.353
17930W        W77433  16.601   6.401  11.108
17931W        W77434  44.314  14.240  11.584
17932W        W77435  18.757  19.779   1.237
17933W        W77436  38.469  10.305  11.870
17934W        W77437  26.676   4.820  13.381
17935W        W77438  22.509  34.612  13.450
17936W        W77439  32.983   0.824  12.997
17937W        W77440  16.110  33.446   4.787
17938W        W77441   3.811   4.266  11.075
17939W        W77442   5.263   4.743  14.984
17940W        W77443  20.729  12.772   0.894
17941W        W77444  21.614  36.861   4.742
17942W        W77445  38.039   3.402   2.846
17943W        W77446  39.457   5.758  14.461
17944W        W77447   9.839  25.183   2.301
17945W        W77448   4.231  29.017  11.099
17946W        W77449  28.462  31.597   3.377
17947W        W77450  29.486  16.125   1.880
17948W        W77451  37.557  27.625   2.327
17949W        W77452   7.671  34.907   3.346
17950W        W77453   9.690  14.174  11.012
17951W        W77454   8.857   6.231  11.949
17952W        W77455  37.855  32.405  13.933
17953W        W77456  29.087  44.853  14.313
17954W        W77457  31.442   7.311   3.189
17955W        W77458   7.843  23.089   4.226
17956W        W77459  22.076   1.881  10.467
17957W        W77460  15.124  26.101   0.788
17958W        W77461  44.844  41.021   2.774
17959W        W77462  43.500   7.279   0.810
17960W        W77463  33.434  17.793  11.981
17961W        W77464  43.312  39.545   4.199
17962W        W77465  21.032   1.797  10.409
17963W        W77466  39.543  14.607   2.766
17964W        W77467  31.949  18.051  12.545
17965W        W77468  27.167   3.331  11.904
17966W        W77469  14.617  37.892  14.851
17967W        W77470  28.054  10.671   4.777
17968W        W77471  12.284  32.108   4.351
17969W        W77472  38.870  38.074   0.746
17970W        W77473  23.736   5.372  10.898
17971W        W77474   6.376  32.050  12.393
17972W        W77475  33.414   6.204  10.919
17973W        W77476   1.953  12.614   1.440
17974W        W77477  18.250   9.213  10.423
17975W        W77478  32.611  21.238   0.420
17976W        W77479  37.337  44.361   4.735
17977W        W77480   2.353   2.806   0.846
17978W        W77481  29.567  27.077  12.515
17979W        W77482  37.035  14.613  14.493
17980W        W77483  14.140  40.014   2.263
17981W        W77484  33.380  13.194   3.382
17982W        W77485  32.885  35.532  11.967
17983W        W77486  30.122  18.064  10.489
17984W        W77487   5.324   9.843   1.903
17985W        W77488  22.072  11.839  13.379
17986W        W77489   8.234  25.034   1.244
17987W        W77490  25.648  39.888   0.918
17988W        W77491  28.027  30.969  14.966
17989W        W77492  39.359  32.512  14.345
17990W        W77493  31.402   2.377  10.579
17991W        W77494  43.487  14.108  12.564
17992W        W77495  40.373  31.542   3.383
17993W        W77496  41.981  19.191   5.688
17994W        W77497   5.235   3.939  14.784
17995W        W77498  32.517  21.628  11.525
17996W        W77499   3.370  26.567   3.773
17997W        W77500  15.814  35.970  12.059
17998W        W77501   9.230  30.629  12.883
17999W        W77502   5.254  16.255   2.720
18000W        W77503   5.778   9.878  10.523
18001W        W77504  16.782  24.158  11.444
18002W        W77505  22.517  13.125  13.346
18003W        W77506  31.528  30.517   2.321
18004W        W77507  10.877  28.022  14.410
18005W        W77508  29.941   0.390   0.322
18006W        W77509  11.857   6.270  10.424
18007W        W77510  16.303  28.074  14.829
18008W        W77511  18.056  28.666  13.405
18009W        W77512   7.334  36.045   3.838
18010W        W77513  33.910  24.665  11.029
18011W        W77514  40.996  41.828   0.737
18012W        W77515  15.175  36.089  10.978
18013W        W77516  37.426  14.102   1.763
18014W        W77517  14.250   1.388   0.329
18015W        W77518  30.100   5.304   0.301
18016W        W77519   7.179   5.721   2.663
18017W        W77520  17.150  10.742   0.866
18018W        W77521   6.403  44.473  13.540
18019W        W77522  42.415   6.236   4.711
18020W        W77523  15.270  20.230   4.773
18021W        W77524  39.952  19.695  14.783
18022W        W77525  18.569  44.280  11.533
18023W        W77526  30.585  31.047   4.779
18024W        W77527  18.761  38.881  13.970
18025W        W77528  35.442  37.430  10.617
18026W        W77529   8.742  26.175   4.670
18027W        W77530  33.917  15.680  10.961
18028W        W77531  14.762  26.045   1.248
18029W        W77532  39.903  12.625  13.996
18030W        W77533   8.823  37.345   5.164
18031W        W77534  36.353  13.641   3.869
18032W        W77535  35.403   9.645  10.934
18033W        W77536   9.679  42.786  14.339
18034W        W77537   8.724  17.652   1.329
18035W        W77538  44.375  30.090   9.992
18036W        W77539  39.987  22.202   1.406
18037W        W77540   5.917  41.036  14.460
18038W        W77541  31.904   3.765   3.224
18039W        W77542   1.241  31.481   0.427
18040W        W77543  22.123  21.160  11.563
18041W        W77544  13.168  38.954   0.409
18042W        W77545  35.916  19.570   3.798
18043W        W77546  41.996  41.508  14.859
18044W        W77547  18.788  36.490   3.638
18045W        W77548  23.720   5.414   0.762
18046W        W77549  24.583  30.058   0.879
18047W        W77550  40.391   5.876  12.828
18048W        W77551   5.812  22.649  13.404
18049W        W77552  11.694  15.814   1.802
18050W        W77553  43.934  26.701   3.654
18051W        W77554  16.245   2.342  12.372
18052W        W77555  12.639  37.938  11.052
18053W        W77556   0.357  33.592   3.363
18054W        W77557  26.519  37.062  14.973
18055W        W77558   5.858  33.522   0.807
18056W        W77559  32.497  26.543   0.930
18057W        W77560  17.722  34.886  14.374
18058W        W77561  11.693  34.585  12.571
18059W        W77562  12.773   5.236   2.751
18060W        W77563  12.293  37.344  10.591
18061W        W77564  23.053   0.267  14.795
18062W        W77565  41.035  19.201   3.834
18063W        W77566   6.885  14.148  11.092
18064W        W77567   3.900  39.534  14.815
18065W        W77568   6.313  32.415  11.100
18066W        W77569  19.198  28.105  13.378
18067W        W77570   5.932  20.551  14.496
18068W        W77571  19.652  31.559   3.366
18069W        W77572   1.796  25.160   0.740
18070W        W77573  16.207   4.436   2.415
18071W        W77574  22.659   4.816   4.669
18072W        W77575  34.537   3.301  12.489
18073W        W77576  29.532  41.537   2.770
18074W        W77577  40.853  22.685  14.820
18075W        W77578  40.038   0.376  10.912
18076W        W77579  27.093  36.396  11.893
18077W        W77580  40.805   1.428  10.913
18078W        W77581   8.178  42.506   1.399
18079W        W77582  11.778  30.427   1.915
18080W        W77583   5.362  37.552  14.780
18081W        W77584   5.810  37.889  12.442
18082W        W77585  22.051   3.270  11.579
18083W        W77586  15.602  23.537  12.097
18084W        W77587  42.464  33.074  10.979
18085W        W77588   0.390   9.679  13.423
18086W        W77589  38.330  31.620   4.163
18087W        W77590  37.386  33.585   4.239
18088W        W77591   1.732  19.623  13.445
18089W        W77592  23.699  24.108   2.210
18090W        W77593  33.019  20.657  11.011
18091W        W77594  22.600  29.453   0.379
18092W        W77595   4.912   7.855   0.355
18093W        W77596  28.004   6.809   3.700
18094W        W77597  16.181  36.406  14.943
18095W        W77598   8.716  35.479  10.558
18096W        W77599  44.373  21.211   3.835
18097W        W77600  39.468  17.719   3.734
18098W        W77601  19.666  19.546  14.911
18099W        W77602  23.536  32.483   2.663
18100W        W77603  25.051  15.263  12.503
18101W        W77604  34.046  34.979  14.983
18102W        W77605  16.662  38.401   0.948
18103W        W77606  28.017  34.476  11.554
18104W        W77607  22.718  41.482   1.752
18105W        W77608  25.213  34.915  14.429
18106W        W77609  44.764  40.939  14.769
18107W        W77610  15.306  32.061   4.243
18108W        W77611  21.131  20.589   4.650
18109W        W77612  27.663  14.155  12.392
18110W        W77613  44.007  34.534   0.352
18111W        W77614  41.346  33.436  13.794
18112W        W77615  36.857  13.123  11.107
18113W        W77616  28.595  24.216  13.489
18114W        W77617  18.256  43.354  10.604
18115W        W77618  10.807  13.606   3.666
18116W        W77619  34.095  12.692  14.941
18117W        W77620  37.979  36.931   2.375
18118W        W77621  22.676  21.735  13.463
18119W        W77622  36.920  23.535   3.798
18120W        W77623  14.628  16.578  13.838
18121W        W77624  26.197   0.388   0.876
18122W        W77625  18.133  17.758  13.904
18123W        W77626  28.439  30.553  10.499
18124W        W77627  16.759  16.596  10.488
18125W        W77628  33.013  19.096  10.595
18126W        W77629  20.675   0.920   5.149
18127W        W77630  32.450  13.769  12.966
18128W        W77631   4.901  27.498  11.972
18129W        W77632  16.649  31.002  10.441
18130W        W77633  38.526  40.519   1.724
18131W        W77634  37.002  21.733   3.718
18132W        W77635  26.994  19.193   0.338
18133W        W77636  24.674  33.886   2.376
18134W        W77637  32.894  22.746  12.088
18135W        W77638  10.201  35.905   3.335
18136W        W77639  10.340  42.816  11.115
18137W        W77640  20.697  43.856  14.369
18138W        W77641   7.760  29.939   4.177
18139W        W77642   0.920   1.765   3.741
18140W        W77643  42.862  41.931   0.474
18141W        W77644  23.568  34.910   4.663
18142W        W77645   0.922  28.059   2.273
18143W        W77646  10.367  28.618  11.891
18144W        W77647  32.593   1.443  11.589
18145W        W77648  43.335  41.934  12.431
18146W        W77649  27.576  27.085  11.541
18147W        W77650  10.190   2.930   3.735
18148W        W77651  18.648  35.520   1.765
18149W        W77652   6.862  22.671  12.004
18150W        W77653  29.661  30.913  11.386
18151W        W77654   7.807  31.507  10.591
18152W        W77655  44.915  27.025  14.316
18153W        W77656   7.350  16.737  10.486
18154W        W77657  21.196   7.911   2.226
18155W        W77658  16.190  39.808  12.470
18156W        W77659  32.005  39.487   4.658
18157W        W77660  23.709  22.577  13.832
18158W        W77661  41.519   9.255   3.186
18159W        W77662  12.122  25.106   4.301
18160W        W77663  15.665  23.597   2.852
18161W        W77664   9.843  37.019  13.525
18162W        W77665  10.377  40.884   2.823
18163W        W77666  40.816  36.958   0.870
18164W        W77667  10.206  38.476   2.799
18165W        W77668  10.237   3.801  11.387
18166W        W77669   3.403   7.261  10.499
18167W        W77670  14.289  12.804   3.642
18168W        W77671   2.731   3.954   3.815
18169W        W77672  40.444  36.048   5.300
18170W        W77673   6.707   1.298   3.185
18171W        W77674  27.957  43.008   2.284
18172W        W77675  20.226  14.280   0.264
18173W        W77676  22.733  13.813   0.373
18174W        W77677  20.533  30.545   3.319
18175W        W77678   4.829   8.402   2.707
18176W        W77679  15.756  44.855   1.234
18177W        W77680   2.833  23.596   0.342
18178W        W77681  44.851  10.157  11.450
18179W        W77682  33.610  15.589  10.548
18180W        W77683  32.494  43.326   4.196
18181W        W77684  21.674  20.767  11.587
18182W        W77685   3.709   5.437   3.660
18183W        W77686  34.434  34.117   2.724
18184W        W77687   8.789  18.126  10.493
18185W        W77688  16.587  40.361   1.272
18186W        W77689   4.294  30.453  10.544
18187W        W77690  35.924  17.210  14.449
18188W        W77691  22.515  30.912  11.373
18189W        W77692  41.341   2.382  14.980
18190W        W77693  43.925  44.502  13.863
18191W        W77694   9.369  37.080  10.522
18192W        W77695  29.589   9.881   1.353
18193W        W77696  32.092  38.987   1.830
18194W        W77697   8.664  31.054   5.129
18195W        W77698   5.872  28.466  14.381
18196W        W77699   6.398  44.421  11.993
18197W        W77700  11.757  17.262   9.983
18198W        W77701  27.015   0.492   4.740
18199W        W77702   1.441  23.585   4.784
18200W        W77703  42.817  35.603   1.408
18201W        W77704  42.791   6.299   0.735
18202W        W77705  33.602  19.633   4.597
18203W        W77706  18.598   3.377  13.336
18204W        W77707  32.525  36.096   1.212
18205W        W77708  31.523  35.948   4.787
18206W        W77709   5.258  26.497  11.610
18207W        W77710  13.634  26.014   1.397
18208W        W77711  40.443  17.728  12.484
18209W        W77712  40.515  30.144   1.432
18210W        W77713   0.405  14.161   3.295
18211W        W77714  36.350   4.729  10.566
18212W        W77715   7.740   7.197   3.297
18213W        W77716  17.665  43.296  12.833
18214W        W77717   7.259   4.897   0.944
18215W        W77718  17.181  27.194  14.858
18216W        W77719  24.611  39.980   3.165
18217W        W77720  10.284  17.593   2.837
18218W        W77721  34.554   7.724   0.923
18219W        W77722  17.186   4.833   0.929
18220W        W77723   9.345  12.307   5.321
18221W        W77724  24.207   6.839  10.454
18222W        W77725  37.337  22.229   4.135
18223W        W77726  32.924   5.285   4.769
18224W        W77727  15.787  11.753   2.239
18225W        W77728  43.793  34.946  11.956
18226W        W77729  22.525  37.842  10.575
18227W        W77730  23.619  24.073   0.819
18228W        W77731   0.902  15.660   5.103
18229W        W77732  35.875   3.403  14.295
18230W        W77733  37.051  19.132  10.437
18231W        W77734  12.727  44.950  11.023
18232W        W77735   1.816   3.238  13.442
18233W        W77736   0.282  32.582  12.339
18234W        W77737  38.480  34.412  14.362
18235W        W77738  14.222  22.722  11.934
18236W        W77739   2.886  10.378  14.767
18237W        W77740  14.835   6.774   1.748
18238W        W77741   2.329   6.905   2.837
18239W        W77742  44.475  11.828   0.433
18240W        W77743  23.711  17.697  11.975
18241W        W77744   2.257  14.774  12.899
18242W        W77745  17.285   8.351   4.603
18243W        W77746  35.413  21.712  11.107
18244W        W77747  21.514  27.059  13.321
18245W        W77748  38.906  30.572   1.872
18246W        W77749  32.571  32.938  14.933
18247W        W77750  33.010   9.683  11.377
18248W        W77751  35.916  44.441  14.989
18249W        W77752   0.863   7.339  14.298
18250W        W77753  43.416   4.310   1.290
18251W        W77754   5.295  32.057  12.422
18252W        W77755  27.007  42.961  13.461
18253W        W77756  21.565  23.579  13.946
18254W        W77757   4.391  35.896   2.729
18255W        W77758  14.739  43.345  13.451
18256W        W77759  21.131  35.437   1.700
18257W        W77760  34.061  37.399  10.014
18258W        W77761   0.777  17.078  11.568
18259W        W77762   5.415  39.482   2.198
18260W        W77763  34.964  37.472   4.599
18261W        W77764  30.942  22.201   4.166
18262W        W77765   9.796  17.219  13.966
18263W        W77766   9.774  36.561  12.428
18264W        W77767  23.715  34.502   3.640
18265W        W77768  37.458  11.243   4.255
18266W        W77769  30.907   3.954   2.857
18267W        W77770  33.111  20.227   1.862
18268W        W77771   6.424   1.253  11.547
18269W        W77772  25.197  13.180   0.290
18270W        W77773  15.306  44.274  10.625
18271W        W77774  12.353   3.895   3.767
18272W        W77775  11.788  22.691   0.249
18273W        W77776  29.162  34.387  13.489
18274W        W77777  13.233   7.388  11.986
18275W        W77778  27.084   2.312  12.979
18276W        W77779  25.982  25.676  10.933
18277W        W77780   2.345  44.361   2.901
18278W        W77781  24.648  43.971   2.842
18279W        W77782  29.632  19.200   0.315
18280W        W77783  41.468  28.113  10.629
18281W        W77784  40.873  19.213  13.027
18282W        W77785   7.192   2.372   4.764
18283W        W77786  23.163  15.141  14.783
18284W        W77787   5.737  24.045   4.318
18285W        W77788  32.011  16.240  13.491
18286W        W77789   3.237   4.445   2.858
18287W        W77790  18.768  41.872  12.005
18288W        W77791   0.487  14.799   2.856
18289W        W77792  30.036  11.864   9.925
18290W        W77793  41.473  29.158  11.431
18291W        W77794  25.165  29.950   2.228
18292W        W77795   2.818  28.596   3.172
18293W        W77796  37.385  12.706  11.417
18294W        W77797   8.693  35.389  12.573
18295W        W77798  23.121  15.117   4.173
18296W        W77799  15.693   9.871   1.213
18297W        W77800  37.859  29.935   0.753
18298W        W77801  19.576  17.095   3.640
18299W        W77802  10.222   8.751  11.541
18300W        W77803  19.726   7.205  14.779
18301W        W77804   7.403   7.228   4.637
18302W        W77805  31.552   0.906  13.054
18303W        W77806  44.325  14.132   2.394
18304W        W77807  18.704  36.001  12.569
18305W        W77808  13.293  14.789   1.233
18306W        W77809  31.996  44.405  10.961
18307W        W77810  41.295  37.542   1.718
18308W        W77811  20.596  15.627   3.235
18309W        W77812  42.994  18.730   2.255
18310W        W77813  24.226  39.913  11.583
18311W        W77814  28.493  26.084  12.341
18312W        W77815  18.202  42.866  10.524
18313W        W77816  34.979  33.969  10.907
18314W        W77817  27.528  29.488   4.773
18315W        W77818  42.858  12.636   2.763
18316W        W77819  20.764  27.654  14.959
18317W        W77820   2.965  21.722   2.824
18318W        W77821   0.274  34.961  11.544
18319W        W77822  36.391   9.806  14.466
18320W        W77823  37.493  15.178  11.917
18321W        W77824   4.341  22.596   3.289
18322W        W77825  21.567  33.511  11.457
18323W        W77826   0.318  23.715  13.996
18324W        W77827   3.414   1.771   3.341
18325W        W77828  42.371  38.933   3.842
18326W        W77829  29.170  24.056  11.931
18327W        W77830  23.517  12.123  11.881
18328W        W77831   9.307  12.778  14.020
18329W        W77832  10.335  29.446   2.212
18330W        W77833  33.395   5.415  12.466
18331W        W77834  20.636  12.693   3.822
18332W        W77835  40.821  19.053   4.122
18333W        W77836  32.977  43.283  10.536
18334W        W77837   5.888  44.909  11.535
18335W        W77838  42.305  38.037   4.269
18336W        W77839   6.328  23.042  14.841
18337W        W77840  42.776  30.948  11.982
18338W        W77841   5.301   7.176  12.080
18339W        W77842   0.969   3.266   5.298
18340W        W77843  32.578  30.070   2.224
18341W        W77844  16.746   0.842  10.615
18342W        W77845  32.461  34.525  12.848
18343W        W77846  28.155   2.255   5.281
18344W        W77847  22.524  33.478  11.384
18345W        W77848   4.382  12.191  10.437
18346W        W77849   9.694   8.211   2.810
18347W        W77850  20.104   9.818  11.111
18348W        W77851   4.372  24.678   2.340
18349W        W77852  38.504   4.319   2.820
18350W        W77853  11.285  15.820   4.240
18351W        W77854   8.737   8.162  14.920
18352W        W77855  34.419  35.025   1.433
18353W        W77856  23.726  43.879   3.650
18354W        W77857   4.371  36.452   4.786
18355W        W77858   2.258  43.375   1.789
18356W        W77859  26.679  24.144   3.712
18357W        W77860  25.075  16.797   1.296
18358W        W77861  37.077  42.392  13.013
18359W        W77862  12.152  35.901  12.845
18360W        W77863   0.760  22.738   1.918
18361W        W77864  26.598  13.801  10.538
18362W        W77865  19.219  29.437  12.060
18363W        W77866  20.166  17.595  12.048
18364W        W77867  26.607  13.203  11.538
18365W        W77868  13.732  18.736  12.995
18366W        W77869  23.576  38.441   2.409
18367W        W77870  33.429  32.971   4.271
18368W        W77871  19.705  24.523   4.662
18369W        W77872   6.401   8.219   1.214
18370W        W77873   3.781   3.244  12.050
18371W        W77874  31.933  10.332   0.733
18372W        W77875  31.628  28.117   0.866
18373W        W77876  30.024   6.341   4.203
18374W        W77877  10.268  36.075  10.433
18375W        W77878  43.474  14.198  11.373
18376W        W77879  12.664   2.901  11.587
18377W        W77880  19.724  34.588   1.332
18378W        W77881   8.388  41.840  12.856
18379W        W77882  30.505  25.040   0.264
18380W        W77883  35.026  23.644   3.708
18381W        W77884   1.796  21.059   2.289
18382W        W77885  25.155  40.490  10.905
18383W        W77886  10.684  40.829   3.663
18384W        W77887  34.035  18.633  14.497
18385W        W77888  33.880  22.720  10.098
18386W        W77889  24.076  44.490  12.550
18387W        W77890  34.010  20.701   0.797
18388W        W77891   0.932   7.410   4.717
18389W        W77892   4.295  20.163  14.351
18390W        W77893   2.316   8.763  11.429
18391W        W77894  23.716  25.160   2.811
18392W        W77895  16.748  27.185   2.895
18393W        W77896  22.196  44.906  10.156
18394W        W77897  23.566  18.774   1.882
18395W        W77898  28.563  34.569  14.862
18396W        W77899  21.158  44.397   4.668
18397W        W77900  26.548  41.535   2.900
18398W        W77901  18.220   2.733  12.477
18399W        W77902  19.236   4.375   3.370
18400W        W77903  23.164  40.982   0.318
18401W        W77904   4.755   8.283  14.943
18402W        W77905  13.310  26.606  11.545
18403W        W77906  17.693   3.335  11.120
18404W        W77907   3.753  29.026  12.990
18405W        W77908  12.751   2.860  12.866
18406W        W77909   9.150   7.179  11.032
18407W        W77910  22.090   4.316  14.460
18408W        W77911  16.796  37.013  13.426
18409W        W77912  13.779  44.406   4.257
18410W        W77913  15.652  35.567  10.982
18411W        W77914  27.654   3.724   4.347
18412W        W77915  28.660  33.543  14.874
18413W        W77916  19.580   2.922   1.885
18414W        W77917  39.856   9.177   3.162
18415W        W77918   7.675  44.295   0.922
18416W        W77919  17.170  10.667   3.800
18417W        W77920  20.542  30.630   3.859
18418W        W77921  27.965   0.852   4.753
18419W        W77922  38.838  15.165  11.484
18420W        W77923  15.697   1.343  14.376
18421W        W77924  27.641  24.216  12.060
18422W        W77925   5.409  44.987   3.265
18423W        W77926  30.429  34.086   3.337
18424W        W77927  15.646  41.297   4.801
18425W        W77928   5.383  25.488  10.907
18426W        W77929  35.933  27.950  14.888
18427W        W77930  25.697   9.390  13.859
18428W        W77931   8.201  18.698   1.868
18429W        W77932   7.901  38.845  11.495
18430W        W77933  14.136   2.764  13.799
18431W        W77934   3.767  44.753   2.227
18432W        W77935  42.882   7.361  11.016
18433W        W77936  10.724  23.109  14.813
18434W        W77937  23.134   0.460   2.746
18435W        W77938   1.965  12.756  13.446
18436W        W77939  34.514  37.452   3.202
18437W        W77940   6.905  19.715  14.870
18438W        W77941  13.608  26.203   0.950
18439W        W77942  42.940  32.405  12.868
18440W        W77943   1.863  32.471   2.763
18441W        W77944  11.170  43.381   4.810
18442W        W77945  44.399   8.230   4.701
18443W        W77946  33.123  20.698   4.648
18444W        W77947   4.419   7.718  12.339
18445W        W77948  21.222   9.731   2.330
18446W        W77949  11.339  17.791  12.047
18447W        W77950   5.872  24.208   0.754
18448W        W77951   7.406   9.726  10.894
18449W        W77952  13.263  11.715   3.859
18450W        W77953   8.865  16.693   4.171
18451W        W77954   3.907  41.488  11.045
18452W        W77955   8.731  23.721   1.890
18453W        W77956  29.015   6.895   4.314
18454W        W77957  20.694  17.236   4.194
18455W        W77958  38.554  26.484   2.282
18456W        W77959  20.767  43.993  13.355
18457W        W77960   4.750  34.559  14.450
18458W        W77961   6.324  38.522   4.124
18459W        W77962  21.220  43.352   4.799
18460W        W77963  30.533  16.091   2.290
18461W        W77964   2.932  19.749  12.897
18462W        W77965  30.505  43.385  10.559
18463W        W77966  20.077  40.874  10.643
18464W        W77967  10.866  19.581  13.927
18465W        W77968  33.049  14.750  14.896
18466W        W77969  27.506  36.071   5.109
18467W        W77970  27.068   8.350   2.201
18468W        W77971  19.613   8.759   9.958
18469W        W77972   1.832  35.027   1.761
18470W        W77973   6.698   2.334  11.546
18471W        W77974   2.742  43.908  14.782
18472W        W77975  30.073  16.142  13.508
18473W        W77976  39.904   3.818   3.865
18474W        W77977   3.736  25.512   2.273
18475W        W77978  44.802  24.989  12.894
18476W        W77979  22.100   5.420  12.550
18477W        W77980  26.576  44.807  11.097
18478W        W77981  32.889  29.086  13.498
18479W        W77982  29.583  17.799  11.565
18480W        W77983  31.548   2.942  13.818
18481W        W77984   9.774   2.347  14.498
18482W        W77985  25.630  13.293   1.352
18483W        W77986   3.726  39.527  12.479
18484W        W77987  44.976  31.940   3.274
18485W        W77988  29.009   2.818  14.934
18486W        W77989   1.760  35.924   4.345
18487W        W77990  12.627   4.769   0.821
18488W        W77991  12.792  38.823   4.154
18489W        W77992  18.293  18.674   2.267
18490W        W77993  15.155  18.604   1.862
18491W        W77994  39.463  27.602   1.884
18492W        W77995  11.359  35.599  11.081
18493W        W77996   2.884  10.346  14.336
18494W        W77997   9.655  21.232   4.809
18495W        W77998  21.055  14.596  14.329
18496W        W77999  34.432  18.656  13.923
18497W        W78000  24.992   6.237   5.276
18498W        W78001  23.009  35.471  13.432
18499W        W78002  34.101  16.649   4.766
18500W        W78003  24.218  20.200  13.966
18501W        W78004  20.655  14.769   0.383
18502W        W78005  15.709  39.032   3.302
18503W        W78006  15.806   6.390   0.732
18504W        W78007  30.927  19.734  14.792
18505W        W78008  17.114  27.493  12.514
18506W        W78009  29.594  36.575   1.422
18507W        W78010  10.715  39.983  10.990
18508W        W78011  43.785   7.881  12.471
18509W        W78012  33.389   6.385   0.256
18510W        W78013   9.671  36.066   9.927
18511W        W78014   9.796  31.139   3.359
18512W        W78015  13.326  42.387   2.799
18513W        W78016  29.452  15.267  13.911
18514W        W78017  17.203  14.675   0.763
18515W        W78018  37.512  22.171  10.918
18516W        W78019  36.861   0.892  13.821
18517W        W78020   3.454  38.438  13.824
18518W        W78021   8.829   6.330   2.897
18519W        W78022   2.795  31.548  11.098
18520W        W78023   5.825   8.680  13.812
18521W        W78024  17.582  22.047   4.685
18522W        W78025   0.758  32.561   0.957
18523W        W78026  15.798   6.813   3.318
18524W        W78027  32.135  10.764  13.339
18525W        W78028  30.628  10.383   4.762
18526W        W78029   4.266   9.655   2.675
18527W        W78030  36.018   8.222   1.264
18528W        W78031  15.323  24.095   1.224
18529W        W78032  38.883  23.506  12.555
18530W        W78033  28.073  10.684   2.299
18531W        W78034  33.944  41.413  14.342
18532W        W78035   0.339  32.466  11.905
18533W        W78036  10.657  10.168   2.335
18534W        W78037  25.049  22.712   2.723
18535W        W78038  14.735  43.986   4.264
18536W        W78039   1.746  43.912   1.216
18537W        W78040   3.312   3.877  11.033
18538W        W78041  27.484  17.251   3.768
18539W        W78042  43.920  33.129  10.936
18540W        W78043  38.467  30.012   2.834
18541W        W78044  10.153  31.924   5.267
18542W        W78045  33.051   9.292  13.935
18543W        W78046  13.232  17.193   1.262
18544W        W78047  32.609   7.360   5.148
18545W        W78048   8.371  19.682  10.501
18546W        W78049  27.625  34.899  12.538
18547W        W78050  40.471   1.424  14.926
18548W        W78051  29.141   9.168   3.155
18549W        W78052   4.745  19.600   0.397
18550W        W78053   1.376  11.839  10.430
18551W        W78054  12.662   5.439  10.457
18552W        W78055  33.594  35.910   0.825
18553W        W78056  35.484  16.252  11.394
18554W        W78057  10.237  20.737   3.150
18555W        W78058  20.199  31.016  12.970
18556W        W78059   7.694  24.176  12.461
18557W        W78060  29.971   8.807   3.275
18558W        W78061   1.749  31.440   0.352
18559W        W78062  12.232  36.904  14.446
18560W        W78063  33.118  37.837   1.850
18561W        W78064  24.993  40.441   2.742
18562W        W78065  20.662   7.793   2.350
18563W        W78066  24.668  19.725   2.274
18564W        W78067  19.154  15.323  12.051
18565W        W78068  34.420  13.702  10.539
18566W        W78069  12.715  32.542  13.380
18567W        W78070  41.971  40.547  14.991
18568W        W78071  26.690  27.542   3.273
18569W        W78072  20.126  43.769   1.710
18570W        W78073  37.036  22.044   2.316
18571W        W78074   3.460  30.560   3.824
18572W        W78075   7.855  41.296  13.394
18573W        W78076  44.761   3.775  14.980
18574W        W78077  14.137  37.001   4.158
18575W        W78078  40.913   8.364  12.547
18576W        W78079   0.369  43.813   9.531
18577W        W78080   2.351  43.362   2.732
18578W        W78081  36.522   4.345  11.873
18579W        W78082  14.232  32.057  12.563
18580W        W78083  26.469  40.344   2.337
18581W        W78084  42.334   4.331  11.596
18582W        W78085  32.406  36.428   3.386
18583W        W78086  31.583  13.250  10.976
18584W        W78087  12.207   8.397  12.502
18585W        W78088   7.732  27.029   4.671
18586W        W78089   9.216  26.703   9.924
18587W        W78090  37.954  14.294   0.472
18588W        W78091   5.208  34.960  13.328
18589W        W78092  18.630  37.361  10.517
18590W        W78093  28.179  32.929  11.417
18591W        W78094  20.268  41.364  13.428
18592W        W78095  17.306  19.614   2.865
18593W        W78096  24.166   6.351   0.359
18594W        W78097  25.602  25.996   4.269
18595W        W78098  18.288   0.407  14.451
18596W        W78099  17.780  42.027  10.919
18597W        W78100  40.915  30.131  14.463
18598W        W78101  21.099  30.077   2.346
18599W        W78102  23.056  20.071  10.624
18600W        W78103  33.437  15.143   4.130
18601W        W78104  33.462   7.267   4.138
18602W        W78105  41.500  20.196   4.297
18603W        W78106   9.870   6.739   2.309
18604W        W78107   2.282  31.035  10.554
18605W        W78108  10.383  22.055  11.493
18606W        W78109  21.611  25.546   0.390
18607W        W78110   1.271  38.055   2.720
18608W        W78111  35.864  26.170  13.963
18609W        W78112  25.967  33.122   4.263
18610W        W78113  13.672  28.596  11.609
18611W        W78114  25.495   5.731   4.222
18612W        W78115  40.020  20.597  12.881
18613W        W78116  37.442  40.820   0.865
18614W        W78117  32.890  35.947  12.965
18615W        W78118  42.490  28.044  12.345
18616W        W78119   0.895   5.224   3.670
18617W        W78120  24.142  44.278   4.785
18618W        W78121  16.296  16.091  11.934
18619W        W78122  28.177  29.452  14.302
18620W        W78123   1.339  28.537   1.851
18621W        W78124  28.027  22.063   3.159
18622W        W78125  35.865  22.541   1.310
18623W        W78126  11.830  34.969   2.228
18624W        W78127  12.237   6.315   2.349
18625W        W78128  32.059  30.135  13.493
18626W        W78129  21.221  36.070  14.928
18627W        W78130  32.582   0.962   0.879
18628W        W78131   1.977  26.079   3.724
18629W        W78132  37.950  25.119   4.756
18630W        W78133   5.806  29.043  13.340
18631W        W78134  43.848  10.380  10.947
18632W        W78135   5.769  24.099  10.434
18633W        W78136  35.523   5.256  12.480
18634W        W78137  21.592  29.163   3.190
18635W        W78138  25.962  26.653   1.372
18636W        W78139  20.209  40.979   1.777
18637W        W78140  42.901   0.399   4.795
18638W        W78141  19.101  38.827  13.467
18639W        W78142  13.289  28.169  10.539
18640W        W78143  36.842  40.927   0.858
18641W        W78144  35.453  18.688   4.599
18642W        W78145  22.048  21.755   4.266
18643W        W78146  25.473  31.562   2.722
18644W        W78147  28.609  33.585  14.336
18645W        W78148  37.396  18.566   2.731
18646W        W78149  28.992  35.895  14.407
18647W        W78150  44.485   3.359   0.732
18648W        W78151  21.522  15.241   2.696
18649W        W78152  32.434  44.948  10.626
18650W        W78153  11.843  26.048   2.763
18651W        W78154  21.117  44.771   0.304
18652W        W78155  35.066  26.179  14.000
18653W        W78156  18.153  43.772  11.927
18654W        W78157  11.176  30.014  13.544
18655W        W78158  21.020  36.915  10.628
18656W        W78159  37.978  40.009   4.819
18657W        W78160  29.102  17.198   0.852
18658W        W78161   6.351  10.320   3.708
18659W        W78162  42.974   4.299   0.823
18660W        W78163  26.456  17.097   1.788
18661W        W78164  32.926   3.359  14.978
18662W        W78165  14.735  14.164  14.436
18663W        W78166  42.946   5.283   1.272
18664W        W78167  33.381   4.917  14.938
18665W        W78168   8.216  17.660  13.357
18666W        W78169  18.757   4.316   2.740
18667W        W78170  39.931  42.327  13.445
18668W        W78171  33.447  29.647  14.837
18669W        W78172   4.431  27.650  13.936
18670W        W78173  20.532  19.148  10.577
18671W        W78174  13.816  17.672  12.528
18672W        W78175  13.147   8.777   1.338
18673W        W78176  19.057  19.694   0.818
18674W        W78177  35.981   4.937  14.411
18675W        W78178  18.564  19.759   2.199
18676W        W78179  36.528   0.394  12.569
18677W        W78180  19.537  37.511  11.522
18678W        W78181   2.872  21.111   0.799
18679W        W78182  30.505  28.136  13.889
18680W        W78183  29.658  26.183   1.705
18681W        W78184  18.678  41.496  11.898
18682W        W78185  12.194  44.918  11.901
18683W        W78186  37.540   5.730   2.850
18684W        W78187  40.483   0.273  13.033
18685W        W78188  28.960   8.874  10.997
18686W        W78189  20.560  36.497   1.257
18687W        W78190  27.638  32.614  13.986
18688W        W78191  24.124  26.128   1.242
18689W        W78192  15.804  30.643  14.925
18690W        W78193  12.162  30.131  14.935
18691W        W78194  35.016  41.392   1.231
18692W        W78195   4.781  12.313  13.344
18693W        W78196  34.046  21.532  11.050
18694W        W78197   1.858  23.174  13.405
18695W        W78198  29.114  27.170   0.928
18696W        W78199   6.842  22.065  14.369
18697W        W78200  39.930  17.254   3.821
18698W        W78201   9.369  40.443   3.380
18699W        W78202  10.821  20.710   2.828
18700W        W78203  24.125  40.306   0.822
18701W        W78204  40.342  27.545   4.154
18702W        W78205  38.429  17.751   1.449
18703W        W78206   4.852  15.109   4.170
18704W        W78207   7.674   2.767   0.930
18705W        W78208   9.760  12.311  14.400
18706W        W78209   8.365  14.271   1.806
18707W        W78210   0.354  18.593  11.585
18708W        W78211   4.273  11.685  10.975
18709W        W78212  28.611  14.777   3.225
18710W        W78213   1.836   4.332   0.408
18711W        W78214  29.978  12.173  11.460
18712W        W78215  18.706   1.295   4.154
18713W        W78216  23.686  40.956   1.273
18714W        W78217  36.861  17.196  12.928
18715W        W78218   2.444  31.422  14.016
18716W        W78219  28.449  39.365   1.397
18717W        W78220  27.453  36.467   0.277
18718W        W78221  12.846  24.597  11.942
18719W        W78222  42.328  15.187  13.869
18720W        W78223  44.977  29.126   1.706
18721W        W78224  36.960   9.874   2.677
18722W        W78225   7.777  40.004  13.516
18723W        W78226  17.216  34.024  12.359
18724W        W78227  37.443  14.757   5.318
18725W        W78228  29.072   2.421  12.894
18726W        W78229   7.247   7.248  14.371
18727W        W78230  32.004  26.090   5.773
18728W        W78231  43.340  26.077  13.016
18729W        W78232  38.897  23.575  14.414
18730W        W78233   0.402  32.461   0.383
18731W        W78234  35.573   9.700   4.130
18732W        W78235  35.042  20.734  13.339
18733W        W78236  20.585   6.687  11.979
18734W        W78237  21.066  22.606   3.221
18735W        W78238  27.091  16.170  14.012
18736W        W78239  31.642   4.864   1.802
18737W        W78240  20.044  28.502   3.667
18738W        W78241  42.450  20.064   1.443
18739W        W78242  40.407  25.191   3.170
18740W        W78243  36.947  25.667  13.524
18741W        W78244  27.166  37.580  13.817
18742W        W78245   1.246  41.795  11.913
18743W        W78246  10.289  16.194   3.156
18744W        W78247  24.109  37.987   4.710
18745W        W78248   8.774  42.968  12.032
18746W        W78249  12.703  19.672   1.921
18747W        W78250  39.319  41.000   2.858
18748W        W78251  43.971  35.902  14.291
18749W        W78252   6.191   8.302  14.901
18750W        W78253  23.574  24.527  12.371
18751W        W78254  44.893   9.858   0.422
18752W        W78255  31.460  33.518   1.731
18753W        W78256  16.169  37.372   2.295
18754W        W78257   0.747  19.696   3.753
18755W        W78258  10.375  21.715   1.759
18756W        W78259  27.948  37.534  12.357
18757W        W78260  44.344  25.996   1.906
18758W        W78261  25.708  38.974   2.672
18759W        W78262  44.930   6.770   4.261
18760W        W78263  42.815  33.910  10.901
18761W        W78264   2.448  26.052   2.750
18762W        W78265   1.732   0.848   0.737
18763W        W78266   6.195   0.353  12.904
18764W        W78267  21.137   0.826   1.694
18765W        W78268   9.767  39.005   2.666
18766W        W78269  33.976  38.450  10.487
18767W        W78270  39.487   9.216   0.874
18768W        W78271  35.966   0.783  11.114
18769W        W78272  18.663  11.863  13.061
18770W        W78273  22.225  44.272   2.764
18771W        W78274  21.217  15.188  10.434
18772W        W78275   6.917  19.603  13.406
18773W        W78276   5.771  10.351  13.327
18774W        W78277   6.214  39.389  11.379
18775W        W78278  31.082  35.411   0.348
18776W        W78279  33.979  40.383  10.606
18777W        W78280  23.499  25.207  13.500
18778W        W78281  17.800   5.427  11.982
18779W        W78282   4.832  25.197   3.260
18780W        W78283   5.379  27.112  10.630
18781W        W78284  10.744  21.515   4.315
18782W        W78285  21.172  34.967   5.093
18783W        W78286  37.466   6.724   3.689
18784W        W78287  43.009  21.753   3.707
18785W        W78288  25.101  15.193   4.743
18786W        W78289  12.723  42.454  11.571
18787W        W78290  12.797  22.221  12.426
18788W        W78291  36.496  44.482   1.708
18789W        W78292   2.292  37.571   4.786
18790W        W78293   5.339  31.099   1.788
18791W        W78294  11.806   2.724  12.001
18792W        W78295  17.617  11.244   0.815
18793W        W78296  42.475  18.742   5.755
18794W        W78297  11.684  38.403  12.082
18795W        W78298  18.085  25.594  13.466
18796W        W78299  41.938   0.768   2.769
18797W        W78300   7.323  36.034  11.545
18798W        W78301  38.972  39.883   5.104
18799W        W78302  26.553  19.215   2.714
18800W        W78303  12.141  41.486  14.330
18801W        W78304   8.884  34.404   2.751
18802W        W78305   5.809   6.893   3.657
18803W        W78306  30.019  43.955  13.992
18804W        W78307   9.317  40.846   3.343
18805W        W78308   4.332  15.282   1.766
18806W        W78309  43.463  43.494  11.865
18807W        W78310  24.204  24.003  13.807
18808W        W78311  40.887  40.424  10.525
18809W        W78312  21.658   2.460  12.046
18810W        W78313  41.901  42.856  11.417
18811W        W78314  12.685  29.109   3.719
18812W        W78315  22.737  35.097  10.978
18813W        W78316  23.222  20.753  12.006
18814W        W78317   2.905  33.037  10.559
18815W        W78318  11.668  33.024   0.482
18816W        W78319  24.623   8.854   4.697
18817W        W78320  38.442   2.286   1.920
18818W        W78321  21.111  22.016  10.617
18819W        W78322  41.390  19.649   2.405
18820W        W78323  30.486  10.298   2.284
18821W        W78324  40.840  11.179  12.557
18822W        W78325  42.966   6.319  13.544
18823W        W78326  23.621  18.111  11.542
18824W        W78327  42.426  18.634   4.630
18825W        W78328  43.994   0.874  10.606
18826W        W78329  34.417  26.971   3.286
18827W        W78330  27.582  28.575   0.820
18828W        W78331  44.987  12.758  11.397
18829W        W78332  35.526  38.501  12.942
18830W        W78333  29.593  38.972  10.942
18831W        W78334  24.216   3.792   2.265
18832W        W78335  19.231  19.587   1.287
18833W        W78336  39.368  33.460  10.524
18834W        W78337  43.973  16.611   3.223
18835W        W78338  16.203  20.581  13.864
18836W        W78339  24.681   7.283  14.909
18837W        W78340  36.530  17.200  14.009
18838W        W78341   4.342  19.627  14.018
18839W        W78342  25.125   8.858   3.783
18840W        W78343  27.954  25.499   4.716
18841W        W78344  25.964  42.503   3.352
18842W        W78345   1.353  14.815   4.255
18843W        W78346  23.724  44.790   2.233
18844W        W78347  21.619  15.636  10.947
18845W        W78348  31.483   0.489   0.837
18846W        W78349  43.294   8.234   3.339
18847W        W78350   3.218  13.735  11.519
18848W        W78351  27.051  26.116  12.908
18849W        W78352  20.179  25.503   2.689
18850W        W78353   5.306   1.354  10.492
18851W        W78354  24.056  33.109  14.497
18852W        W78355  17.077  42.326   2.682
18853W        W78356  18.144  15.804   1.718
18854W        W78357  41.316  14.318   3.183
18855W        W78358   7.689  12.618   0.281
18856W        W78359  40.422  26.572   1.399
18857W        W78360  15.095  37.435   3.641
18858W        W78361  20.759  30.533  14.919
18859W        W78362  29.468  18.786   4.741
18860W        W78363   9.694  27.546   2.413
18861W        W78364  27.608  44.879   1.367
18862W        W78365  11.167  41.823  13.523
18863W        W78366  26.586  35.498   4.603
18864W        W78367   2.770   8.829  12.557
18865W        W78368  32.399  13.792   1.315
18866W        W78369  19.079  23.685   4.130
18867W        W78370  31.922  42.866  13.920
18868W        W78371  39.976  40.861   3.343
18869W        W78372  23.726   0.278   0.295
18870W        W78373   4.757  31.606   2.793
18871W        W78374  34.015  25.558  10.514
18872W        W78375  28.511   7.283  13.898
18873W        W78376  27.057  27.053   4.824
18874W        W78377   7.859   3.792   4.286
18875W        W78378  43.323  32.544  11.539
18876W        W78379  22.666  34.470   1.306
18877W        W78380  10.202  40.963  12.834
18878W        W78381  38.037  10.704  13.877
18879W        W78382   9.212  28.001  11.493
18880W        W78383  31.925  17.112   0.799
18881W        W78384   2.865   9.292  12.521
18882W        W78385  10.379  42.906   0.856
18883W        W78386   1.468  43.797   2.227
18884W        W78387   0.797  13.673  12.090
18885W        W78388  34.531  39.986   3.802
18886W        W78389  36.409   6.406   2.285
18887W        W78390  40.941  13.121  11.013
18888W        W78391  13.351   6.744  11.476
18889W        W78392  35.048  11.736   1.267
18890W        W78393   3.259  43.947   3.145
18891W        W78394   4.881  14.292   2.276
18892W        W78395   8.324  11.760   1.360
18893W        W78396  20.690  27.180   0.475
18894W        W78397  27.067   7.719   0.809
18895W        W78398  23.125   1.906  12.865
18896W        W78399   7.878  34.561  14.008
18897W        W78400  27.136  25.210   1.366
18898W        W78401   1.757  12.694   2.900
18899W        W78402   1.752  17.701  12.075
18900W        W78403  23.239  13.631  14.019
18901W        W78404  41.894  40.903  14.407
18902W        W78405  40.465  18.053   0.263
18903W        W78406  15.156  41.829   1.800
18904W        W78407  34.898   7.884   1.870
18905W        W78408  10.663  10.691  14.925
18906W        W78409  28.175  39.546  11.941
18907W        W78410   4.446  18.621   0.280
18908W        W78411   7.304  28.995   0.394
18909W        W78412  29.666   6.726  14.294
18910W        W78413  33.914   3.403   4.304
18911W        W78414  39.368  21.590   4.714
18912W        W78415  22.687  18.289  13.955
18913W        W78416  13.227  31.529   1.779
18914W        W78417  16.730   9.867   4.334
18915W        W78418   2.855  35.382  13.826
18916W        W78419  11.624  40.510   1.320
18917W        W78420  13.256  42.982   0.790
18918W        W78421  31.627   5.835  11.574
18919W        W78422   6.271  13.658  11.034
18920W        W78423  12.770  20.043   4.252
18921W        W78424   7.296  33.539   3.824
18922W        W78425  41.994   4.787  11.541
18923W        W78426  32.552  10.683   2.837
18924W        W78427  20.664  21.691   3.322
18925W        W78428  27.158  11.213  14.904
18926W        W78429  14.130  44.464  11.081
18927W        W78430  16.244  20.566   1.769
18928W        W78431  32.536   9.310  11.460
18929W        W78432  22.083   2.294   0.404
18930W        W78433  35.600  24.545  12.009
18931W        W78434   1.481   0.490   0.847
18932W        W78435  36.020  35.858   4.176
18933W        W78436  15.156  34.951  14.476
18934W        W78437   3.403  43.405  12.507
18935W        W78438  29.052   9.315  14.378
18936W        W78439   1.839  25.105   3.342
18937W        W78440   8.774  17.733   4.823
18938W        W78441   3.414  22.995   4.248
18939W        W78442   2.358  36.491  14.997
18940W        W78443  23.086  28.627   1.279
18941W        W78444  21.520  23.701   4.332
18942W        W78445  35.437  38.530   1.430
18943W        W78446  33.385  44.495  14.410
18944W        W78447   9.283  25.566  14.027
18945W        W78448  29.964  43.953  14.986
18946W        W78449  16.298   6.261   1.910
18947W        W78450  22.198  21.123   3.825
18948W        W78451  25.531  38.566   3.668
18949W        W78452   8.747  44.498   3.156
18950W        W78453  17.781  27.949  11.938
18951W        W78454   1.883   4.389   1.829
18952W        W78455  27.563  22.674   0.270
18953W        W78456  32.556  39.390  13.937
18954W        W78457   4.381   2.785  10.419
18955W        W78458  15.170  11.694  11.600
18956W        W78459  30.060   9.209   3.245
18957W        W78460   5.231  32.901   4.287
18958W        W78461  14.748  13.251   2.375
18959W        W78462  17.080   7.695   4.648
18960W        W78463  41.915  15.741   2.192
18961W        W78464  34.483  27.107  13.403
18962W        W78465  26.959  16.763  10.469
18963W        W78466  17.163   2.883  11.991
18964W        W78467  39.512  29.980   4.661
18965W        W78468  31.047   5.854  14.509
18966W        W78469  17.676  32.918   0.905
18967W        W78470  42.315  38.420   3.169
18968W        W78471  34.469  25.074  10.912
18969W        W78472  28.452  21.681   2.687
18970W        W78473   3.296  35.414   3.258
18971W        W78474  13.811  25.693   1.809
18972W        W78475  28.555   7.198   3.752
18973W        W78476  16.731   4.346  12.885
18974W        W78477  41.937  28.023  11.476
18975W        W78478  14.663  28.526  14.422
18976W        W78479  19.064  10.248   2.696
18977W        W78480  37.349  37.548   3.304
18978W        W78481  43.957  30.554   2.861
18979W        W78482  44.003  20.615  11.473
18980W        W78483   0.416  11.227   0.381
18981W        W78484  41.933  32.959  14.013
18982W        W78485   6.391  34.063   2.332
18983W        W78486  44.393   6.190   5.220
18984W        W78487  12.791  19.236   0.432
18985W        W78488  44.922  35.970  10.968
18986W        W78489  21.533  13.115  12.932
18987W        W78490  42.799  31.633  10.916
18988W        W78491  29.097  37.561   0.887
18989W        W78492   3.808  23.561   0.373
18990W        W78493  31.091  14.781   5.201
18991W        W78494  11.334  27.114  12.882
18992W        W78495  21.596  24.560   1.714
18993W        W78496  33.096  20.088  13.037
18994W        W78497  14.312  16.793   4.605
18995W        W78498   7.308  39.924  11.900
18996W        W78499  41.312   3.217  11.092
18997W        W78500   4.866  16.591  14.932
18998W        W78501  43.817  23.139   4.823
18999W        W78502  21.662  17.700   2.377
19000W        W78503   0.351  38.563  14.456
19001W        W78504  32.396  26.167   1.444
19002W        W78505   9.870  36.013  12.357
19003W        W78506  31.967  33.440  13.507
19004W        W78507  14.716  18.569  13.856
19005W        W78508  24.580   6.892   4.647
19006W        W78509  16.184   4.891   2.383
19007W        W78510  41.384  11.806   2.364
19008W        W78511  30.971  29.584   3.332
19009W        W78512   6.847  23.613   2.665
19010W        W78513  18.163  41.809  13.315
19011W        W78514  14.160   9.198  13.332
19012W        W78515  11.336  40.510   4.614
19013W        W78516  32.936   6.806  10.429
19014W        W78517  40.384   7.315   4.243
19015W        W78518  15.267  39.469  10.538
19016W        W78519   0.362  13.660  14.374
19017W        W78520  32.399  33.894   2.267
19018W        W78521  18.781  39.955  12.492
19019W        W78522   7.841  11.788   3.776
19020W        W78523  37.531  12.618  13.803
19021W        W78524  11.303  34.489   0.363
19022W        W78525   1.288  37.992   0.779
19023W        W78526  11.306  37.553   4.324
19024W        W78527  33.508  24.681  13.982
19025W        W78528  37.022  10.284   1.895
19026W        W78529  16.632  29.998  11.078
19027W        W78530  41.909  16.679   0.833
19028W        W78531  29.482  20.193   0.461
19029W        W78532   7.410   9.325  14.480
19030W        W78533   0.899  19.097  13.011
19031W        W78534  34.501   4.898   0.264
19032W        W78535  23.544  35.485   4.810
19033W        W78536   6.226   8.736   3.765
19034W        W78537   1.751  30.054  13.453
19035W        W78538  33.907   0.948   2.789
19036W        W78539  25.641  35.589  11.884
19037W        W78540  31.414  29.140   3.371
19038W        W78541  31.510  29.453   2.674
19039W        W78542  28.045   7.735   1.442
19040W        W78543  36.352   0.897  11.418
19041W        W78544  23.624   9.256   2.366
19042W        W78545  16.315  29.140  12.059
19043W        W78546  11.127  20.585   4.114
19044W        W78547  27.627   2.803  14.827
19045W        W78548  18.092  18.187   0.924
19046W        W78549  33.419  14.696  14.806
19047W        W78550  33.939  15.290  14.505
19048W        W78551  38.348   1.395   0.875
19049W        W78552   5.431  17.212   3.327
19050W        W78553  12.741  10.646   1.696
19051W        W78554  28.600   3.833  10.922
19052W        W78555  25.666  44.344   2.335
19053W        W78556   5.316   5.906  10.983
19054W        W78557  31.005  30.463  13.977
19055W        W78558  39.060   4.868   5.281
19056W        W78559  22.656  39.492   4.712
19057W        W78560   0.261  18.768   2.875
19058W        W78561   9.833  28.583   0.344
19059W        W78562   9.888  35.396  10.594
19060W        W78563  38.032  35.004   1.439
19061W        W78564  36.442   0.892  13.482
19062W        W78565  11.253  12.276  13.468
19063W        W78566  38.464  10.746  14.797
19064W        W78567  10.374  37.517   0.869
19065W        W78568  38.327   3.867   4.632
19066W        W78569  33.476  32.443   4.346
19067W        W78570   1.757  18.176  10.468
19068W        W78571  22.242  23.131   2.679
19069W        W78572  32.392  39.889   0.850
19070W        W78573   5.249  26.028   5.200
19071W        W78574  44.315  15.240   3.310
19072W        W78575  43.516  41.462   1.293
19073W        W78576  40.822  22.649   1.779
19074W        W78577  42.291   4.898   4.761
19075W        W78578  24.200  36.955  14.838
19076W        W78579   9.293   7.219   4.264
19077W        W78580  17.623   1.809   2.284
19078W        W78581  14.614  30.606   2.252
19079W        W78582   6.676  11.261  13.934
19080W        W78583   1.930   5.785   0.282
19081W        W78584  20.045  35.537  12.072
19082W        W78585   5.836  25.178   3.357
19083W        W78586  37.048  20.638   3.832
19084W        W78587  42.925  25.052  13.321
19085W        W78588   7.854   9.786   0.897
19086W        W78589  31.971  13.262   3.285
19087W        W78590  35.056  30.088  10.907
19088W        W78591  17.249  34.613  13.979
19089W        W78592   4.321  25.076  14.348
19090W        W78593  22.660  26.600   4.301
19091W        W78594  27.187  11.203  10.929
19092W        W78595  36.949  23.574   2.328
19093W        W78596   7.193   8.297  12.554
19094W        W78597  32.061  31.564  10.488
19095W        W78598  26.686  32.917   3.175
19096W        W78599  27.059  33.560   1.218
19097W        W78600  15.322  33.076   3.344
19098W        W78601  13.601  37.891   0.384
19099W        W78602   8.299  32.596  10.903
19100W        W78603  43.466   7.716   5.099
19101W        W78604   9.674  38.532   4.763
19102W        W78605  16.303   2.791  14.294
19103W        W78606  43.277  26.081  14.814
19104W        W78607  42.826   5.414  11.538
19105W        W78608   7.298  11.287   2.244
19106W        W78609   5.701  19.135  13.975
19107W        W78610  28.579   2.742   4.766
19108W        W78611  42.844  39.020   1.213
19109W        W78612  14.140   2.426  10.628
19110W        W78613  34.470  39.370  13.977
19111W        W78614  11.249  21.583   0.927
19112W        W78615  33.078  30.026   0.330
19113W        W78616  12.196  19.158  11.572
19114W        W78617   8.894   5.757  10.445
19115W        W78618   3.794  39.472  10.900
19116W        W78619  10.348  14.296   2.184
19117W        W78620  16.169  10.872  14.998
19118W        W78621  31.635  25.142  11.465
19119W        W78622  27.574  26.205  12.079
19120W        W78623  44.894  34.030   2.400
19121W        W78624  11.662  44.953  12.834
19122W        W78625  32.416  25.659  12.509
19123W        W78626  36.590  30.547   2.812
19124W        W78627  14.595  28.562  11.011
19125W        W78628  16.266  38.480   2.741
19126W        W78629  11.666   9.786   1.436
19127W        W78630  30.548  28.495   1.271
19128W        W78631  44.472  10.831  13.860
19129W        W78632  19.603  35.381  13.538
19130W        W78633  23.647   1.972  11.549
19131W        W78634  14.651  40.406  10.441
19132W        W78635  17.738  27.001   0.733
19133W        W78636  12.189   9.778  14.865
19134W        W78637  38.460  38.468   3.866
19135W        W78638  25.616  39.962   1.373
19136W        W78639  14.310   7.293  13.003
19137W        W78640  10.801   3.921   3.153
19138W        W78641  23.103  18.263  11.024
19139W        W78642  42.338  33.602  14.775
19140W        W78643  33.544  37.030   2.858
19141W        W78644   1.738  21.157  10.594
19142W        W78645  43.337  24.105  14.949
19143W        W78646  21.653  32.043  14.770
19144W        W78647  43.489  43.785   4.158
19145W        W78648  32.415  14.609  13.910
19146W        W78649   0.402   4.322   3.805
19147W        W78650  21.036  37.902   3.266
19148W        W78651  23.112   7.193  13.932
19149W        W78652   9.257  24.725   3.805
19150W        W78653  26.556  31.990  13.835
19151W        W78654  16.696   9.286  13.053
19152W        W78655  21.244   1.277  10.963
19153W        W78656  31.909  33.499  11.101
19154W        W78657  23.092  29.628  12.970
19155W        W78658   1.809   5.220  11.448
19156W        W78659   3.378  36.484  11.933
19157W        W78660  26.074  16.114   3.331
19158W        W78661   9.889   2.763   0.848
19159W        W78662  23.674  15.190   0.911
19160W        W78663  36.042  33.099  10.539
19161W        W78664   3.424  30.967  11.550
19162W        W78665  33.541  39.003  12.851
19163W        W78666  28.530  10.701  11.942
19164W        W78667  22.214  14.308  14.457
19165W        W78668  44.316   0.902  11.916
19166W        W78669   4.405  35.894   3.804
19167W        W78670  40.434  16.149  14.490
19168W        W78671  11.146  22.585   4.671
19169W        W78672  22.244  42.412  14.804
19170W        W78673  26.160  28.614   4.633
19171W        W78674  33.967   9.252  11.383
19172W        W78675  24.625  31.003  14.478
19173W        W78676  18.697  32.539  13.960
19174W        W78677  28.641  17.720  11.879
19175W        W78678  29.618  43.506   4.739
19176W        W78679  17.662  26.516   3.811
19177W        W78680   3.312  17.227   4.135
19178W        W78681  35.423   0.476  12.541
19179W        W78682  38.542  22.615  11.559
19180W        W78683  12.642  21.231  10.444
19181W        W78684  13.809  19.068  13.954
19182W        W78685  14.695  31.985   5.134
19183W        W78686  29.605   7.336  11.119
19184W        W78687   7.898  17.601   9.486
19185W        W78688   1.447  33.079  14.930
19186W        W78689   2.452  17.681   2.775
19187W        W78690   4.281   0.911   2.884
19188W        W78691   0.427  15.773   0.445
19189W        W78692  11.758  17.262   4.665
19190W        W78693  14.103  34.405  13.036
19191W        W78694  31.608  38.400   2.774
19192W        W78695  35.537  14.246   2.901
19193W        W78696  27.035  39.938  10.568
19194W        W78697  36.017   8.839  12.826
19195W        W78698  32.949   8.355   4.127
19196W        W78699   4.850  17.608   0.276
19197W        W78700   4.433  20.604  14.407
19198W        W78701  31.091  26.065   0.806
19199W        W78702  13.293  43.287   2.794
19200W        W78703  25.212   4.875   2.821
19201W        W78704  20.547  17.289   2.245
19202W        W78705  44.308  39.403   3.652
19203W        W78706  12.344   6.314  14.802
19204W        W78707  22.016   8.208   4.173
19205W        W78708  22.675  34.548  10.588
19206W        W78709   3.731  38.845  13.793
19207W        W78710  44.974  25.471  14.338
19208W        W78711   7.865  38.961   9.944
19209W        W78712  32.027  37.962  13.319
19210W        W78713  31.556  43.346  10.580
19211W        W78714   1.878  10.293  10.453
19212W        W78715  18.195  19.262   2.363
19213W        W78716  41.321  27.986  12.038
19214W        W78717  24.100  19.595  11.417
19215W        W78718  33.058   9.673   3.652
19216W        W78719  44.793  40.831   0.246
19217W        W78720  18.729  19.625  13.919
19218W        W78721  30.442  18.733   2.797
19219W        W78722  33.963  16.702   2.748
19220W        W78723   0.265  36.891  11.572
19221W        W78724   2.816  15.806   3.782
19222W        W78725  14.287  22.140   2.307
19223W        W78726   0.903  14.221   3.853
19224W        W78727   6.889  37.555   3.822
19225W        W78728  18.171  16.219  14.448
19226W        W78729  36.392  44.915  13.807
19227W        W78730  44.899  44.859   0.867
19228W        W78731  16.761  21.596  13.056
19229W        W78732  35.499  16.221  13.016
19230W        W78733  41.889  40.485  11.987
19231W        W78734  33.491  38.819   1.222
19232W        W78735  28.453  13.656   5.742
19233W        W78736  44.954   3.387  14.418
19234W        W78737  25.987  41.363   4.290
19235W        W78738  14.777  34.886   1.878
19236W        W78739  40.365  23.997   1.930
19237W        W78740  14.712  40.324   1.255
19238W        W78741  38.845  24.506   1.441
19239W        W78742  31.931   9.390   2.360
19240W        W78743  30.094  31.518  14.513
19241W        W78744  31.974   3.250   4.644
19242W        W78745  37.896  44.766   4.695
19243W        W78746  29.667   9.685   3.378
19244W        W78747   2.358  21.055  12.580
19245W        W78748  17.673  21.251   3.703
19246W        W78749  17.745  44.900   4.819
19247W        W78750  40.946  22.202   1.764
19248W        W78751  24.000   1.951   1.790
19249W        W78752  35.358  16.261   0.454
19250W        W78753  16.603   5.219   4.285
19251W        W78754   6.892  29.941  10.577
19252W        W78755  38.855  20.106   4.607
19253W        W78756   6.760  31.912  14.415
19254W        W78757  42.432   4.865   2.320
19255W        W78758  14.626  15.753   4.136
19256W        W78759  25.015  13.620  11.455
19257W        W78760  42.778  23.216   1.853
19258W        W78761  15.746  41.519   1.320
19259W        W78762  41.439  34.605  10.921
19260W        W78763  24.679  19.580   2.697
19261W        W78764  23.188  16.698  10.916
19262W        W78765  28.010  38.371  11.590
19263W        W78766  29.509  29.065   4.227
19264W        W78767  41.865   5.351  11.927
19265W        W78768  22.223  39.918   4.612
19266W        W78769  42.375  25.487   1.850
19267W        W78770  32.910  41.477  12.449
19268W        W78771  26.075  33.529  13.404
19269W        W78772  35.542   6.914  13.308
19270W        W78773  10.245  40.472  12.913
19271W        W78774  24.577  18.167  11.095
19272W        W78775  35.025   6.310   0.452
19273W        W78776   1.740   0.926  14.950
19274W        W78777  43.274   7.334  11.383
19275W        W78778  36.457  26.571  11.418
19276W        W78779  37.084   2.768   0.769
19277W        W78780   7.299  11.763  11.079
19278W        W78781  35.910  20.073  11.372
19279W        W78782   6.408  15.216   2.191
19280W        W78783  11.698  40.041  12.930
19281W        W78784  39.877  12.698   1.370
19282W        W78785  15.771   3.785   4.278
19283W        W78786  19.153  14.099   1.221
19284W        W78787   3.409  43.999   9.599
19285W        W78788  22.588   9.154   2.885
19286W        W78789   0.782   3.281   1.772
19287W        W78790   2.372  31.092   9.469
19288W        W78791  44.975  16.802  12.978
19289W        W78792  36.061  11.143   4.771
19290W        W78793  15.273  15.323  11.897
19291W        W78794  37.448  30.554   4.747
19292W        W78795  35.488  40.494  10.962
19293W        W78796  12.273  36.509   2.266
19294W        W78797   4.780  36.949  13.532
19295W        W78798  38.822  11.773   0.369
19296W        W78799  10.222  34.566  12.357
19297W        W78800  29.624  33.396   2.718
19298W        W78801  19.674  40.436  14.848
19299W        W78802  22.661  30.126  14.457
19300W        W78803  28.129   0.377   0.845
19301W        W78804   4.274  15.132  13.802
19302W        W78805  35.383  16.759  14.387
19303W        W78806  12.339  15.191   4.706
19304W        W78807  20.185  44.275   1.238
19305W        W78808  31.632  37.961   0.404
19306W        W78809  29.556  10.766  10.937
19307W        W78810   9.776  18.571   4.813
19308W        W78811   2.267  25.683   0.808
19309W        W78812   7.666   2.311  13.976
19310W        W78813  12.758   4.903  10.055
19311W        W78814   0.359  23.545  11.459
19312W        W78815  41.377  31.618   2.785
19313W        W78816  33.929  10.744  14.364
19314W        W78817  12.805  41.865  14.791
19315W        W78818  43.795  21.176  10.027
19316W        W78819  42.365  32.536  10.898
19317W        W78820  27.549  43.405  13.958
19318W        W78821  12.304   1.753   0.292
19319W        W78822  39.388  15.264   1.358
19320W        W78823  40.322   5.709  13.515
19321W        W78824  10.830  34.397  12.572
19322W        W78825  15.277  33.525  14.930
19323W        W78826  31.978  25.216  12.969
19324W        W78827   6.810   7.720   0.768
19325W        W78828  30.090   9.693   0.318
19326W        W78829   2.928  35.088  11.489
19327W        W78830  18.253  14.704   3.280
19328W        W78831  13.286  13.166   1.901
19329W        W78832  28.986  44.988   3.257
19330W        W78833  13.769  18.549  12.378
19331W        W78834  28.028  34.465   2.840
19332W        W78835  27.650  18.081   2.235
19333W        W78836  20.182  26.615   3.806
19334W        W78837  11.690   4.438   0.939
19335W        W78838  36.445  36.422   0.334
19336W        W78839   1.301  12.275  10.479
19337W        W78840  25.684  30.558  14.859
19338W        W78841   2.322  33.597  11.562
19339W        W78842  41.459  37.468   2.347
19340W        W78843  33.617  30.445   9.989
19341W        W78844  25.685   9.888  11.585
19342W        W78845   6.716   2.468  13.308
19343W        W78846  18.756  22.606   3.861
19344W        W78847  37.940  16.711  13.850
19345W        W78848  32.111  44.783   3.344
19346W        W78849  38.833  42.305   4.728
19347W        W78850  11.675  33.876   3.177
19348W        W78851  14.216  23.172  11.522
19349W        W78852  32.508  42.873   3.837
19350W        W78853  33.017  26.127  11.508
19351W        W78854   4.918  30.526  12.961
19352W        W78855  34.447  11.860   1.392
19353W        W78856  20.222  25.613  10.998
19354W        W78857  36.011  43.277   1.714
19355W        W78858   1.297  19.758  11.912
19356W        W78859  23.159  22.607  14.281
19357W        W78860  26.951  28.148  12.045
19358W        W78861  33.969   7.349  10.894
19359W        W78862   7.376   9.686   4.633
19360W        W78863   7.808  24.212  14.935
19361W        W78864  36.869  44.913   1.356
19362W        W78865  28.567  31.101   3.821
19363W        W78866  10.721  26.991  13.860
19364W        W78867  36.382  35.033   3.226
19365W        W78868  42.403  12.178   4.175
19366W        W78869   6.279  11.778  10.942
19367W        W78870  41.452  14.176   4.815
19368W        W78871   1.334  44.878   0.270
19369W        W78872  31.950   0.404   4.699
19370W        W78873   5.722   3.878  11.589
19371W        W78874  42.467  14.287  12.061
19372W        W78875  31.118  31.426   5.567
19373W        W78876  32.979  42.283  11.528
19374W        W78877  27.589  42.794  13.045
19375W        W78878  36.913  30.559  13.794
19376W        W78879  36.970  24.066   0.358
19377W        W78880  38.819  37.537  11.890
19378W        W78881  18.188  42.005   2.311
19379W        W78882  26.566  17.755  13.398
19380W        W78883   2.414  21.095   4.208
19381W        W78884  39.333   2.326   1.433
19382W        W78885  28.633  29.485   4.133
19383W        W78886  30.515   8.686  11.863
19384W        W78887  24.700  33.062   4.156
19385W        W78888  16.307   4.427   1.334
19386W        W78889  42.479  30.137  11.051
19387W        W78890  36.583  32.894   1.876
19388W        W78891  25.111  20.630  13.486
19389W        W78892  18.778  18.670   0.310
19390W        W78893  26.119   0.763  13.055
19391W        W78894   1.952   8.309   0.446
19392W        W78895  14.222  35.891  10.518
19393W        W78896  24.058  27.522   1.248
19394W        W78897  10.708  30.471  12.494
19395W        W78898  37.919  36.008   3.146
19396W        W78899  15.310  11.861  12.528
19397W        W78900   0.838  25.470   5.636
19398W        W78901  15.748  17.249   3.250
19399W        W78902  39.865  16.291   3.347
19400W        W78903  38.395  11.301   3.743
19401W        W78904   0.399  19.758   0.742
19402W        W78905  42.333  12.648   1.795
19403W        W78906  42.020  26.193  14.453
19404W        W78907  12.702  34.390   0.442
19405W        W78908   7.393   0.290   0.413
19406W        W78909  24.490  24.712  11.405
19407W        W78910   8.890  27.003   1.702
19408W        W78911  32.579  25.532   3.663
19409W        W78912   7.223  20.606   4.138
19410W        W78913  38.970  23.633   3.317
19411W        W78914  22.564   5.203   2.662
19412W        W78915  18.667   7.380   2.295
19413W        W78916   6.362  16.629   4.633
19414W        W78917   1.252  44.839  13.007
19415W        W78918  22.058  26.159  13.966
19416W        W78919  39.551   8.314  10.537
19417W        W78920   9.873  20.616  12.462
19418W        W78921  30.588  10.732   2.705
19419W        W78922   2.462  28.473  13.338
19420W        W78923  29.003   9.331  13.490
19421W        W78924  36.414  24.635   2.275
19422W        W78925   9.779  43.908   2.794
19423W        W78926  21.212  26.996  11.044
19424W        W78927  23.616   2.250   2.740
19425W        W78928  18.123  19.652   5.214
19426W        W78929   7.689  12.829  10.568
19427W        W78930  44.901  14.278   3.790
19428W        W78931   0.826   4.708  10.418
19429W        W78932  20.275   7.329   0.798
19430W        W78933  24.158  18.185  11.981
19431W        W78934   5.413  12.650   2.851
19432W        W78935  37.057   7.906  11.017
19433W        W78936  21.599  13.745   1.832
19434W        W78937  21.155  18.153   9.992
19435W        W78938   8.313  29.528  11.071
19436W        W78939  17.649  17.252   2.882
19437W        W78940  13.350  41.372   2.679
19438W        W78941  11.370  15.204   4.655
19439W        W78942  32.061  21.077  12.559
19440W        W78943   0.849  13.318  10.980
19441W        W78944  14.705  39.552   4.272
19442W        W78945  25.184   3.843  11.966
19443W        W78946  43.935  20.768   5.223
19444W        W78947  18.652   5.812   4.640
19445W        W78948  44.259  38.968   1.291
19446W        W78949  15.321  25.695   0.859
19447W        W78950   0.978  10.167  12.514
19448W        W78951   3.279  44.755   0.263
19449W        W78952  22.633  18.664  13.345
19450W        W78953  44.839  26.699  13.946
19451W        W78954  34.420  26.190  12.578
19452W        W78955  24.135  35.594  11.517
19453W        W78956  26.605  31.964   4.214
19454W        W78957  34.024  30.621   0.412
19455W        W78958  24.638  20.244   2.768
19456W        W78959  36.515  29.510   2.401
19457W        W78960  17.561  41.881  14.276
19458W        W78961  23.082  34.566  11.024
19459W        W78962  42.415  37.529  13.403
19460W        W78963   4.309  10.828   4.219
19461W        W78964   3.431  29.947   2.229
19462W        W78965  12.226  23.698   3.333
19463W        W78966   6.831  21.210  12.399
19464W        W78967  20.682  30.103  12.998
19465W        W78968   6.301   5.241   0.390
19466W        W78969  42.445  34.526   1.437
19467W        W78970  29.099  24.541  12.024
19468W        W78971  26.568  38.433   4.732
19469W        W78972  14.817  10.268  13.900
19470W        W78973  40.905  44.795  11.910
19471W        W78974  21.073   1.741  14.774
19472W        W78975  41.042  11.766   0.331
19473W        W78976   1.902  11.782   2.722
19474W        W78977  28.522   8.291   1.890
19475W        W78978  28.037  35.500   0.400
19476W        W78979  17.202  19.706   0.955
19477W        W78980  35.972   9.817   3.245
19478W        W78981   4.282  10.697   1.859
19479W        W78982  20.702   6.705   3.298
19480W        W78983  25.554   3.410  13.923
19481W        W78984   7.711  43.312  11.088
19482W        W78985   7.864  19.733  14.486
19483W        W78986  40.499  15.757  10.121
19484W        W78987  25.129  19.072   0.273
19485W        W78988  33.582  44.347   1.716
19486W        W78989  14.657  20.229  12.539
19487W        W78990  38.069  22.560   0.901
19488W        W78991  18.775  15.239   3.804
19489W        W78992  24.646  31.925  12.517
19490W        W78993  16.215  33.890   3.184
19491W        W78994  41.484  39.507   0.734
19492W        W78995  43.329  13.142  12.842
19493W        W78996   4.769  30.930  10.891
19494W        W78997  23.605  44.822   3.171
19495W        W78998  38.042   2.752  14.307
19496W        W78999  18.185   4.428  11.995
19497W        W79000  13.232  26.182  14.979
19498W        W79001  41.862  35.547  12.910
19499W        W79002  15.796   4.406  13.376
19500W        W79003  17.668  26.966  12.091
19501W        W79004  22.602  33.946   2.380
19502W        W79005  31.021  24.183  13.036
19503W        W79006  34.505   4.356  11.414
19504W        W79007  25.026  15.735   2.323
19505W        W79008  41.448   1.830   2.343
19506W        W79009   8.307  14.742   2.880
19507W        W79010   3.255  36.444  14.877
19508W        W79011  19.229  41.011  10.924
19509W        W79012  34.010  38.890  14.024
19510W        W79013   9.246  27.086  12.989
19511W        W79014  14.735  19.266  14.838
19512W        W79015  42.311  26.457  12.849
19513W        W79016  28.640  32.036  13.491
19514W        W79017  44.417   8.265  12.915
19515W        W79018  26.141  18.212   1.701
19516W        W79019  44.765   6.301  12.892
19517W        W79020  19.111  29.532  12.551
19518W        W79021  42.004  18.159  11.932
19519W        W79022  37.840  13.773  12.910
19520W        W79023  14.100  14.676   3.821
19521W        W79024  40.542  16.695  10.475
19522W        W79025  17.287  15.671   4.272
19523W        W79026  12.240  23.639   0.832
19524W        W79027  44.957  15.739   1.377
19525W        W79028  20.254   0.265   1.280
19526W        W79029  24.193  44.806   5.718
19527W        W79030  22.590  34.582   0.372
19528W        W79031  38.386  39.332   0.936
19529W        W79032  11.301  31.473  14.837
19530W        W79033  39.416  16.073  14.392
19531W        W79034  20.230  44.351  12.486
19532W        W79035  13.641   4.844  13.945
19533W        W79036  15.241  32.926  11.883
19534W        W79037  23.005  17.678   4.313
19535W        W79038  43.873  31.566   4.684
19536W        W79039  30.065  43.822  10.994
19537W        W79040  11.798  22.145   1.870
19538W        W79041  33.515  33.076   4.797
19539W        W79042   2.813   6.731   0.868
19540W        W79043  16.112  29.516   3.848
19541W        W79044  32.562  22.724   1.811
19542W        W79045  28.678  42.807   1.328
19543W        W79046  21.741  37.947   2.353
19544W        W79047  41.420  22.642  10.443
19545W        W79048  24.028  14.143  13.864
19546W        W79049   3.424  40.844  14.460
19547W        W79050  19.247  15.653   0.298
19548W        W79051  31.103  27.105   3.761
19549W        W79052  36.068  40.860  10.943
19550W        W79053  24.658  29.962   2.676
19551W        W79054   5.736   7.346   4.255
19552W        W79055  35.519  24.134   2.222
19553W        W79056  24.169   5.824  13.459
19554W        W79057   3.234  19.100   3.727
19555W        W79058  30.500   9.230   4.239
19556W        W79059  38.856  21.073  11.602
19557W        W79060  18.608  44.779  14.824
19558W        W79061  38.359  44.940   2.222
19559W        W79062  36.378  12.719   4.286
19560W        W79063  31.520  34.464  14.384
19561W        W79064  30.086  14.617   2.735
19562W        W79065   8.844  32.494  12.036
19563W        W79066  12.625  44.912  14.405
19564W        W79067   7.786  13.768  12.423
19565W        W79068   3.927  44.835   3.348
19566W        W79069   9.794  25.607  11.891
19567W        W79070  11.176  27.516  13.350
19568W        W79071  19.685   6.313  11.579
19569W        W79072   5.395  27.191  12.509
19570W        W79073  39.446  16.633  10.457
19571W        W79074   6.386  23.705  11.394
19572W        W79075  35.483  15.789  12.999
19573W        W79076  40.432  12.779  12.966
19574W        W79077   4.930  44.917  12.439
19575W        W79078  29.967  34.371  11.888
19576W        W79079  32.001  39.426   0.803
19577W        W79080  20.199  15.804   1.398
19578W        W79081  37.411  42.992  10.564
19579W        W79082  24.038  19.222  12.046
19580W        W79083  13.306  43.850   4.834
19581W        W79084  35.019  19.735   1.322
19582W        W79085  40.407  12.780  13.942
19583W        W79086   9.703  28.976   2.340
19584W        W79087  41.399  15.801   4.661
19585W        W79088  17.132  12.197   1.220
19586W        W79089  32.094   6.864  11.940
19587W        W79090  38.518   7.787  13.500
19588W        W79091   3.776   7.673   1.283
19589W        W79092  10.840  36.421  10.520
19590W        W79093   3.861  15.260   0.822
19591W        W79094  38.385  10.174   0.953
19592W        W79095  30.472  29.654  14.284
19593W        W79096  44.290  42.334  11.577
19594W        W79097  20.555   9.357  14.940
19595W        W79098  26.534  22.584   3.306
19596W        W79099  42.351   2.322   1.294
19597W        W79100  43.908   8.870   0.941
19598W        W79101  37.014  23.100   0.370
19599W        W79102  41.991  39.469   2.779
19600W        W79103  41.823  24.547   3.285
19601W        W79104  31.489   3.828  12.423
19602W        W79105  32.585  22.562  14.411
19603W        W79106  23.035  31.598   1.842
19604W        W79107   8.190  41.409  10.971
19605W        W79108  33.587   2.922   4.604
19606W        W79109   9.710  21.241   2.863
19607W        W79110  34.444   7.718  13.869
19608W        W79111  21.031   2.374   0.426
19609W        W79112  40.312  31.992  13.866
19610W        W79113  29.630  17.605  13.838
19611W        W79114   0.326  15.596  11.873
19612W        W79115  28.947  30.571  10.418
19613W        W79116  28.168  43.362   3.304
19614W        W79117  40.510  17.670  11.430
19615W        W79118   0.981  42.314  12.039
19616W        W79119  18.545   1.319   1.760
19617W        W79120  18.214  13.632  10.538
19618W        W79121  20.040  29.579  13.498
19619W        W79122  44.492  24.684  11.030
19620W        W79123  41.351  14.776   1.926
19621W        W79124  18.655  22.618  13.509
19622W        W79125   5.791  26.013  10.419
19623W        W79126  19.543  16.674  14.022
19624W        W79127  17.675  14.773  13.040
19625W        W79128  18.200  17.801   2.282
19626W        W79129  22.619  13.635   1.404
19627W        W79130  25.697  10.867   4.307
19628W        W79131  40.040  36.475  12.865
19629W        W79132  21.564  34.118   2.797
19630W        W79133  19.191  30.974   1.855
19631W        W79134   8.234  29.525   0.788
19632W        W79135  36.494  33.907   0.459
19633W        W79136  35.884  15.613  10.533
19634W        W79137  42.281  44.494  14.824
19635W        W79138  19.135  15.692  11.402
19636W        W79139  25.478  40.002  10.118
19637W        W79140   0.292  35.964   4.327
19638W        W79141   2.747  24.002  12.979
19639W        W79142   7.260   8.846  14.867
19640W        W79143  37.948  16.755   4.273
19641W        W79144  19.685  21.525  13.995
19642W        W79145   0.370  34.971   2.255
19643W        W79146   8.396  14.252  14.295
19644W        W79147  28.679  28.971   1.381
19645W        W79148  39.367  24.583   4.744
19646W        W79149  12.326  33.953  11.553
19647W        W79150  33.067   3.369  12.527
19648W        W79151  39.338  41.822  11.956
19649W        W79152  28.945  38.344   3.374
19650W        W79153  23.567  12.666  11.117
19651W        W79154  24.630  13.744  13.530
19652W        W79155   2.369  13.760  14.013
19653W        W79156  34.594   8.725   4.833
19654W        W79157  21.035   1.843  12.379
19655W        W79158  14.284  34.375   0.912
19656W        W79159   4.878  11.369   2.865
19657W        W79160  35.977  28.442  13.888
19658W        W79161  38.366  36.074   1.751
19659W        W79162  32.528  22.196   0.379
19660W        W79163   1.969  26.692  14.299
19661W        W79164  21.175  31.427  13.037
19662W        W79165   6.728  12.640  14.447
19663W        W79166   0.434   0.340   4.349
19664W        W79167  10.378   0.950   4.799
19665W        W79168  36.370  21.128  10.444
19666W        W79169   9.817   6.285  14.986
19667W        W79170   2.447  15.680   1.261
19668W        W79171  36.512  32.421  13.835
19669W        W79172  26.583  15.102   3.669
19670W        W79173  10.160  17.648   0.731
19671W        W79174  18.671  32.603  10.991
19672W        W79175  44.855  24.149  14.935
19673W        W79176  22.745  37.522  11.066
19674W        W79177  29.040  28.435  12.518
19675W        W79178   3.258  40.328  11.916
19676W        W79179  20.525   8.824  11.064
19677W        W79180  38.899  23.520   2.794
19678W        W79181   0.462   4.286   3.387
19679W        W79182  30.485  10.219  13.982
19680W        W79183  23.069  21.571  14.451
19681W        W79184  23.996  14.757   0.363
19682W        W79185  19.749  34.991  12.981
19683W        W79186  27.032  17.713   1.780
19684W        W79187   1.755  11.202   1.820
19685W        W79188  40.935  20.203   3.216
19686W        W79189  22.228   3.733   0.452
19687W        W79190   0.772  19.093  13.802
19688W        W79191   6.816  26.600   3.789
19689W        W79192  44.422  16.578  14.812
19690W        W79193  34.027  34.955  12.069
19691W        W79194  17.257   6.809   4.752
19692W        W79195  13.246  30.085  14.986
19693W        W79196   0.897  23.684   0.728
19694W        W79197  43.005  22.197   1.279
19695W        W79198   4.869   4.803   3.822
19696W        W79199  16.746   8.812   1.345
19697W        W79200   8.345  13.250   9.569
19698W        W79201  21.097  33.025   2.843
19699W        W79202   8.668  24.719   3.789
19700W        W79203  31.061  25.472  12.362
19701W        W79204   4.343  25.648  12.399
19702W        W79205  26.695  43.469   1.223
19703W        W79206  36.383   1.966  13.001
19704W        W79207  30.953  41.370  12.905
19705W        W79208  17.697  17.618   0.242
19706W        W79209  21.161  42.354   4.293
19707W        W79210  35.465  31.972   3.641
19708W        W79211  26.683  38.968   5.198
19709W        W79212   9.151  38.561   3.188
19710W        W79213   9.758  39.925  11.424
19711W        W79214   5.700  36.570   0.871
19712W        W79215   6.385  24.033  14.389
19713W        W79216  15.236  39.871  11.470
19714W        W79217  40.806  39.908  10.953
19715W        W79218  34.994  19.735  12.861
19716W        W79219  27.041  29.493   2.180
19717W        W79220  31.582  28.618   2.677
19718W        W79221  17.567  18.621   3.629
19719W        W79222  25.198   2.818  13.389
19720W        W79223  25.589  43.332   0.865
19721W        W79224  34.953  43.854  11.107
19722W        W79225  38.415   3.889  12.362
19723W        W79226  16.210  22.646   2.885
19724W        W79227  16.710   8.754  10.549
19725W        W79228  34.113  23.089   3.729
19726W        W79229  36.568  40.389  11.453
19727W        W79230  44.764  34.444  14.009
19728W        W79231  19.261  36.899  13.342
19729W        W79232  23.145  38.557   1.348
19730W        W79233  18.158  34.964   1.702
19731W        W79234  23.537   6.858   4.792
19732W        W79235  29.520  41.956   1.820
19733W        W79236  25.110  34.112   0.253
19734W        W79237   1.474   7.316   2.331
19735W        W79238  28.960  20.587  11.108
19736W        W79239  22.735  24.147  13.012
19737W        W79240  28.677  15.096   2.323
19738W        W79241  19.615  40.917  14.423
19739W        W79242  15.731  13.271  13.793
19740W        W79243  41.853  31.947   4.600
19741W        W79244   8.208  31.082  12.945
19742W        W79245  21.570  17.599  11.527
19743W        W79246  17.288   6.182   1.821
19744W        W79247   6.200  34.910   3.181
19745W        W79248  15.194   4.263  10.453
19746W        W79249  40.859  13.690   2.853
19747W        W79250  16.799  38.923  11.009
19748W        W79251  15.267  29.460   3.353
19749W        W79252  11.737  44.881   4.255
19750W        W79253  38.934  20.231   0.779
19751W        W79254  16.653  42.389   1.244
19752W        W79255  30.104  40.407   4.114
19753W        W79256   6.728  27.665   2.204
19754W        W79257  28.990  14.196   0.819
19755W        W79258  39.970  14.338   1.896
19756W        W79259  44.327   7.258  13.390
19757W        W79260  32.978   7.331  12.419
19758W        W79261  25.984  25.667   4.243
19759W        W79262   0.325  20.730  14.443
19760W        W79263  25.150  27.084   1.934
19761W        W79264  13.689  41.401   4.751
19762W        W79265  30.480  21.631  11.404
19763W        W79266  31.514  29.993  10.427
19764W        W79267   2.353  21.167   2.374
19765W        W79268   5.931  20.225  10.536
19766W        W79269   4.234  42.436   3.721
19767W        W79270  11.338   2.838   0.838
19768W        W79271  13.729  29.998   3.362
19769W        W79272  35.594  25.110   3.793
19770W        W79273  28.552  25.673  14.433
19771W        W79274  23.995  28.445   0.421
19772W        W79275   0.382  16.725   4.213
19773W        W79276  44.783  28.585   3.729
19774W        W79277   4.851  41.352  11.089
19775W        W79278   9.844  28.594   4.710
19776W        W79279  30.101   7.694  14.387
19777W        W79280  24.612   8.897  13.399
19778W        W79281  39.886  13.701   1.911
19779W        W79282  21.696  30.423   0.482
19780W        W79283  40.476  24.570   4.220
19781W        W79284  32.916  21.089   3.217
19782W        W79285  43.492  31.497  14.001
19783W        W79286  39.501  23.010   1.268
19784W        W79287   9.692  27.462  10.486
19785W        W79288   3.283  19.234  13.857
19786W        W79289  31.025   3.274   3.762
19787W        W79290  13.344  12.247   3.757
19788W        W79291  13.250  39.480   2.844
19789W        W79292   8.805  15.578   9.498
19790W        W79293  21.578  33.035   2.179
19791W        W79294   7.357   3.802   2.287
19792W        W79295   3.808  21.730  13.054
19793W        W79296  30.506   1.388  14.896
19794W        W79297  37.864  30.638   3.750
19795W        W79298  33.436  29.120  14.467
19796W        W79299  22.597  33.107   0.291
19797W        W79300  13.227  41.339  11.415
19798W        W79301  14.672  19.149   1.881
19799W        W79302  11.689  17.177  14.438
19800W        W79303   0.316  14.233   3.755
19801W        W79304  11.657  29.660  11.602
19802W        W79305  42.469  22.582  10.925
19803W        W79306  34.093  30.001  13.040
19804W        W79307  16.158  31.410  10.977
19805W        W79308  22.720  32.409  12.409
19806W        W79309  25.670   8.834   2.407
19807W        W79310  29.951   9.384   0.776
19808W        W79311  32.559  40.841   5.657
19809W        W79312   7.731  24.609   0.966
19810W        W79313  40.034  10.832   4.313
19811W        W79314   0.356  24.519  14.868
19812W        W79315  31.480   8.843   0.364
19813W        W79316  28.464   3.784  14.834
19814W        W79317  33.008   1.469  11.373
19815W        W79318  31.552  22.172  12.073
19816W        W79319  31.482  29.155  13.533
19817W        W79320  33.435  12.210   3.683
19818W        W79321  37.077  40.340  11.393
19819W        W79322  15.118  34.866   1.860
19820W        W79323  30.119   5.210   0.791
19821W        W79324  26.609  28.558  12.401
19822W        W79325  40.943  11.780   0.863
19823W        W79326  37.508   5.434  14.987
19824W        W79327  31.093   1.811   1.381
19825W        W79328  15.753  38.012  11.085
19826W        W79329  37.528  10.713  11.071
19827W        W79330  31.917  22.555  14.479
19828W        W79331  20.649  22.646   2.329
19829W        W79332  20.714   2.890  13.391
19830W        W79333   5.263   1.261   3.221
19831W        W79334  36.407  23.015  11.560
19832W        W79335  43.388  29.446  14.888
19833W        W79336   6.677  44.798  10.984
19834W        W79337  42.005  29.994   1.702
19835W        W79338  35.079  10.828   4.192
19836W        W79339   6.222  26.460   9.984
19837W        W79340  23.593   2.837   2.295
19838W        W79341  13.334  29.937  11.015
19839W        W79342  32.953   9.766   3.339
19840W        W79343   9.757  24.513   3.845
19841W        W79344  43.903  23.722   1.282
19842W        W79345  16.802  30.647   3.193
19843W        W79346  38.820  35.900   0.824
19844W        W79347  42.325  12.666   0.769
19845W        W79348  38.856  13.753   3.165
19846W        W79349  34.570  34.454   0.479
19847W        W79350  12.807  28.620  13.058
19848W        W79351  22.998  42.860  13.329
19849W        W79352  11.726  27.172  11.532
19850W        W79353   5.823  24.501  14.939
19851W        W79354  42.341  19.752   3.832
19852W        W79355  17.119  43.494  13.013
19853W        W79356  33.121   1.332  11.061
19854W        W79357   2.922  23.203  14.293
19855W        W79358  26.995  18.688  12.043
19856W        W79359  34.007  27.598   9.625
19857W        W79360  30.973  21.059  13.421
19858W        W79361  16.634  24.560  12.509
19859W        W79362  19.255   1.439  12.037
19860W        W79363   8.176  27.990   4.235
19861W        W79364  29.056  43.881  11.610
19862W        W79365  24.176  36.426  14.890
19863W        W79366  43.450   7.837   1.915
19864W        W79367  19.600  14.730  10.889
19865W        W79368  36.028  29.647   1.715
19866W        W79369  27.042   2.247   4.174
19867W        W79370  12.122   6.303   4.654
19868W        W79371  10.796  14.340   3.825
19869W        W79372  24.495  11.292   4.708
19870W        W79373  29.454  31.581   3.719
19871W        W79374   1.273  20.104  14.359
19872W        W79375  23.049  32.119  10.416
19873W        W79376  41.037  22.554  12.960
19874W        W79377  14.730  15.634  13.921
19875W        W79378  30.094  25.063   9.940
19876W        W79379  25.547  32.404  14.771
19877W        W79380   3.393   9.384   1.329
19878W        W79381  37.514  37.988   1.255
19879W        W79382  24.559   2.408   1.900
19880W        W79383  19.543   7.873  11.574
19881W        W79384   7.823  19.627  14.789
19882W        W79385  23.593  35.880   3.709
19883W        W79386  14.273  15.751   3.215
19884W        W79387  18.623   4.744  14.430
19885W        W79388   7.693   7.383   1.211
19886W        W79389  23.572  28.945   3.295
19887W        W79390  32.073  33.586  14.847
19888W        W79391  38.513  39.404  14.352
19889W        W79392  17.211  23.730  12.055
19890W        W79393  29.542  43.865   3.237
19891W        W79394  27.585  26.081   1.900
19892W        W79395  34.445  12.650  11.030
19893W        W79396   4.383   0.872   3.631
19894W        W79397  27.109  35.038   3.849
19895W        W79398  42.007  14.766   2.314
19896W        W79399   6.730   5.335  11.027
19897W        W79400  12.827  40.369  14.316
19898W        W79401  32.039  40.429   1.874
19899W        W79402   6.708  11.151  11.455
19900W        W79403  32.501  36.901  13.000
19901W        W79404  26.646   7.733   3.657
19902W        W79405  15.611   5.251   2.247
19903W        W79406  25.188   9.342   3.832
19904W        W79407  26.534  23.112  14.511
19905W        W79408  34.900  29.574  13.425
19906W        W79409  16.617  42.803  10.982
19907W        W79410  12.636  23.173   3.856
19908W        W79411  37.511  38.848   4.178
19909W        W79412  36.420  43.878  11.029
19910W        W79413   5.708  29.071   0.826
19911W        W79414  18.680  32.485  12.826
19912W        W79415  15.622   8.837  13.456
19913W        W79416  15.801  42.023   1.340
19914W        W79417  29.606  42.872  14.887
19915W        W79418  20.617  14.686   4.760
19916W        W79419  38.010  31.063   4.277
19917W        W79420  16.625  36.428   2.753
19918W        W79421  10.776   4.264  11.879
19919W        W79422   9.151  21.720  11.940
19920W        W79423  31.061  13.348   5.106
19921W        W79424  35.426  44.923   0.292
19922W        W79425   9.771  19.675   3.190
19923W        W79426  30.542  28.648  14.353
19924W        W79427  32.518   9.855  14.450
19925W        W79428  18.093  35.491   2.291
19926W        W79429  25.103  31.440   1.877
19927W        W79430  40.539  28.962   1.921
19928W        W79431   8.659  10.150  12.089
19929W        W79432  15.271  18.100  13.917
19930W        W79433   3.375  19.680   4.196
19931W        W79434  13.238  13.783  12.510
19932W        W79435  25.559  22.209  13.928
19933W        W79436   1.906   1.333  12.390
19934W        W79437   6.921   3.817   2.881
19935W        W79438   2.282  36.473   4.292
19936W        W79439  19.045   2.868  12.065
19937W        W79440   4.830  15.760   4.625
19938W        W79441  14.111   1.797  11.457
19939W        W79442  11.247  19.173   1.315
19940W        W79443  19.739  31.062  11.381
19941W        W79444  35.506  42.450   0.408
19942W        W79445  39.442  24.079  13.482
19943W        W79446  16.231   0.279   2.187
19944W        W79447  30.568  24.616   2.829
19945W        W79448  39.507  23.013   3.800
19946W        W79449   2.735  27.958   9.930
19947W        W79450  24.172  23.534   3.800
19948W        W79451  27.524  10.324  12.522
19949W        W79452   5.903  21.211   4.304
19950W        W79453   2.899  33.029   0.901
19951W        W79454  40.351  10.878  11.936
19952W        W79455   3.406  26.628  10.011
19953W        W79456  36.009  24.584   2.304
19954W        W79457  39.931   1.366  12.386
19955W        W79458  20.120  44.298  14.318
19956W        W79459  30.511  25.571  14.966
19957W        W79460  27.582  34.056  11.574
19958W        W79461  36.585  22.244   1.895
19959W        W79462   9.748  12.325   0.909
19960W        W79463  30.980   9.755  11.064
19961W        W79464  36.582   0.491   2.314
19962W        W79465  32.128   1.282  14.507
19963W        W79466  22.016  23.193  14.507
19964W        W79467  41.995  26.650   4.293
19965W        W79468  33.004  32.048   9.974
19966W        W79469  35.504  27.027   2.872
19967W        W79470   4.914   2.747   2.221
19968W        W79471  22.127  30.125  12.849
19969W        W79472   9.379  33.876   1.825
19970W        W79473  17.103  36.074   2.285
19971W        W79474  31.486   9.673   0.453
19972W        W79475  12.286  14.294   5.193
19973W        W79476  10.283  39.445  10.999
19974W        W79477  24.177  29.645   2.275
19975W        W79478  30.936   6.824  10.448
19976W        W79479  35.103  25.002  11.949
19977W        W79480  16.152   9.258   2.208
19978W        W79481  30.083  44.423  13.820
19979W        W79482   4.873   5.266   1.316
19980W        W79483   6.337  37.454  11.035
19981W        W79484  35.088  11.787  10.636
19982W        W79485  35.872  14.605   0.923
19983W        W79486  29.432  34.912   1.910
19984W        W79487   3.228  37.876   0.961
19985W        W79488  38.430   8.777   2.186
19986W        W79489  43.002  18.198   1.326
19987W        W79490  15.216  16.148  11.544
19988W        W79491  35.037  41.837  12.578
19989W        W79492  13.603  29.141   4.721
19990W        W79493  24.554   3.874  11.470
19991W        W79494  27.071  39.448  12.441
19992W        W79495  37.400   7.874  12.051
19993W        W79496  26.588  10.651   2.714
19994W        W79497  38.419  27.604  10.956
19995W        W79498  24.985  31.044  13.319
19996W        W79499   7.235  42.991   2.347
19997W        W79500  16.725  41.301   4.790
19998W        W79501  37.086  30.098   1.712
19999W        W79502  40.468  34.883  11.514
20000W        W79503  21.515  34.433   2.827
20001W        W79504  30.110  38.073   2.900
20002W        W79505   2.811  11.690  13.941
20003W        W79506  22.553  12.204   0.942
20004W        W79507  15.231  42.909  14.364
20005W        W79508   7.362  32.433   3.817
20006W        W79509  27.158   2.942   4.810
20007W        W79510  18.599   8.734  12.057
20008W        W79511  28.963  26.159  10.539
20009W        W79512  34.017  33.967  11.457
20010W        W79513  29.926   2.339   4.719
20011W        W79514  22.150   8.361  14.384
20012W        W79515  11.812   1.451   0.247
20013W        W79516   6.347   3.289   4.336
20014W        W79517  15.649  13.202   4.627
20015W        W79518   3.947  14.099   1.716
20016W        W79519  32.028  11.780   0.258
20017W        W79520   2.937  30.611   9.547
20018W        W79521  39.965   1.418   1.224
20019W        W79522  21.190  34.055  14.834
20020W        W79523  39.011   5.912   1.298
20021W        W79524   1.295   4.324   1.306
20022W        W79525   0.422  26.997   1.282
20023W        W79526  27.966  24.577   1.370
20024W        W79527  26.570  26.487  12.967
20025W        W79528   6.233  23.609   2.890
20026W        W79529  14.122  42.020  12.945
20027W        W79530   6.744  29.018   0.824
20028W        W79531  37.524  26.470  12.973
20029W        W79532   8.373  19.206   4.708
20030W        W79533  37.379  42.405  11.028
20031W        W79534  12.844  22.162   1.222
20032W        W79535  44.267  31.898  12.988
20033W        W79536   0.847  43.388  13.546
20034W        W79537   3.828  41.922   0.783
20035W        W79538  11.328  40.930  14.452
20036W        W79539   1.880  43.287   3.183
20037W        W79540  35.463  27.514  12.016
20038W        W79541  25.017  21.731   3.640
20039W        W79542  36.508   0.871  14.329
20040W        W79543   0.828  42.322   3.210
20041W        W79544  23.697   1.964  14.366
20042W        W79545  31.452  18.294  11.568
20043W        W79546  29.651  30.551   4.630
20044W        W79547   3.274  14.334  13.817
20045W        W79548  27.487  22.530  10.452
20046W        W79549   6.810  20.182  14.302
20047W        W79550  37.919  44.460   3.184
20048W        W79551  34.380  21.676   2.686
20049W        W79552  22.623  27.036   4.724
20050W        W79553  13.320  19.128   0.865
20051W        W79554  40.858   3.303  14.344
20052W        W79555  31.904  32.035   4.337
20053W        W79556  43.397   7.809  11.937
20054W        W79557  38.985  24.074   2.869
20055W        W79558  26.206  26.020   2.384
20056W        W79559  12.733  43.434   1.386
20057W        W79560   8.310  34.089   1.858
20058W        W79561  14.327  16.687  11.892
20059W        W79562   1.416  34.560  14.890
20060W        W79563  23.112  19.262  13.923
20061W        W79564  31.030  20.676  13.391
20062W        W79565  26.534   6.380  14.389
20063W        W79566   6.206  32.547   4.214
20064W        W79567  32.513  34.380  10.445
20065W        W79568  29.968  33.583  11.524
20066W        W79569  10.632  35.585   1.435
20067W        W79570  16.173  29.015  12.470
20068W        W79571  25.577   6.865  10.630
20069W        W79572  20.626   3.422  12.546
20070W        W79573  41.510  20.100   0.934
20071W        W79574  19.129  18.288  10.465
20072W        W79575   7.823   7.345   4.615
20073W        W79576  33.991  24.042  13.518
20074W        W79577  25.666   2.804   0.957
20075W        W79578   1.260  30.473   9.976
20076W        W79579  43.402   8.748   2.360
20077W        W79580   7.717  15.697  11.430
20078W        W79581  30.141  29.957   4.835
20079W        W79582  14.664  37.958  14.314
20080W        W79583  23.510  18.693  13.920
20081W        W79584  22.535  21.562   3.711
20082W        W79585  26.966  27.025  11.856
20083W        W79586  15.809   2.769   1.901
20084W        W79587  14.224  39.997   3.267
20085W        W79588  18.621  35.557  12.960
20086W        W79589  41.334  28.066   3.792
20087W        W79590  10.227   9.848   2.762
20088W        W79591  26.016  25.538   1.447
20089W        W79592  26.016  26.457  14.503
20090W        W79593   8.773  44.981  10.439
20091W        W79594   1.402   7.416   1.221
20092W        W79595  11.664  18.223  13.349
20093W        W79596   1.378   9.307   2.729
20094W        W79597  24.524  21.061   1.704
20095W        W79598  17.577  23.707  14.420
20096W        W79599  21.020  35.529  13.525
20097W        W79600  36.915  15.784  14.405
20098W        W79601  35.456  32.511   1.249
20099W        W79602  28.040  31.462   3.200
20100W        W79603  26.093  41.965   4.740
20101W        W79604  23.597   7.828  14.349
20102W        W79605  17.114  34.516   2.879
20103W        W79606  15.751  19.176   2.726
20104W        W79607  35.408   5.409   0.946
20105W        W79608  29.040  32.007   3.833
20106W        W79609  38.396  18.714   1.817
20107W        W79610  26.482  44.356   4.735
20108W        W79611   4.445   1.377  13.980
20109W        W79612  44.355   7.247   1.874
20110W        W79613  15.792  27.956  13.849
20111W        W79614   4.292  41.292   0.884
20112W        W79615  11.854  20.251   3.201
20113W        W79616  38.962   0.988   1.935
20114W        W79617  26.678   9.344  10.554
20115W        W79618  26.181  10.787  10.911
20116W        W79619  29.582   0.372   0.325
20117W        W79620  32.900  15.234  11.415
20118W        W79621   3.912  22.552   0.354
20119W        W79622  12.152  20.089  12.856
20120W        W79623  35.085   0.486   2.343
20121W        W79624  24.177   1.314   3.638
20122W        W79625   5.428  44.931   2.265
20123W        W79626   5.336  16.779   5.745
20124W        W79627  22.058  43.920   3.800
20125W        W79628  38.558  14.137  13.024
20126W        W79629  22.145  19.205   4.724
20127W        W79630   9.197  31.967   3.815
20128W        W79631  37.890  44.345  11.073
20129W        W79632   1.253  21.647   0.426
20130W        W79633  30.030   0.419  14.301
20131W        W79634  34.017  41.926   2.402
20132W        W79635  12.662   4.924   4.275
20133W        W79636  40.811  23.067   3.844
20134W        W79637  37.359  42.994   3.702
20135W        W79638  34.524  12.288   0.759
20136W        W79639  17.201  34.400   5.231
20137W        W79640  13.752  18.240  11.591
20138W        W79641   3.714  34.379  14.940
20139W        W79642  19.589  20.719   3.796
20140W        W79643  33.407  21.146  10.538
20141W        W79644  12.730  13.268   0.273
20142W        W79645  38.064  28.605   1.352
20143W        W79646  13.627  15.799   1.841
20144W        W79647  22.727  25.561  14.361
20145W        W79648  11.185   5.802  13.387
20146W        W79649  42.487   0.347   0.902
20147W        W79650   0.361   1.404  13.544
20148W        W79651  14.233  38.021  12.565
20149W        W79652  34.073  11.174   3.160
20150W        W79653  31.487  18.070   2.402
20151W        W79654  32.469  11.677  13.005
20152W        W79655  29.650  43.427   1.788
20153W        W79656  12.186   5.822   4.270
20154W        W79657  33.066  40.436  14.299
20155W        W79658  31.975  28.578  14.347
20156W        W79659  15.214  37.880   0.907
20157W        W79660  34.891  16.111  13.894
20158W        W79661   3.283   9.209   3.797
20159W        W79662  21.125  21.056  12.373
20160W        W79663  29.040  20.094   1.929
20161W        W79664  44.476  44.343  11.516
20162W        W79665   8.816   1.910   3.757
20163W        W79666   0.766  20.558   0.465
20164W        W79667  15.811  19.654  11.045
20165W        W79668  41.347  15.721   0.877
20166W        W79669  24.102  29.544  11.558
20167W        W79670  15.250   6.682  14.932
20168W        W79671  23.171   5.850   4.807
20169W        W79672  38.915  26.588   2.820
20170W        W79673   0.367  19.560  13.341
20171W        W79674  27.109  17.648   4.314
20172W        W79675  19.167  26.554  13.027
20173W        W79676  35.871  44.449  12.364
20174W        W79677   2.794   2.966   0.846
20175W        W79678  28.645  16.127  13.309
20176W        W79679   1.479  13.830   4.320
20177W        W79680   6.343  18.099  12.070
20178W        W79681  10.362  20.056   2.691
20179W        W79682  13.808  20.069   1.847
20180W        W79683  13.607  16.115   0.800
20181W        W79684  25.472   4.227   2.779
20182W        W79685  23.544   1.441  13.482
20183W        W79686  40.322  19.704   5.238
20184W        W79687   5.414  41.386   4.233
20185W        W79688  26.179  14.259  14.871
20186W        W79689  32.131   5.696   2.360
20187W        W79690  13.307  31.643  10.940
20188W        W79691   2.430   4.806   0.392
20189W        W79692   8.224  35.982  13.992
20190W        W79693   9.726  27.680   3.695
20191W        W79694  25.140  24.013   4.296
20192W        W79695   3.220  42.910   2.757
20193W        W79696  41.922  34.464   0.442
20194W        W79697  14.806  24.001  12.888
20195W        W79698  36.031  21.207   3.168
20196W        W79699   3.359  35.018   1.714
20197W        W79700  36.933   2.239   2.223
20198W        W79701  22.082  30.433   1.705
20199W        W79702   7.214  25.605   0.370
20200W        W79703  12.294   2.887  13.839
20201W        W79704  10.314  34.599  13.991
20202W        W79705   6.861  43.300  10.123
20203W        W79706  21.055   9.646   0.324
20204W        W79707  16.260  31.110   0.838
20205W        W79708  21.129  16.259   0.885
20206W        W79709  44.377   0.906  12.952
20207W        W79710  24.982  31.407  13.843
20208W        W79711  42.974   3.413  12.432
20209W        W79712  23.697   1.820  14.878
20210W        W79713   7.309  39.976   4.686
20211W        W79714  12.823  38.538   1.351
20212W        W79715  20.028  26.988  13.001
20213W        W79716  11.860   1.314   2.260
20214W        W79717  34.106  44.365   0.770
20215W        W79718   3.223  11.839  10.414
20216W        W79719   2.900  11.659   4.735
20217W        W79720  13.298  28.007   5.201
20218W        W79721  16.215  41.007   4.721
20219W        W79722  43.939  19.647   2.881
20220W        W79723  43.505  38.993  10.460
20221W        W79724  24.484   1.830   0.305
20222W        W79725  22.545  17.649   3.310
20223W        W79726  16.610  15.579  13.814
20224W        W79727  32.547  33.990   3.705
20225W        W79728   9.281  12.697   3.682
20226W        W79729  37.498  25.680   0.840
20227W        W79730  33.876  11.868  13.468
20228W        W79731  29.058   2.253   3.664
20229W        W79732  36.534  13.786   4.740
20230W        W79733  25.711   9.219  11.977
20231W        W79734   3.929  26.085  12.471
20232W        W79735  30.592  43.329  11.884
20233W        W79736  32.470  35.483   0.812
20234W        W79737  18.279  22.729  13.525
20235W        W79738  16.699  10.805  12.537
20236W        W79739  41.020   4.330   0.812
20237W        W79740  22.580  17.152   2.397
20238W        W79741  33.107  15.194  11.894
20239W        W79742  21.750   1.894  13.405
20240W        W79743  15.623  34.892   4.726
20241W        W79744  15.673  27.027   0.816
20242W        W79745   9.793  37.412  13.894
20243W        W79746  23.511  38.485  11.462
20244W        W79747  17.244  43.860  10.928
20245W        W79748   5.229   7.732   2.783
20246W        W79749   3.782  10.301  13.841
20247W        W79750  38.373  29.083  14.448
20248W        W79751   6.714   3.744  13.000
20249W        W79752  34.088  27.533  11.031
20250W        W79753  14.650  32.624   4.750
20251W        W79754  35.509  15.097   3.695
20252W        W79755  28.647  28.614  13.355
20253W        W79756   7.876   1.761   0.912
20254W        W79757  33.503  12.847   3.320
20255W        W79758   5.422   3.439   2.785
20256W        W79759  15.200  29.018  11.105
20257W        W79760  39.944  19.213   4.761
20258W        W79761  40.971  32.596   3.314
20259W        W79762  39.387  19.127  13.022
20260W        W79763  34.874  41.408  14.285
20261W        W79764  11.334  18.645   0.246
20262W        W79765  30.594  24.031   1.915
20263W        W79766  29.639  37.354  12.444
20264W        W79767   4.261  22.653   3.732
20265W        W79768  25.612  13.326  10.911
20266W        W79769  18.095  15.657   3.632
20267W        W79770  37.419  26.176  14.412
20268W        W79771  40.467  37.523  13.888
20269W        W79772  24.628  19.602   1.824
20270W        W79773  11.361  30.006  12.908
20271W        W79774  22.533  30.477  14.316
20272W        W79775  19.701  14.794   2.359
20273W        W79776  13.793  16.806   4.283
20274W        W79777  43.322  32.902  13.874
20275W        W79778  22.071   4.297  13.845
20276W        W79779   0.811   8.717   3.685
20277W        W79780  11.759  12.184   2.901
20278W        W79781   2.789  18.705   2.717
20279W        W79782  11.268   1.325  14.789
20280W        W79783  42.910  30.071  11.590
20281W        W79784  38.538  28.167  13.956
20282W        W79785   7.370   9.225   2.267
20283W        W79786  28.481   4.860   4.279
20284W        W79787  38.005  31.500   3.232
20285W        W79788  33.479  31.551  14.888
20286W        W79789  31.574  24.207   4.788
20287W        W79790   4.715  17.268   0.958
20288W        W79791  38.344  10.245  12.970
20289W        W79792  35.361  37.895  10.952
20290W        W79793  16.809   6.356   1.418
20291W        W79794  11.183  31.064   3.262
20292W        W79795   9.800  36.868   2.289
20293W        W79796   9.841  14.185   1.297
20294W        W79797  41.791  34.428  11.547
20295W        W79798   0.292   7.173  14.471
20296W        W79799   0.423   1.329  13.982
20297W        W79800   3.858   4.842   9.973
20298W        W79801   8.878  29.624   2.412
20299W        W79802  36.875  30.478   4.306
20300W        W79803   0.414   1.859   2.371
20301W        W79804  10.862  30.640   3.288
20302W        W79805  18.097  33.878   4.280
20303W        W79806  10.861   9.842  14.358
20304W        W79807   4.709  18.221   2.831
20305W        W79808   0.363  17.306  12.515
20306W        W79809  14.623   7.842  13.993
20307W        W79810  33.437  38.061  14.357
20308W        W79811  20.723  37.853   0.856
20309W        W79812  18.611  14.196   5.275
20310W        W79813  12.259  44.393   0.441
20311W        W79814  40.377  21.129  13.467
20312W        W79815  28.601   4.825   2.768
20313W        W79816  27.646  28.000  13.318
20314W        W79817  21.191  34.447  10.543
20315W        W79818  11.288   1.450  13.017
20316W        W79819  36.474  11.357  13.324
20317W        W79820  14.145   0.953   0.258
20318W        W79821  20.047  42.520  11.898
20319W        W79822   2.920  20.180  11.116
20320W        W79823  14.284  32.985   1.864
20321W        W79824  26.658   7.742  11.902
20322W        W79825  30.528  34.954   3.229
20323W        W79826  22.682   2.391  14.940
20324W        W79827  44.377  32.597   4.334
20325W        W79828  28.008   1.927  13.333
20326W        W79829  12.336  40.038  12.440
20327W        W79830  36.090  36.088  14.420
20328W        W79831  26.061   7.363  10.527
20329W        W79832  37.368  27.537  14.319
20330W        W79833   3.777  32.555  13.315
20331W        W79834  21.135  26.989   4.822
20332W        W79835  20.731  37.894   3.285
20333W        W79836  36.021  24.686   3.800
20334W        W79837  43.434  43.835  13.946
20335W        W79838  44.820   8.677  14.442
20336W        W79839  14.184   0.401  11.554
20337W        W79840  25.621   0.472   5.788
20338W        W79841  15.286  34.521  10.924
20339W        W79842  11.179   5.306   2.896
20340W        W79843   9.825   1.735  12.516
20341W        W79844  34.558  38.959   2.220
20342W        W79845  10.843  30.622  10.922
20343W        W79846  34.592   3.322  13.863
20344W        W79847  10.746  43.273  11.508
20345W        W79848  35.002  38.376  10.579
20346W        W79849  13.235  31.594  10.490
20347W        W79850  14.739  20.128  11.041
20348W        W79851  39.880  25.712   3.163
20349W        W79852  34.557  11.824   0.813
20350W        W79853  13.293  36.575   1.369
20351W        W79854  42.387  25.551  12.935
20352W        W79855  37.999   7.216  11.111
20353W        W79856  22.205   5.408   0.776
20354W        W79857  40.479  28.132  12.528
20355W        W79858  29.623  43.883   1.796
20356W        W79859   4.778  14.641   0.411
20357W        W79860  24.047  23.043  10.547
20358W        W79861  38.934  41.926   3.226
20359W        W79862  21.039  26.629  13.934
20360W        W79863  43.878   8.702  14.360
20361W        W79864  25.656  10.653   1.804
20362W        W79865   7.171  29.087  12.543
20363W        W79866   3.223   8.838  12.968
20364W        W79867  38.962   8.819  14.499
20365W        W79868   2.914  29.575  12.034
20366W        W79869  10.682   1.867  14.858
20367W        W79870  39.808  17.709  13.046
20368W        W79871  35.097  38.862  13.058
20369W        W79872   4.300  12.677   0.245
20370W        W79873  37.870  23.195  12.528
20371W        W79874   1.930  23.108  11.910
20372W        W79875  12.770  19.248  10.531
20373W        W79876  12.821  31.014   1.883
20374W        W79877  13.283  36.006   1.841
20375W        W79878  26.020   0.827  12.550
20376W        W79879  10.737  32.986  10.922
20377W        W79880  19.709  30.633   4.836
20378W        W79881  15.790  38.917  13.930
20379W        W79882   0.324  34.954  13.809
20380W        W79883   7.383  23.175  14.995
20381W        W79884  17.218   6.889  13.980
20382W        W79885   0.462  37.847  12.073
20383W        W79886  32.473  26.517   3.319
20384W        W79887  23.019  14.690  10.614
20385W        W79888  31.134  39.840   0.370
20386W        W79889   1.427  14.264  11.090
20387W        W79890  37.354  13.223   0.289
20388W        W79891   4.763  40.426  14.831
20389W        W79892   5.931  34.948  13.017
20390W        W79893  20.596  37.903  13.962
20391W        W79894  36.902  28.633   4.720
20392W        W79895  13.317   7.689   3.732
20393W        W79896  39.039  22.678  10.503
20394W        W79897  29.112  41.485  12.010
20395W        W79898  28.452  30.151   3.827
20396W        W79899  44.946   1.399   4.640
20397W        W79900  19.138  14.731   3.826
20398W        W79901  32.450  27.956   2.864
20399W        W79902  13.642  17.584   0.901
20400W        W79903   9.828  31.617   2.395
20401W        W79904  18.253  33.919   0.294
20402W        W79905   5.702   6.201   3.315
20403W        W79906  42.816  20.709   5.152
20404W        W79907  39.434  37.556  14.000
20405W        W79908   1.316  14.118   2.345
20406W        W79909  18.623  39.956  12.894
20407W        W79910  41.330  42.302  14.458
20408W        W79911   4.857   5.913   5.155
20409W        W79912  20.746  22.692  10.512
20410W        W79913  37.925  14.255   1.822
20411W        W79914  36.028  32.001  13.484
20412W        W79915  29.070  30.421   2.245
20413W        W79916  30.615  31.977  13.421
20414W        W79917  36.374  14.185   4.762
20415W        W79918  23.596  28.606  11.001
20416W        W79919   9.372  30.604   2.310
20417W        W79920  33.560  22.027   2.385
20418W        W79921  41.538  38.413  12.578
20419W        W79922  38.979   3.775  14.472
20420W        W79923  15.273  24.187   4.185
20421W        W79924  20.610  43.395  10.515
20422W        W79925  10.196  17.294   1.324
20423W        W79926  13.180  21.683   4.708
20424W        W79927  29.042  32.513   0.480
20425W        W79928  19.645  25.483   1.313
20426W        W79929   2.822  18.238   3.266
20427W        W79930  22.086  25.987   2.331
20428W        W79931  41.975  31.056   4.695
20429W        W79932  25.025  38.974   2.323
20430W        W79933  22.695  36.893  12.557
20431W        W79934  39.920  13.635   0.301
20432W        W79935   7.373   5.372   4.225
20433W        W79936   3.734  39.894  12.556
20434W        W79937  38.883  30.150  14.879
20435W        W79938  27.041  37.420  13.501
20436W        W79939   3.410  32.946  12.537
20437W        W79940   9.191  40.906  14.018
20438W        W79941  19.086  13.130  12.910
20439W        W79942  25.483   4.360   1.399
20440W        W79943   6.844  33.124  11.380
20441W        W79944  35.415  27.470   4.610
20442W        W79945  17.618   9.812  12.903
20443W        W79946  14.312  33.397  12.525
20444W        W79947  33.922  35.530  13.906
20445W        W79948  17.110  39.031  12.530
20446W        W79949  34.399  37.977   1.379
20447W        W79950  34.075  23.601   3.350
20448W        W79951  12.338  39.034  11.096
20449W        W79952  30.516  17.123   9.973
20450W        W79953  25.508  38.871  13.475
20451W        W79954  15.758  24.625  12.470
20452W        W79955   7.717  41.482  10.563
20453W        W79956  30.113  24.052   0.471
20454W        W79957  19.133  22.615  11.033
20455W        W79958  30.945  30.989  13.340
20456W        W79959  32.475   6.841  11.603
20457W        W79960  22.140   5.310  12.021
20458W        W79961  35.954  23.994  12.857
20459W        W79962  43.472  30.932   1.870
20460W        W79963  27.636   0.837  12.496
20461W        W79964  31.071  42.399   2.385
20462W        W79965  24.484  27.959   2.842
20463W        W79966   5.240  38.336  12.950
20464W        W79967   0.903  39.376  10.582
20465W        W79968  25.167  25.651   3.363
20466W        W79969  22.525   4.293   0.366
20467W        W79970  30.165  28.107  13.517
20468W        W79971  38.553  16.191   3.380
20469W        W79972  40.798  26.102  14.352
20470W        W79973   0.450  17.176   4.605
20471W        W79974  23.557  13.158   3.643
20472W        W79975  40.480  11.326  11.078
20473W        W79976  11.155   2.793  14.849
20474W        W79977   6.837  33.414   1.888
20475W        W79978  22.644  28.618   1.226
20476W        W79979  14.129  13.720  13.919
20477W        W79980  18.652  34.373   3.816
20478W        W79981  42.895  28.081  10.492
20479W        W79982   0.408   6.819   2.744
20480W        W79983  31.583   7.176   2.252
20481W        W79984   1.913  22.569   1.357
20482W        W79985  40.005  39.503  13.859
20483W        W79986   6.919  15.785   2.325
20484W        W79987  30.098  25.530   0.796
20485W        W79988  12.723   0.895   0.453
20486W        W79989  39.482  35.595  12.042
20487W        W79990   0.806  43.416   1.342
20488W        W79991  30.444  24.544   1.279
20489W        W79992  27.138  31.103  10.582
20490W        W79993  10.874  24.573   3.865
20491W        W79994  30.105  22.724  13.398
20492W        W79995  38.564  25.534   0.455
20493W        W79996  44.457  39.339   2.357
20494W        W79997  14.227  42.921  14.031
20495W        W79998  11.829  18.145   0.891
20496W        W79999  44.909  14.813   0.750
20497W        W80000  25.645   6.216   0.403
20498W        W80001  35.051   0.778   1.878
20499W        W80002  34.078  44.494   0.377
20500W        W80003  23.183  24.076   3.684
20501W        W80004   6.828  43.769  11.611
20502W        W80005  16.676  19.611  12.429
20503W        W80006  15.323  44.834   1.772
20504W        W80007  14.197  18.786  11.609
20505W        W80008  11.687  17.268  13.475
20506W        W80009  42.513  34.458   4.726
20507W        W80010  31.647   5.825   4.668
20508W        W80011  30.978  32.456  12.080
20509W        W80012  24.173   4.721  13.398
20510W        W80013  21.731  27.149  11.007
20511W        W80014  36.533  27.548   2.262
20512W        W80015  30.505  32.475  12.492
20513W        W80016  39.405  30.558  10.613
20514W        W80017  17.082  26.702   1.857
20515W        W80018  22.103  28.123   2.293
20516W        W80019  13.747  22.171  12.426
20517W        W80020  40.844  23.578   4.310
20518W        W80021  21.716  17.629  12.531
20519W        W80022  34.371  22.548   0.253
20520W        W80023  26.468  38.052   2.772
20521W        W80024  21.032  39.454  14.779
20522W        W80025   4.830  42.991   2.782
20523W        W80026  38.418  13.194  13.054
20524W        W80027  11.786   4.757   0.961
20525W        W80028  11.748  24.011  11.512
20526W        W80029   2.846  37.833   1.291
20527W        W80030  37.876   3.335   0.284
20528W        W80031  18.737  19.595   1.900
20529W        W80032  17.610   1.773  10.637
20530W        W80033   4.369  29.978   2.664
20531W        W80034  35.947  27.975   0.849
20532W        W80035  42.915  41.973  14.376
20533W        W80036   9.717  17.138   4.199
20534W        W80037  36.042  34.479   2.320
20535W        W80038  35.519  29.451   0.369
20536W        W80039   4.406   3.302   1.232
20537W        W80040  18.684  24.006   3.167
20538W        W80041   4.904   6.771  10.116
20539W        W80042  43.276  10.709   0.835
20540W        W80043  23.147  38.488   1.781
20541W        W80044  32.106  30.651   2.877
20542W        W80045  36.430  23.553   0.764
20543W        W80046   5.827  11.134   0.910
20544W        W80047  31.075  29.047   2.775
20545W        W80048  31.976  41.332  11.902
20546W        W80049  17.638   3.432   4.221
20547W        W80050   3.411  37.506   3.742
20548W        W80051  33.050  13.661   1.399
20549W        W80052  32.987   9.349   4.241
20550W        W80053   0.743  40.473  11.507
20551W        W80054  24.723  17.606  10.935
20552W        W80055   4.734  35.028   4.803
20553W        W80056  41.467   4.396  11.089
20554W        W80057  21.213  37.576  12.463
20555W        W80058  36.531  39.471  12.492
20556W        W80059  23.076   8.858  13.403
20557W        W80060  32.095  44.836   1.277
20558W        W80061  40.860  39.895  14.384
20559W        W80062  12.288  23.169  13.905
20560W        W80063   1.338  19.097  11.037
20561W        W80064  26.120  26.021  14.942
20562W        W80065  38.842  33.099   2.337
20563W        W80066  15.313   4.775  13.852
20564W        W80067  10.684   9.798   2.767
20565W        W80068  10.229  33.923  14.787
20566W        W80069  18.620  30.956   4.181
20567W        W80070   5.896  28.079   4.621
20568W        W80071  13.206  30.014  12.516
20569W        W80072  17.238  15.684   1.773
20570W        W80073   4.296   4.724   4.658
20571W        W80074  36.444  44.391   0.736
20572W        W80075   2.937  26.481   2.370
20573W        W80076   1.814  28.571   2.290
20574W        W80077  31.589  13.599  11.991
20575W        W80078  23.209   3.250   3.250
20576W        W80079   6.296  18.254  14.027
20577W        W80080  43.376  32.952  11.430
20578W        W80081  16.141  33.938   2.806
20579W        W80082  30.915  32.907  11.012
20580W        W80083  26.002   1.974  13.991
20581W        W80084   6.310   0.902   1.357
20582W        W80085   9.723  20.138   4.673
20583W        W80086  37.862  33.554   0.307
20584W        W80087  27.100  41.932   3.667
20585W        W80088  17.129  40.450   1.865
20586W        W80089  12.235  12.204   3.162
20587W        W80090  17.092  42.328  14.326
20588W        W80091   0.279  25.088   3.297
20589W        W80092  43.337  22.008   1.265
20590W        W80093   4.444  11.813   4.146
20591W        W80094  37.357  38.543  11.963
20592W        W80095   4.944   6.240   3.704
20593W        W80096   4.369  38.960  13.510
20594W        W80097  32.609  18.169   3.259
20595W        W80098  17.145  42.962  12.578
20596W        W80099  17.253  31.642   4.257
20597W        W80100  31.149  44.384  10.990
20598W        W80101  19.645  13.708  13.869
20599W        W80102  11.709  14.792  12.070
20600W        W80103  34.524  12.802  14.984
20601W        W80104  44.901  44.980  14.366
20602W        W80105  29.597  36.843   1.785
20603W        W80106   2.269   4.781  12.071
20604W        W80107  41.921  44.389  10.432
20605W        W80108  21.600   3.886  10.408
20606W        W80109  31.585  35.370   1.792
20607W        W80110  17.141  36.980   2.864
20608W        W80111   0.250  18.712  13.415
20609W        W80112  35.011  37.529  10.618
20610W        W80113  13.662  19.575  13.363
20611W        W80114  31.043  31.619   0.917
20612W        W80115  22.034  18.062  14.400
20613W        W80116  34.469  10.169  10.586
20614W        W80117  32.986  20.163  13.843
20615W        W80118  21.111   3.263  11.903
20616W        W80119  14.206  37.500  12.978
20617W        W80120  30.497  29.163   4.808
20618W        W80121   5.266  42.286  12.038
20619W        W80122  41.852   1.903   3.163
20620W        W80123  11.231   7.876   3.856
20621W        W80124  17.108  36.018  13.882
20622W        W80125   3.238  19.542   3.630
20623W        W80126  39.513   6.732   1.778
20624W        W80127   3.777  13.721  10.419
20625W        W80128  29.630  34.486   4.297
20626W        W80129  16.168  33.586   3.757
20627W        W80130  42.891  15.734  11.380
20628W        W80131   0.287  26.605   1.228
20629W        W80132   6.799  31.521   4.830
20630W        W80133  42.927   7.671   3.825
20631W        W80134  40.509  23.020  11.992
20632W        W80135  44.003   9.764  14.311
20633W        W80136  35.533   8.855  11.561
20634W        W80137  20.029   7.260   4.204
20635W        W80138  26.568   8.770   2.833
20636W        W80139  36.922  40.494   0.896
20637W        W80140  34.965  27.457   3.271
20638W        W80141  24.619  19.721  13.814
20639W        W80142   7.312   9.213   0.767
20640W        W80143  20.129  39.014   3.655
20641W        W80144  25.616   8.175  10.979
20642W        W80145  16.190  20.629  12.580
20643W        W80146  11.773  31.097   3.317
20644W        W80147  21.718   5.204  13.040
20645W        W80148  13.147   5.723   4.294
20646W        W80149  25.695   5.779  11.421
20647W        W80150   0.894  33.558  11.100
20648W        W80151  24.037  19.735  14.814
20649W        W80152  37.468  43.851   3.677
20650W        W80153  30.047  42.870  14.759
20651W        W80154  21.057  35.527  10.518
20652W        W80155   9.854  17.284   3.729
20653W        W80156  35.525   6.689  14.801
20654W        W80157  37.417  23.648  11.579
20655W        W80158   4.293  20.183   4.599
20656W        W80159  39.911  26.639  10.603
20657W        W80160  12.665   6.312  10.967
20658W        W80161  34.524  39.437  13.547
20659W        W80162  44.354   7.770  14.344
20660W        W80163  40.510  41.910   1.431
20661W        W80164  21.530  26.485  10.130
20662W        W80165   4.279  31.568   1.707
20663W        W80166  25.575  37.356  11.948
20664W        W80167  23.080  14.833   1.220
20665W        W80168   5.262  18.238   4.739
20666W        W80169   5.299  15.817   2.822
20667W        W80170  10.219  27.955  12.833
20668W        W80171   4.909  25.014   4.614
20669W        W80172   9.704  44.344  10.532
20670W        W80173  12.837  25.573   1.712
20671W        W80174   7.247  39.915  10.567
20672W        W80175  41.514  22.007  10.541
20673W        W80176   6.304  32.102   3.338
20674W        W80177  11.191  28.469   2.312
20675W        W80178  15.668  32.958  11.055
20676W        W80179   3.895  21.727  10.424
20677W        W80180  31.099   3.770   2.229
20678W        W80181  33.945  32.421   0.760
20679W        W80182  17.717  30.605  11.049
20680W        W80183  28.652  13.338  12.037
20681W        W80184  20.257   4.867  12.520
20682W        W80185  36.577  30.566   2.330
20683W        W80186  11.767   4.450  12.442
20684W        W80187  11.221  25.521  14.957
20685W        W80188  19.778  27.598   0.825
20686W        W80189  37.019  12.767   2.233
20687W        W80190   3.894   6.909  13.992
20688W        W80191  16.680  32.976   3.181
20689W        W80192  35.396  36.382  14.946
20690W        W80193  10.833  12.127  14.372
20691W        W80194  28.119  28.938   1.922
20692W        W80195  18.248  40.000  10.528
20693W        W80196  42.461   0.768  11.452
20694W        W80197  33.967  33.001  14.936
20695W        W80198   3.375  28.594   1.337
20696W        W80199   6.184  23.210   1.231
20697W        W80200  13.306  15.736  10.414
20698W        W80201  21.093  13.821   0.445
20699W        W80202  23.052  37.547   4.203
20700W        W80203  15.112  18.651   2.246
20701W        W80204   6.920  31.929  14.855
20702W        W80205  44.400  29.637   2.823
20703W        W80206   0.345  34.487  11.054
20704W        W80207  20.559   4.909   2.854
20705W        W80208  24.986  17.162   3.306
20706W        W80209  39.906  36.046   2.750
20707W        W80210  22.503   9.750   0.312
20708W        W80211  39.379  16.619   2.869
20709W        W80212  12.315  26.507   1.819
20710W        W80213  19.041  10.698   1.781
20711W        W80214  29.101  36.847   5.757
20712W        W80215  39.959  44.468  13.047
20713W        W80216  10.670  36.369   1.760
20714W        W80217  27.670  27.157   5.718
20715W        W80218  10.632  21.134  12.988
20716W        W80219  29.092   4.860  11.421
20717W        W80220  35.986  32.568  12.428
20718W        W80221   5.418   2.822  11.921
20719W        W80222  41.815  37.078  10.546
20720W        W80223   5.297  22.080  12.895
20721W        W80224   0.818  12.767   0.384
20722W        W80225   5.389  26.186  10.940
20723W        W80226   0.265   7.323  14.831
20724W        W80227  35.460  16.622  13.406
20725W        W80228   8.362   9.380  12.014
20726W        W80229  43.826  11.257   2.326
20727W        W80230  20.085   5.691   3.655
20728W        W80231  18.220  15.815  14.341
20729W        W80232  24.561  16.300   0.343
20730W        W80233  41.409  41.357  10.453
20731W        W80234   8.837  10.152   0.311
20732W        W80235  28.942  27.578  14.945
20733W        W80236  38.536  14.826   1.318
20734W        W80237   3.926   1.448  13.934
20735W        W80238   2.884   3.350  13.505
20736W        W80239  26.075  31.550  10.557
20737W        W80240  14.734   8.836  12.032
20738W        W80241  41.319  10.272   0.875
20739W        W80242  28.095  23.226  10.478
20740W        W80243   8.795  43.820  10.934
20741W        W80244  15.629  15.203  14.898
20742W        W80245  37.557  26.141  10.601
20743W        W80246  14.111  34.033  10.569
20744W        W80247  15.113  34.044   5.663
20745W        W80248  20.254  37.993   3.667
20746W        W80249  31.068   7.207   4.223
20747W        W80250   0.850  14.660  13.903
20748W        W80251   5.734  25.567   0.372
20749W        W80252  28.043   3.754   0.770
20750W        W80253  32.028  34.118  11.450
20751W        W80254  35.863   7.362  10.619
20752W        W80255  23.495  11.184   4.323
20753W        W80256  14.768   4.319  12.339
20754W        W80257  28.482  32.910  14.998
20755W        W80258   7.832  11.325  14.438
20756W        W80259  15.782  28.174  10.889
20757W        W80260  41.973  27.177   1.297
20758W        W80261   1.363  25.999  10.642
20759W        W80262  26.084  33.445   0.773
20760W        W80263  44.858  31.101   1.270
20761W        W80264   0.903   9.341   1.743
20762W        W80265   8.822  42.318   4.310
20763W        W80266  28.648   8.269  14.414
20764W        W80267  42.848  26.002   4.727
20765W        W80268   1.961  25.491   3.166
20766W        W80269  25.027  41.317  12.473
20767W        W80270  32.587  25.975   5.251
20768W        W80271  10.693  13.728   1.766
20769W        W80272   0.421   2.342   2.236
20770W        W80273   4.741  30.644  14.894
20771W        W80274  42.786  41.857   4.200
20772W        W80275  30.924  28.584  11.583
20773W        W80276   2.965  16.628   1.708
20774W        W80277  31.104  44.965   2.354
20775W        W80278   9.711  20.069   2.763
20776W        W80279  24.605  21.694   3.221
20777W        W80280  38.537  34.990  10.445
20778W        W80281  17.558  27.625  10.438
20779W        W80282  40.997  41.021  11.469
20780W        W80283   7.681  10.247  10.408
20781W        W80284  38.484  34.544  11.916
20782W        W80285  24.555  17.228  10.968
20783W        W80286  41.027  33.948   2.881
20784W        W80287  31.023  10.223   4.676
20785W        W80288  38.484   5.823   0.841
20786W        W80289  15.225  17.744  14.427
20787W        W80290  29.517  20.150  10.472
20788W        W80291  26.524   4.733   2.182
20789W        W80292  18.267   2.311   2.677
20790W        W80293   6.311  30.457   2.382
20791W        W80294  27.125  41.352  12.972
20792W        W80295  22.056   6.910  13.814
20793W        W80296  19.620  28.099  14.413
20794W        W80297  41.971  38.868   1.304
20795W        W80298  33.556  19.723  13.444
20796W        W80299  35.018  27.513  11.065
20797W        W80300  13.637  20.233   0.860
20798W        W80301   1.824  30.935   2.833
20799W        W80302  42.906  12.617  10.598
20800W        W80303  16.737  13.138  12.982
20801W        W80304  32.423  19.704  11.424
20802W        W80305  11.783   6.823   2.413
20803W        W80306  14.116  16.088   1.794
20804W        W80307  38.041   8.819   2.898
20805W        W80308  44.769  20.036   0.471
20806W        W80309  17.115  12.775   0.323
20807W        W80310  29.116  34.050  13.472
20808W        W80311   5.807  44.820  14.869
20809W        W80312  27.646  41.368  11.855
20810W        W80313  24.021   5.323   4.228
20811W        W80314  32.062  11.712   2.889
20812W        W80315  10.831   6.704  12.840
20813W        W80316   3.832  20.109   3.299
20814W        W80317  32.980  28.966  10.471
20815W        W80318  28.977  16.252  13.421
20816W        W80319   7.347  28.180   1.819
20817W        W80320   1.896  22.745  12.044
20818W        W80321  28.484  36.883   0.792
20819W        W80322  10.849   2.354   0.792
20820W        W80323  19.755  43.402   4.690
20821W        W80324   7.665  30.997   0.379
20822W        W80325  37.925   3.899  12.952
20823W        W80326  31.494  26.147   1.818
20824W        W80327  13.137  23.234   0.792
20825W        W80328  42.329  18.763  13.054
20826W        W80329  30.160  43.968   2.804
20827W        W80330  33.010  19.263  11.497
20828W        W80331  18.673  24.688  14.405
20829W        W80332  37.578   9.206   3.222
20830W        W80333   5.251   7.824   4.723
20831W        W80334  37.045  27.623   2.275
20832W        W80335   3.778  20.710   4.643
20833W        W80336  13.755  32.045   5.087
20834W        W80337   7.795   6.806   1.369
20835W        W80338  34.505   1.858  13.453
20836W        W80339  37.939  31.530  10.608
20837W        W80340  21.092   1.266   1.856
20838W        W80341  28.450  37.975  11.915
20839W        W80342   2.454  13.769   0.440
20840W        W80343  28.063  29.160   2.688
20841W        W80344  20.766  16.284   1.719
20842W        W80345  19.538   1.946   0.892
20843W        W80346  41.874  25.631  12.435
20844W        W80347  22.015  17.600  14.331
20845W        W80348  44.277  42.341   2.869
20846W        W80349  19.073   4.310  13.794
20847W        W80350  13.262  36.902  13.005
20848W        W80351  30.599  38.488   0.415
20849W        W80352  28.935  33.084   4.244
20850W        W80353  16.660   0.424   0.265
20851W        W80354  25.605  27.621   1.286
20852W        W80355  29.948  15.702  12.852
20853W        W80356  13.618  35.461   3.810
20854W        W80357  29.098  31.996  14.411
20855W        W80358  25.151   4.417  13.911
20856W        W80359   0.297  42.326  11.044
20857W        W80360  23.098   4.822  10.460
20858W        W80361  14.757  35.909  12.433
20859W        W80362   1.885  41.855   0.459
20860W        W80363  24.003   5.348   1.401
20861W        W80364   6.371  25.055   4.810
20862W        W80365  33.616   4.900  10.934
20863W        W80366  20.701  30.450  10.637
20864W        W80367  37.947   2.793  13.855
20865W        W80368  43.429  40.959   2.798
20866W        W80369   1.838  11.671  11.106
20867W        W80370  22.659  18.117   1.388
20868W        W80371  43.882  18.284  12.368
20869W        W80372  13.621   2.769  12.575
20870W        W80373  39.524  18.774  14.376
20871W        W80374  24.564  25.513   3.656
20872W        W80375   3.735   0.315  10.462
20873W        W80376  18.603  42.473   3.213
20874W        W80377  32.447  28.547  13.532
20875W        W80378  25.083  40.896   3.373
20876W        W80379  41.443  26.461  12.426
20877W        W80380   1.257  21.145   3.274
20878W        W80381  37.519   6.366  11.886
20879W        W80382  10.828   9.327  12.840
20880W        W80383  39.463  15.238  14.901
20881W        W80384   4.350  39.490  13.973
20882W        W80385  36.498  35.970  14.451
20883W        W80386  23.108  36.355  11.421
20884W        W80387  10.139  36.412   4.693
20885W        W80388  26.095  31.024   3.847
20886W        W80389  25.622   1.276  14.378
20887W        W80390  44.974  28.491   2.669
20888W        W80391  26.615  43.012  12.341
20889W        W80392   7.406   3.949  12.553
20890W        W80393   5.199  28.610   2.829
20891W        W80394  12.307  17.232   9.931
20892W        W80395  18.623   8.683  12.494
20893W        W80396  44.759  19.046   1.430
20894W        W80397  40.836  16.668   2.247
20895W        W80398  30.479  18.066  11.562
20896W        W80399   5.752  13.260  12.577
20897W        W80400   0.921  41.795   4.258
20898W        W80401  12.756  30.110  12.520
20899W        W80402  33.933  15.652   4.782
20900W        W80403  12.734  13.660  12.057
20901W        W80404  18.760   5.237   1.334
20902W        W80405  29.600  39.348  11.495
20903W        W80406  20.181  10.759   1.217
20904W        W80407  37.845  12.356   2.775
20905W        W80408  41.534  39.842  12.504
20906W        W80409  15.101   9.877  13.818
20907W        W80410   2.758  17.573  11.035
20908W        W80411  37.518  21.213   0.376
20909W        W80412   8.235   2.881  10.477
20910W        W80413  19.113   8.767  13.528
20911W        W80414  42.370  26.127   1.706
20912W        W80415  38.558  34.500  13.414
20913W        W80416   3.395  24.576   3.269
20914W        W80417  18.727   4.209   4.618
20915W        W80418  41.793  28.140  13.974
20916W        W80419  17.139  24.001  14.285
20917W        W80420  30.984   4.251  10.491
20918W        W80421  29.006   5.333  14.484
20919W        W80422   4.389  44.418  13.509
20920W        W80423   7.182   7.721  11.575
20921W        W80424  40.869   1.341  11.572
20922W        W80425  29.009   2.289   0.312
20923W        W80426   5.420  21.062   3.362
20924W        W80427  11.708  13.627  10.038
20925W        W80428  37.063  18.131   1.270
20926W        W80429   4.349  15.671   3.646
20927W        W80430  21.572  15.626  14.023
20928W        W80431  43.868  10.224  14.959
20929W        W80432  26.571  40.946   3.238
20930W        W80433   1.941  41.393  14.966
20931W        W80434   9.784  22.114  11.601
20932W        W80435  25.143  16.771  13.979
20933W        W80436  25.068  29.088   1.400
20934W        W80437  14.589  14.218   0.400
20935W        W80438  19.114  15.820  12.461
20936W        W80439  29.552  30.094  11.416
20937W        W80440  32.978   5.350   2.758
20938W        W80441  14.641  16.185   1.247
20939W        W80442  18.179  22.252  13.833
20940W        W80443  31.945  25.603   1.252
20941W        W80444  23.514  35.564   4.319
20942W        W80445  13.758   1.237  12.944
20943W        W80446  33.428  44.472   3.832
20944W        W80447  43.514  42.966   3.865
20945W        W80448  43.493  40.850   0.775
20946W        W80449   9.153  11.355   2.263
20947W        W80450  21.020  13.226  10.909
20948W        W80451  27.680  39.866  11.373
20949W        W80452  41.930   0.871  14.347
20950W        W80453  44.797  10.836   2.365
20951W        W80454   6.804  15.265  13.031
20952W        W80455  35.093  38.881  10.420
20953W        W80456  29.096  25.567   2.778
20954W        W80457  36.473  38.944   1.853
20955W        W80458  24.193  25.682   0.399
20956W        W80459  37.877  44.010  13.816
20957W        W80460  41.447  33.592   2.206
20958W        W80461  26.032  30.159  13.854
20959W        W80462  30.493  26.513  10.941
20960W        W80463  22.177  38.841   0.424
20961W        W80464  25.695  30.958   0.307
20962W        W80465  12.264   3.728  11.088
20963W        W80466   6.277  35.565   1.797
20964W        W80467   7.833  31.479  10.960
20965W        W80468  39.495  12.768   3.754
20966W        W80469  31.151  43.853  12.867
20967W        W80470   1.795  22.536   2.289
20968W        W80471  33.060  24.717   2.882
20969W        W80472  32.485   0.839  11.997
20970W        W80473  32.039  22.068   0.833
20971W        W80474  13.737   8.359   1.914
20972W        W80475  12.171  25.523  11.574
20973W        W80476  26.109  32.916  12.968
20974W        W80477   7.713   8.895  10.505
20975W        W80478   5.692  39.982   2.852
20976W        W80479  33.935  26.050  10.044
20977W        W80480   1.313  44.810  14.819
20978W        W80481  16.642  25.482  11.414
20979W        W80482  18.160   8.710  11.426
20980W        W80483  20.611  30.595   1.384
20981W        W80484  42.440  12.843  10.602
20982W        W80485   1.750  32.597   4.233
20983W        W80486  14.803  10.744  14.364
20984W        W80487  34.589  38.002   2.710
20985W        W80488   6.862   4.836  14.954
20986W        W80489   9.375   4.795   4.189
20987W        W80490  35.416  43.371   1.408
20988W        W80491  40.052  14.646   1.312
20989W        W80492   0.269   9.232  14.833
20990W        W80493  28.502   6.419   3.748
20991W        W80494  30.998  35.522   4.687
20992W        W80495   5.287   6.692   4.245
20993W        W80496   8.379   3.261   2.869
20994W        W80497  33.938  29.142  12.514
20995W        W80498  42.862  19.622   3.352
20996W        W80499  22.704  18.127   1.820
20997W        W80500  32.085  26.628   1.212
20998W        W80501  16.277  43.837  12.434
20999W        W80502  23.698   2.256   0.314
21000W        W80503  30.565  20.685  12.453
21001W        W80504  15.714  34.369   2.370
21002W        W80505  16.204  13.776   4.813
21003W        W80506   4.899   9.654   1.775
21004W        W80507  30.043  37.977   1.450
21005W        W80508  31.953   3.885   4.283
21006W        W80509  29.948   3.296   3.261
21007W        W80510  32.433  44.847   4.779
21008W        W80511   8.405  36.051   0.875
21009W        W80512  16.594  13.817   3.374
21010W        W80513  21.556   8.175  13.858
21011W        W80514  11.227  39.543  13.982
21012W        W80515  35.431  10.147   1.915
21013W        W80516   6.760  19.678  12.511
21014W        W80517   9.175  12.355  13.963
21015W        W80518  41.903  44.960   1.802
21016W        W80519   5.847  39.915   2.234
21017W        W80520  29.576  24.004   0.841
21018W        W80521  19.748  11.280  11.941
21019W        W80522  21.037   7.737   1.815
21020W        W80523  10.318  18.635  10.907
21021W        W80524   1.400  20.034  14.896
21022W        W80525  30.528   2.312  13.863
21023W        W80526   8.715  23.110  14.797
21024W        W80527  11.365  20.573  13.792
21025W        W80528  10.829  21.055   1.790
21026W        W80529  26.992  19.165  10.586
21027W        W80530   0.260  41.418   0.435
21028W        W80531   3.392  26.149  12.408
21029W        W80532  42.474  41.354  12.386
21030W        W80533  17.182  16.171  14.361
21031W        W80534   1.390   4.384  11.114
21032W        W80535  41.870   8.886   5.256
21033W        W80536   9.806  11.781   4.194
21034W        W80537   9.735  24.230  14.419
21035W        W80538  13.754  39.989  12.506
21036W        W80539  43.831  13.203   3.187
21037W        W80540   5.364  17.117   1.280
21038W        W80541   7.354  32.117  10.916
21039W        W80542  27.530  29.622  14.970
21040W        W80543  36.515  25.206  10.046
21041W        W80544   6.803  24.114  11.441
21042W        W80545  26.528  44.808  14.782
21043W        W80546  13.651   4.428  12.953
21044W        W80547  37.906  10.345  12.411
21045W        W80548  36.537  23.647  14.845
21046W        W80549   7.893  20.743   3.296
21047W        W80550  13.713  18.057   1.312
21048W        W80551  21.526  23.609  12.508
21049W        W80552  40.437  21.665  12.846
21050W        W80553  25.643  44.794   2.251
21051W        W80554  38.505  30.445  11.893
21052W        W80555  12.726  17.075   1.308
21053W        W80556  39.983   4.348   3.664
21054W        W80557  10.835  24.676  14.376
21055W        W80558  19.672  30.014   0.814
21056W        W80559  19.217  15.227   0.434
21057W        W80560  23.066  34.031   4.754
21058W        W80561  10.748  20.085  12.982
21059W        W80562  34.887   2.262  13.333
21060W        W80563  29.633  44.784  10.616
21061W        W80564   9.866  30.488   5.172
21062W        W80565  26.151  38.569  11.484
21063W        W80566  32.897  32.621   4.155
21064W        W80567  36.006   9.645  10.479
21065W        W80568   3.225  40.889  13.030
21066W        W80569   7.795  17.296  13.883
21067W        W80570  36.937  19.667   2.837
21068W        W80571   0.394   9.338   0.328
21069W        W80572  28.042  20.181   2.190
21070W        W80573  26.652  19.229  11.096
21071W        W80574  19.534   3.916   3.758
21072W        W80575  38.076  35.975  10.437
21073W        W80576  17.614  17.207   0.774
21074W        W80577  26.482   5.694   0.434
21075W        W80578  38.449   8.258  11.608
21076W        W80579  12.273  18.616  12.436
21077W        W80580  12.713   5.723   3.312
21078W        W80581  36.944  32.902  14.828
21079W        W80582  28.074  31.484  13.333
21080W        W80583   5.351  21.544   1.713
21081W        W80584  42.913  24.999  12.405
21082W        W80585  27.961  36.467   5.095
21083W        W80586  19.141  36.502  14.311
21084W        W80587  39.822   6.716  11.393
21085W        W80588  28.129  33.917  10.442
21086W        W80589   2.261  18.091   1.449
21087W        W80590  27.666  13.259  10.587
21088W        W80591  23.531  30.097  13.505
21089W        W80592   4.793   0.360   4.669
21090W        W80593  41.967  12.172   0.474
21091W        W80594  42.920  41.032  14.819
21092W        W80595  11.369  30.552  11.021
21093W        W80596  34.548   6.860   2.190
21094W        W80597   0.387   7.704   2.715
21095W        W80598   1.898   3.435   4.793
21096W        W80599  32.009  16.734  11.896
21097W        W80600   7.801  12.638   2.369
21098W        W80601  28.954  10.298  14.838
21099W        W80602   0.483  43.912   3.227
21100W        W80603  25.997  24.653   0.873
21101W        W80604  14.255  38.941   0.825
21102W        W80605  33.393  29.435  10.616
21103W        W80606  27.112  38.878  14.941
21104W        W80607  18.656   1.435  13.938
21105W        W80608  41.375  20.734   0.804
21106W        W80609  34.010   1.406   0.749
21107W        W80610  25.197   8.677   1.734
21108W        W80611  32.124  34.938   2.668
21109W        W80612  14.323  31.046  11.472
21110W        W80613  20.538  32.121   4.828
21111W        W80614  16.576  42.800   4.272
21112W        W80615  32.928   3.887  12.001
21113W        W80616  20.138  15.716   2.784
21114W        W80617   3.724  40.361   0.755
21115W        W80618  39.848  31.452   2.359
21116W        W80619   2.961  24.613   4.665
21117W        W80620   3.278  12.188   1.881
21118W        W80621  30.907   2.890  12.453
21119W        W80622  13.210  43.993   0.815
21120W        W80623  35.029  16.092  13.000
21121W        W80624   3.761  43.429  12.967
21122W        W80625  34.555  31.984  13.546
21123W        W80626  39.979  37.950   0.356
21124W        W80627  43.917   2.791  14.030
21125W        W80628  25.572  12.313  11.945
21126W        W80629  11.245  34.576  12.543
21127W        W80630  36.997  42.033   4.144
21128W        W80631  22.208  34.516  12.042
21129W        W80632   0.850  22.597  12.982
21130W        W80633   0.825  42.012   3.357
21131W        W80634   4.865  37.418   5.260
21132W        W80635  33.990  18.252  11.972
21133W        W80636  26.639  20.212  11.100
21134W        W80637   8.243   4.441  11.982
21135W        W80638  10.307  23.187  10.520
21136W        W80639   1.244  12.335   2.203
21137W        W80640  18.589   6.268  13.422
21138W        W80641  18.175  26.014   2.831
21139W        W80642  20.040   5.712  13.884
21140W        W80643   6.315   8.296  11.590
21141W        W80644  36.021   0.394   2.738
21142W        W80645  22.733  42.031  12.520
21143W        W80646   8.207  38.552   3.637
21144W        W80647  35.928  16.283  13.790
21145W        W80648  34.029  17.669  11.608
21146W        W80649  32.443  43.445  14.363
21147W        W80650  23.730  22.647   3.350
21148W        W80651  30.493  33.530   1.745
21149W        W80652   6.346  17.092  14.511
21150W        W80653  19.273  42.310  13.323
21151W        W80654  23.538  35.854  11.999
21152W        W80655  20.149  18.258   4.725
21153W        W80656  27.639  15.186   4.637
21154W        W80657  18.255  19.750  12.939
21155W        W80658  12.842  29.541  10.110
21156W        W80659  44.996  10.659   0.277
21157W        W80660   7.836  25.213  11.121
21158W        W80661  20.665   3.867  11.880
21159W        W80662   7.839  11.281   3.155
21160W        W80663  23.112  27.536  10.888
21161W        W80664  32.012   9.220  10.904
21162W        W80665  29.003  24.218  14.988
21163W        W80666   0.977  40.965  12.390
21164W        W80667  26.615  40.412   0.445
21165W        W80668  34.528  33.382  13.484
21166W        W80669  17.090  39.391   0.351
21167W        W80670   3.439  21.036   3.810
21168W        W80671  22.170  43.326   4.789
21169W        W80672  26.187  11.270   1.381
21170W        W80673  36.847  32.470   2.210
21171W        W80674   8.177  21.537   3.304
21172W        W80675  43.919  34.580   3.343
21173W        W80676   7.239  25.201  14.334
21174W        W80677  11.152  35.110  13.038
21175W        W80678  26.951  15.713  13.307
21176W        W80679  26.124  31.940  12.456
21177W        W80680  33.059  27.458   9.615
21178W        W80681  44.471  17.149  12.859
21179W        W80682  22.665  42.904  10.428
21180W        W80683  12.674  43.515   2.259
21181W        W80684   6.903  34.108  10.531
21182W        W80685  11.157  24.524   4.275
21183W        W80686   8.362  18.144   4.320
21184W        W80687   1.293  15.732  14.795
21185W        W80688   9.352   2.371   1.420
21186W        W80689  15.624  44.389   2.196
21187W        W80690  18.252   2.355  10.608
21188W        W80691  43.462  31.427   1.221
21189W        W80692  14.249  19.171   2.378
21190W        W80693  22.632  20.675   2.762
21191W        W80694  12.804  34.930  11.096
21192W        W80695  40.470  36.574   2.205
21193W        W80696  35.542  20.255  11.506
21194W        W80697  32.906  44.268  12.515
21195W        W80698  21.129  11.729  13.446
21196W        W80699  42.291  11.218   4.149
21197W        W80700   3.422   4.920  13.906
21198W        W80701  19.734  34.516   1.753
21199W        W80702  25.618   0.985   3.325
21200W        W80703  26.978  37.845  11.443
21201W        W80704  15.132  38.467   2.802
21202W        W80705  19.660  23.215  11.072
21203W        W80706  24.140  42.016   3.288
21204W        W80707  30.954  30.990   0.313
21205W        W80708  13.172  40.924  11.424
21206W        W80709  12.232  26.463  14.983
21207W        W80710  21.646   7.762   3.714
21208W        W80711  32.457   1.300   3.338
21209W        W80712  20.147   5.745   2.688
21210W        W80713  36.872   6.367  11.866
21211W        W80714  35.959  41.498   1.762
21212W        W80715  18.209  10.725  10.461
21213W        W80716  20.527   4.933  10.099
21214W        W80717  15.823   4.702  14.814
21215W        W80718  18.246  40.340  12.492
21216W        W80719  25.477  28.088   0.481
21217W        W80720  23.643  23.107  12.534
21218W        W80721   1.363  14.203   3.859
21219W        W80722  19.090  13.318  14.909
21220W        W80723  27.541   3.841  13.391
21221W        W80724  29.947  32.948   1.236
21222W        W80725  26.610  18.671   1.444
21223W        W80726  16.715  11.343   4.123
21224W        W80727   4.424   5.423  13.347
21225W        W80728  23.671   7.347  14.500
21226W        W80729  13.129   0.765   0.424
21227W        W80730   3.230  26.569  10.916
21228W        W80731  44.862  31.645   3.665
21229W        W80732   2.758  32.421  11.055
21230W        W80733  17.279  11.292  12.989
21231W        W80734  13.219   7.178   0.315
21232W        W80735  23.543  24.507  14.853
21233W        W80736  15.136  26.681  12.450
21234W        W80737   1.752  40.320   3.351
21235W        W80738  35.002  26.536  14.831
21236W        W80739  19.249   4.349   3.805
21237W        W80740   0.893  12.154   4.259
21238W        W80741   0.813  10.170   0.814
21239W        W80742  44.843  20.585   1.390
21240W        W80743   6.743  28.020   1.355
21241W        W80744  19.195  14.279  13.016
21242W        W80745  17.135   1.285  10.444
21243W        W80746  28.457  18.170  14.771
21244W        W80747  25.609  38.476   0.898
21245W        W80748  12.249  33.611  13.506
21246W        W80749  36.383   9.232   3.692
21247W        W80750  21.685  29.075   0.435
21248W        W80751  20.672   6.419  10.470
21249W        W80752  39.833  40.351   0.311
21250W        W80753  28.015   5.256   4.348
21251W        W80754  26.003  43.387  10.444
21252W        W80755  29.607  30.636   3.148
21253W        W80756   0.748  24.020   1.445
21254W        W80757  40.536  23.104   0.396
21255W        W80758  19.641  13.330   2.195
21256W        W80759  28.550   8.735  11.947
21257W        W80760  43.462  23.039  11.060
21258W        W80761  22.247   2.777  12.398
21259W        W80762  20.548  42.884  12.948
21260W        W80763  27.983  41.024   0.358
21261W        W80764   8.748  43.450  13.974
21262W        W80765  26.171  12.717   4.709
21263W        W80766  30.575   0.428   2.812
21264W        W80767   5.292  31.432  11.416
21265W        W80768   0.378   8.851   1.443
21266W        W80769  27.993  44.294  14.314
21267W        W80770  36.977   1.921   4.253
21268W        W80771  26.566   4.796  11.505
21269W        W80772   1.290  15.760  10.987
21270W        W80773  27.984  44.849  12.356
21271W        W80774  18.290   1.872  14.975
21272W        W80775  26.690  21.174   2.337
21273W        W80776  39.831  43.893   0.905
21274W        W80777  31.525  30.115  12.021
21275W        W80778  41.452   7.298   4.681
21276W        W80779  26.633  30.502  13.008
21277W        W80780  26.959   3.711   4.184
21278W        W80781  44.952   6.288   0.787
21279W        W80782   9.880  28.446  14.314
21280W        W80783  14.623  27.456  14.296
21281W        W80784   0.392  34.869  10.916
21282W        W80785   0.303  13.194   0.391
21283W        W80786  40.511  10.716  13.861
21284W        W80787  41.439  37.935   1.315
21285W        W80788  36.429  11.716  13.385
21286W        W80789  21.642  32.048  13.933
21287W        W80790  30.977  32.591  13.803
21288W        W80791  13.171  16.726  14.475
21289W        W80792  11.251  34.100  13.510
21290W        W80793  40.310  26.099  12.466
21291W        W80794   9.650  26.024  10.897
21292W        W80795  35.565   9.168  13.885
21293W        W80796  34.115  13.820   4.322
21294W        W80797   2.232  15.186   3.792
21295W        W80798  39.010  31.524  13.460
21296W        W80799   3.754  13.261  13.511
21297W        W80800  17.598   5.793  14.457
21298W        W80801  14.668  23.237  12.411
21299W        W80802  26.043  19.646  13.499
21300W        W80803  35.953   1.303  14.429
21301W        W80804  43.433  32.110   5.180
21302W        W80805   7.764  40.533  13.472
21303W        W80806   4.782  29.138   4.283
21304W        W80807  37.964   9.357   4.686
21305W        W80808  29.546  23.492  11.944
21306W        W80809  22.734   0.420  14.791
21307W        W80810   5.433   1.340   4.682
21308W        W80811  28.182  44.993  11.444
21309W        W80812   1.291  38.511  10.420
21310W        W80813  32.068  14.690   2.787
21311W        W80814  34.465   2.449  14.988
21312W        W80815  31.633   5.808  12.023
21313W        W80816  44.781  44.426  11.966
21314W        W80817   7.877  10.719   0.451
21315W        W80818  13.209  39.404   1.414
21316W        W80819  14.732  10.877   4.689
21317W        W80820  44.815   9.298   0.903
21318W        W80821  18.609  37.896  14.364
21319W        W80822  24.982   1.481   2.711
21320W        W80823  44.446  23.684  11.530
21321W        W80824  30.523   8.313  11.526
21322W        W80825  29.055  32.537   0.749
21323W        W80826  28.640  40.962  14.989
21324W        W80827  28.149  17.717   1.314
21325W        W80828  43.962   6.397   0.338
21326W        W80829  15.785  17.713  12.085
21327W        W80830  39.951  19.126   4.171
21328W        W80831  33.393  23.237   1.703
21329W        W80832  23.128  44.797   4.802
21330W        W80833   1.451  21.710  11.398
21331W        W80834  22.120  12.162  14.941
21332W        W80835  35.557   4.420  11.879
21333W        W80836  40.964   1.945  14.950
21334W        W80837   2.257   2.852   4.620
21335W        W80838  32.415  22.209   3.816
21336W        W80839  29.593  22.562   3.251
21337W        W80840  43.998  17.278   0.480
21338W        W80841  35.050  41.026   1.296
21339W        W80842  37.456  30.464  13.512
21340W        W80843  39.368  11.150  14.868
21341W        W80844  21.733  16.587   0.466
21342W        W80845  22.089  44.857  10.544
21343W        W80846  22.139  11.802   2.264
21344W        W80847  18.671   4.725  12.556
21345W        W80848  44.862   0.871   1.713
21346W        W80849  41.815   5.733  14.490
21347W        W80850  23.076  38.825  12.943
21348W        W80851  35.047  42.778   4.290
21349W        W80852  32.486  23.039  10.898
21350W        W80853  39.446  35.397   0.379
21351W        W80854  28.551   6.710  11.074
21352W        W80855  26.087   2.442  14.020
21353W        W80856  14.796  24.221   2.346
21354W        W80857  32.521  23.703  11.603
21355W        W80858  28.997  33.019  13.476
21356W        W80859  24.022  18.779  10.583
21357W        W80860  10.275   3.873   4.607
21358W        W80861  28.101   3.217  13.357
21359W        W80862  17.305  22.674  14.360
21360W        W80863  33.482  17.103   4.796
21361W        W80864  36.963  42.502   2.814
21362W        W80865   3.244  11.185   0.376
21363W        W80866  15.310   5.716  13.046
21364W        W80867  10.258  25.598  13.382
21365W        W80868  17.595   6.277   4.231
21366W        W80869  18.123  43.929   2.316
21367W        W80870   5.235  19.565  11.971
21368W        W80871  29.460  11.820   2.326
21369W        W80872   7.743   8.183   2.309
21370W        W80873  43.919  12.267   0.799
21371W        W80874  31.508  29.132  13.062
21372W        W80875  42.370  30.988   2.691
21373W        W80876  20.259  34.024   2.348
21374W        W80877  42.788  32.431  13.378
21375W        W80878  28.582  12.754   0.417
21376W        W80879  34.497  44.884  13.503
21377W        W80880  20.565  33.892   2.280
21378W        W80881  17.583   1.950   1.239
21379W        W80882  28.105  28.603   9.453
21380W        W80883   9.332  44.497   3.801
21381W        W80884   0.330  30.001  11.863
21382W        W80885  23.218  34.882  13.825
21383W        W80886   6.221  40.441   0.855
21384W        W80887  14.788  28.662  12.931
21385W        W80888   6.336  23.221   0.864
21386W        W80889  38.478  16.264  13.432
21387W        W80890   5.788  35.058  10.937
21388W        W80891  28.613  41.800   1.298
21389W        W80892  33.623  15.631   0.785
21390W        W80893  35.488   4.752   2.889
21391W        W80894  12.266   4.259   0.404
21392W        W80895   6.428  30.502  10.541
21393W        W80896  14.147   4.738   4.684
21394W        W80897  25.003  27.497  11.409
21395W        W80898  44.786   1.303   0.794
21396W        W80899  10.146  32.033  11.957
21397W        W80900  23.563  23.006  13.933
21398W        W80901   2.259  37.559   4.179
21399W        W80902  23.043  22.563   3.717
21400W        W80903   2.465  31.512  13.471
21401W        W80904  28.568   3.842  14.473
21402W        W80905  41.017  38.965   0.254
21403W        W80906  21.035   1.810   0.426
21404W        W80907  28.964  43.869  11.096
21405W        W80908  34.521  20.264  10.443
21406W        W80909  12.151  38.471  13.365
21407W        W80910  43.855  42.390   2.213
21408W        W80911  31.044  41.786   4.816
21409W        W80912  34.613  23.049  11.003
21410W        W80913   4.895  35.936  14.781
21411W        W80914  19.619  21.252  13.047
21412W        W80915  41.957   6.860  12.044
21413W        W80916  28.036  40.356   3.274
21414W        W80917  31.439   6.865  12.402
21415W        W80918   3.833  20.761  11.030
21416W        W80919  17.698  16.280  14.856
21417W        W80920  35.008   4.840  11.970
21418W        W80921  38.864  44.425   1.797
21419W        W80922   0.465  31.046  13.044
21420W        W80923   6.255  39.319   3.851
21421W        W80924  20.269  43.848   1.213
21422W        W80925  15.119  20.768   3.170
21423W        W80926  16.572  33.564   1.858
21424W        W80927  37.546  42.410   3.764
21425W        W80928  31.991  35.976   5.662
21426W        W80929  25.630  35.957   5.097
21427W        W80930   9.779   0.759  12.855
21428W        W80931  22.566  30.636   0.928
21429W        W80932  16.104  32.595   4.644
21430W        W80933   9.358  23.558   3.725
21431W        W80934   8.352   6.403  14.903
21432W        W80935  41.849  27.129   2.208
21433W        W80936  25.145   9.776   2.890
21434W        W80937  17.749  38.520  14.515
21435W        W80938  16.781  13.667   2.195
21436W        W80939  32.537  19.682   3.346
21437W        W80940   0.479  18.152   4.779
21438W        W80941  29.172  28.112  12.464
21439W        W80942  40.433  18.291  14.463
21440W        W80943  43.365  21.691   1.358
21441W        W80944  37.005  44.996   3.257
21442W        W80945  38.067  34.480   0.799
21443W        W80946  44.353  18.144  13.826
21444W        W80947  26.532  30.551  11.436
21445W        W80948  16.704  35.472  14.814
21446W        W80949  28.099  24.197  12.041
21447W        W80950  21.193  43.804   3.704
21448W        W80951  31.925  43.485  11.096
21449W        W80952   4.780  15.624  12.506
21450W        W80953  15.637  43.395  11.978
21451W        W80954  43.861  37.925  10.542
21452W        W80955  19.686  20.101  11.121
21453W        W80956  20.126  10.710  11.069
21454W        W80957   3.900  33.951  13.831
21455W        W80958   0.475  23.704   3.351
21456W        W80959   5.287  11.235  12.003
21457W        W80960   5.904  26.014  12.374
21458W        W80961  10.715   4.834   3.272
21459W        W80962  31.984  22.715   0.963
21460W        W80963   0.424  20.225   3.182
21461W        W80964  36.495  33.044   2.750
21462W        W80965   0.763  28.612   0.874
21463W        W80966   2.722   3.262  11.401
21464W        W80967  36.016  26.519  14.995
21465W        W80968   5.412  10.213  12.415
21466W        W80969   6.747  10.668   3.220
21467W        W80970  42.933  11.751  13.945
21468W        W80971   8.853  30.096  14.917
21469W        W80972  42.022  38.519   2.258
21470W        W80973   9.338  30.556   0.375
21471W        W80974  41.294  16.303  13.877
21472W        W80975  21.700   6.427   2.894
21473W        W80976  27.507  40.946  11.999
21474W        W80977  17.657   2.937  14.821
21475W        W80978  33.023  16.648   0.431
21476W        W80979   4.889  10.741   4.838
21477W        W80980   6.732  30.650  14.381
21478W        W80981  37.339   2.837  12.355
21479W        W80982  17.610   7.885   4.307
21480W        W80983   9.348  14.233  14.001
21481W        W80984  33.569   8.228   4.344
21482W        W80985  41.472  27.617  12.473
21483W        W80986  12.351  35.912   3.185
21484W        W80987  28.633  25.077   0.786
21485W        W80988   6.384  12.724  14.344
21486W        W80989   8.836  30.419   3.857
21487W        W80990  14.619  12.704   1.732
21488W        W80991  43.283  29.647  11.504
21489W        W80992  18.059  42.500   3.384
21490W        W80993  27.975   2.237   4.304
21491W        W80994  37.500  42.527   1.888
21492W        W80995  19.533  37.937  11.042
21493W        W80996   7.741   6.239  10.439
21494W        W80997  22.621  22.602  11.116
21495W        W80998  30.939  36.906   3.367
21496W        W80999  31.632   0.933   3.787
21497W        W81000  16.307  37.024  10.918
21498W        W81001  31.941  28.120   1.355
21499W        W81002   7.389  35.904  14.284
21500W        W81003  42.019  43.439  10.555
21501W        W81004  42.004  19.241   4.128
21502W        W81005  21.091  26.180   3.745
21503W        W81006  38.991  11.166  12.498
21504W        W81007  36.842   7.414  10.460
21505W        W81008  39.002   6.238  13.955
21506W        W81009  31.447  19.257  12.011
21507W        W81010  21.091  20.636   2.220
21508W        W81011  22.586  15.296  12.461
21509W        W81012  15.128   2.291   2.246
21510W        W81013   1.393  32.564  11.378
21511W        W81014  44.396  39.440   3.331
21512W        W81015  34.382  30.485   1.252
21513W        W81016  25.071  17.222   3.669
21514W        W81017  22.672  22.172   4.739
21515W        W81018   2.445   8.385  11.442
21516W        W81019  39.982  30.035   0.884
21517W        W81020  13.140  20.688  10.566
21518W        W81021   1.756  44.933   4.354
21519W        W81022  15.121   9.888   0.476
21520W        W81023  12.253  39.342   2.851
21521W        W81024  33.487   7.760  13.430
21522W        W81025   7.237  31.999   4.316
21523W        W81026  27.949  33.599   3.233
21524W        W81027  28.595  21.700   4.208
21525W        W81028   9.818  18.615   3.684
21526W        W81029  26.016  22.126   2.733
21527W        W81030   9.314  43.967  13.030
21528W        W81031  18.628   0.811  12.429
21529W        W81032  23.994  40.839   1.239
21530W        W81033  34.594  24.722  12.872
21531W        W81034  10.375  20.725  14.499
21532W        W81035  11.756  36.910   3.293
21533W        W81036  34.492  18.731  13.030
21534W        W81037  34.467   5.757  12.408
21535W        W81038  37.457   7.292  12.533
21536W        W81039  37.476   7.738  12.530
21537W        W81040  16.154  21.088   4.301
21538W        W81041  24.524  41.431  11.958
21539W        W81042  23.191  39.402  13.856
21540W        W81043  39.063  21.571   4.820
21541W        W81044   7.900  32.885  12.924
21542W        W81045  28.656  15.246   0.320
21543W        W81046  17.658  37.456   3.322
21544W        W81047  31.495  18.750  14.390
21545W        W81048   5.867  25.194  13.342
21546W        W81049  16.663  16.164  13.917
21547W        W81050   1.971   3.225   1.697
21548W        W81051  33.042   6.306  12.451
21549W        W81052  15.640  33.878  13.441
21550W        W81053  41.011  31.085  14.934
21551W        W81054  20.053  34.561  13.425
21552W        W81055  16.779   1.947   4.702
21553W        W81056   7.682  17.065   1.882
21554W        W81057  37.390   3.347   1.220
21555W        W81058  33.011  41.507   0.764
21556W        W81059  16.788  18.623  11.597
21557W        W81060  43.438  14.303  13.799
21558W        W81061  43.480   2.361   2.831
21559W        W81062  37.528  27.635   0.435
21560W        W81063  30.120  19.737  10.637
21561W        W81064   7.237   8.769  14.011
21562W        W81065   5.381  28.008   4.139
21563W        W81066   2.371  39.483   0.925
21564W        W81067  26.051  28.184   4.598
21565W        W81068  27.975  10.204  13.453
21566W        W81069  25.187   4.387  12.450
21567W        W81070   8.364  31.135   3.214
21568W        W81071  33.410   6.873   4.296
21569W        W81072  38.376  17.696   1.746
21570W        W81073  25.616   8.218  13.943
21571W        W81074  28.499  20.100  11.964
21572W        W81075  13.776   3.952   3.752
21573W        W81076  37.887  22.184   2.724
21574W        W81077  34.450   9.329   0.797
21575W        W81078  30.468  15.315  12.894
21576W        W81079  19.605   5.905   4.309
21577W        W81080  27.483  30.562  12.372
21578W        W81081  15.294  31.090  11.588
21579W        W81082  34.590  13.695   2.885
21580W        W81083  21.156  21.640  12.568
21581W        W81084  34.059   3.834  14.411
21582W        W81085  21.249   7.352   1.923
21583W        W81086  24.176  15.803   3.152
21584W        W81087  38.335  40.446  14.305
21585W        W81088  37.895  27.135  11.538
21586W        W81089  30.637  25.698   0.395
21587W        W81090  28.032  10.298   0.777
21588W        W81091  43.463  31.118   4.196
21589W        W81092  40.840  38.514   2.272
21590W        W81093  41.791  35.447  11.006
21591W        W81094  24.664  44.887   2.888
21592W        W81095  30.043  44.283   4.194
21593W        W81096  43.985   4.370   3.828
21594W        W81097  14.302  19.121  10.990
21595W        W81098  44.374  20.254   0.906
21596W        W81099   1.893  33.054   1.906
21597W        W81100  27.525  30.612  12.826
21598W        W81101  17.653  13.133  14.969
21599W        W81102  10.713  26.522  11.981
21600W        W81103  19.127   1.415   4.833
21601W        W81104   1.939  33.564  12.526
21602W        W81105  24.504  30.028  12.919
21603W        W81106  43.309   5.225   0.317
21604W        W81107  33.534  39.959  12.542
21605W        W81108  44.357  28.646  10.565
21606W        W81109  16.163  39.045  14.307
21607W        W81110  26.008  25.512  14.332
21608W        W81111  42.924  41.505  12.039
21609W        W81112   4.779  11.371   3.371
21610W        W81113  32.977  36.053  11.899
21611W        W81114   2.928  37.866  13.003
21612W        W81115  33.556  14.336   1.411
21613W        W81116  42.896  25.478   3.185
21614W        W81117  14.677   8.878   1.868
21615W        W81118   0.860  20.695   1.857
21616W        W81119  38.066  40.957  14.420
21617W        W81120  27.492   9.854   2.756
21618W        W81121   9.345  10.762  12.857
21619W        W81122   7.897   0.743   2.265
21620W        W81123  38.968   3.356  10.435
21621W        W81124   7.780  37.435   0.901
21622W        W81125  14.691  39.884   2.671
21623W        W81126  39.849  22.673   3.235
21624W        W81127  23.650  13.820  12.547
21625W        W81128  18.762  26.559  14.475
21626W        W81129   8.843   1.968  11.961
21627W        W81130  39.407  41.511  12.973
21628W        W81131   3.901  20.558   2.297
21629W        W81132  10.171  40.011  10.596
21630W        W81133  38.383   8.680  11.122
21631W        W81134  11.686  37.373   3.729
21632W        W81135   0.826   6.306   5.215
21633W        W81136  12.328   7.274  13.836
21634W        W81137  34.460  11.239   0.801
21635W        W81138  13.669  28.030  12.578
21636W        W81139   5.804  33.442   4.801
21637W        W81140  44.999  16.280  10.441
21638W        W81141  42.777  43.940   2.765
21639W        W81142  30.428  27.999  14.477
21640W        W81143  17.786  37.517   0.465
21641W        W81144   5.412  35.423  14.415
21642W        W81145  44.888   8.371   0.340
21643W        W81146   1.437  19.770   1.779
21644W        W81147  12.665  21.027  11.109
21645W        W81148  36.539  20.087  11.890
21646W        W81149  20.534  15.227   2.770
21647W        W81150   9.198  33.457   1.886
21648W        W81151  18.251   7.726  14.927
21649W        W81152  27.547  42.432   2.753
21650W        W81153  15.242  41.879   3.741
21651W        W81154   7.707  41.473   4.285
21652W        W81155  41.904  31.140  12.024
21653W        W81156  25.048  14.101   1.762
21654W        W81157  22.552  35.373  11.561
21655W        W81158  25.675  38.990  14.474
21656W        W81159  29.466  44.347  11.576
21657W        W81160   2.807  29.660   0.460
21658W        W81161  35.961  36.957  13.518
21659W        W81162  33.490   5.439   0.458
21660W        W81163  21.172   8.316  13.426
21661W        W81164  27.601  18.766  12.452
21662W        W81165  43.371  28.971  14.275
21663W        W81166  42.354  20.592   3.269
21664W        W81167   5.205   0.960   2.218
21665W        W81168  29.649  34.416   9.983
21666W        W81169  27.476  12.703   4.213
21667W        W81170  12.749   3.308   3.787
21668W        W81171  19.043  35.503   2.859
21669W        W81172  29.551  16.243   1.371
21670W        W81173   3.377  36.010  12.452
21671W        W81174  31.959  10.694  14.417
21672W        W81175  16.156   5.247   4.817
21673W        W81176  43.819  23.547  13.007
21674W        W81177   6.684  19.665   1.815
21675W        W81178  42.342   1.272   2.786
21676W        W81179  32.105   5.285   4.148
21677W        W81180  29.965  12.643   1.256
21678W        W81181  27.965  20.756  10.421
21679W        W81182  14.204  28.135  12.513
21680W        W81183   5.414  15.323   4.793
21681W        W81184   6.377  42.353   2.377
21682W        W81185  42.012  32.901   1.402
21683W        W81186  42.463  23.140   3.163
21684W        W81187  39.988   0.409  13.026
21685W        W81188  20.700  10.279  10.441
21686W        W81189  35.866  19.578  12.046
21687W        W81190  33.564   2.744   2.728
21688W        W81191  41.881  15.648  12.569
21689W        W81192  13.294   1.446  13.034
21690W        W81193  37.850   1.335   2.379
21691W        W81194  35.448  17.619   1.850
21692W        W81195  43.343   3.806   0.898
21693W        W81196  31.030  21.644  12.032
21694W        W81197  32.538   9.161   2.275
21695W        W81198  18.573  24.641  11.888
21696W        W81199  26.094   7.377  13.985
21697W        W81200  19.769  27.062   1.274
21698W        W81201  22.033   2.399   1.694
21699W        W81202  19.689  20.088  14.804
21700W        W81203  17.298   7.394  12.002
21701W        W81204   0.372  17.575   0.828
21702W        W81205  16.149  30.098   4.605
21703W        W81206  44.384  34.898  10.457
21704W        W81207  12.643  30.490  11.957
21705W        W81208   2.359   2.328  13.952
21706W        W81209  44.327   4.900  11.934
21707W        W81210  22.718  13.816  14.516
21708W        W81211   8.697  20.615  11.915
21709W        W81212  44.434  42.781   1.252
21710W        W81213  22.244  29.660  14.858
21711W        W81214  33.917  38.431   0.306
21712W        W81215  39.828  14.673  12.079
21713W        W81216   0.947  20.213  14.946
21714W        W81217   5.691   4.349   4.641
21715W        W81218  41.294  10.808   1.744
21716W        W81219  43.782  25.486  11.071
21717W        W81220  28.093  25.665  11.576
21718W        W81221  21.651  41.453   1.295
21719W        W81222  17.754   3.422   2.879
21720W        W81223  24.042  29.104  11.588
21721W        W81224  40.352  43.284   2.877
21722W        W81225   0.357  11.858   4.615
21723W        W81226  13.316   3.286   4.114
21724W        W81227  36.410  32.095   4.804
21725W        W81228  19.547  30.975   4.706
21726W        W81229  27.110  21.612   1.262
21727W        W81230   0.487  27.522  13.531
21728W        W81231  32.472  34.417   4.172
21729W        W81232   3.869  35.471   0.766
21730W        W81233  11.680   4.734  13.980
21731W        W81234  20.598  39.009   3.794
21732W        W81235   6.232  35.009  11.905
21733W        W81236  38.571   4.927   3.283
21734W        W81237  41.815  14.642  13.814
21735W        W81238  28.453  20.717  11.553
21736W        W81239  38.333  40.011  12.353
21737W        W81240  33.926   3.300   2.398
21738W        W81241   5.194   6.368   2.329
21739W        W81242  24.658  29.595  10.618
21740W        W81243  37.866  34.412  12.837
21741W        W81244   3.943  38.479  14.852
21742W        W81245   6.788  35.441  14.949
21743W        W81246   4.271  18.194   2.728
21744W        W81247   0.773  23.191  12.904
21745W        W81248  33.053  27.188   2.239
21746W        W81249  39.918   1.755   3.305
21747W        W81250  15.750  37.960  10.578
21748W        W81251  39.999  10.213   3.288
21749W        W81252  33.888  37.017   1.851
21750W        W81253  17.560  17.798   0.747
21751W        W81254  25.143  35.083  11.521
21752W        W81255  10.333  18.243   1.446
21753W        W81256   6.297  44.395  14.804
21754W        W81257  44.473  38.052  13.001
21755W        W81258  14.834  44.293   0.886
21756W        W81259  20.659   1.315   0.364
21757W        W81260  15.688  31.033  13.330
21758W        W81261  20.146  37.000   0.315
21759W        W81262   0.892  37.494  13.350
21760W        W81263  38.055   0.426  10.951
21761W        W81264  14.824  41.988  11.000
21762W        W81265   4.327  22.025   0.867
21763W        W81266  10.236   6.333  12.400
21764W        W81267  28.132  20.184  10.896
21765W        W81268   0.453  22.029   5.283
21766W        W81269  20.225   0.294  11.110
21767W        W81270  22.508  23.027  11.944
21768W        W81271  44.923   5.708   2.269
21769W        W81272  21.112   4.429  12.910
21770W        W81273  32.421  42.361   1.369
21771W        W81274  22.559  44.851  13.482
21772W        W81275   9.203  25.979  11.083
21773W        W81276  25.205  22.030   2.222
21774W        W81277  43.002   0.973  14.952
21775W        W81278   9.668  29.070   4.250
21776W        W81279  14.641  40.847  13.340
21777W        W81280  23.666  29.127  12.437
21778W        W81281  12.792  10.229   3.249
21779W        W81282   9.154  11.737   0.963
21780W        W81283  32.584  30.618   3.678
21781W        W81284  15.251  27.522   4.145
21782W        W81285  10.666  40.878  13.801
21783W        W81286  32.393  18.690   4.724
21784W        W81287  19.184  14.717  10.551
21785W        W81288  15.126   5.857   1.897
21786W        W81289  44.954  21.037   2.187
21787W        W81290  28.101  11.219  13.384
21788W        W81291  34.002  35.053   4.700
21789W        W81292   4.444  13.838   1.889
21790W        W81293  30.485   9.707   0.858
21791W        W81294  19.133  38.900   0.920
21792W        W81295  44.302  21.204  12.524
21793W        W81296  36.922  36.450  13.502
21794W        W81297  31.050  16.589   2.796
21795W        W81298   2.461  21.031   0.362
21796W        W81299  19.776  40.410   0.930
21797W        W81300  19.670  17.746  11.077
21798W        W81301  41.297  17.606   2.192
21799W        W81302   8.175  43.386  12.570
21800W        W81303   7.234  13.764   3.291
21801W        W81304  31.585  31.053   2.212
21802W        W81305  44.350  24.227  12.420
21803W        W81306  15.596  29.465  13.383
21804W        W81307   7.794   5.303   4.140
21805W        W81308  15.182  31.026   4.773
21806W        W81309  20.638  28.114  11.400
21807W        W81310  15.275  37.911  13.478
21808W        W81311  22.997  36.076   1.347
21809W        W81312  26.056  27.949  12.405
21810W        W81313  28.091  31.527   0.376
21811W        W81314  26.133  22.017   3.866
21812W        W81315   8.799  43.331  13.310
21813W        W81316   4.300  22.105   2.841
21814W        W81317  32.007  35.045   4.128
21815W        W81318   4.900  14.189   1.854
21816W        W81319  38.932  25.994  12.560
21817W        W81320  36.450   7.777  11.975
21818W        W81321   2.451  12.152  10.512
21819W        W81322  37.437  33.055   1.705
21820W        W81323  13.130   5.841  11.437
21821W        W81324   4.797  42.963  10.432
21822W        W81325  28.638  40.944  13.326
21823W        W81326  10.850  38.463   3.231
21824W        W81327  28.510  18.786   0.413
21825W        W81328  28.647  41.888  12.343
21826W        W81329  11.799   5.367   1.808
21827W        W81330  29.960  18.651   0.292
21828W        W81331  35.002  19.244   4.301
21829W        W81332   7.820   9.887   4.608
21830W        W81333  30.056  25.623   5.625
21831W        W81334  37.365   8.694  13.876
21832W        W81335  29.007   8.715   0.324
21833W        W81336  27.058   0.909  10.949
21834W        W81337  13.169   8.352   2.253
21835W        W81338  36.067  37.345   4.748
21836W        W81339   8.264  12.774   4.734
21837W        W81340  12.254   4.375   4.332
21838W        W81341  13.680  14.289  14.973
21839W        W81342  21.563  10.319  11.986
21840W        W81343   8.658  26.209   3.295
21841W        W81344   5.347  22.579   9.959
21842W        W81345  24.086   9.246  12.011
21843W        W81346  34.407  26.135  14.459
21844W        W81347  31.515  12.346   5.584
21845W        W81348  43.361  36.998  14.307
21846W        W81349   2.768  40.350  13.803
21847W        W81350  28.108  14.211   0.773
21848W        W81351   5.246  38.495  11.994
21849W        W81352   1.824  33.384   3.369
21850W        W81353  22.637  33.069   2.291
21851W        W81354  14.791   9.868  13.453
21852W        W81355  17.085  32.137   0.420
21853W        W81356  35.576  10.335   2.696
21854W        W81357   9.255  38.498   0.796
21855W        W81358  34.001   3.838   1.720
21856W        W81359  14.663  41.885  14.335
21857W        W81360  41.404   2.322  11.114
21858W        W81361  20.592   6.813   3.669
21859W        W81362  31.042  25.553  14.945
21860W        W81363   5.385  30.644   1.439
21861W        W81364  33.503  27.488   2.864
21862W        W81365  11.152  44.494  10.921
21863W        W81366   3.725  22.668   1.295
21864W        W81367   2.240  21.611   4.599
21865W        W81368  42.304  41.789   0.424
21866W        W81369  34.450  30.096  10.632
21867W        W81370  38.442  27.448   0.286
21868W        W81371  30.158  34.975  12.061
21869W        W81372  44.963   7.271   4.617
21870W        W81373  44.893   1.951  11.904
21871W        W81374  23.679  40.453   0.852
21872W        W81375   3.259  29.923  10.939
21873W        W81376  23.085  30.620  10.536
21874W        W81377  16.672  21.553   0.872
21875W        W81378  35.049   1.869   2.717
21876W        W81379  37.925   0.393  12.075
21877W        W81380   0.358   7.763   4.696
21878W        W81381   1.415  40.410  13.055
21879W        W81382   1.741  15.084  14.777
21880W        W81383  36.484  27.580  13.544
21881W        W81384  37.993  11.848  11.953
21882W        W81385  33.425  33.587   1.295
21883W        W81386   6.878   3.859  14.935
21884W        W81387  28.492   8.731   3.787
21885W        W81388  10.282  19.043  10.642
21886W        W81389  24.629  34.874  10.980
21887W        W81390   1.780  12.195   2.836
21888W        W81391   5.779  34.568  14.783
21889W        W81392  37.040  42.501   3.798
21890W        W81393  21.642   4.215   2.730
21891W        W81394  33.037  25.625   0.391
21892W        W81395   9.304  27.639  13.496
21893W        W81396  33.020  44.862  11.038
21894W        W81397  37.524  13.733  11.575
21895W        W81398  16.785  19.592   2.800
21896W        W81399  11.173  31.496  11.563
21897W        W81400  14.209  37.905   3.803
21898W        W81401  33.995  37.084  12.547
21899W        W81402  16.310  32.925  14.986
21900W        W81403  31.601   1.930  14.846
21901W        W81404  18.213   1.327  10.500
21902W        W81405  27.578  26.016  10.643
21903W        W81406  34.947   9.203  11.542
21904W        W81407  38.505  37.452  14.462
21905W        W81408  38.006  10.208  11.433
21906W        W81409  13.695  30.139   4.803
21907W        W81410  31.960   1.761   0.385
21908W        W81411  23.111  39.956   4.660
21909W        W81412  39.489   0.279  14.867
21910W        W81413   6.887   3.712   1.292
21911W        W81414  14.630  14.138   4.611
21912W        W81415  32.905  20.217  10.474
21913W        W81416   0.293  14.624  10.952
21914W        W81417  24.083  12.730   1.362
21915W        W81418   1.282   5.419  14.418
21916W        W81419  36.852  26.556   4.224
21917W        W81420  42.886  11.714   3.759
21918W        W81421  40.455  22.650   0.307
21919W        W81422   8.253  34.457  12.092
21920W        W81423   2.789  20.576   5.616
21921W        W81424   9.299  24.622   1.299
21922W        W81425   5.312  23.991  11.974
21923W        W81426   3.224   3.776   1.750
21924W        W81427  43.418  40.513   2.674
21925W        W81428  22.084  12.628   4.310
21926W        W81429  36.948  40.946   2.883
21927W        W81430  14.197   6.774   0.375
21928W        W81431  19.189  32.032  12.481
21929W        W81432  20.033  42.369   0.414
21930W        W81433  20.722   3.744  11.397
21931W        W81434  24.654   4.750   2.822
21932W        W81435  19.268  34.422   0.726
21933W        W81436  23.041   4.292   2.704
21934W        W81437  20.531  30.520   0.445
21935W        W81438  36.386  20.180   3.246
21936W        W81439   1.781  16.574   3.775
21937W        W81440  12.852  39.469  12.345
21938W        W81441  11.271  18.646  11.418
21939W        W81442   4.800  20.100   1.279
21940W        W81443   9.226   4.258  12.897
21941W        W81444  29.159  29.573  11.600
21942W        W81445  37.342  18.683  13.972
21943W        W81446   7.759   3.922  13.432
21944W        W81447  34.975  38.040  14.488
21945W        W81448  22.523  19.113   4.265
21946W        W81449  33.909  26.460  12.083
21947W        W81450  24.991  33.933   4.344
21948W        W81451  35.103  41.346  10.632
21949W        W81452  24.069  22.547  10.596
21950W        W81453   0.759   3.953  11.378
21951W        W81454  43.912   5.299  12.059
21952W        W81455   6.796  33.471  14.002
21953W        W81456  31.909  36.904  13.874
21954W        W81457  18.700   8.777  10.054
21955W        W81458  21.131  33.066  11.590
21956W        W81459   5.300  28.663   1.867
21957W        W81460   2.873  31.988  12.054
21958W        W81461   7.885  41.992   0.896
21959W        W81462  29.989   4.855   3.778
21960W        W81463  36.510  35.991   2.352
21961W        W81464   4.391  28.678   3.679
21962W        W81465  26.960   4.336  12.824
21963W        W81466  37.956  36.940   1.793
21964W        W81467  24.011  30.627   1.219
21965W        W81468  27.676  16.777   3.742
21966W        W81469  44.835   8.747   1.418
21967W        W81470  24.081  12.239   4.213
21968W        W81471  30.452  36.539   1.442
21969W        W81472  21.248  34.580   0.399
21970W        W81473  23.683  38.997  11.873
21971W        W81474  10.842  24.480   4.317
21972W        W81475  27.164  30.442  14.487
21973W        W81476   0.906  41.846   1.911
21974W        W81477  10.819  16.729   3.175
21975W        W81478  22.236  12.326   2.374
21976W        W81479  11.779  18.295  11.555
21977W        W81480  40.932  16.794  13.959
21978W        W81481  26.008  41.304   3.227
21979W        W81482   8.166  24.181   4.670
21980W        W81483  42.489   9.275  11.968
21981W        W81484  25.078   0.292   2.666
21982W        W81485  17.690  12.708  10.964
21983W        W81486  35.009   8.856  14.362
21984W        W81487  13.208   0.344   0.267
21985W        W81488  33.938  21.214  12.892
21986W        W81489  35.415  19.711   3.293
21987W        W81490   4.442  34.011   2.832
21988W        W81491  25.197  37.029   2.261
21989W        W81492  14.165  30.084  14.945
21990W        W81493  16.111  33.509  13.809
21991W        W81494  24.155  25.214   3.361
21992W        W81495   9.367  35.891   5.297
21993W        W81496   4.752   6.301   5.311
21994W        W81497  32.944  19.255   3.361
21995W        W81498   3.856  20.593   1.740
21996W        W81499  41.472  40.482   4.315
21997W        W81500  42.841  11.211  11.480
21998W        W81501  17.225  32.567   3.698
21999W        W81502  26.492  34.387  13.950
22000W        W81503  37.061  43.879  11.874
22001W        W81504   4.380  25.477  14.322
22002W        W81505   1.247  41.490   0.796
22003W        W81506  35.970  17.738   0.271
22004W        W81507  21.035  43.849   2.806
22005W        W81508   4.800  10.370   0.925
22006W        W81509  17.183  39.546  11.054
22007W        W81510  26.181  36.033  12.831
22008W        W81511   8.273   6.280   2.764
22009W        W81512  13.214  16.167  13.910
22010W        W81513  10.666  28.112   1.817
22011W        W81514   2.235  15.272   3.316
22012W        W81515  40.360  26.575   3.345
22013W        W81516  26.635  43.992  14.311
22014W        W81517   3.425  12.636   2.197
22015W        W81518  40.504   8.230   1.826
22016W        W81519  22.680  41.411   1.327
22017W        W81520  23.229  28.186  12.874
22018W        W81521  31.035   4.769   4.790
22019W        W81522   4.443   7.214  11.129
22020W        W81523  44.948   5.211   2.325
22021W        W81524  28.950  36.860  11.922
22022W        W81525  15.204  43.394   2.286
22023W        W81526  23.537  36.423   2.716
22024W        W81527   0.312   2.376  10.483
22025W        W81528  11.718  39.834   0.408
22026W        W81529  27.120  11.293  13.454
22027W        W81530  19.772  22.537  11.050
22028W        W81531  33.578   9.325   1.279
22029W        W81532  42.817  41.875  12.546
22030W        W81533  31.464  44.898   3.686
22031W        W81534  15.314  36.871  13.839
22032W        W81535   8.703  34.545   0.327
22033W        W81536  27.647  20.571   3.656
22034W        W81537  33.004  24.494  11.403
22035W        W81538  24.117   6.676   0.421
22036W        W81539   2.810  30.105   2.761
22037W        W81540   8.311  25.476   0.432
22038W        W81541  22.084   3.286   1.278
22039W        W81542  18.106  14.747  13.994
22040W        W81543   1.865  44.416   1.728
22041W        W81544  37.382   4.367   3.158
22042W        W81545  32.544  15.164  13.819
22043W        W81546  32.471  38.871   5.095
22044W        W81547  15.641   9.331  13.964
22045W        W81548  22.661  33.881   4.827
22046W        W81549  38.899   8.302   1.889
22047W        W81550  25.679  15.677  11.948
22048W        W81551  31.999   9.842  10.521
22049W        W81552  15.594   8.307   3.237
22050W        W81553  16.142  23.680  11.504
22051W        W81554  37.966  34.494  12.477
22052W        W81555  22.124   1.741   0.253
22053W        W81556  17.610  10.642   4.311
22054W        W81557  10.642  22.065  10.890
22055W        W81558  16.678  29.495  13.827
22056W        W81559   4.898  19.604  14.498
22057W        W81560  12.241  39.970   0.772
22058W        W81561  31.127  11.638  11.880
22059W        W81562  20.625  35.903   0.838
22060W        W81563   8.791   7.205  10.558
22061W        W81564   2.471  32.095  10.095
22062W        W81565  31.093   6.223  11.077
22063W        W81566   3.761   1.465   2.395
22064W        W81567  20.703  11.294   0.318
22065W        W81568  29.122  39.053   0.281
22066W        W81569  18.161   8.232  11.397
22067W        W81570  29.502  27.171   0.351
22068W        W81571  14.334   8.846  11.019
22069W        W81572  10.301  26.067  13.499
22070W        W81573  21.055  12.818  10.457
22071W        W81574  16.678  11.326  12.925
22072W        W81575  11.670  29.559   3.757
22073W        W81576  39.359  37.419   3.238
22074W        W81577  14.694   4.926   0.934
22075W        W81578   3.953  31.091  11.113
22076W        W81579  29.492  19.606  14.782
22077W        W81580   3.913  19.110  12.840
22078W        W81581  31.019  24.122  11.922
22079W        W81582  15.707  26.515  14.855
22080W        W81583  19.557   2.921  11.562
22081W        W81584  27.052  39.840  13.950
22082W        W81585  37.907   1.765   4.144
22083W        W81586   7.725   9.737  14.476
22084W        W81587   1.969   0.898   3.368
22085W        W81588   6.408  44.839  11.921
22086W        W81589  34.951  25.965   1.700
22087W        W81590  43.308  21.681   2.679
22088W        W81591  42.799   2.317   2.243
22089W        W81592   7.184  14.757   1.745
22090W        W81593  28.018  10.677  13.850
22091W        W81594  37.994  44.939  12.025
22092W        W81595  26.023  36.460   4.349
22093W        W81596   1.808   9.238  10.908
22094W        W81597  35.385  30.031   2.760
22095W        W81598  14.320  44.399  12.890
22096W        W81599  25.582  20.746  14.501
22097W        W81600  41.371  25.163   1.407
22098W        W81601  43.488  24.693   1.864
22099W        W81602  26.954  18.116  13.032
22100W        W81603  19.183  27.992  11.536
22101W        W81604   1.297  29.491   3.719
22102W        W81605  27.009  10.372  13.502
22103W        W81606  15.587  19.109   1.865
22104W        W81607   2.797   4.840  14.430
22105W        W81608  28.583   6.808   4.203
22106W        W81609  38.940  36.083  13.028
22107W        W81610   4.241   2.341  14.858
22108W        W81611  30.568  32.102   5.298
22109W        W81612  31.047   7.757  13.914
22110W        W81613  15.741   4.814   2.880
22111W        W81614  27.516  39.328   3.373
22112W        W81615  41.527  20.752   2.262
22113W        W81616   9.250   8.706  10.541
22114W        W81617   0.444  43.386   1.850
22115W        W81618   2.358  38.033  12.830
22116W        W81619  35.570  31.007  13.397
22117W        W81620   0.884  19.772   1.809
22118W        W81621  12.767  33.440   0.748
22119W        W81622  15.308  43.999   3.203
22120W        W81623  25.711   6.863  10.896
22121W        W81624  26.959  44.005   2.803
22122W        W81625  32.587   6.223   1.830
22123W        W81626  39.024   9.749  13.047
22124W        W81627   0.874  28.638   0.439
22125W        W81628  32.969  17.718   1.400
22126W        W81629  41.481  24.172   0.910
22127W        W81630  15.153  26.612   2.689
22128W        W81631  42.968  41.293  14.383
22129W        W81632  23.989   2.299   4.633
22130W        W81633   4.722  41.802  11.999
22131W        W81634  38.899  37.478  12.376
22132W        W81635  27.653  33.396  14.378
22133W        W81636  23.135  21.617   3.865
22134W        W81637   8.181  14.152  10.933
22135W        W81638   2.825  15.146   3.694
22136W        W81639  42.415   3.943   4.333
22137W        W81640  27.499  42.359  10.612
22138W        W81641   3.742  17.748   1.742
22139W        W81642  29.429  15.190  13.462
22140W        W81643  34.414  20.053   0.465
22141W        W81644   2.237  14.272  10.080
22142W        W81645  25.508  23.519   5.126
22143W        W81646  15.250   7.281  11.408
22144W        W81647  12.141  43.903   3.723
22145W        W81648   0.436   2.390   3.163
22146W        W81649   5.331  32.980  14.947
22147W        W81650   7.812  18.785  12.037
22148W        W81651  28.457  10.153   4.688
22149W        W81652  16.582  12.713   2.234
22150W        W81653   8.847  13.724   3.762
22151W        W81654   3.760  41.838   2.776
22152W        W81655  34.599  43.881  13.009
22153W        W81656  31.514   2.853  10.509
22154W        W81657  11.349   9.681  12.970
22155W        W81658  28.083  15.746   0.855
22156W        W81659   8.681  28.006   3.336
22157W        W81660  35.089  26.542   0.760
22158W        W81661  24.128  25.112   0.352
22159W        W81662  13.636  43.864  12.491
22160W        W81663  37.542   4.219   2.767
22161W        W81664   3.287  12.623  13.045
22162W        W81665   5.367   4.332   4.219
22163W        W81666  29.534   2.417  13.497
22164W        W81667  15.704   2.804   2.724
22165W        W81668   0.465  28.065  14.822
22166W        W81669  26.533   0.323   0.399
22167W        W81670  21.170   9.177  13.057
22168W        W81671  16.711   2.940  12.850
22169W        W81672  15.184  37.559  13.016
22170W        W81673  14.592   2.246  13.063
22171W        W81674  43.815  30.979  10.940
22172W        W81675  15.711   0.287  14.955
22173W        W81676  10.829   1.855  12.053
22174W        W81677  20.127  15.141  14.986
22175W        W81678  15.107  35.066  10.593
22176W        W81679  26.497  12.772  14.965
22177W        W81680   6.776  10.860  11.953
22178W        W81681   6.754   9.711  10.536
22179W        W81682  19.223  20.634   2.266
22180W        W81683  29.174  14.196  10.006
22181W        W81684  30.592  13.767  12.868
22182W        W81685   8.797  41.816   5.301
22183W        W81686  21.722  18.699  13.503
22184W        W81687  33.513  33.966  12.397
22185W        W81688  19.761  16.298   0.314
22186W        W81689  44.997  27.543   1.316
22187W        W81690  24.713  40.032   2.304
22188W        W81691  30.078  39.518  14.428
22189W        W81692  27.499  32.602   2.415
22190W        W81693  32.114  19.591   3.837
22191W        W81694  24.154  32.499   3.840
22192W        W81695  44.865  17.722  14.409
22193W        W81696  33.454  13.169  11.602
22194W        W81697  25.145  25.052  11.946
22195W        W81698  37.507  39.373  12.529
22196W        W81699  31.007  31.563   1.791
22197W        W81700  12.178  44.897   1.797
22198W        W81701  30.111   0.868  11.068
22199W        W81702  24.487  14.732   1.380
22200W        W81703  15.275   4.937   3.272
22201W        W81704   2.423  44.811   3.729
22202W        W81705  33.126  43.285   2.239
22203W        W81706  38.996  17.143  11.436
22204W        W81707   8.773  18.613  11.897
22205W        W81708  21.149  33.480  10.463
22206W        W81709  10.875  42.939   2.777
22207W        W81710  29.034   3.243   0.893
22208W        W81711  24.575  19.757   4.754
22209W        W81712  18.058  10.318  14.400
22210W        W81713  10.876  13.711   4.191
22211W        W81714  43.299   5.238   1.704
22212W        W81715  31.415  44.307   3.380
22213W        W81716  24.120   9.342   2.871
22214W        W81717  23.654  11.673   2.316
22215W        W81718  18.230  23.608  11.423
22216W        W81719  44.986   6.722  12.930
22217W        W81720  43.371  38.054   2.387
22218W        W81721  27.495  30.422  14.455
22219W        W81722  31.993  22.109   2.790
22220W        W81723  13.141   7.816  10.477
22221W        W81724   8.261  15.666  12.912
22222W        W81725  23.534  34.115  11.987
22223W        W81726  21.683  17.288  13.898
22224W        W81727   0.400  44.422   2.662
22225W        W81728   7.747  13.601   3.688
22226W        W81729  12.362  18.627  11.570
22227W        W81730  11.129  20.180  11.510
22228W        W81731  12.647  15.087  12.067
22229W        W81732  41.372  29.930  12.438
22230W        W81733  31.625  12.613  13.359
22231W        W81734  28.465  36.932   2.701
22232W        W81735  20.655  40.497  13.995
22233W        W81736  21.569  39.935  10.977
22234W        W81737   5.862   1.318   3.827
22235W        W81738  31.583  33.905  13.997
22236W        W81739  41.974   7.252  11.895
22237W        W81740  37.951  41.795  12.900
22238W        W81741  13.127  22.109   1.806
22239W        W81742  35.435   7.251  12.483
22240W        W81743  12.728   9.251   3.818
22241W        W81744   1.366   8.366  10.482
22242W        W81745  32.968   5.895  14.347
22243W        W81746  31.989  22.532  12.934
22244W        W81747  43.301  33.071   2.369
22245W        W81748  36.549  41.852   0.244
22246W        W81749  21.241   3.298  11.576
22247W        W81750  26.597  21.126  11.114
22248W        W81751  23.559  40.862   0.311
22249W        W81752  21.744  33.097  13.835
22250W        W81753  41.910  16.163  13.412
22251W        W81754  28.043  18.704  12.427
22252W        W81755  17.228   8.737   3.296
22253W        W81756  39.960  24.540   0.382
22254W        W81757   0.331   8.764   0.410
22255W        W81758  38.548  41.990  12.451
22256W        W81759  44.881  17.073   4.304
22257W        W81760  41.301  13.237   1.348
22258W        W81761  21.703  39.938  12.998
22259W        W81762  44.835  17.229  14.877
22260W        W81763  42.420  33.005  12.393
22261W        W81764  36.885  43.421   2.277
22262W        W81765  10.315   8.678  13.470
22263W        W81766  25.592  21.159   4.277
22264W        W81767  37.836  27.175  14.440
22265W        W81768  27.605  22.248  13.031
22266W        W81769   1.256  11.648  12.388
22267W        W81770  26.132  11.711   2.684
22268W        W81771   0.965  40.905   4.833
22269W        W81772  27.174  21.135   0.419
22270W        W81773  38.384  43.374  14.426
22271W        W81774   2.276  37.039   4.835
22272W        W81775  31.038  19.648   0.426
22273W        W81776   8.768  40.918   2.896
22274W        W81777  43.829  21.143   5.207
22275W        W81778  12.283  31.115  11.487
22276W        W81779  43.302  30.114  14.478
22277W        W81780  38.036  10.672   3.280
22278W        W81781  16.162  37.957   0.943
22279W        W81782  32.001  39.027  11.517
22280W        W81783  40.047   8.351  14.495
22281W        W81784   6.260   0.942   5.197
22282W        W81785  29.006   2.723   0.891
22283W        W81786  18.694  21.117   3.671
22284W        W81787  10.246  42.891   1.727
22285W        W81788   8.756   0.881   4.333
22286W        W81789  28.518  18.684  11.940
22287W        W81790  37.037   9.210  10.888
22288W        W81791  31.565  34.059   3.302
22289W        W81792  36.036   6.693   1.788
22290W        W81793   5.733  28.541  12.998
22291W        W81794  34.580  15.083  14.875
22292W        W81795  12.853   3.869   2.806
22293W        W81796   1.809   7.710  11.126
22294W        W81797  18.651  33.913   4.283
22295W        W81798  34.514  17.221  13.853
22296W        W81799  23.600  26.071  11.463
22297W        W81800  20.729  24.070  12.510
22298W        W81801  42.014   8.174   3.148
22299W        W81802   9.810  44.448   2.758
22300W        W81803  25.573  24.715  14.473
22301W        W81804  35.456  18.058  14.408
22302W        W81805  26.972   7.364   5.223
22303W        W81806  43.475  32.581   3.179
22304W        W81807  44.404  11.259  13.852
22305W        W81808  12.186   4.211   4.792
22306W        W81809  24.174  39.841   1.787
22307W        W81810  20.582  41.502  11.449
22308W        W81811  26.067  28.175  14.946
22309W        W81812   2.404   0.796  12.381
22310W        W81813  19.651   7.777   0.394
22311W        W81814   7.906  31.972  14.334
22312W        W81815  21.605  15.805   3.786
22313W        W81816  41.531   9.729  14.298
22314W        W81817  16.756   9.756  13.976
22315W        W81818  43.391  22.093  11.050
22316W        W81819  26.623   9.883  10.575
22317W        W81820  12.794  20.720  11.866
22318W        W81821   2.369  19.255   4.149
22319W        W81822   7.349  13.837  13.502
22320W        W81823  18.647  28.170   1.846
22321W        W81824  36.582   7.331  12.344
22322W        W81825  11.145  41.839  10.497
22323W        W81826  44.887   1.775   4.815
22324W        W81827   7.341  42.821   0.857
22325W        W81828  31.117  40.943  14.997
22326W        W81829  43.773  44.461   0.931
22327W        W81830  31.609  18.674  13.349
22328W        W81831  25.567  12.717   4.196
22329W        W81832  32.396  31.097  12.033
22330W        W81833   0.333  35.941   0.855
22331W        W81834  21.645   8.672   3.208
22332W        W81835  10.692  28.589   3.335
22333W        W81836  20.071   3.843   2.411
22334W        W81837   5.823  38.011   0.846
22335W        W81838  21.709  22.713  12.857
22336W        W81839  36.591   7.391  14.414
22337W        W81840  38.015  20.623  11.454
22338W        W81841   3.351  18.199   0.479
22339W        W81842   7.208   3.718   1.879
22340W        W81843  27.020  28.451  10.137
22341W        W81844   0.870  26.025  10.932
22342W        W81845  23.635  27.613   2.311
22343W        W81846  25.219  22.658   3.180
22344W        W81847  37.031  27.449  10.426
22345W        W81848   5.699  43.477   1.364
22346W        W81849  12.723  43.804  14.423
22347W        W81850  43.516   0.806  13.396
22348W        W81851   0.794   3.364  13.348
22349W        W81852   5.692   3.229   4.218
22350W        W81853  29.085  31.931  13.815
22351W        W81854   5.856  24.008   0.250
22352W        W81855  24.981  30.608  13.462
22353W        W81856   3.273  10.317  11.456
22354W        W81857  20.063  31.598   0.740
22355W        W81858   7.178  26.108   1.815
22356W        W81859  36.881  20.640   0.874
22357W        W81860  15.669  13.714   2.295
22358W        W81861  37.465  21.676   2.709
22359W        W81862  39.020  15.308  12.348
22360W        W81863  24.623  10.648   0.927
22361W        W81864  41.497  41.463   0.315
22362W        W81865  22.996  23.533  13.889
22363W        W81866   5.290  14.797   4.338
22364W        W81867   9.338   1.932   1.806
22365W        W81868  41.492  33.400  12.468
22366W        W81869  35.571  17.177   3.641
22367W        W81870  31.433  23.198   1.395
22368W        W81871  10.845  31.899  13.531
22369W        W81872  38.347  10.675  12.467
22370W        W81873  31.932  37.850   2.404
22371W        W81874  44.999  12.766  12.091
22372W        W81875   5.849  14.721   4.739
22373W        W81876   9.160  34.444   0.452
22374W        W81877  10.359  43.835  14.315
22375W        W81878  28.941   2.333   2.735
22376W        W81879   6.192  37.555  11.380
22377W        W81880  19.625  28.066   3.380
22378W        W81881  25.151  12.688   3.356
22379W        W81882   7.336  43.508   3.239
22380W        W81883  42.360   2.956   3.664
22381W        W81884   9.391  16.178   0.916
22382W        W81885  12.293   8.656   0.897
22383W        W81886  27.626  28.952   3.280
22384W        W81887  16.658  21.648  14.380
22385W        W81888   9.815   9.816  10.503
22386W        W81889  15.624  29.645   0.398
22387W        W81890  44.426  39.355  11.074
22388W        W81891  22.192   4.303   1.307
22389W        W81892  25.064  25.190   2.219
22390W        W81893  38.945  44.903   3.379
22391W        W81894  38.351   3.323   0.348
22392W        W81895  38.361  44.418   4.636
22393W        W81896  31.605  21.140   0.829
22394W        W81897  40.891   3.790  11.584
22395W        W81898  23.038  39.428  13.392
22396W        W81899  29.603  24.998   1.314
22397W        W81900  15.106  35.912   1.328
22398W        W81901  41.912  24.012   4.647
22399W        W81902  28.591  22.695  13.528
22400W        W81903  36.487  38.864   5.176
22401W        W81904  31.453   7.795   3.808
22402W        W81905  25.039  27.035  14.976
22403W        W81906  12.118  41.318  13.355
22404W        W81907  21.748  12.267  11.423
22405W        W81908  44.870  22.239   1.733
22406W        W81909  34.060  16.684   3.702
22407W        W81910  32.607  25.625  14.018
22408W        W81911  44.308  25.702   4.137
22409W        W81912   1.368   6.228  13.493
22410W        W81913  35.447  19.671  13.479
22411W        W81914  19.593  19.138  13.311
22412W        W81915  15.752  31.995  12.899
22413W        W81916  43.302   1.748  13.389
22414W        W81917  30.134  23.151  10.423
22415W        W81918  21.650  26.565   1.441
22416W        W81919  22.549   5.878  10.930
22417W        W81920   4.363   7.207   2.201
22418W        W81921  37.422  36.492  11.880
22419W        W81922  35.570  13.160  14.826
22420W        W81923  39.361  29.605  13.314
22421W        W81924   8.881  33.062  10.507
22422W        W81925  18.246  43.976  12.461
22423W        W81926  37.930  41.835   4.169
22424W        W81927   3.270  18.567  13.907
22425W        W81928  12.272  44.286  11.938
22426W        W81929  40.509   7.314   3.176
22427W        W81930  15.761  38.441  13.848
22428W        W81931  32.019  13.329  14.928
22429W        W81932  41.961  31.148  11.060
22430W        W81933  38.538   3.247  11.572
22431W        W81934   8.880  22.665  11.403
22432W        W81935  12.624  30.099   4.204
22433W        W81936  37.844  41.858   1.413
22434W        W81937  18.547  37.574   1.833
22435W        W81938  39.966   2.896   9.955
22436W        W81939  26.039   4.297  11.048
22437W        W81940  21.643  12.704   2.693
22438W        W81941  36.402  13.617  14.923
22439W        W81942  40.372   8.175  12.512
22440W        W81943  20.090  33.962  13.867
22441W        W81944  16.153  14.292  11.518
22442W        W81945  31.455  16.214  14.325
22443W        W81946  18.770   3.391   2.282
22444W        W81947  43.861   8.225   4.278
22445W        W81948  32.102  10.862  11.986
22446W        W81949  22.696  30.970   2.803
22447W        W81950  14.613  34.422   2.739
22448W        W81951   0.758  29.940  14.007
22449W        W81952  38.425  22.220  12.493
22450W        W81953   9.248   4.763   3.711
22451W        W81954  30.009  34.086   1.311
22452W        W81955  17.598  25.701  12.950
22453W        W81956  12.692   3.877   2.316
22454W        W81957   4.720  16.647  13.942
22455W        W81958  19.537  14.793   0.783
22456W        W81959  40.329  28.081   4.327
22457W        W81960  13.296   4.354   1.323
22458W        W81961   9.696   7.789  11.567
22459W        W81962  42.390  42.954  13.910
22460W        W81963   5.399   6.240  11.100
22461W        W81964  29.001   6.402  11.861
22462W        W81965  25.151  22.568  13.326
22463W        W81966  13.326  12.233   1.225
22464W        W81967  17.302   3.385  12.059
22465W        W81968  34.912  18.255  13.538
22466W        W81969  33.055   7.794  12.557
22467W        W81970  25.215   2.269  12.852
22468W        W81971  36.526   8.306   2.725
22469W        W81972  15.787  33.467   4.245
22470W        W81973   6.233  40.484   3.302
22471W        W81974  30.562  25.019  13.374
22472W        W81975  32.517  39.486  12.863
22473W        W81976  19.646  29.648   0.313
22474W        W81977  35.600   9.251  11.513
22475W        W81978  36.510  22.597   3.784
22476W        W81979   8.260   9.356  12.823
22477W        W81980  37.845  13.166  12.859
22478W        W81981   2.952  15.646  10.455
22479W        W81982  30.574  25.096  14.773
22480W        W81983  29.919  36.032   0.395
22481W        W81984   3.838  40.447   3.163
22482W        W81985  38.495  13.783  10.640
22483W        W81986  14.637  30.433   3.735
22484W        W81987  18.709   5.245   0.778
22485W        W81988  18.709  22.694  10.116
22486W        W81989  28.141  24.164  13.442
22487W        W81990  34.905  25.218   1.392
22488W        W81991  39.901   2.458  12.069
22489W        W81992   9.288   2.349   0.783
22490W        W81993  13.290   8.396  14.968
22491W        W81994  31.447   9.247   3.208
22492W        W81995   0.880   7.246  11.371
22493W        W81996  11.356  10.292   0.777
22494W        W81997  33.905  16.277   1.793
22495W        W81998   7.853  34.947  10.467
22496W        W81999  25.217   4.795  14.030
22497W        W82000  17.776  11.334  11.064
22498W        W82001  37.949   7.745   0.292
22499W        W82002  44.885  26.696   3.670
22500W        W82003  10.155  14.750   3.321
22501W        W82004  32.456  37.865   2.357
22502W        W82005  23.720  10.215   3.262
22503W        W82006   9.873  30.600  14.289
22504W        W82007  37.960  39.967  11.598
22505W        W82008   4.773   2.320   0.905
22506W        W82009  42.433  36.492  10.464
22507W        W82010   0.812  33.571   1.808
22508W        W82011  20.151  40.494   1.713
22509W        W82012  26.036   8.765   0.368
22510W        W82013  18.107  29.577  12.884
22511W        W82014  28.592  44.467   3.245
22512W        W82015   9.704  31.456  12.359
22513W        W82016   9.708  23.641  13.797
22514W        W82017  25.000  23.058  11.464
22515W        W82018  20.764  16.673  11.962
22516W        W82019  35.359   0.313  14.995
22517W        W82020  24.559  19.141  10.433
22518W        W82021  34.483  44.816   4.695
22519W        W82022  20.118  40.489   0.350
22520W        W82023   6.323  26.960  12.851
22521W        W82024  40.406  29.022   3.726
22522W        W82025  42.859  22.629  12.989
22523W        W82026  21.543  34.040   2.187
22524W        W82027  15.750  10.223   2.846
22525W        W82028  43.434  31.099   3.182
22526W        W82029  17.159   1.958   3.794
22527W        W82030  15.194   1.921  12.080
22528W        W82031  11.644  44.777   0.271
22529W        W82032  25.013  34.582   1.266
22530W        W82033  33.050  25.095  10.580
22531W        W82034  36.973  24.112   1.694
22532W        W82035  33.482   0.811   1.289
22533W        W82036   6.426  33.411  12.451
22534W        W82037  25.176  35.016  12.537
22535W        W82038  13.696   7.208   2.278
22536W        W82039  22.532   9.870   3.724
22537W        W82040  30.446  11.133   3.801
22538W        W82041  19.181  27.678  13.985
22539W        W82042  14.188  39.005  11.602
22540W        W82043  26.134  39.407  11.515
22541W        W82044  35.877  39.941   0.967
22542W        W82045  37.373  38.406  10.133
22543W        W82046  23.509  32.111   4.177
22544W        W82047  14.230   9.811  13.995
22545W        W82048  16.732   9.881   4.725
22546W        W82049  25.677  26.608   1.350
22547W        W82050  25.518  18.148  13.372
22548W        W82051   6.183  28.943  12.959
22549W        W82052  37.581  17.165  14.515
22550W        W82053  38.396  33.008  14.438
22551W        W82054   8.198  31.424  13.986
22552W        W82055   8.741  23.605   1.353
22553W        W82056  10.357  32.455  11.553
22554W        W82057  36.411  23.172  12.065
22555W        W82058   7.293  18.058  12.057
22556W        W82059  30.448  41.882   3.228
22557W        W82060  35.477   0.827  12.356
22558W        W82061  13.283  26.689   4.822
22559W        W82062  21.677   8.836   4.132
22560W        W82063   1.912   6.730  12.962
22561W        W82064  10.150  20.615  11.533
22562W        W82065  44.975  36.032   3.369
22563W        W82066  35.454  29.659  12.456
22564W        W82067   1.870  27.474  10.146
22565W        W82068  33.119  16.660   1.220
22566W        W82069  10.155   3.402   3.161
22567W        W82070  35.873  36.392  13.388
22568W        W82071  42.511   8.381  14.800
22569W        W82072   1.305   9.812   1.374
22570W        W82073  25.030   7.283   3.377
22571W        W82074  43.482  25.526  10.624
22572W        W82075  31.948  10.809   2.226
22573W        W82076  35.492  13.659   1.705
22574W        W82077  25.617  25.121   4.623
22575W        W82078  20.053  21.745   1.821
22576W        W82079  24.084  20.671   4.730
22577W        W82080  40.807   5.313   0.250
22578W        W82081  36.368   5.783   0.825
22579W        W82082  43.286  12.354  14.390
22580W        W82083  38.494   3.242   1.917
22581W        W82084  17.109  33.588  14.864
22582W        W82085  29.516  14.641  13.916
22583W        W82086  26.683  24.099   2.323
22584W        W82087   3.743   5.336   4.190
22585W        W82088  11.225  32.636  14.277
22586W        W82089  43.506  33.533  10.504
22587W        W82090  36.083  19.588  13.899
22588W        W82091   3.242  35.391   1.832
22589W        W82092  27.577  24.702  11.578
22590W        W82093  27.613  36.479  14.850
22591W        W82094   3.402  41.861   0.832
22592W        W82095  10.224  22.208  12.373
22593W        W82096  27.953  38.567  14.426
22594W        W82097  16.787  41.518   3.703
22595W        W82098   1.798  12.806  14.796
22596W        W82099  41.344  20.182  14.995
22597W        W82100  14.244   4.734   3.195
22598W        W82101  12.693   9.738   3.749
22599W        W82102  18.705  19.679  14.361
22600W        W82103   8.731  21.212   1.368
22601W        W82104  16.742   9.709   0.470
22602W        W82105  10.734  24.657  12.956
22603W        W82106  12.169  40.502  14.328
22604W        W82107  44.881  44.372   0.891
22605W        W82108  30.472  40.914   2.340
22606W        W82109  32.002  34.410  13.866
22607W        W82110  36.955  23.730  13.955
22608W        W82111  34.987  25.991   3.787
22609W        W82112  20.690   9.818   2.841
22610W        W82113  40.450  16.259  14.934
22611W        W82114  30.473   1.308   3.350
22612W        W82115  31.469  37.475   2.293
22613W        W82116  37.858  16.725   1.928
22614W        W82117  11.721  26.083  10.927
22615W        W82118  11.840  40.540  11.857
22616W        W82119  15.328  39.985   0.472
22617W        W82120  28.484  10.721   0.374
22618W        W82121  11.200  37.910  14.840
22619W        W82122   7.783  21.134  10.572
22620W        W82123  16.171  21.051   3.829
22621W        W82124  24.065  12.337   4.741
22622W        W82125   4.317  16.715  12.898
22623W        W82126  39.915  11.168  12.049
22624W        W82127  42.386   7.189  14.420
22625W        W82128  30.115  44.444  10.512
22626W        W82129  43.819  12.847   1.808
22627W        W82130  21.563  34.118  10.914
22628W        W82131  36.415   6.288  11.091
22629W        W82132  35.511  44.344  12.987
22630W        W82133  31.021   0.779   1.325
22631W        W82134  34.018  44.278   3.329
22632W        W82135  17.097   0.827   1.707
22633W        W82136  40.974   6.712   9.469
22634W        W82137  10.156   7.863  10.957
22635W        W82138  16.178   4.713  12.823
22636W        W82139  13.257  31.990   2.886
22637W        W82140   2.322  29.085   5.733
22638W        W82141  12.132  30.532   2.702
22639W        W82142   5.301  40.465  14.301
22640W        W82143   8.863  17.728  14.311
22641W        W82144  35.019  28.624  12.430
22642W        W82145  37.542  18.558  14.967
22643W        W82146  44.783  42.890   1.785
22644W        W82147  17.591  14.134  13.905
22645W        W82148  33.553  32.007  14.465
22646W        W82149  44.813  22.644   4.177
22647W        W82150  35.921   0.307  10.626
22648W        W82151  13.735  31.149  12.051
22649W        W82152  31.122  15.711  11.550
22650W        W82153  19.160  16.584  10.542
22651W        W82154  38.881  22.612   3.184
22652W        W82155  21.037   6.843   3.280
22653W        W82156   7.212  17.640   2.252
22654W        W82157  38.506  27.063  13.495
22655W        W82158  32.587   9.238   0.430
22656W        W82159   2.882   9.241  12.956
22657W        W82160  40.025  35.597   0.916
22658W        W82161  15.299  30.967   2.808
22659W        W82162  13.676  17.656   1.303
22660W        W82163   7.787  11.676  10.453
22661W        W82164  35.543  42.439  10.618
22662W        W82165   7.273   9.211  11.472
22663W        W82166   9.878   5.716  11.010
22664W        W82167   9.749  26.663  10.586
22665W        W82168  43.781  34.606   3.839
22666W        W82169  11.667  31.496   3.809
22667W        W82170   6.282  25.509  14.456
22668W        W82171  40.380  43.378  12.968
22669W        W82172  13.191  41.960   1.353
22670W        W82173   2.764  33.889  13.346
22671W        W82174  17.719  41.415   3.174
22672W        W82175  38.905  33.414   4.180
22673W        W82176  44.779   9.211  11.393
22674W        W82177  21.236  20.591   2.737
22675W        W82178  30.429  33.023   1.866
22676W        W82179   1.420  22.172   0.465
22677W        W82180  23.063  16.199   0.942
22678W        W82181  42.982   5.227   2.675
22679W        W82182  28.537   4.931  14.400
22680W        W82183  29.113  22.544  11.499
22681W        W82184   0.765  36.092  14.945
22682W        W82185  32.995  40.455   3.760
22683W        W82186  12.851   2.761  12.077
22684W        W82187   4.747   4.890   9.982
22685W        W82188  23.081  29.135   0.293
22686W        W82189  26.205   4.732   3.315
22687W        W82190   9.187  34.532  13.398
22688W        W82191   8.783  27.474  12.412
22689W        W82192  23.512   4.800   0.956
22690W        W82193   2.260  18.687  11.410
22691W        W82194  15.143  15.607   1.443
22692W        W82195  30.934  28.953  13.961
22693W        W82196   8.853   3.276  14.928
22694W        W82197  16.789  29.997  10.430
22695W        W82198  38.900  37.930   4.779
22696W        W82199  33.448   2.788   0.774
22697W        W82200  29.436  11.663   0.856
22698W        W82201  19.591  35.409   0.341
22699W        W82202   8.835  38.548  14.019
22700W        W82203   6.915  37.427  13.433
22701W        W82204   8.831  26.997  13.466
22702W        W82205   4.734  44.948   1.230
22703W        W82206  41.024  24.610  10.904
22704W        W82207  33.525   6.217   0.902
22705W        W82208  39.451  12.841   0.430
22706W        W82209  42.846  39.370  10.596
22707W        W82210  44.449  33.910   3.284
22708W        W82211   0.891  18.178  12.541
22709W        W82212  39.899   5.865  12.397
22710W        W82213  20.700  37.938   4.741
22711W        W82214  21.165  39.333   3.793
22712W        W82215   4.271   6.192  11.460
22713W        W82216   9.786  41.016  11.425
22714W        W82217  13.652  37.078   1.828
22715W        W82218  28.456  12.117   2.710
22716W        W82219  23.102  21.526   3.288
22717W        W82220  21.229  42.296   0.377
22718W        W82221  35.453  11.197  14.295
22719W        W82222  20.263  21.716  14.358
22720W        W82223  38.922  11.245  13.461
22721W        W82224  25.653  38.989   0.353
22722W        W82225  41.525   2.854  11.425
22723W        W82226  26.988   9.733  13.984
22724W        W82227  19.601  34.502   3.744
22725W        W82228   0.775  21.177  14.427
22726W        W82229  33.880  34.106  14.399
22727W        W82230  21.512  10.250  10.547
22728W        W82231   1.941  25.009  10.565
22729W        W82232  23.728   9.178   4.745
22730W        W82233  20.065  34.879  13.382
22731W        W82234  13.606  35.429   0.442
22732W        W82235  18.229  17.062  14.509
22733W        W82236  35.435  18.201   3.168
22734W        W82237  25.143  30.134  12.067
22735W        W82238  36.501  34.525   3.636
22736W        W82239  17.641  33.581  12.513
22737W        W82240  19.726   6.884   0.283
22738W        W82241  12.341  26.535  11.033
22739W        W82242  30.090  35.956  13.015
22740W        W82243  26.172  16.298   2.790
22741W        W82244  24.036  18.644   3.630
22742W        W82245  19.220   4.913  11.889
22743W        W82246  43.436  22.683   2.683
22744W        W82247  29.056  19.083  10.450
22745W        W82248  15.675  22.089   3.279
22746W        W82249  17.122  23.993   3.717
22747W        W82250  15.165  42.917   2.787
22748W        W82251  37.086  10.694   1.256
22749W        W82252  22.523  33.391   0.373
22750W        W82253  20.524  10.146   1.707
22751W        W82254  17.574   4.852   0.474
22752W        W82255  28.512  36.484  10.116
22753W        W82256  23.544  35.088  11.944
22754W        W82257  32.055  13.694   3.153
22755W        W82258  28.056  26.201   3.220
22756W        W82259  39.359  24.219   2.892
22757W        W82260  21.589  27.970   0.313
22758W        W82261  17.763  32.429   1.419
22759W        W82262  14.685  27.465   4.653
22760W        W82263  24.062  22.552   0.351
22761W        W82264  36.933  35.583  14.513
22762W        W82265  41.494  15.098  14.501
22763W        W82266  34.000  20.108  11.588
22764W        W82267  24.125  21.570  12.011
22765W        W82268  15.242  42.972  11.004
22766W        W82269  32.098   6.912  14.014
22767W        W82270   4.845  23.093   4.227
22768W        W82271  42.881   5.435   0.443
22769W        W82272  31.441  31.457   4.635
22770W        W82273  22.183  23.054   4.832
22771W        W82274  42.807  28.180  13.991
22772W        W82275  38.454  34.039  11.123
22773W        W82276  23.612  43.462   2.290
22774W        W82277  18.549  29.125  11.953
22775W        W82278  20.609  38.985   0.463
22776W        W82279  11.279   2.256   4.299
22777W        W82280  44.409  12.666   3.177
22778W        W82281  43.353   1.731   2.803
22779W        W82282  44.790   6.748   2.756
22780W        W82283   0.285  12.697  11.116
22781W        W82284  26.569  23.035  12.058
22782W        W82285  30.468   2.818  10.467
22783W        W82286  43.454  37.551   3.156
22784W        W82287   6.845  24.575   2.780
22785W        W82288  26.072  44.876   0.260
22786W        W82289  30.467  10.144  11.585
22787W        W82290  13.127  17.100  10.643
22788W        W82291   0.359  22.125   4.796
22789W        W82292  35.085   4.770  12.865
22790W        W82293   4.248  39.555   1.354
22791W        W82294   5.920  23.492  13.475
22792W        W82295  32.095   7.370  10.489
22793W        W82296  19.746  11.767   2.806
22794W        W82297  39.032  42.300   0.940
22795W        W82298  30.620  16.602   0.368
22796W        W82299  26.012  21.556   1.770
22797W        W82300  36.850  15.624   3.785
22798W        W82301   3.258  12.629  13.428
22799W        W82302   8.246  23.168   2.340
22800W        W82303  36.881  37.079  14.464
22801W        W82304  14.654  24.148   2.877
22802W        W82305  14.324  34.019  13.843
22803W        W82306  32.049   5.248   1.425
22804W        W82307  33.007  39.416  11.970
22805W        W82308  11.696  14.679  11.108
22806W        W82309   8.828   9.805   1.309
22807W        W82310  10.176   3.792  12.950
22808W        W82311  25.111  42.290  11.879
22809W        W82312   0.858  40.368   0.857
22810W        W82313  17.259  23.015   0.923
22811W        W82314  38.912  25.692   1.831
22812W        W82315  33.117  34.990  11.861
22813W        W82316  43.444   9.221   4.649
22814W        W82317   7.798   3.314  11.485
22815W        W82318   4.933   4.319   4.695
22816W        W82319  26.596  22.585   0.869
22817W        W82320  25.196  27.026  13.528
22818W        W82321  35.097  17.658  11.034
22819W        W82322  36.354  38.409   1.901
22820W        W82323  43.327  13.617   0.911
22821W        W82324  40.436  12.267  10.508
22822W        W82325   2.914   9.803  12.565
22823W        W82326  19.557  14.600   5.201
22824W        W82327  27.003  18.120   4.288
22825W        W82328   6.819  23.636  14.932
22826W        W82329   1.973  23.735   3.227
22827W        W82330  16.183   7.792   0.865
22828W        W82331  31.453  32.504   1.234
22829W        W82332   1.449  30.541  11.004
22830W        W82333  12.230  19.044   2.191
22831W        W82334   8.656  34.056  13.020
22832W        W82335  43.465   7.192   3.229
22833W        W82336  13.145  13.636   2.234
22834W        W82337  18.567   4.259   3.844
22835W        W82338  44.900  33.010   2.335
22836W        W82339  11.818  27.195   4.196
22837W        W82340  41.449  43.499  10.976
22838W        W82341  20.158   6.850  12.448
22839W        W82342  26.071  19.595   4.312
22840W        W82343   7.847  18.663  12.949
22841W        W82344  12.781  44.492  11.874
22842W        W82345  30.559  35.016  14.005
22843W        W82346  31.438  14.254  12.512
22844W        W82347  18.641  27.037   2.343
22845W        W82348  35.412  21.660   3.187
22846W        W82349  40.987  27.610   0.900
22847W        W82350  37.009  20.524  12.999
22848W        W82351  31.514  25.203   5.137
22849W        W82352  44.368  44.931  10.944
22850W        W82353   6.354  26.639   5.216
22851W        W82354  37.384  20.163   1.830
22852W        W82355  28.536  15.623  12.402
22853W        W82356   1.919  27.662  13.030
22854W        W82357  34.075  22.715   1.792
22855W        W82358   1.434  37.539   1.873
22856W        W82359  28.007  30.937  13.404
22857W        W82360  38.071  13.132   0.964
22858W        W82361  38.507  18.072  13.025
22859W        W82362  11.314  29.113   9.932
22860W        W82363  28.178  27.042   9.541
22861W        W82364   7.242  18.674  11.522
22862W        W82365  19.663  36.481   3.665
22863W        W82366  41.369  40.800   2.190
22864W        W82367   0.491  28.172  10.500
22865W        W82368  16.691  24.203   1.935
22866W        W82369  35.475  11.225  12.397
22867W        W82370  11.157   3.427  11.873
22868W        W82371   8.285  10.286   2.816
22869W        W82372  24.722  33.426   1.871
22870W        W82373  18.607  26.612  10.413
22871W        W82374   1.834  33.971   2.282
22872W        W82375  36.490  21.094   2.392
22873W        W82376  13.632  20.725   3.793
22874W        W82377  39.477  18.565  14.807
22875W        W82378  17.277   9.244   2.686
22876W        W82379  27.953  36.449  13.317
22877W        W82380  26.530   7.693   5.275
22878W        W82381  29.065  26.192  11.505
22879W        W82382  16.188  19.260  11.903
22880W        W82383   8.175  37.362  13.855
22881W        W82384  43.444  12.153  12.401
22882W        W82385  37.000  26.060  14.809
22883W        W82386   6.908  39.959  10.906
22884W        W82387  23.606  23.063   1.827
22885W        W82388  34.410  22.252  11.972
22886W        W82389  35.582  27.039  13.792
22887W        W82390  13.121  44.958   1.432
22888W        W82391  21.753  12.120   0.361
22889W        W82392   0.780   5.237  13.362
22890W        W82393  27.081   5.778   0.360
22891W        W82394  19.083   6.917   3.655
22892W        W82395  33.978  19.056   4.209
22893W        W82396  23.659   5.721  13.841
22894W        W82397  27.490   7.810   4.752
22895W        W82398  44.946  37.478   0.277
22896W        W82399  42.999   5.251  10.062
22897W        W82400  12.659  34.558  12.980
22898W        W82401   5.337  27.483   0.439
22899W        W82402   7.181  17.174   1.430
22900W        W82403  13.676  19.605  13.952
22901W        W82404  16.176  36.511   2.760
22902W        W82405  28.611  29.091   2.724
22903W        W82406   6.909   1.760   0.798
22904W        W82407  41.504  13.822  10.531
22905W        W82408  34.092  29.656   4.823
22906W        W82409   1.246  20.106  13.454
22907W        W82410   4.778   1.916  10.632
22908W        W82411  34.000  40.988  13.924
22909W        W82412  18.269  18.641   4.754
22910W        W82413  27.585  28.080   1.877
22911W        W82414   7.387  22.662  10.407
22912W        W82415  42.959   7.729   1.443
22913W        W82416  14.332  39.957   4.300
22914W        W82417  39.396   6.723  12.091
22915W        W82418  20.176   9.734  13.841
22916W        W82419  10.375  27.020  12.003
22917W        W82420  32.022  22.628   1.334
22918W        W82421  27.044   7.191   0.880
22919W        W82422   7.183  20.041   0.419
22920W        W82423  18.647  22.030  11.379
22921W        W82424  32.975   2.866  10.563
22922W        W82425  21.221  11.844  11.959
22923W        W82426  21.037  40.978  14.012
22924W        W82427  22.534  38.328   2.743
22925W        W82428  19.637  23.102  14.319
22926W        W82429  11.253   9.812  14.841
22927W        W82430  11.161   8.705   2.800
22928W        W82431  14.826  38.498   3.744
22929W        W82432  25.191   4.737  11.495
22930W        W82433  13.690  31.407  10.540
22931W        W82434  34.443  13.747  12.479
22932W        W82435  38.378   1.256   1.259
22933W        W82436  22.642  33.079   4.197
22934W        W82437  28.105  34.040  13.358
22935W        W82438  10.771  37.832  12.823
22936W        W82439  40.989  29.978   1.909
22937W        W82440   3.239  36.387   4.322
22938W        W82441  35.438   7.382   0.883
22939W        W82442   9.163  38.822   3.643
22940W        W82443  15.701  29.560   0.732
22941W        W82444  38.499  39.399   3.830
22942W        W82445   3.229  14.280  11.019
22943W        W82446  40.818  33.957  14.439
22944W        W82447  34.899  37.029  12.360
22945W        W82448  28.160  42.329   1.440
22946W        W82449  38.070   2.435  10.529
22947W        W82450  44.828   6.897  14.387
22948W        W82451  23.532  25.079   2.246
22949W        W82452  33.394   8.886  10.926
22950W        W82453  40.521  34.993  14.941
22951W        W82454  10.332  13.334   1.910
22952W        W82455  40.983   5.419   4.825
22953W        W82456  15.293   2.777   0.774
22954W        W82457  32.128   9.871  14.467
22955W        W82458  37.080  41.979   0.883
22956W        W82459  23.043  44.426  12.350
22957W        W82460   3.803   3.328   3.292
22958W        W82461   5.792   6.219   1.917
22959W        W82462  19.691  17.618   1.696
22960W        W82463   0.796   0.296   4.738
22961W        W82464   2.746  15.784   0.883
22962W        W82465  27.517  36.413   2.733
22963W        W82466   3.745  16.675   0.253
22964W        W82467   1.870  43.956  14.892
22965W        W82468  25.622  30.103  14.347
22966W        W82469  11.326   8.789  14.888
22967W        W82470  12.135   9.150  10.602
22968W        W82471   8.723  39.386   2.378
22969W        W82472  12.679   2.268  11.891
22970W        W82473  21.208  24.585   4.143
22971W        W82474   1.296  14.258   2.747
22972W        W82475   6.814  28.652   4.644
22973W        W82476  34.379  28.558   1.277
22974W        W82477  27.021  40.054  10.909
22975W        W82478  41.460  18.146   1.853
22976W        W82479   0.408  16.147   5.119
22977W        W82480  39.846  42.420   1.236
22978W        W82481  15.262   4.708   4.143
22979W        W82482  27.526  38.936  10.630
22980W        W82483  29.172  25.995   5.146
22981W        W82484   0.919  32.557   0.473
22982W        W82485  43.885  30.117  10.087
22983W        W82486  41.000   4.740   4.243
22984W        W82487  13.634  22.505   2.267
22985W        W82488  29.623   4.384   0.276
22986W        W82489   4.850  29.092  13.859
22987W        W82490  43.355  28.464  11.595
22988W        W82491  12.651  27.530   3.752
22989W        W82492   1.953  10.140  11.499
22990W        W82493  38.334  18.207  11.857
22991W        W82494   1.915  15.276   4.806
22992W        W82495  39.539   1.804  11.482
22993W        W82496   3.388   8.406   0.839
22994W        W82497  40.305   3.730   1.365
22995W        W82498  12.661   3.376  11.065
22996W        W82499  13.813  40.817   2.766
22997W        W82500  14.784  22.091   0.935
22998W        W82501  41.357  44.460  13.924
22999W        W82502  23.188  18.169  11.868
23000W        W82503   3.279  40.986   4.748
23001W        W82504  36.033  16.201  13.424
23002W        W82505  23.629  33.050   0.798
23003W        W82506  22.739  21.123   1.879
23004W        W82507  21.699  11.318   1.803
23005W        W82508  42.420  12.281   1.910
23006W        W82509   3.227  19.619   3.153
23007W        W82510  36.969  42.905  11.116
23008W        W82511   8.405  44.272  11.462
23009W        W82512   9.373  22.731  11.117
23010W        W82513  13.120   0.765  13.977
23011W        W82514   0.402  43.516  13.309
23012W        W82515   4.901  41.941  11.097
23013W        W82516  38.379  22.623   3.796
23014W        W82517  38.514   2.427  11.430
23015W        W82518  28.945  41.030  13.530
23016W        W82519  16.579  12.254   4.831
23017W        W82520   0.849  29.517  14.413
23018W        W82521   4.336  28.986  10.425
23019W        W82522  37.082  44.325   1.233
23020W        W82523  44.279   2.353   3.373
23021W        W82524  21.203  15.231   0.259
23022W        W82525   6.848  22.747   1.225
23023W        W82526  26.458  26.977  10.583
23024W        W82527  19.560  44.008   4.827
23025W        W82528  37.563  38.375   2.872
23026W        W82529  19.094  10.764   4.734
23027W        W82530   2.740  12.358   3.769
23028W        W82531  15.095  14.764  11.128
23029W        W82532  36.419   2.882  14.809
23030W        W82533  21.085   6.789   0.279
23031W        W82534   4.944  25.661  11.482
23032W        W82535  18.122  44.772  12.854
23033W        W82536  38.423  31.437   4.658
23034W        W82537  32.073  35.470   4.718
23035W        W82538   6.219  34.983   2.738
23036W        W82539  41.972   3.853  11.944
23037W        W82540  44.923  20.528  13.404
23038W        W82541   6.712  13.296   0.827
23039W        W82542  31.544  22.601   1.250
23040W        W82543  42.857  43.302  12.916
23041W        W82544   9.813  33.401   0.898
23042W        W82545   6.867  26.125  10.587
23043W        W82546  36.069   1.867  12.094
23044W        W82547  12.337  12.329  13.460
23045W        W82548  11.243   3.831   1.298
23046W        W82549  16.230  36.559   0.807
23047W        W82550  13.777  39.841  13.017
23048W        W82551   6.723  16.811  12.492
23049W        W82552  35.102  38.871   1.733
23050W        W82553  34.880  14.202  14.032
23051W        W82554  36.866   2.394   0.742
23052W        W82555  19.285  19.174  11.876
23053W        W82556  33.878  14.291  14.290
23054W        W82557  25.017  36.002   2.349
23055W        W82558  31.146  40.439   2.333
23056W        W82559  40.999  22.745  11.390
23057W        W82560  12.721  42.393   2.701
23058W        W82561  15.649  38.870  11.380
23059W        W82562  23.624   5.223  12.938
23060W        W82563  37.015  32.440  12.031
23061W        W82564   1.931  26.960   2.375
23062W        W82565  40.320  31.129   4.728
23063W        W82566  20.542  13.811   2.304
23064W        W82567  22.618  14.222   5.248
23065W        W82568  27.055  12.661  11.860
23066W        W82569  19.083  28.169   2.808
23067W        W82570  43.937  27.595  10.061
23068W        W82571   8.882  40.820   1.890
23069W        W82572  22.034   9.177   0.944
23070W        W82573  33.619  15.691   3.305
23071W        W82574  12.219  14.096   1.705
23072W        W82575  33.528  33.448   3.290
23073W        W82576  35.452  38.907   1.930
23074W        W82577  41.817   4.276  13.949
23075W        W82578  22.252  44.926   4.651
23076W        W82579   3.404  33.482  14.981
23077W        W82580  42.368  14.649  11.868
23078W        W82581  41.837   5.870   0.336
23079W        W82582  38.856  25.189  12.541
23080W        W82583  40.859  13.648  14.825
23081W        W82584  43.764  42.027   1.920
23082W        W82585  35.472   2.389   2.845
23083W        W82586  44.365  43.449   4.349
23084W        W82587  21.555   0.488  11.928
23085W        W82588  44.290  34.952  14.441
23086W        W82589  42.939   9.858   3.703
23087W        W82590  13.122  24.548   2.774
23088W        W82591  24.598  29.527   0.323
23089W        W82592  42.918  33.489  13.333
23090W        W82593   1.741  34.568  10.943
23091W        W82594  42.814   0.438  13.435
23092W        W82595  43.830  35.040  14.025
23093W        W82596  24.185  10.260  13.808
23094W        W82597  38.386  25.704   4.728
23095W        W82598  29.937   2.393  14.394
23096W        W82599   2.361  22.176  14.880
23097W        W82600  44.491   6.850  10.462
23098W        W82601  20.673   7.323   4.754
23099W        W82602  15.206   1.254  12.408
23100W        W82603  43.978  28.559   2.391
23101W        W82604  23.186  39.539  10.998
23102W        W82605   3.880  41.294  11.436
23103W        W82606  32.104  31.084   4.151
23104W        W82607  18.695  40.340  12.440
23105W        W82608  35.501  38.482   0.768
23106W        W82609  10.731  35.052   1.356
23107W        W82610  18.678   8.658   1.800
23108W        W82611   7.217  31.405   3.184
23109W        W82612  18.614  41.907  11.593
23110W        W82613  32.433  30.614   4.782
23111W        W82614  11.201  24.182  12.427
23112W        W82615  26.513  42.002   4.624
23113W        W82616  35.439   2.730   1.729
23114W        W82617  15.208  21.221  13.494
23115W        W82618  31.896  31.929  10.550
23116W        W82619   8.666   5.214   4.196
23117W        W82620   4.285  15.736   1.380
23118W        W82621  35.019  40.463  12.560
23119W        W82622  40.907  19.083   1.874
23120W        W82623   6.830  11.684  14.892
23121W        W82624  39.555  28.658  12.558
23122W        W82625   3.406  36.928   4.189
23123W        W82626   3.379  17.284   3.673
23124W        W82627  37.393  19.724  10.477
23125W        W82628  44.004  28.480  10.084
23126W        W82629  25.986   0.379  14.775
23127W        W82630  28.121  28.649   3.770
23128W        W82631  26.021   6.694  14.317
23129W        W82632  11.626  31.072   4.701
23130W        W82633  26.113   1.334   1.266
23131W        W82634   3.825  11.325   3.313
23132W        W82635  34.050  41.428   4.825
23133W        W82636   8.701   7.710   4.342
23134W        W82637   3.727  13.160  13.008
23135W        W82638  43.949   0.409  11.114
23136W        W82639  26.970  31.975  12.050
23137W        W82640  15.222  31.635   4.265
23138W        W82641  26.586  21.246  13.541
23139W        W82642   2.908  23.219   0.783
23140W        W82643  37.554   5.383  12.922
23141W        W82644  38.056   2.952  12.455
23142W        W82645  10.339  30.089  13.891
23143W        W82646  36.391  38.947  10.431
23144W        W82647  38.824  14.168  11.452
23145W        W82648   8.315  27.556   4.305
23146W        W82649  40.391   1.855  14.828
23147W        W82650   3.862   9.152  11.118
23148W        W82651  26.537  13.340   2.399
23149W        W82652   3.884   8.232  14.766
23150W        W82653  25.645   1.355   1.398
23151W        W82654   5.836  41.385  11.469
23152W        W82655  18.553  36.490  11.903
23153W        W82656  34.539  32.584  14.298
23154W        W82657  38.879  41.936  10.617
23155W        W82658  11.690  30.069  11.007
23156W        W82659  20.690  38.871   2.678
23157W        W82660   4.875  27.692   4.700
23158W        W82661  21.746  30.492  13.996
23159W        W82662  38.043   4.291  14.832
23160W        W82663   8.762  18.658   3.672
23161W        W82664   9.275   8.806   2.341
23162W        W82665   4.939  24.604   4.252
23163W        W82666  10.244  11.237   0.475
23164W        W82667  16.780   9.303  11.918
23165W        W82668  10.252  39.052   4.122
23166W        W82669  18.196   8.273  12.383
23167W        W82670  21.647   8.257   4.821
23168W        W82671  44.790  27.145  12.908
23169W        W82672  14.128   8.240   4.312
23170W        W82673  23.225  17.170  10.519
23171W        W82674  20.031   7.266   2.830
23172W        W82675  40.419  41.912   4.727
23173W        W82676  20.712   0.282   1.866
23174W        W82677  24.197  39.402   4.691
23175W        W82678  24.607  18.687  12.521
23176W        W82679   8.175  37.555   1.875
23177W        W82680  13.696   0.861  10.448
23178W        W82681  33.483  40.999   4.318
23179W        W82682  23.125  41.001   2.385
23180W        W82683  34.051  44.923   3.780
23181W        W82684  33.895  26.549  14.477
23182W        W82685  23.096  11.667  11.082
23183W        W82686  25.965  21.212  13.850
23184W        W82687  32.959  43.409  13.018
23185W        W82688  18.730  39.002  11.511
23186W        W82689  41.819  40.990   4.701
23187W        W82690   3.218  18.186  10.917
23188W        W82691  28.949  23.675  12.460
23189W        W82692  44.333  23.204  10.499
23190W        W82693  37.053   6.323   0.935
23191W        W82694  43.000  34.064  10.468
23192W        W82695  19.683  11.152   0.341
23193W        W82696   7.716  22.650   0.953
23194W        W82697  41.369  23.023  14.470
23195W        W82698  21.105   8.779  10.571
23196W        W82699  36.520  37.935   0.246
23197W        W82700  12.156   9.314   2.718
23198W        W82701   4.356  37.976  11.374
23199W        W82702  32.498  14.271  13.487
23200W        W82703  10.784   1.296  12.003
23201W        W82704  42.470  14.094  12.399
23202W        W82705  42.363   4.359   1.908
23203W        W82706  35.364  22.161   4.686
23204W        W82707  35.933  38.019   4.200
23205W        W82708   0.349  31.534   4.175
23206W        W82709  35.375  22.520  14.497
23207W        W82710  14.224  10.328  12.075
23208W        W82711  43.293   6.191  12.436
23209W        W82712   8.177  29.952  11.501
23210W        W82713   1.473  11.826  12.979
23211W        W82714  35.486  18.081  11.479
23212W        W82715  26.588  35.855   5.202
23213W        W82716  43.964   6.353   1.258
23214W        W82717  30.542  29.590  14.857
23215W        W82718  13.284  23.510   5.108
23216W        W82719  37.990   9.264   2.816
23217W        W82720  36.850  34.474   1.744
23218W        W82721  32.995  28.673   1.212
23219W        W82722  23.192  12.855  13.832
23220W        W82723  12.272  24.632  10.555
23221W        W82724  19.632  15.141   3.830
23222W        W82725   5.342   1.867  12.388
23223W        W82726  23.076   8.666   3.810
23224W        W82727  12.165  36.884   2.188
23225W        W82728  35.409  44.798  10.481
23226W        W82729   5.737   9.838  11.064
23227W        W82730  16.266  20.249   0.394
23228W        W82731   7.810  18.088   2.258
23229W        W82732   6.867  20.540  10.496
23230W        W82733  22.578   2.236   1.723
23231W        W82734  33.391  12.612   4.660
23232W        W82735   8.707  30.029   2.363
23233W        W82736  24.646  34.046  10.620
23234W        W82737  39.917   7.765  12.054
23235W        W82738  43.473   5.292   4.176
23236W        W82739   5.281  36.545   3.805
23237W        W82740  14.271  43.904  11.512
23238W        W82741  44.782  33.992  12.008
23239W        W82742  19.734   6.289  12.993
23240W        W82743   3.752   6.239  11.041
23241W        W82744  24.587  42.393  10.971
23242W        W82745  23.086   1.759  10.160
23243W        W82746  23.199  29.081  14.380
23244W        W82747  28.076  19.574  10.133
23245W        W82748  41.958  15.189   2.357
23246W        W82749   1.482  22.013  14.859
23247W        W82750  29.590  22.135   2.378
23248W        W82751  44.483  36.486  11.400
23249W        W82752  40.387  10.298  13.533
23250W        W82753   5.819  18.178  12.096
23251W        W82754   9.267  25.044   1.918
23252W        W82755   8.691   3.362  10.618
23253W        W82756   4.323   9.752   4.258
23254W        W82757  21.204  15.194  11.040
23255W        W82758  38.517  34.026   1.440
23256W        W82759   6.303  18.712  12.384
23257W        W82760  16.260   9.686   2.887
23258W        W82761  34.970  33.917  12.007
23259W        W82762  21.212  40.863   3.206
23260W        W82763  22.534  41.500  14.910
23261W        W82764   0.759  24.584  14.810
23262W        W82765  13.774   9.322   2.744
23263W        W82766   7.718  11.191  13.010
23264W        W82767  11.867  25.664   2.703
23265W        W82768  27.643  39.414   3.862
23266W        W82769  39.947  11.768   0.848
23267W        W82770  37.017  32.053  13.391
23268W        W82771  37.364  25.009  11.393
23269W        W82772  41.387  28.121   1.265
23270W        W82773  18.734   2.434  13.878
23271W        W82774  15.267  20.098  14.901
23272W        W82775  29.629  14.137  12.556
23273W        W82776  15.690  31.638   1.832
23274W        W82777  42.957  19.570  13.477
23275W        W82778  38.891  39.936   0.963
23276W        W82779  40.489  40.514   2.690
23277W        W82780  17.245  44.392   5.210
23278W        W82781  27.617  43.359   0.400
23279W        W82782  33.985  37.008   1.281
23280W        W82783  15.187  33.107  10.414
23281W        W82784   9.691  23.656  14.497
23282W        W82785  40.854  38.045  10.986
23283W        W82786  29.430  40.522  10.131
23284W        W82787  16.181   7.887   3.200
23285W        W82788  21.526  27.031   1.245
23286W        W82789  11.767  35.097  10.471
23287W        W82790  27.591  15.760   1.231
23288W        W82791  20.143  14.110  14.882
23289W        W82792  14.620   4.338   4.227
23290W        W82793   1.790   7.229  12.564
23291W        W82794  13.262   3.912   3.792
23292W        W82795  34.382  19.200  12.882
23293W        W82796  17.640   1.453  11.900
23294W        W82797  15.210   6.923   4.654
23295W        W82798  26.151   7.795  13.456
23296W        W82799  10.699  36.987   1.304
23297W        W82800   2.850  32.410  11.895
23298W        W82801  40.029  39.369  11.058
23299W        W82802  33.598  18.082   4.827
23300W        W82803  32.971  28.173  12.946
23301W        W82804   4.262   1.764  14.991
23302W        W82805  12.211  35.933  14.774
23303W        W82806  16.163  31.406  12.825
23304W        W82807  19.109  40.981  12.366
23305W        W82808  32.054   8.331  10.980
23306W        W82809   0.340  17.662   0.453
23307W        W82810  13.330  37.067  14.365
23308W        W82811   9.330  10.237  11.479
23309W        W82812   9.340   2.909  14.901
23310W        W82813   7.878  41.439   4.769
23311W        W82814   1.289  18.188  14.919
23312W        W82815   9.879  24.000   2.676
23313W        W82816   5.782  20.195   3.769
23314W        W82817  17.079   5.705  10.959
23315W        W82818  34.544  37.422   1.329
23316W        W82819  22.184  39.489   4.295
23317W        W82820  18.136  35.445   0.406
23318W        W82821  20.662  22.024  12.018
23319W        W82822  13.306  25.154  11.414
23320W        W82823  32.003   7.679   3.718
23321W        W82824   8.731  44.888   3.216
23322W        W82825   3.906  22.015   0.890
23323W        W82826  16.674  41.788   2.238
23324W        W82827  38.013  41.914   0.730
23325W        W82828  13.843   2.800   4.669
23326W        W82829  30.448  36.035  14.926
23327W        W82830  33.935  39.538   3.161
23328W        W82831   8.865  43.486   1.837
23329W        W82832   4.874   8.841   3.832
23330W        W82833  32.525  32.620   2.747
23331W        W82834   8.853  43.404  11.563
23332W        W82835  35.453  37.345  13.824
23333W        W82836  21.183  11.626  14.952
23334W        W82837  17.237  14.728   1.446
23335W        W82838  25.201   6.377  11.585
23336W        W82839  33.566  38.332   0.891
23337W        W82840   1.947  32.462  13.939
23338W        W82841  38.567  13.248   0.456
23339W        W82842  35.957  12.298  10.480
23340W        W82843  35.890  38.827  11.000
23341W        W82844  19.563  13.239  11.024
23342W        W82845  15.170  24.571   2.349
23343W        W82846  28.435  11.854  11.035
23344W        W82847   3.392   0.767  11.936
23345W        W82848  18.661  26.186  14.326
23346W        W82849  33.085   5.797   1.885
23347W        W82850  34.552   6.205   3.661
23348W        W82851  38.076  31.047  13.349
23349W        W82852  21.101  16.790   2.784
23350W        W82853  25.137  36.876   0.826
23351W        W82854  32.391   4.912  14.935
23352W        W82855  39.350  39.063   4.308
23353W        W82856  21.207  29.009   1.349
23354W        W82857  26.194  23.549  12.363
23355W        W82858  19.092  11.736  12.347
23356W        W82859  31.492  10.663  13.953
23357W        W82860  33.933  23.724   0.323
23358W        W82861  40.994  20.154   1.872
23359W        W82862  17.715  20.551   1.735
23360W        W82863  34.542  39.971   1.240
23361W        W82864  31.574  41.800  12.963
23362W        W82865  38.533   9.689   4.237
23363W        W82866  28.140   5.763   4.179
23364W        W82867  29.484  19.197  14.291
23365W        W82868  19.075  32.541  10.996
23366W        W82869   6.330  39.869  11.433
23367W        W82870  31.642  42.893  12.459
23368W        W82871   7.819   8.761   4.210
23369W        W82872  33.550   8.688  14.778
23370W        W82873   8.687  15.812  12.555
23371W        W82874   1.354   6.875  14.987
23372W        W82875  31.436   6.218  11.104
23373W        W82876   6.788   0.352  13.449
23374W        W82877   6.385  29.022  13.500
23375W        W82878  31.527   3.815   0.927
23376W        W82879  22.552   0.766  14.407
23377W        W82880  11.756  13.231   0.297
23378W        W82881   8.861   1.290  14.949
23379W        W82882   4.330  16.152   4.815
23380W        W82883   2.904   5.719   2.731
23381W        W82884   5.224  26.956  11.492
23382W        W82885  15.683   2.314  10.476
23383W        W82886  22.504   9.366   0.844
23384W        W82887  44.305  39.397   0.245
23385W        W82888  18.226  24.083  10.549
23386W        W82889  42.812  22.252  11.996
23387W        W82890  35.460  26.529   3.377
23388W        W82891  38.001  10.640  12.553
23389W        W82892  38.952  28.555   3.282
23390W        W82893  24.604  32.114   3.779
23391W        W82894  38.946  27.981   2.283
23392W        W82895   1.779  16.206   2.242
23393W        W82896  28.007  19.184  13.914
23394W        W82897  36.017   3.879   0.408
23395W        W82898  25.661   8.779  12.039
23396W        W82899  19.277  42.788  14.430
23397W        W82900  40.967  34.604  14.344
23398W        W82901  28.167  16.243  13.794
23399W        W82902  10.706  43.805  13.943
23400W        W82903  37.518  41.808   0.291
23401W        W82904   8.225  35.460  12.025
23402W        W82905   4.254  39.930  12.417
23403W        W82906  20.586  31.569  12.874
23404W        W82907   4.885  26.586  14.367
23405W        W82908  32.025  40.892  13.539
23406W        W82909  26.582  11.138  13.374
23407W        W82910   5.285  32.390   1.305
23408W        W82911   6.185  33.458  14.400
23409W        W82912  22.688  11.365  13.388
23410W        W82913  18.784  32.893   1.321
23411W        W82914  30.056  21.630   3.276
23412W        W82915  24.490  39.349  14.296
23413W        W82916   4.900  25.061  11.393
23414W        W82917  32.056   7.396   1.829
23415W        W82918  12.616  31.448   2.356
23416W        W82919  21.115  13.648   2.697
23417W        W82920  42.333  30.418   3.320
23418W        W82921   4.407  33.994  11.430
23419W        W82922   8.176  11.718  13.839
23420W        W82923  27.637   7.241  12.012
23421W        W82924  14.832  13.272   2.898
23422W        W82925  24.184  34.925   2.262
23423W        W82926  29.023   7.719   0.953
23424W        W82927  14.780  38.454  13.367
23425W        W82928  42.340  39.958  14.846
23426W        W82929  44.310  39.972   0.382
23427W        W82930  22.653  35.900  10.161
23428W        W82931  23.588  42.442  14.287
23429W        W82932  29.458  33.603   1.239
23430W        W82933  25.510  34.885   2.808
23431W        W82934  23.153  21.250  12.862
23432W        W82935   6.832  10.191   0.386
23433W        W82936   5.255  38.011   2.280
23434W        W82937  11.156   3.418   4.154
23435W        W82938   5.861  36.969  11.045
23436W        W82939  31.009  20.235   2.199
23437W        W82940  19.272   8.740   0.269
23438W        W82941  29.956  19.042  13.881
23439W        W82942  28.466  32.447   2.737
23440W        W82943  24.190  17.150  14.829
23441W        W82944  15.322  33.073  13.464
23442W        W82945  17.561   0.471   2.847
23443W        W82946  13.324  38.355  14.386
23444W        W82947  12.690  33.035  14.900
23445W        W82948   1.775  37.391   3.171
23446W        W82949   6.722  24.011  13.388
23447W        W82950  22.054  16.239   0.915
23448W        W82951  36.975  22.715   2.754
23449W        W82952  44.399  33.557   0.414
23450W        W82953  10.793  35.516   0.467
23451W        W82954   9.164   5.246   2.336
23452W        W82955  17.141  36.911   0.291
23453W        W82956  21.519  10.642  11.553
23454W        W82957  41.949  39.968   2.246
23455W        W82958   9.709  38.359   1.879
23456W        W82959  18.766  30.074  10.415
23457W        W82960  23.202   5.356  12.978
23458W        W82961  15.750  43.990  13.956
23459W        W82962  31.069  34.063  10.125
23460W        W82963  42.526  37.896  10.525
23461W        W82964  27.503  39.546   1.848
23462W        W82965  40.856  12.236  13.010
23463W        W82966  26.159  12.844   1.387
23464W        W82967   6.799  44.350   1.354
23465W        W82968  37.496  35.467   0.384
23466W        W82969   5.825  26.620   0.934
23467W        W82970  15.809   6.758  13.911
23468W        W82971  18.210  29.491   4.311
23469W        W82972  18.155  22.183  10.949
23470W        W82973  39.397   7.729   0.873
23471W        W82974   7.324  16.143   2.780
23472W        W82975  37.363   7.293  11.379
23473W        W82976  15.166  29.472   3.650
23474W        W82977  14.119  39.554   0.927
23475W        W82978   3.747  27.144   3.796
23476W        W82979   7.348  43.311   4.256
23477W        W82980  35.422  44.999  13.959
23478W        W82981  35.086  19.066  13.455
23479W        W82982   7.742  38.462   2.798
23480W        W82983   4.824  27.192  12.018
23481W        W82984  31.938  10.674  12.907
23482W        W82985  25.645  20.273  11.539
23483W        W82986   4.813  35.566   0.380
23484W        W82987  29.531   0.335  12.547
23485W        W82988  40.336   9.305   4.614
23486W        W82989   9.237   4.333  12.339
23487W        W82990  37.534  28.954  14.373
23488W        W82991   1.467  24.127  13.439
23489W        W82992  23.096  27.109  14.951
23490W        W82993  23.241   2.264  12.949
23491W        W82994   8.793  42.834  11.560
23492W        W82995  32.979  26.195  12.368
23493W        W82996  13.344  36.457   3.634
23494W        W82997  30.603  33.579   3.366
23495W        W82998  42.370  28.472   3.251
23496W        W82999  43.958  21.215  11.049
23497W        W83000   7.819  37.006   1.920
23498W        W83001  28.071  32.420   3.831
23499W        W83002   9.801   8.693  11.099
23500W        W83003  28.040  38.944  10.623
23501W        W83004  44.481   0.901  14.939
23502W        W83005  19.690  41.416  14.492
23503W        W83006  10.840  23.632  13.054
23504W        W83007  31.933  11.324   2.665
23505W        W83008  35.012   1.841  11.934
23506W        W83009  34.455  27.534  11.979
23507W        W83010  26.504   9.754   3.634
23508W        W83011  18.607   3.431  11.507
23509W        W83012  21.663  40.407   0.895
23510W        W83013  42.030  32.123  11.884
23511W        W83014  43.015  37.912   2.684
23512W        W83015   3.839  18.260   0.290
23513W        W83016   6.885   1.381  12.394
23514W        W83017  43.329   6.914   3.249
23515W        W83018  40.389  14.832   1.331
23516W        W83019  21.662  26.086   4.637
23517W        W83020   8.890  34.041  10.599
23518W        W83021  42.487  17.604  12.898
23519W        W83022   8.784   9.305  11.116
23520W        W83023  25.054   9.867   4.732
23521W        W83024  40.439  34.940  10.064
23522W        W83025   9.749  26.039   1.356
23523W        W83026  30.047  33.054   3.359
23524W        W83027   2.403   5.736   0.308
23525W        W83028  15.322  17.763   0.779
23526W        W83029  21.050  42.782  12.962
23527W        W83030   0.964   3.312   3.199
23528W        W83031  20.600  26.579  13.799
23529W        W83032   7.843  31.129  13.030
23530W        W83033  26.652  42.495   4.742
23531W        W83034   2.883  40.480  14.915
23532W        W83035   8.403  40.035  12.058
23533W        W83036  17.647  24.055   3.333
23534W        W83037  20.205  30.590   2.242
23535W        W83038  44.912  24.123   5.224
23536W        W83039  31.450   2.466   2.267
23537W        W83040   6.353   7.823  12.027
23538W        W83041  21.608  24.058   4.193
23539W        W83042   9.671   8.316  14.021
23540W        W83043  11.144   0.946  13.493
23541W        W83044  37.363  37.975  14.990
23542W        W83045  25.705   2.967  11.451
23543W        W83046   5.892  39.330  11.545
23544W        W83047  31.091  16.717  12.866
23545W        W83048  27.504   7.730  13.841
23546W        W83049  10.265  39.966   0.466
23547W        W83050  10.831  29.511   3.189
23548W        W83051  10.661  35.900   0.331
23549W        W83052   4.234  41.507   1.428
23550W        W83053  36.843  15.089  11.044
23551W        W83054  11.702  23.659  12.414
23552W        W83055   6.821  17.304  11.385
23553W        W83056  29.163  18.192  14.432
23554W        W83057   9.714  31.969   2.180
23555W        W83058  11.775   5.910  14.834
23556W        W83059  16.768  14.592   2.210
23557W        W83060  43.333  11.226   0.850
23558W        W83061  19.140  13.143   3.834
23559W        W83062  17.286  40.459  11.424
23560W        W83063   8.893   2.355   2.367
23561W        W83064   4.438  36.914   4.190
23562W        W83065  13.141  33.922  13.831
23563W        W83066  19.688   9.253   2.738
23564W        W83067  19.233  28.956  14.025
23565W        W83068  34.576  28.159   2.717
23566W        W83069  39.394  10.228  11.962
23567W        W83070   6.690  42.425   4.699
23568W        W83071  10.872  35.098  12.027
23569W        W83072   0.781  19.625  13.417
23570W        W83073  32.945  27.072   2.879
23571W        W83074   0.285  12.259   4.203
23572W        W83075   4.860  33.392   2.275
23573W        W83076   1.945  37.408   1.711
23574W        W83077  41.293  11.769  14.309
23575W        W83078  14.783  15.219   0.464
23576W        W83079   3.763  42.400  12.425
23577W        W83080  43.021  13.144   1.351
23578W        W83081  27.193  31.055   2.294
23579W        W83082   9.366   4.824   3.197
23580W        W83083  35.881  15.169  12.471
23581W        W83084  17.188  36.968  14.957
23582W        W83085  13.789  29.609   0.819
23583W        W83086   6.818  21.175   4.694
23584W        W83087   2.278   9.698  12.053
23585W        W83088  21.742   0.405  11.407
23586W        W83089  23.679  29.611  14.406
23587W        W83090  16.205  16.298  12.970
23588W        W83091  35.599  37.898   4.802
23589W        W83092  21.556  12.682  11.944
23590W        W83093  32.994  12.260   1.345
23591W        W83094   6.684   2.349  11.995
23592W        W83095  10.740  17.207   0.913
23593W        W83096   3.867   7.270  13.974
23594W        W83097   3.909  23.686   4.674
23595W        W83098  27.179  43.802  10.560
23596W        W83099  39.437  21.041  13.984
23597W        W83100  16.308  29.472   3.246
23598W        W83101   5.385   1.929  11.549
23599W        W83102  11.829  17.599   0.326
23600W        W83103  28.484  42.836  13.806
23601W        W83104  30.005  22.568  14.763
23602W        W83105  23.111   7.396  11.479
23603W        W83106  43.795   9.261  13.997
23604W        W83107  21.037  16.736   3.290
23605W        W83108  44.381  37.886  12.359
23606W        W83109  34.538   1.768  14.767
23607W        W83110   5.435  37.348  13.801
23608W        W83111  18.647  35.524   4.779
23609W        W83112  18.065  10.383  10.046
23610W        W83113  28.117  22.656   0.336
23611W        W83114   8.664  36.568   3.341
23612W        W83115   7.789  24.588   1.353
23613W        W83116  19.082  21.648   4.683
23614W        W83117  25.623  35.888  11.912
23615W        W83118  36.561  29.074  11.411
23616W        W83119  38.003   4.944   0.338
23617W        W83120   9.208  31.031   2.398
23618W        W83121  33.018   2.895  14.869
23619W        W83122  37.483  40.325   3.706
23620W        W83123  35.997  29.551   0.270
23621W        W83124  38.981  21.551   3.247
23622W        W83125  42.297  25.016   2.784
23623W        W83126  36.097  31.466   0.790
23624W        W83127  28.142  25.672  10.499
23625W        W83128  39.552  36.058   4.311
23626W        W83129  38.868   6.775   3.174
23627W        W83130  42.353   6.891   0.827
23628W        W83131  28.942   3.436   1.726
23629W        W83132  18.733  44.789  14.320
23630W        W83133  30.649  26.063   3.863
23631W        W83134  13.188  13.290   0.881
23632W        W83135   2.835  20.116   4.137
23633W        W83136   4.717  11.659   2.190
23634W        W83137   3.933  23.041   4.200
23635W        W83138  25.071   3.860   1.831
23636W        W83139   5.216  28.057   0.283
23637W        W83140   2.245  13.200  10.526
23638W        W83141  29.641  10.850   0.438
23639W        W83142  36.022  30.064   3.235
23640W        W83143  14.333  40.467  12.503
23641W        W83144  18.590  13.197  12.544
23642W        W83145  33.427  35.434   2.364
23643W        W83146  23.174  34.552  13.794
23644W        W83147  38.403  16.808   4.146
23645W        W83148  30.982  43.303   4.151
23646W        W83149  15.221   4.719  11.002
23647W        W83150  18.679  22.648  11.393
23648W        W83151  36.065  13.120   0.739
23649W        W83152  22.040  12.810  11.433
23650W        W83153   4.823  41.022   2.223
23651W        W83154  16.620  33.428   0.761
23652W        W83155  13.722  41.005   0.343
23653W        W83156  37.957   5.430   0.753
23654W        W83157  25.620  20.683  12.007
23655W        W83158  24.095  39.381  12.342
23656W        W83159  36.466  10.314   3.691
23657W        W83160  30.605  23.717   2.802
23658W        W83161  12.718  43.917  13.320
23659W        W83162  32.928  44.831   3.807
23660W        W83163  11.232  44.950  12.837
23661W        W83164  40.376   6.380  11.406
23662W        W83165   6.297  12.829  14.873
23663W        W83166  18.770  26.200   4.754
23664W        W83167   8.316   3.855   1.300
23665W        W83168  28.975  17.182  10.931
23666W        W83169  35.489  33.975   2.878
23667W        W83170   5.333   2.350  11.088
23668W        W83171   3.298  10.189   0.791
23669W        W83172   9.305  35.019   3.726
23670W        W83173   0.449  35.936   3.681
23671W        W83174   4.833  20.642  13.022
23672W        W83175  44.382  26.992  13.996
23673W        W83176  35.549  33.017  14.815
23674W        W83177  10.710   9.254  10.505
23675W        W83178  33.493   3.738  11.924
23676W        W83179  32.945  15.735   0.795
23677W        W83180   3.457  11.263  12.985
23678W        W83181  25.550   2.753   3.312
23679W        W83182  30.639  27.585   3.178
23680W        W83183  27.605   8.819   2.412
23681W        W83184  11.241  17.627  12.907
23682W        W83185  39.024  43.965  11.569
23683W        W83186  38.895  19.646  11.426
23684W        W83187   0.967  15.633  13.988
23685W        W83188  41.854  14.726  11.981
23686W        W83189   0.765   9.688   2.863
23687W        W83190   1.873   9.679  13.012
23688W        W83191  12.129  16.263  14.290
23689W        W83192  23.091  13.667   1.328
23690W        W83193  14.162  43.805  14.333
23691W        W83194  12.690  43.768   1.363
23692W        W83195  33.017  33.079   3.790
23693W        W83196  30.580  37.952  13.934
23694W        W83197  43.797   6.678   2.330
23695W        W83198  38.860  38.850   2.760
23696W        W83199  12.222   4.387  14.020
23697W        W83200  36.567   6.878  12.995
23698W        W83201  20.697  42.886   3.686
23699W        W83202  35.995  34.929   0.792
23700W        W83203   7.375  28.183  12.001
23701W        W83204  33.103  41.344  13.964
23702W        W83205  10.774  12.135   2.777
23703W        W83206  36.396  34.585   0.305
23704W        W83207   9.302  25.045  11.011
23705W        W83208  22.519   6.211  11.593
23706W        W83209  35.106  21.252   1.878
23707W        W83210  31.450  14.241   4.799
23708W        W83211  18.599   9.849  13.053
23709W        W83212  37.077   3.323  10.945
23710W        W83213  41.475  19.630  13.823
23711W        W83214   5.392  31.009   3.749
23712W        W83215  34.419   6.703   3.818
23713W        W83216  39.842  17.165   1.847
23714W        W83217  41.514   3.404  14.386
23715W        W83218  24.544  39.849  10.641
23716W        W83219  21.262  33.018  11.099
23717W        W83220  41.435  39.418   2.737
23718W        W83221  40.887  10.827   1.356
23719W        W83222  35.084  44.952  12.405
23720W        W83223  10.273   4.350  14.841
23721W        W83224  11.735  26.050   0.292
23722W        W83225   9.211   0.469   4.690
23723W        W83226  38.507  38.866   4.746
23724W        W83227  28.479   5.778  10.900
23725W        W83228  30.522   1.901   4.198
23726W        W83229  11.270  15.165   3.751
23727W        W83230   3.360   0.290   5.275
23728W        W83231  16.183  44.856  12.976
23729W        W83232  22.112  35.595   0.358
23730W        W83233  12.686   0.781  14.797
23731W        W83234  39.519  37.367   3.730
23732W        W83235   2.433   5.396   4.625
23733W        W83236   4.206   4.728   4.294
23734W        W83237   7.256  31.962   4.631
23735W        W83238  29.432  35.885   3.632
23736W        W83239  14.312  38.001   4.732
23737W        W83240  14.673  14.590   0.338
23738W        W83241  40.013  39.525   0.832
23739W        W83242  27.481  29.635  13.316
23740W        W83243   2.905  15.318  14.474
23741W        W83244  40.543   7.316   1.444
23742W        W83245  11.634  14.174   1.227
23743W        W83246  36.988   3.358   4.616
23744W        W83247  29.586   8.880   2.219
23745W        W83248  39.979   6.815  13.369
23746W        W83249  36.464  40.036  10.945
23747W        W83250  27.625  34.396  12.877
23748W        W83251   8.693  40.415   2.417
23749W        W83252  11.129  11.735  14.830
23750W        W83253  13.633  39.496   0.913
23751W        W83254  41.467  24.632  10.499
23752W        W83255  17.260  30.036   1.888
23753W        W83256  31.568  13.311   0.313
23754W        W83257  26.617  15.290  10.534
23755W        W83258  30.100  16.741  11.128
23756W        W83259  11.843   7.255   4.325
23757W        W83260  12.203  40.994  11.510
23758W        W83261  10.176  42.283   2.230
23759W        W83262  23.122  15.596  10.561
23760W        W83263  17.698  24.665  12.034
23761W        W83264   3.320  19.111   4.301
23762W        W83265  14.783  12.258  10.566
23763W        W83266   5.908  15.321  11.915
23764W        W83267   5.304  17.277   1.879
23765W        W83268  36.388  18.099   0.792
23766W        W83269  15.632   4.917  13.497
23767W        W83270  27.505  37.009  11.910
23768W        W83271  20.691   1.277   3.216
23769W        W83272   7.363  10.327  14.503
23770W        W83273   5.871   4.229  11.045
23771W        W83274  13.190  32.454  14.322
23772W        W83275   2.352  18.099  12.442
23773W        W83276  25.699  35.863   9.934
23774W        W83277  39.375  33.396   2.348
23775W        W83278  12.736   8.296   3.271
23776W        W83279  28.676  38.936   2.667
23777W        W83280   0.269  33.103   2.236
23778W        W83281  25.139  34.400  13.985
23779W        W83282  27.582  29.503   2.404
23780W        W83283  17.669   7.869  11.118
23781W        W83284  38.333  31.465   2.273
23782W        W83285   5.898   7.787   0.965
23783W        W83286  31.054  10.806   3.865
23784W        W83287  20.689  13.215   1.776
23785W        W83288  27.678  13.212  13.895
23786W        W83289   0.842  34.038   3.786
23787W        W83290   1.769  29.044   3.653
23788W        W83291  15.580  12.813  10.096
23789W        W83292  39.880  26.691   3.804
23790W        W83293   8.206   1.943  13.805
23791W        W83294  44.975   3.343   3.734
23792W        W83295  30.496  26.195   0.324
23793W        W83296   6.853  13.699  12.462
23794W        W83297  32.018  37.914  10.633
23795W        W83298  18.578  15.606  11.857
23796W        W83299  38.821  17.673   1.212
23797W        W83300  26.005  32.538   1.840
23798W        W83301  39.534   7.901   4.701
23799W        W83302  29.479  38.824  14.858
23800W        W83303  32.557  17.264   5.688
23801W        W83304  15.577   6.839  10.997
23802W        W83305  44.965  14.173   4.695
23803W        W83306   4.730  34.511  13.949
23804W        W83307  35.930  44.768   3.728
23805W        W83308  43.340  24.989   0.422
23806W        W83309  19.591  42.375   3.214
23807W        W83310  32.122  25.127  11.101
23808W        W83311  41.378  31.601  11.485
23809W        W83312  35.580   2.797  14.469
23810W        W83313  33.591   8.376  13.514
23811W        W83314  43.848  43.964   1.893
23812W        W83315  11.703  12.721   1.900
23813W        W83316  36.549  31.116   0.416
23814W        W83317  12.612   2.791   2.687
23815W        W83318  27.063  22.161   3.768
23816W        W83319  42.786   4.939  14.834
23817W        W83320   8.800  16.649  13.475
23818W        W83321  41.380  14.634   4.737
23819W        W83322  33.018  34.412  14.787
23820W        W83323  44.303  15.778   2.787
23821W        W83324  14.105  24.036   0.959
23822W        W83325  18.144   8.879   1.287
23823W        W83326  33.038   9.239   3.372
23824W        W83327  32.987  25.188   2.689
23825W        W83328   6.428  40.360   0.417
23826W        W83329  41.294  31.944  12.971
23827W        W83330  10.188   3.876  12.420
23828W        W83331  23.163   8.272   2.781
23829W        W83332  42.527  13.644  14.861
23830W        W83333  25.053  13.735   1.845
23831W        W83334  44.899  41.334   0.383
23832W        W83335   2.792  37.045  12.520
23833W        W83336  41.938   8.893   2.778
23834W        W83337  20.638  20.123   1.735
23835W        W83338   1.764   2.395   0.919
23836W        W83339  22.702  24.593  14.467
23837W        W83340  18.073  42.468  12.032
23838W        W83341   0.837  34.930  10.516
23839W        W83342  19.165  17.793   2.212
23840W        W83343  25.614  20.600  11.589
23841W        W83344   6.400   4.262   2.261
23842W        W83345  11.738  14.149  12.938
23843W        W83346   9.704  24.610  12.093
23844W        W83347   9.714  38.481  13.521
23845W        W83348  40.455  22.209   1.285
23846W        W83349   2.429  34.564  14.940
23847W        W83350  21.664  17.702  10.548
23848W        W83351   8.682  25.999  12.943
23849W        W83352  14.636  43.480   2.334
23850W        W83353  42.841  37.441  10.580
23851W        W83354  40.931  34.943   1.792
23852W        W83355  38.874  34.893  11.883
23853W        W83356   1.363  21.042  13.904
23854W        W83357  35.495   2.427   0.949
23855W        W83358  25.122  20.671   0.768
23856W        W83359  11.710  32.993  11.876
23857W        W83360  40.801  44.290  10.481
23858W        W83361   7.412  33.952   0.418
23859W        W83362   7.775   8.245   3.369
23860W        W83363  24.605   6.904  12.075
23861W        W83364   1.471  32.938   3.190
23862W        W83365  15.124  13.135  10.432
23863W        W83366  33.049  39.403  14.402
23864W        W83367  25.612  17.283   1.252
23865W        W83368  28.626  23.088  11.961
23866W        W83369  33.547   9.334  12.934
23867W        W83370  12.188   8.791  11.405
23868W        W83371  36.025  25.984   3.757
23869W        W83372  30.015  12.678   0.792
23870W        W83373   3.746   5.848   3.817
23871W        W83374  28.466  37.500   1.724
23872W        W83375  44.365  33.897   2.824
23873W        W83376   4.203  11.160  14.341
23874W        W83377  15.590  32.518   1.869
23875W        W83378  13.129   4.293  10.573
23876W        W83379  19.751  25.610  11.943
23877W        W83380  37.452   9.278   0.726
23878W        W83381  34.910   9.875   3.842
23879W        W83382  19.096  13.772   3.685
23880W        W83383   2.786   4.289  12.529
23881W        W83384  18.257  22.627   2.384
23882W        W83385   5.758  30.554  10.469
23883W        W83386  36.065  43.004  14.462
23884W        W83387  25.119  15.751  13.410
23885W        W83388  17.155  23.662   3.356
23886W        W83389  16.175  13.319   0.949
23887W        W83390  28.631  15.806   0.313
23888W        W83391  26.690  27.513   0.799
23889W        W83392  29.654   2.918   1.932
23890W        W83393  32.091  20.244  14.350
23891W        W83394  15.140  17.594  12.418
23892W        W83395  34.899  27.158  10.892
23893W        W83396  29.165  42.900  13.941
23894W        W83397  32.077  11.672   2.254
23895W        W83398   8.738  16.698   4.599
23896W        W83399  36.566  14.249   2.187
23897W        W83400  44.006  26.678  11.033
23898W        W83401  31.632  11.805   1.797
23899W        W83402  37.986  24.622   1.382
23900W        W83403  44.967  32.041  14.414
23901W        W83404  33.960  10.878   1.832
23902W        W83405   7.388  28.673   1.314
23903W        W83406  23.155  26.620   3.180
23904W        W83407  40.397   2.874  12.480
23905W        W83408  22.692   3.913  14.284
23906W        W83409  18.207  13.789   4.242
23907W        W83410   0.809  12.652  12.879
23908W        W83411  17.620   9.302   0.955
23909W        W83412  11.352  20.200  11.054
23910W        W83413  33.510  42.837  10.563
23911W        W83414   8.672   8.232   0.361
23912W        W83415  30.056   4.254   1.404
23913W        W83416  31.040  16.307  10.482
23914W        W83417  33.980  43.016  13.006
23915W        W83418  39.474  24.713   2.902
23916W        W83419  21.042  17.119   0.442
23917W        W83420  43.814  44.443   3.694
23918W        W83421  37.435  38.414   1.371
23919W        W83422   2.297   6.836   3.738
23920W        W83423  41.838   9.790   1.737
23921W        W83424  33.580  35.970  10.423
23922W        W83425  19.616  12.835  12.434
23923W        W83426  26.153   8.403   1.240
23924W        W83427  21.609  11.290  14.910
23925W        W83428   7.279  11.335   0.960
23926W        W83429  28.985  40.026  13.796
23927W        W83430  13.140  17.615   2.214
23928W        W83431  39.362  20.042  13.908
23929W        W83432  38.900   4.360   5.123
23930W        W83433  28.644   4.905   0.447
23931W        W83434  37.983  33.947   1.935
23932W        W83435  31.998  35.908  10.547
23933W        W83436  13.234  12.126  12.833
23934W        W83437   1.237   6.383   0.395
23935W        W83438  10.265   7.701   5.128
23936W        W83439  14.249  32.002   1.249
23937W        W83440  21.047  32.593   4.819
23938W        W83441  10.672   9.804   4.792
23939W        W83442  10.291   5.849  12.015
23940W        W83443  30.468  38.822  12.835
23941W        W83444   1.883  10.163   1.759
23942W        W83445  38.911  41.029  11.883
23943W        W83446  27.129   3.358  12.946
23944W        W83447  24.612  16.187  12.866
23945W        W83448  35.954  10.353  14.874
23946W        W83449  41.902  11.307  14.931
23947W        W83450  21.636  26.548  12.350
23948W        W83451  42.517  13.312   4.261
23949W        W83452  24.617   1.463  13.482
23950W        W83453  19.231  31.020  11.605
23951W        W83454  40.305  33.973   2.792
23952W        W83455  44.361  20.110   4.643
23953W        W83456  14.608  20.568   1.767
23954W        W83457  27.549  15.170  10.042
23955W        W83458  27.586  15.714  14.338
23956W        W83459  23.165   3.928   1.884
23957W        W83460  15.097   3.429   1.821
23958W        W83461  17.749  21.254   4.332
23959W        W83462  24.209   1.823  13.793
23960W        W83463  12.831  22.061   3.199
23961W        W83464  32.419  24.171  10.572
23962W        W83465  24.683  20.109   3.655
23963W        W83466   6.876  42.853  11.554
23964W        W83467   7.266  16.694  11.044
23965W        W83468  39.380  13.789   2.232
23966W        W83469  22.159  12.278   0.734
23967W        W83470   9.321  24.593   4.829
23968W        W83471   2.398  27.588   9.985
23969W        W83472   5.846   9.317   1.765
23970W        W83473  42.370  38.365  12.550
23971W        W83474  10.655   7.332  13.885
23972W        W83475  38.383  30.092  11.935
23973W        W83476  14.101  24.163  14.487
23974W        W83477  10.647  39.023  14.406
23975W        W83478  37.388   5.897   5.654
23976W        W83479  37.412  22.729  13.794
23977W        W83480  28.025  39.972   2.343
23978W        W83481   0.763  31.930   4.668
23979W        W83482  22.610  19.563   3.668
23980W        W83483   8.221  21.561  13.878
23981W        W83484  44.894   2.861  13.392
23982W        W83485   6.328   3.333   0.866
23983W        W83486   3.865  43.442   1.844
23984W        W83487  35.900  26.991   4.820
23985W        W83488  24.041  15.159   3.147
23986W        W83489  11.724   7.319   0.763
23987W        W83490   3.273  38.928  14.874
23988W        W83491  10.156  41.812   0.888
23989W        W83492  20.700  41.442   4.294
23990W        W83493   8.278  35.413   2.257
23991W        W83494  11.815   0.465  11.857
23992W        W83495  22.543  29.035   4.688
23993W        W83496  42.820  16.604  13.403
23994W        W83497  17.072  26.033  10.450
23995W        W83498   7.374  10.256  10.410
23996W        W83499  35.426  28.649   2.768
23997W        W83500   6.279  41.961   1.730
23998W        W83501  44.442   5.913  12.408
23999W        W83502  30.615  12.299   2.815
24000W        W83503  10.331  35.857  12.520
24001W        W83504  21.729  16.771   1.797
24002W        W83505   0.355   8.872   0.814
24003W        W83506   2.832  43.411   1.283
24004W        W83507  11.866  37.926  11.933
24005W        W83508  26.489  37.396   2.389
24006W        W83509  37.045  11.754  14.977
24007W        W83510  32.050  19.282  12.580
24008W        W83511  24.211  30.078  10.607
24009W        W83512   2.828  38.963   3.644
24010W        W83513  16.654   7.903  11.128
24011W        W83514  28.963  42.930   4.233
24012W        W83515  44.813  41.907  13.502
24013W        W83516  22.505   9.379  12.079
24014W        W83517  37.842  10.328   3.790
24015W        W83518   4.804  23.060  13.037
24016W        W83519  41.861   1.959   0.348
24017W        W83520  32.607  18.125  13.042
24018W        W83521  29.072  21.236  14.844
24019W        W83522  41.321   1.793  10.467
24020W        W83523  11.814  39.550  13.858
24021W        W83524  43.509   8.710   1.392
24022W        W83525  18.568  38.917   1.703
24023W        W83526   2.454  22.537   0.251
24024W        W83527  12.839  18.200  12.377
24025W        W83528  27.045   2.781   2.762
24026W        W83529  39.940  36.373   3.646
24027W        W83530  39.544  39.928  14.774
24028W        W83531  15.587  26.198  11.008
24029W        W83532  22.648  15.254  11.057
24030W        W83533  39.970  44.985  13.024
24031W        W83534  31.588  35.968   2.341
24032W        W83535  18.227  13.302  13.955
24033W        W83536  27.021  17.109  10.917
24034W        W83537   1.303   6.741  11.978
24035W        W83538  17.137  27.103  12.954
24036W        W83539  20.212  18.586  13.434
24037W        W83540   5.742  43.789   1.852
24038W        W83541  35.408   6.227   4.239
24039W        W83542  28.677  39.393   4.150
24040W        W83543  23.664   6.741   2.741
24041W        W83544   5.238  18.202  14.806
24042W        W83545  30.003  34.103   4.815
24043W        W83546   1.848   4.402   2.192
24044W        W83547  42.327  36.479  12.432
24045W        W83548   1.962   8.883   2.777
24046W        W83549  36.555   8.298   4.353
24047W        W83550   9.200   8.820   3.772
24048W        W83551  39.831  15.598  10.502
24049W        W83552  25.216  20.036  13.020
24050W        W83553  37.999  40.052   0.742
24051W        W83554  13.264   3.439   3.854
24052W        W83555  35.028  37.434  13.942
24053W        W83556  16.649  37.968  11.977
24054W        W83557  31.566   5.406  11.611
24055W        W83558  10.777   2.904  10.442
24056W        W83559  44.827  37.945  13.806
24057W        W83560   2.319  39.521  10.950
24058W        W83561  12.662  23.223  13.513
24059W        W83562  10.785   8.692  11.538
24060W        W83563  43.317   8.271   0.743
24061W        W83564  20.709  32.587   2.381
24062W        W83565  23.540  30.961  12.370
24063W        W83566  15.216  42.406   3.825
24064W        W83567  24.201  16.270  13.309
24065W        W83568  44.853  15.740   1.925
24066W        W83569  21.627  38.860  10.619
24067W        W83570   1.244  25.494   0.777
24068W        W83571  27.191   1.476   1.844
24069W        W83572  24.014  21.745   0.767
24070W        W83573  14.643   3.910   1.367
24071W        W83574  24.499  31.620  11.580
24072W        W83575   7.823  10.644  13.998
24073W        W83576  38.935  28.040   4.599
24074W        W83577  25.599  17.115   3.339
24075W        W83578  42.935   2.809  13.961
24076W        W83579  10.277  21.646  13.853
24077W        W83580  32.556  27.183   3.183
24078W        W83581  13.332  18.764   3.370
24079W        W83582  18.148  32.094   0.408
24080W        W83583  24.489  44.330   1.355
24081W        W83584  17.603  29.149  12.977
24082W        W83585  37.911   6.795  11.951
24083W        W83586  15.640  29.053  14.903
24084W        W83587  38.955  18.741   4.689
24085W        W83588  10.371   7.282  10.934
24086W        W83589   4.436  36.054   4.244
24087W        W83590   6.687  16.237  12.906
24088W        W83591   8.783  21.095  14.307
24089W        W83592  32.932  32.029   2.750
24090W        W83593  32.896   8.760   2.230
24091W        W83594  27.161  34.514  12.979
24092W        W83595   0.276  34.559  13.983
24093W        W83596   6.189  42.366   2.882
24094W        W83597  15.261  39.490   1.880
24095W        W83598  15.801  21.048   0.766
24096W        W83599  23.605  31.063  10.565
24097W        W83600  12.655  41.857  10.544
24098W        W83601   9.689   1.875   4.828
24099W        W83602  10.648   4.909   0.471
24100W        W83603  41.406  28.949  12.075
24101W        W83604   4.860  34.882   3.822
24102W        W83605  40.875   8.833   2.854
24103W        W83606   7.234   5.747  11.549
24104W        W83607  12.205  30.420   3.682
24105W        W83608   7.258  40.894   2.849
24106W        W83609  22.708  44.857  10.003
24107W        W83610  31.057  14.696  12.846
24108W        W83611  20.673  38.469   1.400
24109W        W83612  31.925  14.627   0.327
24110W        W83613   8.172  25.031   1.934
24111W        W83614   2.249   8.896   3.849
24112W        W83615  41.955   2.779  13.868
24113W        W83616  31.058  32.041  14.782
24114W        W83617  42.016  19.587   2.187
24115W        W83618  40.324  35.856  13.546
24116W        W83619  31.087  41.436  13.359
24117W        W83620  37.366  11.341   4.773
24118W        W83621  33.600  36.569   0.467
24119W        W83622  23.236   2.899  10.954
24120W        W83623   2.720  38.552   3.186
24121W        W83624   2.438  20.104  11.876
24122W        W83625  24.196  33.991  13.832
24123W        W83626  27.656   2.925  12.046
24124W        W83627   6.716   9.690  11.102
24125W        W83628   4.236  11.223   1.408
24126W        W83629   7.408   7.838  14.336
24127W        W83630  17.581  35.408   2.343
24128W        W83631  17.230   6.270  13.444
24129W        W83632  42.947  27.027  13.972
24130W        W83633  37.040  44.966  12.093
24131W        W83634  37.530  42.877   0.314
24132W        W83635  22.101   0.485  12.349
24133W        W83636  41.865  34.890  12.488
24134W        W83637  28.005   7.902   4.717
24135W        W83638  10.856  28.472   2.745
24136W        W83639  13.838  44.770   3.268
24137W        W83640  35.891  31.143   0.256
24138W        W83641  32.014  42.421   2.773
24139W        W83642  28.489  42.833   4.631
24140W        W83643  39.321   1.736  14.892
24141W        W83644   4.418  32.923   1.366
24142W        W83645  37.338  13.729  10.544
24143W        W83646  38.523  24.599  10.921
24144W        W83647  35.404  22.050   1.270
24145W        W83648   1.772   4.273  12.466
24146W        W83649  15.202  36.538   3.371
24147W        W83650   7.789  39.389  13.798
24148W        W83651  35.451  14.106   4.694
24149W        W83652  21.700  29.064   4.779
24150W        W83653  23.151  33.124  12.491
24151W        W83654  37.427  30.985  13.818
24152W        W83655  29.949   4.888  11.548
24153W        W83656  17.173  25.065   3.700
24154W        W83657   1.763  38.941   1.863
24155W        W83658   8.742  10.702   2.837
24156W        W83659  35.892  26.015   1.350
24157W        W83660  28.136  14.149  12.374
24158W        W83661  37.032  14.274  10.560
24159W        W83662  12.217  24.658  12.411
24160W        W83663  44.802  26.009  13.024
24161W        W83664  33.586  35.425  14.780
24162W        W83665  38.360  23.674  10.972
24163W        W83666   5.874  40.804   4.264
24164W        W83667  11.847  15.824  10.026
24165W        W83668   5.226  32.512  12.569
24166W        W83669  11.668  20.723  14.865
24167W        W83670  18.695   6.782  11.948
24168W        W83671  41.848  23.596  12.874
24169W        W83672  15.262  20.176  13.800
24170W        W83673   6.287  39.024   3.382
24171W        W83674  11.846   3.794  14.832
24172W        W83675  14.213  26.983  14.027
24173W        W83676  27.659  43.292   2.782
24174W        W83677   8.333  13.700   1.703
24175W        W83678  25.594  29.506   3.633
24176W        W83679  31.647  11.219  12.519
24177W        W83680   3.924  17.577  10.889
24178W        W83681  16.811  13.321   2.796
24179W        W83682  21.100  44.484  13.437
24180W        W83683  26.139  21.027  14.392
24181W        W83684  23.657  18.263   2.751
24182W        W83685  32.451  39.352   2.704
24183W        W83686  38.542   8.831  14.334
24184W        W83687  23.683  40.386   1.858
24185W        W83688  12.733  21.631   2.381
24186W        W83689  20.182  41.043  13.921
24187W        W83690  22.582  15.089   4.661
24188W        W83691  30.129  41.947  13.544
24189W        W83692  11.331  44.370  13.060
24190W        W83693  33.588  43.352  10.987
24191W        W83694  36.436  22.236  12.936
24192W        W83695  44.394  14.251   1.328
24193W        W83696  41.918  17.710  14.480
24194W        W83697  40.346  10.750   2.780
24195W        W83698  38.906   8.792  11.525
24196W        W83699   3.890   2.739  14.327
24197W        W83700  34.452  32.618   4.152
24198W        W83701  20.551  39.503  12.447
24199W        W83702  33.459  43.312   4.341
24200W        W83703  16.628  32.998   4.236
24201W        W83704   6.351  10.158  13.979
24202W        W83705  16.806  35.999   4.226
24203W        W83706  38.881  40.463   0.843
24204W        W83707  14.791  12.224  11.372
24205W        W83708   3.711  42.008  13.482
24206W        W83709   6.820   3.254   0.325
24207W        W83710   5.928  41.321  12.953
24208W        W83711  22.078  17.205  11.510
24209W        W83712  23.048  44.864   3.809
24210W        W83713  36.451  14.194  13.342
24211W        W83714   9.306  40.436   4.303
24212W        W83715   2.953  20.768  11.046
24213W        W83716   2.359   4.755   2.389
24214W        W83717  15.324  14.813   3.251
24215W        W83718  23.524   9.161   4.162
24216W        W83719  43.287  18.594  13.028
24217W        W83720  28.084  39.451  10.441
24218W        W83721  31.588  32.061  11.392
24219W        W83722   1.248  12.804  14.939
24220W        W83723  34.573  24.590  11.882
24221W        W83724  19.739  31.530   0.782
24222W        W83725  26.527  20.176   0.820
24223W        W83726  34.587  41.522   3.312
24224W        W83727  35.370  11.231  10.615
24225W        W83728   8.759   8.783  12.984
24226W        W83729  25.571   8.205   0.788
24227W        W83730  30.954  34.074  12.441
24228W        W83731  34.885  21.683   1.764
24229W        W83732  25.980   7.691   1.932
24230W        W83733  30.603  10.789   1.839
24231W        W83734  14.607  24.524  14.814
24232W        W83735  27.032  19.656   1.247
24233W        W83736  17.800  38.059  11.481
24234W        W83737  12.774  35.396   3.372
24235W        W83738  44.838  28.164   9.971
24236W        W83739  19.679   2.874  11.878
24237W        W83740  42.514   4.740  14.946
24238W        W83741  32.915  31.063   2.193
24239W        W83742  42.832  38.452   4.744
24240W        W83743  21.105   2.832  14.999
24241W        W83744   9.716  37.848   2.329
24242W        W83745  12.222  18.728  14.911
24243W        W83746   2.333   5.831   2.788
24244W        W83747  26.514  38.422   2.414
24245W        W83748  35.573  15.635  10.952
24246W        W83749  41.318  23.713   3.774
24247W        W83750  25.630  30.479  12.523
24248W        W83751   7.175  42.993   3.642
24249W        W83752   5.414   6.703   1.845
24250W        W83753  14.627  26.000  11.881
24251W        W83754   3.341  13.757   2.796
24252W        W83755  12.233   6.319   3.383
24253W        W83756  19.660   2.792   5.283
24254W        W83757  13.267  17.280   0.757
24255W        W83758  19.612  20.053   4.779
24256W        W83759  11.198  10.659   2.711
24257W        W83760   9.233  29.137   4.697
24258W        W83761  39.030  44.848  10.435
24259W        W83762  16.577   8.818  12.071
24260W        W83763  39.013  18.140  11.610
24261W        W83764  10.285  38.879  14.933
24262W        W83765   9.729   4.289   2.418
24263W        W83766  15.740  10.165  11.496
24264W        W83767  27.023   7.200   4.337
24265W        W83768  22.128   6.790  13.521
24266W        W83769   4.301   2.241   2.335
24267W        W83770  18.583  36.502   4.159
24268W        W83771  31.142  33.527  10.104
24269W        W83772  29.121   8.775  12.946
24270W        W83773  16.605   3.219   2.366
24271W        W83774  12.207  38.869   3.707
24272W        W83775  36.004   5.815   2.401
24273W        W83776  33.056  19.204  12.889
24274W        W83777   5.237  29.988   2.340
24275W        W83778   5.715  43.400   5.138
24276W        W83779  31.505  20.640  11.097
24277W        W83780  31.921  43.791  11.988
24278W        W83781  28.624  10.674   3.325
24279W        W83782  11.687  23.217  13.919
24280W        W83783  16.085   4.394   2.888
24281W        W83784  26.505  10.366  11.553
24282W        W83785  14.634   1.476  12.401
24283W        W83786  13.781  36.375  11.507
24284W        W83787  12.801  43.772   0.369
24285W        W83788  17.610   0.462  12.829
24286W        W83789  12.271  18.290   4.802
24287W        W83790  10.829   2.870  11.044
24288W        W83791  36.447  29.459   4.188
24289W        W83792   9.246  34.579  12.465
24290W        W83793  28.997  26.572   1.694
24291W        W83794  22.653  34.991  14.508
24292W        W83795   1.286  23.687  10.485
24293W        W83796  39.879   3.815  13.940
24294W        W83797   8.664   6.811  12.975
24295W        W83798   9.180  33.571   2.886
24296W        W83799   8.758  12.208  13.983
24297W        W83800  13.836  13.245  14.791
24298W        W83801   4.750   8.831   3.271
24299W        W83802  27.098  13.260  14.839
24300W        W83803  20.692  28.984  12.993
24301W        W83804  15.737  17.792   3.710
24302W        W83805  27.569  43.480  11.098
24303W        W83806   8.162   5.388   1.224
24304W        W83807  31.922  33.520   9.989
24305W        W83808  32.571  11.742  14.421
24306W        W83809  36.431  28.591   4.789
24307W        W83810   7.734   6.805   0.858
24308W        W83811  28.476  35.980   4.803
24309W        W83812  21.621  35.054   1.284
24310W        W83813  32.459  25.085   1.856
24311W        W83814  10.695   6.908  10.520
24312W        W83815   7.853  23.577  12.395
24313W        W83816  14.705  19.601  14.788
24314W        W83817  22.172  19.161   1.792
24315W        W83818  23.079  41.396   3.295
24316W        W83819   8.386  21.223   2.372
24317W        W83820  38.950  16.135   1.349
24318W        W83821  28.669  21.107  12.916
24319W        W83822  33.912  41.990  14.324
24320W        W83823   6.796  42.998   4.145
24321W        W83824  15.776  18.740  14.823
24322W        W83825  40.853  26.086   1.711
24323W        W83826   3.459  39.381   3.854
24324W        W83827  40.958   5.244   1.861
24325W        W83828   2.306   3.342   0.416
24326W        W83829  36.862  30.466  12.938
24327W        W83830  42.933  19.608  12.406
24328W        W83831   8.675  18.732  10.939
24329W        W83832  25.967  35.016   0.351
24330W        W83833   2.467  27.553   0.844
24331W        W83834  39.912  28.998   4.325
24332W        W83835  42.319   4.310   3.378
24333W        W83836   1.917  21.203  14.441
24334W        W83837  41.874   7.874   3.313
24335W        W83838   8.226  30.546  13.493
24336W        W83839  31.488  28.679  12.529
24337W        W83840  11.283  26.492   4.130
24338W        W83841   1.312  27.656  12.864
24339W        W83842  27.002  26.659   4.214
24340W        W83843   0.940   8.731  11.444
24341W        W83844   8.781   8.191  11.920
24342W        W83845   1.831   0.933  13.881
24343W        W83846  19.216  40.052  12.844
24344W        W83847  41.853  20.160   3.286
24345W        W83848  18.286   4.420   3.381
24346W        W83849  23.014  40.808  12.474
24347W        W83850   9.866  37.430  10.451
24348W        W83851  10.361  40.355  10.433
24349W        W83852   1.749  33.886   0.468
24350W        W83853  12.855  36.440  14.810
24351W        W83854  28.603   7.199   4.263
24352W        W83855   6.339  27.680  11.899
24353W        W83856  16.645  15.188  11.414
24354W        W83857  43.876   1.939   0.373
24355W        W83858  34.993  11.757   4.247
24356W        W83859  40.330  11.730   1.311
24357W        W83860  10.293  27.500  12.533
24358W        W83861   7.770  20.729   1.271
24359W        W83862  16.109  34.868  10.926
24360W        W83863   0.970  21.618  14.851
24361W        W83864  40.505   3.335  10.055
24362W        W83865  13.310  32.623   0.390
24363W        W83866  34.977  17.130   9.999
24364W        W83867  41.893   4.822  12.933
24365W        W83868  20.643  29.424   3.246
24366W        W83869  31.538  21.588   4.686
24367W        W83870  40.499  42.911  11.864
24368W        W83871   6.803  14.199   4.333
24369W        W83872  17.758  29.085   4.633
24370W        W83873  38.360   4.262   2.282
24371W        W83874  18.745  30.646   5.096
24372W        W83875  33.899  43.798   4.665
24373W        W83876  13.705  14.139   3.380
24374W        W83877  32.046  31.515   4.254
24375W        W83878  11.744   9.260   1.814
24376W        W83879  43.487  22.578   3.845
24377W        W83880   8.298  22.549   2.385
24378W        W83881  40.928   2.741   1.348
24379W        W83882  43.774  28.147  10.549
24380W        W83883   2.456  24.668   1.750
24381W        W83884  27.042  38.828  12.022
24382W        W83885  36.929  31.973   2.213
24383W        W83886  23.200  27.990  13.907
24384W        W83887  31.511  35.406  13.544
24385W        W83888  10.178  11.309  12.509
24386W        W83889  34.411  21.552   2.233
24387W        W83890  27.157   4.924  11.564
24388W        W83891  29.583  18.554  13.516
24389W        W83892  12.843  33.066   1.367
24390W        W83893  20.754   5.257  12.465
24391W        W83894   5.762   9.357   2.286
24392W        W83895  20.125  43.312   0.838
24393W        W83896  44.288  24.024  12.012
24394W        W83897  19.674   7.400   2.745
24395W        W83898  41.040  26.034   3.306
24396W        W83899  13.241  30.941  10.534
24397W        W83900  12.291   5.410  11.559
24398W        W83901   2.450   4.708  11.472
24399W        W83902  35.376  16.158  12.009
24400W        W83903  18.198  36.375  12.864
24401W        W83904  36.542   2.248  14.774
24402W        W83905  23.190  37.938  14.395
24403W        W83906   1.378  32.034  13.905
24404W        W83907  43.871  27.036  10.093
24405W        W83908  28.165  39.963  14.461
24406W        W83909   7.840  26.477   0.752
24407W        W83910  44.833  37.971  12.400
24408W        W83911   6.362   2.815  12.430
24409W        W83912  38.500  12.270  11.543
24410W        W83913  19.044  41.006  13.420
24411W        W83914  25.166  29.948   0.790
24412W        W83915  28.605  21.133   0.331
24413W        W83916  26.145  37.572  13.971
24414W        W83917  31.132  17.709  12.984
24415W        W83918  10.763  41.297  12.032
24416W        W83919  42.300  38.540  12.089
24417W        W83920  17.702  23.596   0.777
24418W        W83921  42.842  34.878  13.024
24419W        W83922  16.751  44.278  13.409
24420W        W83923   1.744  30.963  11.394
24421W        W83924  26.112  30.055   2.402
24422W        W83925  27.671  23.998  10.508
24423W        W83926  18.756  43.920  12.340
24424W        W83927  22.031  20.192   3.831
24425W        W83928   0.925  30.656  10.065
24426W        W83929  10.208  43.421  10.534
24427W        W83930  17.307  39.457  12.574
24428W        W83931  18.064   3.935  10.484
24429W        W83932  41.504   7.792   1.382
24430W        W83933   2.819  19.563  11.517
24431W        W83934   2.850   9.843   3.296
24432W        W83935  15.230  30.935  10.593
24433W        W83936  23.221  35.992  10.927
24434W        W83937  30.436  35.585  10.532
24435W        W83938  39.845  15.272  11.073
24436W        W83939  23.065  37.487   4.744
24437W        W83940  32.977  11.144  12.568
24438W        W83941  17.127  41.947   1.718
24439W        W83942  21.648  44.961  14.004
24440W        W83943  44.762  36.894   0.896
24441W        W83944  36.376  37.345   0.960
24442W        W83945   5.771   3.249   2.332
24443W        W83946  42.321   7.678  10.487
24444W        W83947  10.781  36.879  11.055
24445W        W83948  15.671   5.354   0.753
24446W        W83949   3.442  36.510  12.405
24447W        W83950  14.647  16.095  11.595
24448W        W83951  14.801  16.155   0.892
24449W        W83952  19.587  12.691  13.809
24450W        W83953  39.920  19.696  14.361
24451W        W83954   5.705   1.888   4.300
24452W        W83955   6.714   9.842  14.490
24453W        W83956   4.851  15.753  10.931
24454W        W83957  33.617  13.182   1.253
24455W        W83958  31.927   9.338   1.246
24456W        W83959   3.918   1.410  13.440
24457W        W83960  29.660   4.881   5.297
24458W        W83961   4.446  29.434  10.980
24459W        W83962  43.011   7.402  11.497
24460W        W83963  14.168  30.043  10.643
24461W        W83964   0.869   2.364  11.429
24462W        W83965   7.750   4.420  13.339
24463W        W83966   7.210  41.520  12.463
24464W        W83967   3.911  37.508   4.792
24465W        W83968  18.184  13.313  12.081
24466W        W83969  19.257   1.969  12.372
24467W        W83970  36.414   7.784   4.834
24468W        W83971  25.170  22.244  12.494
24469W        W83972  43.357  20.559  13.015
24470W        W83973  15.310  23.179  10.908
24471W        W83974  42.972  42.483  14.018
24472W        W83975  20.053  31.500  13.019
24473W        W83976  15.674  14.777   1.219
24474W        W83977  23.716  35.992   2.868
24475W        W83978  12.351  27.515  12.086
24476W        W83979   6.394  14.757   4.212
24477W        W83980  31.095  36.431   1.262
24478W        W83981  36.074  12.773   0.318
24479W        W83982  37.016  14.812   4.284
24480W        W83983  25.199  22.614  13.874
24481W        W83984  43.769  25.196   3.194
24482W        W83985  16.280  33.419   0.386
24483W        W83986  13.264  12.746  13.935
24484W        W83987  30.060  33.495  14.803
24485W        W83988  12.741  21.534   0.851
24486W        W83989  18.638  27.487   0.251
24487W        W83990  14.661  30.507   0.341
24488W        W83991  13.617  19.174   3.745
24489W        W83992  37.971  33.507   3.157
24490W        W83993   1.294  29.449  11.463
24491W        W83994  33.408  40.322   2.759
24492W        W83995   4.348   5.847  11.018
24493W        W83996  19.704  19.717  13.543
24494W        W83997  39.937  23.138  13.995
24495W        W83998  17.143  19.709   0.439
24496W        W83999  21.091  17.080  11.968
24497W        W84000  35.417  44.993  13.438
24498W        W84001  22.517  41.836   0.392
24499W        W84002  42.017  27.483  12.981
24500W        W84003  11.364  42.434  13.062
24501W        W84004  21.132  33.589   1.417
24502W        W84005  44.361  14.656  14.418
24503W        W84006  41.534  17.226   2.787
24504W        W84007  13.657  20.577  14.486
24505W        W84008  41.017   9.378   0.918
24506W        W84009  19.680  19.048   3.852
24507W        W84010  20.044  13.304  10.465
24508W        W84011  33.484  35.562   1.817
24509W        W84012  33.903  38.391   4.637
24510W        W84013   4.856  22.031   2.785
24511W        W84014  42.304  12.657  14.806
24512W        W84015  35.893  28.461   0.832
24513W        W84016  27.136  37.487   3.163
24514W        W84017  23.212   0.811  13.034
24515W        W84018  31.022  15.814   2.821
24516W        W84019  17.145  26.521   5.089
24517W        W84020  34.013  34.519   0.426
24518W        W84021  42.520  12.772   4.274
24519W        W84022  23.725  11.187   2.697
24520W        W84023  22.062  34.094  11.929
24521W        W84024  38.475  30.480   1.430
24522W        W84025  17.655  34.386  10.971
24523W        W84026  14.318  15.206   4.187
24524W        W84027  12.837   7.792   0.941
24525W        W84028  38.907  21.545  10.130
24526W        W84029  17.655   9.318  14.398
24527W        W84030   3.342  16.792   2.681
24528W        W84031  24.479   3.949  12.998
24529W        W84032  38.059  33.879  14.359
24530W        W84033  25.655  44.900  11.386
24531W        W84034  10.205  40.843  14.407
24532W        W84035  24.625   7.825  14.422
24533W        W84036  11.256   4.291  13.473
24534W        W84037   7.388  37.000  13.791
24535W        W84038  37.937  40.039   2.399
24536W        W84039  15.685   2.379  13.813
24537W        W84040  44.316  19.562  13.909
24538W        W84041  19.588   3.739   1.746
24539W        W84042   1.975   0.973  11.504
24540W        W84043  22.673   6.859  11.487
24541W        W84044  12.236  16.703   9.459
24542W        W84045  42.462  39.973   3.646
24543W        W84046  15.275  35.865  14.923
24544W        W84047  30.036  24.230  13.424
24545W        W84048   2.831  14.728   1.853
24546W        W84049  43.987  44.800   4.301
24547W        W84050   2.255  34.909   3.230
24548W        W84051  14.247  20.045   1.451
24549W        W84052  31.131  18.069   4.332
24550W        W84053  31.596  40.809  11.594
24551W        W84054  15.237  38.875   4.144
24552W        W84055  30.094   3.878   0.479
24553W        W84056  43.799  23.010  13.952
24554W        W84057  17.217  29.548   0.295
24555W        W84058  44.270  27.499   3.677
24556W        W84059   0.354  24.196   4.152
24557W        W84060  36.563   1.892   0.345
24558W        W84061  32.133  13.180   1.291
24559W        W84062  30.985  18.155  13.334
24560W        W84063  42.298   6.239  11.055
24561W        W84064  23.666  25.199  12.546
24562W        W84065  25.640   9.332  14.442
24563W        W84066   8.213  25.206  13.849
24564W        W84067  32.609  41.973   1.928
24565W        W84068  28.102  12.293  14.348
24566W        W84069  43.888  27.587   2.210
24567W        W84070  37.371  35.398  13.456
24568W        W84071  37.961  19.589   4.307
24569W        W84072  10.729   6.714   4.703
24570W        W84073  38.432  38.024   3.797
24571W        W84074  14.289  22.621   0.476
24572W        W84075   5.402  34.953   2.857
24573W        W84076   3.273  21.117  13.354
24574W        W84077  30.465  42.394  11.948
24575W        W84078  32.898  43.376   3.243
24576W        W84079   8.376   1.941  14.468
24577W        W84080  16.276  31.548  12.091
24578W        W84081  18.110  19.177  13.502
24579W        W84082  21.156  21.752   2.255
24580W        W84083  22.056  13.170   1.927
24581W        W84084  37.836  34.376  11.431
24582W        W84085   2.750  21.615  12.343
24583W        W84086  12.634  43.778   4.118
24584W        W84087  11.142  12.157   0.800
24585W        W84088   2.868  29.425   1.383
24586W        W84089  34.442  27.042  11.427
24587W        W84090  25.217  13.714   1.220
24588W        W84091  30.643  23.062   1.278
24589W        W84092   5.218  14.126   2.298
24590W        W84093   2.934  34.973   2.893
24591W        W84094  32.539  21.135   2.180
24592W        W84095  23.193  23.215   2.364
24593W        W84096  25.471  10.715   1.212
24594W        W84097  14.806  35.032  13.312
24595W        W84098  38.497  40.331  13.942
24596W        W84099  23.727  18.640  13.429
24597W        W84100  44.928  10.148  13.410
24598W        W84101  16.775  12.759   2.815
24599W        W84102   2.780  44.437  10.953
24600W        W84103  17.211   5.339   1.903
24601W        W84104   5.792   3.410  14.374
24602W        W84105  37.398  35.530  14.851
24603W        W84106  16.152  27.110   3.347
24604W        W84107  37.376   3.309   0.462
24605W        W84108  11.131  12.257  10.945
24606W        W84109  21.214   7.205  14.428
24607W        W84110  11.221  10.256  14.953
24608W        W84111   4.742  13.130   4.803
24609W        W84112  15.680   9.771   0.321
24610W        W84113  34.088  29.965   1.211
24611W        W84114   4.915  44.848  14.374
24612W        W84115  39.992  39.438  11.945
24613W        W84116  10.370   4.726  10.053
24614W        W84117  32.019   2.849   4.174
24615W        W84118  32.034  40.387  11.447
24616W        W84119  17.587   4.748   4.306
24617W        W84120  15.657  31.489   0.434
24618W        W84121  26.689  28.614  13.969
24619W        W84122  39.915  16.195   1.913
24620W        W84123  13.284  11.642   3.302
24621W        W84124   4.855  31.495  10.620
24622W        W84125  40.853  24.198   1.356
24623W        W84126  18.280  19.602   2.193
24624W        W84127  35.393  29.019   0.872
24625W        W84128  13.612   5.408   3.827
24626W        W84129  43.004  42.523  14.807
24627W        W84130  35.101  35.065  13.319
24628W        W84131  29.070  21.055   2.799
24629W        W84132  34.454  27.554  13.398
24630W        W84133  44.992   2.316  13.488
24631W        W84134  14.163  11.238  11.023
24632W        W84135   2.802   2.345   4.115
24633W        W84136  32.524   2.927  14.350
24634W        W84137  39.443  36.076   1.732
24635W        W84138  38.964  44.794  11.609
24636W        W84139  25.102  32.918   2.308
24637W        W84140  25.128  22.050   3.166
24638W        W84141  35.451  27.037   1.281
24639W        W84142  31.583  12.122   1.712
24640W        W84143  19.665  26.174  13.501
24641W        W84144  44.488  17.614  12.088
24642W        W84145  38.408  24.644  12.377
24643W        W84146   5.893  16.666  14.973
24644W        W84147  40.972  34.390  12.444
24645W        W84148   2.276  38.364   2.777
24646W        W84149  32.960  32.942  14.381
24647W        W84150  13.821   7.709  11.059
24648W        W84151  34.418  13.158   4.714
24649W        W84152  26.587  11.265   3.692
24650W        W84153  44.000  11.740   3.795
24651W        W84154  40.323   2.303   2.795
24652W        W84155  10.705  23.578   0.478
24653W        W84156  22.054  34.574   3.814
24654W        W84157   5.914   0.906   3.742
24655W        W84158  23.229   5.251   4.827
24656W        W84159  30.606  42.886  10.551
24657W        W84160  39.434  26.191  12.456
24658W        W84161  37.998  11.793   1.732
24659W        W84162  15.808   1.361   3.298
24660W        W84163  40.036   7.341   5.280
24661W        W84164  12.815  38.390  11.095
24662W        W84165  10.362  11.140  11.602
24663W        W84166  34.407   2.833  12.501
24664W        W84167   4.810  13.110  10.437
24665W        W84168  14.631  41.922  11.525
24666W        W84169  18.273  44.397   1.435
24667W        W84170   5.871  41.879   2.761
24668W        W84171  27.663   9.775   3.322
24669W        W84172  44.977   4.357   2.811
24670W        W84173  27.994  17.066   1.811
24671W        W84174  13.214  19.191   3.293
24672W        W84175  22.161  27.085  13.528
24673W        W84176  28.447  38.328  10.631
24674W        W84177   6.705  16.086   3.210
24675W        W84178  39.830  10.213  10.147
24676W        W84179  19.612  12.785  14.944
24677W        W84180  35.399  42.411   2.867
24678W        W84181  35.084  18.207   2.756
24679W        W84182  27.081  18.736  12.466
24680W        W84183  18.675   3.954  11.979
24681W        W84184   0.769  22.029   1.929
24682W        W84185  41.913   8.686  14.311
24683W        W84186   3.760   5.747   1.445
24684W        W84187  28.132   8.360   0.281
24685W        W84188  41.509  36.366   1.774
24686W        W84189  44.959  44.468   5.240
24687W        W84190  41.830  26.703   9.951
24688W        W84191  23.565  21.639   1.744
24689W        W84192  11.178  21.573   0.357
24690W        W84193  37.973  18.292  13.035
24691W        W84194  23.226  43.857   0.443
24692W        W84195  21.084  20.561   1.787
24693W        W84196  38.445  41.893   1.370
24694W        W84197   6.807  42.947  13.850
24695W        W84198  21.149  38.036   0.259
24696W        W84199  15.704  19.738   4.268
24697W        W84200   2.248  19.202   1.697
24698W        W84201  16.639   0.301   3.833
24699W        W84202   0.455   6.298   4.299
24700W        W84203  13.613  23.568  14.854
24701W        W84204  39.510  33.592   3.364
24702W        W84205  44.914  39.836   3.243
24703W        W84206  34.984  34.080  11.575
24704W        W84207  27.637  31.998  14.767
24705W        W84208  12.699  11.355   3.688
24706W        W84209   9.852  34.551  12.988
24707W        W84210  41.855  12.161  14.426
24708W        W84211  13.142  27.618  12.060
24709W        W84212  39.878  29.555  12.001
24710W        W84213  14.295  41.500  14.012
24711W        W84214  30.115  28.670   1.799
24712W        W84215   5.899  14.328   1.251
24713W        W84216  37.380  27.466  11.985
24714W        W84217   9.262  24.154   1.210
24715W        W84218  13.242  25.684  11.422
24716W        W84219   8.738   8.333   4.229
24717W        W84220  36.949   6.734  14.014
24718W        W84221  35.044  18.250   1.266
24719W        W84222  31.110   6.798   0.408
24720W        W84223  21.594  11.774  13.953
24721W        W84224  26.027  35.468  13.024
24722W        W84225  23.657  30.510  12.943
24723W        W84226  27.170   3.852   0.396
24724W        W84227   3.299  15.268  14.422
24725W        W84228  31.420  21.528  11.120
24726W        W84229  36.863  11.358   3.336
24727W        W84230   5.886   0.973  11.054
24728W        W84231  11.848  25.989  12.944
24729W        W84232  19.227  31.099   0.273
24730W        W84233  17.236  23.659  13.541
24731W        W84234  31.914  40.835   0.850
24732W        W84235  31.505   2.295   0.345
24733W        W84236  26.493   5.719  10.624
24734W        W84237  41.369   1.340   0.343
24735W        W84238  25.069  20.688  12.339
24736W        W84239  40.887  43.496   2.696
24737W        W84240  33.104  29.096  12.090
24738W        W84241  40.822   9.830  11.463
24739W        W84242  40.460   5.335   1.772
24740W        W84243   0.462  38.490   3.649
24741W        W84244  37.397  29.610   4.761
24742W        W84245  38.991  11.298  11.044
24743W        W84246  26.541  13.737   2.356
24744W        W84247  32.610  23.629  10.448
24745W        W84248   0.418  22.683  12.886
24746W        W84249  37.938  43.003   0.738
24747W        W84250  17.117  37.844   3.159
24748W        W84251  22.104  29.006   2.272
24749W        W84252  24.028   5.764  13.032
24750W        W84253  15.751  13.313  12.474
24751W        W84254  27.025  40.348  12.050
24752W        W84255  42.866   4.826  11.904
24753W        W84256  12.149  44.890  11.576
24754W        W84257  19.236  39.461   4.616
24755W        W84258  33.973  36.069   0.476
24756W        W84259   8.787  34.474   3.273
24757W        W84260  18.723  28.641  11.555
24758W        W84261  43.287  25.571  13.334
24759W        W84262  24.518  26.081  11.514
24760W        W84263  24.009   2.750  11.569
24761W        W84264  44.395  15.781   4.174
24762W        W84265   5.862  18.740   4.724
24763W        W84266  12.701  15.727  10.598
24764W        W84267  41.426  14.675  10.595
24765W        W84268  30.654  25.173   0.799
24766W        W84269  32.426  42.452  14.318
24767W        W84270   1.876  29.613  13.387
24768W        W84271  27.644   7.892  13.416
24769W        W84272  16.717  22.711   2.667
24770W        W84273   5.292   8.794  11.880
24771W        W84274  15.235  24.071  12.003
24772W        W84275  13.746  34.596  13.428
24773W        W84276  17.705  20.090  10.567
24774W        W84277   8.822   8.725  14.487
24775W        W84278  10.687   1.882   0.279
24776W        W84279  12.158  39.474   3.353
24777W        W84280  12.811  28.089  12.910
24778W        W84281   0.325  41.474   0.872
24779W        W84282   2.459  19.115   3.785
24780W        W84283  17.064   2.832  14.315
24781W        W84284  38.883  36.073   2.672
24782W        W84285   7.795   4.349  11.532
24783W        W84286   6.754  23.528  13.921
24784W        W84287  32.433   2.963   0.468
24785W        W84288   0.311  19.237  14.778
24786W        W84289  34.469  16.669   3.774
24787W        W84290  37.453  26.067   3.724
24788W        W84291  38.531  42.973   3.182
24789W        W84292  20.206  42.014   2.291
24790W        W84293  44.265  20.200  13.829
24791W        W84294  22.696  16.766  11.019
24792W        W84295  18.176  28.541  14.365
24793W        W84296  17.579  16.173  12.396
24794W        W84297   9.746  42.929  13.430
24795W        W84298  18.761  17.267  13.315
24796W        W84299  28.578  42.785   2.276
24797W        W84300  41.860  44.792  10.405
24798W        W84301  39.993  42.832   0.304
24799W        W84302  37.547  12.770  13.314
24800W        W84303  15.716   0.292   4.601
24801W        W84304  26.096  28.021   3.247
24802W        W84305  27.971  29.650  14.890
24803W        W84306  37.045   5.299   5.631
24804W        W84307  11.300   6.278   3.835
24805W        W84308  30.464  34.046  12.040
24806W        W84309  32.397  25.186  12.474
24807W        W84310  22.632  15.706   2.351
24808W        W84311   4.897  28.580  12.529
24809W        W84312  15.786  34.021   4.354
24810W        W84313   7.198   2.328   0.870
24811W        W84314  24.598  20.244  12.513
24812W        W84315  13.209  36.484  11.124
24813W        W84316  15.272  44.010  13.013
24814W        W84317  14.794  30.445   5.100
24815W        W84318  17.649  44.918   1.264
24816W        W84319  26.072   4.409  13.420
24817W        W84320  30.114  21.715  12.907
24818W        W84321  14.589  31.598   3.837
24819W        W84322   5.248  13.685  11.962
24820W        W84323   1.845  33.408   0.473
24821W        W84324   7.262  30.513  14.841
24822W        W84325  41.865  36.369  13.005
24823W        W84326  39.842  24.189  11.098
24824W        W84327   1.435  44.432  10.580
24825W        W84328  31.062  17.730   1.727
24826W        W84329  41.987  25.668  10.410
24827W        W84330  13.803  41.042   3.670
24828W        W84331  13.320  38.411  14.859
24829W        W84332  33.529  24.607  12.827
24830W        W84333  40.002  27.619  14.382
24831W        W84334   5.240   4.258  12.437
24832W        W84335   9.386  12.279   9.958
24833W        W84336  29.521  20.732   4.822
24834W        W84337  37.072   2.268   1.754
24835W        W84338  12.853  26.953  11.509
24836W        W84339   7.902   8.689  12.069
24837W        W84340  28.615  27.978   3.856
24838W        W84341  10.816   3.393   0.793
24839W        W84342  17.166  23.685   1.322
24840W        W84343  30.567   4.316   0.251
24841W        W84344  29.430  15.584  13.927
24842W        W84345  39.525  21.602  12.014
24843W        W84346   3.763   2.742   0.418
24844W        W84347  38.416  28.659  14.418
24845W        W84348  32.616  39.010   1.758
24846W        W84349  11.756  33.516   0.787
24847W        W84350  13.230   8.766  13.381
24848W        W84351  40.469  44.988   0.342
24849W        W84352  31.096  28.122   1.277
24850W        W84353  40.961  34.515   0.279
24851W        W84354  40.990   8.841  11.126
24852W        W84355  15.613   3.729   3.267
24853W        W84356  37.989  17.738  14.327
24854W        W84357  22.098  43.463  14.013
24855W        W84358  25.036   4.867   1.917
24856W        W84359  15.197  37.433  10.446
24857W        W84360  34.012   9.314  11.047
24858W        W84361  43.949  42.357  14.900
24859W        W84362  11.311  34.430  11.903
24860W        W84363  34.528  11.169   4.812
24861W        W84364  17.228   9.874   1.934
24862W        W84365  23.032  27.002   3.187
24863W        W84366  27.174  44.343  10.437
24864W        W84367  41.380   5.704  13.511
24865W        W84368  27.609  25.613   1.414
24866W        W84369   9.220   6.778  12.852
24867W        W84370  16.237  32.068   0.418
24868W        W84371  15.161  38.011  10.417
24869W        W84372  23.595   3.368   3.652
24870W        W84373   7.378   9.714   2.365
24871W        W84374  32.039  24.618   1.703
24872W        W84375   4.409  40.335   2.860
24873W        W84376  40.922  32.592   0.443
24874W        W84377   0.407  21.749   2.897
24875W        W84378  26.075  33.526   2.666
24876W        W84379   9.336  32.934  11.044
24877W        W84380  18.715  20.147   1.751
24878W        W84381  35.374  25.964   0.820
24879W        W84382  12.847  42.374   1.724
24880W        W84383  24.032  39.450   4.187
24881W        W84384  40.025  10.318  13.885
24882W        W84385  13.158  16.218   1.771
24883W        W84386   9.882  37.916   4.615
24884W        W84387  28.455   1.886   0.299
24885W        W84388  27.511  24.090   1.837
24886W        W84389  12.360   2.449  13.897
24887W        W84390  35.507   6.707  10.468
24888W        W84391   2.862  17.170  14.294
24889W        W84392  12.312   7.339   3.246
24890W        W84393   5.430  26.099   4.829
24891W        W84394  26.157  43.953  13.054
24892W        W84395  23.114  42.942  11.585
24893W        W84396  36.568   4.221   2.340
24894W        W84397  21.117  32.068   9.970
24895W        W84398  38.459  33.454  12.377
24896W        W84399  14.828  13.797  10.625
24897W        W84400   1.435  19.148  12.852
24898W        W84401  38.527   4.882  10.096
24899W        W84402  29.585  20.155  11.472
24900W        W84403  43.005  36.403  11.482
24901W        W84404   4.324  39.924   4.634
24902W        W84405  43.795  26.493   0.335
24903W        W84406  44.458   4.709   2.886
24904W        W84407  25.161  11.353   3.273
24905W        W84408  20.702  14.316  12.559
24906W        W84409  34.466  36.076  13.536
24907W        W84410  44.435  42.921  11.967
24908W        W84411   6.780  25.493   0.831
24909W        W84412  27.491  37.851  12.367
24910W        W84413  43.470  14.824   2.742
24911W        W84414  31.933  26.005   4.710
24912W        W84415   9.327   9.676   0.740
24913W        W84416  37.467   7.299   4.287
24914W        W84417   9.235   5.310  13.397
24915W        W84418  13.321  25.115   2.375
24916W        W84419  37.356   1.460   3.370
24917W        W84420  39.381  41.487  14.472
24918W        W84421  28.967  24.087   3.328
24919W        W84422   7.850   0.949   4.753
24920W        W84423  29.569   7.262   4.271
24921W        W84424  41.796  43.917  11.422
24922W        W84425   2.851  25.986   4.211
24923W        W84426  42.928  18.718  14.031
24924W        W84427  30.117   9.840   5.317
24925W        W84428  11.235  29.623  12.527
24926W        W84429  18.605  14.748   4.837
24927W        W84430  43.988  20.248   2.764
24928W        W84431   8.230   3.461   2.386
24929W        W84432   5.278  30.648   2.694
24930W        W84433  31.539  13.235  11.464
24931W        W84434  39.378   0.750  11.073
24932W        W84435   1.795  40.031   3.651
24933W        W84436  20.607  41.793   0.880
24934W        W84437  19.095  42.388   0.333
24935W        W84438   5.802  17.140  14.883
24936W        W84439  42.354   0.920   3.271
24937W        W84440  24.137  19.156   1.836
24938W        W84441  19.671  13.621  13.458
24939W        W84442  37.962  26.197   1.924
24940W        W84443  44.306   5.250   0.445
24941W        W84444  20.035  41.831   4.758
24942W        W84445  42.961   6.866   0.446
24943W        W84446  21.255  31.511  11.012
24944W        W84447  16.600  24.118  12.384
24945W        W84448   6.713  30.953  13.419
24946W        W84449  21.110  23.620   2.885
24947W        W84450  33.907  40.535   4.229
24948W        W84451   6.380   1.893  10.977
24949W        W84452  30.926  27.948   5.579
24950W        W84453  16.077  33.883   4.210
24951W        W84454  35.084  37.468  10.110
24952W        W84455  32.104   8.864  12.345
24953W        W84456   4.764   8.796   2.861
24954W        W84457  31.572  33.479  11.947
24955W        W84458  36.517  16.314  10.454
24956W        W84459  13.124  15.745   5.285
24957W        W84460   7.306  19.672  12.092
24958W        W84461  15.623  33.494  13.011
24959W        W84462  43.865  24.606  11.588
24960W        W84463   8.188  15.766  13.486
24961W        W84464  37.381  13.200   0.911
24962W        W84465  30.587  19.197  13.057
24963W        W84466   6.919  21.571   0.397
24964W        W84467   3.803  35.405  11.946
24965W        W84468  36.977   7.214   3.673
24966W        W84469  33.901  15.230  10.967
24967W        W84470   5.761  38.502  14.886
24968W        W84471  21.602   3.416  10.894
24969W        W84472  14.334  24.539   1.366
24970W        W84473  28.087  20.691  13.462
24971W        W84474  11.762  37.575  10.091
24972W        W84475  29.057  12.168   4.256
24973W        W84476   8.196  41.480   4.682
24974W        W84477   4.223   3.914   0.844
24975W        W84478  20.562   0.363   2.837
24976W        W84479  31.435  44.848  14.990
24977W        W84480   2.379  14.741   0.791
24978W        W84481  35.382  41.980  11.949
24979W        W84482  21.685  35.990   4.621
24980W        W84483  19.246  31.114  13.821
24981W        W84484  43.982   8.381   3.357
24982W        W84485   1.853   8.824   0.394
24983W        W84486   5.797  40.828   3.703
24984W        W84487  22.690  40.472  13.807
24985W        W84488   0.797  26.084   2.876
24986W        W84489  12.679  23.160  11.494
24987W        W84490  26.198  32.048  11.527
24988W        W84491  24.592   7.261   3.308
24989W        W84492   6.336   2.922  10.565
24990W        W84493  43.334  10.213   2.746
24991W        W84494  17.724  18.568  10.967
24992W        W84495  42.333   3.276  13.902
24993W        W84496   7.404  41.869   1.763
24994W        W84497  25.499  27.688  13.968
24995W        W84498  21.112  40.364  11.861
24996W        W84499  26.611   1.286   2.269
24997W        W84500  23.020  30.548  13.485
24998W        W84501  28.639  41.333   2.784
24999W        W84502  43.482  41.461   0.432
25000W        W84503  33.548  25.978   1.408
25001W        W84504  21.022  15.805  14.482
25002W        W84505  10.718   0.327  11.493
25003W        W84506  37.953  34.467   5.130
25004W        W84507  35.880  39.831  13.919
25005W        W84508  42.019  18.225   2.796
25006W        W84509  35.872   7.745   2.254
25007W        W84510  28.147  16.164   1.422
25008W        W84511  12.824  24.046  12.435
25009W        W84512  16.643   2.407  12.452
25010W        W84513  20.746  14.297  10.937
25011W        W84514  20.747  24.683   0.909
25012W        W84515   4.306  26.964   4.339
25013W        W84516  30.571  17.245   0.309
25014W        W84517  42.331  11.713   0.425
25015W        W84518  12.641   8.743  14.390
25016W        W84519  18.142  44.961  11.911
25017W        W84520  38.875  10.854  13.821
25018W        W84521   4.787  44.444  12.902
25019W        W84522  17.699  10.735   1.846
25020W        W84523  43.313  15.117  13.383
25021W        W84524  28.436  41.295  10.892
25022W        W84525   1.958  18.272   0.874
25023W        W84526  21.725  40.348   0.297
25024W        W84527  15.281  12.642  12.554
25025W        W84528  18.723  27.049   3.700
25026W        W84529  19.560  19.217  11.111
25027W        W84530  20.059  24.062   1.698
25028W        W84531  27.993  11.705   1.710
25029W        W84532  22.516  31.548  10.553
25030W        W84533  29.578   2.869  12.954
25031W        W84534  35.493  37.931   3.827
25032W        W84535   9.254  32.404  10.133
25033W        W84536  28.507   8.376   2.303
25034W        W84537  10.287  43.797   3.353
25035W        W84538  21.714  43.967   4.333
25036W        W84539   5.352  26.691   4.653
25037W        W84540   0.839  34.537   0.924
25038W        W84541   8.387  41.946   4.137
25039W        W84542  33.118  33.486   1.354
25040W        W84543  36.570  14.827  14.508
25041W        W84544   0.264  25.576  11.007
25042W        W84545  34.459  35.528  12.520
25043W        W84546  23.078  11.735  10.433
25044W        W84547  41.412  30.463   4.630
25045W        W84548  31.466  29.476   1.797
25046W        W84549  38.545  25.606  14.492
25047W        W84550   5.692  22.603  11.546
25048W        W84551   8.685  14.181  13.456
25049W        W84552  29.536  30.517  12.983
25050W        W84553  11.787  31.438  11.387
25051W        W84554  31.429  28.032   1.424
25052W        W84555  27.525  41.842  13.519
25053W        W84556   4.232  28.019   4.217
25054W        W84557  35.991  34.003  10.424
25055W        W84558  16.307  26.087   0.303
25056W        W84559  42.481  21.228   0.303
25057W        W84560  29.599   9.241   2.373
25058W        W84561  10.264  20.242   3.337
25059W        W84562  39.868  25.714  14.884
25060W        W84563   1.357  40.446  14.775
25061W        W84564  23.720  39.891   2.683
25062W        W84565  21.597  27.124   3.657
25063W        W84566  31.104  22.663  11.483
25064W        W84567  15.599  16.120  12.500
25065W        W84568   9.653  28.118   0.750
25066W        W84569  17.792  25.122   1.798
25067W        W84570  40.017  12.358  13.935
25068W        W84571  11.852  29.475   1.930
25069W        W84572  41.368  26.587   2.753
25070W        W84573   0.441  10.364   4.810
25071W        W84574   6.699  40.364   3.255
25072W        W84575  41.901   5.699  13.430
25073W        W84576  32.951  40.851   0.912
25074W        W84577  32.437   2.306  13.860
25075W        W84578  37.082  16.776  14.369
25076W        W84579  27.050  11.166  12.942
25077W        W84580  12.348   9.288  12.018
25078W        W84581  37.390  12.618  10.960
25079W        W84582  31.067  33.385   0.271
25080W        W84583  38.486  22.624  13.875
25081W        W84584  37.353  17.632   1.788
25082W        W84585  24.029   5.849   4.138
25083W        W84586  11.177  17.698  14.977
25084W        W84587  17.249  31.064  13.372
25085W        W84588  44.840  38.569  13.909
25086W        W84589  22.053  30.432  14.872
25087W        W84590   2.882  38.435   4.773
25088W        W84591  23.492  33.403   0.754
25089W        W84592  21.523   0.949  14.889
25090W        W84593  29.048  28.959  13.332
25091W        W84594  23.597  15.583   1.788
25092W        W84595   5.244  29.443   1.876
25093W        W84596  42.923   1.336  14.505
25094W        W84597  20.697   6.782   4.349
25095W        W84598  32.418  41.976  11.957
25096W        W84599   7.797  44.461  14.007
25097W        W84600  44.978   3.901   0.920
25098W        W84601   8.386  37.870   0.953
25099W        W84602   6.755   8.897  14.938
25100W        W84603  34.558   3.739   4.211
25101W        W84604  18.767  12.785  10.534
25102W        W84605  11.629   0.975   0.741
25103W        W84606  42.896  16.106  13.041
25104W        W84607   1.444  29.661  10.439
25105W        W84608  38.464  44.328   3.773
25106W        W84609   7.902  29.986   3.844
25107W        W84610   7.398  34.083  12.942
25108W        W84611  15.690  29.604   2.793
25109W        W84612   3.899  18.599   0.249
25110W        W84613  42.363   3.780   3.731
25111W        W84614  27.531  25.099   2.413
25112W        W84615  38.393  13.657  14.333
25113W        W84616  22.588  19.072  10.416
25114W        W84617  36.486  35.952  11.872
25115W        W84618  30.907  13.667  10.951
25116W        W84619  41.827  44.900   1.293
25117W        W84620   9.151  36.507  11.562
25118W        W84621   7.727  19.165   2.663
25119W        W84622  37.070  22.622   3.749
25120W        W84623  36.922  20.053  13.353
25121W        W84624  12.118  42.465  11.447
25122W        W84625   3.335  31.986   3.831
25123W        W84626  27.061  32.560   1.786
25124W        W84627   2.464  33.616   2.786
25125W        W84628  32.629  38.866   0.270
25126W        W84629  11.713   1.733  14.329
25127W        W84630  39.029  41.874   4.834
25128W        W84631  25.018  30.964  12.969
25129W        W84632  19.119   4.212  12.529
25130W        W84633  24.525   8.839  13.905
25131W        W84634  22.640  14.148   3.796
25132W        W84635  40.476  10.181  11.606
25133W        W84636   3.430  35.570  11.483
25134W        W84637  15.087  18.732   3.341
25135W        W84638  14.227   2.269  13.960
25136W        W84639   1.916  12.313   4.745
25137W        W84640  44.284  30.576   1.400
25138W        W84641   9.795  25.076   4.723
25139W        W84642  17.743  13.831  11.084
25140W        W84643  26.572  27.457   2.746
25141W        W84644   4.883  27.944   3.689
25142W        W84645   5.891  41.489   2.326
25143W        W84646   2.905  32.944   2.781
25144W        W84647   8.392  24.607   3.766
25145W        W84648  27.999  42.786   0.823
25146W        W84649  30.015   7.368   2.269
25147W        W84650   8.732  35.090  10.892
25148W        W84651   3.953  34.042  11.947
25149W        W84652  10.823   2.344  13.043
25150W        W84653   9.309  37.479  12.343
25151W        W84654  17.166  34.952  11.908
25152W        W84655  19.739  30.482  12.048
25153W        W84656  27.471  18.787   3.679
25154W        W84657  16.586  25.209   4.618
25155W        W84658  20.690  11.647  10.425
25156W        W84659  16.130  16.727  14.360
25157W        W84660  32.426  11.738  11.415
25158W        W84661  20.167  33.093  12.908
25159W        W84662  10.711   6.229   4.296
25160W        W84663  34.073  14.259  13.375
25161W        W84664  41.295  13.737   4.347
25162W        W84665  38.044  12.837   3.752
25163W        W84666  11.176  39.320  13.354
25164W        W84667  39.869  36.019   2.359
25165W        W84668  16.216   2.758   3.855
25166W        W84669  18.291  35.060   2.767
25167W        W84670  15.698  36.494  13.533
25168W        W84671  20.725   8.711   0.907
25169W        W84672  24.594  11.312  10.632
25170W        W84673  28.002   7.853  10.524
25171W        W84674  30.639  22.558   3.667
25172W        W84675   2.310   0.811  11.052
25173W        W84676   5.712   0.807   2.693
25174W        W84677  26.682  44.388  14.466
25175W        W84678  29.158  21.044   1.785
25176W        W84679   1.776  15.214   2.288
25177W        W84680  12.298   6.693  14.906
25178W        W84681  14.701  16.196   4.791
25179W        W84682  18.755  43.915   1.860
25180W        W84683   8.230  27.040   4.162
25181W        W84684  21.124  10.357  10.938
25182W        W84685  15.656  33.874   3.845
25183W        W84686  13.154  20.768   2.397
25184W        W84687  10.688  27.144   4.838
25185W        W84688  27.016  27.155   0.804
25186W        W84689  11.266  30.530   0.792
25187W        W84690  25.706   8.870   0.283
25188W        W84691  41.861  13.740   3.633
25189W        W84692  14.613  15.174   2.398
25190W        W84693  12.146  30.034   2.317
25191W        W84694  19.177   2.856   2.856
25192W        W84695  25.202  33.066  10.524
25193W        W84696  10.205   0.286  14.855
25194W        W84697  14.640  20.591  14.832
25195W        W84698  28.458   8.352   3.829
25196W        W84699  30.078  42.831  12.510
25197W        W84700  23.161   9.387   0.448
25198W        W84701  13.128  14.198   2.698
25199W        W84702  36.546   3.339   2.365
25200W        W84703  25.974   1.884   4.355
25201W        W84704  42.934  29.646  13.974
25202W        W84705  27.088  36.390   1.871
25203W        W84706   7.761  38.558  13.509
25204W        W84707  40.417  27.115  10.495
25205W        W84708  21.524   2.876   4.354
25206W        W84709   0.489   0.817   5.686
25207W        W84710  34.900  41.427   0.859
25208W        W84711  41.914  33.955  11.587
25209W        W84712  34.998  29.962  14.479
25210W        W84713  40.977  24.497   2.301
25211W        W84714  34.522  10.363   0.831
25212W        W84715  43.386  38.455   1.429
25213W        W84716   5.863  18.744   1.446
25214W        W84717  29.970  29.655   1.774
25215W        W84718  14.664   2.265   4.341
25216W        W84719  14.331  24.190  11.921
25217W        W84720   8.812  37.931  11.533
25218W        W84721   3.347  37.073   4.618
25219W        W84722  10.729  23.013   2.873
25220W        W84723  10.314  12.852  12.402
25221W        W84724  17.752  21.743  13.370
25222W        W84725  10.717  28.666  12.945
25223W        W84726  18.750  24.656  11.565
25224W        W84727   0.262  16.283   0.871
25225W        W84728  11.789  32.950  11.065
25226W        W84729  40.363   8.865   2.824
25227W        W84730   4.322   9.363   1.747
25228W        W84731  11.310  18.066  10.934
25229W        W84732  15.255  19.767  13.849
25230W        W84733   6.888   1.905  14.785
25231W        W84734  30.443   3.908  11.473
25232W        W84735  13.248  30.973   1.308
25233W        W84736  43.010   7.363   5.643
25234W        W84737  11.339  28.180  12.899
25235W        W84738  38.910  20.082   1.218
25236W        W84739  21.259  18.254   2.794
25237W        W84740  43.946   2.355  13.434
25238W        W84741   6.830  29.489  14.828
25239W        W84742   4.874   9.343   3.639
25240W        W84743  18.657  43.419   4.833
25241W        W84744  22.655  29.999   4.349
25242W        W84745   7.238  25.609  13.953
25243W        W84746  29.626   3.375   1.380
25244W        W84747  37.077  12.817   0.305
25245W        W84748  29.492  36.872  13.339
25246W        W84749  32.067  19.721  12.889
25247W        W84750   6.380   3.736   4.223
25248W        W84751  15.750  35.471   3.360
25249W        W84752  29.436  11.793   3.815
25250W        W84753  40.502  25.694  13.925
25251W        W84754   4.300  17.706  11.578
25252W        W84755  14.808  12.712  10.017
25253W        W84756  24.562  15.258  10.500
25254W        W84757   0.364  40.522  13.914
25255W        W84758   1.862   0.795  11.129
25256W        W84759  24.182  43.331  14.814
25257W        W84760  10.743  18.105  12.404
25258W        W84761  20.724   8.258   0.365
25259W        W84762   0.835  32.535  12.378
25260W        W84763   4.907  15.172   1.294
25261W        W84764   3.769  28.628  11.870
25262W        W84765   7.742  14.812  14.916
25263W        W84766  19.670  11.239  13.311
25264W        W84767  10.377  32.419   2.382
25265W        W84768  34.494  13.288   9.972
25266W        W84769  31.923  10.229   1.217
25267W        W84770  19.533  10.730  12.981
25268W        W84771  28.434  26.065   3.167
25269W        W84772  41.311  17.740   3.177
25270W        W84773  43.479   5.419   3.786
25271W        W84774  35.404  11.800   1.301
25272W        W84775  18.619  36.459   2.903
25273W        W84776  29.514  38.395   3.685
25274W        W84777  10.754  19.540   3.317
25275W        W84778  12.179   2.450  10.429
25276W        W84779   1.329  10.233   3.646
25277W        W84780  43.305   2.367  12.868
25278W        W84781   6.291  23.086   1.808
25279W        W84782  15.795  10.836  13.052
25280W        W84783  13.743   3.950  12.339
25281W        W84784   9.248  12.349   0.829
25282W        W84785  30.468  24.097  14.976
25283W        W84786  23.026  11.838   1.931
25284W        W84787  31.092  12.666  12.920
25285W        W84788  29.121  12.332  11.969
25286W        W84789  16.093  40.421  13.969
25287W        W84790  24.224  31.461  12.886
25288W        W84791   2.939  16.711  10.933
25289W        W84792  42.335  35.428  14.995
25290W        W84793   9.216  41.414  14.455
25291W        W84794  25.661  25.525   3.849
25292W        W84795   8.693   3.919  10.922
25293W        W84796  22.120  23.490  10.947
25294W        W84797  36.531  42.328  14.832
25295W        W84798  11.685   9.242  10.929
25296W        W84799  23.023   0.457  13.463
25297W        W84800  21.058  32.566   5.252
25298W        W84801  19.077  25.621   4.113
25299W        W84802   5.356  44.370   2.758
25300W        W84803  10.297  14.125  12.504
25301W        W84804  39.059  22.220   1.840
25302W        W84805  13.785  19.567   4.351
25303W        W84806   5.355  11.827   0.396
25304W        W84807  43.280  42.372  12.405
25305W        W84808   5.877   8.160   4.673
25306W        W84809  18.261  20.212   4.316
25307W        W84810  16.238   2.900   2.745
25308W        W84811  29.127  18.727   3.690
25309W        W84812  21.068   4.264   4.748
25310W        W84813  11.828   5.251   3.744
25311W        W84814   0.789  43.793  12.359
25312W        W84815  42.939  29.603   3.733
25313W        W84816   4.346  12.204  12.442
25314W        W84817  33.004  35.545   1.721
25315W        W84818  14.183  34.079   4.750
25316W        W84819  16.099  28.484   2.671
25317W        W84820   6.203  25.507  11.575
25318W        W84821   9.784   7.227   3.295
25319W        W84822  37.892   5.245  12.872
25320W        W84823   9.704   6.892   4.636
25321W        W84824   6.775   7.236  11.977
25322W        W84825  27.082  43.858   4.178
25323W        W84826  18.218  21.235   4.234
25324W        W84827  27.556  19.099   2.344
25325W        W84828   7.272  32.593  13.879
25326W        W84829  27.077  24.587  10.645
25327W        W84830  28.050  38.963  13.313
25328W        W84831  10.166   6.764  13.945
25329W        W84832  34.471   5.754   0.855
25330W        W84833  38.436  17.241   2.843
25331W        W84834  41.955  26.652   2.846
25332W        W84835  39.014  21.068   4.146
25333W        W84836  27.571  12.166   2.816
25334W        W84837  15.607  13.720   5.215
25335W        W84838   3.722  42.354   0.475
25336W        W84839  30.053  24.032  12.486
25337W        W84840  11.371   0.976   4.839
25338W        W84841  10.843  31.526   2.325
25339W        W84842  36.355  16.744   4.226
25340W        W84843  16.682   4.345   2.822
25341W        W84844   2.328  18.780   0.893
25342W        W84845   3.339  21.246   2.285
25343W        W84846  34.387  23.234  11.900
25344W        W84847   0.380  34.449   1.935
25345W        W84848  38.871  42.356  13.964
25346W        W84849   1.933  39.041  10.417
25347W        W84850   3.885  18.069   1.859
25348W        W84851   2.333  13.232   3.338
25349W        W84852   1.348   8.215   3.734
25350W        W84853  18.679   4.306  14.029
25351W        W84854  19.682  40.984   0.789
25352W        W84855  42.904  39.395   2.349
25353W        W84856  11.626  17.295  12.875
25354W        W84857  16.107  40.841  10.909
25355W        W84858  23.654  34.439  14.308
25356W        W84859  27.158   9.855  13.329
25357W        W84860  19.629  14.747  12.848
25358W        W84861   6.794  11.343  10.610
25359W        W84862  10.251   0.758   1.699
25360W        W84863  17.198  28.105  10.160
25361W        W84864  40.456  36.410   4.332
25362W        W84865  18.604   7.295   5.175
25363W        W84866  22.743   4.301  10.608
25364W        W84867  32.923  31.580  13.885
25365W        W84868   7.338   3.764  12.849
25366W        W84869   3.948   5.917  11.888
25367W        W84870  14.614  23.623  14.411
25368W        W84871  41.860  24.025  11.462
25369W        W84872  44.485  15.321   2.858
25370W        W84873  35.065  18.641  11.008
25371W        W84874   9.864  38.904   0.311
25372W        W84875  20.716  17.184   0.366
25373W        W84876  35.923  20.673  13.378
25374W        W84877  18.214   8.805  14.456
25375W        W84878  21.192  14.187  12.460
25376W        W84879  27.960  27.160   9.955
25377W        W84880   2.927  11.697   3.320
25378W        W84881  38.442  41.956  10.628
25379W        W84882   9.270  21.694   2.320
25380W        W84883  19.105  39.829   2.794
25381W        W84884  25.679   6.876  11.472
25382W        W84885   5.840  34.610  11.442
25383W        W84886  16.607  34.466   1.788
25384W        W84887  42.326  24.568   1.412
25385W        W84888   1.881  11.830  14.983
25386W        W84889  30.629   3.924  13.320
25387W        W84890  35.014  10.159  12.050
25388W        W84891  21.203  33.448  13.054
25389W        W84892  17.183  12.750   2.360
25390W        W84893  38.020   0.389   0.370
25391W        W84894  12.250   4.320   2.683
25392W        W84895  13.271  20.071  13.375
25393W        W84896  41.455  20.111   0.386
25394W        W84897   4.936  17.651   3.727
25395W        W84898  41.343  14.276  14.807
25396W        W84899  16.677  12.845  12.464
25397W        W84900   9.237  33.909  10.548
25398W        W84901  41.930  34.901   0.726
25399W        W84902  34.969  44.962  14.443
25400W        W84903  14.213  16.315   2.896
25401W        W84904  31.549  29.591   4.818
25402W        W84905   4.843  21.152   3.377
25403W        W84906  34.518  39.949  10.894
25404W        W84907  31.949   3.276  10.887
25405W        W84908  20.761  34.567   0.421
25406W        W84909  15.774   7.201  11.470
25407W        W84910  17.598  44.347  10.512
25408W        W84911  34.614  41.505   1.395
25409W        W84912  24.202  42.961  13.928
25410W        W84913  16.159   1.256  13.854
25411W        W84914  39.832   2.864   4.718
25412W        W84915  34.105  11.297   3.709
25413W        W84916  11.280   6.233  12.542
25414W        W84917  18.093  26.491   4.818
25415W        W84918  30.572  26.463  14.312
25416W        W84919  23.047  14.136  12.826
25417W        W84920  10.705  14.766  14.402
25418W        W84921   8.787  12.248  14.875
25419W        W84922  15.193   4.255   3.153
25420W        W84923   3.406  26.006   1.876
25421W        W84924   1.285  13.191  14.786
25422W        W84925   3.298  33.917  14.506
25423W        W84926  10.741  17.610  12.458
25424W        W84927  19.637   6.428   0.735
25425W        W84928  30.416  25.646  14.454
25426W        W84929  38.422   1.841   0.799
25427W        W84930  42.958  33.432  13.008
25428W        W84931  25.538  36.441   1.892
25429W        W84932   3.723  17.781  13.843
25430W        W84933  42.280  22.645  11.545
25431W        W84934   1.481  19.223   4.304
25432W        W84935  30.005  24.068   4.166
25433W        W84936  24.151  41.836  10.900
25434W        W84937  11.729  14.112   0.963
25435W        W84938  35.409  33.107   1.355
25436W        W84939  23.123   1.409   2.192
25437W        W84940  19.687  14.706  11.579
25438W        W84941   6.920   6.296  13.030
25439W        W84942  30.054   9.680   2.290
25440W        W84943   1.284  37.444   4.334
25441W        W84944  14.602  38.424  11.409
25442W        W84945   8.685   4.259   3.849
25443W        W84946  43.364  13.690  11.559
25444W        W84947  27.579   2.854   0.450
25445W        W84948  23.111  20.541  14.957
25446W        W84949  27.079   8.162   1.695
25447W        W84950  29.617  25.077  12.854
25448W        W84951   5.930  42.013  14.414
25449W        W84952  15.169  13.114  14.859
25450W        W84953  44.865   0.883  13.439
25451W        W84954   0.257  40.988   2.761
25452W        W84955  38.429  34.595   3.829
25453W        W84956  42.866  27.483  13.962
25454W        W84957  43.006   9.322   4.229
25455W        W84958   5.278   2.415   4.351
25456W        W84959  37.534  42.383  12.830
25457W        W84960  43.015  42.284  10.941
25458W        W84961   1.757  34.072   3.192
25459W        W84962   0.859  17.258   3.282
25460W        W84963   7.777  26.692   4.331
25461W        W84964  34.958   4.236  14.458
25462W        W84965  19.214   4.271  14.794
25463W        W84966  10.772  38.896   4.600
25464W        W84967  42.882  23.143  12.070
25465W        W84968   3.740  14.174   4.288
25466W        W84969  33.512   8.241   1.269
25467W        W84970  30.550  16.635  11.020
25468W        W84971  25.634  10.707   3.344
25469W        W84972  24.044  12.716  11.520
25470W        W84973  34.510  26.554  14.278
25471W        W84974  26.473  31.915   0.268
25472W        W84975   9.780  35.583  13.489
25473W        W84976   8.315  25.064  14.377
25474W        W84977  12.672  41.825  14.327
25475W        W84978  41.532  37.480  11.459
25476W        W84979  26.557  11.288  10.890
25477W        W84980  37.884  14.704  14.782
25478W        W84981  38.494  34.936  12.452
25479W        W84982   2.388  38.921   3.646
25480W        W84983  42.989  14.651  12.533
25481W        W84984  30.580  10.269   2.770
25482W        W84985  42.417  37.358  11.970
25483W        W84986  20.556   7.721   4.124
25484W        W84987  23.151  43.458  11.592
25485W        W84988  27.071   5.374   0.868
25486W        W84989  16.273   6.269   0.299
25487W        W84990  17.160  41.801  11.576
25488W        W84991  33.010  43.283   0.250
25489W        W84992   5.890  42.352  11.417
25490W        W84993  41.007  27.162   1.435
25491W        W84994  29.934   8.850  13.986
25492W        W84995  18.690  38.569   0.342
25493W        W84996   6.348  28.676   4.704
25494W        W84997  19.629   0.852   1.321
25495W        W84998  24.096  27.069   4.171
25496W        W84999  20.145  40.334  12.064
25497W        W85000  41.437  26.124   2.724
25498W        W85001  44.998  40.328  11.547
25499W        W85002  41.392  40.929   2.795
25500W        W85003   7.198  11.233   2.745
25501W        W85004  18.589  36.483  13.002
25502W        W85005  42.448  14.749   0.391
25503W        W85006  41.439  38.069   1.694
25504W        W85007  27.996  32.096   1.763
25505W        W85008  12.222  37.485  11.031
25506W        W85009   9.282   3.412   4.194
25507W        W85010  14.147   5.831  13.499
25508W        W85011  39.476   7.334   3.718
25509W        W85012  35.898  11.743  13.815
25510W        W85013  34.601   8.804   3.341
25511W        W85014   5.745  12.829  10.480
25512W        W85015   9.174  32.580  12.085
25513W        W85016  28.016  33.115  13.333
25514W        W85017  42.990  39.003  14.469
25515W        W85018  33.410  27.517  13.332
25516W        W85019   9.727  30.949  14.347
25517W        W85020  15.809  41.356  11.127
25518W        W85021  29.648  41.395  12.540
25519W        W85022  18.771  10.278  13.889
25520W        W85023  16.095  34.029   0.425
25521W        W85024  19.146   4.804  10.425
25522W        W85025  10.339  34.067  13.471
25523W        W85026  43.353  24.060   1.314
25524W        W85027  18.072  41.400  10.460
25525W        W85028  39.058  30.025  12.870
25526W        W85029  36.523   7.758   3.200
25527W        W85030  35.967   0.335  13.378
25528W        W85031   8.750  10.159  13.411
25529W        W85032  26.090  22.709  14.348
25530W        W85033  42.898   2.388  10.494
25531W        W85034  43.400  21.202  12.921
25532W        W85035  12.810  25.469  13.049
25533W        W85036   5.389   5.410   2.887
25534W        W85037  15.119  27.671   4.700
25535W        W85038  23.492  38.397  10.522
25536W        W85039  28.656  35.401   3.635
25537W        W85040   5.715  39.952  14.956
25538W        W85041   9.281   5.811   3.199
25539W        W85042   8.318  37.063   1.826
25540W        W85043  16.298  13.343   1.312
25541W        W85044   8.850  37.833   2.182
25542W        W85045  15.659  13.184  12.016
25543W        W85046  14.313  40.985  14.850
25544W        W85047  20.753  23.620   4.813
25545W        W85048  18.674  38.035  11.405
25546W        W85049  22.220  23.492   4.738
25547W        W85050  21.600   9.662  11.554
25548W        W85051   3.888  20.086  13.863
25549W        W85052  14.725  15.207  11.381
25550W        W85053  33.918  26.054   3.308
25551W        W85054  12.753  20.560  14.456
25552W        W85055  15.150  13.752  12.528
25553W        W85056  22.143  33.979  11.569
25554W        W85057  28.507  36.864   4.608
25555W        W85058  15.108   4.415  11.534
25556W        W85059   1.376  21.693   3.359
25557W        W85060  10.172  12.291  10.045
25558W        W85061  16.580  25.021   1.919
25559W        W85062  35.857  36.863  14.336
25560W        W85063  27.480   7.779   3.677
25561W        W85064  21.126  40.033  11.518
25562W        W85065  32.058   9.255  14.766
25563W        W85066  32.940  37.423  14.984
25564W        W85067  21.594  26.138  13.316
25565W        W85068   8.777  22.645  11.114
25566W        W85069  20.768  38.925   1.897
25567W        W85070   3.440  11.789   1.730
25568W        W85071  38.049  38.959   1.353
25569W        W85072   0.759  42.824   4.322
25570W        W85073  15.142   1.280   2.821
25571W        W85074   1.275  40.871  13.795
25572W        W85075  43.006  38.865   5.229
25573W        W85076  30.599  22.141   2.782
25574W        W85077   7.308   4.214   1.924
25575W        W85078  27.952  30.995  11.920
25576W        W85079  24.146   8.748  14.888
25577W        W85080  28.006  20.150  14.413
25578W        W85081  32.513  25.665   2.330
25579W        W85082  41.469  41.375  11.993
25580W        W85083  37.500  34.370  10.633
25581W        W85084  22.173  23.585  10.440
25582W        W85085   3.341  13.297   2.740
25583W        W85086  24.148  38.340  14.766
25584W        W85087  41.817  40.422  11.426
25585W        W85088   1.750  10.376  14.513
25586W        W85089   6.340  33.927   4.730
25587W        W85090  39.969  25.082  12.403
25588W        W85091  22.180  17.708  14.942
25589W        W85092  14.149  25.703   5.104
25590W        W85093  20.745  22.065  13.033
25591W        W85094  17.146   7.779  12.501
25592W        W85095   2.451  27.171   1.771
25593W        W85096  20.242  33.608   3.236
25594W        W85097  19.735  10.849   0.934
25595W        W85098  27.135  13.821   2.294
25596W        W85099  14.830  10.142  11.092
25597W        W85100   9.710  28.607  12.358
25598W        W85101  26.977   6.252  13.801
25599W        W85102  31.990  13.834   0.852
25600W        W85103   7.705  30.008   0.283
25601W        W85104  21.599  24.154   3.654
25602W        W85105   6.197  33.590   2.707
25603W        W85106  44.316  13.623   2.835
25604W        W85107  33.534  19.158   0.294
25605W        W85108  13.215  29.586   4.652
25606W        W85109   7.244  12.222  11.479
25607W        W85110   3.248  22.633  10.515
25608W        W85111  16.100   1.870  10.443
25609W        W85112  33.471  11.185  11.867
25610W        W85113   8.279  30.509  14.481
25611W        W85114  40.405  34.369  10.539
25612W        W85115  38.399  24.193   2.250
25613W        W85116  16.803  38.432   2.299
25614W        W85117   6.879   7.331   0.256
25615W        W85118  15.092  39.545   1.281
25616W        W85119  27.190   4.323  11.545
25617W        W85120  18.291  44.860   0.885
25618W        W85121  40.929  28.054   0.732
25619W        W85122  17.720  26.101   0.743
25620W        W85123  10.865  40.423   2.195
25621W        W85124  21.129  42.033  12.571
25622W        W85125  28.068  38.872  11.406
25623W        W85126  37.033   1.785  13.492
25624W        W85127  22.729  30.524  13.843
25625W        W85128   4.839  13.259   0.897
25626W        W85129   9.256  19.583  13.035
25627W        W85130  22.682  37.529  14.442
25628W        W85131  15.645  16.768   2.314
25629W        W85132  42.932  29.427  11.595
25630W        W85133  17.262  13.163  13.956
25631W        W85134  17.583  29.034   3.211
25632W        W85135   3.780  28.087   3.697
25633W        W85136   0.383  22.103   4.345
25634W        W85137  41.901   3.261  13.975
25635W        W85138  19.720  17.084   5.262
25636W        W85139   7.767  17.153  13.049
25637W        W85140  26.019   5.434   1.731
25638W        W85141   4.325  20.237  13.873
25639W        W85142  43.778  26.503   2.220
25640W        W85143  40.050   8.373  12.070
25641W        W85144   5.269  41.318  13.048
25642W        W85145  27.474   8.699  10.485
25643W        W85146  20.128  28.598  14.285
25644W        W85147  18.553  30.484  10.040
25645W        W85148  35.861   9.275  11.409
25646W        W85149  10.637   9.188  13.791
25647W        W85150  23.184  34.370   3.299
25648W        W85151  32.064   8.877  11.956
25649W        W85152  41.517  43.478  12.947
25650W        W85153  24.612  37.913   2.215
25651W        W85154   2.730  44.286  12.568
25652W        W85155  35.579  13.128   0.249
25653W        W85156  34.426  42.919   3.697
25654W        W85157  25.145  33.389   0.741
25655W        W85158  16.243  39.406  13.511
25656W        W85159  26.585   0.826  10.018
25657W        W85160  39.435  30.927  12.920
25658W        W85161   4.748  28.482   1.240
25659W        W85162  14.252  37.084  11.053
25660W        W85163  35.507  26.591  12.569
25661W        W85164  29.567   0.436  14.925
25662W        W85165   6.329  21.038   1.706
25663W        W85166   2.757  39.872   0.787
25664W        W85167  24.587  16.628  12.570
25665W        W85168  28.015  12.653  11.473
25666W        W85169  30.950  28.068   0.884
25667W        W85170  29.069  38.372   0.920
25668W        W85171  33.068   8.336  14.855
25669W        W85172  18.780   5.780  11.110
25670W        W85173  11.291  43.313   4.202
25671W        W85174  14.831  21.191  11.597
25672W        W85175  29.597  30.928   0.316
25673W        W85176  31.531  41.477   2.749
25674W        W85177  40.798  28.538   4.273
25675W        W85178  21.539   6.918  14.482
25676W        W85179   7.338  32.019   0.869
25677W        W85180  37.361  13.686  10.909
25678W        W85181   1.812  29.983   3.190
25679W        W85182   4.833  30.452  13.844
25680W        W85183  36.882  20.589   4.200
25681W        W85184  38.415   7.792  13.912
25682W        W85185   8.684  34.015  14.508
25683W        W85186  17.165  16.096  11.915
25684W        W85187  12.665  15.321  10.596
25685W        W85188  25.577  13.165  11.971
25686W        W85189  41.962  19.206  13.005
25687W        W85190  38.063  27.999  13.365
25688W        W85191  11.244  37.000   3.711
25689W        W85192  24.195   6.869   3.173
25690W        W85193   7.718  37.534   4.307
25691W        W85194  15.251  43.834  12.464
25692W        W85195  39.992  13.337  11.056
25693W        W85196   2.271  12.359   1.705
25694W        W85197   8.240  17.261  12.015
25695W        W85198  35.485  32.567   0.398
25696W        W85199  30.521   4.881   3.804
25697W        W85200  12.165  35.383  11.033
25698W        W85201   8.768  33.407   0.811
25699W        W85202  12.653  14.801   2.296
25700W        W85203   8.855  43.295   0.401
25701W        W85204   4.343  33.913   1.849
25702W        W85205  35.100  14.823  10.158
25703W        W85206  16.712  19.161  10.968
25704W        W85207   8.216  13.665  11.582
25705W        W85208  24.086  35.927  13.531
25706W        W85209   7.324   5.865  14.861
25707W        W85210   2.853  44.504   2.865
25708W        W85211  40.366  33.916   3.166
25709W        W85212  37.581  41.487   4.236
25710W        W85213  33.991   2.449   1.385
25711W        W85214  33.455  42.851  12.951
25712W        W85215  40.880  40.819  14.006
25713W        W85216   1.439  27.662   3.671
25714W        W85217  14.327  10.276   0.848
25715W        W85218  27.983   1.893  12.047
25716W        W85219  25.582  26.045   0.859
25717W        W85220  24.524  40.352   3.204
25718W        W85221  35.955  21.217   1.816
25719W        W85222  38.981  37.510  10.431
25720W        W85223  21.172  20.177  13.460
25721W        W85224  38.987  36.021   4.607
25722W        W85225  12.248   1.476  14.866
25723W        W85226   8.356   9.690  11.576
25724W        W85227  30.453  29.609   1.414
25725W        W85228  16.103  20.739  11.557
25726W        W85229  35.036  13.288   4.619
25727W        W85230  15.588  39.503  11.432
25728W        W85231  14.729  24.106  11.386
25729W        W85232  36.936  37.447   0.861
25730W        W85233  19.755   2.453   1.420
25731W        W85234   8.737  36.472  11.570
25732W        W85235  36.008  30.617   0.252
25733W        W85236   8.356  23.139  14.025
25734W        W85237  13.751   4.300   1.225
25735W        W85238  18.735  25.703   2.747
25736W        W85239  32.930  17.760   2.236
25737W        W85240   3.366  20.042  10.908
25738W        W85241  12.631  20.210  13.908
25739W        W85242  21.519  18.225  14.789
25740W        W85243  41.795  16.762  10.102
25741W        W85244  13.151  32.954  12.452
25742W        W85245  36.575  44.427  11.529
25743W        W85246  28.439  10.216  11.079
25744W        W85247  23.986  43.436  11.968
25745W        W85248  13.818  24.142   0.772
25746W        W85249  27.636  15.219   0.316
25747W        W85250   3.405  37.402   2.357
25748W        W85251  17.777  18.237  12.994
25749W        W85252  14.328  14.772   0.448
25750W        W85253   9.786  24.658  12.886
25751W        W85254  32.959  38.844   0.833
25752W        W85255   8.813  33.033   4.306
25753W        W85256  17.232  42.495   1.448
25754W        W85257  15.632  29.621   2.269
25755W        W85258  15.722  28.669  13.368
25756W        W85259  17.793   3.843  14.876
25757W        W85260  21.159  21.106   3.698
25758W        W85261  43.336  28.070   9.921
25759W        W85262  19.557  25.562   4.680
25760W        W85263  39.964  41.863  11.069
25761W        W85264   3.316  34.468   0.966
25762W        W85265  35.415  27.098  10.915
25763W        W85266  35.862  40.539   1.859
25764W        W85267   4.780  30.606   1.287
25765W        W85268   7.745   5.238  10.508
25766W        W85269  34.923  36.529   3.345
25767W        W85270  40.047   0.874  12.879
25768W        W85271   3.866  22.209  12.968
25769W        W85272  22.589   7.865  10.546
25770W        W85273  33.545  14.600  10.557
25771W        W85274  23.202   5.410   1.779
25772W        W85275  26.598  29.615  13.458
25773W        W85276  39.847  15.312  13.972
25774W        W85277  26.006  14.094   0.281
25775W        W85278  36.385  33.567   3.358
25776W        W85279  39.504   5.267   1.349
25777W        W85280   1.862  13.637  10.956
25778W        W85281  10.791  12.139  11.026
25779W        W85282  34.507  32.452   3.372
25780W        W85283  41.847  43.514   4.301
25781W        W85284  13.747   9.329  13.401
25782W        W85285  27.497   6.372   0.380
25783W        W85286  16.205  41.500  13.912
25784W        W85287  34.112  13.290  10.964
25785W        W85288   0.358   6.361   3.310
25786W        W85289  41.010   0.457   2.390
25787W        W85290   3.761  17.111  12.875
25788W        W85291  21.682  32.478  13.529
25789W        W85292  20.071  18.685   0.952
25790W        W85293   8.881  20.703  13.015
25791W        W85294  33.945  44.797  12.887
25792W        W85295  25.540  27.631  10.445
25793W        W85296  14.666   6.333  11.493
25794W        W85297  31.122  43.848  11.920
25795W        W85298  27.125  39.543  14.837
25796W        W85299  23.213  11.796   4.755
25797W        W85300  26.631   6.256  10.984
25798W        W85301  44.838  33.523  12.032
25799W        W85302  32.099  42.336  14.352
25800W        W85303  23.687  37.044  11.394
25801W        W85304  34.899  14.647   2.221
25802W        W85305  40.388  36.432  10.587
25803W        W85306  13.164  20.039  14.499
25804W        W85307  19.736   3.301   4.826
25805W        W85308  14.230  15.196   3.782
25806W        W85309   1.321  12.269  11.422
25807W        W85310  29.586  17.148   1.841
25808W        W85311  25.210  26.607  10.950
25809W        W85312  36.376  38.032   3.818
25810W        W85313   8.811  20.046   2.801
25811W        W85314  44.286  43.844  10.463
25812W        W85315  16.246   4.867   0.473
25813W        W85316  29.580  24.162   1.443
25814W        W85317   7.815   0.845  13.354
25815W        W85318   7.774  32.502  13.808
25816W        W85319  26.001  40.842  11.002
25817W        W85320   7.337  21.213  12.975
25818W        W85321  19.672  28.635  12.454
25819W        W85322  11.229  37.538   3.371
25820W        W85323  34.384  12.823  12.943
25821W        W85324  28.460  27.197   0.401
25822W        W85325  14.795  22.210  11.106
25823W        W85326   5.694  21.187  12.039
25824W        W85327  20.228  18.191   3.732
25825W        W85328  11.849  27.054   0.730
25826W        W85329  31.628  40.461   3.867
25827W        W85330  37.058  13.663  10.520
25828W        W85331  43.966   4.373  14.809
25829W        W85332  37.448  35.586  12.984
25830W        W85333  24.107   5.867   1.326
25831W        W85334  32.013  17.109  10.979
25832W        W85335   8.389   5.726   0.830
25833W        W85336  43.444  22.193   2.691
25834W        W85337  29.979  21.122  14.011
25835W        W85338  18.064  39.868  13.804
25836W        W85339  16.790  24.686  14.958
25837W        W85340  33.091   2.734  11.449
25838W        W85341  24.556  37.896  12.872
25839W        W85342   5.244  42.897  11.451
25840W        W85343  43.883  25.990  10.499
25841W        W85344  14.317  44.264   0.433
25842W        W85345  21.150  17.133   1.359
25843W        W85346  42.305  10.728   3.259
25844W        W85347  14.779  42.413   3.765
25845W        W85348  32.491  24.044  14.815
25846W        W85349   0.770  24.077  11.042
25847W        W85350  13.647  24.127   2.310
25848W        W85351  32.411  13.250   0.367
25849W        W85352  34.390  29.032  12.579
25850W        W85353   2.233  41.895  14.878
25851W        W85354  19.677  36.542  12.957
25852W        W85355   5.380  29.432   2.273
25853W        W85356   6.680   1.464   1.699
25854W        W85357  32.425   0.457   9.959
25855W        W85358  10.316  33.013  14.325
25856W        W85359  43.907   0.380   0.805
25857W        W85360  40.812  18.707  12.347
25858W        W85361  28.673  42.874  12.358
25859W        W85362  30.577  40.809  12.838
25860W        W85363  40.024  38.062  14.779
25861W        W85364  12.267  42.524  12.525
25862W        W85365  37.517   6.817   0.462
25863W        W85366  16.166  14.239  12.405
25864W        W85367   5.240  31.023  12.563
25865W        W85368  25.198   8.896   4.605
25866W        W85369  15.681   3.786  13.994
25867W        W85370  43.411  16.109  12.030
25868W        W85371   1.246  17.210  13.512
25869W        W85372   3.879  29.991   1.417
25870W        W85373  36.354  20.637  11.945
25871W        W85374  39.438  29.174  11.985
25872W        W85375  42.458  34.050  12.459
25873W        W85376  44.944  26.551  11.000
25874W        W85377  32.932   2.356  14.802
25875W        W85378  24.223  35.996   9.929
25876W        W85379   6.210   5.285   3.206
25877W        W85380  27.481  31.425   1.874
25878W        W85381  32.409  11.672   1.756
25879W        W85382  11.865  16.590  12.460
25880W        W85383  41.960  28.968   1.259
25881W        W85384  22.537   3.778   0.913
25882W        W85385  23.533  19.746  13.929
25883W        W85386  24.202  25.502   2.254
25884W        W85387  30.482  34.553  12.544
25885W        W85388  15.579  15.804   3.785
25886W        W85389  18.254   7.705   1.835
25887W        W85390   2.886   6.356   1.791
25888W        W85391   7.276   7.283  12.000
25889W        W85392  44.357  41.860   2.361
25890W        W85393  37.572   5.432   5.785
25891W        W85394  24.997  32.125  14.001
25892W        W85395  11.231  35.937   1.817
25893W        W85396  31.625  29.128   0.934
25894W        W85397  38.535  36.381  13.910
25895W        W85398  11.319   4.706   3.153
25896W        W85399  40.870  10.705   0.751
25897W        W85400  30.960  28.093   9.983
25898W        W85401  20.615  31.531  10.971
25899W        W85402  33.027  38.446   1.385
25900W        W85403   8.297  21.096   0.445
25901W        W85404  38.479   8.289   1.251
25902W        W85405  13.179  10.852   0.315
25903W        W85406  37.472  39.913   0.281
25904W        W85407  26.081  38.411  14.839
25905W        W85408  41.926  15.210   4.834
25906W        W85409  16.194  36.476  13.511
25907W        W85410  31.029  18.175   3.357
25908W        W85411  32.011  32.609   3.312
25909W        W85412  43.895   6.922   3.355
25910W        W85413  41.534  16.785  13.903
25911W        W85414  36.428  22.040  11.481
25912W        W85415  41.880   3.455  14.279
25913W        W85416  30.061  44.428  14.957
25914W        W85417  39.039  35.374   3.798
25915W        W85418  18.247  20.113  10.632
25916W        W85419  19.550  40.336   2.868
25917W        W85420   4.740  11.196  11.435
25918W        W85421  11.714  39.529   1.241
25919W        W85422   4.446  25.512   3.759
25920W        W85423  39.357  19.594   0.363
25921W        W85424  21.665  18.224   3.861
25922W        W85425  14.207  43.957   1.868
25923W        W85426  35.599  34.518   0.391
25924W        W85427   6.815  20.582   3.720
25925W        W85428  39.479  29.590   1.329
25926W        W85429  37.383  24.560  12.021
25927W        W85430  10.844  14.304   2.900
25928W        W85431  38.445  34.520  10.541
25929W        W85432  21.051  26.123  12.882
25930W        W85433  34.592  22.006  13.054
25931W        W85434  41.979  18.659  13.970
25932W        W85435  38.561  37.086  14.491
25933W        W85436  41.819  33.442  11.518
25934W        W85437  23.227   1.877   5.215
25935W        W85438  29.642  23.132   3.297
25936W        W85439  32.507  22.684  11.586
25937W        W85440  30.472   4.449  14.424
25938W        W85441   4.306  35.902   0.433
25939W        W85442  44.323  43.358   4.739
25940W        W85443   8.201  38.363  10.518
25941W        W85444  40.830  38.855   4.135
25942W        W85445  31.051  28.602   2.817
25943W        W85446  33.074  15.748   1.319
25944W        W85447   5.294  22.199   3.240
25945W        W85448  27.095  34.470   2.767
25946W        W85449  13.713  13.284   3.812
25947W        W85450   6.195  22.528   2.725
25948W        W85451  12.649   9.241  13.870
25949W        W85452  29.515  43.890   4.140
25950W        W85453  16.114  43.293   0.311
25951W        W85454  30.564   2.736   4.281
25952W        W85455  41.832  38.555   1.447
25953W        W85456   1.785   9.334   1.874
25954W        W85457   7.212  38.898  10.617
25955W        W85458  39.315  17.751  13.903
25956W        W85459  12.625  42.851  12.926
25957W        W85460  13.109  20.769  14.439
25958W        W85461   6.816  27.622   4.791
25959W        W85462  19.158  12.208   4.251
25960W        W85463  18.162   2.837   1.871
25961W        W85464  34.938  38.049  12.532
25962W        W85465  26.074  35.394  10.589
25963W        W85466  21.242  30.634   1.740
25964W        W85467  30.557  16.110   2.730
25965W        W85468  34.059  23.146   2.895
25966W        W85469  37.410   8.820  11.084
25967W        W85470  30.983  33.944   4.168
25968W        W85471  16.576  28.131   4.350
25969W        W85472   7.671   8.170   0.383
25970W        W85473  24.676  32.929   2.182
25971W        W85474  42.335   5.218   2.664
25972W        W85475  29.634  29.015   2.860
25973W        W85476  32.950  28.003  12.562
25974W        W85477   4.822  19.275  10.999
25975W        W85478  18.617  12.234   2.791
25976W        W85479  10.876  14.832  10.455
25977W        W85480   8.173  34.023   0.898
25978W        W85481  17.565   1.347  12.949
25979W        W85482  25.168  24.137  14.468
25980W        W85483  12.812  11.797   0.308
25981W        W85484  23.086  31.130  13.903
25982W        W85485  32.009  24.143   1.385
25983W        W85486  40.393  13.807   3.748
25984W        W85487  27.182  20.525   0.247
25985W        W85488  10.304  36.057   1.807
25986W        W85489  16.146  11.261  14.343
25987W        W85490  31.130  25.976   4.288
25988W        W85491  20.148  43.300  12.094
25989W        W85492  29.064  13.247  12.533
25990W        W85493  30.928  23.994   1.878
25991W        W85494  15.797  37.862   3.179
25992W        W85495  42.465  17.257  14.956
25993W        W85496  18.625  41.438  13.955
25994W        W85497  35.553   2.432   3.791
25995W        W85498  39.356  11.816  11.909
25996W        W85499  15.244  12.287  13.822
25997W        W85500   4.941  28.593   9.939
25998W        W85501  15.671  28.007   5.193
25999W        W85502  31.641  38.996  13.032
26000W        W85503  24.538   5.888   1.818
26001W        W85504  14.097  30.604   1.712
26002W        W85505  26.159  32.138  13.481
26003W        W85506  13.160  22.081   3.736
26004W        W85507  22.734  24.989   0.807
26005W        W85508  38.863  44.353   3.636
26006W        W85509  44.456  29.018  12.521
26007W        W85510   2.467   4.219  11.472
26008W        W85511  30.528  38.984   1.284
26009W        W85512   6.695  20.557   2.695
26010W        W85513  18.706   4.941   3.813
26011W        W85514  16.810  10.182   0.821
26012W        W85515  23.592  34.585   0.459
26013W        W85516  34.470   5.375  10.420
26014W        W85517  25.589  44.778  13.873
26015W        W85518  12.186  11.835   2.290
26016W        W85519   5.899   0.301   2.360
26017W        W85520  38.006   9.766  12.937
26018W        W85521   3.893  26.654   0.472
26019W        W85522  30.658  33.615   0.780
26020W        W85523   6.315  32.628   4.692
26021W        W85524   5.409  23.694   3.252
26022W        W85525  42.469  38.360   2.795
26023W        W85526  12.206  14.196   4.720
26024W        W85527  31.917  16.746  14.383
26025W        W85528  19.205  30.570   4.601
26026W        W85529  40.888   9.650   1.846
26027W        W85530  21.162  30.098  13.366
26028W        W85531  23.180  29.439  11.078
26029W        W85532  29.510  31.142   3.720
26030W        W85533   8.336  39.957  10.977
26031W        W85534  12.291  31.940  14.485
26032W        W85535  36.388  15.202  13.942
26033W        W85536  27.609  20.565   2.749
26034W        W85537   1.743   6.701   4.700
26035W        W85538  14.775  35.915  13.033
26036W        W85539   5.291  37.527   0.356
26037W        W85540  16.139  44.342  12.028
26038W        W85541  11.740  21.588   1.802
26039W        W85542   2.433  20.603   9.922
26040W        W85543   8.261  43.401   3.668
26041W        W85544   0.901  20.722  10.550
26042W        W85545  39.940  16.782  13.019
26043W        W85546  30.075  16.173   2.784
26044W        W85547  43.903  40.494  10.594
26045W        W85548  35.442  44.310  13.898
26046W        W85549  31.515  21.081   4.262
26047W        W85550   0.374  24.981  13.392
26048W        W85551  33.410   4.296  10.944
26049W        W85552  33.504  32.077   3.827
26050W        W85553  20.607  25.032  12.040
26051W        W85554  15.179  44.375   4.273
26052W        W85555   1.261  36.537  11.120
26053W        W85556  25.508   4.417   1.806
26054W        W85557  36.098  16.162   4.233
26055W        W85558  35.007  25.079   2.385
26056W        W85559   5.718  21.240  13.906
26057W        W85560  42.515  13.733  12.997
26058W        W85561   4.314  40.416   4.816
26059W        W85562  27.054   4.373   3.842
26060W        W85563  44.502   0.987  10.045
26061W        W85564  18.194   3.923   4.264
26062W        W85565  40.043  38.909   1.249
26063W        W85566  24.640   6.302  10.944
26064W        W85567  39.380  30.470   1.245
26065W        W85568  42.513  23.701   4.652
26066W        W85569   1.853  14.212  14.313
26067W        W85570  33.879  27.059   4.131
26068W        W85571  35.594  16.622   3.739
26069W        W85572  44.463  43.453  13.436
26070W        W85573  44.337   3.284   2.685
26071W        W85574   5.867  34.075   3.376
26072W        W85575  19.247  25.131   2.795
26073W        W85576  26.476  23.016   0.365
26074W        W85577   2.394   8.207   3.252
26075W        W85578   2.360   1.298  13.921
26076W        W85579   8.168  21.154  14.391
26077W        W85580  34.950  23.022   1.414
26078W        W85581  36.096  25.119  11.546
26079W        W85582  44.930  33.559  13.530
26080W        W85583   4.894  43.398   2.207
26081W        W85584   5.872  37.933   1.817
26082W        W85585  15.301  10.877   3.285
26083W        W85586  42.516  26.576   1.433
26084W        W85587  19.232  20.555  11.441
26085W        W85588  30.147  10.336  11.947
26086W        W85589  35.455  38.423   5.674
26087W        W85590  21.103  26.160  13.396
26088W        W85591  11.137  29.606   3.383
26089W        W85592   3.799   0.453  14.308
26090W        W85593   8.217   3.290   1.298
26091W        W85594  19.250  35.067  12.060
26092W        W85595   9.871  23.162  14.332
26093W        W85596   1.278   6.222  10.448
26094W        W85597  25.138   1.823  14.383
26095W        W85598  26.189  14.720   4.651
26096W        W85599  11.815  20.203   0.775
26097W        W85600  35.359   3.248  12.374
26098W        W85601  41.870   4.808   2.807
26099W        W85602  21.663  18.620  13.877
26100W        W85603  44.450   5.414   3.305
26101W        W85604  31.005  32.890  12.925
26102W        W85605   2.367   4.418  10.615
26103W        W85606  41.930  11.246   3.275
26104W        W85607   7.299  33.004  12.072
26105W        W85608  43.435  43.303  13.827
26106W        W85609   7.866  37.962   1.884
26107W        W85610   4.777  28.498  13.377
26108W        W85611  24.555  27.087   2.698
26109W        W85612  10.367  22.744  13.966
26110W        W85613  20.029  26.642  12.045
26111W        W85614  42.831  25.675   5.313
26112W        W85615  29.042  12.789  11.109
26113W        W85616  44.417  25.555  13.410
26114W        W85617  15.629  28.624   3.767
26115W        W85618  26.051  19.632   1.728
26116W        W85619  36.515  15.625  11.923
26117W        W85620  24.096  40.425  11.538
26118W        W85621  25.028  10.841   0.834
26119W        W85622  22.595  36.889  13.309
26120W        W85623  25.707  37.064  10.475
26121W        W85624   9.279  21.070   5.111
26122W        W85625  22.073  36.449  13.826
26123W        W85626  39.526  16.811  12.526
26124W        W85627  20.691  26.076  12.042
26125W        W85628  13.220  44.483   0.431
26126W        W85629   9.692  13.126  13.332
26127W        W85630  28.623   3.378  14.275
26128W        W85631  31.464   8.161  12.385
26129W        W85632   4.408  14.688  13.480
26130W        W85633  26.998  44.990   1.864
26131W        W85634  44.847  20.606   5.216
26132W        W85635  27.073  33.590   0.771
26133W        W85636   8.837  38.015   0.855
26134W        W85637   2.426   5.743  14.823
26135W        W85638   5.923  33.470  10.614
26136W        W85639  39.533  33.038   0.388
26137W        W85640   4.304  15.718  12.916
26138W        W85641  38.490  32.489   0.782
26139W        W85642  28.053  36.063  14.874
26140W        W85643  19.228  15.273  11.414
26141W        W85644  31.908  41.880  12.032
26142W        W85645   3.414  27.666   5.619
26143W        W85646  44.495  38.059  10.031
26144W        W85647  20.128  41.914   2.830
26145W        W85648   7.671  12.144   0.858
26146W        W85649  37.457  23.727  10.516
26147W        W85650   5.819  35.030  12.517
26148W        W85651   8.827   0.878  12.954
26149W        W85652  24.622  29.577   4.261
26150W        W85653  25.077  13.836  14.911
26151W        W85654  24.057   1.772  12.464
26152W        W85655  15.272  24.533  13.843
26153W        W85656  20.535  36.007   4.624
26154W        W85657  36.069   2.919   0.294
26155W        W85658  22.737  40.381  14.412
26156W        W85659  18.656  37.525  12.503
26157W        W85660   8.870  23.201  10.917
26158W        W85661  26.121  28.584  14.784
26159W        W85662  17.253  19.667   5.147
26160W        W85663  12.307  20.059   0.836
26161W        W85664  29.133  13.710   1.880
26162W        W85665   3.713  35.012   1.282
26163W        W85666  42.030  30.560   4.771
26164W        W85667  41.868   6.816  13.503
26165W        W85668   3.461  39.982   3.374
26166W        W85669  25.106  36.919   1.914
26167W        W85670  34.001  38.477  11.566
26168W        W85671   2.750  41.368  12.850
26169W        W85672  26.636  39.479   3.818
26170W        W85673  21.195  23.041   3.173
26171W        W85674  13.648   8.725  11.392
26172W        W85675   0.838   2.286  10.441
26173W        W85676   0.769  18.103   1.308
26174W        W85677   3.770  10.817   1.325
26175W        W85678   7.346  40.316  13.835
26176W        W85679   9.683  44.890   2.301
26177W        W85680  35.392  44.879  14.999
26178W        W85681  21.745  38.073  11.871
26179W        W85682  20.719  10.799  14.888
26180W        W85683  29.437   9.705  12.534
26181W        W85684   5.892  25.093   3.779
26182W        W85685   0.905  27.130  13.508
26183W        W85686  18.739  25.601   1.313
26184W        W85687  43.352   3.895  14.904
26185W        W85688   2.734  22.617   2.821
26186W        W85689  42.973   8.253  11.393
26187W        W85690  40.476  15.694  10.606
26188W        W85691  15.230   0.835   0.269
26189W        W85692   2.874  43.307   0.957
26190W        W85693  24.188  10.166  10.125
26191W        W85694  21.121   5.899  13.894
26192W        W85695   8.660  34.051   2.677
26193W        W85696  32.974  22.559  10.890
26194W        W85697  22.177  15.135   0.365
26195W        W85698  29.585   2.746  11.992
26196W        W85699  32.588  43.484   3.792
26197W        W85700  38.931  14.661   2.894
26198W        W85701  38.973   6.426  14.888
26199W        W85702  23.109  38.053   4.191
26200W        W85703   2.842  35.425   0.798
26201W        W85704   6.710  12.135  11.028
26202W        W85705  22.187  36.502   1.426
26203W        W85706  38.014  25.630  14.424
26204W        W85707  35.430  18.139   0.775
26205W        W85708   9.316  19.262   4.637
26206W        W85709  24.032  17.793  12.917
26207W        W85710   4.705  12.263  12.897
26208W        W85711  22.010  37.385  13.438
26209W        W85712   5.753  31.108   4.228
26210W        W85713  26.502  17.136   5.317
26211W        W85714  40.023  17.788  14.408
26212W        W85715  34.428  25.578   1.406
26213W        W85716  22.617  20.651  12.971
26214W        W85717  28.459  35.500  13.340
26215W        W85718  38.386  18.266  14.009
26216W        W85719  27.653   6.712   3.248
26217W        W85720  13.600  31.148  10.950
26218W        W85721   0.937   0.965  11.889
26219W        W85722  25.679  43.375  13.908
26220W        W85723  43.904  21.734  11.083
26221W        W85724  16.629  10.232  10.630
26222W        W85725  20.198  39.972   3.799
26223W        W85726   2.393  28.537  14.849
26224W        W85727  12.334  41.828   3.781
26225W        W85728   4.359  16.132  11.908
26226W        W85729   5.838  43.017   2.689
26227W        W85730   9.856  12.662  14.030
26228W        W85731   6.261  20.614   2.788
26229W        W85732  33.626  28.043   4.156
26230W        W85733  15.752  30.634  13.006
26231W        W85734   2.278  16.745  11.008
26232W        W85735  15.121  26.104   4.684
26233W        W85736   9.827   7.207   3.677
26234W        W85737  25.646  41.376  11.550
26235W        W85738   2.282   2.938  11.034
26236W        W85739  32.018  34.081   3.698
26237W        W85740  40.524   4.725  11.977
26238W        W85741  10.302  22.627  11.473
26239W        W85742  27.107   0.354   5.797
26240W        W85743  19.268  34.938  11.015
26241W        W85744  31.408  30.909   0.446
26242W        W85745  28.145  19.774  14.800
26243W        W85746  10.867   5.194   1.380
26244W        W85747  10.173  13.196  13.528
26245W        W85748  16.314  19.759  10.414
26246W        W85749  42.371  19.101   0.892
26247W        W85750  43.814  33.596   1.301
26248W        W85751  41.987  21.665   4.306
26249W        W85752  18.109   7.874  12.000
26250W        W85753  41.983  40.439  11.114
26251W        W85754  30.113  34.480   4.348
26252W        W85755  20.641   8.319   3.184
26253W        W85756  30.047   0.902  14.813
26254W        W85757  11.329  25.521   0.836
26255W        W85758  30.554  38.531   4.663
26256W        W85759   7.773  30.081  13.044
26257W        W85760  33.533  26.682  10.479
26258W        W85761  38.455  30.921   2.809
26259W        W85762  23.577   8.215   3.671
26260W        W85763   0.348  16.177   1.439
26261W        W85764  40.846   0.411  11.377
26262W        W85765   4.931  31.533  10.950
26263W        W85766  30.134  18.179   4.334
26264W        W85767   5.869  30.645  13.911
26265W        W85768  16.781   3.725  12.392
26266W        W85769  25.474   7.312  13.847
26267W        W85770  13.239  20.719   2.740
26268W        W85771  35.889  14.736   4.323
26269W        W85772   8.274  19.236   4.225
26270W        W85773  24.596  17.162  12.032
26271W        W85774  17.244   2.259   3.648
26272W        W85775  17.613  18.077  14.334
26273W        W85776  34.461  21.747  13.032
26274W        W85777  21.673  41.850   3.302
26275W        W85778  32.973  41.991   0.780
26276W        W85779  33.938   9.796   1.261
26277W        W85780  13.204   7.880   2.393
26278W        W85781   2.882  31.122   3.780
26279W        W85782   7.812   1.305  12.512
26280W        W85783  10.173   7.327   5.201
26281W        W85784  43.432  22.518  11.921
26282W        W85785  27.098  23.013  12.420
26283W        W85786  19.557   5.379  13.955
26284W        W85787   8.690  23.091   0.476
26285W        W85788  39.993  37.419   4.206
26286W        W85789   0.914   5.886   9.933
26287W        W85790  42.863  11.750  11.968
26288W        W85791  37.408  27.009   4.248
26289W        W85792  33.877   9.250  10.507
26290W        W85793  27.562  40.844   3.386
26291W        W85794  10.316  39.476   2.855
26292W        W85795  38.075  36.412  11.104
26293W        W85796  43.951  29.962  12.067
26294W        W85797  26.669   6.829   1.315
26295W        W85798  32.962  38.325   2.385
26296W        W85799   5.394  34.556   1.817
26297W        W85800   8.346  42.463   2.685
26298W        W85801   4.943  30.636   0.916
26299W        W85802  32.929  21.192   1.919
26300W        W85803  12.843  17.075  11.577
26301W        W85804   0.422   6.233   2.746
26302W        W85805  43.942  20.179  13.504
26303W        W85806   7.272   3.754  10.622
26304W        W85807   0.459   4.859  11.551
26305W        W85808   2.302  28.150  10.969
26306W        W85809   8.718  40.049   2.871
26307W        W85810  12.716  10.676   2.283
26308W        W85811  44.926  12.840   3.799
26309W        W85812  43.890  24.084  10.458
26310W        W85813  13.741  24.557   0.430
26311W        W85814  30.971   3.868  12.521
26312W        W85815   7.716  11.357  13.836
26313W        W85816  22.615  15.152  11.562
26314W        W85817  35.478   6.364  12.350
26315W        W85818  35.421  31.642   4.721
26316W        W85819  20.537  19.724  12.436
26317W        W85820  32.480  41.473   5.123
26318W        W85821  24.709  12.317  13.801
26319W        W85822  40.449  12.852   5.275
26320W        W85823  33.444  35.982  14.860
26321W        W85824   8.381  17.173  10.032
26322W        W85825  13.286   1.326   4.709
26323W        W85826  18.745  24.548  14.787
26324W        W85827  25.610   1.826   1.885
26325W        W85828  19.136  12.632  10.919
26326W        W85829  30.452  15.725  12.393
26327W        W85830  32.436   8.301  13.947
26328W        W85831  40.374  33.384  11.045
26329W        W85832   9.851  18.554  13.034
26330W        W85833  36.077   2.406  11.450
26331W        W85834  40.508  37.919   4.838
26332W        W85835  24.658  24.095   2.693
26333W        W85836  43.804  22.528  12.351
26334W        W85837  26.998  31.453  11.377
26335W        W85838  30.040   7.728   1.307
26336W        W85839  43.284  33.573   0.363
26337W        W85840  23.505   5.280  14.318
26338W        W85841  42.811  37.430  12.038
26339W        W85842   6.685  28.938  13.324
26340W        W85843  30.599  23.114   2.247
26341W        W85844  18.590  25.595  14.495
26342W        W85845  40.807  12.714  13.893
26343W        W85846   6.212   2.357   0.249
26344W        W85847   4.863  10.877   0.881
26345W        W85848  21.746  16.681   4.352
26346W        W85849  34.429  40.433  14.836
26347W        W85850   5.405   1.405  11.013
26348W        W85851  37.421   9.277   3.818
26349W        W85852  16.802  13.615   3.751
26350W        W85853  15.722  23.588  12.444
26351W        W85854  38.956  31.573   1.314
26352W        W85855  31.925  29.501  11.925
26353W        W85856  43.377  13.844   0.394
26354W        W85857  15.796  34.600   1.267
26355W        W85858   5.764  30.068   1.437
26356W        W85859  39.385  18.272   2.866
26357W        W85860  44.842  10.646   4.736
26358W        W85861   7.819  39.894   1.714
26359W        W85862   8.393  22.688  14.443
26360W        W85863  30.656  39.480  13.381
26361W        W85864  15.698   2.946   3.212
26362W        W85865  17.253  20.231   3.848
26363W        W85866  33.453  15.798   3.656
26364W        W85867  40.392   1.326   2.414
26365W        W85868  29.653  42.920  11.873
26366W        W85869  11.734  27.547  14.790
26367W        W85870  22.557  15.170  13.847
26368W        W85871  37.084  23.677  14.804
26369W        W85872   3.801  36.376   0.966
26370W        W85873  27.145  25.693   1.813
26371W        W85874  39.445   1.765   4.814
26372W        W85875  35.904  20.547   4.696
26373W        W85876  40.873  32.554  14.467
26374W        W85877  12.707  16.802   3.285
26375W        W85878   4.760   1.949  13.506
26376W        W85879  12.796  18.264  12.918
26377W        W85880   8.364   3.782   4.263
26378W        W85881  21.679   3.753  13.875
26379W        W85882  21.724   2.363   1.829
26380W        W85883  34.902   3.337   2.669
26381W        W85884   4.443  23.029   2.757
26382W        W85885  10.172  18.598   2.395
26383W        W85886  24.108  34.044  10.969
26384W        W85887  15.782  23.681  10.587
26385W        W85888   1.954  42.926   1.882
26386W        W85889   5.724  42.841  13.433
26387W        W85890   4.731   2.784   3.234
26388W        W85891  37.067  29.117   0.836
26389W        W85892  24.619  44.869   3.239
26390W        W85893  26.182  31.932  12.868
26391W        W85894  28.991  35.058   0.738
26392W        W85895   3.918  38.050   0.807
26393W        W85896  20.670  24.163   4.158
26394W        W85897  26.638  26.638  11.129
26395W        W85898   3.273  15.647   3.176
26396W        W85899  24.659  22.644  10.629
26397W        W85900   5.821  32.593  12.938
26398W        W85901  12.298  44.305   1.826
26399W        W85902  43.854  33.952  12.363
26400W        W85903   5.350  23.187   0.901
26401W        W85904  21.525  35.402   2.306
26402W        W85905  12.120   2.785  14.452
26403W        W85906  32.454  38.482   3.633
26404W        W85907   4.228  15.689  10.630
26405W        W85908  23.681   4.339   1.803
26406W        W85909  32.064  24.585  11.087
26407W        W85910  13.243  37.423   3.752
26408W        W85911  10.263  35.910  12.030
26409W        W85912  23.046  34.512  11.604
26410W        W85913  39.001  41.296   4.659
26411W        W85914  32.039  42.848   4.318
26412W        W85915  17.602   2.803  10.536
26413W        W85916  21.115  30.973   2.785
26414W        W85917  24.512  27.102   3.703
26415W        W85918  36.566  32.890  12.069
26416W        W85919  43.996  24.541   0.925
26417W        W85920  21.102   4.872  14.296
26418W        W85921  43.340  26.002  10.555
26419W        W85922  28.632   5.822  12.374
26420W        W85923   9.760   7.684   2.206
26421W        W85924  40.830   4.871  10.052
26422W        W85925  30.071  24.674  10.104
26423W        W85926   2.837  35.912  13.940
26424W        W85927   5.775  28.112  10.899
26425W        W85928   6.680  19.269   3.854
26426W        W85929  33.536  39.506  14.453
26427W        W85930   8.286  14.692   3.376
26428W        W85931  21.256  39.031  11.976
26429W        W85932  11.295  34.575   4.604
26430W        W85933   6.427  27.055   1.882
26431W        W85934  13.779  22.220  11.422
26432W        W85935  13.629  23.606  11.968
26433W        W85936  23.053  41.820   3.726
26434W        W85937  36.923  31.642  10.949
26435W        W85938  19.172  28.162   1.933
26436W        W85939  31.108  32.408  12.480
26437W        W85940  10.384  13.648  12.431
26438W        W85941  34.992   0.847  14.315
26439W        W85942   5.230   0.295   1.379
26440W        W85943  36.081  20.152  14.990
26441W        W85944  35.407   7.184   4.822
26442W        W85945  35.095  40.995   4.831
26443W        W85946  26.695  23.106   4.831
26444W        W85947  18.065  23.130  14.383
26445W        W85948  30.593   5.346   4.290
26446W        W85949  28.110  33.024   2.310
26447W        W85950  10.780  21.204   0.383
26448W        W85951  29.657  34.480  11.482
26449W        W85952  38.913  14.154  13.528
26450W        W85953   4.298  23.574  11.944
26451W        W85954   2.789  28.541   4.635
26452W        W85955  23.634  26.611  12.872
26453W        W85956  18.280   8.677   4.649
26454W        W85957   3.801   1.945   5.770
26455W        W85958   6.878  26.506  11.882
26456W        W85959   7.826  35.010   0.737
26457W        W85960  22.088   2.264  13.499
26458W        W85961  43.008  33.075   0.895
26459W        W85962   0.392  42.411   3.288
26460W        W85963  16.296  12.851   1.921
26461W        W85964  21.084  41.866  10.465
26462W        W85965  26.695   4.706   5.244
26463W        W85966   1.748  13.110  13.407
26464W        W85967  29.007  36.926  14.942
26465W        W85968  31.924  18.767  11.562
26466W        W85969   0.776  30.910  13.413
26467W        W85970  40.028  28.967   4.826
26468W        W85971  21.084   2.888  13.462
26469W        W85972   9.839  27.519  11.587
26470W        W85973  31.594   7.410  12.026
26471W        W85974  44.822  35.484   2.806
26472W        W85975  13.138  12.122   1.759
26473W        W85976   8.312  21.517  14.966
26474W        W85977  42.878  30.092  13.388
26475W        W85978  34.932  37.072   1.400
26476W        W85979  32.605   2.237   3.225
26477W        W85980  16.709  21.151   1.921
26478W        W85981   6.837  41.528   0.901
26479W        W85982  32.452  17.237  11.420
26480W        W85983   0.433   5.285  13.481
26481W        W85984  19.557  30.912   2.247
26482W        W85985  29.531  26.675  12.382
26483W        W85986   5.847   5.318   0.950
26484W        W85987  20.725  17.724   1.857
26485W        W85988  26.205  25.145   3.175
26486W        W85989  17.166  30.919   1.307
26487W        W85990  19.698  32.486  13.793
26488W        W85991  40.832  18.191  13.480
26489W        W85992  32.484  24.181   4.263
26490W        W85993  24.228  13.187  13.802
26491W        W85994   8.859  34.422   2.281
26492W        W85995  28.439   8.178   1.382
26493W        W85996  44.414   6.876  14.935
26494W        W85997  21.034  44.353  14.983
26495W        W85998  14.829  36.447  12.984
26496W        W85999   8.865  13.340  10.996
26497W        W86000   3.726  44.864   2.783
26498W        W86001  37.938  17.275   0.918
26499W        W86002  14.721   2.370  11.091
26500W        W86003  43.302   8.330  10.922
26501W        W86004   9.786  17.148   1.437
26502W        W86005  10.701  32.553  12.543
26503W        W86006  21.704  39.966   4.775
26504W        W86007  33.926  19.601   3.377
26505W        W86008  33.607  32.904  11.964
26506W        W86009  39.900  35.065   4.829
26507W        W86010   4.331   8.882  14.761
26508W        W86011   9.701  33.065  14.895
26509W        W86012   0.773  40.330   4.716
26510W        W86013  41.436  35.902   4.749
26511W        W86014  35.864  44.902   1.327
26512W        W86015  31.631  27.547  14.483
26513W        W86016  36.851   7.709  11.505
26514W        W86017  27.613  44.934  12.872
26515W        W86018  44.266  42.508   1.358
26516W        W86019  28.675  19.069  14.346
26517W        W86020  35.398  39.355   2.755
26518W        W86021  15.153  25.665  11.906
26519W        W86022  23.062  30.447  10.999
26520W        W86023  31.106  26.603   2.393
26521W        W86024  40.400  28.591  14.425
26522W        W86025  41.840   2.240   4.689
26523W        W86026  25.984  29.111  13.922
26524W        W86027   2.767  10.776  14.380
26525W        W86028  17.682   1.473  14.918
26526W        W86029   4.913  30.159   4.209
26527W        W86030  44.326  26.045   3.760
26528W        W86031  38.437  42.846  11.450
26529W        W86032   9.181  32.397  13.527
26530W        W86033  32.072  40.319  14.958
26531W        W86034  24.141  34.095  14.970
26532W        W86035  26.195  41.351   2.256
26533W        W86036  43.973   6.203   3.199
26534W        W86037  22.165  12.731  14.290
26535W        W86038  16.703  28.444  13.819
26536W        W86039  19.657  27.073   0.382
26537W        W86040  14.311   4.292   0.307
26538W        W86041  10.320   1.379   1.900
26539W        W86042  23.189  11.283  13.966
26540W        W86043  14.178  22.049  13.367
26541W        W86044  29.973  28.542  13.988
26542W        W86045  19.121  24.680  11.907
26543W        W86046  13.227   5.879   3.866
26544W        W86047  16.188  41.389  11.941
26545W        W86048  14.270  23.612   3.785
26546W        W86049  33.514   3.353   1.712
26547W        W86050  16.769  39.358   2.181
26548W        W86051   8.242   2.259   4.597
26549W        W86052  32.953   6.210  14.868
26550W        W86053  11.635  21.170   5.248
26551W        W86054  32.560  35.895  13.040
26552W        W86055  24.695   0.474   3.276
26553W        W86056  14.764   3.806  10.523
26554W        W86057  44.309  18.664   4.616
26555W        W86058  34.411  36.346   2.373
26556W        W86059  10.753  42.471   4.199
26557W        W86060  25.496  15.303  13.539
26558W        W86061   3.772   3.325   4.769
26559W        W86062   2.253  18.706   2.347
26560W        W86063   0.958  26.124  14.345
26561W        W86064  35.990  44.896  14.424
26562W        W86065  37.919  42.028  13.384
26563W        W86066  38.845  33.991   2.192
26564W        W86067  27.012  31.932   4.639
26565W        W86068  35.413  29.954  12.456
26566W        W86069  21.057  19.147   0.466
26567W        W86070   2.248  44.855  13.332
26568W        W86071  30.488  44.903   1.694
26569W        W86072  30.472  20.749   4.279
26570W        W86073  34.524  29.545  13.022
26571W        W86074  17.152  21.039  10.584
26572W        W86075  34.967   9.342  10.941
26573W        W86076  32.915   2.276  11.897
26574W        W86077  24.619  26.640  11.097
26575W        W86078   3.745  22.173   3.333
26576W        W86079  34.539  19.603   3.765
26577W        W86080  23.065  32.630   0.351
26578W        W86081  22.150  27.528  12.454
26579W        W86082   8.694  12.356  11.994
26580W        W86083  39.316   1.470   0.443
26581W        W86084  27.647  20.057  10.936
26582W        W86085  15.711  19.760   1.823
26583W        W86086  34.886  31.630   1.782
26584W        W86087  20.106  32.043  13.819
26585W        W86088  17.123   7.842   2.180
26586W        W86089   2.861  20.218   3.659
26587W        W86090   9.781  43.867   0.924
26588W        W86091  22.122  35.358   0.902
26589W        W86092  17.742  28.552   3.353
26590W        W86093  20.194  36.388   3.187
26591W        W86094  34.963  22.156  14.924
26592W        W86095  10.248  26.577   0.462
26593W        W86096   8.232   2.798   1.338
26594W        W86097  25.553  39.959  11.960
26595W        W86098  17.615  15.609  11.081
26596W        W86099  33.885   4.302   2.190
26597W        W86100  28.950   6.217  13.954
26598W        W86101  18.698  43.290  13.417
26599W        W86102   1.243  29.459  12.014
26600W        W86103  38.342  39.535  12.489
26601W        W86104  10.226  41.299   4.601
26602W        W86105  13.638   9.197  13.911
26603W        W86106  42.793  22.020  14.771
26604W        W86107  16.795  44.883   4.798
26605W        W86108  42.904  24.103   1.213
26606W        W86109   0.346   9.276   2.796
26607W        W86110   0.988  36.863  11.127
26608W        W86111   5.196  44.994   3.860
26609W        W86112  10.295  10.270   2.776
26610W        W86113   9.774  36.078   1.323
26611W        W86114  13.753  22.198   4.792
26612W        W86115  43.298  27.158  10.554
26613W        W86116  29.098   9.702  13.892
26614W        W86117  15.734  31.897  10.893
26615W        W86118  12.816  37.567   0.298
26616W        W86119  18.687  24.725   4.342
26617W        W86120   1.462   4.931  11.460
26618W        W86121  10.734   2.294   1.811
26619W        W86122  32.613   6.807   4.676
26620W        W86123  17.072  31.531  11.544
26621W        W86124   3.449  20.187  10.559
26622W        W86125  28.086  22.573  11.524
26623W        W86126  12.202  26.680  14.469
26624W        W86127   3.887  22.235   1.914
26625W        W86128  42.367  33.524  12.067
26626W        W86129  19.557  37.419  12.914
26627W        W86130  33.537  21.233  13.027
26628W        W86131  33.886  41.314   3.169
26629W        W86132  39.902  31.517   1.779
26630W        W86133  27.688  21.620   1.261
26631W        W86134   2.352  24.689  10.582
26632W        W86135  16.237  44.349  13.005
26633W        W86136  27.512  13.223   3.662
26634W        W86137  13.191   1.418  11.874
26635W        W86138  43.461  40.359  12.945
26636W        W86139  16.624  40.352  13.868
26637W        W86140  10.755   7.184  12.994
26638W        W86141  16.810  37.489   0.371
26639W        W86142  32.547  44.367   0.935
26640W        W86143  43.834  21.188   2.824
26641W        W86144  12.285  27.678  14.935
26642W        W86145  44.348  32.459   3.751
26643W        W86146  38.409   9.275  10.459
26644W        W86147  40.043  27.567   4.131
26645W        W86148  16.719  16.607   2.394
26646W        W86149  16.704  28.572   3.758
26647W        W86150  42.780  17.578   0.954
26648W        W86151  22.663   6.210  11.942
26649W        W86152  38.051  34.458  10.892
26650W        W86153  21.255   1.847  11.612
26651W        W86154  25.633  32.481   3.729
26652W        W86155  35.388  27.197  12.555
26653W        W86156  42.839   5.893   3.824
26654W        W86157  23.584  44.348  14.480
26655W        W86158  16.792  39.048   4.767
26656W        W86159   1.921  44.760  11.964
26657W        W86160  18.617   9.699   4.168
26658W        W86161  13.829  29.573   1.702
26659W        W86162  14.765  25.632  11.995
26660W        W86163  35.358  27.946  10.423
26661W        W86164  44.446  24.529  11.874
26662W        W86165  22.613  37.845   3.787
26663W        W86166   4.216  28.031   9.632
26664W        W86167  43.773  41.971  13.371
26665W        W86168  40.041  25.554   0.833
26666W        W86169  23.548   6.881  13.986
26667W        W86170  29.120  26.606  14.318
26668W        W86171  13.662  19.176  13.502
26669W        W86172   7.835  10.318  14.295
26670W        W86173  22.594  24.100   0.463
26671W        W86174   9.649  39.956  10.543
26672W        W86175  18.653  14.705  14.432
26673W        W86176  14.652  22.115  11.514
26674W        W86177  28.944  40.455  10.908
26675W        W86178   6.796  25.111   0.938
26676W        W86179  36.429  12.828  11.113
26677W        W86180  34.411  19.774  11.962
26678W        W86181  30.650  17.727  10.452
26679W        W86182  30.462  15.314  12.043
26680W        W86183  11.164  39.933  12.060
26681W        W86184  43.828  31.942  12.033
26682W        W86185  20.673  18.688  11.909
26683W        W86186  43.987   1.383  14.768
26684W        W86187  22.179   0.923   0.426
26685W        W86188  34.946  10.824   3.699
26686W        W86189  17.063  20.265  13.512
26687W        W86190  37.842   9.213   9.976
26688W        W86191  31.032   4.419   3.290
26689W        W86192   8.658  44.315  12.868
26690W        W86193  33.614  25.008  10.603
26691W        W86194  39.508  11.210  11.113
26692W        W86195  17.740  36.524  13.368
26693W        W86196   2.859   4.358  12.884
26694W        W86197   4.443  22.139   0.438
26695W        W86198  44.760   7.729  11.523
26696W        W86199  28.986   2.434  14.025
26697W        W86200   8.707   6.840  11.538
26698W        W86201  39.957  28.163   2.682
26699W        W86202   7.281  14.773   0.745
26700W        W86203  38.473   9.733  13.861
26701W        W86204  43.385  20.174   1.913
26702W        W86205  11.645  33.904   0.331
26703W        W86206   0.429  24.144   5.316
26704W        W86207  39.419   3.738  10.923
26705W        W86208  11.227   7.872  11.101
26706W        W86209  42.482   5.764  12.505
26707W        W86210  37.926  36.408  14.020
26708W        W86211  13.110  36.417  12.404
26709W        W86212  13.821   9.674   0.286
26710W        W86213  22.199   9.287  13.979
26711W        W86214   2.394  37.844   3.164
26712W        W86215   7.344  37.939   3.195
26713W        W86216  38.347   6.904   9.972
26714W        W86217  14.648  14.301  12.916
26715W        W86218  20.589  42.358  14.439
26716W        W86219  12.717  25.675  11.910
26717W        W86220  33.613  29.500   2.351
26718W        W86221  31.003   5.326  10.607
26719W        W86222  32.550  38.039   3.322
26720W        W86223   5.817  29.647  12.515
26721W        W86224   6.722  19.747  12.829
26722W        W86225  20.037  36.863   1.243
26723W        W86226  25.496  33.113  13.361
26724W        W86227  29.546  22.567   2.404
26725W        W86228  37.577  13.629   4.656
26726W        W86229  19.109   9.221  11.064
26727W        W86230   4.718  27.616   3.683
26728W        W86231   3.423  10.233  14.014
26729W        W86232   1.348  27.184   3.268
26730W        W86233  34.929  36.098   5.102
26731W        W86234  44.415  16.174   4.655
26732W        W86235  21.660  41.990  13.967
26733W        W86236   4.791  26.580   2.389
26734W        W86237  38.931  15.646   0.917
26735W        W86238  33.064   2.321   1.375
26736W        W86239   3.729  15.791  13.846
26737W        W86240  23.658  17.283  14.497
26738W        W86241   4.783  36.098   4.162
26739W        W86242  22.008   2.232  13.919
26740W        W86243   4.205  20.042  12.546
26741W        W86244   7.219   7.737  10.521
26742W        W86245   9.287   0.457  13.390
26743W        W86246  10.690  38.018  13.358
26744W        W86247  39.865  22.098  14.437
26745W        W86248  11.351  26.642  12.940
26746W        W86249  39.816  40.820  11.039
26747W        W86250  36.914  20.234   4.223
26748W        W86251   2.735   1.806   3.689
26749W        W86252  40.032  18.669  14.957
26750W        W86253  39.470   8.775  14.379
26751W        W86254  13.724  11.816   2.834
26752W        W86255  14.686   8.268  14.969
26753W        W86256  34.443  23.120  13.978
26754W        W86257  18.728  10.279  14.275
26755W        W86258   5.766  31.003  11.899
26756W        W86259  35.926  22.035  10.639
26757W        W86260  44.294   7.734   0.945
26758W        W86261  39.049   2.860   0.282
26759W        W86262  31.471  18.229  13.446
26760W        W86263   7.748  31.114   3.278
26761W        W86264  14.596  12.632  11.028
26762W        W86265  38.005  31.944   2.391
26763W        W86266  19.602  20.733   1.867
26764W        W86267   3.750  15.130  12.951
26765W        W86268  42.872   4.755   3.634
26766W        W86269  31.020  33.013  14.445
26767W        W86270  32.087  42.488  11.584
26768W        W86271  28.536  35.946  14.486
26769W        W86272  43.276  28.474  12.441
26770W        W86273  42.012   3.943  11.378
26771W        W86274  28.973   5.776  11.129
26772W        W86275  13.162  28.667   3.322
26773W        W86276  40.998  12.767  11.441
26774W        W86277  44.869  14.799   3.256
26775W        W86278   3.316  20.061   0.950
26776W        W86279  10.235   9.880   3.703
26777W        W86280  20.532  17.573   0.869
26778W        W86281  37.981  22.728   3.814
26779W        W86282   8.230  32.978  14.348
26780W        W86283   9.206  42.024   0.795
26781W        W86284  29.145   1.370   0.257
26782W        W86285  26.017  36.358   0.255
26783W        W86286  23.636  42.430   3.361
26784W        W86287  32.084  15.292   3.657
26785W        W86288  27.538  12.295   9.576
26786W        W86289  14.145  43.317   3.642
26787W        W86290  11.283   2.767  12.545
26788W        W86291  23.616   1.295   1.742
26789W        W86292   6.877  36.400  12.446
26790W        W86293  14.713  13.823   4.333
26791W        W86294  41.884  41.920   3.284
26792W        W86295  27.957  18.182   5.152
26793W        W86296   8.827   7.284   9.982
26794W        W86297  21.019  34.982   0.338
26795W        W86298   7.201  39.409   4.123
26796W        W86299   3.914   8.265   3.843
26797W        W86300  21.605  40.960   1.300
26798W        W86301   8.375  41.937   1.311
26799W        W86302   8.242  26.081   2.899
26800W        W86303  33.622  25.158  14.414
26801W        W86304  30.116  30.509   3.155
26802W        W86305  31.464  26.562   1.232
26803W        W86306  43.443   8.896  14.335
26804W        W86307   9.801  31.948  10.488
26805W        W86308   8.690  21.579   3.734
26806W        W86309  37.865  34.468   2.400
26807W        W86310   6.328  14.604   3.322
26808W        W86311  32.097  22.066   4.255
26809W        W86312  37.924  21.103  13.056
26810W        W86313   8.772  25.605   1.443
26811W        W86314  31.639  32.945   1.318
26812W        W86315   7.274  15.701   1.900
26813W        W86316  28.630  39.836   3.865
26814W        W86317  17.558   7.675  13.060
26815W        W86318  22.730  29.167  14.363
26816W        W86319   3.840  23.032  11.573
26817W        W86320  24.563   3.281   0.821
26818W        W86321  32.985  15.625   2.713
26819W        W86322   7.791  25.613  10.961
26820W        W86323  22.150  25.050  14.498
26821W        W86324  18.781  18.295  12.969
26822W        W86325   2.438  38.369   1.391
26823W        W86326  27.131  29.092  14.293
26824W        W86327  40.055  32.415   2.841
26825W        W86328  12.252  44.951   2.694
26826W        W86329  44.476  20.242  13.330
26827W        W86330  39.960  35.387   2.227
26828W        W86331   5.835   4.741   1.382
26829W        W86332   3.818  19.150  14.321
26830W        W86333   7.291  12.746  13.888
26831W        W86334  39.998  18.252   0.407
26832W        W86335  25.111   3.295   0.320
26833W        W86336  31.099  25.160  14.340
26834W        W86337  14.619  23.711   0.934
26835W        W86338   1.839  30.533  11.100
26836W        W86339   6.245  42.954   9.656
26837W        W86340  29.041  23.158  10.417
26838W        W86341  29.506  39.843   1.378
26839W        W86342   4.323   2.244  10.906
26840W        W86343   4.916  39.320  10.482
26841W        W86344  22.721  30.582   3.199
26842W        W86345  19.146  15.137   4.747
26843W        W86346  18.066  15.170  11.931
26844W        W86347  34.434  42.906  13.854
26845W        W86348  12.701  35.108  11.514
26846W        W86349  27.537  19.561   2.322
26847W        W86350  11.862   2.281  10.945
26848W        W86351  22.505   1.785   0.468
26849W        W86352  44.267  32.440  11.007
26850W        W86353  43.011  34.466   4.765
26851W        W86354  24.667   6.385  14.925
26852W        W86355  33.412  11.665   1.333
26853W        W86356  19.641  26.674   3.733
26854W        W86357  17.586   0.867   0.272
26855W        W86358  21.569  29.590   0.478
26856W        W86359  35.508  39.989  13.423
26857W        W86360   2.349  36.970  13.485
26858W        W86361  16.587  42.411   4.680
26859W        W86362  28.663   6.709   0.444
26860W        W86363  27.651  30.591   3.164
26861W        W86364  16.078  29.628   2.394
26862W        W86365  27.471  14.116   1.250
26863W        W86366   9.325  24.662   3.199
26864W        W86367  34.050   4.748  14.927
26865W        W86368   7.324  28.460   0.429
26866W        W86369  22.510   1.249  12.395
26867W        W86370  23.091  41.977  13.392
26868W        W86371  29.009  43.437   0.782
26869W        W86372  28.094   4.409   1.389
26870W        W86373   4.937   3.382  13.914
26871W        W86374   4.400  19.639  12.036
26872W        W86375   0.758  14.261   4.665
26873W        W86376   2.894  13.165  11.475
26874W        W86377  15.734  11.331   2.882
26875W        W86378   0.356  30.423   3.670
26876W        W86379   5.294  26.645  14.790
26877W        W86380  17.722  30.009  11.960
26878W        W86381   7.406  17.614  11.433
26879W        W86382  22.574   4.852   3.183
26880W        W86383   0.764   8.775   2.266
26881W        W86384   3.825  37.915   1.820
26882W        W86385  40.032  37.559  11.553
26883W        W86386   3.334  41.516   3.330
26884W        W86387  40.971   2.471   2.268
26885W        W86388  25.509  11.367   0.792
26886W        W86389   9.822  34.973   2.297
26887W        W86390  33.615  35.369  14.516
26888W        W86391  31.151  33.093   4.338
26889W        W86392  16.718  27.021  13.006
26890W        W86393  39.855  35.945  13.932
26891W        W86394  27.486  28.673  13.902
26892W        W86395  30.998  42.785  14.328
26893W        W86396  13.779  34.102   4.797
26894W        W86397  29.452  39.023  13.424
26895W        W86398  16.625   7.777  13.356
26896W        W86399  11.155  10.715   3.318
26897W        W86400  31.005   8.310  14.988
26898W        W86401  43.346   8.242  14.785
26899W        W86402  11.630  19.654   2.258
26900W        W86403   2.926  14.179   3.214
26901W        W86404  27.577   0.337  10.442
26902W        W86405  35.535  29.629  14.873
26903W        W86406  12.313  14.761   5.593
26904W        W86407  25.966  17.723   4.350
26905W        W86408  22.025  25.595   2.325
26906W        W86409  14.096   8.816   1.436
26907W        W86410  16.696  37.057  14.275
26908W        W86411   9.712   0.294  12.005
26909W        W86412   0.349  22.687  10.134
26910W        W86413   9.377  36.347  13.887
26911W        W86414  20.726  16.211   3.715
26912W        W86415  26.964  12.208  13.424
26913W        W86416   4.926  34.868   2.885
26914W        W86417  35.423   7.735   2.875
26915W        W86418  28.162  26.209   4.196
26916W        W86419  37.078  18.279  10.439
26917W        W86420  16.572  41.864  10.435
26918W        W86421   0.269  23.648   5.672
26919W        W86422  11.327  39.881   4.646
26920W        W86423  14.125  28.010  12.038
26921W        W86424  17.127   3.816  13.458
26922W        W86425  29.054  29.531  13.364
26923W        W86426  14.100  13.664  14.982
26924W        W86427  32.486   3.762  13.864
26925W        W86428  12.847  14.192   0.873
26926W        W86429  32.061  11.134   4.181
26927W        W86430  28.148  41.787   3.318
26928W        W86431  42.345   7.203   2.870
26929W        W86432  41.390  10.662  13.444
26930W        W86433  18.707  25.039   1.414
26931W        W86434  13.822  25.024   0.870
26932W        W86435  39.979  36.367   1.879
26933W        W86436   5.298  39.428  11.500
26934W        W86437  31.648   2.748   4.779
26935W        W86438  34.015   1.750   4.781
26936W        W86439  11.725   4.717   3.261
26937W        W86440  33.604  37.056  12.552
26938W        W86441  35.979  12.811  14.031
26939W        W86442  13.771  24.045  10.982
26940W        W86443  25.072  18.565   5.242
26941W        W86444  14.651  16.187   2.797
26942W        W86445  43.869  15.209   0.417
26943W        W86446   9.822  18.785  10.527
26944W        W86447   1.760   1.902   1.385
26945W        W86448  14.802  33.558  11.517
26946W        W86449  27.512  43.365   1.726
26947W        W86450  16.769  41.818  14.957
26948W        W86451  11.745  23.527  10.549
26949W        W86452   9.305  35.442   1.880
26950W        W86453   6.762   9.365   0.899
26951W        W86454  27.034  16.677   1.879
26952W        W86455  28.965  33.501   3.792
26953W        W86456  13.772  41.899  14.029
26954W        W86457  26.991  38.452  11.413
26955W        W86458   8.736  22.078  12.959
26956W        W86459  18.278  24.691  12.519
26957W        W86460  29.545  40.900  14.781
26958W        W86461  38.041   8.381  10.989
26959W        W86462  14.603   2.958  14.000
26960W        W86463   9.679   4.403   3.806
26961W        W86464  12.266  28.934   2.700
26962W        W86465  31.437   2.761   2.397
26963W        W86466  30.416  14.119  12.391
26964W        W86467  31.570  43.487  12.896
26965W        W86468   1.304  30.999   3.204
26966W        W86469  41.932  35.594  12.375
26967W        W86470  31.528  23.513   5.804
26968W        W86471   2.289  35.891   0.870
26969W        W86472  30.538  44.345  13.791
26970W        W86473  32.052  35.932   0.429
26971W        W86474  15.114  44.491   3.779
26972W        W86475   2.374  14.099   4.622
26973W        W86476  31.466  24.522   2.896
26974W        W86477   8.218  13.658   2.852
26975W        W86478  10.231  33.585  12.085
26976W        W86479  39.408  14.707   1.378
26977W        W86480   5.255  14.191  11.384
26978W        W86481  23.618  27.025  12.947
26979W        W86482   0.398  24.127   3.821
26980W        W86483  43.999  41.839   3.706
26981W        W86484  31.560  19.643  11.558
26982W        W86485  19.248  11.637   2.764
26983W        W86486  38.915  19.274   0.276
26984W        W86487  43.900  22.605   1.331
26985W        W86488  11.256   2.301  13.443
26986W        W86489  22.536  13.250  12.016
26987W        W86490  38.398  32.899   4.329
26988W        W86491  15.749  41.408   0.272
26989W        W86492  26.018  28.101   1.918
26990W        W86493   3.919  34.528  14.424
26991W        W86494  16.205  23.591  12.890
26992W        W86495  41.357  13.648   2.822
26993W        W86496  36.381  44.264   1.272
26994W        W86497   9.156  12.848   4.129
26995W        W86498   4.398  20.113  11.524
26996W        W86499  35.973  22.116  14.759
26997W        W86500  35.471  12.757  12.351
26998W        W86501  20.745   0.939  10.630
26999W        W86502  41.870  26.062   0.450
27000W        W86503  14.807  44.355   1.743
27001W        W86504  19.243  43.797  14.804
27002W        W86505  25.220  30.124   4.222
27003W        W86506   0.866   2.867   0.769
27004W        W86507  29.547  35.363   3.363
27005W        W86508  16.764  16.204   1.892
27006W        W86509  27.186  20.739   2.896
27007W        W86510  15.664  27.959   0.816
27008W        W86511   3.760  40.005   3.813
27009W        W86512  26.571   0.833   1.842
27010W        W86513  11.773  27.086   3.850
27011W        W86514  30.137  36.060   0.963
27012W        W86515  13.248  13.619  14.286
27013W        W86516  24.117  16.631   4.705
27014W        W86517   1.308  10.175  10.488
27015W        W86518  29.649  18.231  14.778
27016W        W86519  27.607  38.443  11.469
27017W        W86520   5.243  20.706   1.371
27018W        W86521  36.593   7.710  12.908
27019W        W86522  25.499  12.244  12.842
27020W        W86523   2.877  44.442  13.796
27021W        W86524  12.142  34.941  10.437
27022W        W86525  11.257  25.695  12.416
27023W        W86526  13.189  14.693  14.320
27024W        W86527   2.843  26.053   1.324
27025W        W86528  31.409  37.939   2.725
27026W        W86529  24.695  10.257   4.637
27027W        W86530  16.204  17.722   4.173
27028W        W86531  10.801  43.850   1.444
27029W        W86532  23.107  37.034   4.330
27030W        W86533  20.595  31.526   3.233
27031W        W86534  39.919  33.578  11.910
27032W        W86535   7.218  39.009   1.396
27033W        W86536  40.315  35.946  12.405
27034W        W86537  39.554  18.145  12.485
27035W        W86538   6.765  18.770   4.660
27036W        W86539  21.533  40.884   4.152
27037W        W86540  27.971   0.365   2.404
27038W        W86541  17.790  17.262  11.924
27039W        W86542  19.629  26.982   0.771
27040W        W86543  16.237   0.825  13.419
27041W        W86544  37.568  20.090   4.770
27042W        W86545  30.501   5.358   4.702
27043W        W86546  40.317  42.938  12.920
27044W        W86547  32.885  40.406   1.832
27045W        W86548  26.671  13.694   3.319
27046W        W86549  27.515  31.450  13.013
27047W        W86550  11.242   8.262   1.384
27048W        W86551  38.021  27.174   3.825
27049W        W86552  32.581  13.773  11.004
27050W        W86553  18.751  40.853  11.017
27051W        W86554  31.927  20.684   4.781
27052W        W86555  28.444   1.869   3.719
27053W        W86556   9.700  29.449   0.956
27054W        W86557  32.464   2.888   4.148
27055W        W86558   9.710  23.624   1.347
27056W        W86559   5.693  41.480  10.447
27057W        W86560  16.182   6.792  12.041
27058W        W86561  37.081  12.178   3.274
27059W        W86562  28.566  17.215   0.303
27060W        W86563  22.085  22.195   4.244
27061W        W86564  30.954  42.012  11.557
27062W        W86565  42.978   7.252   4.749
27063W        W86566  19.755  20.750  14.299
27064W        W86567  13.631  44.384   3.841
27065W        W86568   8.862  13.843   5.247
27066W        W86569  16.249   2.864   0.422
27067W        W86570  24.156  42.788   1.718
27068W        W86571   2.960  42.984  14.454
27069W        W86572  22.192  31.438   4.753
27070W        W86573  18.648  20.569  12.401
27071W        W86574   6.301  32.995  11.981
27072W        W86575  16.664  20.088  11.479
27073W        W86576   4.811  15.655   4.138
27074W        W86577  14.688  35.400  12.556
27075W        W86578   3.844  43.840   2.216
27076W        W86579  30.443  18.221   4.160
27077W        W86580   4.896  24.633   3.708
27078W        W86581  20.193  14.645  11.924
27079W        W86582  40.862   8.832  11.878
27080W        W86583  11.681  27.964  12.546
27081W        W86584  21.645  31.479   2.723
27082W        W86585  25.992  33.079  10.901
27083W        W86586  16.224   1.830  12.070
27084W        W86587  26.072  43.019   4.180
27085W        W86588   8.285   3.428  11.451
27086W        W86589   3.938  21.755   1.757
27087W        W86590  36.896  40.510  10.920
27088W        W86591  39.521  36.945  13.476
27089W        W86592  30.125  19.742   4.218
27090W        W86593  41.368  27.032  12.963
27091W        W86594  44.819   1.288  12.991
27092W        W86595  28.680   4.786   3.748
27093W        W86596   4.373  15.736  13.973
27094W        W86597  35.547  15.773  14.429
27095W        W86598  11.195  17.729  10.506
27096W        W86599  38.832  12.168   4.325
27097W        W86600  40.492   4.435  14.393
27098W        W86601   1.292  31.113  10.977
27099W        W86602   3.318  14.747   1.931
27100W        W86603  30.032  20.236  14.513
27101W        W86604  43.898  38.561  14.354
27102W        W86605  16.292  38.960  10.061
27103W        W86606  17.576  42.000   1.726
27104W        W86607  31.482  19.723  14.470
27105W        W86608   7.813  12.647   2.799
27106W        W86609  31.026   6.236   0.821
27107W        W86610  16.203  40.834  11.933
27108W        W86611  32.997   1.323   1.220
27109W        W86612  23.573   5.807  13.382
27110W        W86613   0.913  29.469   4.235
27111W        W86614  38.406  15.798   3.203
27112W        W86615   5.421  30.147  10.532
27113W        W86616  13.294  19.598   2.800
27114W        W86617   5.264  26.034  10.541
27115W        W86618  11.274  36.517  13.898
27116W        W86619  22.615   9.734   0.737
27117W        W86620  35.008  33.959   1.695
27118W        W86621  16.123   6.743   0.888
27119W        W86622  32.397   2.763  13.457
27120W        W86623  20.532   6.694  14.970
27121W        W86624  19.539   0.341  10.493
27122W        W86625  24.622  34.445   0.844
27123W        W86626  33.454  42.402  12.397
27124W        W86627  38.937  23.196   4.306
27125W        W86628  10.147   1.309   3.289
27126W        W86629  32.031  24.111  14.302
27127W        W86630  38.935  24.158   0.242
27128W        W86631  29.018   2.333   4.314
27129W        W86632  32.596  17.636  12.876
27130W        W86633  43.501  23.652   0.400
27131W        W86634  31.149  35.084  10.412
27132W        W86635  24.564  38.376   0.900
27133W        W86636  38.522  21.094   1.301
27134W        W86637   9.651   4.246  10.564
27135W        W86638  32.128  37.877  12.568
27136W        W86639  23.690  34.105   0.905
27137W        W86640  41.844  27.062  13.792
27138W        W86641  41.857   5.872  10.513
27139W        W86642  14.201  38.547  10.583
27140W        W86643  22.024  16.593  11.454
27141W        W86644  26.983   8.360  14.426
27142W        W86645  38.554  43.876   0.776
27143W        W86646  17.109  15.812   1.218
27144W        W86647  34.903  14.222   5.204
27145W        W86648   0.321  17.561  12.863
27146W        W86649  18.184  43.436  12.433
27147W        W86650  15.618  30.033  10.573
27148W        W86651   1.324  31.039   4.790
27149W        W86652  18.625  31.503   2.712
27150W        W86653  35.404   1.878  14.840
27151W        W86654  10.707   0.327  12.901
27152W        W86655  14.220  43.774  11.086
27153W        W86656   8.706  39.552   0.409
27154W        W86657  33.990  23.121   4.721
27155W        W86658  11.745  23.701   4.234
27156W        W86659   8.388   8.194  13.889
27157W        W86660  23.036  18.679   4.163
27158W        W86661  28.972   9.220  11.559
27159W        W86662  41.326  26.457  11.939
27160W        W86663  40.915  39.901  13.815
27161W        W86664   2.869  43.513  12.070
27162W        W86665  30.510  18.202   3.707
27163W        W86666  14.197  23.728   0.281
27164W        W86667  40.463  19.249  12.571
27165W        W86668  36.405  35.416  13.898
27166W        W86669   1.912   2.734   5.089
27167W        W86670  31.025  20.141  13.050
27168W        W86671   3.286  18.668   4.262
27169W        W86672  25.148  15.758   4.602
27170W        W86673  44.853  34.601  14.397
27171W        W86674  35.461  41.998  12.495
27172W        W86675  13.687   4.237  14.460
27173W        W86676   3.439   5.922  11.934
27174W        W86677  15.613  15.200   2.360
27175W        W86678  29.641  12.213  10.943
27176W        W86679  19.728  43.952   1.717
27177W        W86680  11.170  16.725   3.819
27178W        W86681  23.533  29.645  14.787
27179W        W86682  19.751  17.628  12.928
27180W        W86683  35.499  44.495   4.608
27181W        W86684  23.082  10.778  14.792
27182W        W86685  18.712   1.318   3.658
27183W        W86686  24.660  20.074  11.996
27184W        W86687  22.179   9.267   4.633
27185W        W86688  20.565  38.469  14.899
27186W        W86689  23.186  43.294  10.548
27187W        W86690  36.855  23.190  13.471
27188W        W86691  42.918  33.502   1.348
27189W        W86692  28.991  35.021  10.056
27190W        W86693  40.853  13.689  12.004
27191W        W86694  28.018  40.048  13.796
27192W        W86695  31.596   6.796  10.583
27193W        W86696  12.266   9.393   3.686
27194W        W86697  36.493  15.722   0.776
27195W        W86698  41.322  15.324   1.737
27196W        W86699  15.218  33.111   1.761
27197W        W86700  39.865  13.216   3.672
27198W        W86701   1.263  30.632  14.377
27199W        W86702   7.746  30.557  14.789
27200W        W86703  13.725  39.436  11.592
27201W        W86704  13.620  18.151  14.358
27202W        W86705  38.039  44.805  12.510
27203W        W86706  44.339  36.869  12.920
27204W        W86707  14.716  15.767  12.553
27205W        W86708   9.864  20.721  13.847
27206W        W86709  24.092  33.554   5.147
27207W        W86710   5.316  11.816   4.831
27208W        W86711  27.643  26.609  12.506
27209W        W86712  10.864  26.992   0.791
27210W        W86713   2.833  17.246  10.533
27211W        W86714  19.246  36.561   0.906
27212W        W86715   8.371   6.381   3.270
27213W        W86716  43.963   0.453   4.236
27214W        W86717   1.792   7.393  10.593
27215W        W86718  35.890   6.228  14.799
27216W        W86719  26.029  13.295  14.016
27217W        W86720  38.379  26.477   3.258
27218W        W86721  39.850  44.441   2.289
27219W        W86722   5.425  44.964   2.880
27220W        W86723   5.787  22.557  13.957
27221W        W86724   4.448   1.962  10.951
27222W        W86725  41.413   6.826  11.866
27223W        W86726  41.965  25.527   0.292
27224W        W86727  37.083  30.091  13.430
27225W        W86728   1.923  23.985  10.974
27226W        W86729  22.111  29.926   3.166
27227W        W86730  11.367  12.798  12.548
27228W        W86731  16.579  16.284   4.131
27229W        W86732  34.612   0.915  12.969
27230W        W86733  39.388   8.173  13.835
27231W        W86734  31.951  15.251   1.797
27232W        W86735  41.361   8.814   4.114
27233W        W86736  24.124  21.069   0.446
27234W        W86737  43.877  18.062   5.169
27235W        W86738  41.459  23.190   4.680
27236W        W86739  19.041   5.798  12.964
27237W        W86740  14.142   3.340   4.655
27238W        W86741  13.736  28.006   3.733
27239W        W86742   2.903  16.147  11.127
27240W        W86743  15.110   3.270   3.313
27241W        W86744  11.211   6.913   4.271
27242W        W86745  42.792  22.619   0.813
27243W        W86746  31.478   2.841   4.300
27244W        W86747  23.196  19.599  14.298
27245W        W86748  27.579   6.270   3.345
27246W        W86749  21.728  31.476   4.261
27247W        W86750  28.974  18.111   3.302
27248W        W86751  44.291  27.093  13.444
27249W        W86752   4.871  41.787  11.530
27250W        W86753  12.173  30.065   3.802
27251W        W86754  26.468  44.813   2.225
27252W        W86755  15.226  44.404  11.969
27253W        W86756  11.806  40.032   4.755
27254W        W86757  17.706  10.235  13.813
27255W        W86758  37.416  20.203  10.913
27256W        W86759  41.398  10.732  11.438
27257W        W86760   6.894  38.533  14.282
27258W        W86761  20.115  13.252   2.854
27259W        W86762   3.408  39.017   1.899
27260W        W86763  23.534  29.512   1.746
27261W        W86764  40.411  37.978   1.737
27262W        W86765  44.940  43.906  13.488
27263W        W86766   7.693  19.603   2.882
27264W        W86767  15.310  20.541  13.483
27265W        W86768  17.785  26.695   2.180
27266W        W86769   3.367   8.854   4.262
27267W        W86770   0.308   9.255   1.415
27268W        W86771   3.238   2.457   3.380
27269W        W86772  44.986   9.380  13.896
27270W        W86773  41.464  10.262  13.988
27271W        W86774  30.104   7.323   3.851
27272W        W86775  24.512  40.335   1.765
27273W        W86776  41.470  25.163  12.941
27274W        W86777  32.026   7.727   2.813
27275W        W86778   6.901  30.500  13.322
27276W        W86779  26.483   2.465   0.354
27277W        W86780  13.671  20.127   0.343
27278W        W86781  36.964  16.265   3.328
27279W        W86782  33.958  38.021  10.921
27280W        W86783  41.997  37.048  14.958
27281W        W86784  14.799  44.977  13.527
27282W        W86785  33.405  17.574   4.218
27283W        W86786  28.570  29.609  11.084
27284W        W86787  23.718  11.154   1.932
27285W        W86788   0.969  21.170   4.135
27286W        W86789  15.643  29.634  10.526
27287W        W86790   6.832  39.485   3.370
27288W        W86791  42.290  37.568  10.927
27289W        W86792   7.727   8.281   1.431
27290W        W86793  31.153  35.409   4.129
27291W        W86794  29.040  41.814   0.322
27292W        W86795  18.239  18.122   1.800
27293W        W86796  13.839  30.057  11.973
27294W        W86797  13.616  24.216   2.664
27295W        W86798  28.548  20.621   2.750
27296W        W86799   1.782  28.455  12.404
27297W        W86800  41.938  36.038   2.336
27298W        W86801  34.037  17.800   2.827
27299W        W86802  26.148  23.073   3.719
27300W        W86803  19.221  11.644  11.392
27301W        W86804  39.361  35.036   4.294
27302W        W86805  38.443  22.196   1.833
27303W        W86806  41.449   1.892   4.276
27304W        W86807   1.753  44.851  10.987
27305W        W86808   6.303  44.330   0.898
27306W        W86809   7.406   1.407   0.422
27307W        W86810  34.484  16.091   4.201
27308W        W86811  20.617  31.524  11.955
27309W        W86812  21.514  10.381   1.756
27310W        W86813   2.263  31.527   4.650
27311W        W86814  28.652   3.237   4.209
27312W        W86815  34.877  40.435  10.015
27313W        W86816  36.381  24.563   0.320
27314W        W86817  21.134  42.994   4.630
27315W        W86818   8.728   7.410   3.307
27316W        W86819  41.972  37.051  11.395
27317W        W86820   4.778  23.549   5.249
27318W        W86821   4.399  16.745   9.556
27319W        W86822  35.988   2.784  14.388
27320W        W86823  15.162  36.551   2.332
27321W        W86824  16.809  42.971   1.412
27322W        W86825   4.329  35.570   0.962
27323W        W86826  29.567  10.793  13.041
27324W        W86827  10.642  24.098  13.872
27325W        W86828  43.861  40.472   0.909
27326W        W86829  19.710  39.486   0.417
27327W        W86830  27.515  28.579  10.939
27328W        W86831  21.673  27.475   2.370
27329W        W86832  13.688  12.304   0.374
27330W        W86833  16.259  18.184  13.935
27331W        W86834  12.316   6.743  14.385
27332W        W86835   9.766  37.086   3.238
27333W        W86836   9.182  44.374   4.689
27334W        W86837  25.209  36.544  10.577
27335W        W86838   8.862   2.401   1.408
27336W        W86839   0.338  38.459  13.034
27337W        W86840   0.462   7.371   1.310
27338W        W86841  43.920   5.698   3.811
27339W        W86842  41.788  12.322   4.344
27340W        W86843   7.346  20.186  13.489
27341W        W86844   3.301  27.636  11.992
27342W        W86845  39.964  41.857   3.804
27343W        W86846  20.726  31.965   4.340
27344W        W86847  23.158  38.058   0.400
27345W        W86848   3.425  27.963  13.972
27346W        W86849  13.242   0.830  14.499
27347W        W86850  11.310  36.535  14.473
27348W        W86851  30.913  17.761   2.745
27349W        W86852  39.873  28.167   0.926
27350W        W86853   3.739  21.222  11.565
27351W        W86854  34.510   8.356   4.663
27352W        W86855  16.300  41.306  12.429
27353W        W86856  24.084   5.718   2.761
27354W        W86857  31.063  17.244   1.333
27355W        W86858  37.425   8.812   1.223
27356W        W86859  26.673  14.211  12.838
27357W        W86860  30.604  20.068  10.403
27358W        W86861  21.743  27.197   0.322
27359W        W86862   8.242   3.337  13.949
27360W        W86863  22.069  28.632   4.249
27361W        W86864  17.259  23.626   0.890
27362W        W86865  29.134  10.144   1.382
27363W        W86866  15.208  40.309   4.149
27364W        W86867   0.864  30.521   2.725
27365W        W86868  44.842  13.781  14.936
27366W        W86869   7.795   0.878  10.160
27367W        W86870   8.678   2.792  13.427
27368W        W86871  39.390  28.681   4.247
27369W        W86872  12.332  44.286   3.332
27370W        W86873  38.512  38.903  14.944
27371W        W86874  33.613   9.694   1.313
27372W        W86875  23.164  43.769  12.929
27373W        W86876  37.886   2.746   1.859
27374W        W86877  36.899   1.344  14.936
27375W        W86878  43.274  16.672   0.944
27376W        W86879  22.742   6.741  10.556
27377W        W86880  28.982   9.330  12.020
27378W        W86881  25.664  29.578   2.681
27379W        W86882   3.408  13.174  10.620
27380W        W86883  20.064  35.088   3.698
27381W        W86884  18.756  43.784   3.754
27382W        W86885  10.853  33.492   1.305
27383W        W86886  18.628  24.178   2.298
27384W        W86887  18.259  15.161  12.958
27385W        W86888   1.344  40.402   2.701
27386W        W86889  42.435   2.397   0.290
27387W        W86890  15.241  40.859   0.806
27388W        W86891  42.006  44.866  12.923
27389W        W86892  27.493  23.103   2.805
27390W        W86893   0.258   5.828  13.897
27391W        W86894  20.113   1.408  10.908
27392W        W86895  12.150   0.780   2.717
27393W        W86896   2.725  13.802  14.890
27394W        W86897  27.197   6.681   3.702
27395W        W86898  25.103  23.716   1.255
27396W        W86899  41.814  29.569  14.951
27397W        W86900   9.677  34.954   1.337
27398W        W86901   3.727  36.933  14.899
27399W        W86902   5.844  18.560   3.853
27400W        W86903  14.283  42.864  13.518
27401W        W86904  18.081  30.993  10.620
27402W        W86905  39.879  38.464   1.259
27403W        W86906  18.139  29.006  14.983
27404W        W86907  14.640  23.700   2.222
27405W        W86908  10.710  34.951   4.137
27406W        W86909  37.489  34.553  13.391
27407W        W86910  37.949  30.073  10.557
27408W        W86911  31.524  17.781  13.387
27409W        W86912  26.660  36.991   2.855
27410W        W86913  21.565  31.105  10.566
27411W        W86914   9.189  31.545  14.501
27412W        W86915   8.800   5.831  12.943
27413W        W86916  26.190   7.265   2.181
27414W        W86917  43.338  16.119  14.470
27415W        W86918   2.895  18.239   4.770
27416W        W86919  12.268  32.493  14.420
27417W        W86920  23.131   6.254   4.271
27418W        W86921  11.704  40.517   0.738
27419W        W86922   0.847   2.735  10.406
27420W        W86923  28.085  43.448   1.753
27421W        W86924  22.232  18.690   3.214
27422W        W86925   3.333   4.716  13.473
27423W        W86926  30.020  33.621  13.528
27424W        W86927  12.655   7.735   3.720
27425W        W86928   6.418  43.514  11.889
27426W        W86929  38.346  13.177  11.421
27427W        W86930  26.681  31.533  11.890
27428W        W86931  22.117  25.151   4.124
27429W        W86932  12.236  36.495  14.967
27430W        W86933  32.926  12.735   3.188
27431W        W86934  19.121  42.908  13.799
27432W        W86935  11.215  39.886   0.769
27433W        W86936   8.384   1.283  13.942
27434W        W86937   6.782   0.959   9.927
27435W        W86938  28.040  44.360   2.825
27436W        W86939  41.391  18.642   2.768
27437W        W86940   3.727  14.214  12.904
27438W        W86941   4.699  44.494  10.644
27439W        W86942  27.163  32.473   4.694
27440W        W86943  27.986  40.323   4.285
27441W        W86944  10.204  23.195   1.354
27442W        W86945  25.118  13.639  10.613
27443W        W86946  11.682   5.293   4.284
27444W        W86947   3.438  21.642  11.989
27445W        W86948  33.624  11.210   0.316
27446W        W86949   3.310  30.125   3.635
27447W        W86950  39.540   8.724   3.195
27448W        W86951  29.664   9.361   2.887
27449W        W86952  21.165   8.364   2.362
27450W        W86953  25.704  18.270   3.634
27451W        W86954  18.703  39.032   4.814
27452W        W86955  14.271  17.282   4.254
27453W        W86956   5.237  15.285  12.843
27454W        W86957  26.208  23.594  11.471
27455W        W86958  35.526   1.847  12.077
27456W        W86959  11.681   4.307  10.543
27457W        W86960  32.595   7.840  14.339
27458W        W86961  14.150  29.667  10.433
27459W        W86962   0.829  10.766   0.312
27460W        W86963   0.777  35.940   2.196
27461W        W86964  12.133  25.997  13.017
27462W        W86965  41.494  33.396  12.016
27463W        W86966  32.402  19.068  14.410
27464W        W86967   7.189  34.955  11.044
27465W        W86968   4.714  39.332  13.942
27466W        W86969   1.832  30.517  11.984
27467W        W86970   1.289  26.570   4.708
27468W        W86971  25.206   1.814   1.767
27469W        W86972   6.878  23.585  12.926
27470W        W86973  36.952  39.365   1.788
27471W        W86974  13.829  13.605   0.876
27472W        W86975   2.901  36.934  14.972
27473W        W86976  30.917  26.471  13.853
27474W        W86977  18.201  18.113  13.537
27475W        W86978  28.442  35.911  14.023
27476W        W86979  22.657  11.660  13.395
27477W        W86980  38.391  15.230   1.859
27478W        W86981  15.244  17.215   1.772
27479W        W86982  41.033  33.876   1.221
27480W        W86983  15.189  12.647  13.357
27481W        W86984  11.357  19.060  11.031
27482W        W86985  39.416  19.736  10.960
27483W        W86986  29.560   6.755  12.974
27484W        W86987   7.394   8.880  12.911
27485W        W86988  33.498  34.514  13.838
27486W        W86989  37.061  17.778   1.756
27487W        W86990   9.195  21.082   4.210
27488W        W86991  13.694  36.435  11.997
27489W        W86992   6.762   8.787   1.282
27490W        W86993  29.064   7.881   1.445
27491W        W86994  19.225  32.010   3.174
27492W        W86995  44.444  36.379   2.397
27493W        W86996   3.410  26.537   0.787
27494W        W86997  28.598  23.189   1.294
27495W        W86998  17.165  20.044   3.383
27496W        W86999  17.699  43.434   2.405
27497W        W87000  39.039  22.622  11.043
27498W        W87001  36.061   7.188   1.858
27499W        W87002  31.131  24.713   0.472
27500W        W87003  28.533   9.745   1.757
27501W        W87004  23.642  24.605   4.170
27502W        W87005  29.075   5.206   3.303
27503W        W87006  10.241  23.140   2.288
27504W        W87007  36.426   0.795   4.682
27505W        W87008  25.039  34.439  14.975
27506W        W87009  15.741  33.969  13.884
27507W        W87010  26.987  17.163  14.435
27508W        W87011  41.412  30.033   4.739
27509W        W87012  15.111  35.904  12.832
27510W        W87013  29.108  30.936  13.525
27511W        W87014   2.886  38.346   0.883
27512W        W87015   7.791   6.421   3.720
27513W        W87016  32.510  26.580  12.444
27514W        W87017  35.495  17.180  12.956
27515W        W87018   6.424  30.453   0.421
27516W        W87019  25.491   0.421   9.495
27517W        W87020  31.596  10.873  14.998
27518W        W87021  32.981   3.953   3.309
27519W        W87022  27.477  21.049   4.655
27520W        W87023  42.880  44.971   2.409
27521W        W87024  32.024   7.777   5.217
27522W        W87025  16.573  16.266   0.307
27523W        W87026  27.467   7.249   1.415
27524W        W87027  44.383  40.417  10.585
27525W        W87028   7.394   0.768   3.332
27526W        W87029  24.074  30.509  10.918
27527W        W87030  13.764  13.727  14.379
27528W        W87031  32.422  16.123  14.894
27529W        W87032   9.804   1.463  14.886
27530W        W87033  30.501  28.931   2.718
27531W        W87034   3.871  14.189   3.637
27532W        W87035  26.966  22.547   0.259
27533W        W87036  27.963  34.061  11.953
27534W        W87037  40.878   8.166   2.246
27535W        W87038   7.290  13.763  11.419
27536W        W87039  23.602  16.706  13.821
27537W        W87040  39.841  38.835   2.665
27538W        W87041  30.491   8.217  12.065
27539W        W87042  36.590  27.145  14.371
27540W        W87043  28.434  13.248   9.657
27541W        W87044   0.493   2.756  12.580
27542W        W87045  18.213  19.771  12.072
27543W        W87046  14.124  14.151   3.781
27544W        W87047  19.615  19.178  11.385
27545W        W87048   7.725  15.765   2.754
27546W        W87049  30.926   2.779  12.927
27547W        W87050   7.293  29.614  11.480
27548W        W87051   2.229  21.051  13.455
27549W        W87052  12.840  21.671  13.009
27550W        W87053  14.272  29.006  11.972
27551W        W87054  43.834  28.998   0.349
27552W        W87055   7.416   1.903   1.268
27553W        W87056   2.290  43.945   0.393
27554W        W87057  13.113  21.684  11.382
27555W        W87058  30.438  22.220   4.278
27556W        W87059  30.518  10.873  13.508
27557W        W87060  32.465  23.522   0.309
27558W        W87061   6.198   7.896  14.793
27559W        W87062  21.645  23.581  12.834
27560W        W87063   2.929  33.439   1.446
27561W        W87064  20.098   3.253  14.471
27562W        W87065  35.082  29.139   3.677
27563W        W87066   0.247  31.902   1.853
27564W        W87067  44.307   1.792   4.689
27565W        W87068   5.915  41.793   1.400
27566W        W87069   0.889  15.766   0.886
27567W        W87070  35.971  19.249   3.679
27568W        W87071  14.759   2.405   3.306
27569W        W87072  13.672  41.423   2.245
27570W        W87073  26.147  37.535  12.907
27571W        W87074  19.741  19.661  13.865
27572W        W87075   7.289  40.439  12.980
27573W        W87076  11.725  25.195   1.325
27574W        W87077  22.561   6.693  11.099
27575W        W87078  18.669  17.199   0.470
27576W        W87079  23.721   0.291  12.492
27577W        W87080  40.799  43.445   0.809
27578W        W87081  18.080  44.449   0.439
27579W        W87082  28.076   1.427   3.331
27580W        W87083  35.488  10.808   1.907
27581W        W87084  29.075  10.817   0.273
27582W        W87085  17.174  27.570  11.110
27583W        W87086   7.307  42.495  12.056
27584W        W87087   2.886  27.963   5.795
27585W        W87088  31.917  36.091  12.464
27586W        W87089  42.998  41.388   3.726
27587W        W87090  35.996   6.739   0.922
27588W        W87091  25.500  32.463  10.609
27589W        W87092  13.742   7.283  13.052
27590W        W87093  10.354   1.477   9.999
27591W        W87094  24.567  12.616   2.821
27592W        W87095  23.144  18.593  13.858
27593W        W87096  30.484  31.648   0.767
27594W        W87097  44.316  29.578  11.562
27595W        W87098   8.895  41.815  11.104
27596W        W87099   6.207  25.107  12.049
27597W        W87100  39.001  12.852   4.239
27598W        W87101  23.683  12.784   1.381
27599W        W87102  24.120   9.714  14.507
27600W        W87103  43.834   2.377  11.983
27601W        W87104  34.084  42.947   3.809
27602W        W87105  41.888  17.663  14.031
27603W        W87106  28.495  12.147  13.960
27604W        W87107  44.329  43.356   3.756
27605W        W87108  21.115  37.416  11.498
27606W        W87109  33.612  11.277   4.198
27607W        W87110  34.916  15.287   3.804
27608W        W87111  38.834  12.313   3.203
27609W        W87112  31.526   5.323  13.900
27610W        W87113   1.442  20.590  14.889
27611W        W87114  39.002  27.091  13.389
27612W        W87115  32.612  24.991   2.839
27613W        W87116   6.873  28.039   2.812
27614W        W87117  30.052  15.189  14.780
27615W        W87118   4.927   3.303   9.965
27616W        W87119   6.832  44.464   0.785
27617W        W87120  14.723  39.828   0.931
27618W        W87121  41.021  18.778  10.482
27619W        W87122   5.267   3.853  13.989
27620W        W87123  29.599  14.192   0.765
27621W        W87124   5.861   9.298   2.722
27622W        W87125  12.200   1.462   0.841
27623W        W87126  24.109   3.281   2.833
27624W        W87127   2.397  22.032  13.892
27625W        W87128  15.217  18.278   1.231
27626W        W87129  11.134  14.588  13.992
27627W        W87130   2.249  32.551  10.609
27628W        W87131  33.626  24.532  14.901
27629W        W87132  39.838  43.909  11.891
27630W        W87133  16.575  21.743   1.755
27631W        W87134  27.509   3.842  10.976
27632W        W87135  23.656   8.726  13.945
27633W        W87136  13.209  25.572  13.919
27634W        W87137  39.453   8.326   1.706
27635W        W87138  13.751  28.447   1.825
27636W        W87139   5.385  22.532   3.161
27637W        W87140  31.508  37.877  14.333
27638W        W87141  19.171   7.296  12.407
27639W        W87142  24.983  26.638  11.882
27640W        W87143  13.668  14.143   3.673
27641W        W87144  34.408  24.084  11.386
27642W        W87145   2.930  33.409   4.355
27643W        W87146  24.185  20.169  13.334
27644W        W87147   1.917  34.010  13.494
27645W        W87148  30.527  33.493  10.483
27646W        W87149  35.449  22.177   1.719
27647W        W87150  38.470  19.580  12.938
27648W        W87151  44.882  12.332   1.741
27649W        W87152  38.330   8.360  14.407
27650W        W87153  27.973  39.349  12.434
27651W        W87154  32.391  43.958  13.798
27652W        W87155  10.269  35.994  14.383
27653W        W87156  21.749  11.793   2.252
27654W        W87157  33.570  30.002   2.855
27655W        W87158  39.466  26.601   2.840
27656W        W87159   7.893  40.930   3.803
27657W        W87160  23.199  43.432  13.890
27658W        W87161   2.805  23.610  12.503
27659W        W87162  39.412  31.902   3.325
27660W        W87163  38.825   3.954   3.241
27661W        W87164  19.548  24.667   1.305
27662W        W87165  39.558  32.955  12.553
27663W        W87166  17.714  35.476   1.229
27664W        W87167  41.469  23.050   1.438
27665W        W87168  14.724  32.018  14.287
27666W        W87169  20.627  32.443  11.560
27667W        W87170  37.934   4.384  13.332
27668W        W87171  36.433  43.969   4.830
27669W        W87172  21.179  11.866  14.307
27670W        W87173  44.300  11.769  13.467
27671W        W87174   3.453  40.384  12.560
27672W        W87175  41.032  42.313  12.434
27673W        W87176  39.507  42.846   2.318
27674W        W87177  10.212  12.356  13.906
27675W        W87178   2.750   7.384   3.374
27676W        W87179  34.048  26.054  10.460
27677W        W87180  44.874  29.950   0.842
27678W        W87181  21.757  39.443  11.040
27679W        W87182   5.826  29.441  10.976
27680W        W87183  25.999  44.927  11.106
27681W        W87184  37.418  28.595   0.289
27682W        W87185   6.816  11.364   0.367
27683W        W87186  34.442  40.054   0.935
27684W        W87187   1.902  26.478   0.950
27685W        W87188   7.241  38.900  11.888
27686W        W87189   8.859  41.456   3.863
27687W        W87190   8.857  27.540   0.286
27688W        W87191   0.285  30.103   2.762
27689W        W87192  13.127  18.553  14.973
27690W        W87193   0.426  21.681   4.196
27691W        W87194  17.568  44.861  12.004
27692W        W87195   9.739  13.182   4.283
27693W        W87196  33.441  25.674  12.999
27694W        W87197   6.249  14.162   2.774
27695W        W87198  23.503  36.041  12.344
27696W        W87199  14.334  42.504   2.707
27697W        W87200   1.751  16.148  12.497
27698W        W87201  23.686  17.754   3.242
27699W        W87202  35.386  22.138   0.304
27700W        W87203  31.478  34.570   0.480
27701W        W87204  22.115  22.568   3.279
27702W        W87205  24.994  44.955  12.888
27703W        W87206  12.816   3.439   2.740
27704W        W87207  26.593  16.097   4.697
27705W        W87208  11.364  15.188  10.932
27706W        W87209  37.877  43.347   0.426
27707W        W87210  41.387  32.493   3.684
27708W        W87211   7.797  38.336  12.383
27709W        W87212  27.559  26.469   3.766
27710W        W87213  11.811   1.759   0.848
27711W        W87214  29.598  42.918  13.473
27712W        W87215  23.023  35.988  12.051
27713W        W87216  14.174   9.156  12.482
27714W        W87217  42.403   8.203   4.791
27715W        W87218  11.302  14.094   1.757
27716W        W87219  22.609  24.539   0.462
27717W        W87220  44.975  39.956  11.973
27718W        W87221   2.758  24.560   3.636
27719W        W87222   6.914  40.384   2.403
27720W        W87223  20.106  11.151   1.300
27721W        W87224  19.116  39.462   0.248
27722W        W87225  10.684   5.352   4.811
27723W        W87226  41.911  36.912   1.358
27724W        W87227  42.357  33.562   4.322
27725W        W87228  37.403  32.135   1.309
27726W        W87229   4.941  30.555   4.142
27727W        W87230  24.651  24.985   0.287
27728W        W87231   8.285  35.944  14.380
27729W        W87232   7.703  10.828   1.758
27730W        W87233  43.878  37.020   3.821
27731W        W87234   0.856  39.329   4.736
27732W        W87235   4.350   5.829  11.565
27733W        W87236   7.239  21.625   3.212
27734W        W87237   8.192  16.168   5.794
27735W        W87238  20.678  24.724   2.744
27736W        W87239  30.075   6.242  13.907
27737W        W87240  10.670  14.598   2.756
27738W        W87241   1.804  17.165   4.268
27739W        W87242  32.568  26.556   0.377
27740W        W87243  28.061  28.679  10.964
27741W        W87244  16.248   6.375   0.954
27742W        W87245  12.702  11.151  10.998
27743W        W87246  23.563   6.325  13.533
27744W        W87247  12.751  14.775   0.440
27745W        W87248   8.813   8.668  14.952
27746W        W87249   7.909  19.672   5.294
27747W        W87250   1.923   2.751  13.325
27748W        W87251  20.618  44.932   3.819
27749W        W87252  34.450  38.819  14.983
27750W        W87253  17.215   8.237   0.890
27751W        W87254  30.657  34.592   5.214
27752W        W87255  41.011  30.062   2.815
27753W        W87256  20.684  29.930   3.380
27754W        W87257   9.254  32.457   5.720
27755W        W87258  30.033   1.908  14.833
27756W        W87259  43.407  29.536  12.918
27757W        W87260  22.073  42.795   5.126
27758W        W87261  31.636  18.614  12.521
27759W        W87262  21.145  23.661  13.442
27760W        W87263  37.973  43.331  13.874
27761W        W87264  38.941   4.306   3.252
27762W        W87265  41.959  43.929   4.743
27763W        W87266   9.174   5.714  11.100
27764W        W87267  14.139  22.667   4.809
27765W        W87268   0.792   4.246   2.705
27766W        W87269  39.354  26.042  12.867
27767W        W87270  40.516  11.235   3.728
27768W        W87271  18.208   1.889  13.983
27769W        W87272   3.266  28.676   2.862
27770W        W87273   1.280  42.288  13.899
27771W        W87274  40.542  30.454  11.483
27772W        W87275  21.156  35.982   4.652
27773W        W87276  21.670  18.166   0.954
27774W        W87277   5.233   9.290   1.861
27775W        W87278  28.487   5.234   4.348
27776W        W87279  27.111  16.714  11.454
27777W        W87280   4.318  14.173   3.652
27778W        W87281  21.208  40.820  13.468
27779W        W87282  31.963  37.402  13.535
27780W        W87283  10.298   0.329  12.912
27781W        W87284  37.007  18.111  12.016
27782W        W87285  26.500  11.242  10.426
27783W        W87286   2.841  15.285   4.300
27784W        W87287  10.369   2.360  11.525
27785W        W87288  31.052  17.097   2.395
27786W        W87289  25.065  38.962   4.208
27787W        W87290   3.760  11.864  11.436
27788W        W87291  23.669  42.798  12.575
27789W        W87292   4.896  27.458  11.612
27790W        W87293  25.508  15.301   0.872
27791W        W87294  28.165  32.479  12.836
27792W        W87295  21.032  18.628   1.273
27793W        W87296  23.556  32.517  12.408
27794W        W87297  13.341  42.292   0.736
27795W        W87298  30.031  14.821  12.446
27796W        W87299  27.073  16.799  13.519
27797W        W87300  38.375   4.875   9.528
27798W        W87301  26.691  31.079   4.185
27799W        W87302  12.200  28.989  12.385
27800W        W87303  14.278  15.809  11.609
27801W        W87304  44.326  42.848  11.039
27802W        W87305   5.932  37.882   4.349
27803W        W87306  24.537   9.853  11.064
27804W        W87307  32.041  25.471   1.929
27805W        W87308   7.852  27.471  13.398
27806W        W87309  10.145  29.087   2.767
27807W        W87310  44.457  30.141  13.853
27808W        W87311  31.424  15.680   1.915
27809W        W87312  21.647  38.339  14.293
27810W        W87313   3.461   9.815  10.975
27811W        W87314  24.502  12.136  14.304
27812W        W87315  16.212   9.297  12.364
27813W        W87316   8.849   4.334  13.935
27814W        W87317   9.179  11.734   5.243
27815W        W87318   4.400  20.742   4.626
27816W        W87319  28.977  16.656  14.440
27817W        W87320  33.980  36.484   5.694
27818W        W87321  30.542  10.654   3.288
27819W        W87322  26.617  18.623   3.631
27820W        W87323   4.240  29.023  14.767
27821W        W87324  14.601  20.535   4.116
27822W        W87325  14.272  32.609   2.301
27823W        W87326  30.913  17.792   5.126
27824W        W87327  44.784  34.380  14.887
27825W        W87328  11.337  42.986   4.178
27826W        W87329  17.800  39.389  14.367
27827W        W87330  19.661  12.613   2.712
27828W        W87331  30.511   7.780   4.664
27829W        W87332  41.454   7.348  11.491
27830W        W87333  14.341  26.473   4.209
27831W        W87334  33.495  15.646   1.443
27832W        W87335  16.576  28.120  12.048
27833W        W87336  43.456   0.936  14.884
27834W        W87337  28.064  28.167  11.025
27835W        W87338  40.812  22.678   3.698
27836W        W87339  35.603  16.802   3.263
27837W        W87340  33.610   4.329  11.998
27838W        W87341  22.248  13.109  11.080
27839W        W87342  21.735  14.636  11.438
27840W        W87343  26.637  42.800  10.980
27841W        W87344  39.316  17.783   3.268
27842W        W87345   0.437  18.050  12.016
27843W        W87346  14.164   2.348  14.407
27844W        W87347  35.925   8.312   1.833
27845W        W87348  42.023  32.488   4.795
27846W        W87349  27.488  37.336  12.848
27847W        W87350  30.636  12.309   1.880
27848W        W87351  25.162  42.436   4.284
27849W        W87352  20.087  13.818  13.933
27850W        W87353   1.441  39.432   2.301
27851W        W87354  35.934   8.335   2.703
27852W        W87355  19.589  28.671   0.461
27853W        W87356  26.526  30.079  13.480
27854W        W87357  15.589   7.889   0.392
27855W        W87358  38.885   4.259   5.589
27856W        W87359  17.186  16.606   0.419
27857W        W87360  38.401  20.085   0.361
27858W        W87361  38.325  36.549  12.397
27859W        W87362  21.150  21.706  10.997
27860W        W87363  32.435  13.224   0.926
27861W        W87364  13.821   8.774   4.798
27862W        W87365  16.216  14.133   3.645
27863W        W87366  32.907  41.860  11.035
27864W        W87367  28.171  28.132   0.421
27865W        W87368   1.366  35.100   2.213
27866W        W87369   4.380  17.182   5.141
27867W        W87370  30.593  15.785  12.899
27868W        W87371  23.575  14.619   2.743
27869W        W87372  21.212   5.342  12.852
27870W        W87373  14.708  15.625   4.694
27871W        W87374  26.050  14.102   1.806
27872W        W87375  34.892  40.843  13.829
27873W        W87376  41.314  14.590   0.829
27874W        W87377  10.210  19.631   1.819
27875W        W87378  42.803  13.349  11.879
27876W        W87379  30.012  44.864   4.166
27877W        W87380   2.439  11.355   1.290
27878W        W87381   4.884   5.230  12.905
27879W        W87382  33.466   6.376  11.969
27880W        W87383  25.117  29.593  10.430
27881W        W87384  42.526  36.404  14.927
27882W        W87385   9.286  17.071  11.895
27883W        W87386   2.331  14.652   4.762
27884W        W87387  28.097  10.282   4.755
27885W        W87388  44.409  24.097   1.874
27886W        W87389  27.024   8.206  11.878
27887W        W87390  36.541  15.168   1.349
27888W        W87391  23.490  20.576   2.280
27889W        W87392  11.310  31.578   5.712
27890W        W87393   7.795  10.345   4.145
27891W        W87394  32.136  19.685  10.963
27892W        W87395  20.763  28.974   1.357
27893W        W87396  18.633   0.405  13.367
27894W        W87397  11.857  29.043   3.147
27895W        W87398  35.474  30.934  14.327
27896W        W87399  23.550  28.103   3.147
27897W        W87400  22.662  24.183   2.242
27898W        W87401  29.016  25.983   1.421
27899W        W87402   8.219   3.944   3.844
27900W        W87403  23.503  24.591   0.303
27901W        W87404  19.729   7.208   1.896
27902W        W87405  36.966  14.814   1.861
27903W        W87406  28.994   1.779  12.997
27904W        W87407  38.016  39.499   1.416
27905W        W87408   2.883  22.076   3.705
27906W        W87409  15.224  40.366  12.934
27907W        W87410   4.412  33.078   2.832
27908W        W87411   3.733  27.530   5.691
27909W        W87412  34.609  31.083  14.833
27910W        W87413  11.198  24.072   3.290
27911W        W87414  34.458  24.546  13.955
27912W        W87415  18.059  34.992  12.097
27913W        W87416   9.354  24.013   4.253
27914W        W87417  23.660  42.495   0.935
27915W        W87418  12.612  28.551   0.374
27916W        W87419  22.047  40.858  11.862
27917W        W87420  37.919  39.044  13.443
27918W        W87421  40.403  18.282   3.293
27919W        W87422  25.125  11.673   4.152
27920W        W87423  19.157  10.350   3.796
27921W        W87424   1.752  28.155  14.385
27922W        W87425  26.677  34.377   2.180
27923W        W87426  25.003  12.778   3.778
27924W        W87427  18.198  10.795   0.797
27925W        W87428  17.151  41.990   3.757
27926W        W87429  41.504  11.164  12.019
27927W        W87430  16.303   8.897  13.966
27928W        W87431  35.442   9.158  11.115
27929W        W87432   6.325  24.652  10.503
27930W        W87433  17.177  18.568  12.860
27931W        W87434  33.516  29.160   3.646
27932W        W87435  25.145  41.526  13.007
27933W        W87436  37.384   0.329  13.002
27934W        W87437  26.109   4.737   1.444
27935W        W87438  36.541  33.962  13.011
27936W        W87439  30.607  27.024  11.526
27937W        W87440  17.220  18.111  13.416
27938W        W87441  27.117   2.838   3.679
27939W        W87442  10.342   6.186  10.612
27940W        W87443  19.256   4.741  10.941
27941W        W87444  26.609  18.266   3.828
27942W        W87445  34.532  11.229   9.567
27943W        W87446  35.488  37.061  12.361
27944W        W87447   0.770  28.952  11.390
27945W        W87448   6.799  44.478  11.394
27946W        W87449  37.421   1.941  12.389
27947W        W87450  15.324   1.295   3.812
27948W        W87451  21.114   8.871   4.318
27949W        W87452   4.211  34.011  12.949
27950W        W87453  34.950   2.231   4.674
27951W        W87454  34.976  28.085  13.022
27952W        W87455  24.663   8.391   3.673
27953W        W87456  10.145   7.812  11.605
27954W        W87457  22.192   1.887   4.170
27955W        W87458  26.134  41.027   0.355
27956W        W87459  30.480   1.978   1.440
27957W        W87460   6.915  39.030  12.849
27958W        W87461  33.887  28.022   0.256
27959W        W87462  42.519  23.549  11.440
27960W        W87463  17.127  42.932  14.433
27961W        W87464  43.490  43.441  11.378
27962W        W87465  18.160   5.390   1.257
27963W        W87466  24.566  16.594   4.185
27964W        W87467   4.939  37.405  13.935
27965W        W87468  44.889  42.371   1.254
27966W        W87469  29.168  28.092   2.203
27967W        W87470  24.489   4.724  14.905
27968W        W87471   6.415   0.274  10.988
27969W        W87472  43.355  19.695  14.372
27970W        W87473  20.149  11.327   0.954
27971W        W87474  38.962  40.008  12.906
27972W        W87475  31.125  35.376   2.763
27973W        W87476   0.428  13.793   1.730
27974W        W87477  34.532  24.659   0.371
27975W        W87478  32.970  39.063   4.216
27976W        W87479  44.360  14.196   3.679
27977W        W87480   7.413  14.189  12.827
27978W        W87481   1.909  23.152   1.433
27979W        W87482  44.473  14.171  12.041
27980W        W87483  31.506  20.193   2.178
27981W        W87484  40.377  18.584  14.779
27982W        W87485  43.337  21.103   0.743
27983W        W87486   7.366  23.005  10.957
27984W        W87487  27.470  31.045   2.186
27985W        W87488   3.801   3.890  10.596
27986W        W87489  11.358  30.140  10.131
27987W        W87490  21.742  12.272  14.780
27988W        W87491  25.600  39.474   3.827
27989W        W87492  14.786  13.693   1.402
27990W        W87493  29.031   9.299  13.820
27991W        W87494   6.759   5.258  14.906
27992W        W87495  21.595   3.368   2.323
27993W        W87496   7.844  12.160  12.355
27994W        W87497  29.449  12.241   3.663
27995W        W87498  42.291  30.913  12.418
27996W        W87499  29.563  30.991  12.928
27997W        W87500   2.466  11.197   3.309
27998W        W87501   6.812  33.402   3.735
27999W        W87502   5.353  15.749  14.869
28000W        W87503  28.019   7.709   0.769
28001W        W87504  21.165  11.862  13.940
28002W        W87505  15.118  44.317  14.862
28003W        W87506   1.444  31.108  10.431
28004W        W87507  14.815  15.739   2.283
28005W        W87508  29.022   1.351   3.831
28006W        W87509  36.460  44.942  14.312
28007W        W87510  32.586  14.308   1.343
28008W        W87511  32.024   7.235  13.327
28009W        W87512  22.535  23.098   3.360
28010W        W87513  15.672  44.820  14.966
28011W        W87514   4.850  10.368   2.898
28012W        W87515  27.046  24.188   2.791
28013W        W87516  14.176  35.041   2.274
28014W        W87517  10.640  13.739  12.068
28015W        W87518   3.327   5.373  12.059
28016W        W87519  35.570  40.003   1.451
28017W        W87520  17.289  36.093  11.418
28018W        W87521  12.653  14.150   1.367
28019W        W87522  20.523  16.719   1.838
28020W        W87523  31.922  29.010  13.433
28021W        W87524  43.466  16.578  12.991
28022W        W87525  18.210   9.261   4.612
28023W        W87526  34.598  27.119  14.773
28024W        W87527  39.414  34.562   0.476
28025W        W87528  31.916  12.327  12.426
28026W        W87529  19.043  38.883   2.396
28027W        W87530  30.960  43.873  11.478
28028W        W87531  36.458  43.358   0.371
28029W        W87532  11.191  44.993  13.956
28030W        W87533  32.516  12.251  11.020
28031W        W87534  22.536  14.304   4.659
28032W        W87535  41.024   5.438  14.353
28033W        W87536  11.656  15.665  14.817
28034W        W87537  32.477  18.105  10.065
28035W        W87538  12.649  16.788   1.410
28036W        W87539  18.595  29.078   3.689
28037W        W87540  30.911  40.826   0.242
28038W        W87541   6.195  16.580  11.109
28039W        W87542  18.682  42.365  13.464
28040W        W87543  35.087  41.828   0.820
28041W        W87544  24.603  15.258  12.923
28042W        W87545  27.603   0.428   5.631
28043W        W87546  32.485   6.803  14.815
28044W        W87547  28.100   0.277   2.873
28045W        W87548  42.371  25.185  14.453
28046W        W87549  38.383   2.731   3.823
28047W        W87550  14.335  23.224   4.742
28048W        W87551  30.146  18.059   3.809
28049W        W87552  36.975   9.737  13.332
28050W        W87553  38.883  22.693  13.375
28051W        W87554  22.659  31.579  13.807
28052W        W87555   7.869  30.449   2.255
28053W        W87556  43.300  31.128   2.249
28054W        W87557  42.840   6.808  13.921
28055W        W87558  16.075  26.051  10.920
28056W        W87559  42.472  25.205   3.310
28057W        W87560  40.389  10.647  10.928
28058W        W87561  10.777  16.160   5.246
28059W        W87562  19.181  10.350   2.398
28060W        W87563  44.898  29.541   3.660
28061W        W87564  28.589  43.821   3.827
28062W        W87565  24.172  22.168   2.273
28063W        W87566  35.449  40.006  13.808
28064W        W87567  38.333  37.489   1.348
28065W        W87568  21.134  18.791   1.762
28066W        W87569   6.715  41.972   2.264
28067W        W87570  25.703   2.901   4.251
28068W        W87571  16.197  26.138   3.161
28069W        W87572  36.406  25.671   1.892
28070W        W87573   0.799   0.746   0.451
28071W        W87574   6.248  24.155  11.086
28072W        W87575  15.199  28.929   3.291
28073W        W87576  25.131  33.588  13.824
28074W        W87577   2.381  19.619  11.969
28075W        W87578  25.507  29.141   0.965
28076W        W87579  27.122  33.380  13.309
28077W        W87580  19.197  15.086  14.002
28078W        W87581  38.928   2.312   0.389
28079W        W87582  13.825  27.494   2.853
28080W        W87583  40.005  34.601   3.254
28081W        W87584  24.201  23.132   3.812
28082W        W87585  23.582  31.120   4.831
28083W        W87586  23.703  24.703   3.315
28084W        W87587  29.564  11.334  11.042
28085W        W87588  16.753  20.192   1.222
28086W        W87589  40.424  44.916  11.493
28087W        W87590  20.115  12.142  14.347
28088W        W87591   8.739  37.554  11.489
28089W        W87592   1.942   6.761   1.227
28090W        W87593  34.114  20.695  10.991
28091W        W87594  15.767  35.533  13.895
28092W        W87595  29.134  39.955  12.000
28093W        W87596  36.456  12.222   2.303
28094W        W87597  24.085  35.968   0.783
28095W        W87598   3.291  43.818   0.385
28096W        W87599  43.330  15.801   3.734
28097W        W87600   4.221  34.520   2.873
28098W        W87601  38.959  44.417  13.815
28099W        W87602  33.440  42.901  10.984
28100W        W87603  13.729   6.260  13.448
28101W        W87604   4.815  42.524  11.545
28102W        W87605  22.108  15.112  14.416
28103W        W87606   7.270   6.382  14.323
28104W        W87607  13.203  37.486  11.604
28105W        W87608  20.032   3.240   1.714
28106W        W87609  28.592  42.417  10.907
28107W        W87610  43.860  44.366   3.215
28108W        W87611   8.827  38.415   2.833
28109W        W87612  42.974  42.319  14.484
28110W        W87613  30.094  40.381   3.182
28111W        W87614   7.329   3.221   0.404
28112W        W87615  21.051  39.862   0.279
28113W        W87616  31.090   7.739  11.424
28114W        W87617  19.262  12.763  14.864
28115W        W87618   7.180  28.160  14.788
28116W        W87619  21.076  32.086  12.359
28117W        W87620  11.677   9.648  12.381
28118W        W87621   6.396   8.889   0.766
28119W        W87622   3.907  43.865  12.580
28120W        W87623  37.420  26.193  12.519
28121W        W87624   2.814  33.916  14.863
28122W        W87625  41.316  11.334   1.850
28123W        W87626  27.498   3.336  10.567
28124W        W87627  29.065  42.870  13.489
28125W        W87628  24.047  28.559   3.252
28126W        W87629  32.408  24.695   3.228
28127W        W87630  38.010  20.274   4.346
28128W        W87631  42.436   8.365   0.322
28129W        W87632  44.287  37.534  14.835
28130W        W87633  12.343  13.827  11.567
28131W        W87634  31.966  37.479   3.837
28132W        W87635  43.827  29.953  10.524
28133W        W87636  14.804   0.335  14.293
28134W        W87637  19.596  31.144   3.667
28135W        W87638  18.066  14.260  14.382
28136W        W87639  29.009  41.940   4.769
28137W        W87640   0.468  13.272   1.221
28138W        W87641  19.226  29.973  11.047
28139W        W87642  39.053  37.022  10.468
28140W        W87643  28.477  32.567  12.867
28141W        W87644  34.112   5.388  14.918
28142W        W87645  35.571   1.948   3.779
28143W        W87646  19.200  19.589  13.433
28144W        W87647   3.350  35.950  10.485
28145W        W87648   0.938  13.818   0.262
28146W        W87649  24.030  19.110   3.739
28147W        W87650   4.876  27.170  12.974
28148W        W87651  14.126  38.554  11.032
28149W        W87652  12.331  34.052  12.366
28150W        W87653  21.122  21.227  14.309
28151W        W87654  27.046  34.915  12.924
28152W        W87655  14.146  41.409   1.326
28153W        W87656   5.371   6.858  10.899
28154W        W87657   5.411  18.114  14.007
28155W        W87658  38.842  32.921   1.302
28156W        W87659  10.337  34.995  13.454
28157W        W87660  17.288  42.882  10.147
28158W        W87661  16.635  34.582  14.376
28159W        W87662   8.293  24.535   4.790
28160W        W87663   0.365   6.868  12.429
28161W        W87664   3.325  40.950  14.937
28162W        W87665   3.432   3.295  13.496
28163W        W87666   8.674  15.796  12.056
28164W        W87667  43.886   6.368  14.457
28165W        W87668   8.182   8.837   3.180
28166W        W87669  32.458  24.165  11.531
28167W        W87670  14.280  36.504  14.479
28168W        W87671  18.726  27.533   3.304
28169W        W87672  13.142  34.606   1.835
28170W        W87673   1.733  39.433   0.944
28171W        W87674  34.493  38.070   9.657
28172W        W87675  41.957  10.336   1.743
28173W        W87676  40.432  32.436   4.726
28174W        W87677  34.613   4.337   2.883
28175W        W87678  17.127   0.930   4.354
28176W        W87679   1.774  25.491   3.814
28177W        W87680  17.693  44.989   3.184
28178W        W87681  35.896  13.168  14.930
28179W        W87682  28.436  28.583  11.443
28180W        W87683   1.961  11.745   4.129
28181W        W87684  43.491   9.826  14.488
28182W        W87685  11.178  20.644  14.773
28183W        W87686  13.663  16.163  10.455
28184W        W87687  36.552  14.232   3.750
28185W        W87688  40.920   1.922  13.856
28186W        W87689   0.891  33.100  14.934
28187W        W87690  25.676  33.089  10.628
28188W        W87691  32.043   2.396  14.513
28189W        W87692  14.625  29.618   2.894
28190W        W87693  11.789  37.948   4.779
28191W        W87694  15.124  10.224   3.335
28192W        W87695  11.247  18.205  14.860
28193W        W87696   2.779  11.344   3.184
28194W        W87697  13.745  22.135   1.710
28195W        W87698  30.057  38.961   1.704
28196W        W87699   4.355   1.904   0.289
28197W        W87700  44.383  16.288  14.867
28198W        W87701  31.116  32.444  10.515
28199W        W87702  43.273   8.284   0.305
28200W        W87703  20.671   4.937   0.465
28201W        W87704  23.685  21.692  10.548
28202W        W87705  29.529   6.877  11.374
28203W        W87706  22.168  41.903  13.374
28204W        W87707  28.498  30.656   2.290
28205W        W87708  37.004  31.496  10.448
28206W        W87709   3.301  21.114  11.411
28207W        W87710  23.651  22.154   1.747
28208W        W87711  25.997  12.196   3.297
28209W        W87712   3.449  39.439  14.276
28210W        W87713  15.707  27.108   0.354
28211W        W87714  34.390  37.363  13.469
28212W        W87715   8.737   6.737  11.055
28213W        W87716  18.073  20.731   4.280
28214W        W87717  39.938  43.398  12.508
28215W        W87718  35.374  27.106  11.984
28216W        W87719  15.601  39.448   3.670
28217W        W87720  37.393  19.071   2.845
28218W        W87721  26.081  23.090   4.323
28219W        W87722  42.340  25.023   0.809
28220W        W87723  27.179  30.613   3.850
28221W        W87724   0.403  23.105   5.664
28222W        W87725  41.293  34.467   1.250
28223W        W87726  25.482  29.949  13.380
28224W        W87727  24.572  39.359   2.880
28225W        W87728  38.031  24.186  11.916
28226W        W87729  25.091  25.597  14.997
28227W        W87730  27.649   9.654  10.456
28228W        W87731   2.360  42.963   2.688
28229W        W87732  18.660  10.313  12.988
28230W        W87733   1.318  14.810   3.727
28231W        W87734  22.561  32.887   1.767
28232W        W87735  30.127  33.107   0.863
28233W        W87736  38.038  13.297   2.397
28234W        W87737  39.453   9.703  12.396
28235W        W87738  29.044   8.728   4.213
28236W        W87739  25.552   6.770   1.925
28237W        W87740   7.884  26.460  13.342
28238W        W87741  13.130  44.969   2.276
28239W        W87742  20.743  41.447   0.894
28240W        W87743  25.083   3.732  11.527
28241W        W87744  36.904   5.410   2.845
28242W        W87745  11.794  33.399  11.913
28243W        W87746  10.779  32.617   3.169
28244W        W87747  43.989  29.074   3.663
28245W        W87748  31.945  20.631  11.609
28246W        W87749   8.335  41.839  10.932
28247W        W87750  31.990  21.179   2.828
28248W        W87751  35.586  24.138   1.249
28249W        W87752  32.942  23.584  14.444
28250W        W87753  26.076   2.369  13.398
28251W        W87754  26.671  15.128   0.459
28252W        W87755  42.310  29.968   0.475
28253W        W87756  13.108  30.979   0.458
28254W        W87757  27.971  40.539  13.308
28255W        W87758  28.669  36.537  11.562
28256W        W87759   2.826  15.681  13.325
28257W        W87760  19.219   6.327   3.744
28258W        W87761  21.179  15.749  12.850
28259W        W87762   0.768  23.083  10.447
28260W        W87763  32.919  12.251   3.652
28261W        W87764   5.337   5.374  14.857
28262W        W87765  20.603  10.339   2.260
28263W        W87766  37.972  33.589  14.935
28264W        W87767  29.079   6.907  12.038
28265W        W87768  24.597  27.044  10.952
28266W        W87769  42.856  21.205  13.376
28267W        W87770  22.622  35.946   0.475
28268W        W87771  21.177   0.798  13.846
28269W        W87772  39.956  10.815  12.842
28270W        W87773   7.328  34.526   3.333
28271W        W87774  19.765  41.886   3.158
28272W        W87775   0.859  25.159   5.629
28273W        W87776  44.933  24.212   0.844
28274W        W87777  41.883  16.767   4.153
28275W        W87778  23.628  34.541  11.470
28276W        W87779  17.271  40.882   0.461
28277W        W87780  31.503  15.105   3.277
28278W        W87781  20.196  19.627   2.835
28279W        W87782  19.613  25.106  14.327
28280W        W87783   4.871  22.637   2.713
28281W        W87784  43.851  24.516   3.713
28282W        W87785  41.827   7.285  14.398
28283W        W87786  31.413  26.049   3.834
28284W        W87787   2.247  21.684   1.907
28285W        W87788  15.681  15.229  13.986
28286W        W87789  31.127  11.276   5.170
28287W        W87790   9.666  44.791  12.490
28288W        W87791  29.506  17.267  11.600
28289W        W87792   9.330   6.419   4.271
28290W        W87793  39.430   1.967  12.462
28291W        W87794  15.731   9.857   5.126
28292W        W87795  17.130  37.952   4.309
28293W        W87796  21.514  17.788  12.055
28294W        W87797  37.860  17.185  10.479
28295W        W87798  21.623  15.319   2.234
28296W        W87799  21.654  33.915  14.923
28297W        W87800  25.687  41.006  13.510
28298W        W87801  24.217  13.765  13.824
28299W        W87802  15.317   9.334   3.269
28300W        W87803  19.584  34.430  13.933
28301W        W87804  28.005  19.071   4.322
28302W        W87805  38.378   8.696   3.672
28303W        W87806   5.256  27.189  14.401
28304W        W87807  33.027  42.943   2.735
28305W        W87808   5.395   1.404   0.420
28306W        W87809   2.303   1.322   0.867
28307W        W87810  25.197  42.815   0.416
28308W        W87811  39.315  26.145   4.337
28309W        W87812  33.401  36.488   4.693
28310W        W87813  32.032  25.687  10.953
28311W        W87814  33.014  29.429  10.944
28312W        W87815  21.242  30.598  11.506
28313W        W87816  13.740   0.345  11.586
28314W        W87817  23.203   7.750   3.240
28315W        W87818  10.645  43.772  12.876
28316W        W87819  17.764   6.767  11.613
28317W        W87820  25.612   9.832   4.746
28318W        W87821   5.203  26.656  12.907
28319W        W87822  43.412  35.360  13.957
28320W        W87823  21.570  41.467  14.970
28321W        W87824  17.644   6.773   1.291
28322W        W87825  43.847  14.120  12.497
28323W        W87826  21.105  35.390  14.346
28324W        W87827  36.446   9.696  12.390
28325W        W87828  16.657  21.732   1.287
28326W        W87829  43.769  28.060  14.504
28327W        W87830  19.723   0.373  11.471
28328W        W87831   8.178  14.826  14.453
28329W        W87832  40.444  41.903  14.498
28330W        W87833  14.208  24.081  13.890
28331W        W87834  26.570  30.454  14.925
28332W        W87835  41.521  27.536   1.700
28333W        W87836   8.710  36.923   0.795
28334W        W87837  44.458  13.820   0.402
28335W        W87838   1.364   3.276   2.677
28336W        W87839   5.745  33.010  14.406
28337W        W87840  39.880  33.400   4.711
28338W        W87841  11.260   3.338   0.944
28339W        W87842  42.022  21.559   2.248
28340W        W87843  42.950  29.175   3.709
28341W        W87844   4.378  15.595  14.889
28342W        W87845  29.064  13.792  13.876
28343W        W87846  42.811  27.093   2.704
28344W        W87847  13.281  41.019  11.062
28345W        W87848  29.618  38.845   0.879
28346W        W87849  28.609  15.810  11.442
28347W        W87850  40.812  23.623  14.899
28348W        W87851  11.810   2.289  11.889
28349W        W87852  42.931  37.551   1.390
28350W        W87853  18.209  12.243   1.763
28351W        W87854   5.269  21.240   0.360
28352W        W87855  15.287  22.644  12.565
28353W        W87856  15.714   1.840  13.313
28354W        W87857  10.751  10.368  11.419
28355W        W87858  34.448  38.023  10.899
28356W        W87859  29.108  15.107  11.126
28357W        W87860  43.016  15.587  13.406
28358W        W87861  30.436   3.848   3.847
28359W        W87862  40.835  43.940  12.381
28360W        W87863  13.785   8.806  14.908
28361W        W87864  20.115  14.209   5.239
28362W        W87865  10.854  27.979   4.755
28363W        W87866  28.014   0.758   5.088
28364W        W87867  17.095  34.040  11.448
28365W        W87868  37.910  24.604   0.912
28366W        W87869   6.907  29.441  13.479
28367W        W87870  24.646   8.334  14.830
28368W        W87871  28.058  30.997  14.309
28369W        W87872  28.135  12.828   0.921
28370W        W87873  25.155  31.058   3.684
28371W        W87874  31.425   3.854  14.464
28372W        W87875  44.350  21.051  11.896
28373W        W87876  40.312  11.760   5.216
28374W        W87877  14.673  42.901  14.385
28375W        W87878   5.394   3.737   1.702
28376W        W87879  23.627   9.275   0.747
28377W        W87880  13.607  42.854  11.402
28378W        W87881  13.205  16.740  14.013
28379W        W87882  31.646  22.566   2.368
28380W        W87883   2.781  40.396   3.850
28381W        W87884  37.524  42.915   3.318
28382W        W87885  43.949   6.813  14.777
28383W        W87886  14.134   3.779  13.945
28384W        W87887  29.010  18.735  13.396
28385W        W87888   6.818  14.774   1.846
28386W        W87889  25.597  10.360   5.247
28387W        W87890  22.523  44.951   2.896
28388W        W87891  33.104  15.783   2.371
28389W        W87892  41.993  35.528  10.563
28390W        W87893  40.360  40.369   2.399
28391W        W87894  24.603  24.998  12.396
28392W        W87895   9.889  24.154   0.291
28393W        W87896  41.470  28.931  13.469
28394W        W87897  44.426  36.497  10.493
28395W        W87898  25.509  31.445   4.230
28396W        W87899  10.188  37.439  14.332
28397W        W87900  39.340   7.179   4.792
28398W        W87901   1.757  24.528  11.556
28399W        W87902   5.246  17.269  12.040
28400W        W87903  29.640   5.781   0.943
28401W        W87904  26.153   7.401   3.263
28402W        W87905   1.882  18.202  14.501
28403W        W87906  38.039  12.696   2.789
28404W        W87907  19.094  36.515  12.439
28405W        W87908   4.835  23.213   1.809
28406W        W87909  30.116   9.845   2.895
28407W        W87910  22.098  34.913  14.416
28408W        W87911  11.830  12.639  12.930
28409W        W87912  21.639  11.744   0.338
28410W        W87913  14.220  39.018  10.569
28411W        W87914  31.423   8.874  12.853
28412W        W87915  28.014   4.341   0.861
28413W        W87916  44.481  28.438   3.762
28414W        W87917  24.545  39.337  11.371
28415W        W87918  22.143   7.395   2.238
28416W        W87919  42.384  36.570   4.710
28417W        W87920   3.743  17.620   4.674
28418W        W87921  35.890   7.867  12.954
28419W        W87922  10.732   8.833  13.997
28420W        W87923  41.857  28.484  13.932
28421W        W87924  32.597  28.010   3.254
28422W        W87925  33.537  14.636   0.805
28423W        W87926  31.090  33.066   2.857
28424W        W87927  32.961  44.892   4.318
28425W        W87928  11.653  25.584   4.601
28426W        W87929  14.657  37.867  14.027
28427W        W87930   1.819  18.666  11.603
28428W        W87931  22.224   8.335   0.940
28429W        W87932  25.525   2.471  11.397
28430W        W87933  20.531  32.545  14.279
28431W        W87934   8.802  26.042  14.801
28432W        W87935  36.846   0.941   0.355
28433W        W87936  32.010  10.329  11.954
28434W        W87937  42.401  41.414  11.551
28435W        W87938  35.074  27.135  14.452
28436W        W87939   9.381  42.360  14.282
28437W        W87940  11.172  29.588   3.711
28438W        W87941  40.312  32.998  11.475
28439W        W87942  29.127  11.847  14.301
28440W        W87943  39.487  15.642   0.394
28441W        W87944   6.736   3.448   1.233
28442W        W87945  23.118  31.466   4.269
28443W        W87946  41.026  22.544  13.349
28444W        W87947  37.065  27.131  14.963
28445W        W87948  30.647  42.410  10.573
28446W        W87949  10.190  41.892   1.381
28447W        W87950  44.325  36.018  10.592
28448W        W87951   1.845  40.391   2.843
28449W        W87952  23.146  19.672   3.693
28450W        W87953  28.044   8.861   5.137
28451W        W87954  41.353  20.544  10.888
28452W        W87955  44.892   7.694  13.466
28453W        W87956   0.306  32.001   1.332
28454W        W87957  32.885  43.873   3.359
28455W        W87958   1.329  13.166  13.001
28456W        W87959  33.005  25.997   1.853
28457W        W87960  39.368  18.695  12.486
28458W        W87961  28.497  16.779   3.770
28459W        W87962  41.371  23.689   2.725
28460W        W87963  33.547  41.958   0.455
28461W        W87964  15.733  17.192   1.901
28462W        W87965  37.354  34.031   4.755
28463W        W87966  41.305  17.164  14.477
28464W        W87967   8.388  14.657  11.591
28465W        W87968  17.762  34.594   0.480
28466W        W87969  36.593   2.264  12.027
28467W        W87970   9.700  27.517   1.787
28468W        W87971  19.753  29.533   1.864
28469W        W87972  10.877  17.745   1.374
28470W        W87973  10.714  27.511  14.348
28471W        W87974  27.678  15.259  14.386
28472W        W87975  32.512  10.779  13.017
28473W        W87976  13.641   2.739  11.432
28474W        W87977  13.794  29.025  11.566
28475W        W87978  31.420  25.536   1.387
28476W        W87979  34.983  18.723   1.309
28477W        W87980  11.238  42.814   1.244
28478W        W87981  14.701  30.079  13.028
28479W        W87982  27.092  41.829  11.441
28480W        W87983  26.520  20.718   1.742
28481W        W87984  33.453  17.277   1.790
28482W        W87985  27.197  28.172  11.562
28483W        W87986  42.330  44.011   2.868
28484W        W87987  26.494  31.500   2.349
28485W        W87988  44.346  42.302   0.783
28486W        W87989  24.225  37.981   2.881
28487W        W87990  38.480  31.486  10.562
28488W        W87991  38.970  10.712  12.451
28489W        W87992  21.607  23.147   4.266
28490W        W87993  28.171  22.048   1.319
28491W        W87994  12.222  36.403   3.745
28492W        W87995  24.055  24.054   1.738
28493W        W87996  42.365  29.494   3.685
28494W        W87997  43.324  10.854  12.418
28495W        W87998   9.284  32.041  14.366
28496W        W87999  16.094   0.769   2.235
28497W        W88000   4.217  17.157  12.532
28498W        W88001  22.531  23.622  14.477
28499W        W88002   1.752  31.043   4.146
28500W        W88003  29.666  25.040   0.366
28501W        W88004  22.194  37.934  14.445
28502W        W88005  23.525   0.984  11.980
28503W        W88006  29.644  15.763  11.495
28504W        W88007  43.331  35.028   1.256
28505W        W88008  28.107  44.473  11.448
28506W        W88009  23.176   6.723  11.118
28507W        W88010  31.617  29.116   9.962
28508W        W88011  42.344   9.244  11.477
28509W        W88012  33.888   3.342   1.327
28510W        W88013  10.246  18.064  13.415
28511W        W88014  26.148   8.219  14.841
28512W        W88015   0.425  19.185   1.374
28513W        W88016   6.908  19.665   2.691
28514W        W88017  41.000   4.439  12.856
28515W        W88018  35.436   8.166  13.861
28516W        W88019  22.048  37.987   2.411
28517W        W88020  41.348  24.556  14.851
28518W        W88021  29.093  26.095   9.955
28519W        W88022  38.508   0.429  12.471
28520W        W88023  11.814  21.095   3.259
28521W        W88024  18.173  11.817   1.858
28522W        W88025  38.373  32.967   1.246
28523W        W88026  41.818  28.503   3.381
28524W        W88027  23.619   7.253  13.354
28525W        W88028  34.455   3.813   3.687
28526W        W88029  22.215  23.205   0.282
28527W        W88030  41.463  38.926  13.478
28528W        W88031   7.860  21.103   0.479
28529W        W88032   1.431  40.408   3.631
28530W        W88033  19.736   0.392  10.996
28531W        W88034  23.993  29.951  12.401
28532W        W88035  44.895  20.092  14.410
28533W        W88036  16.617   8.812  12.883
28534W        W88037  34.555  42.006   4.773
28535W        W88038  34.906  26.569   3.686
28536W        W88039  22.168   7.249  12.055
28537W        W88040  21.069  40.490   0.744
28538W        W88041   9.374  13.789  12.528
28539W        W88042   2.468  30.969   1.384
28540W        W88043  20.572   1.948  14.901
28541W        W88044  19.575   1.402   2.778
28542W        W88045  27.565  21.032   1.288
28543W        W88046  19.270  44.313   2.308
28544W        W88047   7.833   4.369  14.914
28545W        W88048  43.309  11.735  11.516
28546W        W88049  27.653  27.487  10.622
28547W        W88050  25.168  42.889  10.939
28548W        W88051   6.759   7.370   0.765
28549W        W88052  43.381   6.315  10.979
28550W        W88053  21.237  15.264  12.544
28551W        W88054  33.991  41.990   4.172
28552W        W88055  43.516  32.095  12.541
28553W        W88056  41.452  14.831   0.314
28554W        W88057  34.393  38.908   2.666
28555W        W88058  37.080  44.447   4.279
28556W        W88059   2.350  37.459  10.065
28557W        W88060  18.784  18.745  12.559
28558W        W88061  33.565  28.452  12.825
28559W        W88062  38.995  20.592   4.134
28560W        W88063  32.963  15.179  14.768
28561W        W88064  17.243  33.094  12.935
28562W        W88065  41.469  39.458  10.916
28563W        W88066  42.464  34.875  12.878
28564W        W88067  29.656  42.989   4.712
28565W        W88068  23.036  30.921   1.896
28566W        W88069  38.062  19.069  12.854
28567W        W88070   6.711  10.262   1.697
28568W        W88071  40.852  36.862   1.797
28569W        W88072  10.191  20.529  11.948
28570W        W88073  25.521  20.669   2.878
28571W        W88074  11.200  25.084   0.389
28572W        W88075   1.737  24.187   3.327
28573W        W88076  44.853  12.233   1.426
28574W        W88077  16.725  29.500  13.376
28575W        W88078  43.765  23.558  12.483
28576W        W88079  38.363  16.671   3.747
28577W        W88080  10.747  12.808  10.582
28578W        W88081  18.145  19.220  12.443
28579W        W88082  33.616   2.429  12.436
28580W        W88083   7.358  36.374   4.230
28581W        W88084   5.374   4.908   1.911
28582W        W88085  14.175  22.104  14.821
28583W        W88086  13.336  31.959  13.450
28584W        W88087   0.957  30.636   3.779
28585W        W88088  25.197  19.204   0.933
28586W        W88089   9.226  28.039   3.821
28587W        W88090  16.744  21.600  12.439
28588W        W88091  33.568  26.479  12.508
28589W        W88092  34.413  39.927   1.894
28590W        W88093  16.674  10.330   1.920
28591W        W88094   9.736  26.038  14.887
28592W        W88095  10.717  18.082   4.645
28593W        W88096  31.507  21.099   3.208
28594W        W88097  18.716  29.030  14.788
28595W        W88098   7.699  19.068   0.370
28596W        W88099   4.908   3.943   3.215
28597W        W88100  36.442   4.397   4.806
28598W        W88101   3.227  10.692  14.921
28599W        W88102   3.728  17.189  10.560
28600W        W88103  24.690  24.139  11.950
28601W        W88104   4.259   6.885   3.281
28602W        W88105  40.460   3.245  10.508
28603W        W88106  22.161  15.287  10.959
28604W        W88107  43.894  22.183  12.483
28605W        W88108   7.362  40.427   4.326
28606W        W88109  14.625  28.076   4.231
28607W        W88110  33.070  22.030  14.416
28608W        W88111   9.710  33.536   4.626
28609W        W88112  18.739  32.397   3.820
28610W        W88113  28.562  10.263  13.912
28611W        W88114  43.329  33.445  14.823
28612W        W88115  34.612  38.000   5.704
28613W        W88116  29.951  34.466  11.569
28614W        W88117  14.301   4.258  11.589
28615W        W88118  31.566  22.161   3.652
28616W        W88119   0.266  27.993   4.720
28617W        W88120  39.455  32.039  14.832
28618W        W88121  39.556   9.297   4.323
28619W        W88122  26.098  17.630   2.280
28620W        W88123   9.776  20.148   1.249
28621W        W88124  23.594   5.424   5.264
28622W        W88125   9.882  28.107   2.338
28623W        W88126   0.947  28.603   2.329
28624W        W88127   3.851  37.464  13.923
28625W        W88128  39.019   0.807   3.742
28626W        W88129   0.810  13.664  11.397
28627W        W88130  28.647  29.431   1.877
28628W        W88131   4.224  28.101   1.734
28629W        W88132   1.957  14.633   4.737
28630W        W88133  22.101  28.933   3.179
28631W        W88134  24.491  19.535  14.349
28632W        W88135  13.125   2.308  12.995
28633W        W88136  42.019  34.422   4.213
28634W        W88137  27.468  37.377  10.591
28635W        W88138  30.162  31.899  12.522
28636W        W88139  26.060  22.722  10.584
28637W        W88140   0.808  36.358  11.528
28638W        W88141  30.539  21.041  13.540
28639W        W88142   7.182   2.334  11.086
28640W        W88143  40.331  13.647  13.035
28641W        W88144  36.075  34.563  12.052
28642W        W88145   5.220  18.585   3.166
28643W        W88146  17.259  14.697   2.297
28644W        W88147  26.154   4.934   0.481
28645W        W88148   9.839  32.455   1.394
28646W        W88149  24.510   5.718  13.063
28647W        W88150  14.286  25.653  12.395
28648W        W88151   1.252  30.619  10.480
28649W        W88152  13.785  16.084  12.083
28650W        W88153   2.943  20.711   0.324
28651W        W88154  15.325  13.769   4.352
28652W        W88155   9.209  20.159   0.247
28653W        W88156  35.489  38.480  11.612
28654W        W88157   7.684  42.326  12.357
28655W        W88158   8.896  36.384   0.833
28656W        W88159  36.022  26.579   0.905
28657W        W88160   7.340  40.382   1.381
28658W        W88161  42.810  37.551   9.972
28659W        W88162  28.017   7.210   0.375
28660W        W88163   0.857  43.490  14.361
28661W        W88164   6.748  35.965  14.423
28662W        W88165  22.699  24.720  10.901
28663W        W88166   9.216  24.487   4.206
28664W        W88167   1.901  22.093  10.470
28665W        W88168  23.728  13.283  13.485
28666W        W88169   1.824  42.940  12.927
28667W        W88170   1.330   2.888   0.434
28668W        W88171  34.502   5.881  14.402
28669W        W88172   7.898  44.008   1.903
28670W        W88173   9.392  27.999  12.029
28671W        W88174  15.224   0.406  11.099
28672W        W88175  16.796  10.795   4.292
28673W        W88176  28.621  42.013   3.370
28674W        W88177   6.320  13.154   0.947
28675W        W88178  19.539  12.802  11.061
28676W        W88179  27.087   0.469   1.729
28677W        W88180  33.969  13.312  12.580
28678W        W88181  24.189  21.245  11.908
28679W        W88182  16.205  35.901   3.198
28680W        W88183  41.468  27.172   3.146
28681W        W88184  11.359  29.454  13.329
28682W        W88185  32.040  19.153  13.967
28683W        W88186  38.047   8.708  14.464
28684W        W88187  43.482  36.443  11.103
28685W        W88188  13.161   6.821   4.668
28686W        W88189   5.195   1.316  13.051
28687W        W88190  22.706  16.204  14.295
28688W        W88191  38.823   0.896   4.711
28689W        W88192  31.573  16.682   4.651
28690W        W88193   1.482  43.872   3.864
28691W        W88194   0.928  21.073   1.714
28692W        W88195  15.714  11.625   5.105
28693W        W88196   7.755  11.821  10.102
28694W        W88197   0.493  34.089  12.906
28695W        W88198  39.812  14.105  14.009
28696W        W88199   0.925  15.735  10.545
28697W        W88200  25.996  27.676   3.245
28698W        W88201  25.042   9.817  14.771
28699W        W88202  34.099  42.831  11.008
28700W        W88203  15.297  33.567  11.594
28701W        W88204   5.390  40.021   3.379
28702W        W88205  34.995  17.570   2.249
28703W        W88206  14.332  25.219  12.355
28704W        W88207  41.829  40.006   0.903
28705W        W88208  16.645  20.145  10.541
28706W        W88209  42.861  16.598  10.988
28707W        W88210  25.478   0.827   0.794
28708W        W88211  24.624   3.459   3.673
28709W        W88212  25.079   5.255   0.926
28710W        W88213   3.952  27.072   9.456
28711W        W88214  32.047   7.798   1.853
28712W        W88215   5.856  27.122   0.315
28713W        W88216  11.772  28.948   5.290
28714W        W88217   6.230  39.407   2.273
28715W        W88218  34.510  16.106   1.879
28716W        W88219   9.839  41.870   4.155
28717W        W88220  21.028   8.298  13.944
28718W        W88221  13.664  35.930   2.827
28719W        W88222  43.006   9.732   1.438
28720W        W88223  11.809   7.764  10.063
28721W        W88224  29.136  14.213   0.424
28722W        W88225  40.878   5.275  10.455
28723W        W88226  44.845  33.904  14.297
28724W        W88227   4.346  21.120  11.040
28725W        W88228  23.735  26.668   5.268
28726W        W88229  20.730  20.648   3.172
28727W        W88230  32.416  17.090   0.282
28728W        W88231   2.388  20.269   2.813
28729W        W88232  42.487  20.623  10.978
28730W        W88233  43.821   7.738  10.937
28731W        W88234  43.993  38.523  12.006
28732W        W88235  41.943  32.926  12.920
28733W        W88236  26.984  39.823  11.407
28734W        W88237  26.090  27.642   1.855
28735W        W88238  10.809   2.367  12.356
28736W        W88239  11.347  22.235   4.353
28737W        W88240  25.651  35.914   4.340
28738W        W88241  21.525  40.866  11.598
28739W        W88242  17.193  39.552  14.765
28740W        W88243  43.485  22.609  13.962
28741W        W88244  14.617   2.472   3.812
28742W        W88245  42.441  16.780  10.620
28743W        W88246  44.366  13.350   2.675
28744W        W88247  27.521  31.408  13.421
28745W        W88248  18.180  16.758  14.447
28746W        W88249  15.219   7.248   4.617
28747W        W88250  24.688  31.413  12.518
28748W        W88251  20.252  13.703   2.813
28749W        W88252  33.612  43.807   2.705
28750W        W88253  42.892  36.923   0.300
28751W        W88254   7.384  24.157   0.951
28752W        W88255  39.403  16.226  11.516
28753W        W88256  15.613   1.325  12.436
28754W        W88257  41.851  10.302  11.090
28755W        W88258  10.302  31.449  13.964
28756W        W88259   8.857  24.046  11.586
28757W        W88260  41.498  13.183   3.212
28758W        W88261  16.091  16.704   2.360
28759W        W88262  34.878  42.000   1.440
28760W        W88263   4.908  29.511  10.633
28761W        W88264  13.709  33.461   1.344
28762W        W88265  21.601   6.681   1.799
28763W        W88266  30.575  32.556  11.111
28764W        W88267  44.955  24.054  10.153
28765W        W88268  25.662  28.606   4.705
28766W        W88269  38.436  15.088   1.223
28767W        W88270  29.016  30.913   2.325
28768W        W88271  29.936   6.243  13.059
28769W        W88272  43.952  15.618   1.365
28770W        W88273  20.158  42.334  10.955
28771W        W88274   8.854  25.599   1.880
28772W        W88275  42.965  12.242   3.844
28773W        W88276  28.617  30.494   1.695
28774W        W88277   7.826  32.010  12.027
28775W        W88278  29.493  40.500   2.354
28776W        W88279  30.925  36.080  14.335
28777W        W88280  22.637  33.510  11.917
28778W        W88281  28.657  26.146   0.410
28779W        W88282  23.112  33.579  11.425
28780W        W88283   8.759  32.117   4.722
28781W        W88284   6.347  19.638  14.007
28782W        W88285   2.406  42.450  12.905
28783W        W88286   2.341  35.577  12.013
28784W        W88287   6.908   9.384   2.839
28785W        W88288  31.920  41.367   1.822
28786W        W88289  35.514   0.266  11.968
28787W        W88290  42.856  14.593  12.084
28788W        W88291  37.883  16.701   4.830
28789W        W88292   8.794   7.183   0.430
28790W        W88293  40.956  19.762   0.304
28791W        W88294  35.054  39.953   0.873
28792W        W88295  14.307  40.547  10.492
28793W        W88296  15.313   8.165   0.958
28794W        W88297  23.120   4.934   3.361
28795W        W88298  39.450  26.964  14.856
28796W        W88299   3.805  27.182   0.850
28797W        W88300  18.737  21.213   0.292
28798W        W88301  25.133  41.470  10.609
28799W        W88302   7.260  10.633   0.823
28800W        W88303  35.481  14.336   0.733
28801W        W88304  38.912  40.801   0.880
28802W        W88305  17.777  13.210  10.556
28803W        W88306  24.556  35.373   3.320
28804W        W88307   8.799  32.041   5.265
28805W        W88308  41.031   8.702  12.349
28806W        W88309  37.929  34.053  13.376
28807W        W88310  44.998  20.254   9.990
28808W        W88311   2.459  39.351  13.945
28809W        W88312  11.648  44.407  12.092
28810W        W88313   0.829   2.291   2.389
28811W        W88314   5.338  38.472   1.783
28812W        W88315  44.777  28.613   0.907
28813W        W88316   8.811  18.750  12.492
28814W        W88317  12.135   2.454  12.408
28815W        W88318  44.428  30.933   1.806
28816W        W88319  20.199  19.256  14.291
28817W        W88320  12.753  23.068  14.825
28818W        W88321  14.305  28.650  11.047
28819W        W88322   5.356  25.566   3.735
28820W        W88323  15.807  23.995   5.215
28821W        W88324  22.150  26.564   3.277
28822W        W88325  43.878   2.384   1.240
28823W        W88326  21.145   2.312   2.320
28824W        W88327  32.502  41.492   1.330
28825W        W88328   7.285  13.616  10.620
28826W        W88329   1.250   5.837  11.521
28827W        W88330   8.364  24.073  11.097
28828W        W88331  42.033  37.396  12.433
28829W        W88332  18.682   7.251  11.433
28830W        W88333   6.887   1.754   0.299
28831W        W88334  14.677  19.762   1.258
28832W        W88335  22.734  30.073   2.253
28833W        W88336  27.591  32.527  12.013
28834W        W88337  24.510  19.075  11.062
28835W        W88338  23.644  14.706  13.505
28836W        W88339  31.476  33.888   0.953
28837W        W88340  37.363  25.028   3.161
28838W        W88341  44.496  22.996   0.431
28839W        W88342  17.093   9.299   1.319
28840W        W88343  11.835  18.204  12.064
28841W        W88344  44.441  10.351  11.118
28842W        W88345  14.835  44.265   9.986
28843W        W88346   4.383  18.787  11.984
28844W        W88347   7.790  33.122  11.606
28845W        W88348  24.689   7.328  13.313
28846W        W88349  14.169  15.204   4.838
28847W        W88350  23.610  41.927   4.344
28848W        W88351  10.691   2.726  12.087
28849W        W88352  22.591  14.157  13.966
28850W        W88353  28.486  15.179   3.743
28851W        W88354   5.373  20.581  11.912
28852W        W88355  24.555  44.287  10.027
28853W        W88356   8.382  13.265   5.210
28854W        W88357  41.036  43.325  12.080
28855W        W88358  27.105  10.307   3.730
28856W        W88359  10.876  18.086  11.425
28857W        W88360  18.729   1.825  12.398
28858W        W88361   9.873  15.129   0.928
28859W        W88362  27.152  25.093  11.394
28860W        W88363  29.568  28.109  13.380
28861W        W88364  40.406  28.149   5.201
28862W        W88365  36.854   2.316  10.964
28863W        W88366  17.800  16.222  10.508
28864W        W88367  32.618  34.516   1.400
28865W        W88368   1.392  32.423  10.923
28866W        W88369  34.881  19.077   0.762
28867W        W88370  19.583  13.761   1.860
28868W        W88371  36.911  38.943   3.811
28869W        W88372  13.320  26.036  14.314
28870W        W88373   5.297   6.823   2.353
28871W        W88374  10.662   8.878   4.230
28872W        W88375  17.141  37.552   1.734
28873W        W88376  43.796  41.353   2.728
28874W        W88377  39.934  32.959   1.817
28875W        W88378   7.414  10.753   2.676
28876W        W88379   0.305   0.875  12.084
28877W        W88380  23.691  14.248   4.230
28878W        W88381  34.953  38.558  11.437
28879W        W88382   8.301   1.351  10.462
28880W        W88383  26.605   0.813  11.556
28881W        W88384  14.319  24.098  14.773
28882W        W88385  24.701  21.554   0.448
28883W        W88386  30.941  26.997  14.452
28884W        W88387  14.107  18.201  10.429
28885W        W88388   9.862  11.232  12.451
28886W        W88389  17.558  20.624   3.268
28887W        W88390  30.133  15.209  12.083
28888W        W88391  38.539   3.233   3.790
28889W        W88392  36.859  28.163   1.256
28890W        W88393  26.144  38.025   4.294
28891W        W88394  36.844  42.313  13.791
28892W        W88395   3.744   8.756   0.284
28893W        W88396   9.684  13.676   1.410
28894W        W88397   0.922  32.940  14.509
28895W        W88398   9.314  20.049  12.535
28896W        W88399   2.228  41.455  13.379
28897W        W88400  28.569   0.395   1.741
28898W        W88401   4.851  12.147  14.477
28899W        W88402  28.676  25.638  10.464
28900W        W88403  15.731   4.250  12.430
28901W        W88404   9.739  39.043   4.118
28902W        W88405   4.726  13.686   4.215
28903W        W88406   8.713   5.737   3.819
28904W        W88407  14.115   2.914  12.846
28905W        W88408  24.692  20.189   4.177
28906W        W88409  14.624   0.308   4.334
28907W        W88410   4.231  16.123  11.068
28908W        W88411  21.126  19.097   3.768
28909W        W88412  15.185   3.448   2.822
28910W        W88413  19.260  27.119  14.812
28911W        W88414  42.388  29.012   4.766
28912W        W88415  33.464   0.426  10.990
28913W        W88416   6.372  12.684   3.745
28914W        W88417  35.060   4.832   3.260
28915W        W88418  26.489  43.312  12.840
28916W        W88419   8.160   6.898   2.333
28917W        W88420  21.520  40.471   2.691
28918W        W88421  18.285   4.822  14.401
28919W        W88422  14.695  14.204   4.305
28920W        W88423  13.304  25.134   1.810
28921W        W88424  15.799  29.041  10.125
28922W        W88425  19.161  28.982  13.427
28923W        W88426  33.511  18.201   2.795
28924W        W88427  23.668  37.930   4.647
28925W        W88428   7.259  14.753   2.663
28926W        W88429   2.961  10.731  13.863
28927W        W88430  18.063  33.401   2.180
28928W        W88431   9.722  42.286   3.154
28929W        W88432  10.259  28.110  12.037
28930W        W88433   9.235  38.364  14.887
28931W        W88434  41.037  23.705  13.050
28932W        W88435  26.640  37.558   5.105
28933W        W88436  44.437   8.327  11.454
28934W        W88437  23.062  24.660   2.834
28935W        W88438   8.319  31.058  11.126
28936W        W88439  23.090  11.261  14.410
28937W        W88440  44.428  17.228   4.668
28938W        W88441   8.193  17.204  14.378
28939W        W88442   0.748  31.133   2.757
28940W        W88443  32.987  38.973   2.362
28941W        W88444  10.282   6.708  11.082
28942W        W88445  27.645  38.929   5.263
28943W        W88446  21.653   9.229  12.847
28944W        W88447  28.548   6.757  12.563
28945W        W88448  31.115  34.074   0.867
28946W        W88449  20.261  44.372  12.986
28947W        W88450  40.829  31.029   0.744
28948W        W88451  22.058  19.209  13.047
28949W        W88452  26.208  12.719   3.809
28950W        W88453  10.165  28.671  13.946
28951W        W88454  25.688  22.049  14.898
28952W        W88455  26.141  29.570  11.480
28953W        W88456  12.760  40.956  12.057
28954W        W88457  13.112  11.300   3.277
28955W        W88458  33.425  17.271   1.355
28956W        W88459  19.579   6.304   4.619
28957W        W88460  34.073  10.331  14.814
28958W        W88461  41.325  33.530  10.441
28959W        W88462  37.863  17.597   2.667
28960W        W88463   7.811  14.693   2.782
28961W        W88464  41.338   9.718   2.718
28962W        W88465  22.601   1.271  14.870
28963W        W88466  37.904  32.545   3.731
28964W        W88467  42.977   3.361  10.430
28965W        W88468  40.981  10.827   4.696
28966W        W88469   5.360  42.518  12.999
28967W        W88470  18.648  31.944  10.474
28968W        W88471   9.199  11.367   3.805
28969W        W88472   9.692  19.754  13.972
28970W        W88473  43.472  35.582  14.850
28971W        W88474   6.294  23.489   3.738
28972W        W88475   1.893  34.042  14.344
28973W        W88476  37.459  11.868   2.288
28974W        W88477   5.331  34.948  13.915
28975W        W88478  37.891   1.469   3.630
28976W        W88479   1.795  39.872   0.950
28977W        W88480  33.024  41.794  14.339
28978W        W88481  39.340  21.150   4.324
28979W        W88482  27.947  36.583  11.440
28980W        W88483  15.215  41.345   3.840
28981W        W88484  44.448  36.907   1.273
28982W        W88485   8.322   6.379  10.501
28983W        W88486  33.119  33.887   0.457
28984W        W88487  10.336  35.006  10.994
28985W        W88488  22.058  40.392   2.331
28986W        W88489   7.871  18.273   1.909
28987W        W88490   9.674  15.278  12.564
28988W        W88491  27.085   0.318   3.167
28989W        W88492  31.597  19.751  13.440
28990W        W88493   6.282  39.976  14.474
28991W        W88494  24.054  22.668  14.899
28992W        W88495  13.187  11.147  13.322
28993W        W88496  26.209  32.939  11.531
28994W        W88497   3.306  37.033  12.412
28995W        W88498  31.458   5.374   2.301
28996W        W88499  34.497  13.185  12.516
28997W        W88500  29.652  34.887  11.935
28998W        W88501   9.215  12.627  12.892
28999W        W88502  36.494   1.470   1.753
29000W        W88503  43.967  36.556   2.299
29001W        W88504  12.345  27.120   4.642
29002W        W88505  13.631   2.859   2.391
29003W        W88506  17.581  26.554   4.828
29004W        W88507   6.330  10.733   4.287
29005W        W88508  38.369  20.095   2.326
29006W        W88509  20.749   7.350   2.894
29007W        W88510  38.482  34.866   0.768
29008W        W88511  42.489  32.446   0.734
29009W        W88512  24.544  33.962   0.447
29010W        W88513  26.977  10.878  12.375
29011W        W88514  21.665  17.588  13.962
29012W        W88515  28.040   8.899  12.036
29013W        W88516  21.684  28.598   3.384
29014W        W88517  22.091  38.462  13.482
29015W        W88518   2.313   3.333  14.875
29016W        W88519  28.579   1.910   3.166
29017W        W88520  43.297  16.802  12.493
29018W        W88521  27.043  15.123   2.307
29019W        W88522  17.112   8.241  13.026
29020W        W88523  23.579  39.818   1.858
29021W        W88524  38.046   3.868   2.747
29022W        W88525   1.757  28.143  10.974
29023W        W88526   2.338  13.268  14.311
29024W        W88527   2.247  44.767  13.869
29025W        W88528  42.367  23.647  13.521
29026W        W88529  40.940  24.720   3.737
29027W        W88530  21.750  23.168  12.960
29028W        W88531   6.741  31.957  11.563
29029W        W88532  42.955   6.394  13.031
29030W        W88533   8.681  24.672   4.138
29031W        W88534  21.235  43.866  14.032
29032W        W88535  17.785  32.025   2.855
29033W        W88536  35.395  29.445   4.212
29034W        W88537  38.389   8.681  14.947
29035W        W88538  16.802  44.386   1.789
29036W        W88539  37.341  30.482  10.476
29037W        W88540  39.022  26.132   1.749
29038W        W88541  31.936  12.356  10.056
29039W        W88542  38.509  29.933   1.751
29040W        W88543  33.448  20.139  14.895
29041W        W88544   3.353  34.460  11.933
29042W        W88545  19.258   1.246  13.479
29043W        W88546   4.399  36.067  14.311
29044W        W88547   2.937  25.550   3.175
29045W        W88548  32.018  42.838  12.417
29046W        W88549  14.247   4.874  12.059
29047W        W88550  30.950  25.566   3.633
29048W        W88551  33.609  26.469  14.948
29049W        W88552  17.705  19.142  12.983
29050W        W88553  22.104  35.909  11.880
29051W        W88554   5.378  44.496   4.194
29052W        W88555  30.086  41.936   4.761
29053W        W88556   6.289  30.543  11.504
29054W        W88557  13.299  14.686  10.427
29055W        W88558  31.107  21.611  13.965
29056W        W88559  41.873  20.608  11.031
29057W        W88560  16.239  16.640   1.718
29058W        W88561   5.730  18.735  11.030
29059W        W88562  26.526  22.007  11.042
29060W        W88563  17.285  16.247   2.712
29061W        W88564  42.502  36.909  13.864
29062W        W88565  43.013  19.707   0.450
29063W        W88566   3.302   2.326  14.984
29064W        W88567  20.530  14.323   1.819
29065W        W88568  23.542   3.352  11.607
29066W        W88569  44.368  14.612   3.688
29067W        W88570  41.975  12.678  10.431
29068W        W88571  14.613  12.658  14.296
29069W        W88572  27.177   4.814   1.444
29070W        W88573  41.989  15.220   4.337
29071W        W88574  17.642  17.574  11.885
29072W        W88575   5.771  21.252   3.652
29073W        W88576   1.897  20.232  13.419
29074W        W88577  29.979  35.948  10.940
29075W        W88578   0.297   3.452  11.022
29076W        W88579  26.157  22.006   0.853
29077W        W88580  44.907  28.954  11.963
29078W        W88581  26.989  35.425  12.026
29079W        W88582  10.806  18.056   1.880
29080W        W88583  43.824   1.928   3.154
29081W        W88584  21.234  34.985  12.081
29082W        W88585  36.471  21.755  12.042
29083W        W88586  40.883  43.380   3.224
29084W        W88587  11.852  24.142  13.818
29085W        W88588  38.408  16.647  12.549
29086W        W88589   1.929  14.240   2.242
29087W        W88590  25.680  16.074  11.408
29088W        W88591   2.422  44.464   3.720
29089W        W88592  42.908  14.776  11.429
29090W        W88593  24.575  23.692   0.434
29091W        W88594  24.572  11.362  12.945
29092W        W88595   9.775  34.944  13.375
29093W        W88596   5.316  18.785   4.747
29094W        W88597   2.803  44.359   1.784
29095W        W88598  39.043  38.987  14.854
29096W        W88599  15.592  24.153  14.833
29097W        W88600  35.392  14.286  14.387
29098W        W88601   7.839  39.859   3.672
29099W        W88602   1.292   6.762  13.431
29100W        W88603   3.325  17.172   3.241
29101W        W88604  27.987  36.539  14.475
29102W        W88605  14.287  20.058   4.698
29103W        W88606  13.678  31.499  13.014
29104W        W88607  29.001  32.987  14.314
29105W        W88608  14.625  21.535   2.264
29106W        W88609   1.427   4.312   1.907
29107W        W88610  30.954  23.577  10.594
29108W        W88611  32.901   5.200   3.243
29109W        W88612  11.625  27.526   3.682
29110W        W88613  18.073  41.999   3.263
29111W        W88614  43.981  19.732  14.950
29112W        W88615   9.869  17.679   0.384
29113W        W88616  36.582  22.624  12.456
29114W        W88617   0.353   9.345   0.791
29115W        W88618  19.719  19.617  10.468
29116W        W88619  30.135  22.725   0.735
29117W        W88620   4.395  35.050   3.639
29118W        W88621  22.660  37.404   5.315
29119W        W88622  39.819  25.125   3.269
29120W        W88623  42.007  18.123   3.752
29121W        W88624  13.833  41.888   3.742
29122W        W88625   0.439  44.266   5.122
29123W        W88626  20.154  16.147  12.558
29124W        W88627   8.268  29.155   3.827
29125W        W88628  36.392  41.997   4.655
29126W        W88629  44.304  35.427  11.538
29127W        W88630  20.068  38.375   0.471
29128W        W88631   1.360  32.065   5.250
29129W        W88632  31.448  25.584  12.909
29130W        W88633  19.219  37.346   2.336
29131W        W88634  18.179  37.994   1.707
29132W        W88635   6.369  29.506   4.617
29133W        W88636   1.386  12.205  14.816
29134W        W88637  35.393  36.513   4.170
29135W        W88638   2.440  12.665  14.376
29136W        W88639  20.745   2.941   2.796
29137W        W88640   2.832  29.025   0.408
29138W        W88641  12.276  10.311   3.231
29139W        W88642   2.341  20.600  14.352
29140W        W88643  35.416  22.013  10.987
29141W        W88644  43.387  16.572  13.391
29142W        W88645  30.511   3.824  11.928
29143W        W88646  21.656  22.667   4.218
29144W        W88647  25.580   5.818  13.863
29145W        W88648  35.033   3.451  13.459
29146W        W88649  30.997  31.908   3.287
29147W        W88650   8.229  35.886  11.991
29148W        W88651   7.724  35.359   0.320
29149W        W88652  27.618   1.946  13.923
29150W        W88653  44.988  14.833   4.714
29151W        W88654  38.332  37.508   9.981
29152W        W88655   1.251  23.708  11.893
29153W        W88656  42.388  41.537   3.352
29154W        W88657  44.477  22.088   4.208
29155W        W88658  27.645  14.688  13.522
29156W        W88659  26.135  27.511   4.773
29157W        W88660  30.602   2.826   2.191
29158W        W88661  11.785   6.195  12.838
29159W        W88662  22.233  32.555   1.791
29160W        W88663  15.259   6.842  13.967
29161W        W88664  42.006  30.068  12.915
29162W        W88665   0.852  34.905   0.868
29163W        W88666   7.684  22.201   2.188
29164W        W88667  39.823  13.107  12.037
29165W        W88668  35.100  29.039   3.338
29166W        W88669   3.336  42.897   0.913
29167W        W88670  27.001  36.417  11.417
29168W        W88671   5.435  25.047   4.822
29169W        W88672  37.443  44.824   4.698
29170W        W88673  17.620  41.903   0.285
29171W        W88674  15.615  24.501  14.964
29172W        W88675   1.902  12.241  13.897
29173W        W88676  16.191  29.022  12.970
29174W        W88677  32.133   3.878   1.793
29175W        W88678  34.015  11.235   9.519
29176W        W88679  21.626   0.469  10.621
29177W        W88680  35.031  39.064   3.385
29178W        W88681  27.067  40.429   4.318
29179W        W88682  22.110   9.689  14.511
29180W        W88683  41.881  41.457  13.976
29181W        W88684  11.171   0.362   0.907
29182W        W88685  30.921  34.516   0.282
29183W        W88686   0.432  31.905   3.659
29184W        W88687  42.511  23.646   0.457
29185W        W88688   1.420   7.849   1.403
29186W        W88689  42.335  40.942   1.338
29187W        W88690  26.091  20.254  10.445
29188W        W88691   0.910  39.995  13.422
29189W        W88692  38.904  19.658   0.393
29190W        W88693  42.348  38.850   0.728
29191W        W88694  28.545  44.264   3.847
29192W        W88695  16.659  38.402  11.591
29193W        W88696  14.804  21.062   0.449
29194W        W88697  30.527  24.537  14.931
29195W        W88698  43.819   5.831  12.948
29196W        W88699  43.334  23.082   4.696
29197W        W88700  19.041  23.169   2.349
29198W        W88701   2.804   8.361   2.773
29199W        W88702  28.173  39.054   2.797
29200W        W88703  10.684  25.013   2.208
29201W        W88704  42.840  15.255   0.451
29202W        W88705  17.176  12.648  11.987
29203W        W88706  25.119  33.577   2.280
29204W        W88707  34.091  30.460  11.003
29205W        W88708  27.461   9.810  13.960
29206W        W88709  42.360  10.162  13.920
29207W        W88710   4.768   3.721   2.708
29208W        W88711  18.073  35.483  13.348
29209W        W88712  15.804  18.645  12.082
29210W        W88713  20.631  30.944   0.768
29211W        W88714  34.429  14.181   1.313
29212W        W88715  19.231  25.065  13.409
29213W        W88716  15.639  34.420   0.287
29214W        W88717  37.512   1.749  11.069
29215W        W88718  40.891  29.068  14.831
29216W        W88719  36.575   7.413   2.374
29217W        W88720   8.831  28.488  12.432
29218W        W88721  10.259  43.771  13.365
29219W        W88722  35.026  26.036  13.443
29220W        W88723   3.387  12.672   0.325
29221W        W88724  13.652  16.741  12.527
29222W        W88725  35.900  20.757  14.508
29223W        W88726  26.573   4.843  10.629
29224W        W88727  18.087  34.580  10.978
29225W        W88728  35.864  23.688  12.397
29226W        W88729  27.464  25.154   1.791
29227W        W88730  22.237  35.874   0.425
29228W        W88731  11.672  19.655   0.429
29229W        W88732  14.718  30.586  14.031
29230W        W88733  10.221   8.228   4.812
29231W        W88734  43.963  35.099  14.436
29232W        W88735  34.047  20.099   1.845
29233W        W88736  37.425  42.436  12.467
29234W        W88737  17.286   7.272   9.959
29235W        W88738  10.221  27.594   2.406
29236W        W88739  16.148   5.339  12.527
29237W        W88740  28.654   0.478   0.794
29238W        W88741  44.954  42.965  13.358
29239W        W88742  13.177  22.195   2.838
29240W        W88743  37.855  25.023  12.355
29241W        W88744  30.542  35.922  12.483
29242W        W88745  35.001  15.674   0.382
29243W        W88746  11.763  28.142  14.841
29244W        W88747  30.453  40.995  11.082
29245W        W88748   7.383  16.210  11.974
29246W        W88749  38.034  44.280  13.811
29247W        W88750  22.537  29.102   2.321
29248W        W88751  34.400  14.252  12.563
29249W        W88752  42.386  11.758  10.889
29250W        W88753  39.945  31.978  12.921
29251W        W88754  11.733  31.005   2.765
29252W        W88755  11.318  29.536  14.939
29253W        W88756  29.526  24.162   2.897
29254W        W88757  30.140  28.623  12.847
29255W        W88758   3.917  10.304   1.336
29256W        W88759  39.403  42.477   0.884
29257W        W88760   0.754   2.764   1.699
29258W        W88761   9.238  13.120  13.000
29259W        W88762  38.930  42.967   0.424
29260W        W88763  40.380  18.650   4.662
29261W        W88764   2.738  30.511  13.910
29262W        W88765  22.051  27.137   1.840
29263W        W88766  29.658   1.273   4.271
29264W        W88767  19.696  27.478   2.703
29265W        W88768   2.752  44.911   2.745
29266W        W88769  17.592  26.670  14.349
29267W        W88770  31.526  15.608   3.192
29268W        W88771  13.707  44.494  11.040
29269W        W88772  23.117   8.718   1.391
29270W        W88773  33.981  41.032   4.777
29271W        W88774  19.539  13.344  12.979
29272W        W88775  41.327  24.229  10.981
29273W        W88776  15.276  38.914   3.227
29274W        W88777  25.107  39.379  14.435
29275W        W88778  26.204  44.875   1.841
29276W        W88779  43.846  31.145   1.821
29277W        W88780  27.147   4.758  12.431
29278W        W88781  25.030   0.349  14.022
29279W        W88782  10.729  35.520   4.355
29280W        W88783   4.944  29.044  12.507
29281W        W88784  14.266  14.711  12.858
29282W        W88785  21.620  35.995   2.745
29283W        W88786  26.691  24.045  10.615
29284W        W88787  17.205  33.070  10.889
29285W        W88788  26.126  24.103   3.777
29286W        W88789   2.723  34.453   2.741
29287W        W88790  34.533   2.883   2.818
29288W        W88791  10.349  15.817   5.196
29289W        W88792  15.695  37.435  14.782
29290W        W88793  11.748  26.585   2.280
29291W        W88794  20.174  36.078  10.899
29292W        W88795  41.796   8.670   2.388
29293W        W88796  30.515  12.853  11.603
29294W        W88797  37.527  10.156  14.911
29295W        W88798   0.755  34.866   3.718
29296W        W88799  39.500  27.493  11.512
29297W        W88800   2.256  17.627  12.569
29298W        W88801  21.066  37.438  14.509
29299W        W88802  12.208  38.948  12.468
29300W        W88803  21.039  44.376   2.395
29301W        W88804  22.102  23.141  11.531
29302W        W88805  10.273  17.280   0.808
29303W        W88806  32.407  28.177   3.738
29304W        W88807  40.548  19.605  13.798
29305W        W88808  24.522  11.650  12.028
29306W        W88809  22.177  27.172   1.279
29307W        W88810   9.383  44.932  11.981
29308W        W88811   2.463  22.564  13.333
29309W        W88812  28.946  22.108   4.236
29310W        W88813   0.744  10.361   2.727
29311W        W88814  37.389  29.594  12.930
29312W        W88815  24.487  39.839   3.662
29313W        W88816  31.552  21.613  11.372
29314W        W88817  30.479   5.295   3.201
29315W        W88818  41.339  36.368  14.366
29316W        W88819   7.187   9.856   1.259
29317W        W88820  32.431   1.409   1.328
29318W        W88821   1.343  40.536  11.613
29319W        W88822  37.387  12.318  13.889
29320W        W88823  24.631  35.540   0.964
29321W        W88824   2.376  19.068  12.874
29322W        W88825  22.563   0.351  12.364
29323W        W88826   4.856  24.576   2.740
29324W        W88827  36.492  26.039   3.741
29325W        W88828  15.268  14.274   3.854
29326W        W88829   6.401  39.388   0.756
29327W        W88830  37.524   7.724  14.762
29328W        W88831  29.495  33.429  12.900
29329W        W88832  44.440  21.160  11.504
29330W        W88833  18.176  28.131  14.490
29331W        W88834  37.533  16.758   4.725
29332W        W88835   7.309  15.763  14.333
29333W        W88836  16.269  11.306  10.627
29334W        W88837  34.071  15.089  11.513
29335W        W88838   5.361  38.042   1.398
29336W        W88839  36.064  25.700  12.990
29337W        W88840  12.808  16.805   0.741
29338W        W88841  34.577  44.369  12.987
29339W        W88842   4.699  24.701  12.978
29340W        W88843  19.218  37.474  10.567
29341W        W88844   7.893  43.811  13.952
29342W        W88845  14.335  20.130   2.742
29343W        W88846  21.198  23.167  11.122
29344W        W88847   0.361  44.877   4.269
29345W        W88848  30.038  29.476  11.569
29346W        W88849  10.189  29.429  11.103
29347W        W88850  30.553  16.801  14.484
29348W        W88851  32.945   2.828   4.247
29349W        W88852  38.476  40.806  14.996
29350W        W88853  38.392  21.661   3.240
29351W        W88854  23.087  13.734   3.356
29352W        W88855   4.783   3.725   2.209
29353W        W88856   7.906   1.870   1.237
29354W        W88857  13.310  44.811  11.928
29355W        W88858  33.478  25.163  12.951
29356W        W88859  32.404  16.123   2.902
29357W        W88860  41.041  34.557   1.884
29358W        W88861  39.433  43.404  12.898
29359W        W88862  39.841   8.755   3.852
29360W        W88863  26.549  22.525   2.270
29361W        W88864  20.259   2.878   5.770
29362W        W88865  22.655  28.044  10.101
29363W        W88866   0.854  30.447  12.048
29364W        W88867  19.668  29.644   3.748
29365W        W88868   2.944  34.431   1.902
29366W        W88869  21.135  23.512   3.674
29367W        W88870  14.706  32.988   2.828
29368W        W88871  17.652  10.373   3.335
29369W        W88872  34.417  11.154  10.950
29370W        W88873  31.981  19.220   1.718
29371W        W88874  40.830  34.067  11.585
29372W        W88875   6.719   1.410   4.153
29373W        W88876  15.279  25.013   4.126
29374W        W88877  44.772  13.309   1.380
29375W        W88878  10.773  17.071  14.773
29376W        W88879  27.679  20.763  11.999
29377W        W88880  32.932   4.810  10.481
29378W        W88881  15.744  37.929   3.759
29379W        W88882  43.847  29.616   0.418
29380W        W88883  34.091  12.780   3.700
29381W        W88884   9.235  29.433  12.849
29382W        W88885  16.094  22.242   4.816
29383W        W88886   3.902   7.217   2.355
29384W        W88887   9.294  21.134   3.273
29385W        W88888  44.794  27.526   1.815
29386W        W88889   2.328  10.361   2.843
29387W        W88890  31.110   6.828   4.266
29388W        W88891   5.772  27.602  13.368
29389W        W88892   0.817  37.047   1.705
29390W        W88893   1.428   1.352  13.315
29391W        W88894  27.942  18.141   4.836
29392W        W88895  12.125  25.175  11.075
29393W        W88896  30.147  34.388   4.653
29394W        W88897  11.708  29.518  10.509
29395W        W88898   4.250  15.730  11.583
29396W        W88899  15.608   7.230  14.310
29397W        W88900  22.221  42.502   4.297
29398W        W88901  30.634  29.100  10.101
29399W        W88902  24.547  16.091  11.383
29400W        W88903  11.265  36.973  11.062
29401W        W88904   0.800   0.298   0.756
29402W        W88905  28.445  32.910   1.739
29403W        W88906  17.146  34.927   4.690
29404W        W88907  25.673  36.442   3.354
29405W        W88908  28.116  19.134  13.411
29406W        W88909  23.077   8.897   2.401
29407W        W88910  42.874  38.040   1.342
29408W        W88911  18.678  24.153   3.761
29409W        W88912   4.322   7.904  13.034
29410W        W88913   9.256   0.441  10.456
29411W        W88914  20.057  14.151  13.047
29412W        W88915   4.306  11.347  10.535
29413W        W88916  40.387   9.678  13.491
29414W        W88917  11.351  20.659  11.529
29415W        W88918  11.273  24.725   3.636
29416W        W88919  33.383  26.163   2.388
29417W        W88920   1.817  17.243  12.031
29418W        W88921  24.670  19.574   0.462
29419W        W88922  15.633  38.377   2.880
29420W        W88923  41.506  37.380  13.311
29421W        W88924  32.503   0.757  13.356
29422W        W88925  29.974  44.991  10.519
29423W        W88926  18.758  31.455  13.501
29424W        W88927  35.931  13.708   0.884
29425W        W88928   1.335  12.630   4.690
29426W        W88929  43.337  19.056   3.187
29427W        W88930  27.584  21.684   3.235
29428W        W88931  15.817   6.213  14.841
29429W        W88932  14.293  17.201   5.250
29430W        W88933  11.734  25.054   2.887
29431W        W88934  28.031   5.917   4.752
29432W        W88935   4.827  10.263  13.869
29433W        W88936  39.504  10.637   3.340
29434W        W88937   2.465  29.022  14.307
29435W        W88938  41.987   7.173   2.714
29436W        W88939  41.999  42.302  10.894
29437W        W88940  28.479  24.596   3.800
29438W        W88941  33.498  35.974  14.490
29439W        W88942  25.021  32.542  10.945
29440W        W88943   6.387  44.492   4.680
29441W        W88944  30.027  12.123  12.926
29442W        W88945  38.905  38.984   1.735
29443W        W88946  17.603  42.875   3.363
29444W        W88947  22.117  25.046  13.493
29445W        W88948  31.033  38.963   3.305
29446W        W88949  34.552  31.113  10.526
29447W        W88950  26.200  19.690   0.276
29448W        W88951  23.621  39.971   2.306
29449W        W88952  24.643   1.335   0.461
29450W        W88953  40.048   2.256   4.704
29451W        W88954   7.903   0.479  13.925
29452W        W88955  43.275  30.007   2.757
29453W        W88956  21.691  33.456  11.951
29454W        W88957  17.281  19.694  12.833
29455W        W88958  32.474  33.623   0.942
29456W        W88959  27.648  31.922   3.638
29457W        W88960  11.673  33.439  13.834
29458W        W88961  16.184  43.952  11.865
29459W        W88962  20.174  39.493  11.897
29460W        W88963  39.994  20.535  11.983
29461W        W88964  33.584  27.048   4.601
29462W        W88965  43.364  11.243   3.305
29463W        W88966  27.158  30.539   0.335
29464W        W88967  17.641   7.842   0.797
29465W        W88968  43.913  29.482   3.824
29466W        W88969  29.587  34.600  11.017
29467W        W88970   3.382  12.787   2.757
29468W        W88971  20.716  12.726  11.556
29469W        W88972  24.594  21.053  13.016
29470W        W88973  33.521  44.809  10.974
29471W        W88974  27.083   1.961  10.000
29472W        W88975  15.778  29.588   4.756
29473W        W88976  18.286   4.756  13.018
29474W        W88977  38.336  17.131  13.836
29475W        W88978  44.970   6.270  14.954
29476W        W88979   1.416  36.571   1.313
29477W        W88980  35.555  10.340  13.463
29478W        W88981  36.871   2.868  13.905
29479W        W88982  11.745   0.318  14.374
29480W        W88983  26.075  17.201  14.904
29481W        W88984  28.060  17.135  14.807
29482W        W88985  21.743  26.598  10.608
29483W        W88986   5.380  37.880  13.344
29484W        W88987  34.523   4.754  10.470
29485W        W88988   5.225  16.758   1.742
29486W        W88989  16.672  31.111  14.397
29487W        W88990  20.069   3.786  10.974
29488W        W88991  28.119  22.703   0.856
29489W        W88992  15.201  14.150  12.066
29490W        W88993  44.452  42.993   0.301
29491W        W88994  33.053  28.932   2.357
29492W        W88995  19.115  16.710  10.950
29493W        W88996   2.944  25.051   3.311
29494W        W88997  12.827  25.058  12.981
29495W        W88998   9.775  18.717  11.482
29496W        W88999  32.438   0.336   4.685
29497W        W89000   6.920  44.838   2.895
29498W        W89001  37.490  11.753  11.536
29499W        W89002  29.424  21.709   2.274
29500W        W89003  15.099  43.925   4.737
29501W        W89004  11.808  14.102   9.472
29502W        W89005  23.575   3.767   0.308
29503W        W89006  25.071   5.316  10.614
29504W        W89007   4.727  10.368  13.011
29505W        W89008  16.760   1.394  14.899
29506W        W89009   4.857  12.856  11.066
29507W        W89010  27.684   3.848   2.831
29508W        W89011  23.543   5.217   4.299
29509W        W89012  34.005   8.308  14.922
29510W        W89013  33.967  33.441  10.155
29511W        W89014  38.461  11.212  12.833
29512W        W89015  13.293  19.705  14.501
29513W        W89016  38.494  37.086   0.834
29514W        W89017  30.093   3.282  14.969
29515W        W89018  28.464  16.100   3.207
29516W        W89019  29.643  21.603  10.947
29517W        W89020   2.819  30.071   2.188
29518W        W89021  30.141  30.973   4.252
29519W        W89022  35.062  22.120   2.314
29520W        W89023  14.279   7.327  11.427
29521W        W89024  31.134  18.572  11.558
29522W        W89025   9.794  43.802  10.901
29523W        W89026   8.224  41.527  10.569
29524W        W89027  30.918  33.993  14.413
29525W        W89028  42.408  13.189   2.360
29526W        W89029  10.753  42.895  14.807
29527W        W89030   4.327  39.387   2.739
29528W        W89031  36.922   0.385   4.613
29529W        W89032  23.011  20.620  12.948
29530W        W89033  18.637  33.001   3.714
29531W        W89034   5.698  21.563  13.793
29532W        W89035  10.146  20.070   1.840
29533W        W89036  44.271  30.080  10.522
29534W        W89037   2.323  10.321   5.082
29535W        W89038  29.430  16.170  11.948
29536W        W89039  11.663  17.784  14.425
29537W        W89040  37.442  15.633  12.552
29538W        W89041   8.843   2.327   0.871
29539W        W89042  44.442   8.164  13.367
29540W        W89043  19.607  21.220  11.395
29541W        W89044   7.671  29.052  13.387
29542W        W89045  20.112  39.964  11.094
29543W        W89046  12.255  31.078   0.371
29544W        W89047  34.031  10.256  12.454
29545W        W89048  36.444   0.269   3.670
29546W        W89049  15.807  30.913  10.626
29547W        W89050  31.090   1.912  13.364
29548W        W89051   4.715  19.071  12.886
29549W        W89052  11.234  33.614   2.294
29550W        W89053  31.639  27.003   0.385
29551W        W89054   0.863  28.554  13.030
29552W        W89055  23.565  27.687   3.381
29553W        W89056  39.528   7.214   5.192
29554W        W89057  12.791   4.942   0.382
29555W        W89058  11.789  12.273   3.792
29556W        W89059  41.337  39.823  14.026
29557W        W89060  31.136  18.557   0.961
29558W        W89061  16.572   4.766  14.469
29559W        W89062   8.160  29.659   0.242
29560W        W89063   3.237  18.662   2.693
29561W        W89064   7.881  43.790   3.738
29562W        W89065  27.542   6.385  14.443
29563W        W89066   8.354  17.590   0.846
29564W        W89067  16.757   8.205  12.912
29565W        W89068  15.139  40.941  13.486
29566W        W89069  29.967  20.538  14.488
29567W        W89070  15.188   9.190  11.538
29568W        W89071   3.878  16.766  11.094
29569W        W89072  32.542  19.123   3.341
29570W        W89073  42.910  39.866   0.243
29571W        W89074  25.016  35.070   1.900
29572W        W89075  24.587  12.722   0.370
29573W        W89076   3.846  22.512  11.496
29574W        W89077   9.663  41.440   1.332
29575W        W89078  18.254  16.225   3.297
29576W        W89079   1.368  16.085  14.896
29577W        W89080  18.267  39.924   4.613
29578W        W89081  27.450  28.145   3.811
29579W        W89082  29.170  37.446  11.480
29580W        W89083   6.784  10.266   4.298
29581W        W89084  24.217   8.758  14.016
29582W        W89085   6.342  25.058   4.118
29583W        W89086  10.712  39.954   3.179
29584W        W89087  16.700  29.981   2.901
29585W        W89088  35.604  11.283  11.535
29586W        W89089  41.789   8.831  10.556
29587W        W89090   9.192   3.442   1.759
29588W        W89091  34.893  22.730   1.450
29589W        W89092  38.862  41.500  13.431
29590W        W89093  15.113  32.436   4.335
29591W        W89094   7.677  15.700  14.808
29592W        W89095  38.336  11.222  12.095
29593W        W89096  13.280  36.918   1.933
29594W        W89097  32.913  10.365  14.874
29595W        W89098  27.454  40.946  10.410
29596W        W89099   4.307  10.218   0.380
29597W        W89100   0.974  24.084   9.927
29598W        W89101  11.723  25.170  10.944
29599W        W89102  19.742  43.012   3.323
29600W        W89103  23.522  11.687  13.821
29601W        W89104   8.706  38.038   4.216
29602W        W89105  17.712   1.425   3.664
29603W        W89106  36.556  36.909  14.019
29604W        W89107  20.116  36.093  12.493
29605W        W89108   6.857  24.090  14.331
29606W        W89109   1.892  13.779   4.285
29607W        W89110  16.185   0.313  12.950
29608W        W89111  34.381  26.188  12.914
29609W        W89112  31.992  37.903  11.564
29610W        W89113  34.882  10.370   5.307
29611W        W89114   9.694  21.233   0.886
29612W        W89115  25.678  12.788  11.860
29613W        W89116  40.506  33.122   1.869
29614W        W89117   3.889  40.829   3.765
29615W        W89118  27.550  26.088   4.161
29616W        W89119  44.809   5.866  10.468
29617W        W89120  19.547  23.721  10.990
29618W        W89121  41.887  19.128   0.360
29619W        W89122  21.054  43.368  13.811
29620W        W89123  31.922   5.232  13.055
29621W        W89124  13.837   2.250  10.492
29622W        W89125  29.939  10.859   3.300
29623W        W89126   5.802   9.736  14.009
29624W        W89127  18.235  32.623   2.376
29625W        W89128  45.000   0.862   4.248
29626W        W89129  36.584   9.301  10.524
29627W        W89130  12.288  42.975   4.235
29628W        W89131  10.354  15.306  13.914
29629W        W89132  24.082  32.426  12.376
29630W        W89133  15.745  17.593   2.215
29631W        W89134  14.309   0.774   3.170
29632W        W89135   4.259   6.697   1.430
29633W        W89136  14.333  37.009  14.511
29634W        W89137  29.476  31.583   1.425
29635W        W89138  39.392  39.014  14.815
29636W        W89139  24.994   9.250  12.573
29637W        W89140   1.240  37.904   4.613
29638W        W89141   6.893  17.744  10.988
29639W        W89142  31.051  25.609   1.267
29640W        W89143  12.165  26.137   3.343
29641W        W89144  43.459  41.905   2.389
29642W        W89145  37.545  38.461  12.938
29643W        W89146  17.664  37.044   0.405
29644W        W89147  18.606  14.329  14.930
29645W        W89148  18.696  10.850  14.003
29646W        W89149  25.211  31.906   1.344
29647W        W89150  21.723  17.107   2.836
29648W        W89151  18.737  32.032   3.744
29649W        W89152  30.645   0.768   4.152
29650W        W89153  39.823  42.448   2.843
29651W        W89154  38.846  33.497   2.892
29652W        W89155  44.807   9.687  11.547
29653W        W89156  33.429   8.745  12.341
29654W        W89157  27.596   4.769  10.641
29655W        W89158  30.469  23.652  10.566
29656W        W89159  37.402  32.125  13.537
29657W        W89160  35.560  32.602   1.873
29658W        W89161  10.713  35.929  14.506
29659W        W89162  18.217  35.958  12.893
29660W        W89163  32.109  24.206   3.254
29661W        W89164  12.627  10.145   1.797
29662W        W89165  30.413  41.853   2.839
29663W        W89166   3.817   4.395   1.449
29664W        W89167  29.047   4.918   1.417
29665W        W89168   9.688   2.456  13.903
29666W        W89169   2.423  25.046   2.320
29667W        W89170  27.948  26.589   1.884
29668W        W89171  25.102  34.478   1.793
29669W        W89172   4.718   1.256   0.941
29670W        W89173  35.882  11.170  13.023
29671W        W89174  22.576  37.580   4.734
29672W        W89175  29.475  28.931   1.766
29673W        W89176  23.178  44.777   1.301
29674W        W89177  35.558  14.095  12.059
29675W        W89178  37.498  10.171   4.638
29676W        W89179   3.254  38.346   9.943
29677W        W89180  30.153  25.082   3.629
29678W        W89181  13.660   8.351  13.842
29679W        W89182   8.703  20.068  11.409
29680W        W89183  36.396   4.878  11.882
29681W        W89184  25.518  18.789  11.052
29682W        W89185   2.381  17.103  12.526
29683W        W89186  25.087  33.100   0.819
29684W        W89187  20.094  14.265   0.915
29685W        W89188  14.300   3.380  13.967
29686W        W89189   9.666  25.136   3.722
29687W        W89190  12.673  42.401  14.014
29688W        W89191  37.838  23.013  12.063
29689W        W89192  34.412  12.293   4.338
29690W        W89193   6.222  14.648  11.024
29691W        W89194   3.826   6.183  12.465
29692W        W89195  43.903  42.010  14.452
29693W        W89196  26.678  39.887  12.840
29694W        W89197  17.114  27.502   3.351
29695W        W89198  39.018  30.091  10.563
29696W        W89199  22.051  27.988  12.356
29697W        W89200  15.784  43.307   3.240
29698W        W89201   7.180   4.351  10.488
29699W        W89202  36.914  19.268  11.071
29700W        W89203  29.663  31.479   4.137
29701W        W89204  34.018  26.647   4.755
29702W        W89205  13.318  21.238   5.282
29703W        W89206  20.090  31.112   2.381
29704W        W89207   8.865  31.932   0.877
29705W        W89208  10.233  29.003   4.832
29706W        W89209  17.304   2.306  11.550
29707W        W89210  39.901   4.443   2.367
29708W        W89211  40.514  15.810  13.335
29709W        W89212  32.124  39.342   9.934
29710W        W89213   8.173  24.529  12.509
29711W        W89214   0.394  38.031   1.730
29712W        W89215  35.434   2.730   0.785
29713W        W89216   1.933  39.377   4.152
29714W        W89217  17.199  27.545   0.906
29715W        W89218  24.640  41.821   0.472
29716W        W89219   0.963  20.696  11.538
29717W        W89220  26.956  20.744   4.283
29718W        W89221   6.317  34.960  13.830
29719W        W89222  31.405   6.722  11.439
29720W        W89223  24.571  37.896   4.161
29721W        W89224  17.562  31.915  14.886
29722W        W89225  16.644  22.537   3.679
29723W        W89226  20.649  36.912   3.672
29724W        W89227  36.953  37.837  14.305
29725W        W89228  32.945  31.030   4.146
29726W        W89229  10.224  13.261  12.352
29727W        W89230  24.659  27.168  12.037
29728W        W89231   7.338  30.583  13.946
29729W        W89232  13.839  34.001  12.340
29730W        W89233  39.027  37.948   4.212
29731W        W89234  39.044   2.752  10.010
29732W        W89235  18.198   8.782   0.928
29733W        W89236  39.010  29.643   3.370
29734W        W89237  10.765  10.206  12.913
29735W        W89238  19.052  26.535  13.538
29736W        W89239  42.433  11.706  14.854
29737W        W89240  43.827  17.126   4.117
29738W        W89241   1.439  31.005   4.302
29739W        W89242  34.499  36.937  14.336
29740W        W89243  12.765  13.161   3.188
29741W        W89244  44.766  38.378  10.921
29742W        W89245   5.383   5.418   3.162
29743W        W89246  27.596  11.733  14.428
29744W        W89247   2.748   1.402   2.348
29745W        W89248  22.018  38.907   2.214
29746W        W89249   4.936  20.628   3.183
29747W        W89250  15.769  24.594  11.533
29748W        W89251   3.906  42.525   2.704
29749W        W89252   1.322  13.816   2.276
29750W        W89253  29.605  16.133  12.575
29751W        W89254  17.775  22.136   3.750
29752W        W89255   3.456  20.525  11.125
29753W        W89256   9.878  40.421  12.538
29754W        W89257  36.505   9.159   3.274
29755W        W89258   4.916   4.272  12.084
29756W        W89259  14.688  29.933  14.768
29757W        W89260  38.349   0.868   4.789
29758W        W89261   5.870  40.007  12.428
29759W        W89262   8.733  14.214   5.154
29760W        W89263  22.599  13.294   0.426
29761W        W89264  14.300  41.498  11.017
29762W        W89265   4.362  19.578  13.507
29763W        W89266  10.142   6.829   1.327
29764W        W89267  43.473  16.571  13.929
29765W        W89268  30.510  25.080  10.945
29766W        W89269  10.660  43.951  12.447
29767W        W89270  22.159  35.566   3.684
29768W        W89271   0.251   1.749  11.100
29769W        W89272   1.408   3.881   3.672
29770W        W89273  41.302   3.340  12.467
29771W        W89274  43.014  15.633   1.230
29772W        W89275  12.740   5.916   4.719
29773W        W89276  31.106   4.918  11.536
29774W        W89277  20.171  36.942   4.257
29775W        W89278  10.799  34.110   1.722
29776W        W89279  26.037  39.392   3.270
29777W        W89280  43.277  44.397   4.773
29778W        W89281   2.256  35.562   4.306
29779W        W89282  12.124  28.115  11.593
29780W        W89283  11.797  24.154   1.286
29781W        W89284  40.998   7.322   4.733
29782W        W89285   5.317   5.252   1.934
29783W        W89286  20.230  20.229  10.482
29784W        W89287  15.249  41.879   1.358
29785W        W89288  30.113  35.998   1.912
29786W        W89289   9.369   4.287  14.839
29787W        W89290  43.413  14.288   2.857
29788W        W89291  10.838   2.276   2.289
29789W        W89292  10.845   2.387  10.519
29790W        W89293  42.454  13.326   2.675
29791W        W89294   4.381  14.821  10.092
29792W        W89295   8.828  19.265   4.757
29793W        W89296  19.686   5.378   4.310
29794W        W89297  21.624   0.972  13.846
29795W        W89298   0.426  17.230  14.952
29796W        W89299   5.933  21.583   0.857
29797W        W89300  26.647  15.146   2.377
29798W        W89301  15.677  33.909  11.475
29799W        W89302  44.875   3.790   0.371
29800W        W89303  22.180  24.561  13.493
29801W        W89304  20.091   0.791  14.767
29802W        W89305  37.904  14.255  14.402
29803W        W89306  16.316  40.975  13.387
29804W        W89307  20.104  40.854  11.029
29805W        W89308  40.945  20.664   1.734
29806W        W89309  39.402  34.477  14.514
29807W        W89310  38.948  14.675  13.820
29808W        W89311   5.227   6.278  12.461
29809W        W89312  22.009  41.821   1.739
29810W        W89313  17.266  44.441   4.336
29811W        W89314   7.219  19.664   1.260
29812W        W89315  14.275   2.736  10.915
29813W        W89316  24.634  25.614  11.117
29814W        W89317   6.268  39.944  13.430
29815W        W89318   5.326  24.691  12.052
29816W        W89319  37.908  24.206  14.786
29817W        W89320  43.804  20.657   3.304
29818W        W89321  18.640  38.946   1.312
29819W        W89322  40.820  10.303  11.448
29820W        W89323  43.979  15.589  13.366
29821W        W89324   1.800  15.753  11.015
29822W        W89325  33.437  16.318   1.867
29823W        W89326  32.419  23.091   3.758
29824W        W89327  18.277  13.125   1.873
29825W        W89328  40.465  13.754   2.226
29826W        W89329  44.770  30.418  13.363
29827W        W89330   5.886  34.021  10.955
29828W        W89331  19.691  43.983  11.584
29829W        W89332  41.384   5.925  11.445
29830W        W89333  33.418   7.323  14.961
29831W        W89334  30.433   5.212  12.091
29832W        W89335  40.465  29.035   1.300
29833W        W89336  17.301  33.939   1.717
29834W        W89337   9.712  37.337  13.336
29835W        W89338  25.199  30.483   2.805
29836W        W89339  17.634  36.904  12.539
29837W        W89340  41.411   2.390   3.192
29838W        W89341  18.108  31.589   1.890
29839W        W89342  35.953  34.937  13.917
29840W        W89343  22.032  27.585   1.767
29841W        W89344  28.096   7.288   9.941
29842W        W89345   0.866  28.455  10.480
29843W        W89346  14.287  36.964  11.880
29844W        W89347  19.715  27.122  12.923
29845W        W89348  43.393  42.917  14.789
29846W        W89349  10.213  10.736   3.243
29847W        W89350  20.044  29.134  11.898
29848W        W89351   0.814  18.559   3.862
29849W        W89352   8.336   1.312  11.567
29850W        W89353  30.453   7.283  10.509
29851W        W89354  36.937   5.787   4.837
29852W        W89355  11.192  43.377   3.269
29853W        W89356  39.425  15.685   2.256
29854W        W89357  27.126  34.946   4.343
29855W        W89358  14.826  40.499  14.396
29856W        W89359  31.021  43.817   0.834
29857W        W89360  16.739  31.576  13.963
29858W        W89361   2.385  22.997  14.020
29859W        W89362   7.879   4.728  13.334
29860W        W89363  31.453   5.418  14.337
29861W        W89364  44.775  42.489  14.854
29862W        W89365   3.229  43.369   3.203
29863W        W89366   9.657  31.919   0.950
29864W        W89367  21.666  41.012   3.739
29865W        W89368  14.131   2.890   0.732
29866W        W89369  37.581  31.111   5.272
29867W        W89370  38.519  44.455  11.397
29868W        W89371  16.715  35.004  11.445
29869W        W89372  17.150  12.641  10.544
29870W        W89373   6.315  21.161   2.237
29871W        W89374  36.936  12.141   2.375
29872W        W89375  23.217  14.772  13.494
29873W        W89376  36.860  21.116  14.938
29874W        W89377  33.914  12.823   9.462
29875W        W89378  11.256  11.848   1.841
29876W        W89379  28.616   0.985  14.899
29877W        W89380  21.059  34.018   2.764
29878W        W89381  19.159  12.650   4.270
29879W        W89382  30.632  33.523   0.353
29880W        W89383  13.658  12.734   1.281
29881W        W89384  29.473  38.947  13.838
29882W        W89385  43.981   8.876   2.314
29883W        W89386  16.263   6.788  11.556
29884W        W89387   3.373  31.925  14.360
29885W        W89388   0.318  32.516  10.631
29886W        W89389  39.994  28.480   0.881
29887W        W89390   7.841  37.383  11.127
29888W        W89391  21.659  13.289  10.495
29889W        W89392  20.724  32.985   4.807
29890W        W89393  30.971  38.841  10.985
29891W        W89394   2.918  38.366  13.499
29892W        W89395  13.158   1.246  11.010
29893W        W89396  36.955   6.915  14.355
29894W        W89397  20.113  30.968   4.230
29895W        W89398  26.502  23.077  14.937
29896W        W89399   2.821   0.984   3.324
29897W        W89400  13.695  39.061   2.873
29898W        W89401  33.384  22.064   1.341
29899W        W89402  30.946  44.455  11.427
29900W        W89403  31.984   6.326   0.887
29901W        W89404  22.524   6.807   0.475
29902W        W89405  36.523   9.750  13.012
29903W        W89406   0.472   3.341   1.398
29904W        W89407  11.167  16.155   4.165
29905W        W89408   9.772  18.617   1.697
29906W        W89409   1.847  13.814   1.305
29907W        W89410  20.612   1.880  12.062
29908W        W89411  24.212  32.437  11.992
29909W        W89412  26.995  41.404   0.935
29910W        W89413   6.732  33.390  12.848
29911W        W89414   9.731  25.036   3.224
29912W        W89415  44.439  39.960  12.364
29913W        W89416  29.590  27.684   2.246
29914W        W89417  41.337  37.362   3.198
29915W        W89418  15.679  44.815  12.489
29916W        W89419  34.003  12.619   5.653
29917W        W89420  40.534  18.720   4.205
29918W        W89421   8.163  22.019   4.214
29919W        W89422  18.134  28.622   1.782
29920W        W89423  31.437  40.900  13.981
29921W        W89424  31.089  43.778  14.032
29922W        W89425  42.303  21.515   2.355
29923W        W89426  43.362  22.997  10.643
29924W        W89427  13.675  36.520  10.541
29925W        W89428   5.395   2.822  12.995
29926W        W89429   3.417  19.100  10.459
29927W        W89430  35.098  11.835  12.062
29928W        W89431   7.277  31.597   1.733
29929W        W89432  42.496   4.225   2.731
29930W        W89433   1.954   0.392  14.934
29931W        W89434  37.558  33.876   3.169
29932W        W89435  33.433  18.189   1.385
29933W        W89436  38.442  20.174  14.792
29934W        W89437  38.919  35.443  11.417
29935W        W89438  32.013  20.667  12.418
29936W        W89439  24.141  14.114  10.129
29937W        W89440  40.340  25.037  13.460
29938W        W89441  38.498  26.158   0.841
29939W        W89442   1.740   8.823  11.563
29940W        W89443  36.877  22.188  11.940
29941W        W89444  15.629  18.583  13.889
29942W        W89445  11.303  18.718  13.334
29943W        W89446  15.188  44.416  13.946
29944W        W89447  35.038   3.840  11.023
29945W        W89448  17.291  15.591   2.419
29946W        W89449  25.181  30.029  14.836
29947W        W89450   8.377  39.434   1.857
29948W        W89451  11.847   5.710  13.457
29949W        W89452  13.781  39.357   4.156
29950W        W89453  15.806   3.459  12.096
29951W        W89454  35.070   1.815   4.714
29952W        W89455   7.700  11.210  13.437
29953W        W89456  33.431  20.569  12.443
29954W        W89457  38.965  41.917   0.324
29955W        W89458  15.603  41.318  12.380
29956W        W89459  19.271   3.898   0.321
29957W        W89460  40.388  12.178  13.900
29958W        W89461  38.910   4.366   0.774
29959W        W89462  13.791  33.618  11.423
29960W        W89463  43.354  32.635   2.832
29961W        W89464  42.956  11.142  13.525
29962W        W89465  10.785  20.205   2.309
29963W        W89466  40.902  33.534  14.312
29964W        W89467   6.839  25.648   4.752
29965W        W89468  18.686  17.672  11.928
29966W        W89469  29.438  26.057   3.338
29967W        W89470  13.763  24.183   1.738
29968W        W89471  41.838  42.424  10.608
29969W        W89472  11.212  19.132  11.450
29970W        W89473  20.181   3.248   0.373
29971W        W89474  14.816  30.600  11.449
29972W        W89475  43.847  18.226   4.613
29973W        W89476   0.756  28.957  13.498
29974W        W89477   3.416  29.997  13.313
29975W        W89478  23.130   4.799   2.396
29976W        W89479   4.362  11.329  11.897
29977W        W89480  22.531  44.406  14.495
29978W        W89481  17.075  38.365  11.555
29979W        W89482  18.657  16.711   1.361
29980W        W89483   8.877  39.560  14.974
29981W        W89484  12.228   9.295  11.004
29982W        W89485  32.467   3.415   2.843
29983W        W89486   9.800   1.760   0.400
29984W        W89487  12.297  24.227   2.836
29985W        W89488   2.961  15.249   4.638
29986W        W89489   9.664  36.040   0.809
29987W        W89490  34.004  22.233   3.843
29988W        W89491  22.233  36.578   2.387
29989W        W89492  15.785  16.155  11.497
29990W        W89493   8.295  27.998  12.556
29991W        W89494   6.844  35.048  13.424
29992W        W89495  10.178  43.500  11.121
29993W        W89496  11.785   3.276  13.341
29994W        W89497  20.192  41.479   1.701
29995W        W89498  38.503  38.932   4.190
29996W        W89499  29.070  36.529  12.914
29997W        W89500  14.174  29.583   1.815
29998W        W89501  33.615  24.007  13.545
29999W        W89502  43.451  17.204   4.235
30000W        W89503  43.882  38.559  12.492
30001W        W89504  24.176  11.831   2.784
30002W        W89505   8.756  41.300   2.342
30003W        W89506   1.858  14.685   1.215
30004W        W89507  38.556  28.084  13.534
30005W        W89508   2.863  23.597  13.853
30006W        W89509  34.462  19.776  13.994
30007W        W89510  27.668   6.765  10.603
30008W        W89511   4.221   9.265   0.728
30009W        W89512  25.974  28.948  12.947
30010W        W89513  32.431   6.348  12.858
30011W        W89514  34.469  18.062   3.656
30012W        W89515  37.952  10.858  13.458
30013W        W89516   7.310  43.779  14.998
30014W        W89517   1.286   3.290   3.206
30015W        W89518  35.533   3.458  13.415
30016W        W89519   8.303   6.791  13.854
30017W        W89520   0.943  32.500  13.812
30018W        W89521  12.180  31.982  12.932
30019W        W89522  32.486  19.048   2.785
30020W        W89523  13.186  27.529   3.193
30021W        W89524  34.943   1.947  10.625
30022W        W89525  37.466  12.800   0.924
30023W        W89526  25.207  12.168  10.426
30024W        W89527  18.201  26.481   1.730
30025W        W89528  43.446  15.631   2.185
30026W        W89529   1.945  19.047  11.537
30027W        W89530  14.121  33.467   9.952
30028W        W89531  16.318  17.622  12.399
30029W        W89532  41.899   2.813   4.667
30030W        W89533  44.315  22.726  14.500
30031W        W89534   4.272   8.174  14.847
30032W        W89535  36.021   9.882  11.535
30033W        W89536  41.973   0.764   5.206
30034W        W89537  39.362  32.539  11.955
30035W        W89538  32.125  21.184  14.935
30036W        W89539  37.007  29.962   1.249
30037W        W89540  14.301   0.797   3.720
30038W        W89541  14.777   7.352  14.312
30039W        W89542  15.613  18.275   3.178
30040W        W89543  27.514  24.210  14.413
30041W        W89544  39.484  20.186   3.152
30042W        W89545  10.364  20.089   2.282
30043W        W89546  40.998  41.334  13.803
30044W        W89547  28.643  31.036  10.948
30045W        W89548  41.987  28.645  13.047
30046W        W89549  30.120  29.977  13.908
30047W        W89550  17.626  22.610   4.635
30048W        W89551  18.288  13.272   0.376
30049W        W89552   6.305   9.708  11.398
30050W        W89553  40.356  13.710  14.972
30051W        W89554  19.564   6.739  11.418
30052W        W89555  44.289  39.931  12.850
30053W        W89556  32.621  31.058  13.860
30054W        W89557   9.262  22.050  11.042
30055W        W89558  40.001   6.750  13.020
30056W        W89559  21.067   3.358   9.531
30057W        W89560   1.792  44.993  10.594
30058W        W89561  12.155  28.162   2.672
30059W        W89562  32.614  41.454  11.017
30060W        W89563  29.588   9.774   4.347
30061W        W89564  35.969  39.518   2.793
30062W        W89565  27.059   3.410   0.340
30063W        W89566   5.408  10.783   2.410
30064W        W89567  18.690  40.838   3.366
30065W        W89568  30.126  15.651  13.457
30066W        W89569  37.030  32.909  13.511
30067W        W89570   7.195   4.408   1.265
30068W        W89571  37.522   0.780   2.333
30069W        W89572  14.596  11.665   2.737
30070W        W89573   5.438  43.807  12.991
30071W        W89574   0.402  38.858  13.376
30072W        W89575  23.670  28.617  13.028
30073W        W89576  11.863  16.684   4.129
30074W        W89577  41.498  26.584   5.316
30075W        W89578   9.714  43.869   1.718
30076W        W89579  35.926  18.698   5.213
30077W        W89580  34.974  36.354  14.880
30078W        W89581  24.699  37.059  11.437
30079W        W89582  21.170   4.701  12.977
30080W        W89583  30.563  18.690   4.331
30081W        W89584  38.889  27.663   3.835
30082W        W89585   4.330   1.256  14.873
30083W        W89586  43.840  41.951   1.410
30084W        W89587  26.065  44.890  14.446
30085W        W89588  18.604  34.460  12.547
30086W        W89589  36.427  29.648   3.341
30087W        W89590  15.637  37.526   0.387
30088W        W89591  34.899  38.446   3.833
30089W        W89592  33.488  13.713   5.113
30090W        W89593   4.751   2.784  14.821
30091W        W89594  21.133  13.310   1.804
30092W        W89595   2.450  29.065   4.244
30093W        W89596  37.078   7.903  13.899
30094W        W89597   7.897   4.843   5.275
30095W        W89598  36.593   2.381   5.160
30096W        W89599  26.960  42.915   2.836
30097W        W89600  20.076  23.503  10.966
30098W        W89601   1.428  34.401   1.919
30099W        W89602  16.748  41.493   1.243
30100W        W89603  31.990  33.877  11.980
30101W        W89604   0.924   8.780   1.905
30102W        W89605  32.891  11.230   0.281
30103W        W89606   7.817  12.709   3.697
30104W        W89607  44.870  20.652   2.784
30105W        W89608   8.765  32.556   0.438
30106W        W89609  34.613  30.116   0.858
30107W        W89610  30.982  12.825   4.755
30108W        W89611  12.204   6.889   2.663
30109W        W89612  35.006  17.233  10.469
30110W        W89613   5.298  43.873   1.298
30111W        W89614  15.667  27.036  14.797
30112W        W89615  38.330  15.182   4.613
30113W        W89616  35.870  11.772  14.957
30114W        W89617  38.856  20.600  10.022
30115W        W89618  35.027  25.678   3.361
30116W        W89619   8.731  36.939  14.450
30117W        W89620  28.948  13.303   0.806
30118W        W89621  39.011  40.907   1.779
30119W        W89622  33.418   8.383   0.848
30120W        W89623  43.404  36.049   1.225
30121W        W89624  41.026  27.584   0.398
30122W        W89625   5.803  25.619  11.049
30123W        W89626  44.464  30.588   2.799
30124W        W89627  21.526  40.543   1.330
30125W        W89628  13.153  10.665  14.892
30126W        W89629  10.814  11.684   4.340
30127W        W89630  18.278  17.662   1.752
30128W        W89631  40.932  34.545  11.560
30129W        W89632  12.615  34.441   3.863
30130W        W89633  28.450  12.786   3.146
30131W        W89634   8.190  25.553  13.353
30132W        W89635   8.693  29.610   1.215
30133W        W89636  30.641  30.970  12.032
30134W        W89637  29.607  23.114  12.007
30135W        W89638  14.216  22.060   0.769
30136W        W89639  21.080  18.183   3.867
30137W        W89640  14.823  12.765  12.025
30138W        W89641  22.559  33.438   3.163
30139W        W89642  31.120   6.312   4.656
30140W        W89643  37.923   4.760   4.188
30141W        W89644  34.908  16.284  12.497
30142W        W89645  19.276  30.472   1.853
30143W        W89646   8.301  38.454   4.184
30144W        W89647  43.430   3.385   1.371
30145W        W89648  15.788  22.060   4.151
30146W        W89649  21.680  18.548  11.903
30147W        W89650  26.563  21.684  14.782
30148W        W89651  36.412   4.772   1.420
30149W        W89652  21.213  44.269   1.779
30150W        W89653  33.478  12.166  13.006
30151W        W89654  44.332  44.849  14.303
30152W        W89655  27.162  23.503   3.691
30153W        W89656   6.249   8.168   1.921
30154W        W89657  21.739  36.357  12.433
30155W        W89658  12.147   3.745   0.271
30156W        W89659  12.147  29.981  14.393
30157W        W89660  44.848  34.885   3.359
30158W        W89661   0.821  31.416  13.543
30159W        W89662  27.526   8.840   4.743
30160W        W89663  40.530  36.429   3.158
30161W        W89664  39.424  14.104  14.996
30162W        W89665  16.764  44.488   3.367
30163W        W89666   4.357  30.157   4.143
30164W        W89667  29.505  29.074  14.837
30165W        W89668  27.118  36.467   0.949
30166W        W89669   7.886  16.769   2.697
30167W        W89670  22.741  39.012   1.449
30168W        W89671  39.441  35.865   0.889
30169W        W89672  35.944  35.938  11.485
30170W        W89673  13.780  17.240  13.441
30171W        W89674  10.323  12.306   0.381
30172W        W89675  44.325  16.683  13.991
30173W        W89676  10.746  15.118   3.199
30174W        W89677  14.246   6.328   4.213
30175W        W89678  22.624  38.905  10.465
30176W        W89679   4.731  33.955  13.798
30177W        W89680  28.527   7.249   1.259
30178W        W89681  15.167   8.359   2.820
30179W        W89682  42.514  23.083   5.141
30180W        W89683  39.969  40.887  10.643
30181W        W89684  23.027  22.743  14.870
30182W        W89685  13.319  42.913  10.537
30183W        W89686  23.019  37.867  13.414
30184W        W89687   5.337  25.468   0.440
30185W        W89688  31.914   5.727  10.147
30186W        W89689  17.163   2.369   2.269
30187W        W89690  27.509  28.457  11.497
30188W        W89691  19.678  39.379  10.891
30189W        W89692  38.373  15.234  12.010
30190W        W89693  10.803  42.403  11.400
30191W        W89694  19.157  10.374   0.792
30192W        W89695  28.130  37.901  11.938
30193W        W89696  17.614  11.777   4.126
30194W        W89697  10.151  13.349  12.070
30195W        W89698  29.171  32.397   1.378
30196W        W89699  35.486   5.798  14.990
30197W        W89700  44.355   5.782   3.341
30198W        W89701  29.626   5.729   2.230
30199W        W89702   0.956  23.231  11.541
30200W        W89703   1.876  38.495   3.162
30201W        W89704  35.110  14.272  14.320
30202W        W89705  23.236  39.555  12.518
30203W        W89706  12.835  30.006  13.008
30204W        W89707  27.963  31.606  14.024
30205W        W89708  14.146  26.130   3.367
30206W        W89709  19.132  39.893   0.743
30207W        W89710  26.054  40.991   1.863
30208W        W89711   8.772   2.816  11.498
30209W        W89712  32.921  31.994  13.431
30210W        W89713  17.633  12.281  12.069
30211W        W89714  31.492   9.847   4.347
30212W        W89715  41.343  41.944   2.876
30213W        W89716  17.599  23.546   1.272
30214W        W89717  26.512  10.208  12.401
30215W        W89718   1.750  41.419   0.903
30216W        W89719  26.487  14.671   5.248
30217W        W89720  14.214  10.756   2.786
30218W        W89721  16.794  11.772  13.046
30219W        W89722  40.846   6.826   0.325
30220W        W89723   0.487  21.245   4.763
30221W        W89724  23.655  41.847   2.901
30222W        W89725  40.491  35.007  10.910
30223W        W89726  34.979  10.643   3.381
30224W        W89727  43.856  37.447  13.403
30225W        W89728  44.799  27.087  12.425
30226W        W89729  19.255  17.301  13.447
30227W        W89730  24.562  26.657   2.689
30228W        W89731  15.107  17.721  14.031
30229W        W89732  29.571  16.776   3.312
30230W        W89733  18.640  42.285   0.337
30231W        W89734  36.015   8.886   3.692
30232W        W89735  16.693  20.247   2.225
30233W        W89736   0.362  34.418  14.971
30234W        W89737  24.977  34.517   4.317
30235W        W89738  33.044  39.519   2.848
30236W        W89739   4.310  17.672  11.880
30237W        W89740  37.481  31.468   0.247
30238W        W89741   3.888  17.585  12.984
30239W        W89742  11.828   8.655   2.182
30240W        W89743   1.927  37.408   0.478
30241W        W89744  35.960  37.576  12.011
30242W        W89745  19.258   8.765   3.680
30243W        W89746  44.797  14.303  11.391
30244W        W89747  26.093  18.569  14.490
30245W        W89748  44.278   0.372  12.472
30246W        W89749  26.569  31.044   1.384
30247W        W89750  14.337  24.665   3.377
30248W        W89751   5.333  22.134   4.624
30249W        W89752  27.978  44.486   3.325
30250W        W89753  40.538  13.614  12.026
30251W        W89754  27.101   9.313   2.802
30252W        W89755  20.113  21.237  12.520
30253W        W89756  16.779  26.953  13.880
30254W        W89757  15.629  20.667   1.379
30255W        W89758  15.710  41.796   3.319
30256W        W89759  43.010   8.370  14.003
30257W        W89760  42.285   4.208   1.436
30258W        W89761  41.459  28.545   2.678
30259W        W89762  11.625  21.103  13.903
30260W        W89763  15.738  31.939   2.776
30261W        W89764   0.896  14.788  14.413
30262W        W89765   2.865  44.304   3.326
30263W        W89766  13.794  39.402  10.557
30264W        W89767  43.388  20.746   3.191
30265W        W89768   8.293  24.026   2.776
30266W        W89769  11.321  21.643  13.865
30267W        W89770   9.184  41.383   2.357
30268W        W89771   3.776  28.482  14.291
30269W        W89772  34.404  25.199   3.864
30270W        W89773   7.900  13.140   5.759
30271W        W89774  14.709  16.603   1.421
30272W        W89775  35.595  33.077   2.691
30273W        W89776  38.373  37.471   5.247
30274W        W89777  43.384   7.283  14.918
30275W        W89778  43.286  14.765   4.125
30276W        W89779  33.007  12.333   3.245
30277W        W89780  40.409  10.225  13.919
30278W        W89781  40.381  39.820  14.806
30279W        W89782  34.062  44.976   1.343
30280W        W89783  23.074   4.898  13.481
30281W        W89784  25.142   3.810   4.179
30282W        W89785  25.113  26.160   0.872
30283W        W89786  34.596  31.555   2.309
30284W        W89787  36.037   2.846   1.799
30285W        W89788   7.667   6.676  12.076
30286W        W89789  20.078  28.163   4.244
30287W        W89790  29.621  37.487  13.877
30288W        W89791  44.922  36.846   4.706
30289W        W89792  19.178  29.612   0.290
30290W        W89793  15.620  23.163  13.014
30291W        W89794  39.526  19.240   3.189
30292W        W89795  33.499  41.959  10.444
30293W        W89796  43.365  19.769   2.830
30294W        W89797  40.433   0.747  12.823
30295W        W89798  33.452   9.332   1.844
30296W        W89799  35.586   8.217   2.903
30297W        W89800   8.801  38.848  12.913
30298W        W89801  23.134   6.202  13.994
30299W        W89802  10.318   3.310  14.406
30300W        W89803  22.706  35.481  12.922
30301W        W89804  42.818   9.304   3.329
30302W        W89805  12.840  34.532  12.418
30303W        W89806  24.043  34.063   4.796
30304W        W89807   2.841  22.701  13.803
30305W        W89808  34.116   0.360   0.726
30306W        W89809  23.207  28.163   2.735
30307W        W89810  34.956  11.336   2.381
30308W        W89811  16.208  41.529   3.203
30309W        W89812   5.913  41.795  11.542
30310W        W89813  12.824  29.129   5.168
30311W        W89814  31.566  27.979   5.146
30312W        W89815   4.739  34.484   3.779
30313W        W89816  24.489   9.373  11.946
30314W        W89817  36.375  41.436  12.045
30315W        W89818  32.519  10.365   3.226
30316W        W89819  37.080  14.644   2.852
30317W        W89820  27.582  32.419   3.329
30318W        W89821  34.022   4.275   4.225
30319W        W89822   3.344  26.109  14.792
30320W        W89823  14.742  11.223   4.205
30321W        W89824  41.361  31.482   1.698
30322W        W89825  41.029  11.645   3.834
30323W        W89826  11.740  19.632  12.511
30324W        W89827  21.148  36.940  14.392
30325W        W89828  44.853  24.580  10.957
30326W        W89829  15.765  31.504   0.775
30327W        W89830  15.789   9.874  14.868
30328W        W89831  28.461   5.822   4.795
30329W        W89832  20.584  27.996   0.474
30330W        W89833  30.936   2.939  13.452
30331W        W89834   0.301  29.619   0.384
30332W        W89835   5.783  10.871  12.833
30333W        W89836  43.443  40.873   4.340
30334W        W89837  28.613  24.583  12.995
30335W        W89838   4.231   4.913  13.903
30336W        W89839  11.134  17.213   3.206
30337W        W89840  43.837  32.630  10.541
30338W        W89841  19.228   0.983   2.246
30339W        W89842   8.786  13.733   4.175
30340W        W89843   4.263  25.587   4.633
30341W        W89844  20.690  29.524  12.052
30342W        W89845  29.973  38.514  10.418
30343W        W89846   3.276   6.848  12.073
30344W        W89847  37.888   4.300   0.965
30345W        W89848   3.421  42.870   3.376
30346W        W89849  19.071   2.296   1.843
30347W        W89850   2.459  34.931  11.445
30348W        W89851  17.732  44.822   0.844
30349W        W89852   1.370  27.068  10.455
30350W        W89853  44.412  36.007  11.913
30351W        W89854   5.745  19.673   0.354
30352W        W89855  33.400   7.246   0.853
30353W        W89856  13.310  33.480  10.075
30354W        W89857  38.858  17.595  13.939
30355W        W89858   2.337  37.429   0.380
30356W        W89859  18.588  44.314   2.808
30357W        W89860  30.503  23.661  12.827
30358W        W89861  41.849  11.702  12.922
30359W        W89862  14.636   3.757   3.251
30360W        W89863  37.391  27.113   2.697
30361W        W89864  30.647  26.489  11.422
30362W        W89865  26.081  22.236   1.394
30363W        W89866  41.983  38.469  14.508
30364W        W89867  15.606  26.487  10.912
30365W        W89868   2.782   6.391  12.539
30366W        W89869  24.000   5.745  12.559
30367W        W89870  43.936  19.550  12.956
30368W        W89871   2.739  24.214   3.154
30369W        W89872  33.975  42.351   1.816
30370W        W89873  32.609   2.371   0.362
30371W        W89874  27.101  12.233   3.718
30372W        W89875  36.024  34.115   3.269
30373W        W89876  31.026  28.062   4.834
30374W        W89877  32.613  24.207   2.330
30375W        W89878  32.610  39.364   4.614
30376W        W89879   5.758  12.686  12.488
30377W        W89880  43.418  42.410   0.966
30378W        W89881  26.676  14.213  13.900
30379W        W89882   1.771  34.008  12.531
30380W        W89883   5.359  36.589   1.406
30381W        W89884  10.774   4.204   0.792
30382W        W89885  28.444   1.275  12.458
30383W        W89886  31.941  11.329   4.771
30384W        W89887  35.968  17.759   1.292
30385W        W89888   5.339  28.972  10.987
30386W        W89889   5.731  22.076  13.422
30387W        W89890  27.460   4.240  11.540
30388W        W89891   6.829  29.955   1.223
30389W        W89892  15.139   8.697   1.265
30390W        W89893  37.945  27.564  12.346
30391W        W89894  27.669   8.668   1.712
30392W        W89895  29.935   5.807   2.390
30393W        W89896  27.499  42.492   3.254
30394W        W89897   7.277  33.479  11.948
30395W        W89898  25.573  37.476   4.208
30396W        W89899   6.250   1.947  11.591
30397W        W89900  29.496  12.359   3.286
30398W        W89901  38.383   2.459  11.945
30399W        W89902   9.770  12.239   2.226
30400W        W89903   7.188  16.168   2.293
30401W        W89904  38.966   0.826   1.432
30402W        W89905   5.897   8.406  11.400
30403W        W89906   8.348  40.392  11.062
30404W        W89907  42.886  37.863  10.428
30405W        W89908   3.384  31.079   1.735
30406W        W89909  22.210  42.408  12.495
30407W        W89910  40.307  26.143  13.016
30408W        W89911  38.377  44.504   2.325
30409W        W89912  23.080  36.032  12.573
30410W        W89913  30.038  26.157  14.847
30411W        W89914  32.428  38.846  13.541
30412W        W89915  12.803  29.467   0.924
30413W        W89916  17.185  18.150   0.802
30414W        W89917  34.049  36.375   0.893
30415W        W89918  28.075   6.224   0.755
30416W        W89919  39.401  31.152   1.830
30417W        W89920  11.810   8.819   5.266
30418W        W89921  44.299  27.631  14.479
30419W        W89922  12.616  39.384  11.008
30420W        W89923  39.531  21.076  14.902
30421W        W89924  27.198  30.470  10.973
30422W        W89925  25.481  14.138   1.324
30423W        W89926  11.324  16.095  10.500
30424W        W89927  38.525   8.752  11.483
30425W        W89928  11.819  44.000  12.016
30426W        W89929   4.244  13.792   2.253
30427W        W89930   0.446  34.064   2.377
30428W        W89931  13.226  23.564   3.325
30429W        W89932  19.593  34.890   4.835
30430W        W89933  44.756   1.942   4.310
30431W        W89934  10.668   0.952  11.931
30432W        W89935  41.790  13.728   1.897
30433W        W89936   4.442  42.841  11.410
30434W        W89937  31.134   9.830  14.486
30435W        W89938  40.448  25.191   4.185
30436W        W89939  24.152  42.837  14.784
30437W        W89940  31.513  40.443   0.249
30438W        W89941  35.950   6.741  11.539
30439W        W89942  39.319  38.501   1.799
30440W        W89943  33.594   8.822   1.286
30441W        W89944  30.459  14.156  13.955
30442W        W89945  44.410  23.209   2.745
30443W        W89946  29.173  22.680  12.972
30444W        W89947  29.451   6.249   3.377
30445W        W89948  42.812  23.646   1.698
30446W        W89949   1.359  21.542  13.953
30447W        W89950  23.722  37.448  14.802
30448W        W89951   0.894  14.761   0.350
30449W        W89952  14.298  23.590  14.927
30450W        W89953  21.133  20.600   0.268
30451W        W89954  40.917   3.429  13.348
30452W        W89955   4.717  30.433  10.965
30453W        W89956   3.283  34.058  12.435
30454W        W89957  10.653  25.630  12.481
30455W        W89958  11.210  28.537  11.556
30456W        W89959  14.716  27.097  11.450
30457W        W89960  30.647  27.097  13.456
30458W        W89961   0.767  23.129   3.211
30459W        W89962  29.469  24.096  14.941
30460W        W89963   8.757   8.250  13.546
30461W        W89964   7.891   8.686   0.342
30462W        W89965  25.626  30.144   4.800
30463W        W89966   6.801  10.171  12.402
30464W        W89967   6.865  13.309  10.961
30465W        W89968  38.570  13.242   1.705
30466W        W89969   8.326   7.391  14.457
30467W        W89970  33.601  28.990   0.934
30468W        W89971  24.010   9.851  13.467
30469W        W89972  24.052  24.062   3.646
30470W        W89973  27.652  37.521   0.445
30471W        W89974  31.598  43.871  12.426
30472W        W89975  39.459  26.131   3.291
30473W        W89976  23.512  10.298  13.826
30474W        W89977  25.521  17.120  11.967
30475W        W89978  30.426   9.722  14.325
30476W        W89979  19.557  12.691   2.336
30477W        W89980  28.036  19.125   4.672
30478W        W89981  29.496  15.678   1.871
30479W        W89982  11.780  41.870   0.331
30480W        W89983  23.103  26.656   4.716
30481W        W89984  33.954   6.342   0.313
30482W        W89985  14.116  21.127  10.901
30483W        W89986   7.336  35.088  10.529
30484W        W89987  13.733  12.825  14.844
30485W        W89988  33.442   4.898   0.423
30486W        W89989  40.437  18.706  12.487
30487W        W89990  34.871  28.662   1.770
30488W        W89991  21.699  36.065   3.227
30489W        W89992  21.032  16.254  11.898
30490W        W89993   2.388  39.381   1.890
30491W        W89994  32.988  21.153   0.290
30492W        W89995  32.038  35.529   3.803
30493W        W89996  12.646  20.621   2.366
30494W        W89997  41.003  21.536  10.540
30495W        W89998  39.451  33.899   3.673
30496W        W89999   1.860   4.852  11.551
30497W        W90000  21.689  44.504  12.907
30498W        W90001  21.545  20.162  10.913
30499W        W90002  44.471  36.899   4.351
30500W        W90003   0.951  30.575   4.804
30501W        W90004  12.702  36.856  14.002
30502W        W90005  41.412  37.872   4.300
30503W        W90006  36.054  18.150  14.278
30504W        W90007  36.573   0.970   3.640
30505W        W90008   7.854  10.806   1.292
30506W        W90009  25.699  21.046   0.431
30507W        W90010   0.357  10.653   3.326
30508W        W90011  36.076  18.625  10.586
30509W        W90012  18.569  16.237   2.846
30510W        W90013   8.343  14.781  11.955
30511W        W90014  42.335  14.767  10.431
30512W        W90015  32.481  14.754  13.464
30513W        W90016   9.347   3.258   3.295
30514W        W90017  11.690  32.084   3.721
30515W        W90018  34.399  35.000   0.768
30516W        W90019  29.633  32.615  14.969
30517W        W90020   4.826  42.486   0.318
30518W        W90021  19.628  24.595  10.552
30519W        W90022  28.029   4.798  11.965
30520W        W90023  22.152  40.486   1.822
30521W        W90024  40.026  24.035   2.245
30522W        W90025   6.752  19.202  13.889
30523W        W90026  33.578   9.317  14.790
30524W        W90027   2.449   0.301   3.704
30525W        W90028  29.173   9.736   4.264
30526W        W90029  34.987  35.450   1.817
30527W        W90030  35.021   5.356  12.574
30528W        W90031  16.077  42.314   3.385
30529W        W90032  28.463  40.855  12.878
30530W        W90033  10.857  11.822  11.542
30531W        W90034  40.433  40.860   3.267
30532W        W90035   1.391  43.774  14.850
30533W        W90036  32.087  18.230  11.870
30534W        W90037  24.654   7.897  13.799
30535W        W90038  27.062  30.560  13.026
30536W        W90039  41.358   8.900  12.524
30537W        W90040  43.454  17.717  13.795
30538W        W90041  19.090  22.707   1.296
30539W        W90042  32.918   6.325  14.010
30540W        W90043   0.402  14.244   1.783
30541W        W90044  22.684  24.082   1.852
30542W        W90045  11.257   7.732   4.800
30543W        W90046   7.880   3.925   1.857
30544W        W90047  44.336   4.788   4.164
30545W        W90048  24.673  23.635   0.909
30546W        W90049   6.235  18.562  13.791
30547W        W90050   0.956  34.017  13.803
30548W        W90051  34.994   4.204   0.346
30549W        W90052   8.707  36.518  10.535
30550W        W90053  28.131   1.770  11.563
30551W        W90054   8.725  16.225  11.596
30552W        W90055  20.135   0.433  14.974
30553W        W90056  39.454   4.384   4.761
30554W        W90057  32.476  15.123   4.824
30555W        W90058  32.498  40.855   0.439
30556W        W90059  39.849  43.812  13.533
30557W        W90060  26.191  36.983   3.805
30558W        W90061   3.717  36.368  14.928
30559W        W90062  32.551  39.446  14.854
30560W        W90063   7.712  35.506  10.935
30561W        W90064  10.820  22.079   1.299
30562W        W90065  25.104   5.726  11.589
30563W        W90066  11.807  24.162   2.418
30564W        W90067   5.403  19.129  13.795
30565W        W90068  37.381   9.698  11.128
30566W        W90069   6.886  21.628  11.604
30567W        W90070  43.440   6.870  13.795
30568W        W90071  26.960   1.434  10.581
30569W        W90072  15.728   3.729  14.442
30570W        W90073   3.309  17.622  11.556
30571W        W90074   3.721  23.110  13.466
30572W        W90075  13.833   1.733  12.093
30573W        W90076  41.441  14.748  14.511
30574W        W90077  34.962  40.403  10.946
30575W        W90078   5.393  14.778  14.974
30576W        W90079   9.872  31.954   1.847
30577W        W90080  44.414  43.338   1.281
30578W        W90081   5.356  26.200   5.779
30579W        W90082  26.203  23.224   2.726
30580W        W90083  19.685  28.553  11.871
30581W        W90084   4.757  42.834  13.409
30582W        W90085  34.433   9.671  14.401
30583W        W90086   3.422   1.466  14.953
30584W        W90087   8.718  22.584   2.734
30585W        W90088  10.834  28.469  14.360
30586W        W90089   1.368  36.408   3.710
30587W        W90090   4.439  16.682   2.261
30588W        W90091  12.670   1.387   2.758
30589W        W90092   7.761  23.170  11.877
30590W        W90093  19.137   8.689   5.241
30591W        W90094  35.873  42.959   0.897
30592W        W90095  23.581  14.764  10.501
30593W        W90096   2.266  20.603  13.872
30594W        W90097  11.343  31.086   9.496
30595W        W90098  15.098   9.650  14.815
30596W        W90099  29.507   2.742   4.654
30597W        W90100  23.541  43.988  12.398
30598W        W90101   8.830   6.263   3.746
30599W        W90102  11.129  11.341   1.907
30600W        W90103   8.859   9.288  12.859
30601W        W90104  38.907  11.363   2.396
30602W        W90105   6.861  30.617   0.830
30603W        W90106  35.531  40.492  12.016
30604W        W90107   6.225  32.123   3.670
30605W        W90108   9.387  32.961  12.011
30606W        W90109   1.277  13.640  10.616
30607W        W90110  13.840  19.147   4.314
30608W        W90111   0.457   8.365   3.166
30609W        W90112   5.927  18.621  14.324
30610W        W90113  27.457  30.064   1.889
30611W        W90114  26.037  12.738   0.789
30612W        W90115  24.042  28.960   3.828
30613W        W90116   3.942   4.861  13.876
30614W        W90117   5.759  34.887   4.663
30615W        W90118  37.347  19.238   4.712
30616W        W90119   4.346   2.804   1.750
30617W        W90120  26.976   7.752  13.480
30618W        W90121   0.855   9.234  11.991
30619W        W90122  13.815  21.708   0.855
30620W        W90123  31.473   0.408   4.316
30621W        W90124  32.986  13.343  11.998
30622W        W90125   8.320  17.164   0.891
30623W        W90126  35.969   9.776  12.966
30624W        W90127   2.895  18.112  11.115
30625W        W90128  20.617   1.848  11.430
30626W        W90129  31.035  18.232  11.931
30627W        W90130  12.837  34.986  13.908
30628W        W90131   2.227   1.801  10.985
30629W        W90132  27.485  10.724   3.173
30630W        W90133  29.495  29.508   2.813
30631W        W90134  31.558  15.631   0.942
30632W        W90135   0.366  38.456   0.442
30633W        W90136   8.281  14.213   9.637
30634W        W90137  34.436   0.292   4.717
30635W        W90138  32.395  21.555   4.600
30636W        W90139  29.614  13.836  13.506
30637W        W90140   3.456   0.857   1.297
30638W        W90141  18.669  43.430   1.356
30639W        W90142  16.674  32.113  10.581
30640W        W90143  15.813  31.085  12.554
30641W        W90144  38.362  18.634  13.894
30642W        W90145  12.267  33.049  11.886
30643W        W90146  27.554  41.009   3.740
30644W        W90147  25.973  25.541   0.736
30645W        W90148  35.897  44.794  14.008
30646W        W90149  40.985  19.107  12.068
30647W        W90150  41.319  33.413   1.734
30648W        W90151  44.934  19.540  14.392
30649W        W90152  32.917  28.533  12.031
30650W        W90153  36.487  35.944  13.020
30651W        W90154  22.699  28.659   3.187
30652W        W90155  24.638  30.003   2.196
30653W        W90156   8.851  43.356   2.731
30654W        W90157  20.067  37.513  14.413
30655W        W90158  11.684  12.746  12.400
30656W        W90159  44.396  19.105   0.865
30657W        W90160  33.473   3.891   4.123
30658W        W90161  31.151   3.373   5.088
30659W        W90162  30.981  42.911   2.863
30660W        W90163  32.431  17.104  11.868
30661W        W90164   3.379   7.676  14.417
30662W        W90165  27.625   8.824  14.957
30663W        W90166  22.059  21.620  11.393
30664W        W90167  10.145  44.320   3.855
30665W        W90168  33.560  16.676  10.468
30666W        W90169   0.771  31.060   1.768
30667W        W90170  28.095  14.210  13.383
30668W        W90171  11.148  39.513   2.226
30669W        W90172  20.140   9.760   1.697
30670W        W90173  25.119  16.117  10.409
30671W        W90174  14.214  41.430  14.374
30672W        W90175  13.232   9.224  14.825
30673W        W90176  32.896  25.022  14.501
30674W        W90177  37.514  26.050   4.269
30675W        W90178   5.862  30.507   3.693
30676W        W90179  31.627  26.480  12.948
30677W        W90180   5.271  25.587  10.017
30678W        W90181   7.822  13.632  14.970
30679W        W90182  44.473  42.998  12.518
30680W        W90183   9.744   2.739  10.624
30681W        W90184  30.593  11.780   0.922
30682W        W90185  15.626  30.956   4.254
30683W        W90186  27.469  26.963  12.922
30684W        W90187  19.534  39.335  10.416
30685W        W90188  22.578  31.146   1.259
30686W        W90189  19.049   9.687  14.424
30687W        W90190  10.681  29.938   3.826
30688W        W90191  28.132  12.689   2.257
30689W        W90192  33.586   0.847   0.266
30690W        W90193  35.984  35.988   3.698
30691W        W90194  25.185  15.798   3.858
30692W        W90195  14.288  40.910  11.109
30693W        W90196  42.459  10.746   3.684
30694W        W90197  12.310  11.731  13.976
30695W        W90198   3.445  44.929   1.233
30696W        W90199  21.613   4.809   2.743
30697W        W90200   4.818  16.309   3.855
30698W        W90201   7.731  31.578  13.328
30699W        W90202  41.339   2.361   2.843
30700W        W90203  24.041  21.223  10.038
30701W        W90204  17.558  38.908   3.164
30702W        W90205   8.267   7.332  11.384
30703W        W90206   8.878  41.535   4.755
30704W        W90207  25.993  13.711  14.315
30705W        W90208   2.855  39.049   2.796
30706W        W90209  11.711   6.815  10.909
30707W        W90210  35.034  29.008   2.885
30708W        W90211   1.442  20.117   5.150
30709W        W90212  20.762   6.723   1.320
30710W        W90213  37.475  37.433  13.900
30711W        W90214  17.763  39.510  11.550
30712W        W90215  22.601  14.764  10.403
30713W        W90216   1.381  33.505   1.433
30714W        W90217  16.666   0.979   1.252
30715W        W90218  22.050  33.945  13.925
30716W        W90219  15.676  25.497   0.727
30717W        W90220  28.950  37.436   4.336
30718W        W90221   3.728   2.310   3.634
30719W        W90222  38.004  15.796  14.467
30720W        W90223  10.850   3.773  11.494
30721W        W90224   0.288   0.442   3.345
30722W        W90225   4.937  10.360   0.422
30723W        W90226  26.671  35.990   3.632
30724W        W90227  21.213  34.601  13.461
30725W        W90228  43.790   5.350   1.365
30726W        W90229   1.364  28.186   3.720
30727W        W90230  30.973  21.223  12.419
30728W        W90231  22.694   2.842  10.985
30729W        W90232   9.645   7.747   1.910
30730W        W90233  27.676  41.801  14.776
30731W        W90234  30.125  15.802  11.403
30732W        W90235  19.693  43.956  10.549
30733W        W90236   1.781   4.806  13.859
30734W        W90237  23.718  38.531  14.470
30735W        W90238  34.469   6.680   0.280
30736W        W90239   2.720  16.806  13.795
30737W        W90240  28.613  40.373  14.989
30738W        W90241   3.733  12.205   0.302
30739W        W90242  35.038  41.430   1.703
30740W        W90243  42.831  32.472  12.504
30741W        W90244  44.263  40.902   4.622
30742W        W90245   3.929   1.329  12.057
30743W        W90246   6.889   2.337   4.142
30744W        W90247   0.347  10.828  12.448
30745W        W90248  30.918  34.546   5.265
30746W        W90249  42.029  41.488  10.584
30747W        W90250  30.431  33.055   0.268
30748W        W90251  33.506  31.037   1.812
30749W        W90252  14.661  13.750  11.080
30750W        W90253  29.993  30.091   1.382
30751W        W90254   2.396   6.292   4.814
30752W        W90255  32.038   8.717   0.464
30753W        W90256  10.636   5.402   4.165
30754W        W90257  38.343  12.130  13.057
30755W        W90258  24.557  19.055  13.866
30756W        W90259  34.484  24.986   0.795
30757W        W90260  30.554  26.081   1.857
30758W        W90261  22.130  42.785   1.750
30759W        W90262  43.928   6.770   1.752
30760W        W90263  11.857  29.162   1.760
30761W        W90264   8.276  39.819   2.814
30762W        W90265  41.845   0.863   0.319
30763W        W90266   0.410  23.640  10.094
30764W        W90267   8.696  22.648   1.368
30765W        W90268  28.603  43.373  14.282
30766W        W90269  29.030  17.061  13.352
30767W        W90270  28.952  37.936  11.082
30768W        W90271   3.901  13.738  10.936
30769W        W90272  20.609  41.905  13.012
30770W        W90273   6.307  10.329   5.283
30771W        W90274   9.214  19.675   1.861
30772W        W90275   1.918  10.767  12.343
30773W        W90276  32.906  15.241   1.916
30774W        W90277  22.692  43.492   0.297
30775W        W90278   3.934  27.595   0.445
30776W        W90279  19.750  18.788   1.784
30777W        W90280  33.129  12.336   4.749
30778W        W90281  44.875  44.835  10.939
30779W        W90282  42.482  15.602  13.897
30780W        W90283  23.214   8.277  13.460
30781W        W90284  14.591   6.415   0.850
30782W        W90285   5.735  37.845  12.825
30783W        W90286   7.707  40.472  12.353
30784W        W90287  44.270  28.477  10.935
30785W        W90288  12.645  28.017  13.426
30786W        W90289   4.938  21.663  13.530
30787W        W90290   9.779   7.189   1.447
30788W        W90291  32.491   1.783  14.919
30789W        W90292  27.684   2.233  14.469
30790W        W90293  27.097  10.845  12.901
30791W        W90294  13.142  19.246  12.432
30792W        W90295  44.356  42.296  13.950
30793W        W90296  44.790   4.245   1.812
30794W        W90297  36.504   4.931   4.328
30795W        W90298  44.459  39.377  12.496
30796W        W90299   8.308  37.468  13.415
30797W        W90300  25.601   8.882  14.031
30798W        W90301  36.400  10.673   4.228
30799W        W90302  25.219  39.398   0.367
30800W        W90303  18.640   7.355   1.269
30801W        W90304  39.319   9.804  10.903
30802W        W90305  34.551   2.729   0.480
30803W        W90306   4.310  32.538  13.965
30804W        W90307  12.332  42.282  10.931
30805W        W90308  37.552  41.339  13.372
30806W        W90309  39.046  14.282   3.349
30807W        W90310   6.375  36.505  11.535
30808W        W90311  20.166   8.853   4.227
30809W        W90312  38.345  14.132   2.343
30810W        W90313  13.117  23.726   2.849
30811W        W90314  16.612   7.769   4.743
30812W        W90315  23.153  17.168   3.756
30813W        W90316  10.284   5.696   9.945
30814W        W90317  41.023  41.994  12.965
30815W        W90318   6.259  19.564  10.622
30816W        W90319   1.775   2.276   3.685
30817W        W90320  12.807  24.527  14.867
30818W        W90321  33.046  35.427   3.756
30819W        W90322  16.271   4.729  14.278
30820W        W90323   7.885  24.990  10.490
30821W        W90324  27.667  32.907   1.381
30822W        W90325  20.716  23.651   0.807
30823W        W90326   6.907   6.851  10.554
30824W        W90327   0.469   2.278  12.479
30825W        W90328  19.705  16.734   2.199
30826W        W90329  22.548  26.959  13.928
30827W        W90330   8.316  21.149   3.725
30828W        W90331  25.184  23.518  13.517
30829W        W90332  22.074  23.553  13.504
30830W        W90333  36.496  37.546  11.982
30831W        W90334  44.267  26.662  14.486
30832W        W90335   9.374  21.101   1.414
30833W        W90336  17.282  24.197  11.517
30834W        W90337  43.805  40.466   4.807
30835W        W90338   1.403  41.457  11.073
30836W        W90339  27.507  20.260   1.257
30837W        W90340   5.283  20.204  11.021
30838W        W90341  11.138  14.777   4.671
30839W        W90342  28.535  17.198   2.376
30840W        W90343  14.210   6.286   2.804
30841W        W90344   5.410  41.892  12.370
30842W        W90345  25.533   7.381   2.768
30843W        W90346  41.360  15.109   3.633
30844W        W90347  44.306  31.120   4.323
30845W        W90348   3.276  28.066   4.602
30846W        W90349  43.393  41.473  12.389
30847W        W90350  23.719  20.110   2.323
30848W        W90351   4.701  17.091  11.446
30849W        W90352  10.873  13.270  13.482
30850W        W90353  14.676  16.211  11.989
30851W        W90354   4.756  32.483   2.282
30852W        W90355  43.842  24.176   4.147
30853W        W90356  10.176  20.229  12.537
30854W        W90357  24.173   5.212   0.917
30855W        W90358   4.901  21.072  13.394
30856W        W90359  42.387  23.496  10.465
30857W        W90360  28.147  11.236   1.310
30858W        W90361   8.852  41.409  13.894
30859W        W90362  10.298  24.052   4.794
30860W        W90363  35.935  33.479   3.705
30861W        W90364   5.844  28.659  13.962
30862W        W90365  16.093  26.060  14.895
30863W        W90366   1.972  29.533   1.713
30864W        W90367  37.983  42.522  11.490
30865W        W90368   7.740  35.033   5.275
30866W        W90369  20.650  36.980  13.016
30867W        W90370  25.194  19.729  14.981
30868W        W90371  14.109  34.909   3.738
30869W        W90372  41.345   7.726  12.853
30870W        W90373  17.213  31.927  14.003
30871W        W90374  14.185  15.679   5.254
30872W        W90375  40.487  40.016   0.431
30873W        W90376  44.300   5.778  14.323
30874W        W90377  36.031  34.101   1.866
30875W        W90378  25.513   2.737  13.864
30876W        W90379  44.402  36.357   0.754
30877W        W90380  13.233  15.692  11.956
30878W        W90381  36.437  26.045   4.169
30879W        W90382  43.475  41.399  14.473
30880W        W90383  13.718   2.247   1.446
30881W        W90384  30.928  34.907  12.838
30882W        W90385   5.314  37.422   3.204
30883W        W90386  10.775  39.466   4.742
30884W        W90387   0.985  33.510  12.997
30885W        W90388  41.538  24.583  12.094
30886W        W90389  35.888   0.764   4.294
30887W        W90390   6.236  10.823   3.735
30888W        W90391  44.815  16.693   1.272
30889W        W90392  36.489   0.362  14.842
30890W        W90393  31.983  10.164  12.518
30891W        W90394  34.469   9.249  14.333
30892W        W90395  40.505  17.075   4.747
30893W        W90396  31.935  26.958   2.190
30894W        W90397  34.543   4.321  12.370
30895W        W90398   0.322  32.907   3.697
30896W        W90399  18.645  25.125   3.805
30897W        W90400  26.958  15.295   0.842
30898W        W90401   5.245   8.310   2.801
30899W        W90402   4.390  15.626  12.374
30900W        W90403   8.846  23.097  11.414
30901W        W90404  40.361  30.091  14.395
30902W        W90405  36.089  40.477  13.457
30903W        W90406  33.018   1.433   3.253
30904W        W90407  36.432   0.307   3.252
30905W        W90408  26.077  32.602   3.648
30906W        W90409  31.016   4.829   2.850
30907W        W90410   3.393  38.481   2.845
30908W        W90411  44.941  11.775   1.727
30909W        W90412  27.029  26.039   2.378
30910W        W90413  39.033  14.631   0.784
30911W        W90414  44.263  17.128   5.180
30912W        W90415  25.648  44.494  14.986
30913W        W90416  18.133   2.294  12.357
30914W        W90417  38.983  35.102   5.307
30915W        W90418  38.920  15.215  10.585
30916W        W90419  42.462   1.438  12.916
30917W        W90420   5.915  39.473   3.692
30918W        W90421   8.175  28.542  13.390
30919W        W90422  34.996  20.568  11.519
30920W        W90423  41.802  26.473  14.811
30921W        W90424  37.001  42.907   0.453
30922W        W90425  24.562  27.185  13.466
30923W        W90426  43.278  28.636   3.833
30924W        W90427  22.096  25.163  14.858
30925W        W90428  26.662  11.322   4.802
30926W        W90429  32.585   6.890  12.957
30927W        W90430   5.718  25.580   2.302
30928W        W90431   5.872   4.876  11.942
30929W        W90432  34.558   4.236  13.338
30930W        W90433  32.565  22.239   3.286
30931W        W90434  39.902  30.981   0.780
30932W        W90435   3.852   9.307   0.899
30933W        W90436  12.730   8.895   2.313
30934W        W90437  11.778  11.237   3.305
30935W        W90438   5.928  44.003   3.372
30936W        W90439  24.585  28.465   3.806
30937W        W90440  29.561  42.300  11.112
30938W        W90441  33.128  26.659   1.919
30939W        W90442  26.139   4.362   1.445
30940W        W90443   7.681   3.368   3.655
30941W        W90444  21.203   1.881  13.822
30942W        W90445  43.393  27.193  13.977
30943W        W90446  26.991  12.637   0.959
30944W        W90447  20.612   9.275   2.703
30945W        W90448  12.305  34.994   4.603
30946W        W90449  27.487   0.397   3.192
30947W        W90450  14.231   7.206  13.868
30948W        W90451   5.723  18.227   4.616
30949W        W90452  23.146   8.749   2.786
30950W        W90453  28.447  35.591   0.727
30951W        W90454  23.051  33.098  13.021
30952W        W90455  12.675  16.747   2.843
30953W        W90456  21.681  16.775  13.396
30954W        W90457  27.455   1.770   1.267
30955W        W90458  30.142  35.994  11.592
30956W        W90459  44.414   9.370   5.243
30957W        W90460   6.286  17.252   0.319
30958W        W90461  17.558  41.963   2.838
30959W        W90462  10.247  24.509   4.771
30960W        W90463   7.844  38.021   3.820
30961W        W90464  25.682  34.872  12.089
30962W        W90465  41.029   2.315   3.178
30963W        W90466  20.694  30.934  10.545
30964W        W90467   5.695   3.347  13.384
30965W        W90468  41.356   2.321   1.245
30966W        W90469  21.168  26.509   3.803
30967W        W90470  42.934  31.571   4.601
30968W        W90471  18.714  21.192   2.687
30969W        W90472  24.171   5.227   0.370
30970W        W90473   8.776   2.407   3.859
30971W        W90474  12.639  24.588  14.002
30972W        W90475  14.718  19.718  13.915
30973W        W90476  14.275   1.843  13.009
30974W        W90477   1.468  35.993   0.863
30975W        W90478  43.319  13.691   4.718
30976W        W90479  12.712   3.371   2.357
30977W        W90480  38.911  42.990   4.164
30978W        W90481  33.970  42.448   3.299
30979W        W90482  18.272   4.251   4.690
30980W        W90483  19.746  17.584  10.447
30981W        W90484  40.422  40.978  13.348
30982W        W90485   2.418  14.698  14.872
30983W        W90486  10.279   4.890  11.014
30984W        W90487  20.028   0.788   0.320
30985W        W90488   6.770  38.076  11.503
30986W        W90489  14.764  24.685   4.785
30987W        W90490   4.897  43.440  13.349
30988W        W90491   2.911  34.437  14.476
30989W        W90492  15.697   8.733   2.702
30990W        W90493  10.785  30.650   0.862
30991W        W90494  12.139   7.203  12.376
30992W        W90495  35.933  22.582   1.712
30993W        W90496  38.569  12.359   1.244
30994W        W90497   7.823  22.117  12.032
30995W        W90498  23.537   6.248   0.874
30996W        W90499  19.176  31.991  11.107
30997W        W90500  34.866   5.796  10.568
30998W        W90501  36.491  33.538  10.044
30999W        W90502   8.819  39.422  13.545
31000W        W90503  32.056   0.260  14.401
31001W        W90504  22.640  43.395   3.776
31002W        W90505  11.738  30.435   2.226
31003W        W90506  33.936   2.335  11.968
31004W        W90507  12.640   5.748   1.236
31005W        W90508  20.634  42.360  11.858
31006W        W90509   7.855   7.213  13.336
31007W        W90510  17.730  10.167  12.040
31008W        W90511  41.291  12.757   2.706
31009W        W90512   4.736  19.569  12.352
31010W        W90513  40.871   5.420  10.071
31011W        W90514  25.986  14.235   4.754
31012W        W90515  15.697  18.124  11.083
31013W        W90516   7.185   6.302   0.315
31014W        W90517  35.984   0.821   0.735
31015W        W90518   3.228  24.508   5.151
31016W        W90519  18.739  34.076  13.417
31017W        W90520  22.081   4.752  10.932
31018W        W90521   0.278  38.876   3.725
31019W        W90522  12.809   9.652   0.768
31020W        W90523  30.100   1.897   3.228
31021W        W90524  38.950  29.589   2.704
31022W        W90525  40.950   0.490   3.212
31023W        W90526  27.084  10.856  13.309
31024W        W90527  11.235  24.118   0.345
31025W        W90528  25.558  23.633  10.126
31026W        W90529  40.509   9.789   2.284
31027W        W90530  27.013  40.496  14.775
31028W        W90531  33.487  43.354   1.307
31029W        W90532  21.632  31.008  12.346
31030W        W90533  10.808  40.971  11.501
31031W        W90534   4.827  13.734  11.018
31032W        W90535  15.290  42.943   2.351
31033W        W90536  12.294  43.861  14.793
31034W        W90537  28.445   3.311   2.860
31035W        W90538  38.880  10.635  14.332
31036W        W90539   1.366  31.076   3.693
31037W        W90540  41.426  38.440  13.527
31038W        W90541  17.246  18.575   2.185
31039W        W90542  28.128  25.635  13.469
31040W        W90543  18.242  13.670  13.998
31041W        W90544  34.447  28.452  12.517
31042W        W90545  24.553  27.679  13.990
31043W        W90546  17.666  44.295   3.651
31044W        W90547  35.483  13.173  13.891
31045W        W90548   4.344  27.040  14.327
31046W        W90549  29.119  31.472   3.790
31047W        W90550  17.116  13.834   2.836
31048W        W90551  35.973  44.874  12.036
31049W        W90552  18.786  19.591   4.690
31050W        W90553   2.432  42.782  14.376
31051W        W90554  33.560  16.792  14.335
31052W        W90555  30.527  39.525  12.548
31053W        W90556  35.086   7.207  14.369
31054W        W90557  22.050  30.569   2.752
31055W        W90558  42.953  14.620   4.248
31056W        W90559  36.428   7.278   0.836
31057W        W90560  24.061  40.430  14.331
31058W        W90561  33.431  17.620  14.452
31059W        W90562  26.055  42.813  11.532
31060W        W90563   5.243  42.899   2.307
31061W        W90564  19.579  19.769  12.426
31062W        W90565  14.230  17.632   3.197
31063W        W90566  39.447   2.372  14.321
31064W        W90567  10.678   9.369  12.378
31065W        W90568  43.393   5.760  14.400
31066W        W90569  43.968   9.724   1.370
31067W        W90570  12.293  33.417  13.934
31068W        W90571  18.771   3.792  14.317
31069W        W90572  42.361  20.049  14.410
31070W        W90573  14.114  17.181  10.591
31071W        W90574   6.745  18.600  12.363
31072W        W90575  43.504  26.702   0.467
31073W        W90576  19.106  25.520   1.899
31074W        W90577  42.817  25.122  14.823
31075W        W90578  39.559  38.485   1.275
31076W        W90579  24.485  13.107  13.822
31077W        W90580  31.081  11.262   1.406
31078W        W90581  24.209  21.077   4.157
31079W        W90582  31.965  23.240  11.026
31080W        W90583  11.127  41.875   0.775
31081W        W90584  33.075  27.629  13.852
31082W        W90585  19.249  10.352  11.970
31083W        W90586  38.073  29.061  11.884
31084W        W90587  13.704  31.137  12.541
31085W        W90588  34.463  13.674  14.933
31086W        W90589   0.925   6.380  13.454
31087W        W90590  27.193  20.570  13.492
31088W        W90591   3.216  42.526  14.828
31089W        W90592  10.703  11.787  13.470
31090W        W90593  15.205  10.752   4.704
31091W        W90594  27.555  10.844  11.033
31092W        W90595  36.408  39.383   3.169
31093W        W90596  22.502  14.242  14.294
31094W        W90597  11.128  20.139   0.265
31095W        W90598  42.903   8.720   2.308
31096W        W90599  12.152  26.968  11.006
31097W        W90600  19.104  21.751  13.401
31098W        W90601   9.873  32.567   9.997
31099W        W90602  36.362  24.030   4.611
31100W        W90603  11.290  30.591  14.803
31101W        W90604  15.713  39.872   1.276
31102W        W90605  35.905  42.903  10.552
31103W        W90606  32.980  22.023  10.923
31104W        W90607  15.778  31.897   1.737
31105W        W90608   1.306  20.668   3.755
31106W        W90609  27.060  17.757   2.849
31107W        W90610  20.245   9.268   1.896
31108W        W90611  24.074  17.169   3.240
31109W        W90612  28.678  18.691   2.795
31110W        W90613  33.447  28.007  14.321
31111W        W90614  13.151  14.284  14.458
31112W        W90615  10.352  29.005   4.328
31113W        W90616  12.790  42.862   1.861
31114W        W90617  12.152  16.211  13.501
31115W        W90618  41.448  25.572   3.241
31116W        W90619   0.805  20.049   3.805
31117W        W90620  29.047  16.620  10.931
31118W        W90621  14.096   5.928  12.857
31119W        W90622  15.668  23.554   3.688
31120W        W90623  20.642  14.784  14.356
31121W        W90624  24.008  32.055   4.634
31122W        W90625  39.900   1.911  10.985
31123W        W90626  37.070  36.488  14.897
31124W        W90627  28.463  15.695   3.294
31125W        W90628  28.569  38.331  13.535
31126W        W90629   8.890  44.011   2.221
31127W        W90630  25.625  36.585   3.678
31128W        W90631   4.742  36.082   2.387
31129W        W90632   9.705   5.761   0.433
31130W        W90633  16.601   4.896  11.401
31131W        W90634   9.829   4.353   0.332
31132W        W90635  37.550  18.156   3.287
31133W        W90636  29.934  31.462   4.831
31134W        W90637  26.075  29.058   2.864
31135W        W90638  25.598  11.652  12.934
31136W        W90639  15.214  44.783  14.786
31137W        W90640  17.641  15.174  12.001
31138W        W90641  11.691  19.545  10.145
31139W        W90642  41.499  15.213   4.825
31140W        W90643  33.049  12.722  11.533
31141W        W90644  40.955   0.764  14.948
31142W        W90645  34.095  41.907   4.665
31143W        W90646  19.739   7.817   3.768
31144W        W90647  22.592  12.355  10.645
31145W        W90648  29.665  42.394   1.322
31146W        W90649  42.989  27.473   0.777
31147W        W90650  39.880  34.513  11.535
31148W        W90651  10.287  40.970   3.751
31149W        W90652  26.129   3.221  10.907
31150W        W90653  40.045  36.868  11.110
31151W        W90654  23.026  30.921   0.280
31152W        W90655  43.456  28.665   2.858
31153W        W90656  40.964  38.910   2.734
31154W        W90657  20.271  27.151   0.875
31155W        W90658  20.130  23.537  12.973
31156W        W90659  36.854  35.558  14.881
31157W        W90660  26.498   8.655   3.248
31158W        W90661  37.470  20.191   4.191
31159W        W90662  15.720  20.758   3.380
31160W        W90663  40.325  25.479  11.388
31161W        W90664  24.640   9.350  11.442
31162W        W90665   5.358  19.715   3.275
31163W        W90666  26.656   5.250  12.382
31164W        W90667  19.209  38.325   4.230
31165W        W90668  40.865   5.343  12.523
31166W        W90669  23.645  15.204  14.427
31167W        W90670  26.068  28.677   3.700
31168W        W90671  30.057  21.621  13.984
31169W        W90672   6.233  41.866  13.852
31170W        W90673  26.990  31.083   1.303
31171W        W90674  16.739  28.499  10.987
31172W        W90675  38.429  21.602  11.972
31173W        W90676  40.337  41.944   1.807
31174W        W90677  19.275  33.429  11.551
31175W        W90678  26.186  29.455   3.671
31176W        W90679  37.372  29.476  14.968
31177W        W90680  29.570  20.688   3.280
31178W        W90681  15.246   8.389  14.310
31179W        W90682  42.829   7.888   9.946
31180W        W90683  36.875  44.278  12.483
31181W        W90684  24.140   5.204  11.473
31182W        W90685  10.273  32.964   0.470
31183W        W90686   9.336  37.966   2.801
31184W        W90687  17.770  23.164   1.316
31185W        W90688  15.303  42.429   4.122
31186W        W90689  26.009  31.079  10.486
31187W        W90690   5.377  34.886   2.309
31188W        W90691  19.676  25.147  11.442
31189W        W90692  20.205  33.416  13.027
31190W        W90693  27.994   2.297  12.562
31191W        W90694  43.453  33.478  13.493
31192W        W90695   0.779  38.829   0.877
31193W        W90696  12.250  41.342  11.482
31194W        W90697  44.992  40.469   2.247
31195W        W90698  23.121  16.574   3.813
31196W        W90699  44.870  17.102   2.382
31197W        W90700  33.561  19.094  10.408
31198W        W90701  34.428   1.445   4.806
31199W        W90702   0.761  38.425  13.506
31200W        W90703  21.669  30.110   2.334
31201W        W90704  30.569  15.274   1.252
31202W        W90705  20.153  39.933  11.913
31203W        W90706   7.685  20.674   3.670
31204W        W90707  25.538   0.818  11.940
31205W        W90708   8.353   1.846   0.263
31206W        W90709   4.807  21.111   2.835
31207W        W90710  29.437  14.614   1.748
31208W        W90711   6.908  31.635  11.599
31209W        W90712   0.768  39.430  13.030
31210W        W90713  15.802  26.536   4.245
31211W        W90714  28.999   9.847  14.826
31212W        W90715   1.899  18.094   2.888
31213W        W90716  11.840   6.364   3.371
31214W        W90717  34.411  22.676   1.246
31215W        W90718  34.525  21.257   4.311
31216W        W90719  44.476   3.370  10.068
31217W        W90720  10.333  16.666  12.947
31218W        W90721  38.391  38.440   4.656
31219W        W90722  31.486  40.952  13.438
31220W        W90723  39.388  34.502  14.947
31221W        W90724  41.794  20.743  11.932
31222W        W90725  24.650  17.715  14.357
31223W        W90726  24.207  13.820  10.937
31224W        W90727  35.976  15.303  11.915
31225W        W90728  39.508  11.365   1.837
31226W        W90729  36.071  14.623   3.306
31227W        W90730   5.393   3.829  10.511
31228W        W90731   0.844   9.676   4.238
31229W        W90732  12.131  15.586   1.862
31230W        W90733  39.336   9.361   1.273
31231W        W90734  13.624   7.286   0.283
31232W        W90735  39.543   4.282  10.516
31233W        W90736   0.429  12.269  13.013
31234W        W90737  33.581  12.716   3.727
31235W        W90738  12.291  23.113  12.092
31236W        W90739   0.907  36.878   3.774
31237W        W90740  14.821   9.842   3.259
31238W        W90741  10.734  10.756  11.859
31239W        W90742  15.720  15.632   4.260
31240W        W90743  20.588  17.570   3.793
31241W        W90744  22.602  23.681   1.930
31242W        W90745  14.709  39.885  14.497
31243W        W90746  27.062  19.157   1.737
31244W        W90747   7.832   0.476  14.289
31245W        W90748  13.767  35.524  11.991
31246W        W90749  43.471   7.792   3.202
31247W        W90750  36.895  21.243  13.470
31248W        W90751  17.137  15.266  14.336
31249W        W90752  31.444   1.424  14.946
31250W        W90753  19.190  31.634   2.696
31251W        W90754   7.181  19.085   0.448
31252W        W90755   0.964  32.516  12.966
31253W        W90756  17.175  11.813  13.483
31254W        W90757  32.437  31.039  12.905
31255W        W90758  26.086  12.188  13.862
31256W        W90759  10.231  17.578  14.774
31257W        W90760  35.422  33.035   4.804
31258W        W90761  16.628  39.503   2.855
31259W        W90762  29.991  28.980  13.315
31260W        W90763  22.634  30.945  11.002
31261W        W90764  33.085   2.915   0.253
31262W        W90765   7.413  25.528  10.897
31263W        W90766  29.054  28.167   0.274
31264W        W90767  20.533  17.137  13.873
31265W        W90768  14.688  28.513  14.851
31266W        W90769  10.349  29.610  11.406
31267W        W90770  32.061  42.993   0.350
31268W        W90771  26.188   8.661   3.828
31269W        W90772  38.387  25.171   0.908
31270W        W90773  19.646  44.899  11.448
31271W        W90774  34.544  37.467  13.873
31272W        W90775  24.698  28.930  14.823
31273W        W90776  31.045   6.314   2.305
31274W        W90777   6.308  27.996  12.982
31275W        W90778  28.456  31.001  13.451
31276W        W90779  33.536  18.232  14.458
31277W        W90780  29.451  27.006   1.356
31278W        W90781  26.091  19.703   4.815
31279W        W90782  24.572  42.348   0.957
31280W        W90783  28.137  30.656   3.334
31281W        W90784  38.475  24.161  12.390
31282W        W90785  28.115  39.409   0.391
31283W        W90786   3.733  27.591   2.237
31284W        W90787   9.227  31.999  13.413
31285W        W90788  25.097  32.069  13.464
31286W        W90789  12.134  44.838  11.081
31287W        W90790  44.909  13.620   1.896
31288W        W90791  17.164  21.703  11.509
31289W        W90792  37.490  40.430   2.784
31290W        W90793  18.233  25.579  10.991
31291W        W90794  18.166  23.071  10.417
31292W        W90795  18.124  35.868   0.729
31293W        W90796   3.328  18.294  10.111
31294W        W90797  19.102  25.014   3.657
31295W        W90798  17.798  38.527  13.364
31296W        W90799   2.837  13.281  13.030
31297W        W90800  37.908  43.471  11.538
31298W        W90801   1.829  42.455   1.708
31299W        W90802  28.565  40.383  12.090
31300W        W90803  29.576  33.045  11.906
31301W        W90804  24.502  10.284   1.736
31302W        W90805  11.753  41.309  12.938
31303W        W90806   9.864  14.791   3.295
31304W        W90807  37.382  30.031  12.527
31305W        W90808  35.516  35.419  13.895
31306W        W90809  19.191   7.171  14.806
31307W        W90810  24.559  25.999  12.023
31308W        W90811  23.100  34.864  13.528
31309W        W90812  19.590  24.060  12.852
31310W        W90813  32.558  12.690   3.325
31311W        W90814  22.713  36.434   3.336
31312W        W90815  39.821  25.638   4.238
31313W        W90816  43.949   6.813  12.965
31314W        W90817  36.473  10.302  12.057
31315W        W90818   9.214  34.027  14.834
31316W        W90819  13.748   9.355  11.008
31317W        W90820  42.964  26.563   2.215
31318W        W90821  19.092  20.599  12.997
31319W        W90822  17.793  10.234   2.760
31320W        W90823  36.878   1.418   1.818
31321W        W90824  28.525   9.377  10.956
31322W        W90825  25.988  11.284   2.367
31323W        W90826   5.805  17.181   1.869
31324W        W90827  38.955  41.357   3.810
31325W        W90828   1.412  25.688   9.977
31326W        W90829   1.419  14.259   4.745
31327W        W90830  33.124   8.339  11.611
31328W        W90831  37.461   0.403   3.291
31329W        W90832  30.074   8.407  11.063
31330W        W90833   7.309   5.930   0.251
31331W        W90834   3.278  44.964   5.297
31332W        W90835  41.502  23.536   1.796
31333W        W90836  33.059  39.970   2.701
31334W        W90837  15.233  19.567   1.346
31335W        W90838  40.872  39.910  11.902
31336W        W90839   0.988  42.439   9.942
31337W        W90840  23.694  25.034  11.612
31338W        W90841  16.231  24.483   1.764
31339W        W90842  29.092  18.103  13.509
31340W        W90843  29.934  16.263  12.457
31341W        W90844  34.581  22.514   0.944
31342W        W90845  30.590  10.238  11.068
31343W        W90846  23.212  44.323   5.620
31344W        W90847   4.721   9.733  11.083
31345W        W90848  42.403  27.994   4.331
31346W        W90849  38.354  14.608  14.324
31347W        W90850  34.407  21.031   1.217
31348W        W90851   3.848  34.546  12.495
31349W        W90852  32.429  44.871  13.340
31350W        W90853  24.607  15.749  12.526
31351W        W90854  11.702   6.247   5.175
31352W        W90855  20.541  37.337   1.869
31353W        W90856  28.630   6.292  14.329
31354W        W90857  39.444   0.394  13.800
31355W        W90858   4.318  31.591   0.275
31356W        W90859   5.385   3.439   1.877
31357W        W90860  37.070  44.761  11.437
31358W        W90861  21.141  26.581   1.250
31359W        W90862  12.689   9.653   4.189
31360W        W90863  32.531  34.890   1.819
31361W        W90864  11.716  22.053  12.046
31362W        W90865  10.344  26.649   2.696
31363W        W90866  17.656   3.721   0.896
31364W        W90867  15.113  38.421  13.510
31365W        W90868  22.719  11.695  12.358
31366W        W90869  43.997   8.884   4.828
31367W        W90870  15.132  39.427  11.923
31368W        W90871  31.025   6.826  13.030
31369W        W90872   0.743  27.000  12.039
31370W        W90873  15.701  40.019   2.817
31371W        W90874   2.934   7.773  13.064
31372W        W90875  14.314  14.242   1.781
31373W        W90876  23.151  31.434   0.344
31374W        W90877  26.622  30.979   0.442
31375W        W90878   8.269  39.374  14.020
31376W        W90879  42.311  34.079  11.091
31377W        W90880  36.985   3.762  14.933
31378W        W90881  22.565   8.329  12.871
31379W        W90882   0.315   0.417   1.818
31380W        W90883  35.428   4.730   1.751
31381W        W90884  35.104  34.958   1.929
31382W        W90885   4.873  25.488  13.371
31383W        W90886  21.622   2.883   1.765
31384W        W90887   9.886  18.106  11.540
31385W        W90888  32.475  43.839   3.292
31386W        W90889  12.850  34.522   0.801
31387W        W90890  44.307  20.748   4.180
31388W        W90891  22.128  28.115   4.154
31389W        W90892  42.926  39.843  12.091
31390W        W90893  20.568   1.883   3.346
31391W        W90894  43.390  38.073   1.297
31392W        W90895  15.720  30.464   0.466
31393W        W90896  11.826  29.574   0.898
31394W        W90897  14.731   3.722   4.791
31395W        W90898  23.990  19.646  12.569
31396W        W90899  32.520  39.924   5.154
31397W        W90900  40.542  36.943  14.795
31398W        W90901  29.926  33.479   2.399
31399W        W90902  25.570  23.518  11.464
31400W        W90903  13.151  18.704   3.670
31401W        W90904  26.664  44.828  11.886
31402W        W90905  38.931  42.375   2.205
31403W        W90906  20.049  12.253  13.056
31404W        W90907  23.210   1.443   1.894
31405W        W90908  20.626  12.173  12.451
31406W        W90909  20.131  34.891   2.675
31407W        W90910  12.351   3.429   3.686
31408W        W90911  17.724  11.739   0.445
31409W        W90912  25.696  32.916  10.955
31410W        W90913  13.774   3.714  12.888
31411W        W90914  39.393   2.356   2.184
31412W        W90915  33.513  10.175   3.320
31413W        W90916  11.644  22.733  12.937
31414W        W90917  40.818  43.776   1.905
31415W        W90918  37.435  28.447  14.946
31416W        W90919  32.891  12.351  13.897
31417W        W90920  25.132  27.516  10.085
31418W        W90921  23.661  23.538   1.728
31419W        W90922  30.428  28.536   3.793
31420W        W90923  25.108  39.019   2.745
31421W        W90924  36.377  32.466   0.785
31422W        W90925  25.568  11.650  10.425
31423W        W90926  41.386  33.606   4.636
31424W        W90927   5.215   0.272   3.256
31425W        W90928  12.739   9.842  12.852
31426W        W90929  26.120   3.219  12.341
31427W        W90930  10.254  18.153   0.289
31428W        W90931  18.076  37.473  13.544
31429W        W90932  39.874   0.267  12.014
31430W        W90933  42.356  43.515  12.888
31431W        W90934  37.919  11.741  11.561
31432W        W90935  22.663  34.524   3.739
31433W        W90936   0.349   4.926  10.533
31434W        W90937  35.518  41.428  11.961
31435W        W90938  38.063   2.953  10.422
31436W        W90939  34.901  32.099   3.179
31437W        W90940  12.360  22.115  10.971
31438W        W90941  17.734  44.776  13.452
31439W        W90942  12.280  16.624  11.376
31440W        W90943  35.455  12.658   0.376
31441W        W90944  32.091  15.814  11.044
31442W        W90945  39.014  33.517  10.949
31443W        W90946  28.051  17.650   4.839
31444W        W90947   3.720  11.809  11.115
31445W        W90948   4.922  15.774   1.892
31446W        W90949  12.653  34.935   0.450
31447W        W90950  39.038  43.871  13.849
31448W        W90951  19.638   0.270  13.431
31449W        W90952   2.349  34.467   3.309
31450W        W90953   3.312  18.278   2.751
31451W        W90954  16.072  15.749   5.322
31452W        W90955   7.799  20.689  13.502
31453W        W90956  28.469  35.972   3.235
31454W        W90957  11.718  37.054   2.269
31455W        W90958   7.373  30.477   0.909
31456W        W90959  27.197  15.328   4.716
31457W        W90960  12.169  14.280   2.723
31458W        W90961   0.953  22.091   2.181
31459W        W90962  41.489  31.107   3.345
31460W        W90963  20.583  13.283   2.313
31461W        W90964  15.714  30.467  13.535
31462W        W90965  14.786   6.752  11.870
31463W        W90966   4.301   5.864  13.475
31464W        W90967  34.078   9.183   0.364
31465W        W90968  37.518  23.072  14.891
31466W        W90969   3.714   6.251  12.846
31467W        W90970  34.115   6.247  10.900
31468W        W90971  15.290  36.993   4.278
31469W        W90972  21.172  20.273   1.925
31470W        W90973  38.534   7.705   0.353
31471W        W90974  18.599   8.375   2.285
31472W        W90975  14.696   7.700  12.010
31473W        W90976  39.056  13.677   0.281
31474W        W90977  28.464  35.512  11.472
31475W        W90978  23.097  17.199   4.656
31476W        W90979  12.722  29.552   4.625
31477W        W90980   9.351  41.832   3.212
31478W        W90981  36.366  40.365  12.948
31479W        W90982   3.266  30.090  12.058
31480W        W90983  43.376   3.715  13.926
31481W        W90984   5.877  10.822   4.113
31482W        W90985  44.944  28.938  12.828
31483W        W90986  35.982  14.744   4.779
31484W        W90987  23.567  22.182  11.981
31485W        W90988  33.974   8.770   2.282
31486W        W90989  33.915   8.834   1.440
31487W        W90990   5.405  35.929   2.828
31488W        W90991  33.417  32.494  14.351
31489W        W90992  15.125  34.070   2.903
31490W        W90993  14.708   9.168   1.260
31491W        W90994   9.837  26.681  12.873
31492W        W90995  20.238  31.950   0.800
31493W        W90996  35.035  29.615  12.391
31494W        W90997   1.391  35.520  11.071
31495W        W90998  41.384  14.761  11.057
31496W        W90999  16.767  11.288   0.751
31497W        W91000  36.422  16.307   4.743
31498W        W91001  15.592  39.409   1.367
31499W        W91002  26.619  28.992  14.775
31500W        W91003  33.472  16.655   2.399
31501W        W91004  21.561  31.607  13.446
31502W        W91005   3.939  36.377   3.300
31503W        W91006  27.082   4.726  14.506
31504W        W91007  40.903  18.548  11.384
31505W        W91008   8.196  15.143   0.372
31506W        W91009  17.157  43.960  13.394
31507W        W91010  29.427  31.429   0.936
31508W        W91011  16.678  22.247   1.828
31509W        W91012  34.416  40.829  11.117
31510W        W91013   5.437  18.259   0.380
31511W        W91014   2.281  29.999  13.518
31512W        W91015   7.686  33.967  14.914
31513W        W91016   0.800  27.071   0.332
31514W        W91017  16.310  43.878  14.993
31515W        W91018  44.916   7.824   2.381
31516W        W91019   8.766  35.086  14.822
31517W        W91020   1.349  39.430  13.438
31518W        W91021  14.338   0.387  13.951
31519W        W91022  24.578   4.235   0.734
31520W        W91023  27.021  14.292   4.623
31521W        W91024  26.171  30.659  12.526
31522W        W91025  21.612   1.267   5.692
31523W        W91026  22.108   4.714   3.868
31524W        W91027  21.122  39.890  12.039
31525W        W91028  16.784   4.781   4.329
31526W        W91029  43.491  17.169  14.462
31527W        W91030  31.404  18.187   2.760
31528W        W91031  35.013   6.323   4.269
31529W        W91032  20.766  12.333  11.024
31530W        W91033   4.237  37.495  10.998
31531W        W91034  20.730  29.002  14.816
31532W        W91035  20.198   7.218  13.915
31533W        W91036  24.673  42.980   3.749
31534W        W91037  30.421  30.983   1.239
31535W        W91038  12.117  28.063  10.632
31536W        W91039  26.070  43.922   1.257
31537W        W91040   1.423  27.603  12.379
31538W        W91041  42.507  14.616  10.921
31539W        W91042  10.668  21.163  11.469
31540W        W91043  16.812   5.217  11.112
31541W        W91044  36.392  43.373  11.505
31542W        W91045   5.206   2.842  11.405
31543W        W91046  44.892   1.434   1.844
31544W        W91047  39.478  35.561  10.621
31545W        W91048  11.657  22.092   0.298
31546W        W91049  22.240  44.824   0.950
31547W        W91050  24.136  26.097  13.830
31548W        W91051  41.538  29.175  11.067
31549W        W91052  40.867   8.794   1.399
31550W        W91053  16.152  40.527   3.333
31551W        W91054   2.797  16.780  12.948
31552W        W91055  11.851  17.305   3.679
31553W        W91056   3.827   8.824   1.695
31554W        W91057   5.409  32.023  10.430
31555W        W91058   5.922  24.491  12.371
31556W        W91059  31.631  21.122  11.874
31557W        W91060  38.065  28.938  14.968
31558W        W91061  12.790  19.046   4.323
31559W        W91062  32.057  33.427   0.733
31560W        W91063  16.694  24.572   0.792
31561W        W91064  25.708  14.824  11.876
31562W        W91065   1.759  24.522   5.180
31563W        W91066  22.055  37.880  13.544
31564W        W91067  42.811  35.025  14.985
31565W        W91068   2.866  35.542   0.371
31566W        W91069   0.887   2.462  14.766
31567W        W91070  18.652  16.246  11.943
31568W        W91071  33.520   6.721   3.228
31569W        W91072  32.597  40.531  11.434
31570W        W91073  27.174  10.271  11.542
31571W        W91074   3.339  28.003  11.394
31572W        W91075   2.882  17.213   0.824
31573W        W91076  32.102  29.105   4.824
31574W        W91077  37.371  14.734   1.234
31575W        W91078   0.969   9.383   1.364
31576W        W91079  36.949  31.049  10.445
31577W        W91080  27.658   8.171   3.696
31578W        W91081  33.016  16.301   4.252
31579W        W91082   3.863  16.740   2.308
31580W        W91083  40.517   1.897  13.348
31581W        W91084  10.867  41.372  13.453
31582W        W91085   8.191  33.394  10.565
31583W        W91086  24.154  44.380  10.543
31584W        W91087  34.515  44.291   3.333
31585W        W91088  23.701  20.225  14.988
31586W        W91089  25.580  38.847  12.017
31587W        W91090  40.540   9.236  10.548
31588W        W91091  20.158  30.945  13.395
31589W        W91092  34.085  28.985  13.833
31590W        W91093   9.176   5.822   0.748
31591W        W91094  17.067  25.593  13.862
31592W        W91095  16.703  39.051  12.053
31593W        W91096  17.280  20.258  12.045
31594W        W91097  37.523  19.724   0.848
31595W        W91098  41.795  31.647  11.051
31596W        W91099  35.432  15.158   3.299
31597W        W91100  15.790   5.762  14.497
31598W        W91101  25.019  33.045  13.882
31599W        W91102  41.821   1.348  13.532
31600W        W91103  25.188   9.680  10.930
31601W        W91104  28.537  27.595   2.254
31602W        W91105   6.300   9.703   1.265
31603W        W91106   3.829  20.598  13.409
31604W        W91107  23.662   1.805  13.307
31605W        W91108  12.206  17.159  11.474
31606W        W91109  20.613  43.015   1.798
31607W        W91110  31.132  41.945   0.258
31608W        W91111  41.442  11.236  10.919
31609W        W91112  29.112  26.106   4.645
31610W        W91113   3.343  22.665   1.769
31611W        W91114  30.626  32.408  11.962
31612W        W91115   4.860  37.063  14.872
31613W        W91116  33.507  29.972   3.865
31614W        W91117  14.629   9.743  10.643
31615W        W91118  31.035   3.368   1.422
31616W        W91119  33.070  30.619   1.389
31617W        W91120  23.017  13.710  13.369
31618W        W91121  38.039   0.882  11.386
31619W        W91122  34.449  27.050  14.376
31620W        W91123  13.613  42.902  14.295
31621W        W91124  42.890  30.489  14.003
31622W        W91125  21.146  26.518   1.774
31623W        W91126  42.287  25.584   2.671
31624W        W91127  18.685  11.209  11.905
31625W        W91128  16.618   5.387  13.546
31626W        W91129  34.090  24.697   1.254
31627W        W91130  28.939   2.861   4.763
31628W        W91131  30.643  17.641  13.491
31629W        W91132  37.407  26.698   2.180
31630W        W91133  16.229  41.484  11.605
31631W        W91134  20.131   8.798   1.358
31632W        W91135  27.601  40.343  14.811
31633W        W91136  30.654   2.418   2.830
31634W        W91137  37.464  31.568   2.673
31635W        W91138   5.331  26.171  12.993
31636W        W91139  34.876  43.766   0.878
31637W        W91140  41.975  36.011   9.975
31638W        W91141  10.253   1.429  13.797
31639W        W91142  14.124   7.236  14.823
31640W        W91143  22.527   7.875  13.512
31641W        W91144   0.483  41.385  11.876
31642W        W91145  30.933   5.209   0.448
31643W        W91146  10.254   1.840  11.990
31644W        W91147  43.375   0.293  13.913
31645W        W91148  38.906  11.148   4.240
31646W        W91149   2.929  18.720   1.424
31647W        W91150  44.454  10.667  10.912
31648W        W91151  13.160  22.066  10.440
31649W        W91152  13.745  21.176  14.878
31650W        W91153  36.574  35.392   0.774
31651W        W91154  12.675  12.224   0.861
31652W        W91155  25.097   8.245  12.383
31653W        W91156   2.333  20.214  14.449
31654W        W91157  30.447  23.197  11.969
31655W        W91158  38.943  35.559  10.612
31656W        W91159   7.873  18.778   1.363
31657W        W91160  21.605  20.699   1.366
31658W        W91161  30.591   7.386  13.796
31659W        W91162   4.725   8.861  14.326
31660W        W91163   3.396  15.162   1.255
31661W        W91164  32.564  40.902  12.872
31662W        W91165   7.849  27.495  12.967
31663W        W91166  16.138  22.732   1.326
31664W        W91167  31.980  12.144  13.968
31665W        W91168  42.370  44.002  11.592
31666W        W91169  27.191  11.226   0.951
31667W        W91170  11.811   8.658   1.300
31668W        W91171  24.071   8.887   9.946
31669W        W91172   9.172  19.537   2.256
31670W        W91173  43.323  11.682  11.086
31671W        W91174  37.853  30.082   4.635
31672W        W91175   6.869   9.672   1.259
31673W        W91176  21.126  30.551  12.466
31674W        W91177   8.791  28.445  13.881
31675W        W91178  44.320  23.644  14.511
31676W        W91179  33.991  39.883   3.813
31677W        W91180  20.662  11.249   2.875
31678W        W91181  20.249   2.726   0.329
31679W        W91182  36.373  38.471   2.676
31680W        W91183  40.843   7.696   3.641
31681W        W91184   6.784  35.411  11.590
31682W        W91185  40.891   2.905   0.470
31683W        W91186  37.894  39.811  13.372
31684W        W91187   7.350  24.503  12.085
31685W        W91188   4.872  43.294   3.185
31686W        W91189  44.808  16.650   9.957
31687W        W91190  24.655  36.965   2.812
31688W        W91191  44.920  21.138   4.672
31689W        W91192  35.016  39.316   3.728
31690W        W91193  36.994  22.077   0.738
31691W        W91194  15.308  24.607   3.771
31692W        W91195  34.995  13.259  10.929
31693W        W91196  35.565   0.978  14.927
31694W        W91197   7.367  17.672   3.345
31695W        W91198   4.829  44.293   3.167
31696W        W91199  27.640   8.218  13.919
31697W        W91200  32.613  29.603  11.911
31698W        W91201   1.856   9.860  13.512
31699W        W91202  11.349  26.685  11.564
31700W        W91203  16.741   3.262  11.905
31701W        W91204  18.117  34.917  12.842
31702W        W91205  28.066   9.277   0.810
31703W        W91206  39.392  41.969  14.332
31704W        W91207  27.194  30.964   4.128
31705W        W91208  21.692  42.775  10.617
31706W        W91209  16.592  10.861  11.021
31707W        W91210   8.222  36.987  14.471
31708W        W91211   6.853  23.707   1.426
31709W        W91212  25.179   8.675  11.562
31710W        W91213  30.949  28.665   1.267
31711W        W91214  25.658  25.590  10.415
31712W        W91215  38.051  21.604   0.401
31713W        W91216   5.734  41.915   0.464
31714W        W91217  13.763  33.600  12.462
31715W        W91218  36.408  43.473   2.303
31716W        W91219  23.093  30.954   3.806
31717W        W91220  13.237   8.815   4.144
31718W        W91221  41.029  37.582   3.629
31719W        W91222  19.227   5.329  13.405
31720W        W91223  33.072  19.652   4.124
31721W        W91224  37.520  40.027  13.464
31722W        W91225  31.066  27.083   0.461
31723W        W91226   7.848  27.194  11.083
31724W        W91227  28.503  37.986   3.230
31725W        W91228   6.349   2.359  11.613
31726W        W91229  40.304  42.406  12.052
31727W        W91230  21.194  28.078  13.821
31728W        W91231   8.170   5.350  11.560
31729W        W91232  30.923   1.885   3.789
31730W        W91233  24.688  33.009  12.035
31731W        W91234  39.891  17.139   0.955
31732W        W91235  12.202  17.676   4.638
31733W        W91236   2.811   0.773  14.960
31734W        W91237  22.706  27.031  11.497
31735W        W91238   4.731  41.510   1.784
31736W        W91239  24.618  25.490   4.701
31737W        W91240  13.268  31.640   1.311
31738W        W91241  28.458  25.552  11.907
31739W        W91242   6.230  18.072  13.351
31740W        W91243  31.509  14.106   9.976
31741W        W91244  31.632  36.476  14.811
31742W        W91245   7.249  12.152   1.903
31743W        W91246   8.847  38.973   3.812
31744W        W91247  35.505  23.578  12.059
31745W        W91248  40.544  10.145   2.362
31746W        W91249   1.843  21.608   4.171
31747W        W91250  34.115  33.104   1.788
31748W        W91251  32.636  15.098   1.754
31749W        W91252   0.309  18.223   1.854
31750W        W91253  39.024   4.805   9.621
31751W        W91254  13.113  24.678   1.450
31752W        W91255  14.761  39.366  14.841
31753W        W91256  25.490  40.394  13.819
31754W        W91257  23.102  15.286   0.415
31755W        W91258  37.365  33.919  12.521
31756W        W91259  30.074  39.062  13.468
31757W        W91260  35.937  25.664   1.408
31758W        W91261  14.813  24.064   4.645
31759W        W91262   8.716  25.517   2.880
31760W        W91263  39.934  37.086   0.898
31761W        W91264  34.943  14.596  11.596
31762W        W91265  25.074  18.784  14.414
31763W        W91266  35.377  21.712   2.183
31764W        W91267  29.630  29.953  14.449
31765W        W91268  32.493   5.734   0.801
31766W        W91269  25.619  42.903  14.406
31767W        W91270  31.923  29.620   3.182
31768W        W91271  41.363  34.575  12.875
31769W        W91272   8.160  14.129  10.533
31770W        W91273   1.963  20.528  13.901
31771W        W91274  21.029  30.532  13.869
31772W        W91275   9.851  12.789   1.325
31773W        W91276  31.572  14.264  14.463
31774W        W91277  38.372  21.185   3.690
31775W        W91278   4.804  42.860  11.003
31776W        W91279  19.127   3.750   3.814
31777W        W91280  15.764   6.405  11.913
31778W        W91281  41.312  12.702  13.356
31779W        W91282  23.563  28.008   0.763
31780W        W91283  24.175  44.384  12.940
31781W        W91284  18.193  25.127   1.222
31782W        W91285  33.429  42.440  12.998
31783W        W91286  42.907  23.226   3.199
31784W        W91287  11.751  23.213   2.885
31785W        W91288  40.442  34.425   0.242
31786W        W91289  10.300  31.601   5.314
31787W        W91290   1.291  13.749   3.758
31788W        W91291  21.102  28.941   0.798
31789W        W91292   7.798  24.140   0.965
31790W        W91293  44.264  33.082  11.935
31791W        W91294  21.671  15.244  12.990
31792W        W91295   8.369   5.867   0.383
31793W        W91296  24.489   5.838  14.301
31794W        W91297  41.300  17.615  14.776
31795W        W91298  29.101  18.290   4.223
31796W        W91299  20.594   6.827   2.744
31797W        W91300  39.890  23.055   1.885
31798W        W91301  35.862  20.641   2.352
31799W        W91302  26.125   2.865   3.858
31800W        W91303  10.147   8.163  12.923
31801W        W91304   1.750  26.143  14.859
31802W        W91305   9.744  23.068  10.467
31803W        W91306   5.303  13.242   0.891
31804W        W91307   5.795  15.636  14.864
31805W        W91308   1.927  24.184   0.929
31806W        W91309  21.737   0.959   3.745
31807W        W91310  16.802  14.755   1.891
31808W        W91311  40.459   3.881  11.953
31809W        W91312   6.374   0.272  13.493
31810W        W91313   7.698  44.827  14.428
31811W        W91314  44.766  34.083   4.673
31812W        W91315  43.894  43.889  12.828
31813W        W91316   8.766  19.557   9.949
31814W        W91317  39.918  12.809   0.441
31815W        W91318  33.090  21.025  10.466
31816W        W91319  29.047   0.420   1.800
31817W        W91320  21.223  27.110   0.855
31818W        W91321   8.308  13.752   5.240
31819W        W91322  20.722  41.509   3.778
31820W        W91323  36.549   5.743  10.984
31821W        W91324  14.599  12.323   2.402
31822W        W91325   5.875  39.433  12.453
31823W        W91326  33.916   6.221  11.573
31824W        W91327   3.897   0.804  11.127
31825W        W91328   5.696   3.856  10.609
31826W        W91329  25.577   8.225   1.319
31827W        W91330  34.116   7.815  10.998
31828W        W91331  35.990   8.821   1.775
31829W        W91332  34.588  11.371  13.010
31830W        W91333  21.173   9.392   3.869
31831W        W91334   0.493  16.710   5.708
31832W        W91335   9.271  13.684  11.441
31833W        W91336  18.239  18.546  14.318
31834W        W91337  39.536   2.760   4.764
31835W        W91338  14.118  23.700   1.832
31836W        W91339  30.079  38.402   0.792
31837W        W91340  11.724  42.485  12.356
31838W        W91341  33.900  25.084  10.498
31839W        W91342   4.229  31.921   3.155
31840W        W91343  19.170  35.854   2.886
31841W        W91344  32.559  20.746   4.783
31842W        W91345   1.762  30.118  10.896
31843W        W91346  19.188  32.539   2.401
31844W        W91347  26.574  16.738   0.394
31845W        W91348  13.803  43.971   2.721
31846W        W91349   0.961  24.166   0.298
31847W        W91350  38.030  42.839  12.007
31848W        W91351  10.650  34.872   3.724
31849W        W91352  33.088  35.000  13.427
31850W        W91353   7.289  36.504  11.015
31851W        W91354   7.176  13.347   2.275
31852W        W91355  20.230   6.382  11.391
31853W        W91356  15.299  42.896  13.329
31854W        W91357  25.002  43.958  12.922
31855W        W91358   9.227   3.886   4.116
31856W        W91359  14.116  22.621  10.537
31857W        W91360   4.837  28.102  11.422
31858W        W91361   4.313   6.419   4.334
31859W        W91362  21.624  24.059  14.846
31860W        W91363  37.420  35.904   3.272
31861W        W91364  23.711   9.358  10.537
31862W        W91365  21.201  42.367   3.796
31863W        W91366  20.268  10.260   1.748
31864W        W91367  14.298   7.405   4.162
31865W        W91368  29.639   7.799  13.360
31866W        W91369  27.610  40.351   1.726
31867W        W91370   4.444   4.885  12.012
31868W        W91371  44.327  34.023  12.064
31869W        W91372  29.477   0.289   2.700
31870W        W91373  35.499   0.274  11.386
31871W        W91374   5.323   7.339  14.451
31872W        W91375  33.384   4.794   2.194
31873W        W91376  37.000  25.600  14.277
31874W        W91377  43.286  29.468   3.820
31875W        W91378  23.120  22.200   4.796
31876W        W91379  38.831  35.924   1.252
31877W        W91380  23.595  26.091   0.875
31878W        W91381   7.708   7.381  14.419
31879W        W91382  26.977  25.692   3.312
31880W        W91383  27.521  16.224  13.537
31881W        W91384  34.115  23.171   1.732
31882W        W91385  12.622  40.349  13.360
31883W        W91386  35.405  33.483  13.535
31884W        W91387  30.534  29.023  13.856
31885W        W91388  18.171   2.327  12.866
31886W        W91389   3.721   8.352  10.903
31887W        W91390  21.043  39.459  10.495
31888W        W91391  38.933   1.292  14.428
31889W        W91392  40.481  29.945  13.920
31890W        W91393  33.468  18.103  10.478
31891W        W91394  20.709  26.131   2.769
31892W        W91395   0.367  17.752  13.820
31893W        W91396  26.173  28.989  14.864
31894W        W91397  34.112   5.849   4.256
31895W        W91398  36.381  10.724   0.789
31896W        W91399  20.132  20.074   1.921
31897W        W91400  42.032  28.477   4.257
31898W        W91401   9.236   8.266  10.932
31899W        W91402  22.108  42.473   1.246
31900W        W91403  26.482  26.682  12.559
31901W        W91404  37.484  41.869  14.988
31902W        W91405  24.554   0.352  12.513
31903W        W91406  38.431  20.254   2.860
31904W        W91407  28.160  24.562   1.877
31905W        W91408   6.206  41.037  12.419
31906W        W91409  20.100  41.847  14.342
31907W        W91410   4.937   7.178  14.456
31908W        W91411  20.739  28.593   1.216
31909W        W91412  28.182  35.386   2.729
31910W        W91413  14.105  34.119   3.199
31911W        W91414   4.700  12.654   1.869
31912W        W91415  27.533  23.047  14.317
31913W        W91416  28.614  32.984  13.054
31914W        W91417  30.445  18.603   1.704
31915W        W91418  11.269  14.101   0.335
31916W        W91419  37.922  28.443  10.935
31917W        W91420  38.542  14.284   0.259
31918W        W91421  27.628  27.097   1.408
31919W        W91422   8.656  25.699   5.251
31920W        W91423  41.992  19.646   3.339
31921W        W91424  12.775   7.733   1.350
31922W        W91425  29.959  38.982   1.292
31923W        W91426  23.573   4.218  11.855
31924W        W91427  10.265  39.327   2.274
31925W        W91428  17.796   1.447   4.243
31926W        W91429   0.782  13.202   0.264
31927W        W91430  21.080  35.458   0.798
31928W        W91431   1.943  43.322   2.343
31929W        W91432   0.836  15.263  14.877
31930W        W91433  31.124  16.297  13.380
31931W        W91434  29.921  38.331   3.763
31932W        W91435  25.528  42.446   0.788
31933W        W91436  23.735  37.878   2.829
31934W        W91437  35.033  16.791  14.458
31935W        W91438  21.698  44.297  10.081
31936W        W91439  29.649  32.483   2.250
31937W        W91440  21.607  12.219   2.722
31938W        W91441  16.183   5.419  13.955
31939W        W91442   5.200  41.496  10.994
31940W        W91443  39.512   4.706  10.994
31941W        W91444  37.383  29.009   4.699
31942W        W91445  23.658  28.046  10.893
31943W        W91446  39.037  28.476   4.804
31944W        W91447   2.336  37.903   1.451
31945W        W91448  39.044  21.017   0.271
31946W        W91449   7.759  13.706  13.418
31947W        W91450  41.811  36.379  11.945
31948W        W91451  19.070   7.756   2.783
31949W        W91452   4.932  43.297   0.828
31950W        W91453  19.133  30.963   1.260
31951W        W91454  19.655   3.359   3.691
31952W        W91455  28.048  28.487  14.770
31953W        W91456  12.315  24.722   3.277
31954W        W91457  21.534  42.798  10.152
31955W        W91458   4.228   1.785   1.886
31956W        W91459  26.619  43.855  12.436
31957W        W91460  11.674  37.347  10.983
31958W        W91461  26.056  21.725  12.062
31959W        W91462  34.018   0.816   1.836
31960W        W91463  34.020  20.051  11.941
31961W        W91464  18.618  10.863  12.573
31962W        W91465   3.343   4.718  11.594
31963W        W91466   2.916   8.873   4.316
31964W        W91467  31.576  33.457  11.498
31965W        W91468  44.960   6.877   0.768
31966W        W91469   0.979  20.095  10.132
31967W        W91470  38.459  30.607  14.805
31968W        W91471  24.069   1.483   4.187
31969W        W91472   2.937  23.128  12.545
31970W        W91473  18.064  29.962  13.015
31971W        W91474  40.974   3.899  12.892
31972W        W91475   5.386  29.449  14.456
31973W        W91476  44.904  42.304   0.856
31974W        W91477  12.358   5.856   2.304
31975W        W91478   9.743  37.900  14.421
31976W        W91479  30.650  17.582   4.123
31977W        W91480  26.633   9.745  12.005
31978W        W91481  38.469  34.607   0.795
31979W        W91482  28.645  37.910   1.384
31980W        W91483  30.584  40.539   2.725
31981W        W91484  17.186  43.485  11.417
31982W        W91485  13.718  38.000   3.654
31983W        W91486  38.865  22.030   4.146
31984W        W91487  11.359  20.080  14.347
31985W        W91488  24.997  30.565  11.436
31986W        W91489  23.026   9.711   3.852
31987W        W91490  12.287   3.401   4.218
31988W        W91491  20.028   0.896  10.549
31989W        W91492   5.314   1.739  10.477
31990W        W91493  26.560  24.096  12.514
31991W        W91494  29.172  38.892  13.880
31992W        W91495  33.455  16.602   1.221
31993W        W91496   7.742  44.266  13.470
31994W        W91497  41.538  35.980  10.473
31995W        W91498  34.080  14.293   4.276
31996W        W91499  16.278  18.173   0.762
31997W        W91500  36.956  38.839   3.200
31998W        W91501   4.820  22.694   4.134
31999W        W91502  19.044   1.271  14.299
32000W        W91503   7.300  43.460  11.908
32001W        W91504  42.923  38.014  12.394
32002W        W91505  40.832  30.585  12.471
32003W        W91506  42.523  37.851   3.339
32004W        W91507  10.244  21.545  10.539
32005W        W91508  32.932  13.793   2.855
32006W        W91509  33.971   5.379   4.750
32007W        W91510  19.151   3.307  13.840
32008W        W91511  10.792  13.195  12.085
32009W        W91512  17.578  17.232   3.646
32010W        W91513   0.770  19.064  12.501
32011W        W91514  25.634  40.365  10.534
32012W        W91515  21.700  44.775  11.483
32013W        W91516  13.788   0.951   4.333
32014W        W91517  29.457   0.930   0.319
32015W        W91518  19.646  28.441  13.339
32016W        W91519   6.417  28.442  11.412
32017W        W91520   3.251  15.660  14.822
32018W        W91521  40.912  17.083  11.072
32019W        W91522   6.684  36.958   3.335
32020W        W91523  44.416  20.239   2.896
32021W        W91524  11.860  13.695  11.921
32022W        W91525  24.142  10.773   0.395
32023W        W91526  34.527  33.572   0.466
32024W        W91527  27.949  22.222  11.608
32025W        W91528  23.699  20.114   0.858
32026W        W91529   6.742  44.878  12.371
32027W        W91530   2.802  39.394  14.834
32028W        W91531   8.672   4.765  10.918
32029W        W91532   3.437  21.047  10.105
32030W        W91533  20.217  39.954  12.344
32031W        W91534  19.169  11.320   4.691
32032W        W91535  33.428  14.310  10.046
32033W        W91536  13.785   4.732   3.731
32034W        W91537   7.668  35.546   4.194
32035W        W91538  39.513   5.783  11.550
32036W        W91539   4.939   5.893  10.478
32037W        W91540   5.783  35.884   0.302
32038W        W91541  36.043  18.092  12.910
32039W        W91542   9.338  12.752   4.703
32040W        W91543  21.701  42.351  11.925
32041W        W91544   8.217  18.673   2.793
32042W        W91545  21.530   7.218   3.816
32043W        W91546  37.457  40.837   2.244
32044W        W91547  26.668   8.872   3.707
32045W        W91548  34.404  15.212  14.016
32046W        W91549   8.799  13.156   4.794
32047W        W91550  19.116  43.378   0.905
32048W        W91551  35.018  23.725   2.297
32049W        W91552   6.811  28.990  11.022
32050W        W91553  19.540   9.838  11.389
32051W        W91554   7.295  34.913  12.837
32052W        W91555   0.450   8.178   1.745
32053W        W91556  39.385  12.639   1.798
32054W        W91557  35.494  19.635  14.472
32055W        W91558   5.332  30.523   3.167
32056W        W91559  22.708  30.976  11.889
32057W        W91560  23.091  24.581   3.241
32058W        W91561  43.370  14.301   2.270
32059W        W91562  14.796  18.240   1.837
32060W        W91563  12.748  33.902   5.313
32061W        W91564  13.698  40.001  14.312
32062W        W91565  21.747  26.132   2.743
32063W        W91566   2.386  22.625  11.015
32064W        W91567  31.092   0.456  12.560
32065W        W91568  33.941  15.583  14.816
32066W        W91569   6.716  29.490   3.352
32067W        W91570   7.726  19.235   4.654
32068W        W91571  12.202  25.179  14.855
32069W        W91572   2.242  21.108  11.960
32070W        W91573  15.769  15.219   3.247
32071W        W91574  13.752   9.875  14.023
32072W        W91575  29.950  44.903  12.553
32073W        W91576  22.044  39.356  14.327
32074W        W91577  27.481  17.623   2.212
32075W        W91578  18.624   0.310   2.252
32076W        W91579  29.057  36.864   0.417
32077W        W91580  19.729  24.494  13.514
32078W        W91581  42.482  10.186   1.369
32079W        W91582  16.599  12.615   4.258
32080W        W91583   5.200  35.037   4.808
32081W        W91584  16.797   2.235  13.009
32082W        W91585  23.091   6.182  14.845
32083W        W91586  42.310   1.802  12.468
32084W        W91587   7.309   0.783  14.452
32085W        W91588  32.972  19.045  14.459
32086W        W91589  27.524  39.412   1.304
32087W        W91590  15.644  40.988   0.735
32088W        W91591  25.576  34.070  13.318
32089W        W91592  32.099  39.978   0.881
32090W        W91593  11.686  16.790  14.821
32091W        W91594  37.847  30.501  11.930
32092W        W91595   4.319   1.427   2.802
32093W        W91596  12.782  38.934   4.620
32094W        W91597  42.935  27.192   3.776
32095W        W91598  17.768  18.273   3.810
32096W        W91599  33.917   5.226   3.269
32097W        W91600  42.337  26.955   2.276
32098W        W91601  35.039  36.987  14.764
32099W        W91602   1.849  15.812  11.612
32100W        W91603  26.175  12.851  13.496
32101W        W91604  43.345  14.203  13.023
32102W        W91605  24.604   8.666  12.495
32103W        W91606  23.493   3.261   5.153
32104W        W91607   3.377  38.562  13.483
32105W        W91608  13.722  18.731   2.726
32106W        W91609  37.504   9.838  13.905
32107W        W91610  38.338  42.307  12.358
32108W        W91611   8.736  26.120  10.526
32109W        W91612  19.741   7.249   2.324
32110W        W91613  25.585  40.975  11.901
32111W        W91614  31.122  10.249  10.511
32112W        W91615  15.666  12.744  12.394
32113W        W91616   6.834   2.285   3.162
32114W        W91617  19.078  13.325   4.825
32115W        W91618  17.299  19.181   2.683
32116W        W91619   4.798  42.494  13.839
32117W        W91620  16.681  34.545  10.976
32118W        W91621  21.730  18.638   2.336
32119W        W91622  14.659  26.039   3.303
32120W        W91623  27.973   7.196   2.264
32121W        W91624  10.742   3.803  11.957
32122W        W91625  22.021  33.595   0.812
32123W        W91626   1.276  42.299   1.730
32124W        W91627  28.517  40.540  11.474
32125W        W91628   4.938   1.374   2.297
32126W        W91629  31.593  36.484   2.209
32127W        W91630  21.736  27.164  12.368
32128W        W91631   4.944  38.995   4.833
32129W        W91632  35.573  28.458  13.901
32130W        W91633  39.937   4.228   3.322
32131W        W91634  27.119   8.175  12.420
32132W        W91635  15.745  16.246  13.008
32133W        W91636  19.080  37.359   9.962
32134W        W91637  12.664   7.208  10.478
32135W        W91638  28.941   1.731   0.412
32136W        W91639  43.811  17.646  12.078
32137W        W91640   4.429  39.020  14.460
32138W        W91641  40.860   9.680   1.263
32139W        W91642  24.105   2.954  14.333
32140W        W91643  43.924  39.831   4.631
32141W        W91644  35.410  28.084  14.369
32142W        W91645  13.662  31.489  11.892
32143W        W91646   6.755  24.541  14.815
32144W        W91647  22.712   5.816   0.735
32145W        W91648   3.292  43.954  13.043
32146W        W91649  43.973  38.366   2.661
32147W        W91650   3.953  36.415   0.285
32148W        W91651  38.836  18.703  14.834
32149W        W91652  11.183  39.316  11.112
32150W        W91653  32.579  34.487  14.495
32151W        W91654   8.382  37.508  11.039
32152W        W91655  38.454  20.053  12.381
32153W        W91656  13.628  11.332  12.047
32154W        W91657  13.342  20.196  13.009
32155W        W91658   9.811  30.097  12.982
32156W        W91659  18.234  38.820  12.898
32157W        W91660  15.634  18.765  14.294
32158W        W91661  11.333   4.857  12.853
32159W        W91662  25.544   6.229   1.287
32160W        W91663  23.706   0.311   3.364
32161W        W91664  20.699   3.297  13.508
32162W        W91665  40.467  20.551  14.915
32163W        W91666  11.639  10.686  13.802
32164W        W91667  25.635  15.775  11.384
32165W        W91668  22.125  41.868   1.449
32166W        W91669  23.639   8.767   3.327
32167W        W91670  16.170  35.430  12.043
32168W        W91671  13.228  42.977   4.664
32169W        W91672  23.202  30.454  13.932
32170W        W91673  15.133  28.963  14.834
32171W        W91674  21.565  26.089  10.992
32172W        W91675  33.518  34.503   0.760
32173W        W91676  29.950   0.911   3.633
32174W        W91677   3.819  24.057   3.325
32175W        W91678   1.414  13.629   4.735
32176W        W91679  35.474  13.218  12.006
32177W        W91680  25.516  28.977  13.524
32178W        W91681  23.067   3.289   2.696
32179W        W91682  36.083   1.292  13.978
32180W        W91683  17.307  28.082   1.804
32181W        W91684   8.718  44.300   2.722
32182W        W91685   1.894  44.830   3.300
32183W        W91686  24.063  19.628   0.246
32184W        W91687  44.398  22.133  11.402
32185W        W91688  15.253  22.097   3.375
32186W        W91689  19.744   7.868   2.289
32187W        W91690  44.007  12.690   2.675
32188W        W91691  14.793  31.570  11.511
32189W        W91692  42.825  15.632   2.330
32190W        W91693  12.180  10.173  11.598
32191W        W91694  35.085  33.051  12.024
32192W        W91695  31.928  43.764   4.688
32193W        W91696  30.503  36.891  13.340
32194W        W91697  12.248  14.730  10.074
32195W        W91698  12.327   4.794   3.774
32196W        W91699  37.563  21.559   0.392
32197W        W91700  16.652  10.833  11.945
32198W        W91701  20.215  21.545  12.851
32199W        W91702   0.372   7.892  13.352
32200W        W91703   2.798  39.986  14.771
32201W        W91704   3.903   3.285   0.287
32202W        W91705  29.461  41.357  10.945
32203W        W91706  29.425  23.217   3.721
32204W        W91707  33.038   3.799  13.510
32205W        W91708  20.067  39.470  12.542
32206W        W91709  38.055   2.904   3.835
32207W        W91710  31.069  31.120   4.601
32208W        W91711  25.584  33.535  12.400
32209W        W91712  14.236   8.871  12.579
32210W        W91713  23.224  34.945  11.534
32211W        W91714  27.500  11.749   2.821
32212W        W91715  29.928  30.425  14.484
32213W        W91716  15.667  24.987  12.965
32214W        W91717  24.526  16.740   2.714
32215W        W91718   2.958  21.053  14.406
32216W        W91719  42.933  21.260  13.921
32217W        W91720   2.430   1.769   9.998
32218W        W91721  14.327  20.546   0.322
32219W        W91722  28.032  28.617   2.302
32220W        W91723  37.424  15.265   1.339
32221W        W91724   5.870  14.196   3.868
32222W        W91725   4.917  37.057   3.865
32223W        W91726  41.330  12.362   3.350
32224W        W91727  34.068  12.686  12.416
32225W        W91728   8.285   2.332   4.310
32226W        W91729   4.385   8.283   2.678
32227W        W91730  29.585  16.076  14.979
32228W        W91731  31.498  42.418  12.476
32229W        W91732  14.699  30.547   3.250
32230W        W91733   1.363   9.281   3.639
32231W        W91734  18.684  41.362  12.474
32232W        W91735   6.371  20.708   1.450
32233W        W91736  24.516  15.605   4.261
32234W        W91737  36.953  14.301   3.276
32235W        W91738  18.258   8.247   0.406
32236W        W91739  16.092  20.162   3.727
32237W        W91740   0.767  28.029   1.864
32238W        W91741  31.974   0.429   2.722
32239W        W91742  30.034  44.270  14.471
32240W        W91743  28.155  13.325  14.318
32241W        W91744  42.305  40.919   0.754
32242W        W91745   0.788  25.165   2.359
32243W        W91746  26.154  32.104   1.917
32244W        W91747  24.650  23.199  11.920
32245W        W91748  18.669  35.895  12.992
32246W        W91749  19.064  11.732  12.890
32247W        W91750  22.211  10.332  10.567
32248W        W91751  41.386  37.428  10.926
32249W        W91752  34.929  12.801   4.659
32250W        W91753  21.667  35.085   0.336
32251W        W91754  32.422  24.024  13.950
32252W        W91755  20.033  12.771   9.973
32253W        W91756  40.514  14.635  12.466
32254W        W91757  20.536  25.178  10.976
32255W        W91758  15.770  17.170  14.418
32256W        W91759  42.374   6.202  13.920
32257W        W91760  22.220  39.350   3.145
32258W        W91761  31.970   2.797  14.992
32259W        W91762  33.910  10.311  10.474
32260W        W91763  43.368  24.210  10.585
32261W        W91764  32.093  42.445   1.742
32262W        W91765  43.508  44.460  13.449
32263W        W91766  42.831   9.218  10.988
32264W        W91767  17.172   5.315  11.950
32265W        W91768  32.624  39.902  14.383
32266W        W91769   2.336  26.182  14.336
32267W        W91770  16.603  10.377  13.047
32268W        W91771  16.748  31.501   1.755
32269W        W91772  33.536  12.345  13.381
32270W        W91773  29.005  42.358   2.831
32271W        W91774  31.125  38.911   2.806
32272W        W91775  39.007  30.579   0.311
32273W        W91776  44.807  33.974  10.914
32274W        W91777   5.703  37.513  14.900
32275W        W91778   6.854  21.110  13.454
32276W        W91779  11.304  32.930   2.216
32277W        W91780  39.948  27.126   1.308
32278W        W91781   1.293  32.621  10.438
32279W        W91782  40.889  37.538  13.927
32280W        W91783   1.478  11.184  12.064
32281W        W91784  29.967  37.415  12.553
32282W        W91785  14.826  42.298  14.862
32283W        W91786   7.388  22.688   2.348
32284W        W91787  19.273  35.489   1.215
32285W        W91788  35.881   8.739   0.402
32286W        W91789  32.483  39.826   1.736
32287W        W91790  23.627  23.579  14.938
32288W        W91791  44.432   0.819   2.369
32289W        W91792  19.603  14.266  14.934
32290W        W91793  33.494  30.059   0.256
32291W        W91794  28.989  41.907  12.012
32292W        W91795   0.927   4.914  14.022
32293W        W91796  18.665  43.976  13.801
32294W        W91797  19.674  32.481   1.820
32295W        W91798   9.188  41.880   3.816
32296W        W91799  44.388  33.127  10.429
32297W        W91800   4.737  10.834   0.359
32298W        W91801  35.951  37.889   4.797
32299W        W91802  13.707  25.560   3.744
32300W        W91803  27.653  12.258  11.981
32301W        W91804  41.916  20.163   2.390
32302W        W91805  27.959  18.576   2.807
32303W        W91806  20.075  24.000   9.965
32304W        W91807  13.322  31.540   0.902
32305W        W91808  36.417  35.363   2.189
32306W        W91809   1.332  27.964   3.201
32307W        W91810  25.653  19.636  12.846
32308W        W91811  42.848  40.016  13.324
32309W        W91812  25.572  15.701   3.844
32310W        W91813  37.549  30.602  11.889
32311W        W91814  17.085  13.299   4.626
32312W        W91815  15.186  19.283  14.866
32313W        W91816   4.861  15.146   4.697
32314W        W91817  34.095  30.543   5.234
32315W        W91818  21.632  43.384  11.973
32316W        W91819  22.630   1.763  12.545
32317W        W91820  35.903  16.283   0.935
32318W        W91821   7.752   2.451  14.930
32319W        W91822   8.814  24.497   0.935
32320W        W91823   9.228   9.271  12.468
32321W        W91824  31.105  40.857   2.709
32322W        W91825  12.807   7.190   4.128
32323W        W91826  29.512   2.906  10.491
32324W        W91827   7.727  19.598  12.045
32325W        W91828  23.087   1.814  14.336
32326W        W91829   6.838  12.661   4.608
32327W        W91830  29.531  32.952  10.911
32328W        W91831  29.618   4.367  12.949
32329W        W91832  38.350   0.764   1.851
32330W        W91833  29.564   3.894   3.776
32331W        W91834  20.766   2.882   4.780
32332W        W91835  26.466  34.120  12.517
32333W        W91836  13.351  12.705  11.510
32334W        W91837  36.020  18.556  14.468
32335W        W91838  35.399   5.713   0.248
32336W        W91839  28.516   0.945  12.015
32337W        W91840  38.504  15.126  10.435
32338W        W91841   6.400  30.045  12.512
32339W        W91842  11.263  18.197  11.939
32340W        W91843  30.025   1.892   1.722
32341W        W91844  21.171  14.731   5.118
32342W        W91845   8.291  24.639   1.318
32343W        W91846  12.256  25.648   3.177
32344W        W91847   4.771  32.987  10.475
32345W        W91848  30.110  44.457  13.433
32346W        W91849  37.003   6.188  11.575
32347W        W91850  37.996  35.968   5.118
32348W        W91851   8.306  25.646  14.764
32349W        W91852   5.418  21.096  14.325
32350W        W91853  13.270  34.927   2.877
32351W        W91854  15.298  18.729  11.929
32352W        W91855   4.247  42.502  14.391
32353W        W91856   3.258  15.590  11.374
32354W        W91857  22.051   0.868  14.340
32355W        W91858  19.670   4.848   1.442
32356W        W91859  42.407  33.429  11.511
32357W        W91860  38.953  40.940  11.076
32358W        W91861  17.711  20.120   4.645
32359W        W91862  38.352   8.398   0.902
32360W        W91863   3.747   6.231  10.111
32361W        W91864  42.776  20.190  14.760
32362W        W91865  39.955  29.107  11.044
32363W        W91866  27.182  18.574  14.806
32364W        W91867  27.096   6.917   4.239
32365W        W91868  26.662  39.448  11.592
32366W        W91869  35.951  11.851   1.238
32367W        W91870  20.218  26.164   4.184
32368W        W91871  35.388  35.499  11.410
32369W        W91872   9.823  23.098   1.358
32370W        W91873  31.126  26.551  11.988
32371W        W91874  11.359  14.723   9.945
32372W        W91875  15.623  41.880   1.761
32373W        W91876  28.150   1.944  12.990
32374W        W91877  20.067   8.210  12.986
32375W        W91878  44.981  17.714   0.311
32376W        W91879  27.174  20.690  11.454
32377W        W91880  14.735  33.048   1.404
32378W        W91881  20.060  17.751  11.122
32379W        W91882  39.012  30.119   0.362
32380W        W91883  38.074  24.595  13.342
32381W        W91884   9.371  23.692  12.847
32382W        W91885   4.215  24.975   2.418
32383W        W91886  27.498  26.465  13.316
32384W        W91887  39.426  28.944  10.566
32385W        W91888  38.973   6.769   1.845
32386W        W91889  15.789  38.511  10.107
32387W        W91890  39.410  27.133   0.766
32388W        W91891   8.213  42.372   0.889
32389W        W91892  13.319  34.486  11.859
32390W        W91893  23.720  24.485   1.399
32391W        W91894  17.152  20.120  10.583
32392W        W91895   7.267   5.198  11.998
32393W        W91896  38.461  43.805   0.453
32394W        W91897  18.079  17.194  12.442
32395W        W91898  11.344  14.645   2.334
32396W        W91899   4.313  37.426   3.372
32397W        W91900  44.311   0.837  11.125
32398W        W91901  22.703  43.947  12.923
32399W        W91902  43.935  22.217   9.666
32400W        W91903   9.343  28.567   3.641
32401W        W91904   6.916  41.944   1.867
32402W        W91905  18.629  22.659   4.714
32403W        W91906  28.444   8.777   1.707
32404W        W91907  24.549  30.428  11.395
32405W        W91908  19.773  19.277  12.440
32406W        W91909  31.442   2.458   1.290
32407W        W91910  10.261   0.370  14.411
32408W        W91911   2.814  30.998  10.488
32409W        W91912   9.240  13.717  11.104
32410W        W91913  25.574  22.150  11.924
32411W        W91914   0.834  40.907   1.892
32412W        W91915   6.385  33.427  10.521
32413W        W91916  29.483   4.309  13.463
32414W        W91917  33.128  14.249  10.462
32415W        W91918   6.204  36.959  12.085
32416W        W91919  16.725  28.645  11.572
32417W        W91920  15.233  12.285   4.604
32418W        W91921   8.847  41.412  14.296
32419W        W91922  41.299  15.285  13.423
32420W        W91923   3.253  35.980   1.220
32421W        W91924   3.935  28.037   3.278
32422W        W91925   1.401  37.840   3.798
32423W        W91926   2.898  38.835  13.909
32424W        W91927  24.069  26.048   1.733
32425W        W91928  18.142  34.068   2.403
32426W        W91929  16.810  20.038   0.867
32427W        W91930  11.126   8.239   3.757
32428W        W91931  42.492  24.676   4.293
32429W        W91932  35.096  44.419   2.833
32430W        W91933   5.390  27.688   2.332
32431W        W91934  18.275   0.860  11.596
32432W        W91935  23.711   4.917  10.591
32433W        W91936  14.175  40.018  10.100
32434W        W91937  12.295  42.790   1.286
32435W        W91938  40.492  15.624  11.467
32436W        W91939  13.600  24.565  11.922
32437W        W91940   0.761   7.265  13.792
32438W        W91941   0.252  24.051   2.805
32439W        W91942  22.726  33.904  12.564
32440W        W91943  34.943  18.227  14.834
32441W        W91944  27.592  33.427  13.936
32442W        W91945  10.362  31.934  12.409
32443W        W91946  12.205  25.083   2.323
32444W        W91947  22.533  27.573   4.649
32445W        W91948  43.931  30.504  10.518
32446W        W91949  30.956  42.864   3.653
32447W        W91950   6.702  36.406   4.296
32448W        W91951   4.752   8.780   0.961
32449W        W91952  17.767  22.251  14.870
32450W        W91953  26.558   7.255   0.784
32451W        W91954  14.769   6.729   3.146
32452W        W91955  43.845  35.897   4.240
32453W        W91956  40.987  30.146  12.862
32454W        W91957  18.574  17.262   5.232
32455W        W91958  40.434  23.228  13.827
32456W        W91959  35.098   3.841   3.649
32457W        W91960   2.888   0.768  11.586
32458W        W91961  39.862   1.247   0.962
32459W        W91962  14.249  34.574   2.671
32460W        W91963  29.433  24.548  14.813
32461W        W91964  32.068  36.552   1.794
32462W        W91965  14.792  21.254  14.355
32463W        W91966  29.473  28.170   1.426
32464W        W91967  24.009  37.084   2.770
32465W        W91968  39.982  15.788  14.881
32466W        W91969  30.619  11.827   3.282
32467W        W91970  32.911   3.331   0.856
32468W        W91971  14.098  23.533  13.922
32469W        W91972  22.612  12.638  10.947
32470W        W91973   0.300  13.817  11.998
32471W        W91974  41.425   0.298   0.831
32472W        W91975   1.747  17.661  10.425
32473W        W91976  27.092   2.854   0.805
32474W        W91977  44.401  36.027   0.962
32475W        W91978  40.408  15.234   4.788
32476W        W91979  31.563   7.743   4.183
32477W        W91980   9.685   6.210   3.845
32478W        W91981  16.223  36.574   3.806
32479W        W91982   4.265   9.306   1.319
32480W        W91983  22.150   2.811  11.893
32481W        W91984  33.914  24.483  13.816
32482W        W91985  24.576  14.262   3.700
32483W        W91986  11.824  27.017  13.893
32484W        W91987  32.398  34.553  13.942
32485W        W91988  14.766  39.534  12.350
32486W        W91989  35.467  11.337  13.915
32487W        W91990  26.178  39.421   1.270
32488W        W91991  20.612  11.822  11.119
32489W        W91992  21.084  44.413   3.752
32490W        W91993   7.775  36.419   2.384
32491W        W91994  38.381  21.747   0.296
32492W        W91995  32.061  42.490   4.678
32493W        W91996  40.397  13.813  12.462
32494W        W91997  15.309  43.432   0.788
32495W        W91998  16.235   0.330   0.420
32496W        W91999  43.935  41.463  13.939
32497W        W92000  40.416   2.947  10.420
32498W        W92001   9.216  30.620   1.843
32499W        W92002  29.644  26.070  13.807
32500W        W92003  40.318   7.210   1.724
32501W        W92004  12.274  34.437   9.925
32502W        W92005   5.411  12.826  12.525
32503W        W92006  29.170  17.679   2.368
32504W        W92007  17.234  16.570   3.745
32505W        W92008  21.191  34.480   2.847
32506W        W92009  44.893   2.832   3.659
32507W        W92010  19.647  15.213  11.993
32508W        W92011  16.622  31.956   2.255
32509W        W92012   9.728  36.561   2.299
32510W        W92013  15.597   2.771  13.462
32511W        W92014   2.919   2.415   3.288
32512W        W92015  23.680  21.650  14.003
32513W        W92016   4.739  15.229  11.401
32514W        W92017  42.838  14.622   2.321
32515W        W92018  24.639  26.062   3.638
32516W        W92019  23.707  20.621  11.453
32517W        W92020  33.408   1.820  14.382
32518W        W92021  40.406  18.167  12.548
32519W        W92022  41.978  41.368   0.873
32520W        W92023  37.353  44.345   1.388
32521W        W92024  20.611  31.421  15.000
32522W        W92025  13.243   8.292   1.222
32523W        W92026   0.452   2.798   1.438
32524W        W92027  23.642   2.819  10.550
32525W        W92028  18.125  12.279   3.354
32526W        W92029   4.752  30.522  13.315
32527W        W92030   4.382  40.531   1.821
32528W        W92031  26.078  34.586  13.841
32529W        W92032  13.335   1.470  13.446
32530W        W92033   6.331  36.446   2.766
32531W        W92034  38.377  33.407   2.196
32532W        W92035  44.321  43.408  14.874
32533W        W92036  22.105  39.890  10.490
32534W        W92037   5.272  38.028  10.446
32535W        W92038  35.537  41.496   3.757
32536W        W92039  33.453   1.406   3.297
32537W        W92040  43.783  42.895   0.479
32538W        W92041  15.097   1.916   1.760
32539W        W92042  15.642  33.071   0.378
32540W        W92043  40.436  28.073  14.790
32541W        W92044  44.973   3.830  12.375
32542W        W92045  35.446  41.471  10.480
32543W        W92046  26.531   5.320   4.609
32544W        W92047   7.261  33.498  11.074
32545W        W92048  26.655  19.612  12.838
32546W        W92049  37.390  27.095   1.762
32547W        W92050  34.992  11.844  11.484
32548W        W92051  43.446  41.319   4.629
32549W        W92052   6.788  32.960   3.305
32550W        W92053   0.918  27.595  12.979
32551W        W92054  15.711  11.314   3.844
32552W        W92055  42.825  19.651   1.845
32553W        W92056  26.592  42.919   4.140
32554W        W92057  44.878  42.358  13.821
32555W        W92058  17.250  17.759  14.998
32556W        W92059  26.612  43.506  12.553
32557W        W92060  38.068   3.354   3.333
32558W        W92061   4.204   7.677   0.963
32559W        W92062  38.391  41.028  11.857
32560W        W92063  10.809  18.181   5.165
32561W        W92064  23.202  25.048  14.016
32562W        W92065   4.754  13.221   4.191
32563W        W92066  23.103  26.117  14.814
32564W        W92067  44.359  35.391   4.652
32565W        W92068  19.170  39.890  11.053
32566W        W92069  24.041  17.110   1.854
32567W        W92070  34.508  41.439  10.484
32568W        W92071  26.965  21.531   2.767
32569W        W92072  27.512   0.435   4.765
32570W        W92073   7.794  16.566  13.846
32571W        W92074  17.097   7.406  13.420
32572W        W92075   9.364   7.392   5.265
32573W        W92076  31.064  21.183   0.827
32574W        W92077  34.869  18.603   9.931
32575W        W92078  19.766   2.878  14.857
32576W        W92079  23.682  32.551  10.560
32577W        W92080  14.124  23.085   0.940
32578W        W92081  18.670  28.550  12.576
32579W        W92082  43.439  22.232   0.288
32580W        W92083  22.011   8.327  12.863
32581W        W92084   1.884   4.215   4.134
32582W        W92085  13.837  22.655   2.760
32583W        W92086  24.032   2.748   2.201
32584W        W92087  14.773   9.849   3.819
32585W        W92088  29.433  44.784   4.835
32586W        W92089  40.319  23.116   2.852
32587W        W92090  35.415  20.545  14.340
32588W        W92091  26.660  31.638   4.274
32589W        W92092  13.654  26.030   3.783
32590W        W92093   8.249  25.582   3.354
32591W        W92094   9.179  44.277   0.359
32592W        W92095  35.984  33.476   4.350
32593W        W92096  27.514  39.949  12.083
32594W        W92097  16.230  13.761  13.396
32595W        W92098  34.040  17.275  10.432
32596W        W92099   7.688  26.500   0.433
32597W        W92100  16.074  35.918   4.629
32598W        W92101  41.522   3.414  14.834
32599W        W92102  10.767  33.905  14.761
32600W        W92103  34.416  20.674  12.367
32601W        W92104   8.365   5.824  11.906
32602W        W92105  31.066  42.830  11.889
32603W        W92106   0.362  27.515   0.444
32604W        W92107  36.388  43.859  11.584
32605W        W92108   7.777  19.585  10.067
32606W        W92109  35.392  28.633   0.468
32607W        W92110   0.270  43.004  13.858
32608W        W92111   0.964   7.365   1.322
32609W        W92112  21.059  11.272  11.526
32610W        W92113  31.508  22.176  13.923
32611W        W92114  14.728  39.840   1.896
32612W        W92115  13.204  19.671  12.090
32613W        W92116   5.235  26.063   0.857
32614W        W92117   5.433  25.155  14.341
32615W        W92118  18.555   1.939  12.056
32616W        W92119  22.203  30.967   3.810
32617W        W92120  15.629   2.830  13.023
32618W        W92121  33.116  42.010   4.250
32619W        W92122  17.093  40.449  12.014
32620W        W92123  25.618   5.400   3.708
32621W        W92124  37.053  29.052   0.281
32622W        W92125  23.011  37.367   9.931
32623W        W92126  32.052   3.759  14.362
32624W        W92127  27.492  17.704  14.890
32625W        W92128   9.676   9.787  13.910
32626W        W92129  13.149  20.667  12.361
32627W        W92130  14.806  21.577  14.803
32628W        W92131  15.705  31.055   0.860
32629W        W92132  17.250   8.189  14.292
32630W        W92133  44.930  25.691   0.962
32631W        W92134  42.999  15.212  14.487
32632W        W92135  11.157  41.806   2.356
32633W        W92136   2.437  28.979  11.875
32634W        W92137  26.043  38.472  13.955
32635W        W92138  40.886  33.484   4.691
32636W        W92139   7.688  23.719   0.800
32637W        W92140  19.692  28.494   3.767
32638W        W92141   1.776  31.081  12.506
32639W        W92142  31.477   0.356  12.055
32640W        W92143  30.161  10.301   1.422
32641W        W92144  17.644  34.554   2.818
32642W        W92145   5.898  25.008   1.824
32643W        W92146  44.418  35.104   1.859
32644W        W92147   3.928  37.483   1.727
32645W        W92148  31.075   5.325  13.348
32646W        W92149  23.712  24.133   2.733
32647W        W92150  17.226  37.386  13.388
32648W        W92151  19.748  21.601  12.413
32649W        W92152  18.563  19.167  12.489
32650W        W92153  41.462  30.942  12.014
32651W        W92154  27.184  12.658   1.251
32652W        W92155  20.660  16.653   1.219
32653W        W92156  37.860  40.823   0.801
32654W        W92157  36.589  10.140   1.250
32655W        W92158  18.568  13.260   1.264
32656W        W92159   9.175  24.066   9.974
32657W        W92160  26.643   3.822  14.864
32658W        W92161  19.710   9.381   0.374
32659W        W92162   8.207  16.118   0.271
32660W        W92163  31.971   8.397  11.396
32661W        W92164  26.990  42.927  10.989
32662W        W92165  40.546  15.197   2.341
32663W        W92166  16.199  22.541   0.876
32664W        W92167  27.988  25.035  11.524
32665W        W92168  15.272  17.779   3.701
32666W        W92169  37.422  37.030   1.825
32667W        W92170   8.762  30.646  13.866
32668W        W92171  37.979  16.096   3.717
32669W        W92172  37.543  11.153   3.356
32670W        W92173  18.088  40.308   3.827
32671W        W92174  40.042   4.801  10.596
32672W        W92175  27.610  13.111  10.926
32673W        W92176  29.544  34.886   1.262
32674W        W92177   8.674  12.851  11.534
32675W        W92178  29.090  18.759  13.845
32676W        W92179  19.631  10.260   2.242
32677W        W92180  41.304  28.931  14.787
32678W        W92181   3.266  20.735  13.501
32679W        W92182  44.827   5.322  14.924
32680W        W92183   4.793  13.227   2.248
32681W        W92184  38.066  32.940  13.969
32682W        W92185  34.584  10.747  13.392
32683W        W92186  37.347   9.871   2.861
32684W        W92187  26.499   3.766  11.560
32685W        W92188  28.604  35.983   2.892
32686W        W92189  36.457  11.310   1.907
32687W        W92190  13.778   6.887   1.890
32688W        W92191  37.070  37.452  13.362
32689W        W92192  41.911  16.662  13.500
32690W        W92193  38.454  39.894  13.944
32691W        W92194  21.528  35.957   5.247
32692W        W92195   5.233  41.317   4.700
32693W        W92196  25.566   8.241   4.637
32694W        W92197  25.491  19.285   4.713
32695W        W92198  30.909  28.179  11.413
32696W        W92199   3.430  19.553   1.699
32697W        W92200  43.492   6.270  14.465
32698W        W92201  40.939  39.466   2.219
32699W        W92202  26.983  34.522   0.263
32700W        W92203  31.028   1.286  12.925
32701W        W92204  14.133   5.783   2.339
32702W        W92205  37.985  28.546  11.489
32703W        W92206  44.867  38.004   1.890
32704W        W92207  16.604  15.790   9.984
32705W        W92208   0.272   1.474  10.533
32706W        W92209  32.929  32.936   1.318
32707W        W92210   2.881  16.798  11.377
32708W        W92211  40.318   9.324   4.213
32709W        W92212  28.972   9.208   2.831
32710W        W92213  40.307  30.513  14.459
32711W        W92214  22.525  22.632   5.261
32712W        W92215   2.760  15.769  14.459
32713W        W92216  40.904  41.407   2.815
32714W        W92217  16.591  37.058  12.500
32715W        W92218  23.528  19.266   3.775
32716W        W92219  35.422  43.516   0.474
32717W        W92220  18.677  29.150   4.126
32718W        W92221  25.555  41.441   0.362
32719W        W92222  40.337  31.004  14.465
32720W        W92223   1.317  37.421  11.983
32721W        W92224  24.044  34.085   1.314
32722W        W92225  37.062  26.517   0.265
32723W        W92226  39.441  44.331   2.771
32724W        W92227   6.707  30.653   4.191
32725W        W92228  21.118  12.700  11.972
32726W        W92229   1.890  14.179   3.288
32727W        W92230  30.133  32.637  14.478
32728W        W92231  25.203  44.939  10.628
32729W        W92232  13.769  24.185  10.532
32730W        W92233  24.696  27.669  10.637
32731W        W92234  33.536  18.687   3.783
32732W        W92235  23.501  19.069   2.254
32733W        W92236  20.099  35.372  13.047
32734W        W92237  40.486  42.526  13.396
32735W        W92238   9.799  29.024  12.995
32736W        W92239  41.423   2.965   2.221
32737W        W92240  37.460  31.569  10.440
32738W        W92241  31.031  31.933   0.262
32739W        W92242  28.485  35.069   4.740
32740W        W92243  25.971  15.689   3.857
32741W        W92244  32.563  20.579   1.863
32742W        W92245   5.304  10.686  14.360
32743W        W92246  34.541  13.712   2.230
32744W        W92247  11.653   7.417   4.658
32745W        W92248  10.365  28.044  10.929
32746W        W92249  16.115  13.642   2.288
32747W        W92250   8.763  42.355   0.735
32748W        W92251  22.671  26.096   2.340
32749W        W92252  21.068  40.426  14.456
32750W        W92253  18.075  42.921  13.863
32751W        W92254  21.566  30.475  13.488
32752W        W92255  25.579  21.109   3.326
32753W        W92256  27.976   1.881   2.805
32754W        W92257   7.755  30.087  10.465
32755W        W92258  31.090  21.135   1.444
32756W        W92259  24.670  20.670  13.366
32757W        W92260   8.319  16.275   4.778
32758W        W92261   4.261  23.569   0.962
32759W        W92262  16.753  38.856  14.992
32760W        W92263   4.304  34.976  12.929
32761W        W92264   1.348  14.795   1.285
32762W        W92265  14.612  26.503  11.413
32763W        W92266  22.120  20.092  14.961
32764W        W92267  27.610  22.161  14.844
32765W        W92268  14.154  43.994   0.353
32766W        W92269   6.676  28.669   4.264
32767W        W92270  41.841  25.065  10.963
32768W        W92271  40.441  32.995  11.933
32769W        W92272  30.640  29.025   4.233
32770W        W92273   9.792  18.129   2.239
32771W        W92274  37.044   0.332  14.302
32772W        W92275   4.836  38.069  12.460
32773W        W92276  39.397  12.738   1.405
32774W        W92277  21.031   0.380  11.384
32775W        W92278  25.527  24.208  10.577
32776W        W92279   6.835  29.486   3.645
32777W        W92280  19.173  31.920   4.272
32778W        W92281  33.493   8.828   4.277
32779W        W92282  30.111   8.392   3.299
32780W        W92283  32.552  42.829  13.009
32781W        W92284   1.262  17.674   3.796
32782W        W92285  28.463  12.826   3.806
32783W        W92286  39.827  24.702  12.994
32784W        W92287  16.250  10.793   3.691
32785W        W92288   7.174  37.936   4.761
32786W        W92289  42.890   3.257  13.992
32787W        W92290  30.461  36.957  14.860
32788W        W92291  16.688  16.677  14.786
32789W        W92292  27.995  39.459  14.833
32790W        W92293  40.404  12.163   1.865
32791W        W92294  28.988   1.365   3.289
32792W        W92295  11.174  21.729  14.404
32793W        W92296  35.455  38.925  14.342
32794W        W92297  39.062   1.786  11.978
32795W        W92298  10.854  23.063   3.294
32796W        W92299  28.597   9.798   3.724
32797W        W92300  13.808  27.129  14.773
32798W        W92301   0.981  22.014   3.702
32799W        W92302  35.556  20.665   0.393
32800W        W92303  17.732  44.868   4.187
32801W        W92304   2.379  40.036  10.476
32802W        W92305  37.858  18.674   2.760
32803W        W92306  33.910  35.504   3.643
32804W        W92307   4.841  23.093  13.906
32805W        W92308  29.155  31.972  12.874
32806W        W92309   1.894  20.121   2.182
32807W        W92310   5.785  16.675  11.986
32808W        W92311  37.892   4.222  12.481
32809W        W92312  44.855  36.064  14.398
32810W        W92313  13.648  40.012  13.548
32811W        W92314  20.214  28.000   2.888
32812W        W92315  33.960  12.844   4.312
32813W        W92316  25.100  20.190   1.892
32814W        W92317  26.654  34.028   4.790
32815W        W92318  41.012   3.906   0.455
32816W        W92319  43.775  11.362  11.122
32817W        W92320   4.368  29.666   1.382
32818W        W92321  43.345  18.623  14.955
32819W        W92322   5.858  39.324  13.890
32820W        W92323  10.728  11.137  14.798
32821W        W92324  16.138  10.284   2.754
32822W        W92325  12.160  20.061  12.550
32823W        W92326  28.439  13.337  10.956
32824W        W92327  28.978   0.411  11.065
32825W        W92328   0.484  29.589   4.189
32826W        W92329  22.132  22.711  12.901
32827W        W92330  28.617   2.413   3.755
32828W        W92331  12.243  23.008  12.557
32829W        W92332  42.933  42.404   3.698
32830W        W92333  23.078  42.473  14.379
32831W        W92334  16.301  29.043  14.872
32832W        W92335   7.797  31.043  14.027
32833W        W92336  39.330  40.931  14.955
32834W        W92337  20.139  36.926  10.446
32835W        W92338  17.219   4.254   4.263
32836W        W92339  31.028  41.292  14.981
32837W        W92340  21.650  19.170   3.679
32838W        W92341  29.138  17.213  10.408
32839W        W92342  25.981  36.383  14.951
32840W        W92343  14.173  33.551   0.290
32841W        W92344  38.824  44.313  10.914
32842W        W92345  42.880  25.481  11.101
32843W        W92346  42.780  38.346   1.759
32844W        W92347  15.297  31.509  10.953
32845W        W92348  34.938  16.618  13.532
32846W        W92349  12.612   0.769  12.513
32847W        W92350  23.080  13.223   1.840
32848W        W92351  21.664  21.241  13.989
32849W        W92352  11.337   9.374   3.727
32850W        W92353  14.647  13.637   3.182
32851W        W92354  44.454  38.381   2.201
32852W        W92355   2.952   6.741  12.399
32853W        W92356   9.306   8.855   9.965
32854W        W92357  15.211   9.667  11.028
32855W        W92358  24.595  34.924  12.053
32856W        W92359  33.438  31.570   1.915
32857W        W92360   6.418  16.679  12.845
32858W        W92361  12.634   6.915   2.830
32859W        W92362   5.395   9.731   3.712
32860W        W92363  26.473  39.447   0.931
32861W        W92364  26.695  29.154   0.358
32862W        W92365   6.767  11.688  14.449
32863W        W92366  38.406  32.962   2.860
32864W        W92367  41.317  31.077   0.891
32865W        W92368  41.805  14.304  12.066
32866W        W92369  30.092  13.754   3.679
32867W        W92370   4.435  36.844  12.498
32868W        W92371  10.859  21.029  11.068
32869W        W92372  19.562  34.071   2.254
32870W        W92373   6.231  17.718  13.804
32871W        W92374  19.705   3.427  12.545
32872W        W92375   7.365  37.879  11.500
32873W        W92376  22.014  17.283  10.951
32874W        W92377  37.361  29.623  12.515
32875W        W92378  35.911  27.598   3.803
32876W        W92379  44.466  32.065  11.534
32877W        W92380  34.918  15.233  11.022
32878W        W92381  35.463   7.323  11.595
32879W        W92382  26.056  43.274  13.449
32880W        W92383  15.684  30.935   1.806
32881W        W92384  12.129  41.493  10.517
32882W        W92385  34.526  23.527   1.707
32883W        W92386  32.531  34.110   9.994
32884W        W92387  37.408  21.019  13.059
32885W        W92388  32.559  38.045   0.420
32886W        W92389  22.179   0.365  10.591
32887W        W92390  36.409  29.459   1.824
32888W        W92391   3.215   6.898   0.404
32889W        W92392   8.393  28.143   0.824
32890W        W92393  28.013  12.257  12.507
32891W        W92394  38.451   0.263   3.259
32892W        W92395  35.038  29.535  11.053
32893W        W92396  15.279   5.696  12.523
32894W        W92397  39.865  29.117  11.390
32895W        W92398  40.048   5.369   0.411
32896W        W92399  15.587  37.343  13.390
32897W        W92400  20.097  18.086  11.910
32898W        W92401  30.574  21.712   1.338
32899W        W92402  27.945  24.520   4.159
32900W        W92403   7.201  38.496  13.999
32901W        W92404  38.980  34.551   4.834
32902W        W92405  21.529  25.642  10.407
32903W        W92406   9.302  11.666   2.835
32904W        W92407   5.387  23.531  10.585
32905W        W92408  30.450   1.369  11.460
32906W        W92409   2.792  30.553   0.933
32907W        W92410   8.318  41.514   3.263
32908W        W92411  27.617  15.144  12.564
32909W        W92412   2.297  19.203   1.338
32910W        W92413   0.258  44.456   1.376
32911W        W92414  21.703  16.575  11.092
32912W        W92415   7.779  23.089  12.496
32913W        W92416  16.719  42.954  14.029
32914W        W92417  23.507  35.993  13.388
32915W        W92418  33.125  23.680  11.944
32916W        W92419   5.390   8.357   0.808
32917W        W92420  16.576  32.129  11.117
32918W        W92421  29.535   3.458  14.849
32919W        W92422  34.526  41.393  12.507
32920W        W92423  44.438  22.647   0.881
32921W        W92424  13.331  21.106  12.513
32922W        W92425  20.159  21.680   2.730
32923W        W92426   6.832   0.961   1.447
32924W        W92427   1.764  11.739   0.310
32925W        W92428  35.077   1.970  14.773
32926W        W92429  44.889  37.353   2.819
32927W        W92430  23.730  41.836  10.994
32928W        W92431  16.785   9.791  11.571
32929W        W92432  23.591  42.351   0.260
32930W        W92433  41.835  18.607   9.931
32931W        W92434  28.187  38.917  12.855
32932W        W92435   2.290  22.514  15.000
32933W        W92436  37.980  41.960  10.985
32934W        W92437  19.059  42.480   2.885
32935W        W92438  12.689  31.069   0.863
32936W        W92439  35.894   5.741  13.322
32937W        W92440  14.688  12.285   4.327
32938W        W92441  44.452   1.912   4.152
32939W        W92442  10.178  17.281  11.531
32940W        W92443  29.440  44.376  14.815
32941W        W92444  44.428   4.249   2.722
32942W        W92445  17.093   2.456  11.115
32943W        W92446  13.639  13.681   1.397
32944W        W92447  21.722   3.759  11.407
32945W        W92448  24.562   7.747  11.105
32946W        W92449  12.656   1.422   4.235
32947W        W92450   6.853  40.357  13.881
32948W        W92451  30.927  28.178  10.900
32949W        W92452  12.614  13.221   4.164
32950W        W92453  14.225  29.630  13.910
32951W        W92454  33.496  23.548  13.823
32952W        W92455   1.771  29.067   1.833
32953W        W92456  42.398  13.635   2.341
32954W        W92457  32.573  11.670   4.203
32955W        W92458  13.757  31.411   0.482
32956W        W92459  38.977   4.319  12.044
32957W        W92460  32.440  36.858   0.785
32958W        W92461  22.062  18.581  12.041
32959W        W92462   6.803  16.105  12.008
32960W        W92463  30.527  19.663  10.975
32961W        W92464   7.783  24.573  10.598
32962W        W92465  33.994  26.085   2.337
32963W        W92466   6.757  36.380  10.919
32964W        W92467  26.207  33.434   1.283
32965W        W92468  40.534  15.672   1.285
32966W        W92469   9.732  25.561   3.303
32967W        W92470  25.119  19.769   3.861
32968W        W92471  19.175  26.534   2.321
32969W        W92472  21.710  33.569  10.578
32970W        W92473   5.767  43.301   4.137
32971W        W92474  24.515  18.655   3.185
32972W        W92475  40.895  15.303  12.439
32973W        W92476  13.742  15.600   1.372
32974W        W92477  26.958  43.849  14.801
32975W        W92478  16.803  20.068   4.741
32976W        W92479  15.145   6.712   3.172
32977W        W92480  35.068  29.651   0.449
32978W        W92481  38.555  32.994  12.069
32979W        W92482   7.186  42.974   2.738
32980W        W92483  10.840  42.012  11.437
32981W        W92484  13.124   7.682   0.892
32982W        W92485  26.174  34.427   4.156
32983W        W92486   8.260  16.621  10.644
32984W        W92487  35.513  17.733  11.959
32985W        W92488  22.709  24.716   2.281
32986W        W92489  16.679  15.163  12.411
32987W        W92490   8.395   3.734   1.894
32988W        W92491  30.001  29.666  14.342
32989W        W92492  37.992  21.661   4.753
32990W        W92493  16.642   1.352   1.415
32991W        W92494   1.447   5.381  12.479
32992W        W92495  37.511  23.657  10.110
32993W        W92496  13.814  13.803   1.792
32994W        W92497  37.498  19.190   3.248
32995W        W92498  38.564  39.945   1.933
32996W        W92499  32.474  31.487  14.970
32997W        W92500  12.257  39.848  13.446
32998W        W92501   4.230  19.197  10.958
32999W        W92502   0.889  33.384  11.496
33000W        W92503   5.882  17.641  14.781
33001W        W92504  33.965  17.089   1.399
33002W        W92505  20.257  12.117  14.830
33003W        W92506  10.716  44.263   2.251
33004W        W92507  19.662   2.767  10.079
33005W        W92508  28.647   1.858  10.941
33006W        W92509  20.666   3.314   1.896
33007W        W92510  43.784  35.493  12.341
33008W        W92511  43.433  42.828  10.620
33009W        W92512  41.967  23.222   4.324
33010W        W92513   0.973  12.763  13.866
33011W        W92514  24.640  33.388   4.230
33012W        W92515  29.632  37.889   4.627
33013W        W92516  40.009  27.587  12.872
33014W        W92517  24.574  31.018  12.523
33015W        W92518  34.583  36.867   1.388
33016W        W92519  12.220  41.405   2.839
33017W        W92520  30.431  41.444   1.273
33018W        W92521  39.548  18.581   4.621
33019W        W92522  38.940  36.573  10.930
33020W        W92523   7.219  15.239  11.910
33021W        W92524  14.177  36.467   5.263
33022W        W92525  16.785  37.999  13.979
33023W        W92526  43.372  25.519   2.682
33024W        W92527   3.929   0.953  10.638
33025W        W92528  15.201  11.339   1.918
33026W        W92529  29.462  26.175   3.716
33027W        W92530  16.777   2.733  11.971
33028W        W92531  12.642  44.843   0.787
33029W        W92532  10.193  28.185  14.787
33030W        W92533  20.532  35.050   3.827
33031W        W92534  42.853  32.034   2.199
33032W        W92535  43.494  23.537   1.775
33033W        W92536  21.725  32.951   3.157
33034W        W92537   7.754  32.905   3.263
33035W        W92538  34.932   7.389   5.236
33036W        W92539  41.982  44.390  10.140
33037W        W92540  42.346  20.617  10.568
33038W        W92541  13.845   7.812   1.314
33039W        W92542  28.123  27.619  13.962
33040W        W92543  21.025  40.413   0.249
33041W        W92544  24.062  37.033   2.394
33042W        W92545  26.554  15.649   5.319
33043W        W92546  36.589   4.256   0.939
33044W        W92547  44.913  21.559   3.226
33045W        W92548   3.295  17.176   2.227
33046W        W92549   6.843   1.755  13.895
33047W        W92550  36.354  36.090   4.124
33048W        W92551  14.772   8.666  13.870
33049W        W92552  29.102  28.439  11.525
33050W        W92553  29.060  33.926   3.744
33051W        W92554  25.626  30.983   3.688
33052W        W92555  28.568  29.648  13.850
33053W        W92556  28.113  24.068   2.275
33054W        W92557  26.641  39.998  10.899
33055W        W92558  36.567  28.065  11.905
33056W        W92559  25.141  39.961  10.947
33057W        W92560  28.613  16.191  11.936
33058W        W92561  21.657   7.752  10.467
33059W        W92562  13.303  33.383   2.261
33060W        W92563  36.915  38.526   3.710
33061W        W92564  14.277  31.100  13.544
33062W        W92565  34.377  26.131  11.512
33063W        W92566  27.681  24.584   0.868
33064W        W92567  30.007   4.888   1.441
33065W        W92568  25.976  26.143   0.931
33066W        W92569  13.784  15.178   0.886
33067W        W92570  42.434  29.648  12.388
33068W        W92571   9.251  19.139   9.444
33069W        W92572   6.844  33.935  12.867
33070W        W92573   5.799  13.819   3.277
33071W        W92574  22.598  12.734   2.814
33072W        W92575  44.879  27.576   0.361
33073W        W92576  37.553  39.061  13.794
33074W        W92577  18.777   9.240  12.077
33075W        W92578  17.120  10.301  11.086
33076W        W92579  34.562  10.309  13.010
33077W        W92580  11.661   8.235   1.917
33078W        W92581  10.754  11.762   9.996
33079W        W92582  20.636  18.099   4.723
33080W        W92583  25.471  20.174   1.313
33081W        W92584  28.437  10.192   1.746
33082W        W92585  13.772  25.631   2.767
33083W        W92586  25.655  18.162  13.978
33084W        W92587  36.490  36.895  11.568
33085W        W92588   4.305  31.964   4.710
33086W        W92589   7.344  14.619  13.960
33087W        W92590  15.693  29.604   1.437
33088W        W92591  28.583  13.635   1.800
33089W        W92592  34.489  12.248  14.503
33090W        W92593  10.377   3.255  10.551
33091W        W92594  15.768  32.913   4.349
33092W        W92595   3.883  33.609   4.621
33093W        W92596   2.748  33.512  13.467
33094W        W92597  11.195  37.990   4.690
33095W        W92598   3.459  25.581  14.434
33096W        W92599  19.715  24.094   1.858
33097W        W92600  26.092   3.933  13.353
33098W        W92601  32.000  24.550   3.822
33099W        W92602  43.271   5.215  11.064
33100W        W92603  19.599  28.534  10.631
33101W        W92604  44.911   1.961   1.746
33102W        W92605  43.947  43.766  14.455
33103W        W92606  16.736  23.700   0.475
33104W        W92607  34.467  39.361   4.715
33105W        W92608  10.701  24.601  10.448
33106W        W92609  15.769  11.793  10.501
33107W        W92610   0.823  39.999   1.331
33108W        W92611   8.897  17.567   5.087
33109W        W92612  23.156   9.334   1.862
33110W        W92613   8.836  19.545   0.860
33111W        W92614  10.777  15.666   0.769
33112W        W92615  36.387   5.302   9.963
33113W        W92616  43.836   3.243  11.519
33114W        W92617  26.527   2.759   2.733
33115W        W92618   1.293  35.602   3.370
33116W        W92619  40.031  12.236  12.361
33117W        W92620  43.796  36.565  14.980
33118W        W92621  34.091  13.800  13.425
33119W        W92622  14.096  44.818   2.793
33120W        W92623  42.985  29.172   4.627
33121W        W92624  34.579   7.812  12.036
33122W        W92625  19.687  24.521  14.986
33123W        W92626  34.960  11.194   1.931
33124W        W92627  20.141   4.450   3.238
33125W        W92628   5.750  32.417   1.345
33126W        W92629  11.239  27.998  10.537
33127W        W92630  28.645  12.836  11.002
33128W        W92631  32.942   3.456   2.329
33129W        W92632  35.089   6.809  11.550
33130W        W92633  26.613  25.687  11.436
33131W        W92634  44.293  18.566  12.498
33132W        W92635  19.229   0.808   3.379
33133W        W92636  44.943  33.997   4.248
33134W        W92637  44.440  37.949  10.617
33135W        W92638  10.191  43.775  10.902
33136W        W92639  16.745   8.369   0.295
33137W        W92640  30.497  15.291  13.862
33138W        W92641  43.498  44.267  11.083
33139W        W92642  22.604  18.202  10.043
33140W        W92643   4.913  17.606  12.388
33141W        W92644  29.464  29.651  10.999
33142W        W92645  12.787  30.005  14.803
33143W        W92646   8.328   4.723   3.356
33144W        W92647  26.557  13.254   2.769
33145W        W92648  18.619  41.429  11.480
33146W        W92649  18.650  32.578   3.308
33147W        W92650   2.916  10.221   2.341
33148W        W92651  15.232  34.537   1.346
33149W        W92652  40.540  18.131   4.330
33150W        W92653  35.855  38.448  11.932
33151W        W92654   2.335  26.015  10.067
33152W        W92655   2.843   3.410  14.427
33153W        W92656  40.522  16.310   3.849
33154W        W92657  27.120  20.273   4.823
33155W        W92658  27.674   5.917   3.151
33156W        W92659   7.690  28.002   3.222
33157W        W92660   8.854  18.281   2.278
33158W        W92661  33.910   7.325   2.851
33159W        W92662  36.483  17.293   2.383
33160W        W92663  36.926  24.021  10.606
33161W        W92664  37.492  12.323   4.823
33162W        W92665  16.161  12.801   3.346
33163W        W92666  30.098  31.935   4.747
33164W        W92667   4.341  12.749  12.345
33165W        W92668  12.155  19.105  11.928
33166W        W92669  32.628   2.818  14.849
33167W        W92670  38.952  11.758  13.064
33168W        W92671  19.539  34.405   4.688
33169W        W92672  37.448  33.888   1.289
33170W        W92673  24.662  41.811   1.432
33171W        W92674  36.546  18.655   1.439
33172W        W92675  17.793  23.156   2.792
33173W        W92676   7.746  44.373  10.558
33174W        W92677  39.358   8.312  14.419
33175W        W92678  22.245  14.588   3.831
33176W        W92679   2.813  19.684   1.393
33177W        W92680  35.378  24.192  13.872
33178W        W92681  44.922  36.965  13.044
33179W        W92682  20.222  19.107  13.957
33180W        W92683  28.672  31.426  10.635
33181W        W92684  18.558  14.676   1.317
33182W        W92685  44.423  25.036   2.900
33183W        W92686   0.851  44.341   1.365
33184W        W92687  37.977  34.546   3.336
33185W        W92688  26.979  28.139   2.375
33186W        W92689  26.180  16.272  10.431
33187W        W92690   0.456   1.340  11.029
33188W        W92691  36.389  26.207  12.355
33189W        W92692  39.384  13.146  12.890
33190W        W92693  27.137  28.077  12.426
33191W        W92694  42.387  10.638  10.994
33192W        W92695  19.173  40.015   4.652
33193W        W92696  30.592  29.466  13.956
33194W        W92697  15.159  31.030   0.331
33195W        W92698  28.587  19.139  13.896
33196W        W92699  22.117  33.410  11.528
33197W        W92700  42.316  39.337   2.253
33198W        W92701   7.822  42.458   3.156
33199W        W92702  27.553   3.365  14.975
33200W        W92703  33.572   5.840   0.360
33201W        W92704  19.128  14.766   4.348
33202W        W92705   8.845  41.497  10.030
33203W        W92706  14.684  32.481  11.055
33204W        W92707   8.768  44.781   4.274
33205W        W92708  29.495  18.572   0.823
33206W        W92709  10.196  30.514  14.396
33207W        W92710  13.644   4.346   3.313
33208W        W92711  40.807   1.386   1.792
33209W        W92712  14.216  16.078  14.347
33210W        W92713  43.787   1.747  12.367
33211W        W92714   3.343  31.602   2.369
33212W        W92715  44.976  27.493   3.242
33213W        W92716  27.160  32.141  13.359
33214W        W92717  33.982  13.743  11.950
33215W        W92718  16.279  34.494   3.226
33216W        W92719  42.287  30.942  10.474
33217W        W92720  19.196   3.795   3.316
33218W        W92721   9.151  34.482   2.703
33219W        W92722   2.404  39.891  14.030
33220W        W92723   6.868   5.339   3.362
33221W        W92724  27.175  41.852  14.507
33222W        W92725  28.001  28.012   3.321
33223W        W92726   0.477   5.863  11.452
33224W        W92727  30.463   1.414   4.174
33225W        W92728  20.117  35.437   2.892
33226W        W92729  23.174  10.806   2.351
33227W        W92730  18.773  20.114   1.343
33228W        W92731  34.947   6.913  14.760
33229W        W92732   5.259  13.227  10.532
33230W        W92733  26.682   5.241   0.849
33231W        W92734  23.716  19.062  10.488
33232W        W92735  19.772  34.004   4.699
33233W        W92736  43.301   6.911  14.874
33234W        W92737  16.126  16.602   1.343
33235W        W92738  16.702   1.413  12.555
33236W        W92739  23.105   4.346   2.372
33237W        W92740  38.823  13.274  13.340
33238W        W92741  13.282  13.332  12.430
33239W        W92742  40.937  23.178   1.914
33240W        W92743  33.427   6.910   4.606
33241W        W92744  42.962  13.311  14.319
33242W        W92745   3.332  21.668   4.189
33243W        W92746  28.999  14.736  12.456
33244W        W92747  34.477  26.113  10.938
33245W        W92748  24.597  13.829  13.045
33246W        W92749   3.447  14.700   1.283
33247W        W92750  32.891  36.992   1.753
33248W        W92751  44.344   0.767   0.425
33249W        W92752  10.820  18.668   1.340
33250W        W92753   2.952   6.248   4.309
33251W        W92754  30.106  33.622   1.415
33252W        W92755   9.692  42.523   2.865
33253W        W92756   3.395  14.218  12.506
33254W        W92757  23.025  36.394  10.644
33255W        W92758  26.061   1.740   0.859
33256W        W92759  44.294  21.550  13.874
33257W        W92760  13.614  37.866  13.312
33258W        W92761  14.215  12.815   3.384
33259W        W92762   8.785  13.610  11.388
33260W        W92763   3.711  23.526  11.008
33261W        W92764   6.728   2.398   4.734
33262W        W92765   5.391  20.568  10.465
33263W        W92766   6.901  12.270   4.671
33264W        W92767  20.145  39.438  11.055
33265W        W92768   2.325  32.619   1.284
33266W        W92769  22.721   5.912  12.420
33267W        W92770  30.972   4.728   4.214
33268W        W92771  36.842   6.755   1.327
33269W        W92772  34.459   9.805  12.861
33270W        W92773  38.915   8.195  12.452
33271W        W92774  44.960  20.111   1.444
33272W        W92775  15.758  38.341   1.892
33273W        W92776   8.363  30.466  12.547
33274W        W92777  32.962  38.386   0.479
33275W        W92778  36.495  42.813  10.927
33276W        W92779  15.156  28.121   0.417
33277W        W92780  18.652   7.775   2.773
33278W        W92781  26.198   1.377   2.353
33279W        W92782  17.656  37.506  12.893
33280W        W92783  42.365  28.516   2.893
33281W        W92784   3.947  33.421   3.223
33282W        W92785  26.543   2.311   0.788
33283W        W92786  20.694  33.111   3.643
33284W        W92787  13.161  14.174   3.695
33285W        W92788  38.506  23.150  14.830
33286W        W92789  34.059  32.559  12.425
33287W        W92790  28.986  10.856   4.721
33288W        W92791  43.767  40.973   4.324
33289W        W92792  43.495  42.833  12.539
33290W        W92793  25.582   5.272  13.948
33291W        W92794  17.706  29.586   4.815
33292W        W92795   0.271  21.252   2.248
33293W        W92796  33.041  39.988   3.349
33294W        W92797  14.139  25.607  13.397
33295W        W92798  19.166  35.081   1.718
33296W        W92799  24.671  10.749  11.088
33297W        W92800  22.081  16.085   0.414
33298W        W92801  38.377  25.510   2.869
33299W        W92802  14.281   0.962  13.939
33300W        W92803  38.848  12.613   0.407
33301W        W92804  16.134  16.640   4.759
33302W        W92805   4.730  29.581   3.221
33303W        W92806  39.845   8.876  12.938
33304W        W92807  22.665  10.788  13.016
33305W        W92808  42.851   6.753   1.888
33306W        W92809   5.930   8.180   3.282
33307W        W92810  43.368  41.855   1.348
33308W        W92811   5.824   3.322  14.884
33309W        W92812  40.309  38.955  12.883
33310W        W92813  36.572  11.781   1.447
33311W        W92814  17.181   4.400  13.423
33312W        W92815  36.953  13.108  12.418
33313W        W92816  17.226  37.534  11.122
33314W        W92817  21.636  17.799  13.506
33315W        W92818  29.972   3.239  10.458
33316W        W92819  23.516  26.077   1.791
33317W        W92820  28.491  41.446  13.054
33318W        W92821  33.057  40.454  10.478
33319W        W92822  28.983  34.509   3.773
33320W        W92823  25.174  30.919   4.705
33321W        W92824   4.251  36.855  11.907
33322W        W92825  25.185   4.323   0.322
33323W        W92826  13.705  27.518   4.345
33324W        W92827  43.326  28.006   4.676
33325W        W92828  20.546  42.404   1.447
33326W        W92829  12.817   6.732  11.437
33327W        W92830  17.668  39.938  13.474
33328W        W92831   5.259  40.536  10.963
33329W        W92832   6.203  18.238   0.455
33330W        W92833  35.578  11.650  14.490
33331W        W92834  25.045  24.029  13.854
33332W        W92835  30.029  10.710   1.277
33333W        W92836  13.841  29.646   4.775
33334W        W92837  21.262  29.545  14.515
33335W        W92838  24.668  36.008  11.077
33336W        W92839  36.917  41.976  13.055
33337W        W92840  34.995  38.340  11.875
33338W        W92841   3.932  17.276  14.343
33339W        W92842  23.086   9.752  13.364
33340W        W92843  31.020  15.185   2.768
33341W        W92844  18.768  21.688   0.860
33342W        W92845  32.612  25.218   4.164
33343W        W92846  37.361  28.179   2.313
33344W        W92847   3.792   5.907   2.851
33345W        W92848  21.247  43.450   2.794
33346W        W92849   7.189  34.895   0.483
33347W        W92850  27.136  33.031  14.460
33348W        W92851   2.921  23.630   3.720
33349W        W92852  36.477  40.458   0.384
33350W        W92853  39.860  33.578  11.435
33351W        W92854  25.581  29.440  13.946
33352W        W92855   8.758  28.583   3.220
33353W        W92856  13.769  14.643   3.241
33354W        W92857  11.766  16.749  13.054
33355W        W92858  11.347   2.868   2.259
33356W        W92859  40.337   8.818  12.988
33357W        W92860  20.190   9.334   2.734
33358W        W92861   2.810  42.295  14.830
33359W        W92862  34.403  16.802   4.771
33360W        W92863   8.835   0.442   3.353
33361W        W92864   5.771   2.402  13.544
33362W        W92865   1.474   3.379  13.873
33363W        W92866  32.450   4.345  14.774
33364W        W92867   8.352  41.002  10.642
33365W        W92868   0.833  22.579  12.373
33366W        W92869  14.732  11.346  13.011
33367W        W92870  39.027   1.446  11.566
33368W        W92871  18.584   5.923  11.495
33369W        W92872  17.138  15.782  12.477
33370W        W92873  32.481  43.977  14.321
33371W        W92874  42.505  26.176  11.955
33372W        W92875  23.575  41.384   4.769
33373W        W92876  39.939  36.524  11.034
33374W        W92877  22.546  29.056  14.841
33375W        W92878  21.238  44.980  12.067
33376W        W92879  30.607  31.991   0.394
33377W        W92880  32.429  35.100  14.404
33378W        W92881  39.037   6.896   2.315
33379W        W92882  31.901   4.827  14.785
33380W        W92883  34.112  28.437  11.945
33381W        W92884  15.658  42.385  13.909
33382W        W92885  40.922  32.508  11.499
33383W        W92886   1.802  27.000  12.892
33384W        W92887  24.620   8.388  14.286
33385W        W92888  15.639  14.263  13.862
33386W        W92889   2.781   1.452  14.421
33387W        W92890  41.524  38.831   4.272
33388W        W92891  28.060   7.715  13.381
33389W        W92892   8.852   8.308  11.446
33390W        W92893  38.520  16.167   3.660
33391W        W92894  18.255   1.457   3.805
33392W        W92895  30.595  26.520  13.813
33393W        W92896   5.845  15.800  11.513
33394W        W92897  44.914  39.049   2.691
33395W        W92898  23.604  32.505  11.996
33396W        W92899  29.037  26.696  12.565
33397W        W92900  25.218  38.561  12.870
33398W        W92901   8.404   3.777   0.941
33399W        W92902   4.868   0.931   2.812
33400W        W92903  27.160  14.335   1.910
33401W        W92904  40.824   2.278  13.381
33402W        W92905  26.209   0.827   9.626
33403W        W92906  35.453  33.901   3.350
33404W        W92907  30.590   8.862  14.395
33405W        W92908  14.618  19.102   4.248
33406W        W92909  44.831   0.467   0.860
33407W        W92910  19.601   7.303  14.347
33408W        W92911  22.059  44.795  12.022
33409W        W92912  32.498   1.967  11.042
33410W        W92913  36.353   6.194  13.325
33411W        W92914   9.804  23.988  13.043
33412W        W92915   3.349  32.982   1.804
33413W        W92916  20.586  25.099  13.880
33414W        W92917  31.632  39.871   4.718
33415W        W92918   2.962  41.351   3.208
33416W        W92919  14.700  11.759   0.425
33417W        W92920  32.457  35.002  10.487
33418W        W92921  15.317  39.536   4.123
33419W        W92922  44.876  43.393   3.225
33420W        W92923  27.175  25.691   1.263
33421W        W92924   0.256   4.309  14.321
33422W        W92925  33.559  43.981   4.244
33423W        W92926   4.741  39.368   1.228
33424W        W92927   7.182  42.020  10.538
33425W        W92928  32.078  39.988  12.936
33426W        W92929  11.816  25.510   1.841
33427W        W92930  37.364  32.018   4.216
33428W        W92931  30.070  14.103  10.066
33429W        W92932   8.266  40.434  14.426
33430W        W92933  24.067  42.911   4.221
33431W        W92934  39.357  29.945  14.319
33432W        W92935  28.992  17.158   1.712
33433W        W92936  43.845  23.500   2.382
33434W        W92937  27.618  14.679   1.269
33435W        W92938  42.511  15.770   3.227
33436W        W92939  27.630  29.487   2.886
33437W        W92940  13.250  11.718   1.819
33438W        W92941  26.596  30.653   1.385
33439W        W92942  39.490  20.153  14.502
33440W        W92943  28.053   6.737  10.518
33441W        W92944  16.621  17.793   4.143
33442W        W92945  39.847  44.864  11.915
33443W        W92946  23.150  29.039  12.866
33444W        W92947   9.157  41.505   0.766
33445W        W92948  21.068   5.346   1.436
33446W        W92949  43.787  41.902  13.857
33447W        W92950  23.504  30.612  11.020
33448W        W92951  26.509   2.256   4.340
33449W        W92952   9.262  14.734   1.418
33450W        W92953   2.819  42.883   4.304
33451W        W92954   6.286  38.559   1.242
33452W        W92955  13.760  38.918  13.879
33453W        W92956  21.026   1.288  12.532
33454W        W92957   4.368  13.283  10.975
33455W        W92958  19.054  16.091  13.527
33456W        W92959  36.921  40.455  14.375
33457W        W92960  11.766  16.116   2.896
33458W        W92961  41.938  20.263   1.401
33459W        W92962   2.724  13.169  14.398
33460W        W92963  14.705  28.171  10.599
33461W        W92964  39.473   4.934   5.193
33462W        W92965  22.521  41.951   4.208
33463W        W92966   6.409  24.041  13.902
33464W        W92967  36.915  33.918  11.472
33465W        W92968  25.677  16.679  13.876
33466W        W92969  44.291  39.849   0.768
33467W        W92970  26.556  26.979  11.018
33468W        W92971  44.986  37.369  12.920
33469W        W92972  39.464  32.619   3.711
33470W        W92973  14.711  35.421  13.994
33471W        W92974  36.357   9.322   1.390
33472W        W92975  41.351   7.239   4.136
33473W        W92976  42.897  29.498  10.977
33474W        W92977  11.720  36.064  10.097
33475W        W92978  37.986   0.976   2.733
33476W        W92979  24.133  16.313  13.863
33477W        W92980  21.119  17.260   4.177
33478W        W92981   9.291   7.376   0.944
33479W        W92982  39.026  29.105  14.286
33480W        W92983  30.922  34.909  11.562
33481W        W92984  20.193  34.094   1.352
33482W        W92985  18.668   3.941  14.938
33483W        W92986  18.186   1.946  11.613
33484W        W92987  17.781   6.318   0.335
33485W        W92988   0.866  22.604  13.847
33486W        W92989  23.630  38.921  11.029
33487W        W92990  13.796  17.163   1.785
33488W        W92991   4.839   0.987   0.939
33489W        W92992   9.254  32.613   3.691
33490W        W92993  23.606  33.971   3.250
33491W        W92994   4.809  13.845  10.485
33492W        W92995  21.736  41.930   4.151
33493W        W92996  34.439  34.614   4.348
33494W        W92997  12.277   2.873   1.739
33495W        W92998   2.429  28.990  12.865
33496W        W92999  33.050   9.261  12.023
33497W        W93000   7.323   5.787  11.003
33498W        W93001  23.508  10.711  13.852
33499W        W93002   4.235  40.050   4.228
33500W        W93003  18.735  23.002  14.844
33501W        W93004   6.385  14.260  10.529
33502W        W93005  20.579  11.658  14.489
33503W        W93006  26.621  22.042   2.224
33504W        W93007   6.890  24.588   1.292
33505W        W93008  13.265  11.669   4.639
33506W        W93009  42.990  32.970   4.245
33507W        W93010   6.355  33.471  12.901
33508W        W93011  41.787  36.032  10.934
33509W        W93012  42.405  24.520   3.650
33510W        W93013  13.774   1.908  11.561
33511W        W93014  42.950  35.443  13.900
33512W        W93015  18.754  11.640   5.097
33513W        W93016  40.362  22.652  10.053
33514W        W93017  28.035  24.659  12.461
33515W        W93018   7.861  43.995   4.260
33516W        W93019  13.759  37.957   2.873
33517W        W93020   5.822  20.632   3.244
33518W        W93021   6.213  42.989  13.409
33519W        W93022  19.558  31.595   4.124
33520W        W93023  17.289  44.895  11.482
33521W        W93024  18.604  13.327   4.601
33522W        W93025  12.321  12.778  13.860
33523W        W93026  13.821   7.200   2.677
33524W        W93027  21.572  23.704   2.693
33525W        W93028  38.976  20.534  12.431
33526W        W93029  12.635  31.087   2.336
33527W        W93030   3.892  31.409   1.931
33528W        W93031  12.721  10.847  12.900
33529W        W93032   5.913  39.365   1.872
33530W        W93033  14.673  34.927  14.884
33531W        W93034  13.229  39.856  11.035
33532W        W93035  32.629  29.088   3.186
33533W        W93036  29.942  30.014   3.356
33534W        W93037   7.213  36.845   2.727
33535W        W93038  15.688  16.788   1.290
33536W        W93039  19.535  17.133   1.268
33537W        W93040  24.201  12.687  13.915
33538W        W93041  40.483  40.931  12.388
33539W        W93042   0.860   9.170  13.958
33540W        W93043   2.829   4.242  11.455
33541W        W93044   5.753  19.593  13.527
33542W        W93045   1.933  23.520   1.400
33543W        W93046  34.912  44.914   0.464
33544W        W93047  11.664  29.564   0.427
33545W        W93048  18.635  16.614  13.457
33546W        W93049  19.090  27.184  13.368
33547W        W93050   4.306  16.805  14.419
33548W        W93051  42.381  32.517  14.434
33549W        W93052  44.406  22.138  10.421
33550W        W93053  38.400  26.537  11.544
33551W        W93054  41.927  28.037  12.570
33552W        W93055  17.224   3.405   3.716
33553W        W93056  36.971   9.660   4.632
33554W        W93057   5.338  20.523  10.893
33555W        W93058   5.700  43.319  11.050
33556W        W93059  13.177  36.507  13.932
33557W        W93060  20.194   0.283  10.595
33558W        W93061  26.678  25.104   5.127
33559W        W93062  39.837  30.990  12.835
33560W        W93063  24.974  18.073  14.934
33561W        W93064   5.328  34.516  12.425
33562W        W93065  21.113  10.672  12.858
33563W        W93066   7.397   9.781  13.411
33564W        W93067  38.054  17.116  14.503
33565W        W93068  15.762  21.104   5.137
33566W        W93069  11.702  36.973   0.965
33567W        W93070  25.694  33.591  10.906
33568W        W93071  41.454  40.333   2.329
33569W        W93072  31.606   2.470   0.966
33570W        W93073  23.147  30.909  13.039
33571W        W93074  26.049  29.480   3.365
33572W        W93075  31.015  24.481  10.476
33573W        W93076  41.330  35.547  12.979
33574W        W93077  38.553  14.235  10.511
33575W        W93078  29.493  43.367   3.361
33576W        W93079   3.739  10.766  11.590
33577W        W93080  17.583  34.424   1.279
33578W        W93081  12.784  21.155   0.807
33579W        W93082  15.128  15.681  10.041
33580W        W93083  42.878   6.269   3.362
33581W        W93084  31.550  39.389  10.950
33582W        W93085  25.684  37.030  11.052
33583W        W93086   7.720  40.485  10.021
33584W        W93087  33.501  29.660  12.085
33585W        W93088   3.418  14.133   0.355
33586W        W93089  44.967  15.176   4.719
33587W        W93090  41.891  42.845  14.505
33588W        W93091  32.893   4.901   0.434
33589W        W93092   2.779   7.346  11.959
33590W        W93093  24.221  42.969  11.050
33591W        W93094  34.477   3.931  12.863
33592W        W93095   7.672  20.746  12.399
33593W        W93096   0.494   2.783   3.378
33594W        W93097   1.852   9.159   3.759
33595W        W93098  13.746  12.344   4.306
33596W        W93099  15.688   2.745   3.813
33597W        W93100  34.865  13.207  13.897
33598W        W93101  34.568  21.117  10.539
33599W        W93102   5.237   2.767   4.295
33600W        W93103  16.281  10.177   9.972
33601W        W93104   2.842  22.141  12.362
33602W        W93105   3.250  32.452   3.234
33603W        W93106  11.175   8.299   2.267
33604W        W93107   3.322   6.868   3.763
33605W        W93108   2.413  22.689   1.905
33606W        W93109  13.693   1.788  10.615
33607W        W93110  29.097  35.558  14.863
33608W        W93111  16.116  41.009  12.508
33609W        W93112  22.151  43.351   2.248
33610W        W93113   5.318  35.071  12.054
33611W        W93114   8.846  26.700  11.404
33612W        W93115  39.426  30.118  11.485
33613W        W93116  11.782  12.154  13.925
33614W        W93117  37.864  16.669  12.570
33615W        W93118  44.905  32.138  12.372
33616W        W93119  18.098   3.432   1.905
33617W        W93120   4.852  23.519   2.359
33618W        W93121  12.629  38.556   4.289
33619W        W93122  15.633  16.602   4.667
33620W        W93123   5.276  31.065  14.430
33621W        W93124   9.263   1.896   4.197
33622W        W93125   9.651   0.451  14.993
33623W        W93126  28.985  33.484  12.388
33624W        W93127  21.748  17.258  14.928
33625W        W93128  37.831  34.999  11.055
33626W        W93129  31.468  32.026   2.278
33627W        W93130  44.881   5.212  13.317
33628W        W93131  17.763   6.912  12.450
33629W        W93132  41.313   9.692  11.499
33630W        W93133   0.385  32.409   3.151
33631W        W93134  27.008  29.580  10.031
33632W        W93135  37.849  36.095  13.430
33633W        W93136   6.852  29.504  12.451
33634W        W93137  13.617  41.920   2.372
33635W        W93138  44.831  44.796  13.914
33636W        W93139   3.767  30.073   0.858
33637W        W93140  34.044  28.667   4.685
33638W        W93141  43.997  44.893   1.911
33639W        W93142  41.029  28.522  11.922
33640W        W93143   4.714  24.045   0.478
33641W        W93144  18.659  34.423  14.008
33642W        W93145  13.829   8.869  14.279
33643W        W93146  19.599  25.511  12.479
33644W        W93147  43.911   5.830  14.398
33645W        W93148  34.096   9.826  14.401
33646W        W93149  42.459   6.762  11.546
33647W        W93150  30.564  10.257  10.645
33648W        W93151  44.816  30.939   4.689
33649W        W93152   2.887  44.412  14.962
33650W        W93153   1.391  24.136  11.900
33651W        W93154   2.350  44.816  12.459
33652W        W93155  23.555   2.750   0.395
33653W        W93156  28.104  14.109  14.786
33654W        W93157  28.480  25.670  12.884
33655W        W93158  44.354  10.838  14.289
33656W        W93159  29.670   1.438  14.458
33657W        W93160  34.494  20.196   2.893
33658W        W93161  43.987  20.048  12.849
33659W        W93162   5.843   0.402   3.785
33660W        W93163  34.005  16.098   0.818
33661W        W93164  44.464  17.092  13.417
33662W        W93165  41.021   4.346   2.862
33663W        W93166  39.531  25.532   2.744
33664W        W93167  13.253  24.170  12.873
33665W        W93168  22.737  35.514   3.661
33666W        W93169  29.100  38.422   1.848
33667W        W93170  41.025  27.972   1.796
33668W        W93171   2.381  29.028   3.787
33669W        W93172  18.720  11.362  14.775
33670W        W93173  32.403  12.662   0.290
33671W        W93174  35.559   4.299   3.290
33672W        W93175  43.766  24.040  11.951
33673W        W93176  13.182  23.002   2.678
33674W        W93177   5.756  29.560  12.877
33675W        W93178  39.034  18.152   0.331
33676W        W93179  18.690   7.766   0.769
33677W        W93180  16.767  22.555   0.747
33678W        W93181   5.411  11.770   0.939
33679W        W93182  12.758   6.872  13.886
33680W        W93183  13.845  18.588   1.380
33681W        W93184   0.912  40.832   4.190
33682W        W93185   1.972  24.143   4.299
33683W        W93186  34.955  28.656   4.614
33684W        W93187   4.937  33.921  10.982
33685W        W93188  14.793  20.055   3.780
33686W        W93189  15.819  29.081   2.377
33687W        W93190  24.997  28.566  14.859
33688W        W93191  30.440   6.840   1.843
33689W        W93192  24.586  12.260  14.876
33690W        W93193  17.097  40.865   2.724
33691W        W93194   2.948  24.498  14.811
33692W        W93195   7.390   3.812   3.362
33693W        W93196   5.354  15.637   1.861
33694W        W93197  31.526   2.927   1.798
33695W        W93198  30.119  18.666   2.261
33696W        W93199  26.555  25.009  11.113
33697W        W93200  15.753  39.342   2.715
33698W        W93201  41.847  31.026   4.309
33699W        W93202  35.096  32.131  10.461
33700W        W93203  44.484   4.397  14.007
33701W        W93204  43.904  21.720  12.970
33702W        W93205  30.429   8.716  10.411
33703W        W93206  15.225   6.422  11.930
33704W        W93207  34.006  28.991  13.008
33705W        W93208  11.716  25.018   3.279
33706W        W93209  17.701  14.316  11.923
33707W        W93210   4.863  24.609   4.639
33708W        W93211  27.447  14.610  11.566
33709W        W93212  43.411  27.098  12.906
33710W        W93213   8.394   2.276   3.288
33711W        W93214   2.872  42.867   2.398
33712W        W93215   4.306  27.470  13.449
33713W        W93216   2.899   1.280   3.330
33714W        W93217   2.397  33.532   0.479
33715W        W93218  37.036  24.025  14.023
33716W        W93219  13.160  18.274  10.036
33717W        W93220  41.389  30.159   0.244
33718W        W93221  38.979   5.853   2.219
33719W        W93222  13.748   2.406  13.546
33720W        W93223  29.492  17.757   2.848
33721W        W93224  10.383   7.359  13.058
33722W        W93225  17.207  12.733   3.254
33723W        W93226  17.706  13.788  11.985
33724W        W93227  15.200  26.144  14.862
33725W        W93228  37.924  29.542   4.313
33726W        W93229   8.405  24.186   4.339
33727W        W93230  32.981  33.976   4.243
33728W        W93231  27.159   8.402  11.096
33729W        W93232  12.196  27.559  12.851
33730W        W93233  10.291  33.083   3.267
33731W        W93234  17.674   3.269   4.691
33732W        W93235  34.482  37.930   5.266
33733W        W93236  32.046  36.498  11.997
33734W        W93237   8.354  12.147   4.617
33735W        W93238  31.096  27.645   9.986
33736W        W93239   2.313  10.780  12.989
33737W        W93240   5.791  36.960   1.253
33738W        W93241  35.895   8.269  14.411
33739W        W93242  39.936  39.903  11.059
33740W        W93243  43.504  43.969  12.983
33741W        W93244   6.278  39.970   3.722
33742W        W93245  15.094  10.348   0.382
33743W        W93246  17.230  14.326   4.128
33744W        W93247  43.812  35.469  11.433
33745W        W93248  36.472   9.645   2.200
33746W        W93249  35.990   1.897  11.096
33747W        W93250  44.323  11.690   1.840
33748W        W93251  22.098  34.376  12.915
33749W        W93252   1.301  44.284   1.834
33750W        W93253  29.568  41.989   2.315
33751W        W93254  25.997   5.431  12.511
33752W        W93255  44.415   8.658   5.254
33753W        W93256   8.790  11.370  14.440
33754W        W93257  36.586  43.011   3.341
33755W        W93258  34.867   5.885   3.297
33756W        W93259  20.762  26.574   2.893
33757W        W93260  44.266  21.623  12.425
33758W        W93261  38.070   7.867   1.742
33759W        W93262  40.528  11.663   1.747
33760W        W93263  19.133   0.311  11.499
33761W        W93264   3.368  17.698   2.294
33762W        W93265  38.908  23.230  14.009
33763W        W93266  34.567  14.613  14.763
33764W        W93267  29.572   6.818  10.548
33765W        W93268   9.778  31.897  10.096
33766W        W93269  13.179  19.194  14.929
33767W        W93270  27.462   4.322  10.487
33768W        W93271   0.291  11.774  12.469
33769W        W93272   0.288  40.834  14.514
33770W        W93273  40.393  12.241   3.718
33771W        W93274  44.758  11.801  11.066
33772W        W93275  44.840  20.156   1.905
33773W        W93276  16.643  10.139   4.651
33774W        W93277   4.385  21.700  12.562
33775W        W93278  23.623  33.083   3.288
33776W        W93279   1.355   3.861  14.762
33777W        W93280  30.476   5.342  14.325
33778W        W93281   0.829   3.885   4.197
33779W        W93282  38.482  19.281  12.992
33780W        W93283  27.613  33.984   3.169
33781W        W93284  33.617  10.660   0.258
33782W        W93285   1.241  37.918  12.565
33783W        W93286  11.315   1.737   0.881
33784W        W93287  10.225  15.279  14.773
33785W        W93288   0.846   0.743   1.264
33786W        W93289   6.213  12.845   4.828
33787W        W93290  10.845  17.605  14.852
33788W        W93291   5.375  43.508  12.418
33789W        W93292  40.438  34.091  13.017
33790W        W93293  38.401  22.668  12.426
33791W        W93294   1.424  44.373   3.299
33792W        W93295   7.346  27.109  10.945
33793W        W93296  28.657  20.689   0.355
33794W        W93297  13.608   2.751   3.664
33795W        W93298  40.016  18.145  14.891
33796W        W93299  41.921  13.255  12.042
33797W        W93300  22.668  35.422   4.336
33798W        W93301   1.327  41.944  14.506
33799W        W93302  24.019  29.425   4.656
33800W        W93303  34.460   7.171  14.844
33801W        W93304  18.656  44.370   1.696
33802W        W93305  36.031   6.761  11.005
33803W        W93306  10.139  15.769   2.234
33804W        W93307  11.251   0.821  13.830
33805W        W93308  34.067  27.016  11.454
33806W        W93309  34.106  28.121  11.580
33807W        W93310  32.910  42.311   1.934
33808W        W93311   7.900   9.649  11.118
33809W        W93312  33.534  15.112   2.747
33810W        W93313  11.805  35.403  14.983
33811W        W93314   2.850  14.629   2.215
33812W        W93315  44.339  43.291  10.996
33813W        W93316  28.122  19.727   4.808
33814W        W93317  37.973  25.122  14.928
33815W        W93318  12.754  16.660   0.388
33816W        W93319   9.204  41.966  12.932
33817W        W93320  20.199   3.349  14.836
33818W        W93321  10.715  37.980   4.126
33819W        W93322   3.807  12.303   1.267
33820W        W93323  20.210  30.040  13.508
33821W        W93324   9.688  23.705  11.052
33822W        W93325  37.942  43.316   2.349
33823W        W93326   9.800   7.832  12.540
33824W        W93327  21.033  28.941   0.264
33825W        W93328   8.801  44.481  14.929
33826W        W93329  37.025  21.120  11.508
33827W        W93330  12.620  41.295   3.333
33828W        W93331  30.576  40.824  12.418
33829W        W93332  23.687  24.101   4.335
33830W        W93333   5.431  24.519   4.723
33831W        W93334  24.641  16.809  14.031
33832W        W93335   5.736  27.651  11.121
33833W        W93336   6.273  18.265   0.914
33834W        W93337   8.296  37.458  10.512
33835W        W93338  11.165  39.034  10.977
33836W        W93339   8.333  25.600   4.663
33837W        W93340  17.286  24.654   1.698
33838W        W93341  28.622  38.534  12.487
33839W        W93342   1.248  30.983  14.355
33840W        W93343  21.752  40.998  12.938
33841W        W93344   2.747  24.152   3.820
33842W        W93345  16.808  20.753   1.291
33843W        W93346  44.464  29.960   4.190
33844W        W93347  32.392  20.102  13.901
33845W        W93348  16.639  33.604   4.689
33846W        W93349  38.895  44.458  10.558
33847W        W93350  20.568  44.428   1.900
33848W        W93351  33.909  41.870   1.310
33849W        W93352  24.682  44.781  13.840
33850W        W93353  14.165  23.541  13.390
33851W        W93354   9.829  22.169  12.524
33852W        W93355  43.489   5.807   4.778
33853W        W93356  24.510  21.080   4.145
33854W        W93357  28.437   9.873  11.933
33855W        W93358  36.079  11.770  12.487
33856W        W93359   6.390  29.945   0.249
33857W        W93360  39.411  32.023   0.919
33858W        W93361   0.886  37.859   0.729
33859W        W93362  39.944  39.433   1.724
33860W        W93363   6.678  25.606   1.726
33861W        W93364  35.365  31.934   2.789
33862W        W93365  14.163  34.531   2.224
33863W        W93366   2.823  11.352   3.799
33864W        W93367  16.109  16.606  12.517
33865W        W93368  30.643  43.015  11.948
33866W        W93369  30.569  38.052   3.194
33867W        W93370  26.525  33.531   4.124
33868W        W93371  44.845  40.014  14.861
33869W        W93372   4.407  30.469   4.278
33870W        W93373   6.913  33.097  13.965
33871W        W93374  42.826   5.218  12.393
33872W        W93375  16.723  21.563  13.908
33873W        W93376  43.382  21.676  11.085
33874W        W93377  34.386  43.352   3.161
33875W        W93378  27.147   1.360   4.645
33876W        W93379  43.774  30.427   3.272
33877W        W93380   3.265   9.698   3.633
33878W        W93381  34.515  43.483  11.540
33879W        W93382  34.577  20.761  13.418
33880W        W93383  29.574  10.852  14.469
33881W        W93384  43.856  21.577   3.811
33882W        W93385  21.732  31.403   2.376
33883W        W93386   1.316  38.472   0.961
33884W        W93387  40.807  14.729   2.794
33885W        W93388  36.098   3.858  13.841
33886W        W93389   9.720   1.365   0.782
33887W        W93390  22.501  31.491  12.070
33888W        W93391  19.719  11.793   1.750
33889W        W93392  18.607  17.274  10.575
33890W        W93393  28.626  22.513  14.487
33891W        W93394  27.567  10.270  12.943
33892W        W93395  30.582   8.210   2.383
33893W        W93396  37.948  34.395   1.450
33894W        W93397  18.286  14.805  12.851
33895W        W93398  13.764  23.660   0.245
33896W        W93399   7.227  21.038  14.819
33897W        W93400   4.268   3.826   0.350
33898W        W93401  38.968  29.038   1.822
33899W        W93402  43.934  27.057  12.351
33900W        W93403  44.375   3.865   0.759
33901W        W93404  15.141  16.569   1.309
33902W        W93405  23.531  31.949   1.306
33903W        W93406  14.230  34.048  12.830
33904W        W93407  31.579   4.939  13.491
33905W        W93408  20.186  42.407   2.769
33906W        W93409  42.021  15.316  11.553
33907W        W93410  44.759  27.656  14.488
33908W        W93411   3.926  19.178  11.053
33909W        W93412  29.159  14.303   9.480
33910W        W93413  28.984  17.740   3.257
33911W        W93414  39.046  20.112  11.568
33912W        W93415  30.444   1.294   1.381
33913W        W93416  33.470  26.682  13.995
33914W        W93417  32.961  40.856   4.648
33915W        W93418   8.869  10.192  10.927
33916W        W93419   2.747  12.696  12.088
33917W        W93420  44.379  15.761  13.906
33918W        W93421  11.849  13.291  14.509
33919W        W93422   0.430  19.125  12.070
33920W        W93423  12.223  32.912  14.429
33921W        W93424  19.736  20.268  11.864
33922W        W93425  24.195   4.905  12.517
33923W        W93426  13.760  37.884  12.901
33924W        W93427  12.640  18.247  14.863
33925W        W93428  20.544  22.112  10.608
33926W        W93429  25.032  28.045   0.298
33927W        W93430   0.850  18.647   9.951
33928W        W93431   4.415  18.587   1.902
33929W        W93432   4.442   6.680  13.833
33930W        W93433  25.573  24.578   1.736
33931W        W93434   1.975   9.253  11.910
33932W        W93435   8.868  21.621   0.383
33933W        W93436  17.172  40.939   0.951
33934W        W93437  19.196   9.670  14.919
33935W        W93438  35.995  36.887   2.285
33936W        W93439   1.963  15.747   0.408
33937W        W93440  40.875  28.042   2.282
33938W        W93441  26.647  27.006   4.673
33939W        W93442  33.933  28.999   2.244
33940W        W93443  24.029  17.788   3.784
33941W        W93444  12.852  12.266  10.978
33942W        W93445  24.537  13.228   0.853
33943W        W93446  33.453  41.879  13.444
33944W        W93447  39.560  33.535   0.927
33945W        W93448  43.318   5.757   0.473
33946W        W93449  37.469   5.347   0.341
33947W        W93450   8.753  41.868   0.355
33948W        W93451  15.710  19.580   4.675
33949W        W93452  35.950  30.608   2.870
33950W        W93453  36.069  44.264  13.457
33951W        W93454   4.221  38.498  11.911
33952W        W93455  12.676   8.681  13.057
33953W        W93456  11.650   4.371   3.256
33954W        W93457  11.688   0.813   3.800
33955W        W93458  21.077   7.251   2.670
33956W        W93459  28.447  43.956   4.310
33957W        W93460  32.975  42.984  11.041
33958W        W93461   0.282   7.318  11.922
33959W        W93462  21.209  14.769  12.343
33960W        W93463   0.792  15.621   3.663
33961W        W93464  38.475   4.358  10.994
33962W        W93465   2.779  34.920  14.913
33963W        W93466  11.794  19.569  10.471
33964W        W93467  24.625  32.452   2.339
33965W        W93468  26.557  30.416  14.416
33966W        W93469   4.786  35.949   1.305
33967W        W93470  20.528  34.022   3.632
33968W        W93471  19.155   9.767   1.771
33969W        W93472  40.529  38.910   4.761
33970W        W93473  13.773  44.931   1.245
33971W        W93474  40.324  18.172  10.635
33972W        W93475  10.314   5.366   4.231
33973W        W93476   8.860  28.585   3.714
33974W        W93477  20.606  23.994  13.462
33975W        W93478  22.570  39.868  14.823
33976W        W93479  20.142  31.936  14.810
33977W        W93480  33.612  44.789   4.274
33978W        W93481  35.973  38.934  11.963
33979W        W93482  22.638  15.687  12.027
33980W        W93483  12.141  22.199  14.781
33981W        W93484  30.974  35.880  11.894
33982W        W93485  12.847  28.080   1.860
33983W        W93486   5.424  39.036   4.144
33984W        W93487  38.036  22.525  10.441
33985W        W93488  32.978  39.838   2.265
33986W        W93489  42.820   1.419  13.389
33987W        W93490  33.943  35.084   5.190
33988W        W93491  18.145  42.991   2.870
33989W        W93492  22.239  41.341   3.164
33990W        W93493  33.118  44.812   4.778
33991W        W93494  28.447   0.806  14.421
33992W        W93495  11.850  29.538  12.579
33993W        W93496   5.433  39.384   3.304
33994W        W93497  26.501   4.797  14.949
33995W        W93498  24.697   6.318   1.927
33996W        W93499  42.363  21.175   3.793
33997W        W93500   4.729  32.131  10.538
33998W        W93501   0.960  25.003   4.770
33999W        W93502  30.954  26.153  13.364
34000W        W93503   0.764  24.524   3.324
34001W        W93504  19.597  20.147  11.516
34002W        W93505   2.252  43.777   1.392
34003W        W93506  44.495  28.441  13.341
34004W        W93507  11.810  23.691  13.891
34005W        W93508  34.391  36.920   0.887
34006W        W93509  25.495  28.671  11.557
34007W        W93510  41.426  34.081  12.356
34008W        W93511  10.735  24.174  12.409
34009W        W93512  12.667  17.588  11.513
34010W        W93513  43.332   2.472  13.449
34011W        W93514  13.826  41.026   0.934
34012W        W93515  20.735  13.822   1.889
34013W        W93516  20.209   7.352  14.762
34014W        W93517  38.445   5.910   1.228
34015W        W93518  11.208   4.386  10.535
34016W        W93519  30.996  36.375  13.397
34017W        W93520  12.813  11.744  10.895
34018W        W93521  18.721  26.587  12.371
34019W        W93522  13.742  30.949   2.340
34020W        W93523  15.248   9.822   4.689
34021W        W93524   7.415   1.315   0.914
34022W        W93525  27.015  34.997  11.098
34023W        W93526  21.588  33.016  13.458
34024W        W93527  19.198  25.688  12.948
34025W        W93528  15.179  34.873   2.340
34026W        W93529  40.523  16.722  12.095
34027W        W93530  38.568  25.492  13.408
34028W        W93531  33.111  42.838   2.338
34029W        W93532  11.307   3.759  11.039
34030W        W93533  20.721   8.275  10.442
34031W        W93534   3.375  41.430   3.655
34032W        W93535  31.950  34.511   9.925
34033W        W93536   3.295   4.813  11.113
34034W        W93537  36.922   8.306  10.476
34035W        W93538  43.278  39.877  11.032
34036W        W93539  36.519  16.629  11.033
34037W        W93540  25.528   7.187   2.187
34038W        W93541  38.944  38.555   2.283
34039W        W93542  44.461  35.549  13.922
34040W        W93543   5.420  24.088   1.255
34041W        W93544   3.739   4.258  11.424
34042W        W93545  12.715  43.000   0.468
34043W        W93546  23.131  11.750   3.374
34044W        W93547   5.415  30.604   4.758
34045W        W93548   4.308   4.928   3.148
34046W        W93549  24.038  26.129   3.851
34047W        W93550  25.659   3.861  11.503
34048W        W93551   8.171   1.437  13.410
34049W        W93552  25.156  23.033   1.772
34050W        W93553  11.342  43.912   1.919
34051W        W93554  12.829  37.886   0.374
34052W        W93555   7.684  28.650   4.210
34053W        W93556  41.944  27.182  12.446
34054W        W93557  19.081  21.202   4.611
34055W        W93558  15.817  11.805   0.245
34056W        W93559  27.606  21.736  11.415
34057W        W93560  44.301  11.281   0.880
34058W        W93561   2.338   7.754   4.246
34059W        W93562  40.519  27.451  13.867
34060W        W93563  28.498  30.616   4.778
34061W        W93564  32.518   4.262   2.846
34062W        W93565   2.334   2.470  14.950
34063W        W93566  38.395  21.753  12.416
34064W        W93567   8.709  16.604   3.718
34065W        W93568  10.650  43.764   2.405
34066W        W93569  12.807  43.478   0.945
34067W        W93570  37.473  11.174   1.785
34068W        W93571  36.374  15.594   3.809
34069W        W93572  21.188  28.931  10.480
34070W        W93573  27.588  39.542  12.094
34071W        W93574  17.768  17.794  14.432
34072W        W93575  19.153  14.833   0.774
34073W        W93576   0.384  36.527  13.523
34074W        W93577  44.869  31.576  13.919
34075W        W93578  27.185   3.950   2.258
34076W        W93579  17.210  10.838  14.360
34077W        W93580  30.114  22.659  12.085
34078W        W93581  19.138   7.679  11.498
34079W        W93582   1.390  36.387  13.493
34080W        W93583  14.273   1.968   3.380
34081W        W93584  21.185   9.178   3.194
34082W        W93585  22.006   2.256  12.889
34083W        W93586  18.211  40.380   3.252
34084W        W93587  14.139  34.552   3.797
34085W        W93588  16.173  23.021  10.412
34086W        W93589  28.003  25.024   1.443
34087W        W93590  26.501   3.714  11.095
34088W        W93591  25.074  31.613   0.917
34089W        W93592  21.721  37.875  11.486
34090W        W93593  15.669  30.649  11.421
34091W        W93594   7.324  21.157   3.690
34092W        W93595   3.386  37.497  14.775
34093W        W93596  23.001  38.994   3.348
34094W        W93597  32.124  17.754   2.228
34095W        W93598  16.277  19.184   1.910
34096W        W93599  25.542  34.097   0.929
34097W        W93600  36.078  28.436  11.931
34098W        W93601  11.295   6.680  14.321
34099W        W93602  11.807   5.885  11.440
34100W        W93603   7.335  21.688   2.736
34101W        W93604   3.765  42.820   3.285
34102W        W93605  34.076  36.350  11.953
34103W        W93606  22.146  11.178   4.648
34104W        W93607  44.446  22.538   4.202
34105W        W93608   1.240  36.526   3.370
34106W        W93609   5.749  17.627   3.297
34107W        W93610   3.882  17.595  12.004
34108W        W93611  31.588  37.032  13.916
34109W        W93612   2.795  28.447   2.679
34110W        W93613  24.609   8.710  14.861
34111W        W93614  16.073   5.357   4.164
34112W        W93615   4.898  22.194   3.212
34113W        W93616  41.873  16.187  14.366
34114W        W93617  33.575   9.222   0.792
34115W        W93618  14.821  38.538  14.008
34116W        W93619  30.518   6.243   0.756
34117W        W93620  36.519  35.019  11.459
34118W        W93621  36.955  42.863   1.394
34119W        W93622  37.504   7.281   0.925
34120W        W93623  10.831   8.732   0.401
34121W        W93624   1.434  12.348  12.382
34122W        W93625  32.468  19.584   4.297
34123W        W93626  40.399   0.851  11.963
34124W        W93627  17.631  13.684   4.116
34125W        W93628   7.804  19.666   0.395
34126W        W93629  27.058  19.107  11.056
34127W        W93630   0.324  43.437  10.125
34128W        W93631  39.844   9.284   0.309
34129W        W93632   9.267  18.267   1.284
34130W        W93633   7.842  35.070  14.815
34131W        W93634   5.432  38.495   2.264
34132W        W93635   1.911  25.520  13.469
34133W        W93636  31.407   1.460   0.469
34134W        W93637   7.364  27.540  14.021
34135W        W93638   4.745  18.613  10.970
34136W        W93639   4.886  28.602   1.742
34137W        W93640  10.736  24.681   3.346
34138W        W93641  44.995   9.334   2.851
34139W        W93642  23.594  34.020  12.469
34140W        W93643   6.758  23.494   4.153
34141W        W93644  17.286  39.475  13.865
34142W        W93645  44.866  36.883   3.855
34143W        W93646  38.340  43.409  13.938
34144W        W93647  40.377  42.924   4.219
34145W        W93648   3.934   3.739  10.963
34146W        W93649  12.168  16.261  11.077
34147W        W93650  22.618   2.394   3.180
34148W        W93651  31.402  26.208   4.306
34149W        W93652  28.035  30.522  10.431
34150W        W93653  34.597  15.780   1.449
34151W        W93654   7.783  10.869   3.660
34152W        W93655  23.700  43.913  10.069
34153W        W93656  24.604  15.163   1.401
34154W        W93657  42.022   8.353  11.086
34155W        W93658  44.387  44.295   0.938
34156W        W93659  41.830  14.719   0.382
34157W        W93660   2.399  22.193  12.097
34158W        W93661  18.676  27.124   3.375
34159W        W93662  24.153  15.183  11.115
34160W        W93663  29.954  43.774   0.300
34161W        W93664  39.863  29.597  13.055
34162W        W93665  22.556  37.473   0.951
34163W        W93666  11.161  17.249   1.424
34164W        W93667  39.493  36.940  11.059
34165W        W93668   3.223  20.647  14.792
34166W        W93669  19.222  17.637   1.405
34167W        W93670  32.496   2.885   0.815
34168W        W93671  44.961  24.007   2.804
34169W        W93672  21.081  15.625  11.095
34170W        W93673  18.632  15.685   5.292
34171W        W93674  42.471  29.052  14.764
34172W        W93675  17.185   1.770   4.608
34173W        W93676  37.528  17.234  13.511
34174W        W93677  37.357  25.193   0.455
34175W        W93678  20.624  10.786   2.348
34176W        W93679  21.628  39.355  13.904
34177W        W93680  32.544  13.841  12.339
34178W        W93681   5.345  10.207   1.448
34179W        W93682  26.658  41.959  13.914
34180W        W93683   1.247  30.560   1.422
34181W        W93684  29.582  26.116   2.382
34182W        W93685   9.778  41.877   1.437
34183W        W93686  20.136  17.732   3.822
34184W        W93687  36.049  23.197  10.907
34185W        W93688  36.512  17.616  13.809
34186W        W93689   2.817  10.657  12.538
34187W        W93690  11.814  30.052   0.382
34188W        W93691  13.183   2.424   1.335
34189W        W93692  34.516  41.495  13.534
34190W        W93693  10.844  37.381   0.798
34191W        W93694  15.310  25.078  11.609
34192W        W93695  24.710  32.019   1.837
34193W        W93696  42.890  39.431   0.260
34194W        W93697   3.955   1.383   9.631
34195W        W93698  31.554   2.280  13.503
34196W        W93699  37.577   8.779   1.756
34197W        W93700  38.925  41.942  14.849
34198W        W93701  18.625  30.535   4.248
34199W        W93702   0.764  30.065  12.500
34200W        W93703  22.577   8.723  10.571
34201W        W93704  29.057  15.819  12.917
34202W        W93705  21.168   2.762  10.896
34203W        W93706  43.426  37.856  12.825
34204W        W93707  36.969   2.862   2.225
34205W        W93708  11.668  36.424   4.213
34206W        W93709  41.483  24.131   2.882
34207W        W93710  34.459   5.905  13.903
34208W        W93711   6.742  40.355   0.414
34209W        W93712   1.737  33.061   3.308
34210W        W93713  11.693  28.967  11.471
34211W        W93714  22.063   2.833   3.689
34212W        W93715  39.877  17.176  10.535
34213W        W93716  25.693   8.842  12.884
34214W        W93717  38.534   6.914  14.454
34215W        W93718   8.783  22.105  11.042
34216W        W93719  30.959  30.475   0.956
34217W        W93720   4.850  36.920   0.828
34218W        W93721   4.357   8.298  13.320
34219W        W93722  32.984  11.739   3.758
34220W        W93723  24.124  10.225   2.322
34221W        W93724  30.516   9.668  11.500
34222W        W93725   1.875  29.064  14.844
34223W        W93726  42.907  44.908   0.741
34224W        W93727  29.084   6.253  13.496
34225W        W93728  39.058  23.118   1.754
34226W        W93729  19.632  26.612  11.605
34227W        W93730  27.488  27.140  10.050
34228W        W93731  44.390  36.033   1.241
34229W        W93732  11.636  13.267   2.895
34230W        W93733  27.178  43.818  13.331
34231W        W93734  22.094  14.787  14.801
34232W        W93735  34.371   6.343   4.768
34233W        W93736  37.048  17.605  10.529
34234W        W93737  41.856  22.681  10.486
34235W        W93738  27.062  27.624  13.407
34236W        W93739  26.121  14.649  12.854
34237W        W93740  21.514  24.505  14.803
34238W        W93741  32.027   8.209   0.856
34239W        W93742   9.186  31.092  12.987
34240W        W93743  39.866   1.257   2.667
34241W        W93744  28.673  32.892   3.742
34242W        W93745  44.899  24.644   0.939
34243W        W93746   6.724   4.873  10.549
34244W        W93747   0.377  39.466  14.323
34245W        W93748  23.174  36.353   4.695
34246W        W93749  16.096  13.717   4.122
34247W        W93750  25.213  23.571  14.805
34248W        W93751   5.705  31.990  12.920
34249W        W93752  36.081  26.605  10.548
34250W        W93753  39.949  17.616  14.787
34251W        W93754   1.442  19.568  13.018
34252W        W93755   5.193  22.569  11.424
34253W        W93756  34.448  32.613  14.836
34254W        W93757  43.381  33.972   2.899
34255W        W93758  11.694  10.835   2.786
34256W        W93759   7.402  33.448   2.285
34257W        W93760  38.039  44.856  10.985
34258W        W93761  29.115  16.233   2.390
34259W        W93762   9.810  29.614   1.227
34260W        W93763  21.540  40.964   2.185
34261W        W93764  30.520  25.537   2.783
34262W        W93765  28.074   0.408  12.380
34263W        W93766   9.241  19.746  14.451
34264W        W93767  35.401  15.636   3.290
34265W        W93768  33.117  22.025   4.693
34266W        W93769  11.199  10.748   2.271
34267W        W93770  35.864  36.393   0.436
34268W        W93771  17.196  13.701   1.394
34269W        W93772  16.307  15.702  13.370
34270W        W93773   5.715  14.748  10.962
34271W        W93774  15.779  11.151   0.754
34272W        W93775  25.073   0.275  14.333
34273W        W93776  27.639  37.413  14.352
34274W        W93777  44.309  34.923   1.429
34275W        W93778   3.949   0.983  11.917
34276W        W93779  37.933  31.987  10.012
34277W        W93780   6.797  34.603   3.855
34278W        W93781  16.086  19.641   2.198
34279W        W93782  31.144  16.110   3.797
34280W        W93783  24.209   8.177   1.446
34281W        W93784   5.369  26.548  11.033
34282W        W93785  25.109  38.494   2.272
34283W        W93786  10.223  20.225   5.125
34284W        W93787  10.831  15.271  10.438
34285W        W93788  11.857   2.371  12.467
34286W        W93789  17.585  23.707  12.563
34287W        W93790  18.183  28.931   0.263
34288W        W93791  14.820  25.485   4.190
34289W        W93792  26.069  16.082  14.309
34290W        W93793  13.135   0.485   1.813
34291W        W93794  43.448   9.256   2.709
34292W        W93795  25.190   6.730  11.511
34293W        W93796  15.253  40.530   3.147
34294W        W93797  20.759  38.562  12.397
34295W        W93798   3.251  34.603   1.290
34296W        W93799   6.676   7.255   1.371
34297W        W93800  27.678   8.253  13.419
34298W        W93801  32.595   6.723   0.807
34299W        W93802  18.162  10.215   0.445
34300W        W93803  39.909  13.700  12.362
34301W        W93804  39.502   9.684  13.382
34302W        W93805  32.897   9.236   0.477
34303W        W93806  19.593   3.915  14.024
34304W        W93807   8.238  16.631  13.840
34305W        W93808  24.052  28.166  10.426
34306W        W93809  15.655  24.012  11.494
34307W        W93810   2.283  41.526  14.906
34308W        W93811  34.552  29.143  14.346
34309W        W93812  36.984  18.643  12.018
34310W        W93813  30.002  25.647  11.551
34311W        W93814   2.289  19.237   5.142
34312W        W93815  36.583   0.433   1.351
34313W        W93816  28.563  41.381  11.400
34314W        W93817  10.641  44.453   1.363
34315W        W93818  25.684  40.843  11.379
34316W        W93819  33.952  41.955   0.319
34317W        W93820   3.901  11.749  12.902
34318W        W93821  30.966  22.585   3.364
34319W        W93822  20.090  38.350  12.543
34320W        W93823  27.112   2.238   1.902
34321W        W93824  35.431  15.790  13.544
34322W        W93825  33.445  44.466   5.291
34323W        W93826  21.587  43.333   1.216
34324W        W93827  18.113  30.117   0.816
34325W        W93828  24.539   9.656   1.894
34326W        W93829  13.751   3.383  13.406
34327W        W93830   1.902   3.923   1.411
34328W        W93831  15.312  32.117  13.909
34329W        W93832  11.866   6.899   4.768
34330W        W93833  12.856  12.162  14.497
34331W        W93834  32.418  14.658   1.423
34332W        W93835  20.234   1.740  12.424
34333W        W93836  41.969  16.102   4.121
34334W        W93837  19.752  21.073   0.277
34335W        W93838  35.877  32.482  11.497
34336W        W93839   7.689  20.127   3.708
34337W        W93840  19.228  21.757   1.230
34338W        W93841  42.414  21.697   3.821
34339W        W93842  34.109  25.597  13.467
34340W        W93843   5.845  28.033  12.028
34341W        W93844  32.929  36.457   2.207
34342W        W93845  28.093   7.251  10.475
34343W        W93846  22.623  28.994   0.434
34344W        W93847  19.081  28.667  12.073
34345W        W93848   8.694  18.600   2.396
34346W        W93849  39.884  39.832  13.018
34347W        W93850  19.631  33.991  11.550
34348W        W93851  33.948  11.661  12.085
34349W        W93852   2.435  37.971   4.724
34350W        W93853  39.931  12.647  14.315
34351W        W93854   1.240  22.689  10.934
34352W        W93855   9.842  20.526  13.042
34353W        W93856  13.298   1.932   1.724
34354W        W93857  13.784   1.315  12.531
34355W        W93858  24.525  33.552  14.919
34356W        W93859   9.819  43.288  10.634
34357W        W93860  16.259  21.518  14.486
34358W        W93861  20.717  25.109  12.578
34359W        W93862  33.071  35.534  13.793
34360W        W93863  27.032   6.905   2.393
34361W        W93864  35.455  21.684  14.456
34362W        W93865   5.436  43.781   1.709
34363W        W93866   6.681  31.446  12.834
34364W        W93867  16.104  35.872  13.311
34365W        W93868   3.416  15.641  10.014
34366W        W93869  32.452   0.396   2.359
34367W        W93870  20.124   6.757  14.365
34368W        W93871   1.805  38.561  12.911
34369W        W93872   5.296  25.546  13.409
34370W        W93873   4.855  43.424   0.442
34371W        W93874  22.106  15.295  10.405
34372W        W93875  17.166  11.635   5.283
34373W        W93876  27.959   3.356  12.933
34374W        W93877  16.215  18.721  11.378
34375W        W93878  13.285  20.142   0.824
34376W        W93879  27.512  13.755   3.758
34377W        W93880   3.823  14.166   2.832
34378W        W93881  44.400  44.259   3.731
34379W        W93882  23.124  39.953  10.451
34380W        W93883  35.027  37.053  14.486
34381W        W93884  11.215  31.447   4.815
34382W        W93885   6.902  22.722   0.421
34383W        W93886   7.396  39.951   1.425
34384W        W93887  13.755  20.661  11.404
34385W        W93888  20.198  32.586  10.919
34386W        W93889   8.260  15.088  11.007
34387W        W93890   3.838  29.084   1.265
34388W        W93891  42.926  29.921   1.878
34389W        W93892  37.563   1.734   3.330
34390W        W93893  10.874  19.088   3.672
34391W        W93894   7.320   7.724   4.151
34392W        W93895  33.978  14.155  12.351
34393W        W93896  19.597   0.410  12.497
34394W        W93897  12.355  40.845   2.727
34395W        W93898   1.463  37.509   1.329
34396W        W93899  25.021   7.187  10.894
34397W        W93900  33.560  35.583  13.825
34398W        W93901   4.308  34.559  11.470
34399W        W93902  39.386   8.248  12.539
34400W        W93903  38.835  13.632   2.309
34401W        W93904  13.654  22.179  13.374
34402W        W93905  24.610  16.273  10.611
34403W        W93906  43.417  24.655  13.509
34404W        W93907  39.057  24.230  13.836
34405W        W93908  41.971  41.391   2.730
34406W        W93909  14.284   5.932   2.710
34407W        W93910   5.356  17.761  11.093
34408W        W93911   7.397  28.605  14.833
34409W        W93912  30.096  12.730  11.924
34410W        W93913  34.511   9.753   1.343
34411W        W93914   5.702  41.316   1.812
34412W        W93915  25.037  43.872   2.859
34413W        W93916   2.365  17.799   1.882
34414W        W93917   8.298  15.140  11.453
34415W        W93918  33.554  34.983   0.847
34416W        W93919   5.394  13.270   4.307
34417W        W93920  34.935  29.148  13.837
34418W        W93921  43.969  35.565   1.292
34419W        W93922  16.698  38.036   2.732
34420W        W93923   7.813  22.710  14.878
34421W        W93924  26.995  20.124  10.559
34422W        W93925  40.826   4.249  13.952
34423W        W93926   6.771  16.735  11.576
34424W        W93927   2.829  26.144  12.383
34425W        W93928  38.065  22.138   4.170
34426W        W93929   8.311   0.786   3.177
34427W        W93930  23.580  15.666  14.500
34428W        W93931  25.089  10.784  12.951
34429W        W93932  27.504  11.271  11.469
34430W        W93933   6.816  24.703  12.971
34431W        W93934  36.896  37.908  13.832
34432W        W93935  13.158  42.852  14.395
34433W        W93936  27.195   7.232  14.901
34434W        W93937  16.172  18.086   3.845
34435W        W93938  39.402  16.763   3.296
34436W        W93939  18.781  42.362   1.749
34437W        W93940  42.977  20.252   1.218
34438W        W93941   1.843   8.352  10.956
34439W        W93942  38.524  35.997  14.461
34440W        W93943  37.921  19.078   4.219
34441W        W93944  30.495  18.598   3.811
34442W        W93945  32.895  33.545   3.681
34443W        W93946   3.310  37.515  12.438
34444W        W93947   8.322  17.126   2.336
34445W        W93948  14.789   7.735   1.421
34446W        W93949   0.749  43.956   2.882
34447W        W93950  38.447  28.133  14.322
34448W        W93951  26.583  19.724   3.673
34449W        W93952  35.861  23.132   4.771
34450W        W93953  28.930   5.778   1.906
34451W        W93954  13.691   0.296  13.962
34452W        W93955  36.543   3.954   1.892
34453W        W93956   8.693  29.148  13.419
34454W        W93957  37.916   9.387  10.413
34455W        W93958   4.413   0.374  14.371
34456W        W93959   3.764  22.034   2.253
34457W        W93960  23.100  14.804  12.438
34458W        W93961  15.727  41.898  12.559
34459W        W93962  13.261   9.381   4.164
34460W        W93963  43.398  43.402   2.808
34461W        W93964  29.485   5.368   2.403
34462W        W93965  19.173   7.265   4.754
34463W        W93966  20.544  26.082   0.940
34464W        W93967  22.198  25.088  11.554
34465W        W93968  27.088  35.501  13.378
34466W        W93969  42.904  25.644   4.672
34467W        W93970  17.303  30.123  11.581
34468W        W93971  26.100   0.426  12.037
34469W        W93972  36.079  12.224  14.910
34470W        W93973  33.073   1.318   2.730
34471W        W93974  19.647  18.071   1.805
34472W        W93975   2.877   8.335   1.910
34473W        W93976  32.461  22.055   4.243
34474W        W93977  19.242  35.902   4.773
34475W        W93978  39.918  41.301  14.283
34476W        W93979  20.656   2.946   3.641
34477W        W93980  20.202  22.070  11.882
34478W        W93981   2.936  33.559   0.752
34479W        W93982  37.832  39.418  14.900
34480W        W93983  39.338   5.300  12.420
34481W        W93984  17.278   5.362   0.468
34482W        W93985   3.830  31.007  13.812
34483W        W93986  39.364  14.700   4.229
34484W        W93987  28.474  23.569   2.825
34485W        W93988  17.195  24.711   1.447
34486W        W93989  15.585  20.189   1.418
34487W        W93990   6.182  42.426  11.111
34488W        W93991  12.127  17.193   3.643
34489W        W93992  44.428  16.297  14.370
34490W        W93993  35.444  16.097   1.704
34491W        W93994  43.772  16.179  10.453
34492W        W93995  40.996  38.475   3.318
34493W        W93996  22.217  43.961  13.540
34494W        W93997   1.349  25.580   1.918
34495W        W93998  38.975  25.620   3.709
34496W        W93999  24.214  36.424   0.808
34497W        W94000  23.734  17.260   2.866
34498W        W94001  43.771  14.322   3.854
34499W        W94002   3.945  19.605   0.895
34500W        W94003  11.281  21.184   2.769
34501W        W94004  30.478  11.278   4.199
34502W        W94005   1.744   1.292  14.763
34503W        W94006  35.474  39.319  13.810
34504W        W94007  23.577  23.559   4.728
34505W        W94008   7.339  16.755   1.269
34506W        W94009  31.590   9.735  13.386
34507W        W94010  27.573  34.054  12.433
34508W        W94011  25.970  12.711   0.281
34509W        W94012  27.096  14.251  13.017
34510W        W94013  33.074  33.447   0.816
34511W        W94014  26.005  19.121   0.478
34512W        W94015  14.803  16.606  12.975
34513W        W94016  40.409  32.063   1.307
34514W        W94017   2.266  16.279  10.974
34515W        W94018   8.721  17.609  12.463
34516W        W94019  29.633   1.746  10.532
34517W        W94020  31.941   9.194  13.858
34518W        W94021  19.094  28.079   0.766
34519W        W94022  11.173  44.371   2.227
34520W        W94023   3.259  44.788  14.783
34521W        W94024  29.552   3.720   4.212
34522W        W94025  19.729  14.668  14.454
34523W        W94026  36.351  39.386   1.349
34524W        W94027  34.973  24.115   0.922
34525W        W94028  40.511  29.483  11.550
34526W        W94029  32.093  28.093  12.958
34527W        W94030  16.259  29.083   3.345
34528W        W94031  31.120  39.320  13.943
34529W        W94032  31.918  39.503  12.904
34530W        W94033  16.727   3.948   0.354
34531W        W94034   8.398   2.941   0.948
34532W        W94035  36.897  34.045   3.376
34533W        W94036  38.400  44.269   4.184
34534W        W94037  34.867   8.198   4.619
34535W        W94038   2.403  19.716   5.221
34536W        W94039  14.334   5.301  11.424
34537W        W94040  25.157  13.139  13.016
34538W        W94041  20.660  24.573  13.942
34539W        W94042  14.168   9.185   3.333
34540W        W94043   0.946   7.853  10.937
34541W        W94044  14.759  29.048  13.979
34542W        W94045   2.389  18.721  12.016
34543W        W94046  39.844   4.267  13.411
34544W        W94047  21.256   9.881   0.776
34545W        W94048  23.492  31.929  13.934
34546W        W94049  40.512  39.049   3.846
34547W        W94050  44.347  29.052   2.819
34548W        W94051  33.984  10.652   4.598
34549W        W94052  31.495  42.496  10.528
34550W        W94053   0.751  32.030  11.376
34551W        W94054  41.536  15.807   3.658
34552W        W94055  31.402  31.530   1.779
34553W        W94056  27.500   3.293  11.061
34554W        W94057  25.017  39.421  14.808
34555W        W94058  22.619  15.744   3.632
34556W        W94059  38.556  38.515  12.941
34557W        W94060  19.142  37.976  12.832
34558W        W94061  33.044  39.014  11.109
34559W        W94062  11.776  34.451   0.437
34560W        W94063  35.499  19.774  12.421
34561W        W94064  10.677   6.392   2.743
34562W        W94065  35.442  38.961  10.520
34563W        W94066  26.690  38.065  10.558
34564W        W94067  25.540  15.662   0.302
34565W        W94068   4.288  30.417   4.720
34566W        W94069   5.876  13.139  12.885
34567W        W94070  38.848  24.980  10.463
34568W        W94071   2.342  11.173  13.879
34569W        W94072  25.975  14.224   3.287
34570W        W94073   8.245   7.791   0.306
34571W        W94074  16.764   1.358   2.351
34572W        W94075   4.784  35.589   0.906
34573W        W94076  34.111   0.385  11.112
34574W        W94077  14.689  40.516   0.415
34575W        W94078  26.138  38.563   4.312
34576W        W94079  32.996  37.043  13.853
34577W        W94080  10.646  23.197   0.335
34578W        W94081  44.854  22.593   0.799
34579W        W94082  32.449   5.195  11.943
34580W        W94083  34.887  11.296  12.358
34581W        W94084  35.599  35.467   4.663
34582W        W94085  34.474  41.413  11.973
34583W        W94086  32.462   1.301  10.944
34584W        W94087   6.361  10.325   1.912
34585W        W94088  23.082  34.941  14.455
34586W        W94089  12.202  37.388  14.373
34587W        W94090  25.541  16.156  14.836
34588W        W94091   5.295   4.829  13.794
34589W        W94092  36.970  18.674   2.849
34590W        W94093  34.882   1.444  10.542
34591W        W94094   7.823  31.483  13.798
34592W        W94095   9.707  21.536   4.311
34593W        W94096  29.570  10.177   0.345
34594W        W94097  15.740   5.879   2.368
34595W        W94098   6.825  33.565   1.327
34596W        W94099  21.217  36.454  14.000
34597W        W94100  34.870  44.298  14.811
34598W        W94101   2.290  35.553   2.384
34599W        W94102  12.299  39.343  14.925
34600W        W94103  32.571  17.675   4.195
34601W        W94104  34.967  43.490  13.935
34602W        W94105   4.416  37.544   1.813
34603W        W94106  18.665  11.673   1.907
34604W        W94107  20.661   9.180   0.381
34605W        W94108  28.149  37.483   0.358
34606W        W94109  23.642  40.426   2.743
34607W        W94110   0.831  31.438  12.855
34608W        W94111   8.810  31.492   0.382
34609W        W94112   9.768  26.461  11.595
34610W        W94113   3.733  41.449   0.763
34611W        W94114  18.177  43.882  10.934
34612W        W94115  13.817  29.934  14.339
34613W        W94116  25.989   5.406   0.736
34614W        W94117  23.172   2.364  12.341
34615W        W94118  36.950  24.537  14.334
34616W        W94119  42.862  30.462  11.505
34617W        W94120  38.466  26.702   9.953
34618W        W94121  44.854  26.032   4.293
34619W        W94122  27.557  14.100  11.097
34620W        W94123  24.053   3.790  11.931
34621W        W94124  22.718  40.043   2.869
34622W        W94125   6.220   8.369  12.828
34623W        W94126  42.389  38.555  12.925
34624W        W94127  31.914  10.668   1.778
34625W        W94128  44.294  21.518   2.335
34626W        W94129   6.356   5.737   2.227
34627W        W94130   8.757   7.834   0.337
34628W        W94131   1.250  15.581  13.342
34629W        W94132  40.983  36.897   3.706
34630W        W94133  18.616  41.432   0.443
34631W        W94134  44.990   1.857   3.384
34632W        W94135  17.083  12.615  14.386
34633W        W94136  44.973  36.559   3.853
34634W        W94137  25.550  20.531  13.472
34635W        W94138  29.498  34.924   3.266
34636W        W94139  19.778   5.420   0.457
34637W        W94140  16.209   5.233   3.815
34638W        W94141  42.322  36.542  14.024
34639W        W94142  17.618   3.349  13.526
34640W        W94143  27.644  24.197  11.006
34641W        W94144  38.960  41.865  12.022
34642W        W94145  10.670  41.818   0.897
34643W        W94146  21.693  36.076   0.826
34644W        W94147   6.217  11.300  13.828
34645W        W94148  37.981  17.654   4.197
34646W        W94149   6.318  24.081   5.104
34647W        W94150   9.344  39.421   0.247
34648W        W94151  42.434  37.462   2.785
34649W        W94152  33.118  29.921   3.176
34650W        W94153  37.344  27.187  14.017
34651W        W94154  43.328  11.158   4.769
34652W        W94155   6.720  10.252   0.906
34653W        W94156  11.767  28.026   3.198
34654W        W94157  24.184   9.733  10.473
34655W        W94158  35.974  13.123   0.363
34656W        W94159  33.614   5.796   3.696
34657W        W94160  25.544  14.647  13.010
34658W        W94161  32.055   7.330  13.997
34659W        W94162  16.299  26.549   0.380
34660W        W94163  44.483  40.406  12.524
34661W        W94164  18.545  17.555   4.254
34662W        W94165  26.972  11.636   4.145
34663W        W94166   4.364  37.485   4.659
34664W        W94167  33.939  26.702   1.774
34665W        W94168  42.946   3.780   0.339
34666W        W94169  22.581  10.291   3.789
34667W        W94170   5.764  40.039  11.560
34668W        W94171  41.820  33.025   4.323
34669W        W94172  38.528   7.246  10.049
34670W        W94173  26.198   8.894   0.770
34671W        W94174   9.876  39.528  11.978
34672W        W94175  15.112  20.215  12.511
34673W        W94176  40.524  35.999   2.262
34674W        W94177  35.868  39.535   0.292
34675W        W94178   5.723   5.831   4.294
34676W        W94179  17.287   3.420  14.366
34677W        W94180  27.627  31.489   4.742
34678W        W94181   2.356  12.649   4.813
34679W        W94182  24.046  19.076   2.703
34680W        W94183  36.922   7.403  10.948
34681W        W94184  31.022  28.953   2.396
34682W        W94185   8.844   5.419   1.450
34683W        W94186  34.035  39.491  12.023
34684W        W94187  22.688  26.952  13.446
34685W        W94188   2.799  35.574   3.278
34686W        W94189  43.512  29.127  10.996
34687W        W94190  35.017  42.883  10.603
34688W        W94191  19.669   1.925   0.448
34689W        W94192  32.577  21.261  11.931
34690W        W94193   4.705  31.998   2.795
34691W        W94194  36.479  41.994  13.441
34692W        W94195  39.826   1.384  13.063
34693W        W94196   9.705   6.883  13.451
34694W        W94197  26.073  31.479  13.039
34695W        W94198  39.041  12.829   2.309
34696W        W94199  14.224  12.675  13.824
34697W        W94200   0.886   5.754   0.755
34698W        W94201  24.152   6.896  12.414
34699W        W94202  30.470  26.513  13.052
34700W        W94203  30.472  40.332   0.256
34701W        W94204  22.731   0.416   2.213
34702W        W94205  34.395  28.180   2.399
34703W        W94206   5.406   9.725   1.396
34704W        W94207  11.171  37.898   3.317
34705W        W94208  20.599   6.417   4.650
34706W        W94209  11.737  42.385   1.433
34707W        W94210  35.436  23.218  10.993
34708W        W94211  15.270  33.576   3.162
34709W        W94212  11.755  35.983   3.863
34710W        W94213  20.630   1.313  11.419
34711W        W94214  15.228  29.625  12.391
34712W        W94215   3.261  34.518  14.338
34713W        W94216  21.589  38.916   2.229
34714W        W94217  13.684  37.547  10.968
34715W        W94218   5.884  35.462   4.661
34716W        W94219  14.211  17.700  11.984
34717W        W94220  30.989   8.718  12.480
34718W        W94221  11.237  41.448  12.515
34719W        W94222  18.226  40.854  12.965
34720W        W94223  20.727  38.544  12.979
34721W        W94224  10.636  16.713  10.619
34722W        W94225  22.600  11.181   4.267
34723W        W94226  23.167  34.448  12.895
34724W        W94227  24.174   3.370  10.138
34725W        W94228  36.522  41.921   3.761
34726W        W94229   8.367  14.698   1.348
34727W        W94230  12.776   2.241   4.181
34728W        W94231  24.185  41.339   2.847
34729W        W94232   5.264   6.857  12.454
34730W        W94233   9.360  36.983   2.688
34731W        W94234  41.381   9.815   4.235
34732W        W94235  17.138  39.458   4.792
34733W        W94236   1.265   4.407  11.886
34734W        W94237   8.361  31.993  11.112
34735W        W94238  29.957   1.905  10.901
34736W        W94239   2.913  17.184   3.633
34737W        W94240   1.898  22.995  13.861
34738W        W94241  32.515  23.218   4.614
34739W        W94242   0.380  32.551   2.677
34740W        W94243  43.441  44.808  12.873
34741W        W94244  30.558  17.178  13.800
34742W        W94245  13.109  43.380   0.428
34743W        W94246  28.485  41.459   2.243
34744W        W94247   5.229  17.146   2.850
34745W        W94248  16.787   3.250  14.797
34746W        W94249   4.450  28.978   1.234
34747W        W94250  11.730  38.057   1.397
34748W        W94251  22.696  22.672   1.218
34749W        W94252  21.027  32.008  14.432
34750W        W94253   0.460   0.451   0.727
34751W        W94254  27.496  16.731  14.468
34752W        W94255  29.660  18.290  12.890
34753W        W94256  16.735  26.095   2.766
34754W        W94257  32.069   5.218   2.761
34755W        W94258   3.941  20.048  12.560
34756W        W94259  15.799  23.182  13.349
34757W        W94260  31.904  23.651  14.506
34758W        W94261   5.804   7.171   3.840
34759W        W94262  35.386  38.902   0.764
34760W        W94263  24.157  27.083  13.013
34761W        W94264  16.718  28.078   0.433
34762W        W94265  42.988   0.776   4.812
34763W        W94266  28.562  10.768  14.985
34764W        W94267  26.050  12.840  12.424
34765W        W94268  42.816  17.612   2.353
34766W        W94269  32.951  42.478   3.188
34767W        W94270  39.532  36.969   3.180
34768W        W94271  25.570  17.107   4.301
34769W        W94272  24.695  41.981   3.233
34770W        W94273  18.634  43.281   3.306
34771W        W94274  27.096   9.334   1.255
34772W        W94275  37.566  33.577   2.885
34773W        W94276   7.193  37.484   2.275
34774W        W94277  16.789  27.652  13.504
34775W        W94278  26.527  24.981   1.265
34776W        W94279  15.785  24.024  10.900
34777W        W94280  13.699  23.151  10.426
34778W        W94281  43.917  25.702   2.199
34779W        W94282  25.536  20.103  14.913
34780W        W94283  31.898  20.039  14.869
34781W        W94284  44.363  10.734  13.309
34782W        W94285  39.838  26.179  11.486
34783W        W94286   2.268   4.291   2.677
34784W        W94287   0.969  17.797  13.968
34785W        W94288  24.087  44.936   3.702
34786W        W94289  34.036  41.456   3.696
34787W        W94290  14.231  44.891  12.514
34788W        W94291  28.156  30.640   0.816
34789W        W94292   7.173  21.064  14.474
34790W        W94293   1.300  32.530   3.799
34791W        W94294  20.548  25.698  12.863
34792W        W94295  16.197  39.550  11.965
34793W        W94296  20.739  36.064  13.021
34794W        W94297  31.487  38.074   0.740
34795W        W94298  11.134  29.978  11.116
34796W        W94299  42.847   2.844  14.499
34797W        W94300  25.139  25.618  11.392
34798W        W94301   2.913   2.820   4.717
34799W        W94302  40.417  35.057   3.245
34800W        W94303  18.133  39.483   3.835
34801W        W94304  21.178  27.136   3.322
34802W        W94305  23.158   1.881  13.838
34803W        W94306  37.991  24.057  13.366
34804W        W94307  34.487  14.757  12.442
34805W        W94308  18.617  41.880   3.670
34806W        W94309  15.779  30.490   2.759
34807W        W94310  13.730  26.644  12.939
34808W        W94311  13.278  39.858  13.338
34809W        W94312  28.640  20.071  14.908
34810W        W94313  23.506  28.012   1.847
34811W        W94314  27.557  36.984  13.508
34812W        W94315   2.808  44.881  11.098
34813W        W94316  41.825  11.225   3.773
34814W        W94317  26.123  24.619   4.637
34815W        W94318  31.896  17.756  12.902
34816W        W94319  25.672  14.267  13.404
34817W        W94320  33.016  23.634   4.685
34818W        W94321  20.085  29.106   2.260
34819W        W94322  11.705  38.841  14.948
34820W        W94323  29.138  24.712  11.514
34821W        W94324  41.927  10.660   3.219
34822W        W94325  42.311  29.094   1.217
34823W        W94326   9.790  12.303  11.045
34824W        W94327   5.768  29.044   2.761
34825W        W94328   5.296  37.571  14.300
34826W        W94329  11.221  33.514   9.516
34827W        W94330  43.296  31.128  10.514
34828W        W94331  44.990  23.996   0.260
34829W        W94332   3.290  34.414  10.574
34830W        W94333  39.365  31.536  12.500
34831W        W94334  31.496   8.368   1.902
34832W        W94335  27.945  29.499  13.910
34833W        W94336  37.447   8.726   2.206
34834W        W94337   1.440  38.905  10.532
34835W        W94338  13.318   8.310   3.236
34836W        W94339  23.608   7.736   1.262
34837W        W94340  17.083  19.046   1.440
34838W        W94341  24.516  13.689  11.591
34839W        W94342  36.912   0.440  14.029
34840W        W94343  20.162  22.693   2.810
34841W        W94344  18.546  32.589   4.632
34842W        W94345  37.537  26.680   1.882
34843W        W94346  40.914   2.279  13.915
34844W        W94347  40.390  27.497   3.330
34845W        W94348  28.525  20.621   3.252
34846W        W94349  35.040  19.564   4.834
34847W        W94350  41.869  31.014   0.787
34848W        W94351  39.827  39.820  13.437
34849W        W94352   4.770  24.548   3.147
34850W        W94353  25.007  23.184   4.604
34851W        W94354  34.523  44.397  13.986
34852W        W94355  27.447  18.124   4.790
34853W        W94356  17.582  15.299  11.440
34854W        W94357  33.952  20.693   4.317
34855W        W94358  44.890  34.596  11.091
34856W        W94359  29.125  40.461  13.321
34857W        W94360  22.705  18.083   2.345
34858W        W94361   4.866  29.482   2.303
34859W        W94362  33.075  37.079  14.307
34860W        W94363  16.636  26.457  11.066
34861W        W94364  23.184  12.253   1.312
34862W        W94365  33.921  35.926   4.713
34863W        W94366   4.244  25.087  11.988
34864W        W94367  13.811  17.703  10.961
34865W        W94368   1.799  22.042   0.888
34866W        W94369  33.577  10.161   5.242
34867W        W94370   2.782  43.972   2.263
34868W        W94371  22.545  44.955  11.967
34869W        W94372  33.000  18.209   2.665
34870W        W94373   4.860  34.879  10.895
34871W        W94374  20.652   3.738   2.747
34872W        W94375  19.235  14.244   4.335
34873W        W94376  16.587  13.619  12.352
34874W        W94377  17.637  16.160   2.822
34875W        W94378  23.155  38.962   1.707
34876W        W94379  15.686   3.732  12.927
34877W        W94380  42.323  16.209  11.517
34878W        W94381  41.516  24.982  14.836
34879W        W94382  11.703  15.695   0.435
34880W        W94383  23.007  17.256  13.945
34881W        W94384  43.945  12.187  13.343
34882W        W94385   4.756  16.215   1.426
34883W        W94386  31.956  17.070  13.442
34884W        W94387  43.274  15.323  12.580
34885W        W94388  23.715  22.567  12.553
34886W        W94389  26.000  30.413   2.376
34887W        W94390  14.185  32.057   5.247
34888W        W94391  21.180  14.695   4.685
34889W        W94392  23.217  27.559   4.782
34890W        W94393  37.557   5.212   5.117
34891W        W94394   1.328  27.022   4.322
34892W        W94395  35.392  10.333   0.797
34893W        W94396   6.347  10.823   4.668
34894W        W94397  32.960   3.723  12.380
34895W        W94398  25.069  44.006   0.946
34896W        W94399  23.192  42.887  11.088
34897W        W94400   2.235  16.221  14.284
34898W        W94401  12.183  17.185  12.836
34899W        W94402  14.828   0.258   1.311
34900W        W94403  29.614   2.263   3.219
34901W        W94404  14.696  41.910   3.690
34902W        W94405  10.150   2.887  12.027
34903W        W94406  41.298  31.039  10.433
34904W        W94407  18.648  28.140  11.570
34905W        W94408   4.281  32.939  13.517
34906W        W94409  32.078  40.491   2.890
34907W        W94410  17.133  34.550  13.517
34908W        W94411   3.255  33.012  14.984
34909W        W94412  30.930   8.724  13.049
34910W        W94413  30.451  32.923   3.702
34911W        W94414   1.259   2.735   3.299
34912W        W94415  42.285  36.056   4.316
34913W        W94416  17.134  32.968  10.447
34914W        W94417  15.663  11.184  14.396
34915W        W94418  18.572  43.800  14.312
34916W        W94419   4.434  35.484   3.795
34917W        W94420  11.207  28.578  11.063
34918W        W94421  36.369   5.206   1.931
34919W        W94422   6.745  42.852   1.745
34920W        W94423  19.254  15.722  14.480
34921W        W94424  19.554  35.553  11.907
34922W        W94425  41.946  10.870  10.941
34923W        W94426  42.951  18.693   5.167
34924W        W94427   0.751  20.050  13.474
34925W        W94428  38.442  13.233  13.960
34926W        W94429   2.783   8.830  11.932
34927W        W94430  20.523  30.039  12.090
34928W        W94431  10.657  36.467   3.378
34929W        W94432  25.120   0.776   0.293
34930W        W94433  42.331  18.622   1.266
34931W        W94434  12.294  10.839   1.357
34932W        W94435  21.127  20.613  14.375
34933W        W94436  11.720  14.158  10.990
34934W        W94437  12.839  28.129   4.648
34935W        W94438  42.394  37.369   9.954
34936W        W94439  11.230  14.203   1.318
34937W        W94440   5.900  44.963  11.999
34938W        W94441  32.087  21.711  11.457
34939W        W94442  10.717  20.612   1.838
34940W        W94443  30.971  37.446  13.948
34941W        W94444  32.573   8.838  10.141
34942W        W94445  24.608  19.757  13.548
34943W        W94446  33.546   7.887   1.786
34944W        W94447  32.394  44.396  11.449
34945W        W94448   5.752  15.660  13.036
34946W        W94449  38.905  43.269   4.181
34947W        W94450   1.246  25.496  12.063
34948W        W94451  35.929  33.122  11.400
34949W        W94452   1.835   5.828  11.909
34950W        W94453  20.097  26.551  12.353
34951W        W94454  41.304  39.462   3.851
34952W        W94455   5.827  42.461   1.880
34953W        W94456  18.721  26.690   4.622
34954W        W94457   5.778  38.853  12.995
34955W        W94458  35.472  12.203   2.263
34956W        W94459  17.306  17.745   2.287
34957W        W94460   9.248  33.922  14.495
34958W        W94461   6.790  44.899   4.125
34959W        W94462  37.377   6.766  13.400
34960W        W94463  11.138  13.828   1.378
34961W        W94464  38.437  13.121   0.783
34962W        W94465  28.139  34.902   4.768
34963W        W94466  12.340   9.227  11.528
34964W        W94467   1.822  25.600   0.827
34965W        W94468  23.992  26.190   0.962
34966W        W94469  10.703  18.085   4.174
34967W        W94470  15.794  33.569  13.818
34968W        W94471  34.465  16.673  11.407
34969W        W94472  25.019  37.893   3.852
34970W        W94473  26.678  32.451   0.867
34971W        W94474  10.863  26.081  11.096
34972W        W94475  35.906  21.686  12.406
34973W        W94476  30.062  25.531   4.170
34974W        W94477   0.879  18.279  13.347
34975W        W94478  39.392  33.933  13.055
34976W        W94479  37.080  39.351  14.290
34977W        W94480  23.567  25.604  12.891
34978W        W94481   4.747   5.216   4.603
34979W        W94482  34.945  11.337  11.391
34980W        W94483  31.017   0.781  12.855
34981W        W94484  20.034  43.320   4.734
34982W        W94485  30.489  21.598  14.996
34983W        W94486  26.575  22.230   2.760
34984W        W94487  28.991   9.208  12.915
34985W        W94488  28.000  22.033   4.250
34986W        W94489  23.569  31.424   1.874
34987W        W94490  36.062  16.596  14.871
34988W        W94491  21.521  14.289  12.959
34989W        W94492   5.698  12.677   3.328
34990W        W94493  36.953  22.501  13.049
34991W        W94494  28.000  27.084  11.904
34992W        W94495  20.706  24.225  11.030
34993W        W94496  31.070   8.654   3.246
34994W        W94497  27.551  31.569   2.674
34995W        W94498  29.086  10.716  12.837
34996W        W94499   8.836  28.936   2.768
34997W        W94500  19.100  22.997   1.771
34998W        W94501   2.836  25.518  12.941
34999W        W94502  36.388  24.011   3.755
35000W        W94503  28.115   8.698   4.275
35001W        W94504  42.843  16.092   0.322
35002W        W94505  21.663  17.256   3.756
35003W        W94506  16.193  40.980  14.498
35004W        W94507  28.129  15.117  12.362
35005W        W94508  20.209   5.901  12.361
35006W        W94509  31.602   1.463   3.725
35007W        W94510  13.719  19.045  13.049
35008W        W94511  20.181  28.049   0.806
35009W        W94512  15.663  14.337  13.043
35010W        W94513   9.854   7.689  14.905
35011W        W94514  27.477  11.863   0.938
35012W        W94515  41.324  34.595   4.350
35013W        W94516   8.196  30.008   3.631
35014W        W94517  21.164  36.420   3.208
35015W        W94518  10.803  11.241  12.833
35016W        W94519  26.980  14.760   0.269
35017W        W94520  19.218  11.245  14.907
35018W        W94521  26.612   1.298   3.729
35019W        W94522   4.831  24.704   0.894
35020W        W94523   6.773  44.903   3.377
35021W        W94524  38.529   5.724   1.820
35022W        W94525  16.720  42.283   0.277
35023W        W94526   6.398   9.691   0.944
35024W        W94527  43.954  15.741  11.580
35025W        W94528  18.070  19.202  10.496
35026W        W94529  38.474  31.404  13.413
35027W        W94530  35.471  20.093  10.446
35028W        W94531  16.644  30.588   2.250
35029W        W94532  18.708  30.446   4.726
35030W        W94533  41.464  21.210   4.131
35031W        W94534  41.418  34.534  13.810
35032W        W94535  24.673   9.302   2.702
35033W        W94536  29.572  38.554  12.857
35034W        W94537  43.988  17.666   1.867
35035W        W94538   4.298  15.155  12.533
35036W        W94539  14.244  30.471  12.966
35037W        W94540  36.423  42.967  13.889
35038W        W94541  42.921  32.087   4.319
35039W        W94542  19.245  42.928   1.238
35040W        W94543  43.919  44.452  12.356
35041W        W94544   2.922  43.322   2.686
35042W        W94545  31.033  38.503  13.985
35043W        W94546  39.366   6.695  13.024
35044W        W94547  10.802  43.342   3.253
35045W        W94548  16.192   3.289  12.396
35046W        W94549  33.056   2.424   4.828
35047W        W94550  34.423  36.406   2.881
35048W        W94551   8.171  24.163  14.508
35049W        W94552  32.023   1.279  11.056
35050W        W94553  27.637  40.547  10.440
35051W        W94554   7.853  33.067   0.879
35052W        W94555  28.090  37.545   0.831
35053W        W94556   6.210  29.048   1.699
35054W        W94557  28.125  18.153   2.288
35055W        W94558  13.798  27.527  10.516
35056W        W94559  32.072  28.975  14.018
35057W        W94560  11.271  15.728  13.364
35058W        W94561  21.704  43.016   0.966
35059W        W94562  27.043   7.192   2.768
35060W        W94563  44.411  24.679   0.955
35061W        W94564   2.400  34.068  10.577
35062W        W94565  41.417  20.551   0.261
35063W        W94566  33.432  19.724  14.876
35064W        W94567  31.973  31.126   0.846
35065W        W94568  15.284  23.712  10.577
35066W        W94569  15.133  27.001   3.373
35067W        W94570  16.676  29.622  11.557
35068W        W94571   9.644  38.014   2.756
35069W        W94572  34.106  31.423  11.033
35070W        W94573  39.512  11.228  12.902
35071W        W94574  41.297  14.314  11.386
35072W        W94575  20.237   8.389  14.982
35073W        W94576  14.143  40.034  11.099
35074W        W94577   7.818  18.051  14.951
35075W        W94578   3.776   1.834   1.386
35076W        W94579   5.420  10.669  11.951
35077W        W94580  28.185   4.707  10.404
35078W        W94581  21.651   3.429   9.581
35079W        W94582  44.390   2.767   3.234
35080W        W94583  17.275  34.894   4.259
35081W        W94584  26.201  42.328  14.898
35082W        W94585  39.014  41.527   4.198
35083W        W94586   8.778  39.042  13.311
35084W        W94587   7.713  32.557   4.159
35085W        W94588   9.769  29.947   0.954
35086W        W94589  44.351  35.904   0.408
35087W        W94590  10.274   7.213   0.359
35088W        W94591   2.315  10.709   1.731
35089W        W94592  24.212  12.715  12.063
35090W        W94593  26.521  40.949   0.918
35091W        W94594  23.578  25.645  10.954
35092W        W94595  34.599  37.084  11.528
35093W        W94596  20.682  15.224  13.459
35094W        W94597   3.399   0.288   3.201
35095W        W94598  35.062   1.851   0.309
35096W        W94599  15.198   3.321   3.745
35097W        W94600   1.962  17.080   4.809
35098W        W94601  36.434  23.036   1.392
35099W        W94602  42.910   2.384   4.752
35100W        W94603  23.667  16.690   0.452
35101W        W94604  12.343  24.190  14.340
35102W        W94605   1.454  40.458  13.924
35103W        W94606  41.397  31.635   4.825
35104W        W94607  32.426  42.336   0.335
35105W        W94608  25.023  33.558  14.892
35106W        W94609   0.953  31.559  13.836
35107W        W94610  14.652  14.732  15.000
35108W        W94611  36.926  19.162  13.446
35109W        W94612  27.969  39.878   0.935
35110W        W94613  24.626  13.685   1.926
35111W        W94614  25.966  22.528   3.327
35112W        W94615  42.356  15.764  11.595
35113W        W94616   1.429  42.315  12.897
35114W        W94617  15.173  33.588  13.819
35115W        W94618  13.769  16.083   3.795
35116W        W94619   2.821  41.814   5.139
35117W        W94620  15.819  21.680  10.970
35118W        W94621  24.162  27.651   0.759
35119W        W94622  17.114   1.261   4.199
35120W        W94623  33.943   5.213   0.764
35121W        W94624  17.621   2.855   2.694
35122W        W94625  22.598  11.659   1.359
35123W        W94626  29.594  36.886   5.765
35124W        W94627  43.868   0.779  12.826
35125W        W94628   1.479  29.505  12.372
35126W        W94629  20.094  22.618   4.828
35127W        W94630   0.399   4.281  10.973
35128W        W94631  17.721  18.746   1.932
35129W        W94632  38.033  38.481  10.588
35130W        W94633  30.070   8.898  12.403
35131W        W94634   3.835  26.532  13.965
35132W        W94635  35.980  24.064   4.153
35133W        W94636  12.279  17.684  13.493
35134W        W94637   1.851  13.798   2.412
35135W        W94638  37.495  30.521   0.826
35136W        W94639  24.691  17.620   0.866
35137W        W94640  32.614  34.992   2.801
35138W        W94641  28.946   1.892   3.691
35139W        W94642  42.436  31.978   3.734
35140W        W94643   0.927   6.383   2.883
35141W        W94644  11.159  38.547   0.307
35142W        W94645   9.778   8.767   3.646
35143W        W94646  41.424   6.717  13.994
35144W        W94647  19.567  29.147   2.804
35145W        W94648  22.076  13.232  12.530
35146W        W94649  36.846   3.942  12.085
35147W        W94650  39.405  36.509   3.701
35148W        W94651  37.423  22.116  12.578
35149W        W94652   1.744  31.945  10.507
35150W        W94653  21.742  36.946   2.325
35151W        W94654  42.807   6.419  14.361
35152W        W94655  25.212  35.603  14.923
35153W        W94656  23.510  11.143  11.994
35154W        W94657   5.698  13.267   1.874
35155W        W94658  20.710  14.655   3.702
35156W        W94659  31.945   6.309  11.880
35157W        W94660  29.430  40.539   2.748
35158W        W94661  21.560   6.340   2.225
35159W        W94662   1.930   7.757   0.446
35160W        W94663   8.757  38.978   0.964
35161W        W94664  44.859   3.299  14.791
35162W        W94665   4.789  22.601  11.929
35163W        W94666  15.169   5.412   4.774
35164W        W94667   8.344   3.414  11.972
35165W        W94668  37.849   7.269   3.222
35166W        W94669  44.297  39.912   3.168
35167W        W94670  18.220   7.371   2.361
35168W        W94671   8.226  10.759  12.430
35169W        W94672  26.180   7.402  12.571
35170W        W94673  16.621  41.911   1.906
35171W        W94674  29.118   0.857   4.704
35172W        W94675   1.397  25.509  14.401
35173W        W94676  35.876  20.582  11.001
35174W        W94677   6.744  31.047   2.189
35175W        W94678  25.205   0.905  14.475
35176W        W94679   2.787  12.220  10.499
35177W        W94680   1.868  13.699  13.309
35178W        W94681  24.203  32.570   1.234
35179W        W94682  11.799  25.507   0.313
35180W        W94683   6.194  36.073   1.281
35181W        W94684  29.026  34.526  11.454
35182W        W94685   6.796   2.336   2.337
35183W        W94686  29.642  31.560   3.193
35184W        W94687  40.435  21.662   3.231
35185W        W94688  23.137  35.525  12.953
35186W        W94689  36.942  32.912  11.116
35187W        W94690   0.909   4.875  12.088
35188W        W94691  42.404   9.868  13.329
35189W        W94692  35.476  23.557   0.935
35190W        W94693  25.199  44.442   4.803
35191W        W94694  44.955   0.466  14.301
35192W        W94695  27.193  40.458  11.583
35193W        W94696   1.449  31.971  11.543
35194W        W94697   8.406  27.533   1.394
35195W        W94698  29.072   6.314  10.928
35196W        W94699  11.218  20.224   1.246
35197W        W94700  25.126   0.904   1.357
35198W        W94701  20.065  31.946   3.807
35199W        W94702  11.797  17.625   4.331
35200W        W94703  25.588  41.848  10.584
35201W        W94704  40.399  25.184  10.520
35202W        W94705   0.879  21.631  12.414
35203W        W94706   7.805  40.505   1.708
35204W        W94707  38.965  43.442  14.468
35205W        W94708   2.410  44.417  14.333
35206W        W94709  27.195  13.781   3.163
35207W        W94710  21.544  23.224   3.676
35208W        W94711  34.021   9.168   0.808
35209W        W94712   9.219  30.045   2.336
35210W        W94713  28.524  41.984  10.450
35211W        W94714  14.262   8.388  12.830
35212W        W94715  22.190  16.090   4.741
35213W        W94716  30.504  19.771  13.356
35214W        W94717  29.658  27.035  14.356
35215W        W94718  34.375  24.229   0.279
35216W        W94719  11.365  26.148   2.238
35217W        W94720  44.953   5.331   3.241
35218W        W94721  13.790   6.826   3.362
35219W        W94722   5.717  22.208  14.459
35220W        W94723  26.968  12.201   3.344
35221W        W94724  39.327  27.637   0.935
35222W        W94725  10.314  33.969  11.600
35223W        W94726   3.729  38.341  14.293
35224W        W94727   3.460  32.494  14.429
35225W        W94728  10.286  15.711  13.041
35226W        W94729  13.239  19.766   3.775
35227W        W94730  42.924  10.370   4.827
35228W        W94731  30.553   3.358  12.836
35229W        W94732  10.647   8.731  12.031
35230W        W94733  16.804  23.542   3.196
35231W        W94734   9.192  11.237   4.332
35232W        W94735   7.830  39.320   1.731
35233W        W94736  11.285  22.580  10.643
35234W        W94737  20.582   0.892   1.370
35235W        W94738  11.325  43.805  11.859
35236W        W94739  25.150  21.579   0.300
35237W        W94740  33.473   9.720   0.458
35238W        W94741   1.475   1.461  11.541
35239W        W94742  34.483  42.879  10.517
35240W        W94743   0.908  35.067   2.185
35241W        W94744   6.696  22.680  14.348
35242W        W94745  37.836   6.247  13.017
35243W        W94746  27.978  40.427   0.313
35244W        W94747  41.461  43.432  11.453
35245W        W94748  22.239   3.827   1.775
35246W        W94749   3.837  18.205   2.887
35247W        W94750  25.211  40.007   4.236
35248W        W94751  34.378  15.786  13.532
35249W        W94752  17.797  36.483  13.887
35250W        W94753  27.047  23.212  11.397
35251W        W94754  24.188  21.673  12.360
35252W        W94755  20.525   1.459  10.518
35253W        W94756  37.549   8.717   4.345
35254W        W94757   7.407  25.672   3.295
35255W        W94758   9.735   9.204  13.469
35256W        W94759   5.835  36.590   2.801
35257W        W94760  42.506   5.362  10.594
35258W        W94761  36.988  36.397   1.293
35259W        W94762  37.005  10.365  10.524
35260W        W94763  34.880  13.223   9.988
35261W        W94764   0.781  11.325  10.515
35262W        W94765   0.288  30.112   3.209
35263W        W94766  14.301  41.445   3.170
35264W        W94767   9.230  10.842  13.451
35265W        W94768  36.419  19.706  13.458
35266W        W94769   2.232  37.915  11.957
35267W        W94770   1.411  43.961   2.676
35268W        W94771  34.023  36.407  12.885
35269W        W94772  22.018  10.744  10.639
35270W        W94773  20.566  36.019   2.218
35271W        W94774  40.308  32.976  10.481
35272W        W94775  33.413  25.195   2.846
35273W        W94776  14.182  43.975  10.059
35274W        W94777  43.922  31.046   3.790
35275W        W94778  11.831  31.630   5.770
35276W        W94779  21.708  36.013  13.469
35277W        W94780  38.357  30.563   4.301
35278W        W94781   3.232  31.947   2.873
35279W        W94782   5.912  11.309   3.667
35280W        W94783  23.993  37.356  14.815
35281W        W94784  38.995  18.585   3.325
35282W        W94785  33.112  22.192   2.668
35283W        W94786  39.924  22.011   0.274
35284W        W94787  11.302  43.392   2.303
35285W        W94788  37.900   7.683   1.358
35286W        W94789   3.805  29.527   3.244
35287W        W94790  22.630   4.850  14.479
35288W        W94791  38.399  28.158   1.438
35289W        W94792  40.899  38.939  12.080
35290W        W94793  41.027  40.877  11.013
35291W        W94794  15.681  28.602  11.119
35292W        W94795  38.978  33.906  11.500
35293W        W94796   6.740   0.799  13.868
35294W        W94797  41.531  12.807   0.850
35295W        W94798   2.937   9.220   3.636
35296W        W94799  21.518   3.392  14.366
35297W        W94800  16.114  38.563   1.405
35298W        W94801  26.068  36.027   3.170
35299W        W94802  27.482   4.795  13.495
35300W        W94803  42.521  14.222   1.695
35301W        W94804  25.075  41.334   4.214
35302W        W94805  17.662  41.523  14.854
35303W        W94806  21.233   6.409  10.534
35304W        W94807  16.193  30.428   4.798
35305W        W94808  23.544  10.189   0.375
35306W        W94809  20.230  21.080  13.389
35307W        W94810  17.599   3.357   3.330
35308W        W94811  31.976  13.625  13.939
35309W        W94812  27.102  39.864   0.411
35310W        W94813  38.941  16.658   2.346
35311W        W94814  31.020  40.464   3.752
35312W        W94815  14.177  37.964   3.279
35313W        W94816  32.073  29.951  11.941
35314W        W94817  10.830  24.096   2.326
35315W        W94818  36.962  10.339  12.831
35316W        W94819  26.078  40.923  11.976
35317W        W94820  43.388  37.930  12.001
35318W        W94821  24.033  33.439   2.412
35319W        W94822   2.762  44.446  10.060
35320W        W94823  25.609  25.572  11.995
35321W        W94824  27.643  44.940   3.283
35322W        W94825  34.920  11.354   0.348
35323W        W94826   2.728  27.572  11.880
35324W        W94827  35.019  16.660   3.180
35325W        W94828  18.788  10.197  13.326
35326W        W94829  25.577  24.018   4.127
35327W        W94830   6.840  13.740  13.321
35328W        W94831   8.669  38.975  11.038
35329W        W94832  33.979  33.606  13.537
35330W        W94833   5.344  40.496  12.931
35331W        W94834   0.806  27.486   0.883
35332W        W94835   6.364  39.883   1.277
35333W        W94836  39.061  29.435   4.157
35334W        W94837   0.958  13.332   1.878
35335W        W94838   1.253  11.711  11.904
35336W        W94839  13.271  34.946   4.161
35337W        W94840  30.527  10.270   1.933
35338W        W94841  15.791  37.025  11.552
35339W        W94842  43.347  36.017  14.809
35340W        W94843  24.717  37.068   1.873
35341W        W94844   8.723  26.659   1.886
35342W        W94845  29.009   7.278  11.598
35343W        W94846  41.909  13.247  14.364
35344W        W94847  39.362  19.202  14.004
35345W        W94848  13.213  26.697  12.423
35346W        W94849  12.752  44.753   1.850
35347W        W94850  31.107  12.715  12.060
35348W        W94851  21.527  38.896  12.860
35349W        W94852  30.003  27.034   1.253
35350W        W94853  33.598  38.027  10.406
35351W        W94854  33.391  14.143   2.803
35352W        W94855  28.133   4.784  13.422
35353W        W94856  15.138  21.063   3.295
35354W        W94857   0.939  42.829   0.401
35355W        W94858  12.787  34.870   3.196
35356W        W94859  20.069  29.025  14.318
35357W        W94860  13.636  11.186  13.976
35358W        W94861  38.976   2.240   1.808
35359W        W94862  16.271   9.728   1.301
35360W        W94863  42.815  40.353   5.142
35361W        W94864  28.131  38.425  10.421
35362W        W94865  13.629   2.813   0.873
35363W        W94866  30.573  23.658   1.765
35364W        W94867  43.774  11.852  12.422
35365W        W94868   6.892   4.395  12.965
35366W        W94869  16.233  36.578   1.754
35367W        W94870  37.349  44.428  12.872
35368W        W94871  37.892   8.324  14.879
35369W        W94872  24.629  11.693   4.630
35370W        W94873  39.316   4.213  12.489
35371W        W94874  42.407  41.935   1.224
35372W        W94875  10.712  30.080   2.325
35373W        W94876  18.200   6.740  13.404
35374W        W94877  18.063   4.807  10.572
35375W        W94878  38.072  37.914  12.917
35376W        W94879  14.269  18.570   0.288
35377W        W94880  35.073   6.206  12.380
35378W        W94881  24.168  33.610   4.731
35379W        W94882  25.178  10.789   1.362
35380W        W94883   3.935  28.485  10.446
35381W        W94884  42.783  26.474   2.782
35382W        W94885  22.529   3.792  14.951
35383W        W94886  39.992  34.504  14.348
35384W        W94887  18.185  32.138   3.667
35385W        W94888  43.941  29.958  12.841
35386W        W94889  28.447  36.411   1.761
35387W        W94890  25.204  38.912   3.228
35388W        W94891  37.484  24.505  12.982
35389W        W94892  23.234  14.793   1.779
35390W        W94893  41.906  38.367   3.810
35391W        W94894  33.473   4.413  13.831
35392W        W94895  14.763  43.017  10.585
35393W        W94896  36.452  16.154   3.693
35394W        W94897  22.708  38.409  12.949
35395W        W94898   1.891   9.707  14.471
35396W        W94899  29.049  25.564   1.901
35397W        W94900   9.340  31.501  13.895
35398W        W94901  41.490   1.950  11.410
35399W        W94902  15.676  21.689   0.898
35400W        W94903  38.838  10.635   5.251
35401W        W94904   4.389   4.232  13.522
35402W        W94905  11.829   0.924   5.275
35403W        W94906  39.381   7.336  11.556
35404W        W94907  30.931  31.435  11.899
35405W        W94908  15.242  20.098   4.319
35406W        W94909  41.875  14.132   1.223
35407W        W94910  41.848  17.302   3.298
35408W        W94911  38.070  25.691  12.909
35409W        W94912  36.513  37.994  13.429
35410W        W94913  30.150  36.514  12.517
35411W        W94914   9.237  19.104  11.504
35412W        W94915  21.182  17.798   4.688
35413W        W94916  34.581   8.763  13.826
35414W        W94917  44.815   6.723  12.044
35415W        W94918  36.032  44.328   5.177
35416W        W94919  23.518  17.232   3.757
35417W        W94920  42.418  41.023  12.905
35418W        W94921  19.638   7.759   4.224
35419W        W94922  16.155   6.847   3.215
35420W        W94923  16.248  33.085  10.933
35421W        W94924  28.126  44.875   1.350
35422W        W94925  29.962  35.015   2.386
35423W        W94926  28.141  23.576   2.188
35424W        W94927  12.663  34.447   1.422
35425W        W94928  19.678  26.640   2.390
35426W        W94929  12.819  34.960   4.794
35427W        W94930  39.862  37.336  13.802
35428W        W94931  14.326  28.508  11.490
35429W        W94932  35.584  10.815  13.022
35430W        W94933  43.478  30.614   3.333
35431W        W94934  37.361   8.342  11.049
35432W        W94935  41.353  20.159   1.714
35433W        W94936  10.238  38.075  11.083
35434W        W94937  32.985   7.879   4.202
35435W        W94938  24.216  30.915  10.516
35436W        W94939  29.499  31.149   1.875
35437W        W94940   6.405  18.090  10.160
35438W        W94941  32.008  16.696   2.782
35439W        W94942  39.897  20.608   3.209
35440W        W94943  23.686  28.092  14.354
35441W        W94944   0.472   6.707   4.161
35442W        W94945  40.382  33.027   0.735
35443W        W94946   2.367  12.750   4.165
35444W        W94947  18.561  43.008  13.507
35445W        W94948   4.313  11.157  11.382
35446W        W94949   5.243  27.983  14.794
35447W        W94950  28.098  29.536   2.212
35448W        W94951  37.539  44.880  13.326
35449W        W94952   2.351  34.936   4.659
35450W        W94953   0.418   4.755  14.980
35451W        W94954  26.563  35.109  14.880
35452W        W94955  15.634  44.979   0.288
35453W        W94956   4.353  13.670  14.024
35454W        W94957  14.315  14.691  12.439
35455W        W94958  23.154  12.668  12.859
35456W        W94959  24.224  24.976   2.355
35457W        W94960  38.454  22.012   0.790
35458W        W94961  25.491   6.374  14.366
35459W        W94962   5.291  31.421   1.903
35460W        W94963  38.988   1.899  14.775
35461W        W94964  19.131  35.487  14.494
35462W        W94965  11.182  22.244   0.855
35463W        W94966  16.650   0.395  12.047
35464W        W94967  39.048  30.442  13.375
35465W        W94968  42.025  18.220   3.154
35466W        W94969  11.242   9.755   4.663
35467W        W94970  16.585   7.749   0.263
35468W        W94971  23.991  32.519  11.493
35469W        W94972  13.783   9.888   2.228
35470W        W94973   5.207  16.201   4.681
35471W        W94974  27.103  26.027  12.562
35472W        W94975  44.901  43.444  13.029
35473W        W94976  17.755  27.164  12.554
35474W        W94977  15.253  21.733   2.859
35475W        W94978  43.956   4.901  14.329
35476W        W94979  26.965  24.594  11.406
35477W        W94980  35.530  39.904  11.948
35478W        W94981  25.543  15.283  12.031
35479W        W94982  15.092  26.953  11.011
35480W        W94983   6.719  19.285   4.297
35481W        W94984  26.110  40.315   3.838
35482W        W94985  22.116  10.644  14.507
35483W        W94986  32.912   6.352   2.397
35484W        W94987   8.661  14.633  14.849
35485W        W94988  33.038  13.318   0.937
35486W        W94989  19.062  16.697   4.715
35487W        W94990  22.715  44.304   3.246
35488W        W94991   7.764  35.019   1.223
35489W        W94992  43.424  44.993  14.389
35490W        W94993  24.231  41.926   1.349
35491W        W94994   1.924  30.027   0.337
35492W        W94995  34.472  43.325   4.810
35493W        W94996  15.585  37.907  12.938
35494W        W94997  24.576   3.218  11.873
35495W        W94998  28.589  25.667   0.245
35496W        W94999   5.367  22.044  14.014
35497W        W95000  28.669  13.177   2.344
35498W        W95001  27.681   7.739  12.405
35499W        W95002  14.829  23.650  10.481
35500W        W95003  21.522   3.858   1.935
35501W        W95004  38.493   1.886  11.074
35502W        W95005   6.891  20.185  13.978
35503W        W95006  15.770   3.242   0.249
35504W        W95007  27.649  16.790   1.267
35505W        W95008  42.342   3.335   0.339
35506W        W95009   4.386  34.513   3.239
35507W        W95010   2.831  18.132  14.028
35508W        W95011  11.704   3.931   2.755
35509W        W95012  40.958  44.434  13.426
35510W        W95013   4.727  26.025  13.315
35511W        W95014   4.217  37.930  14.004
35512W        W95015  32.041   1.940  14.851
35513W        W95016  20.763  10.723  13.882
35514W        W95017  39.464  21.729   2.251
35515W        W95018  34.939  33.080   2.195
35516W        W95019  35.016  39.966  12.358
35517W        W95020  20.529  28.458   0.327
35518W        W95021  28.496  16.107  10.632
35519W        W95022  43.434  42.028   3.318
35520W        W95023  40.397   4.768   5.136
35521W        W95024  44.011  12.691  12.500
35522W        W95025  20.725   7.204   0.407
35523W        W95026  39.013  43.820  12.028
35524W        W95027  32.886   6.420   4.196
35525W        W95028  25.538  21.530   2.271
35526W        W95029   4.214  21.582  11.554
35527W        W95030  16.722  12.289  13.999
35528W        W95031  11.283  18.688  13.800
35529W        W95032  40.039  41.346   3.733
35530W        W95033  39.026  20.236  10.449
35531W        W95034  14.767  24.123  10.465
35532W        W95035  43.927   6.189  13.346
35533W        W95036  23.207  17.785  12.074
35534W        W95037  25.480  12.282   4.281
35535W        W95038  19.631  35.592   1.432
35536W        W95039   8.727  14.188   0.878
35537W        W95040   6.203  23.520   3.368
35538W        W95041  19.138  27.665   2.885
35539W        W95042  44.499  25.214   0.901
35540W        W95043  36.498  29.630   1.318
35541W        W95044  11.189  35.074  14.927
35542W        W95045  24.633   2.357  14.814
35543W        W95046  26.464  35.877  14.816
35544W        W95047  14.214  10.185  13.883
35545W        W95048  16.787   4.825   1.259
35546W        W95049  24.070  32.986   3.347
35547W        W95050  20.574  16.308  10.472
35548W        W95051  31.101  39.059   2.356
35549W        W95052  37.899   7.373   1.738
35550W        W95053   5.301   1.845   2.815
35551W        W95054  20.213   5.251  11.070
35552W        W95055  32.960  14.320  12.990
35553W        W95056  33.595  22.088   2.810
35554W        W95057  23.176  43.820   2.716
35555W        W95058  41.933  14.234  13.961
35556W        W95059  22.231   8.319   1.337
35557W        W95060  16.722  13.295   0.298
35558W        W95061  32.454   8.736  10.543
35559W        W95062  40.388  43.513   4.187
35560W        W95063  15.172  13.828  13.869
35561W        W95064  43.499  44.302   3.261
35562W        W95065  16.173  42.445   4.203
35563W        W95066  13.208  41.374   2.253
35564W        W95067  25.979  43.322  14.969
35565W        W95068   3.282  41.016   1.390
35566W        W95069  37.009  20.673   4.728
35567W        W95070  21.228  31.995   4.714
35568W        W95071  25.640  26.989  13.823
35569W        W95072  29.043  26.644   9.493
35570W        W95073  22.593  10.217  13.838
35571W        W95074  32.047   0.412  14.830
35572W        W95075   3.715  25.193  13.406
35573W        W95076  24.674  31.532  10.418
35574W        W95077  27.674   1.256  11.880
35575W        W95078  36.933  24.203   1.451
35576W        W95079  16.091  31.960   3.348
35577W        W95080   3.392  15.227  13.366
35578W        W95081  13.706  25.684  12.578
35579W        W95082  20.239  17.062  12.989
35580W        W95083  13.345   6.838  11.870
35581W        W95084   6.359  19.634   4.668
35582W        W95085  22.250  37.511  12.837
35583W        W95086  39.920  10.827   3.632
35584W        W95087  16.262  16.638  13.467
35585W        W95088  31.007  33.619   0.803
35586W        W95089   9.149  17.777   2.364
35587W        W95090  13.730   3.725  14.325
35588W        W95091   4.435  28.485   4.126
35589W        W95092  32.441  23.165  11.581
35590W        W95093  16.597  11.829   4.351
35591W        W95094  25.698  10.149  11.029
35592W        W95095  30.917   0.805   0.477
35593W        W95096  11.301  34.926   2.903
35594W        W95097  39.504  29.585   2.736
35595W        W95098   5.316  40.831   0.338
35596W        W95099  17.095  37.833   4.810
35597W        W95100  18.122  11.318  11.508
35598W        W95101  29.587   9.276  13.936
35599W        W95102  24.512   4.389   3.748
35600W        W95103   7.905  14.181   5.576
35601W        W95104  25.194   1.387   2.398
35602W        W95105  31.032  34.987  14.768
35603W        W95106  16.773  11.650  14.813
35604W        W95107  29.125  38.822   2.774
35605W        W95108  11.804  35.501   0.391
35606W        W95109  31.516   1.942  14.428
35607W        W95110  19.052   0.480  11.999
35608W        W95111  31.454  37.943  14.819
35609W        W95112  36.950  34.383  14.425
35610W        W95113  27.541  13.170   0.268
35611W        W95114   9.731  43.963   4.186
35612W        W95115   8.754  36.855   4.607
35613W        W95116  40.307   1.458  12.432
35614W        W95117  19.638  30.620  13.343
35615W        W95118  41.517  34.878   2.818
35616W        W95119  17.742  37.981   0.308
35617W        W95120  36.400  40.894  11.529
35618W        W95121  35.874   1.432   4.734
35619W        W95122  20.268  43.395  13.896
35620W        W95123   3.409  19.214   1.821
35621W        W95124  41.330  26.207  12.503
35622W        W95125  30.523  11.765   9.962
35623W        W95126   1.755  24.679  10.129
35624W        W95127   2.736   1.455   0.330
35625W        W95128  13.789  22.160  14.382
35626W        W95129  39.996   8.278   1.342
35627W        W95130   1.731  14.303  14.812
35628W        W95131  14.631  43.384   4.278
35629W        W95132  12.211  37.860   2.394
35630W        W95133  20.033  28.650   4.131
35631W        W95134   7.691  28.645   1.293
35632W        W95135  38.541  43.506  12.973
35633W        W95136   9.196   6.244   4.735
35634W        W95137   4.352   4.326   0.443
35635W        W95138   8.696  43.802  11.925
35636W        W95139   5.227  26.629   1.815
35637W        W95140  28.575  34.015   0.741
35638W        W95141   7.824  30.564   3.818
35639W        W95142  18.253  36.977   3.358
35640W        W95143  21.701  38.852  10.902
35641W        W95144  41.822  25.093   0.404
35642W        W95145   9.295   4.440   4.278
35643W        W95146  19.189  36.486  11.920
35644W        W95147  28.116  26.191  12.405
35645W        W95148  39.454  17.711  11.032
35646W        W95149   4.405  40.919  10.492
35647W        W95150  11.807  15.752   2.877
35648W        W95151  40.955  27.120   0.371
35649W        W95152   6.750  11.634  10.410
35650W        W95153  18.788  43.902  10.586
35651W        W95154  39.899  28.128   1.784
35652W        W95155   2.421   7.813   1.898
35653W        W95156  30.986  14.336   2.861
35654W        W95157  44.337  35.957  13.029
35655W        W95158  24.078   2.271  12.510
35656W        W95159  44.491  30.648  12.388
35657W        W95160  17.081  26.679   0.379
35658W        W95161   3.254   3.350  12.044
35659W        W95162  36.910  26.998  13.793
35660W        W95163  27.630  43.777   0.895
35661W        W95164  30.085  40.448  13.508
35662W        W95165  20.717  35.919   1.746
35663W        W95166  15.315  32.943  14.360
35664W        W95167  43.984  36.990   1.391
35665W        W95168   4.937  31.420   3.775
35666W        W95169   9.212  19.129   4.209
35667W        W95170   6.346   3.448   1.422
35668W        W95171  23.500  19.734  14.502
35669W        W95172   4.730  13.773   1.446
35670W        W95173  32.585  14.249  12.428
35671W        W95174  23.152   5.201   2.762
35672W        W95175   1.411  23.573  14.008
35673W        W95176  20.539   2.251  13.952
35674W        W95177  21.241  21.235  13.951
35675W        W95178  32.923   4.753  13.513
35676W        W95179  11.820  42.502   1.838
35677W        W95180   1.864   3.912   3.273
35678W        W95181   0.301   9.350  11.904
35679W        W95182  25.477  32.115  12.825
35680W        W95183   9.275  14.808  13.387
35681W        W95184  20.042  25.691   1.770
35682W        W95185   4.278  42.026   1.216
35683W        W95186  19.729  38.824   1.246
35684W        W95187   9.678  18.291   2.808
35685W        W95188   7.873   0.787  13.807
35686W        W95189   4.301  36.508   0.904
35687W        W95190  30.042  25.089   5.300
35688W        W95191  35.393  41.490  13.823
35689W        W95192  35.034  29.511   4.337
35690W        W95193  30.507   9.823  11.989
35691W        W95194  25.053  38.537   4.619
35692W        W95195   7.282  24.511   3.243
35693W        W95196   1.326   0.288   2.181
35694W        W95197  32.978  32.497  11.516
35695W        W95198  33.058  15.095  12.485
35696W        W95199  23.235  17.171  13.545
35697W        W95200  19.271   7.267   4.302
35698W        W95201  32.593  26.042  11.892
35699W        W95202  43.003  33.978   1.333
35700W        W95203   6.243   6.202   1.327
35701W        W95204  14.328  24.192   3.209
35702W        W95205  40.002  41.884   0.907
35703W        W95206  24.558  26.639   4.121
35704W        W95207  43.352  32.052   9.973
35705W        W95208  16.265  16.639  13.839
35706W        W95209   8.349  19.601   3.847
35707W        W95210  24.982  33.519   4.624
35708W        W95211  30.468  32.415  13.020
35709W        W95212  15.125  41.983  14.793
35710W        W95213  38.467   3.882  10.642
35711W        W95214  25.118  26.661  14.807
35712W        W95215  34.912  35.872  11.415
35713W        W95216   4.229  17.101   3.281
35714W        W95217  19.112  40.049  14.464
35715W        W95218  40.348   6.333  10.410
35716W        W95219  14.603   0.417   3.853
35717W        W95220  39.065  18.149  13.040
35718W        W95221   2.417  30.491  12.999
35719W        W95222  23.059  15.622  11.962
35720W        W95223  42.359   8.310   3.709
35721W        W95224  33.422  12.240  14.355
35722W        W95225  15.287  37.080  14.359
35723W        W95226  37.034   3.300   1.783
35724W        W95227  17.601  23.665  14.923
35725W        W95228  22.052  40.950   0.392
35726W        W95229   5.799  42.925  10.427
35727W        W95230  31.482  15.141  12.480
35728W        W95231  30.469   2.776   1.895
35729W        W95232  28.463  29.438  11.372
35730W        W95233  19.764  10.868   4.758
35731W        W95234  26.513  28.115  14.954
35732W        W95235  15.650  35.403   0.318
35733W        W95236  21.650  27.981  11.414
35734W        W95237  17.239  34.466   3.724
35735W        W95238  22.715  40.855   0.426
35736W        W95239  19.537  16.668   2.793
35737W        W95240   6.887   4.262   4.805
35738W        W95241  36.454  32.604  13.042
35739W        W95242   7.798   0.474  13.503
35740W        W95243  41.323  30.600  10.948
35741W        W95244   9.728  26.162  11.515
35742W        W95245  23.069  36.850  14.342
35743W        W95246   4.417   4.802   1.831
35744W        W95247  21.197  26.099  14.508
35745W        W95248  14.125   7.194  14.338
35746W        W95249  38.543  41.476   0.391
35747W        W95250  26.086  42.352   2.312
35748W        W95251  33.392  41.297  14.983
35749W        W95252  31.556   0.317  11.054
35750W        W95253   4.359  14.831   3.636
35751W        W95254   9.182  42.904   1.874
35752W        W95255  25.064  21.697   1.326
35753W        W95256  32.002   7.727   4.179
35754W        W95257  13.841  41.334   1.296
35755W        W95258  31.424  24.089  14.438
35756W        W95259  30.052  40.451  13.867
35757W        W95260   2.392  22.150   1.417
35758W        W95261   1.847  44.464   0.477
35759W        W95262   8.192  12.199  13.002
35760W        W95263  14.608  14.164   1.215
35761W        W95264  36.915  30.452  14.936
35762W        W95265   1.284  33.408   3.344
35763W        W95266   4.895  15.083  12.037
35764W        W95267  39.951  36.972   2.305
35765W        W95268   0.265   5.856   3.791
35766W        W95269   0.916  40.452   4.135
35767W        W95270  22.627  26.177  13.829
35768W        W95271   5.245  32.066   0.471
35769W        W95272  22.187   6.391  10.531
35770W        W95273  19.661  13.840   0.308
35771W        W95274  18.178   9.250  14.327
35772W        W95275   5.316  18.058  11.512
35773W        W95276  14.749  17.567  12.524
35774W        W95277  14.311   2.947   3.223
35775W        W95278  10.279  30.604   2.895
35776W        W95279  26.131  27.490  11.056
35777W        W95280  21.234   7.226   4.779
35778W        W95281  30.119  41.924   1.858
35779W        W95282  24.486  34.494  13.448
35780W        W95283  44.352  26.981   2.337
35781W        W95284  38.470  15.120  12.580
35782W        W95285  29.008  27.174  11.864
35783W        W95286  30.625  25.972   3.375
35784W        W95287  40.055  33.884   2.391
35785W        W95288  34.032  35.968  11.052
35786W        W95289   1.906  36.087   2.342
35787W        W95290  31.902  11.243  11.033
35788W        W95291  43.788  12.682  13.933
35789W        W95292  14.815   3.800  11.974
35790W        W95293  17.307  10.732  12.033
35791W        W95294  31.929  34.889  13.820
35792W        W95295  16.082  19.080   3.869
35793W        W95296  20.565   5.237   0.831
35794W        W95297  29.163  24.643   2.664
35795W        W95298  23.070   0.305   0.789
35796W        W95299  39.371  40.418   1.315
35797W        W95300  42.919   6.401   2.893
35798W        W95301  26.649  27.991  11.061
35799W        W95302  36.878   1.369  12.472
35800W        W95303   9.319   5.767  13.046
35801W        W95304   6.314  29.101  12.506
35802W        W95305  22.644  32.478   0.374
35803W        W95306  33.578  13.324  13.877
35804W        W95307  27.576  38.543  12.369
35805W        W95308  23.506  37.083   2.293
35806W        W95309   0.470  40.034  12.403
35807W        W95310  43.515  41.441   1.750
35808W        W95311  12.654   1.793   4.132
35809W        W95312  40.933  17.601   1.863
35810W        W95313  39.038   4.928  13.545
35811W        W95314  19.692  30.997   0.420
35812W        W95315   3.437  13.774   4.807
35813W        W95316  35.003  29.539   1.912
35814W        W95317  15.306  34.369   0.353
35815W        W95318  37.080  25.198   2.217
35816W        W95319   6.764  23.669  10.417
35817W        W95320  41.315  40.898   4.644
35818W        W95321  36.495   5.846   4.768
35819W        W95322  43.878  42.858  11.481
35820W        W95323  44.882  40.948  11.568
35821W        W95324  14.621  31.043   1.255
35822W        W95325  44.502  29.076  13.863
35823W        W95326   5.335   2.447   0.931
35824W        W95327   1.483  16.262  10.544
35825W        W95328   1.375   8.688  13.797
35826W        W95329  28.936  22.040  13.525
35827W        W95330  23.673  33.057   2.757
35828W        W95331  19.127  18.259   3.358
35829W        W95332  22.066   6.781  14.473
35830W        W95333  18.217  34.872  12.388
35831W        W95334  18.267   5.399   3.791
35832W        W95335  44.359   4.918   0.289
35833W        W95336   0.393  29.046  11.916
35834W        W95337  38.543  33.994   1.761
35835W        W95338  31.468  30.063   2.700
35836W        W95339  12.157  23.106  10.589
35837W        W95340   4.222  36.346   3.721
35838W        W95341  44.315   1.777   0.909
35839W        W95342  38.000  36.528   3.182
35840W        W95343  27.475   7.271   4.692
35841W        W95344  22.742  39.049  11.027
35842W        W95345  35.975  27.137  11.024
35843W        W95346  14.684  13.665   2.864
35844W        W95347  11.771  23.610   3.802
35845W        W95348  40.476  13.718   3.331
35846W        W95349  32.965  18.757   0.306
35847W        W95350  28.670  37.879  10.998
35848W        W95351  23.049  22.693   2.400
35849W        W95352  27.592   7.220   3.637
35850W        W95353  41.483   9.310  11.126
35851W        W95354   1.414  24.504   3.761
35852W        W95355   6.807   9.346  12.386
35853W        W95356   1.743  17.644  14.477
35854W        W95357  27.615  32.933   4.128
35855W        W95358  24.480  33.957  13.933
35856W        W95359   1.768  31.017   0.920
35857W        W95360  28.072   7.211   2.803
35858W        W95361  11.240  38.994  11.602
35859W        W95362  31.114   9.882   4.764
35860W        W95363  17.668  42.806   0.266
35861W        W95364  39.456   2.764   3.150
35862W        W95365  21.065  11.859   4.798
35863W        W95366  27.197  34.400  12.557
35864W        W95367   4.368  31.555  14.953
35865W        W95368  38.374  24.986   3.290
35866W        W95369   8.319  15.598  13.910
35867W        W95370  44.780  40.974   0.805
35868W        W95371   5.396  32.395  10.544
35869W        W95372   3.229   8.852  12.482
35870W        W95373   4.359  35.100   0.886
35871W        W95374  10.667   7.209  10.418
35872W        W95375  16.612   5.400   0.899
35873W        W95376  26.088  12.237   4.132
35874W        W95377   8.375  41.302  11.424
35875W        W95378  24.047  29.560  13.795
35876W        W95379  40.970  13.607   3.742
35877W        W95380   4.891  23.986   4.624
35878W        W95381  28.150  36.451   1.396
35879W        W95382  35.509  43.390   3.686
35880W        W95383  22.601  28.984  12.845
35881W        W95384  37.842  25.548  11.097
35882W        W95385  25.962  37.845   2.313
35883W        W95386   3.456   6.220  14.911
35884W        W95387  10.321  14.760   2.821
35885W        W95388  23.042  25.186  14.942
35886W        W95389  26.664  25.167  10.061
35887W        W95390  35.447   1.802   4.250
35888W        W95391  25.488  30.955   1.779
35889W        W95392  25.664  25.522   2.300
35890W        W95393  14.716  34.439  14.336
35891W        W95394  33.591   6.698   0.835
35892W        W95395  21.719  42.989  14.864
35893W        W95396  41.032  38.514   0.303
35894W        W95397  34.506  24.128  10.998
35895W        W95398  28.945  37.506   1.764
35896W        W95399  34.009  35.573   2.200
35897W        W95400   4.414  26.026  11.069
35898W        W95401  34.060  41.946   2.875
35899W        W95402  32.548  16.593  10.430
35900W        W95403  14.134  33.493  13.486
35901W        W95404  41.914  15.612  11.039
35902W        W95405   4.885  28.121   2.203
35903W        W95406  23.123   9.737  12.077
35904W        W95407  23.718  35.502  10.950
35905W        W95408  19.559  36.092   3.215
35906W        W95409  18.170  21.548   1.830
35907W        W95410  32.122   3.895  12.870
35908W        W95411  27.034  30.005  12.365
35909W        W95412   6.823  27.160   1.774
35910W        W95413  33.473  26.477  10.007
35911W        W95414  28.032  23.536   4.625
35912W        W95415  32.545  28.110   4.719
35913W        W95416  27.479   4.795   0.842
35914W        W95417  21.198  22.015  12.506
35915W        W95418  27.472  32.141   2.186
35916W        W95419  30.034  40.826   0.954
35917W        W95420  44.009  26.085   4.668
35918W        W95421  31.069  29.461   0.881
35919W        W95422  17.706   7.352  13.452
35920W        W95423  12.322  14.754  14.029
35921W        W95424  21.100  28.065  14.859
35922W        W95425  23.648  12.178  14.463
35923W        W95426   5.345   6.758   2.719
35924W        W95427   2.297  27.083  12.058
35925W        W95428  29.963  10.319   1.832
35926W        W95429  21.221  37.437  12.871
35927W        W95430  15.199  43.349   1.304
35928W        W95431  22.061  10.866   2.354
35929W        W95432   1.757  34.041   1.279
35930W        W95433  44.368  13.764   4.801
35931W        W95434  16.207  32.460   1.698
35932W        W95435   2.429  34.577   0.799
35933W        W95436  43.912  23.008  14.873
35934W        W95437  14.738   7.818   3.667
35935W        W95438  21.614   1.956  14.352
35936W        W95439  16.792  21.055   4.193
35937W        W95440   2.261  25.103   0.744
35938W        W95441   8.837  34.912  12.028
35939W        W95442  18.265  37.894   2.789
35940W        W95443  25.111  10.228   0.802
35941W        W95444  33.096  34.512   2.858
35942W        W95445  33.541  41.511   3.767
35943W        W95446  39.996   8.714  13.872
35944W        W95447  39.319   9.299  11.947
35945W        W95448  43.274  17.794   2.791
35946W        W95449  44.344  34.084  11.445
35947W        W95450   9.772  13.707   2.850
35948W        W95451  29.992  37.985   0.413
35949W        W95452  24.626  32.004   0.917
35950W        W95453  21.596  40.494   3.669
35951W        W95454  22.661  10.638   4.344
35952W        W95455  23.162   7.335   4.820
35953W        W95456  30.420  22.083  13.889
35954W        W95457  24.120  20.106   2.377
35955W        W95458  14.779  37.914   2.687
35956W        W95459  12.245  33.911   4.734
35957W        W95460   9.742  28.996   1.768
35958W        W95461  22.576  42.525  11.500
35959W        W95462  12.617  38.382  12.036
35960W        W95463   4.904  12.192  14.835
35961W        W95464  42.349  36.959  13.015
35962W        W95465  17.766  25.103   2.785
35963W        W95466   2.274   3.216   5.103
35964W        W95467  11.329  39.818  12.570
35965W        W95468  43.995  26.127  13.502
35966W        W95469  32.991  20.727  12.984
35967W        W95470  21.053  20.704   5.231
35968W        W95471   1.765   4.923   4.653
35969W        W95472   9.321   5.715  13.421
35970W        W95473   4.318   9.734   0.741
35971W        W95474  44.504   4.810   4.813
35972W        W95475  37.025  38.063  11.081
35973W        W95476   5.827  43.866  12.341
35974W        W95477  30.060  40.919   4.322
35975W        W95478  10.670  40.952  14.392
35976W        W95479  43.508   7.278   2.737
35977W        W95480  33.414  10.141  12.878
35978W        W95481   9.829  43.020   1.842
35979W        W95482  35.365  33.614   0.869
35980W        W95483  11.316  40.947  13.441
35981W        W95484  19.282  37.378  13.906
35982W        W95485  18.705  13.666  10.946
35983W        W95486  36.491  20.730  13.889
35984W        W95487  40.490  32.594  11.077
35985W        W95488   9.293  37.855  14.982
35986W        W95489   4.783   0.930   1.428
35987W        W95490  14.320   5.758  10.896
35988W        W95491  23.707  29.154  12.856
35989W        W95492  10.846  10.666   1.244
35990W        W95493   6.275  42.525   0.359
35991W        W95494  38.496  27.529  14.841
35992W        W95495  44.408  36.999  10.940
35993W        W95496  17.700   9.280  10.437
35994W        W95497  34.998  30.552   9.954
35995W        W95498   0.762  23.578   4.663
35996W        W95499  23.147   1.406   2.678
35997W        W95500   2.396  38.995  14.406
35998W        W95501  15.690  40.995   2.886
35999W        W95502  42.014   6.396  11.515
36000W        W95503  31.994  38.947  14.406
36001W        W95504  22.223  20.251  12.450
36002W        W95505  25.660  24.524  12.516
36003W        W95506   0.921  42.856  12.515
36004W        W95507  11.256  34.417   2.673
36005W        W95508   7.211   3.756  13.498
36006W        W95509  24.192  39.005   4.697
36007W        W95510  41.845  10.328   0.374
36008W        W95511  27.673  31.108  12.878
36009W        W95512   7.881  29.137   4.810
36010W        W95513  36.865  30.120   3.869
36011W        W95514  10.738   8.837   5.099
36012W        W95515  27.589  16.124   4.327
36013W        W95516  12.753   0.923   4.698
36014W        W95517   6.804  11.757  12.522
36015W        W95518   1.734  21.656  13.875
36016W        W95519   5.721   5.279   2.809
36017W        W95520   1.262  20.178   3.185
36018W        W95521  11.369  28.656   1.330
36019W        W95522   4.942   6.899   0.730
36020W        W95523  21.138  17.779  13.903
36021W        W95524   5.836  38.557   2.232
36022W        W95525   5.416  35.445   4.339
36023W        W95526  12.614  24.574   4.245
36024W        W95527  44.345  13.348  12.984
36025W        W95528  21.181  28.932   1.818
36026W        W95529  25.055  38.510   0.803
36027W        W95530  25.980  23.054  10.473
36028W        W95531  33.944  18.701  13.423
36029W        W95532  29.103  44.809  12.012
36030W        W95533  15.745  14.124   0.438
36031W        W95534  20.709   4.333  11.904
36032W        W95535  32.396   3.341   3.842
36033W        W95536  37.888  16.301  13.844
36034W        W95537  34.098  37.437   1.312
36035W        W95538  20.244  24.055   0.471
36036W        W95539   6.820  19.748  11.536
36037W        W95540  40.319  14.811   2.715
36038W        W95541   8.275  20.060  14.803
36039W        W95542   2.350  29.145   5.101
36040W        W95543  33.920   2.768   0.278
36041W        W95544  15.818  17.178   3.742
36042W        W95545  40.910  15.668   2.735
36043W        W95546   0.909  39.462   0.949
36044W        W95547   0.369  20.724  11.937
36045W        W95548  44.327   9.305   2.321
36046W        W95549  29.003  25.007  12.073
36047W        W95550  22.632  25.047  13.319
36048W        W95551   5.308  44.314  14.951
36049W        W95552   5.730  18.268  11.000
36050W        W95553  25.153  19.657  11.118
36051W        W95554  12.243  15.784  14.481
36052W        W95555  43.408  11.724   2.204
36053W        W95556  40.481  38.331  14.884
36054W        W95557  10.644  23.027   2.408
36055W        W95558   0.981  26.559   2.881
36056W        W95559  18.164   7.891  14.324
36057W        W95560  25.033  27.554   0.441
36058W        W95561  15.121   1.913   2.902
36059W        W95562   9.857  38.878   1.404
36060W        W95563   0.794  11.300   4.183
36061W        W95564  29.046  17.200   0.462
36062W        W95565  12.175  20.089  14.842
36063W        W95566  10.159  35.046  12.066
36064W        W95567  26.075  29.637   2.816
36065W        W95568  41.860  39.553   3.710
36066W        W95569  42.825  39.811  10.485
36067W        W95570  21.027  34.522  11.447
36068W        W95571  22.539  26.072   1.854
36069W        W95572  18.701   5.331   3.768
36070W        W95573  25.499  37.430   4.837
36071W        W95574  20.041   1.770   4.342
36072W        W95575  27.075  11.282  11.973
36073W        W95576  20.189  11.202   4.242
36074W        W95577   7.248  28.049   4.788
36075W        W95578   9.852  19.706   2.834
36076W        W95579   8.263   2.374  13.389
36077W        W95580  35.440  37.967  13.059
36078W        W95581  41.482  12.170  13.944
36079W        W95582   4.409  25.564  13.524
36080W        W95583   9.319  17.700   4.120
36081W        W95584  14.651  14.248   0.807
36082W        W95585  37.853   2.798   2.849
36083W        W95586  12.118  18.224  10.562
36084W        W95587   3.869  23.592   2.226
36085W        W95588  32.050  31.045   0.312
36086W        W95589  44.351   7.345  12.829
36087W        W95590  35.458  22.580  11.988
36088W        W95591   0.445   7.899  14.993
36089W        W95592   8.199  12.813  10.446
36090W        W95593  18.660  27.625   2.690
36091W        W95594  20.657  43.374   0.895
36092W        W95595  42.927  44.813  11.948
36093W        W95596  37.432   6.871   1.399
36094W        W95597   2.880  18.123  14.304
36095W        W95598   4.904  32.627  13.804
36096W        W95599  18.717  11.816  14.883
36097W        W95600  22.672   3.394  14.880
36098W        W95601   1.317  31.095  13.921
36099W        W95602  18.180  21.079  12.026
36100W        W95603  24.132  27.973  13.484
36101W        W95604  15.690  14.264   2.726
36102W        W95605  16.588  17.280   0.306
36103W        W95606  11.747   6.203  10.924
36104W        W95607  39.862  25.590   2.398
36105W        W95608  30.092  24.197  10.603
36106W        W95609  11.776  36.964  10.599
36107W        W95610   1.758  30.650  11.450
36108W        W95611  24.204  14.720   2.260
36109W        W95612  12.235  13.836   4.273
36110W        W95613  18.718  43.799   2.393
36111W        W95614  14.735  41.004   0.459
36112W        W95615  32.116  19.046   0.792
36113W        W95616  24.493  38.545  13.888
36114W        W95617   0.359  22.558   4.114
36115W        W95618  12.754  41.526  13.972
36116W        W95619  43.389   1.817  14.291
36117W        W95620   3.720  19.712   4.685
36118W        W95621  24.020  28.505   1.823
36119W        W95622  19.650  37.058  13.859
36120W        W95623  17.065  35.909   0.904
36121W        W95624  24.547  32.415  11.101
36122W        W95625  42.326  28.992   2.367
36123W        W95626  10.845  22.592  13.414
36124W        W95627  28.164  34.393   1.748
36125W        W95628  37.552  19.182  13.403
36126W        W95629   7.667  24.615  13.465
36127W        W95630  29.005  38.337  11.091
36128W        W95631   0.776  37.446   0.741
36129W        W95632  34.010   8.731  14.396
36130W        W95633  31.120  20.587  14.858
36131W        W95634  41.814  41.401  11.602
36132W        W95635  28.644  28.436  11.002
36133W        W95636  38.548  37.847   1.777
36134W        W95637  42.405   9.268   4.733
36135W        W95638   2.458   1.258   4.609
36136W        W95639  15.679  27.558   1.851
36137W        W95640  11.341  15.612   3.831
36138W        W95641  16.288   9.216   3.178
36139W        W95642   8.293  13.264  13.850
36140W        W95643  38.521  29.644   4.601
36141W        W95644  13.618  10.645  10.607
36142W        W95645   8.765  34.484  13.817
36143W        W95646  42.519  14.606  13.042
36144W        W95647  44.824  38.841   4.197
36145W        W95648   5.687   9.277  10.560
36146W        W95649  38.970  37.378  13.315
36147W        W95650  10.801  31.501   2.703
36148W        W95651  39.854  35.600  14.505
36149W        W95652  11.729  12.767  10.484
36150W        W95653  31.491   8.829   3.717
36151W        W95654  15.816  40.337  11.966
36152W        W95655  10.236  20.132   3.777
36153W        W95656  39.537  14.301   1.414
36154W        W95657  10.142  37.073   5.112
36155W        W95658  13.289  15.191  13.313
36156W        W95659  36.073  10.789   0.875
36157W        W95660  24.533  34.019  14.856
36158W        W95661  33.470  29.611   0.332
36159W        W95662  13.708   0.368   0.955
36160W        W95663  32.393  33.989   2.790
36161W        W95664  17.665  43.011  12.917
36162W        W95665   3.932  44.800  13.008
36163W        W95666  20.579  40.481   0.933
36164W        W95667   2.835  17.701  12.455
36165W        W95668  27.018  27.486   2.848
36166W        W95669  20.581  31.616   2.901
36167W        W95670  21.626  29.663  14.963
36168W        W95671  26.158  44.787   4.114
36169W        W95672  22.159  43.014   2.669
36170W        W95673  39.953  33.489  12.841
36171W        W95674  38.515  12.850   2.409
36172W        W95675  19.573  39.376   2.806
36173W        W95676  15.243  18.109  14.861
36174W        W95677  17.081  24.223  12.549
36175W        W95678  28.971  44.350   1.702
36176W        W95679  29.122   0.902  14.337
36177W        W95680  38.350   0.304   0.450
36178W        W95681  15.185  36.497   3.782
36179W        W95682  10.298  37.366  12.466
36180W        W95683  41.860  42.523   0.861
36181W        W95684  10.662   1.399   4.636
36182W        W95685  30.640   8.361   4.772
36183W        W95686  33.448  17.272   2.780
36184W        W95687  33.434  11.837  14.985
36185W        W95688  36.858  15.783  14.956
36186W        W95689  28.956  11.290   0.451
36187W        W95690   7.666  12.337   2.878
36188W        W95691  27.592   4.341   2.688
36189W        W95692  19.233  21.162  11.491
36190W        W95693   7.724   4.230  11.880
36191W        W95694  42.867  40.471   2.347
36192W        W95695   4.812   9.174  14.972
36193W        W95696   9.875  21.258  11.091
36194W        W95697   3.239  30.634   0.854
36195W        W95698  23.079  27.463  13.979
36196W        W95699  13.351   9.662   3.337
36197W        W95700  34.548   3.330  11.990
36198W        W95701  34.036  10.186  13.427
36199W        W95702  22.725  17.069  12.547
36200W        W95703  34.543  38.370   2.379
36201W        W95704   1.963  29.078   3.301
36202W        W95705  13.189  40.849   1.238
36203W        W95706  22.106  15.606   2.318
36204W        W95707   8.705  18.651   1.720
36205W        W95708  20.139  28.626   0.273
36206W        W95709  28.095   8.702  10.969
36207W        W95710   6.850  31.638   1.811
36208W        W95711  39.025  10.692  13.038
36209W        W95712  16.795  10.693   3.668
36210W        W95713  26.092  44.382  13.374
36211W        W95714  40.352   7.871  12.508
36212W        W95715  26.088  31.499   4.117
36213W        W95716  40.324  35.367  10.923
36214W        W95717  18.209  38.359  11.023
36215W        W95718  22.118  21.689  12.962
36216W        W95719  41.805  28.517  10.512
36217W        W95720   3.460  22.037  10.932
36218W        W95721   3.305  40.400   3.261
36219W        W95722  26.168   1.408  12.506
36220W        W95723   5.863  17.174   2.731
36221W        W95724   0.456  38.861   2.334
36222W        W95725   3.730   0.954  10.148
36223W        W95726   8.214  30.030   0.791
36224W        W95727  17.641  30.065  13.835
36225W        W95728  31.910  36.482   4.155
36226W        W95729   6.872   1.801   3.365
36227W        W95730   8.844  12.817  14.967
36228W        W95731  42.978  31.982   5.137
36229W        W95732  29.063  32.047   0.332
36230W        W95733  22.667   2.782  11.510
36231W        W95734  15.581  35.979   2.297
36232W        W95735  20.749  40.869   2.292
36233W        W95736  25.588  27.144   1.390
36234W        W95737   7.817  39.882  14.027
36235W        W95738  42.358   3.935  12.983
36236W        W95739  32.997  29.968  13.405
36237W        W95740  20.564  42.349  12.376
36238W        W95741  12.199  28.552   1.423
36239W        W95742  10.680   6.690   3.304
36240W        W95743  41.787  17.794  12.952
36241W        W95744   8.265   3.955  10.889
36242W        W95745  29.131   1.442  13.007
36243W        W95746  35.413  32.945   1.802
36244W        W95747  29.609  41.934   0.301
36245W        W95748  25.093  30.633   4.269
36246W        W95749  14.095  20.054  11.950
36247W        W95750  11.743  10.676  13.521
36248W        W95751  21.133  29.035  14.352
36249W        W95752  30.501  24.636  10.151
36250W        W95753  26.170  16.641   2.377
36251W        W95754   6.270   8.261   4.707
36252W        W95755  33.090  23.052  14.292
36253W        W95756   1.272  41.928   2.888
36254W        W95757   5.821  23.103  14.952
36255W        W95758  26.153  37.524   4.203
36256W        W95759   6.224  40.386   2.217
36257W        W95760  34.001  12.614  11.551
36258W        W95761  10.309   4.205  12.389
36259W        W95762  12.653   4.228   3.796
36260W        W95763   9.889   5.341  11.994
36261W        W95764  40.007  20.101   0.252
36262W        W95765  25.473  30.476   3.643
36263W        W95766   6.741  37.927  13.045
36264W        W95767   4.890   6.771   4.234
36265W        W95768  19.123  43.337  10.439
36266W        W95769  25.108  28.486   3.203
36267W        W95770   8.700  42.351  11.007
36268W        W95771  44.271  23.210  14.913
36269W        W95772  34.438  16.275  13.353
36270W        W95773  21.089  37.011   1.935
36271W        W95774  39.410  29.561  11.379
36272W        W95775  31.007  43.452  12.072
36273W        W95776  36.348  27.640   0.464
36274W        W95777  30.034  17.650   4.624
36275W        W95778  33.954  10.348  14.509
36276W        W95779  18.588  29.013  11.045
36277W        W95780  23.094  22.528  12.513
36278W        W95781  43.890  14.693   4.797
36279W        W95782  33.393  34.526  13.387
36280W        W95783  35.035   3.369  12.828
36281W        W95784  23.216  12.258  13.513
36282W        W95785  24.148  37.372   0.850
36283W        W95786  27.609  43.333  12.511
36284W        W95787  42.875  34.077  12.477
36285W        W95788  37.955   4.733  11.894
36286W        W95789  24.210  17.788   2.387
36287W        W95790  20.253  27.056  14.326
36288W        W95791  23.706  30.611  12.505
36289W        W95792  29.172  20.096  12.494
36290W        W95793  44.812   2.801  14.903
36291W        W95794  39.900  14.230  11.483
36292W        W95795  35.886  36.389  13.990
36293W        W95796  10.682  22.659  12.946
36294W        W95797  42.803   7.360   3.658
36295W        W95798  37.489  42.982   1.756
36296W        W95799   3.723  28.606  13.393
36297W        W95800   1.780   4.308  11.076
36298W        W95801  31.106   4.286   2.195
36299W        W95802  23.095   7.840   2.780
36300W        W95803  18.646  30.541   0.362
36301W        W95804  23.088   2.939  11.492
36302W        W95805   9.693  34.409   1.916
36303W        W95806  34.905   4.366   2.217
36304W        W95807  31.919   2.320  13.854
36305W        W95808  37.909  10.285   2.184
36306W        W95809  36.558  36.950   4.198
36307W        W95810  28.931  14.659   4.225
36308W        W95811  28.542  37.012  11.523
36309W        W95812   2.278   9.708   0.381
36310W        W95813   1.475  43.316  14.800
36311W        W95814   1.442  22.135   4.300
36312W        W95815  35.587  23.190   3.355
36313W        W95816  26.137  28.503  13.460
36314W        W95817  44.905  32.099   3.811
36315W        W95818  25.517  11.803   3.713
36316W        W95819  13.656  33.407   2.770
36317W        W95820  37.376  32.078  13.050
36318W        W95821  14.177  15.659  10.566
36319W        W95822   1.360  21.721  13.455
36320W        W95823  23.659  22.657   4.158
36321W        W95824  15.763  10.272   5.134
36322W        W95825  35.482   1.932  11.081
36323W        W95826   0.449  33.467   4.718
36324W        W95827  14.746   0.363  10.620
36325W        W95828   4.800  16.253   4.259
36326W        W95829  43.805  37.956  11.019
36327W        W95830  38.489  15.608   2.880
36328W        W95831  22.729   9.281   4.202
36329W        W95832  36.372  43.884   1.335
36330W        W95833  24.678  21.191  11.927
36331W        W95834  37.068  39.932  14.945
36332W        W95835  20.035  39.352  13.532
36333W        W95836  11.303  31.011  10.929
36334W        W95837  18.586  37.487   3.249
36335W        W95838  14.144  38.368   3.648
36336W        W95839  39.525  41.491  11.127
36337W        W95840  32.626  29.657   3.351
36338W        W95841  17.107  26.463   0.793
36339W        W95842  34.912   2.811  13.842
36340W        W95843  31.087  28.470   0.933
36341W        W95844  16.275  41.403  14.480
36342W        W95845  44.284   5.313  13.829
36343W        W95846  35.402  26.126  13.890
36344W        W95847  13.351  37.427   4.120
36345W        W95848  21.556  26.619  11.868
36346W        W95849  32.618   9.685   0.476
36347W        W95850   6.326  28.622   4.252
36348W        W95851  14.158  39.519  13.012
36349W        W95852  44.305  33.029   2.692
36350W        W95853  40.363   0.822   5.260
36351W        W95854  26.607   2.929   3.817
36352W        W95855   7.821  21.579   4.676
36353W        W95856   3.355  14.316  14.478
36354W        W95857  20.131  30.535   0.749
36355W        W95858  37.405  22.107   1.289
36356W        W95859  28.579  29.985  14.844
36357W        W95860  37.373  10.182   2.218
36358W        W95861  32.889  25.996   3.249
36359W        W95862  44.806  22.126  11.561
36360W        W95863  12.710  25.473   3.664
36361W        W95864   2.463  13.788   4.222
36362W        W95865  15.764  39.873   0.277
36363W        W95866  14.114  12.190   1.877
36364W        W95867   9.297  24.643  11.028
36365W        W95868   5.753  15.168  13.359
36366W        W95869  35.024  10.335   0.329
36367W        W95870  31.078  36.093  14.001
36368W        W95871  38.514  36.022   0.745
36369W        W95872  36.063  28.977   1.879
36370W        W95873  17.647   0.292   1.379
36371W        W95874  24.050  40.889  12.503
36372W        W95875  35.918  24.682   0.453
36373W        W95876  26.639  16.717  13.944
36374W        W95877  32.022  32.016  14.311
36375W        W95878  21.574  44.756  13.485
36376W        W95879  27.602   7.331  13.062
36377W        W95880  39.884  40.422   2.212
36378W        W95881  34.864  37.019   3.716
36379W        W95882  39.498   1.450  13.355
36380W        W95883  41.513  22.690   0.402
36381W        W95884   5.917  41.037  12.506
36382W        W95885  27.033   4.751   4.788
36383W        W95886  21.533   9.721   1.377
36384W        W95887  42.360  44.296   3.146
36385W        W95888   2.450   7.758   5.318
36386W        W95889  23.110  39.368   0.285
36387W        W95890  37.468  21.116   9.955
36388W        W95891  26.127  33.626   0.336
36389W        W95892   9.255   7.283  14.377
36390W        W95893  38.563  33.443  11.552
36391W        W95894  43.770  21.659  11.955
36392W        W95895  26.025  18.134  13.343
36393W        W95896  15.294  44.489  12.502
36394W        W95897  11.708  26.539  10.481
36395W        W95898  30.108   9.850   9.502
36396W        W95899   3.402  40.481  14.017
36397W        W95900  21.637   9.788  13.403
36398W        W95901  23.028  12.124   1.898
36399W        W95902   4.907  34.569   1.921
36400W        W95903   9.852  20.552   1.740
36401W        W95904  39.461  36.088   0.314
36402W        W95905  12.681  24.631  10.972
36403W        W95906  44.900  10.791  13.318
36404W        W95907  35.425  20.151   1.735
36405W        W95908  39.335  44.420   3.824
36406W        W95909  38.876  23.652  11.089
36407W        W95910  16.147  35.385  14.403
36408W        W95911  29.134  16.810  10.550
36409W        W95912  39.455   6.724  11.082
36410W        W95913  15.746  18.632  12.552
36411W        W95914  20.748  41.005  11.019
36412W        W95915  30.431  43.299   4.774
36413W        W95916  39.897  31.615   3.745
36414W        W95917   5.381  41.890   3.775
36415W        W95918   1.317  38.331  14.006
36416W        W95919  16.101  26.987   0.848
36417W        W95920   4.752  15.325   0.393
36418W        W95921   7.279  27.104  14.428
36419W        W95922  12.199  35.445  12.873
36420W        W95923  30.934  13.842   0.338
36421W        W95924  26.657   4.831  14.503
36422W        W95925  33.992  25.029   0.271
36423W        W95926   8.199  27.013   2.251
36424W        W95927   0.376   7.845  11.599
36425W        W95928  18.668  11.351   0.246
36426W        W95929  44.394  30.154   2.416
36427W        W95930  31.038   4.824   3.274
36428W        W95931  31.952   5.928  12.852
36429W        W95932  42.523  12.337   4.718
36430W        W95933  22.660   3.268   3.772
36431W        W95934  12.187   4.910   0.338
36432W        W95935  17.606  39.851  13.924
36433W        W95936  17.127   6.737  10.450
36434W        W95937  18.564  11.232  13.983
36435W        W95938  15.317  17.096  11.039
36436W        W95939   2.732  20.583  14.996
36437W        W95940  27.088  24.037   1.879
36438W        W95941  42.791   0.976  10.486
36439W        W95942  30.442   8.376   1.775
36440W        W95943  33.418   9.862  10.614
36441W        W95944  30.961  24.655  14.403
36442W        W95945  35.584  13.269   1.212
36443W        W95946  27.143  42.995  11.462
36444W        W95947  29.630  44.502  12.440
36445W        W95948   7.200   2.960  14.941
36446W        W95949  22.613  22.612  12.923
36447W        W95950  18.057  23.145   1.235
36448W        W95951  14.153  29.596  11.955
36449W        W95952   2.386   5.863  11.122
36450W        W95953  42.807   7.337  13.951
36451W        W95954  28.125  10.169  11.507
36452W        W95955  23.038   2.737  12.869
36453W        W95956  37.904  21.028  10.525
36454W        W95957  22.112  20.180  11.040
36455W        W95958  39.021  14.667   4.271
36456W        W95959  17.196   0.463  14.401
36457W        W95960  40.045  21.728  14.801
36458W        W95961   2.276  12.346   2.693
36459W        W95962  31.412  11.245  12.883
36460W        W95963  23.715  34.066   4.809
36461W        W95964  21.607  28.985  14.916
36462W        W95965   7.735  27.098  13.481
36463W        W95966  19.663  21.572  10.577
36464W        W95967  12.841  17.131  11.106
36465W        W95968  32.628  16.133  12.516
36466W        W95969  30.567  28.534  13.389
36467W        W95970   5.379   2.768  14.872
36468W        W95971  19.664   4.226  13.369
36469W        W95972  20.250  36.068   3.814
36470W        W95973  24.197  31.127   4.765
36471W        W95974  18.677  36.527   0.475
36472W        W95975  16.083   7.316   3.295
36473W        W95976   2.879  23.562  14.510
36474W        W95977  20.054  36.858  11.013
36475W        W95978  21.128   6.190  13.871
36476W        W95979  22.051  39.436  12.398
36477W        W95980  11.684  43.419  14.835
36478W        W95981  37.071  28.004   0.770
36479W        W95982  35.521  24.677   3.829
36480W        W95983  43.934   0.393   1.382
36481W        W95984  20.169  25.537   3.844
36482W        W95985   7.344  31.055   4.664
36483W        W95986  28.505   1.770   1.862
36484W        W95987  37.536  16.165   3.745
36485W        W95988   4.914  35.854   4.832
36486W        W95989  17.066  25.043   5.186
36487W        W95990  32.054  38.935   0.406
36488W        W95991  27.544  35.857   3.828
36489W        W95992   5.819   8.160  14.015
36490W        W95993  27.481  21.191  13.896
36491W        W95994  14.751  32.500  13.547
36492W        W95995  25.485  29.103  14.920
36493W        W95996   8.171  41.433   3.811
36494W        W95997  32.394   5.239   4.744
36495W        W95998   9.257   9.834   0.297
36496W        W95999  36.402  43.961   3.770
36497W        W96000  30.103  13.289   2.312
36498W        W96001  36.062  14.123   1.392
36499W        W96002  43.280   9.728   3.223
36500W        W96003  14.761  10.376  14.898
36501W        W96004  28.503  10.735   1.780
36502W        W96005   1.742  34.484   1.362
36503W        W96006   6.284  33.428   2.255
36504W        W96007  19.042   9.331   2.807
36505W        W96008  35.483  40.498  11.434
36506W        W96009  17.559  26.500  11.398
36507W        W96010  29.991  41.499   0.866
36508W        W96011   0.882   0.385   1.425
36509W        W96012  36.937  33.501   3.211
36510W        W96013  32.085  25.144  11.565
36511W        W96014  34.607  33.875   4.275
36512W        W96015  33.540  36.507   3.363
36513W        W96016  29.484  34.921  12.894
36514W        W96017  39.399  19.638  14.394
36515W        W96018  43.778  30.123  13.825
36516W        W96019  34.569  44.830   1.917
36517W        W96020  21.052  31.898   5.286
36518W        W96021   6.338   2.757  12.828
36519W        W96022  39.891  36.995   1.720
36520W        W96023  31.150  32.434   0.820
36521W        W96024  41.970  17.762   2.838
36522W        W96025  30.961  17.123  13.889
36523W        W96026  31.552  41.907   1.870
36524W        W96027  23.656   6.770   3.153
36525W        W96028   4.320  28.068   5.578
36526W        W96029  17.167  18.216   3.634
36527W        W96030  10.853  11.310   2.695
36528W        W96031  38.387  21.526  13.389
36529W        W96032  31.043   6.386  13.494
36530W        W96033  17.691  31.467   2.678
36531W        W96034  29.667  14.230  10.938
36532W        W96035  19.734  38.559  13.374
36533W        W96036  23.592  29.051   2.682
36534W        W96037  15.204   4.209  13.915
36535W        W96038   8.178  16.237  11.941
36536W        W96039   0.277   4.771   2.179
36537W        W96040  37.914  16.703  13.326
36538W        W96041  12.769  35.874  11.064
36539W        W96042  12.228  39.815   2.337
36540W        W96043  14.716   4.833  11.932
36541W        W96044  34.508  41.812   3.176
36542W        W96045  41.380  20.172   3.308
36543W        W96046  13.793   4.932  13.365
36544W        W96047  24.502  35.575   1.326
36545W        W96048  31.087  33.503  12.038
36546W        W96049  44.345  13.647   2.220
36547W        W96050   5.920  29.442   0.401
36548W        W96051  11.132   2.875   2.826
36549W        W96052  32.410  41.920  13.469
36550W        W96053  31.985  20.189  10.943
36551W        W96054   2.247  12.828  11.972
36552W        W96055   0.381  43.990   0.437
36553W        W96056  31.589  13.655  13.813
36554W        W96057  34.056  10.232  13.991
36555W        W96058  14.668   1.886   3.363
36556W        W96059  15.208  21.082  10.558
36557W        W96060  42.846  12.731  12.443
36558W        W96061   4.290   9.647  11.486
36559W        W96062  35.958  42.955  12.869
36560W        W96063  24.083  41.958  13.018
36561W        W96064  43.873   0.374  12.559
36562W        W96065  22.251  41.029   2.196
36563W        W96066   2.317  12.232  10.927
36564W        W96067   1.761  10.671   0.317
36565W        W96068   4.830  43.482   1.444
36566W        W96069  16.137  20.714   4.133
36567W        W96070  25.969  22.538   3.704
36568W        W96071  27.975  33.014  14.768
36569W        W96072  10.815  22.037  12.406
36570W        W96073  25.600  10.772  12.004
36571W        W96074  23.556  40.965  12.452
36572W        W96075  28.014  39.465  11.431
36573W        W96076  44.996   8.294  12.043
36574W        W96077  10.352  23.023   4.777
36575W        W96078  16.280  12.851  11.050
36576W        W96079   8.350   8.683  13.852
36577W        W96080  36.013   3.767   1.287
36578W        W96081   4.424  19.061   3.780
36579W        W96082  37.051  18.246  13.871
36580W        W96083  24.513  36.988   0.902
36581W        W96084  32.084  24.179  10.449
36582W        W96085  44.790  24.704   2.903
36583W        W96086  42.908  43.371  11.472
36584W        W96087   6.837   4.365  11.078
36585W        W96088   8.767  11.639   2.855
36586W        W96089   5.376  11.261   3.244
36587W        W96090  10.209  24.531  14.804
36588W        W96091   0.984  20.620   3.226
36589W        W96092  13.220  30.021   4.304
36590W        W96093   1.739  24.221  13.057
36591W        W96094   4.285  29.488  14.371
36592W        W96095  42.935  34.376  11.916
36593W        W96096  39.534  19.166   4.751
36594W        W96097  38.369  21.119  12.977
36595W        W96098  43.794   1.963   1.869
36596W        W96099  17.668  16.740   3.670
36597W        W96100  44.309   5.430  13.506
36598W        W96101  26.175  38.043  10.599
36599W        W96102  15.123  29.120  14.015
36600W        W96103  38.911  31.919  10.982
36601W        W96104  17.563   8.752  11.585
36602W        W96105  19.045  41.979  12.943
36603W        W96106  29.069  34.584  14.945
36604W        W96107  13.625  12.236  14.312
36605W        W96108  25.505   5.224  10.964
36606W        W96109  35.551   3.753  11.023
36607W        W96110   3.830  19.742  14.809
36608W        W96111  22.736  35.367  12.458
36609W        W96112  20.605  22.146   1.321
36610W        W96113  41.975   1.858  12.009
36611W        W96114  12.652  16.588  10.902
36612W        W96115  35.035  28.974   1.914
36613W        W96116  27.633  36.444  12.385
36614W        W96117  10.370   6.280   4.252
36615W        W96118  28.641  15.672   2.180
36616W        W96119  11.806   9.259   4.198
36617W        W96120  42.499  24.116   2.809
36618W        W96121  28.506  38.492   0.783
36619W        W96122  42.308  17.300   4.679
36620W        W96123  20.744  36.856   4.293
36621W        W96124  41.359  15.283  11.090
36622W        W96125  13.310  42.404   4.278
36623W        W96126   0.403   3.924   4.159
36624W        W96127  36.400   7.213  11.571
36625W        W96128  44.954   5.396   4.353
36626W        W96129   7.733  34.938   4.617
36627W        W96130  42.975  43.816   3.205
36628W        W96131  25.174  20.274   3.640
36629W        W96132   0.897  44.269   3.794
36630W        W96133   6.383   4.226  13.812
36631W        W96134  21.725  43.924  13.342
36632W        W96135  27.099  22.166   2.322
36633W        W96136  43.480  30.032   2.252
36634W        W96137   5.736  19.218  14.401
36635W        W96138  29.447  15.222  12.356
36636W        W96139  43.358   0.969  11.986
36637W        W96140  31.551  33.533   3.232
36638W        W96141  39.951  24.501   4.204
36639W        W96142   7.195  27.149  13.879
36640W        W96143  32.401   9.391   1.394
36641W        W96144  12.729   2.317   4.796
36642W        W96145  40.800  27.041   3.326
36643W        W96146  30.936  40.046   2.891
36644W        W96147  33.990  40.890  12.013
36645W        W96148  15.808  22.029  10.943
36646W        W96149  17.636  15.737  11.900
36647W        W96150  39.002  37.482   4.699
36648W        W96151  42.862  25.963   0.800
36649W        W96152   8.741  16.658   2.286
36650W        W96153  12.358  21.688   2.868
36651W        W96154  35.860  13.199   1.844
36652W        W96155  31.998  36.559   0.421
36653W        W96156  27.129   7.792   3.383
36654W        W96157  42.502  39.541   3.799
36655W        W96158  40.439  33.123  10.973
36656W        W96159  19.040  23.178   4.114
36657W        W96160  34.390  38.821  14.329
36658W        W96161  30.968  30.611  10.447
36659W        W96162   3.871  33.093   2.281
36660W        W96163  12.250  34.613   4.137
36661W        W96164  29.957   7.290   1.212
36662W        W96165  15.223  28.644   0.260
36663W        W96166  10.843  30.160  13.800
36664W        W96167  11.699  33.984   2.716
36665W        W96168  42.420  42.832  10.127
36666W        W96169  41.995  44.931  10.991
36667W        W96170  36.045  21.231  11.380
36668W        W96171   9.749  43.315  12.853
36669W        W96172  36.512  25.127  11.549
36670W        W96173   6.199  43.858   2.826
36671W        W96174  19.096   8.245   1.341
36672W        W96175   7.254  25.614   1.846
36673W        W96176  10.646   3.422   4.689
36674W        W96177  29.110  33.617  13.451
36675W        W96178  41.451  10.145  11.036
36676W        W96179  40.824  17.176  14.993
36677W        W96180  33.616  13.121   0.325
36678W        W96181  35.898  15.174   2.250
36679W        W96182  13.107  29.121   3.691
36680W        W96183  44.999   4.381  13.956
36681W        W96184  17.613  23.537  12.070
36682W        W96185   7.372  25.667  12.385
36683W        W96186  42.484  36.936  12.559
36684W        W96187   5.338   1.875  12.013
36685W        W96188  37.835  27.524   3.386
36686W        W96189  20.626   4.303   3.704
36687W        W96190  35.955  26.993   1.854
36688W        W96191  33.516   2.464   4.628
36689W        W96192  27.600  26.678   9.605
36690W        W96193  17.161  30.544   5.198
36691W        W96194   0.392  35.870  12.387
36692W        W96195  37.575  18.257  10.518
36693W        W96196  18.552  15.822  12.950
36694W        W96197  29.591   5.773   4.751
36695W        W96198   0.298   9.802   0.842
36696W        W96199  33.531  24.219   2.672
36697W        W96200  44.450   1.449  12.499
36698W        W96201  36.915   4.816  12.395
36699W        W96202  27.629   4.282  12.456
36700W        W96203  34.385  20.177   1.823
36701W        W96204  11.312  31.540   2.713
36702W        W96205  11.306  10.854   3.688
36703W        W96206   8.789  25.661  11.126
36704W        W96207   9.280   0.762   4.630
36705W        W96208  36.875  28.025  14.806
36706W        W96209  29.471  18.573   4.175
36707W        W96210   3.870  33.486  14.028
36708W        W96211  33.069   5.208   4.321
36709W        W96212  21.058   6.194  14.329
36710W        W96213  34.541  11.780   3.795
36711W        W96214  38.892  15.632  11.965
36712W        W96215  42.964   9.810  11.449
36713W        W96216  38.345  19.747   3.753
36714W        W96217  27.593   9.330   2.232
36715W        W96218   5.846  11.186  12.979
36716W        W96219  37.540  18.202   3.766
36717W        W96220  20.166  26.986  11.877
36718W        W96221  26.119  19.715   3.668
36719W        W96222   2.799  13.345   2.260
36720W        W96223  34.532  22.133   4.803
36721W        W96224  14.180   8.398   2.377
36722W        W96225   1.252  14.296   0.858
36723W        W96226   3.934  44.874  13.463
36724W        W96227   6.800  13.634  11.911
36725W        W96228  24.705  15.656   1.408
36726W        W96229  21.216  41.428   1.432
36727W        W96230  35.545  21.236  12.887
36728W        W96231  27.654   9.687   4.650
36729W        W96232  36.080  39.504   2.318
36730W        W96233   9.251   8.206   1.364
36731W        W96234  13.607  10.648   0.345
36732W        W96235  34.052  30.438   3.630
36733W        W96236  40.014  25.475   0.347
36734W        W96237   4.933  26.494   0.322
36735W        W96238   9.160  15.162  13.533
36736W        W96239  44.824  42.894  10.930
36737W        W96240   1.958  19.683   1.858
36738W        W96241  35.529  39.456   9.651
36739W        W96242  35.470  36.894   4.771
36740W        W96243  29.011  36.984   4.723
36741W        W96244  18.152  23.161   2.715
36742W        W96245   0.258  21.261   3.694
36743W        W96246  28.584  29.478   9.615
36744W        W96247  10.801   2.865  14.417
36745W        W96248  18.718  17.292   3.314
36746W        W96249  17.274  28.513  11.585
36747W        W96250   2.274   1.832   0.391
36748W        W96251  12.727   7.299  14.412
36749W        W96252  15.101  41.313  14.319
36750W        W96253  38.942  25.613  13.792
36751W        W96254  35.448  33.479  11.431
36752W        W96255  39.016  42.909   9.979
36753W        W96256  21.067  36.854   0.405
36754W        W96257  41.895  40.480   1.809
36755W        W96258  13.777  13.762  12.835
36756W        W96259  11.326  42.998  13.945
36757W        W96260   8.869  28.460   0.759
36758W        W96261  39.325   2.748  10.976
36759W        W96262  37.070  26.974   1.441
36760W        W96263  39.360  33.406  12.014
36761W        W96264  42.890  10.371   4.240
36762W        W96265  24.184  44.790   0.900
36763W        W96266  12.856   7.869   2.311
36764W        W96267  38.438  42.337  10.500
36765W        W96268  36.075   7.861  10.541
36766W        W96269  34.589  19.763   0.749
36767W        W96270  24.513  24.637  11.960
36768W        W96271  14.221  40.338  13.028
36769W        W96272  37.463  36.006  14.804
36770W        W96273  30.968  19.152  14.979
36771W        W96274  28.064  19.691  10.622
36772W        W96275  18.228  39.879   3.147
36773W        W96276  44.997   1.977   5.257
36774W        W96277   2.942   0.770   3.665
36775W        W96278   6.353  22.146   1.365
36776W        W96279  12.321  27.684   3.734
36777W        W96280  23.992  41.535   2.360
36778W        W96281  32.515  13.251   1.901
36779W        W96282  35.499  29.669  13.985
36780W        W96283  24.621  17.237  14.004
36781W        W96284  26.655  26.070   0.761
36782W        W96285  26.618   8.219  11.015
36783W        W96286  42.842  10.731  13.346
36784W        W96287  19.278  15.809  14.998
36785W        W96288  32.394  24.668  12.893
36786W        W96289  32.568  28.443  11.418
36787W        W96290  13.727  22.636   0.461
36788W        W96291  16.175  29.603   1.285
36789W        W96292  29.173  35.520  14.462
36790W        W96293  31.054   4.259  13.413
36791W        W96294  16.601  14.744   4.624
36792W        W96295   6.766  10.299   4.800
36793W        W96296  21.693  29.524   3.817
36794W        W96297  36.992   3.906   1.293
36795W        W96298   0.461  29.564   3.796
36796W        W96299  21.635   1.894   5.688
36797W        W96300   8.307  39.875  12.948
36798W        W96301   9.873   3.296   2.193
36799W        W96302   1.463  37.345  10.438
36800W        W96303  10.205  35.501   2.409
36801W        W96304   7.826  21.593  13.452
36802W        W96305  31.628  35.964  11.018
36803W        W96306  22.669  19.225   3.228
36804W        W96307   8.343  39.033   1.327
36805W        W96308  15.727  42.787  11.079
36806W        W96309  26.063  19.581   5.094
36807W        W96310  15.613  40.355  14.280
36808W        W96311  21.645  14.306   1.440
36809W        W96312  21.610  21.118   0.759
36810W        W96313  23.723  19.280  12.344
36811W        W96314   5.735   8.862   0.283
36812W        W96315   9.662  42.466  13.339
36813W        W96316  33.050  44.414   0.749
36814W        W96317   2.439  10.830   3.172
36815W        W96318   7.388   2.790  13.991
36816W        W96319  30.038   1.344   2.409
36817W        W96320  12.853   0.440   2.319
36818W        W96321  18.168  12.204  11.097
36819W        W96322   8.813  29.987  12.431
36820W        W96323  21.678  30.495   3.704
36821W        W96324  26.978   2.927  13.317
36822W        W96325   8.787  17.600   1.867
36823W        W96326  13.733  35.029  12.511
36824W        W96327  34.953   1.798  12.361
36825W        W96328   5.902  26.532   3.728
36826W        W96329   5.414   2.382   3.709
36827W        W96330  15.683   2.826  12.490
36828W        W96331  16.722   1.805   3.166
36829W        W96332  14.666  28.663  12.096
36830W        W96333  28.015  14.170  12.934
36831W        W96334  39.893   4.910   2.359
36832W        W96335  44.283   2.743  14.031
36833W        W96336  40.444   0.793   2.693
36834W        W96337  43.994  32.456  11.048
36835W        W96338  20.704  23.219   0.786
36836W        W96339  17.716  17.646   2.893
36837W        W96340  42.814  44.497  14.905
36838W        W96341  15.305   6.265  10.529
36839W        W96342  31.548  22.737  11.014
36840W        W96343   0.779  35.547  12.827
36841W        W96344  40.959  44.349  10.075
36842W        W96345  12.853  17.790  11.041
36843W        W96346   9.303  28.439   4.786
36844W        W96347  13.697   4.834  10.517
36845W        W96348  26.491   0.822  12.372
36846W        W96349   9.192  22.028  13.981
36847W        W96350  18.663  16.250   0.304
36848W        W96351   9.654  23.154   0.753
36849W        W96352  12.773   7.877  12.029
36850W        W96353  23.206  41.467  10.562
36851W        W96354  24.681  32.610  14.002
36852W        W96355  14.629  12.315   4.682
36853W        W96356   7.887  20.537  11.890
36854W        W96357   6.874  23.985   2.815
36855W        W96358  31.036  44.465  10.562
36856W        W96359  13.313   5.898  12.993
36857W        W96360  18.653  17.717   2.398
36858W        W96361  34.055  39.448   4.297
36859W        W96362  19.695  37.569   2.826
36860W        W96363  17.662  42.820  12.419
36861W        W96364  44.004  28.573   1.366
36862W        W96365  15.636  18.183   4.613
36863W        W96366  29.110   8.385  10.954
36864W        W96367   7.837  39.854  11.487
36865W        W96368   5.817  21.599  10.575
36866W        W96369   9.204   0.908  10.058
36867W        W96370   5.730   5.250   4.796
36868W        W96371  21.164  37.380   4.256
36869W        W96372  19.564  16.125  10.918
36870W        W96373  16.731   4.381  12.036
36871W        W96374  44.759  21.262   0.906
36872W        W96375  31.957  43.438  11.912
36873W        W96376  18.069  13.740   1.324
36874W        W96377  26.669  43.502   0.345
36875W        W96378  25.580  42.892   0.881
36876W        W96379  33.512   8.205  12.520
36877W        W96380  41.951   2.469   3.725
36878W        W96381  10.816  37.472  14.439
36879W        W96382   4.306  27.502   0.842
36880W        W96383  17.753   7.264   0.784
36881W        W96384  23.714   3.270   9.549
36882W        W96385  17.680  29.027  14.929
36883W        W96386  27.571  18.162  10.920
36884W        W96387   7.819  33.619  11.452
36885W        W96388  37.476  28.617   2.879
36886W        W96389  26.505   2.962  12.034
36887W        W96390  29.968   1.354   0.960
36888W        W96391  30.519  10.325   4.129
36889W        W96392   1.837  12.234  10.580
36890W        W96393  19.745  35.060  11.436
36891W        W96394  35.915  16.680  12.013
36892W        W96395   4.876  32.091   2.189
36893W        W96396  29.559  14.720  10.894
36894W        W96397   8.280   1.395  12.429
36895W        W96398  11.333  30.932   1.735
36896W        W96399   9.173   3.268  10.424
36897W        W96400  36.066  25.546  11.493
36898W        W96401  12.824  23.102  12.844
36899W        W96402  24.506  33.399   2.746
36900W        W96403  41.951  27.104   0.878
36901W        W96404  18.158  43.307  13.376
36902W        W96405  33.109  39.896  14.974
36903W        W96406   4.396  14.171   2.769
36904W        W96407  26.603  19.777  10.462
36905W        W96408   4.318  26.107   4.763
36906W        W96409  14.110   9.244  10.552
36907W        W96410  42.446  30.479   1.369
36908W        W96411  29.454  35.946   2.798
36909W        W96412  29.499  44.475   4.815
36910W        W96413  41.468  40.815  13.815
36911W        W96414  41.460  11.664   4.243
36912W        W96415  25.992  16.767   0.462
36913W        W96416  32.611  27.034  13.014
36914W        W96417  42.981  31.899   4.634
36915W        W96418   4.447  42.026  11.999
36916W        W96419  24.991  17.119  12.067
36917W        W96420  23.718  23.161   1.422
36918W        W96421  36.448   8.261  12.455
36919W        W96422  26.506  43.401   3.731
36920W        W96423  18.085  38.831  11.040
36921W        W96424  27.035  24.115  11.866
36922W        W96425  11.197  17.129   3.714
36923W        W96426   7.386  43.301   3.657
36924W        W96427   6.692  32.964  12.906
36925W        W96428  41.787  28.640   4.771
36926W        W96429   5.257  10.339   2.230
36927W        W96430  33.421  43.479   3.764
36928W        W96431   6.899  28.187  13.013
36929W        W96432  27.096  12.622  10.582
36930W        W96433   1.476  39.442   4.781
36931W        W96434  39.376  21.212   2.348
36932W        W96435  42.966  19.779   0.859
36933W        W96436  13.722  37.389   0.951
36934W        W96437  25.650  40.488   0.868
36935W        W96438  20.056  11.756  13.535
36936W        W96439  22.205  18.222  10.920
36937W        W96440   9.843  31.634   0.894
36938W        W96441   1.893   1.481  14.295
36939W        W96442  37.430  19.656  12.419
36940W        W96443   7.764  41.865   2.880
36941W        W96444  14.340  40.914   4.253
36942W        W96445  14.611  19.652  10.056
36943W        W96446  41.980  21.750   0.455
36944W        W96447  24.093   0.896   1.815
36945W        W96448   4.933  24.603  14.937
36946W        W96449   1.399  25.100   5.206
36947W        W96450  28.959   5.327  13.543
36948W        W96451  18.279  13.228   2.341
36949W        W96452  27.586   9.790  12.879
36950W        W96453  26.083  24.135  13.422
36951W        W96454  15.254  24.033  14.451
36952W        W96455  44.871  22.527   2.301
36953W        W96456  27.621   6.379  13.970
36954W        W96457   6.352  24.204   2.858
36955W        W96458  24.691  13.139   3.774
36956W        W96459  42.514   1.408   1.725
36957W        W96460   6.687   5.828   1.435
36958W        W96461   3.455  26.522   1.347
36959W        W96462  31.982  35.874  13.978
36960W        W96463  25.132  29.170  11.397
36961W        W96464   6.875  17.245  13.390
36962W        W96465  18.273  41.391   4.621
36963W        W96466   2.438  19.770  13.468
36964W        W96467  25.566  29.971  10.542
36965W        W96468  17.147  31.507  14.503
36966W        W96469  18.089  19.159   0.859
36967W        W96470  25.143   0.776  12.571
36968W        W96471  36.856  16.198  14.500
36969W        W96472  33.890  14.277  10.601
36970W        W96473   7.904  32.546  14.818
36971W        W96474   3.903  21.673   3.764
36972W        W96475   3.407   6.346   0.256
36973W        W96476  16.299  22.679  14.293
36974W        W96477  25.508  24.986  12.025
36975W        W96478  38.462   2.776   5.785
36976W        W96479  21.067   5.930   2.397
36977W        W96480  13.225  39.412  12.830
36978W        W96481  22.016  35.576   3.271
36979W        W96482  27.688  28.033   4.334
36980W        W96483   1.831  25.702  13.918
36981W        W96484   5.857  21.059  10.427
36982W        W96485   8.270  28.519  12.562
36983W        W96486   7.868  24.994  14.859
36984W        W96487   2.913   4.401   4.624
36985W        W96488  37.912  20.165   3.642
36986W        W96489  43.510   9.313  11.866
36987W        W96490  41.483   1.758   4.652
36988W        W96491  33.984  33.625   2.284
36989W        W96492  19.653  42.402  10.443
36990W        W96493  35.870  20.687  11.985
36991W        W96494  32.485  42.458  14.789
36992W        W96495  29.048  36.529  11.984
36993W        W96496  38.975  35.575  14.359
36994W        W96497  15.084  30.074   1.896
36995W        W96498  15.741  37.032   1.292
36996W        W96499   4.253  30.060  14.309
36997W        W96500  20.595  20.570   0.411
36998W        W96501  42.465  21.195  10.495
36999W        W96502  39.963   7.764  14.790
37000W        W96503   4.378  40.933   1.360
37001W        W96504  20.533  10.800   1.870
37002W        W96505  38.975  39.345   3.749
37003W        W96506   6.260   3.738  13.384
37004W        W96507  41.407   2.410  12.004
37005W        W96508  23.237  32.541   1.697
37006W        W96509   1.312   6.884   3.223
37007W        W96510  35.521   8.261   1.398
37008W        W96511  24.691  43.797  10.461
37009W        W96512  34.985   9.381   1.791
37010W        W96513  20.758  16.778   2.308
37011W        W96514   3.276  15.325  10.435
37012W        W96515  28.049   3.232   1.341
37013W        W96516  34.590  18.715  13.532
37014W        W96517  31.973  10.790  14.796
37015W        W96518  42.992  13.224  12.346
37016W        W96519   4.367  13.780   0.483
37017W        W96520  35.412   5.296   2.224
37018W        W96521  26.576  26.654   1.710
37019W        W96522  40.526   6.862  10.114
37020W        W96523  19.061  44.802  11.499
37021W        W96524  43.466  17.082   1.272
37022W        W96525  21.114  23.493   2.304
37023W        W96526  15.644  37.921  14.001
37024W        W96527  36.449  32.919   1.247
37025W        W96528  22.696  27.556   0.868
37026W        W96529  44.779  21.650   0.359
37027W        W96530  25.623  29.446   4.251
37028W        W96531  22.018  35.892  13.822
37029W        W96532  44.003  30.929   4.248
37030W        W96533  12.125  23.131   2.714
37031W        W96534  11.318   5.762  14.412
37032W        W96535  27.589  10.869  13.859
37033W        W96536  14.593   5.392  11.055
37034W        W96537  15.628  42.854   3.777
37035W        W96538   5.819  10.188  12.986
37036W        W96539  22.138  22.709   0.381
37037W        W96540  37.465  42.906   4.208
37038W        W96541  17.663  38.375   2.790
37039W        W96542  43.917  21.172  13.348
37040W        W96543  32.400  29.458   2.864
37041W        W96544  31.530   0.799   3.231
37042W        W96545  11.212   9.248  12.894
37043W        W96546  18.769   7.238   2.850
37044W        W96547  23.081   6.783  10.412
37045W        W96548  38.330   4.833   3.629
37046W        W96549  22.171  44.461   0.885
37047W        W96550  37.069  10.772   3.307
37048W        W96551  26.470   3.718   3.762
37049W        W96552  13.640   0.883   4.666
37050W        W96553  30.942  36.096  12.356
37051W        W96554  35.938  35.043   2.751
37052W        W96555  12.670  15.582   3.819
37053W        W96556  39.830   2.240   1.239
37054W        W96557  17.619   6.344   2.304
37055W        W96558  18.546  38.442  12.427
37056W        W96559  43.512  20.265   2.708
37057W        W96560  19.175  36.375   0.321
37058W        W96561  43.921  24.585  13.388
37059W        W96562  19.701  25.090   0.380
37060W        W96563   2.379   4.796   9.978
37061W        W96564   5.367  34.081  14.973
37062W        W96565  23.618   1.931   3.776
37063W        W96566  23.197  18.273   3.732
37064W        W96567   0.783  31.647   3.231
37065W        W96568  44.919  37.847  14.839
37066W        W96569  32.910  30.607   4.760
37067W        W96570  35.370  14.128  13.482
37068W        W96571  31.554  41.347  12.522
37069W        W96572  11.211  26.988  13.455
37070W        W96573  36.975  33.920   1.718
37071W        W96574  43.937   7.382  13.054
37072W        W96575  13.751  14.776   0.375
37073W        W96576  37.541   0.925  11.478
37074W        W96577  36.003   5.843  10.060
37075W        W96578  11.734  23.180  12.006
37076W        W96579  29.588  22.576   1.363
37077W        W96580  23.045  24.215   3.292
37078W        W96581   1.759   1.927  13.884
37079W        W96582  21.677  34.900   4.281
37080W        W96583  31.635  41.414  14.286
37081W        W96584  27.688  35.939  11.437
37082W        W96585  14.744  21.175   0.857
37083W        W96586  27.942  27.046   2.217
37084W        W96587   1.341  18.184   4.265
37085W        W96588   1.869  42.322   4.832
37086W        W96589  31.458  40.311   2.863
37087W        W96590  21.721  16.640   2.226
37088W        W96591  11.716  28.614  12.944
37089W        W96592  20.114   5.320  13.844
37090W        W96593  26.112  27.566  13.971
37091W        W96594  19.625  27.456  12.340
37092W        W96595  37.896  10.787   0.800
37093W        W96596  14.264  23.694  12.880
37094W        W96597  17.754   5.378   0.377
37095W        W96598  19.779  43.315  13.355
37096W        W96599  40.310   4.744   1.215
37097W        W96600  25.127  11.721  13.916
37098W        W96601   5.335   0.276  12.568
37099W        W96602  28.497  34.877   3.165
37100W        W96603  15.119   1.959   3.356
37101W        W96604  12.660  31.621  12.915
37102W        W96605  35.102  18.123   2.408
37103W        W96606   7.674  31.540  14.944
37104W        W96607   1.252   0.824  12.915
37105W        W96608  41.492  16.192   2.892
37106W        W96609  24.601  27.940   0.382
37107W        W96610  41.467   6.685   4.653
37108W        W96611   9.658  13.195  13.965
37109W        W96612  44.299  43.003   0.877
37110W        W96613   5.884  44.277   2.318
37111W        W96614  40.435  28.588  13.905
37112W        W96615   0.856  34.081  11.883
37113W        W96616  42.466  36.987   0.455
37114W        W96617  14.804  31.569  10.613
37115W        W96618  14.774  19.134   1.254
37116W        W96619  10.172  11.273   4.294
37117W        W96620  11.221  15.741  13.036
37118W        W96621  18.564   3.374   0.808
37119W        W96622  43.290  42.943  13.051
37120W        W96623  31.621  14.823   3.186
37121W        W96624  10.845  21.638   2.273
37122W        W96625  14.827  29.548   4.118
37123W        W96626  43.496  27.521  13.521
37124W        W96627  19.084   7.354   0.426
37125W        W96628  31.012  17.768   2.352
37126W        W96629   8.242  26.100  10.538
37127W        W96630  20.588   2.898   5.095
37128W        W96631  19.212  13.271   4.118
37129W        W96632  37.071   3.953   3.256
37130W        W96633  12.222  29.591   2.760
37131W        W96634   7.829  31.492   4.321
37132W        W96635  31.113  11.354  12.034
37133W        W96636   6.908  34.375   1.377
37134W        W96637  43.982   6.923   0.376
37135W        W96638  19.754  19.136   4.821
37136W        W96639   7.689  38.484   2.408
37137W        W96640  21.552  41.922  14.930
37138W        W96641  42.474  27.565   1.764
37139W        W96642  34.598  22.053   1.794
37140W        W96643  24.595  10.343   2.895
37141W        W96644  40.928  18.677   2.797
37142W        W96645  19.569   5.699   2.322
37143W        W96646  35.497   4.806  10.448
37144W        W96647  24.505  13.172   1.774
37145W        W96648  36.909  32.421   0.809
37146W        W96649  44.947   5.271  13.880
37147W        W96650  32.938  19.560  14.025
37148W        W96651  32.895  37.374  11.969
37149W        W96652  16.695   4.354  13.920
37150W        W96653  13.812  21.536  12.050
37151W        W96654   9.705  12.284   1.449
37152W        W96655   9.306   4.299   1.926
37153W        W96656  13.161   8.305  11.979
37154W        W96657  37.379  18.715  11.968
37155W        W96658  16.316  17.611   0.466
37156W        W96659  11.667  34.039   4.665
37157W        W96660   8.799  23.179  11.872
37158W        W96661  24.137  28.648   4.818
37159W        W96662  44.801  34.009   2.741
37160W        W96663  43.486  38.014  13.799
37161W        W96664  42.007  12.139  14.961
37162W        W96665  32.031  12.120   0.293
37163W        W96666   4.208   4.828  10.898
37164W        W96667  35.455   0.950  13.999
37165W        W96668  30.984  34.486  14.024
37166W        W96669   8.284  28.142  13.430
37167W        W96670   7.741   6.193   5.114
37168W        W96671   3.723  43.861  13.039
37169W        W96672   7.174  33.545  11.464
37170W        W96673   5.245  36.847   1.755
37171W        W96674  22.030  14.303   0.775
37172W        W96675   5.789  32.002   0.909
37173W        W96676   2.821  17.092  13.825
37174W        W96677  24.134   1.383  12.882
37175W        W96678  23.717  31.033  13.844
37176W        W96679  18.219  11.855  14.458
37177W        W96680  24.103   2.244   5.197
37178W        W96681  15.196  15.293   0.263
37179W        W96682  15.630  43.475  13.940
37180W        W96683  24.555  43.279   2.356
37181W        W96684  29.091  15.788  13.360
37182W        W96685  13.777   8.774  12.446
37183W        W96686  17.697  34.024  12.985
37184W        W96687  21.262  32.987  14.353
37185W        W96688  42.494  28.575  13.850
37186W        W96689   6.834  41.396   4.774
37187W        W96690  10.147  22.065  14.789
37188W        W96691  39.468  41.514  10.462
37189W        W96692  34.892  24.226   4.653
37190W        W96693  38.513   5.807   3.382
37191W        W96694  37.535  21.098  14.908
37192W        W96695  29.474  23.549  12.879
37193W        W96696  23.135  36.506   2.204
37194W        W96697   9.794  43.294  11.436
37195W        W96698  34.901  30.154   3.639
37196W        W96699  35.886  22.668   5.254
37197W        W96700  20.227  26.118   2.834
37198W        W96701   7.846  39.922  10.526
37199W        W96702  35.968  21.096   4.625
37200W        W96703  13.345  23.490   2.193
37201W        W96704   2.790  24.618   1.318
37202W        W96705   0.394  36.845   4.131
37203W        W96706   0.880   7.355   3.830
37204W        W96707  43.932   0.442   1.742
37205W        W96708  27.576  23.643  10.585
37206W        W96709  16.615  20.529  13.455
37207W        W96710  12.358  19.773  14.812
37208W        W96711   0.263   3.893  13.062
37209W        W96712   9.382  12.755   1.889
37210W        W96713  13.620  25.975   2.355
37211W        W96714  30.056   2.748  13.833
37212W        W96715   1.263  35.514  14.759
37213W        W96716  39.325  24.998  13.005
37214W        W96717   6.344  22.649  11.528
37215W        W96718  40.316  10.808   4.246
37216W        W96719  33.489  10.746   3.655
37217W        W96720  19.263  36.456   4.663
37218W        W96721  36.463  30.613  14.901
37219W        W96722  27.474  40.849   2.343
37220W        W96723  25.967  37.544  10.934
37221W        W96724  12.810  32.929   3.770
37222W        W96725  25.550   5.232   1.916
37223W        W96726  31.916  39.912   4.150
37224W        W96727  25.083   5.409   1.694
37225W        W96728  16.225  23.614   3.837
37226W        W96729  30.962  28.094  12.452
37227W        W96730   7.370  26.021   2.852
37228W        W96731  23.539  43.843  14.865
37229W        W96732   9.184  36.880   4.692
37230W        W96733  20.674   2.264   2.895
37231W        W96734  21.131   3.297   4.206
37232W        W96735  18.274  22.187   2.345
37233W        W96736  42.362  24.689   2.263
37234W        W96737  33.910  22.629  11.006
37235W        W96738   0.273  19.635  13.847
37236W        W96739  26.170   0.425  11.575
37237W        W96740   1.819  11.659  13.938
37238W        W96741  43.342  31.112  11.601
37239W        W96742  19.241   1.770   0.377
37240W        W96743  41.510  14.126   2.241
37241W        W96744   3.843  10.850  13.464
37242W        W96745  34.569  19.169  13.505
37243W        W96746  18.150  10.671   2.731
37244W        W96747  41.391  29.586  11.549
37245W        W96748  35.875  11.207   3.757
37246W        W96749  44.985  37.044  10.559
37247W        W96750  19.722   7.398  10.428
37248W        W96751  32.413  34.378   4.631
37249W        W96752  34.440  24.702  13.462
37250W        W96753  12.757   1.947   2.268
37251W        W96754  29.996  44.379   1.881
37252W        W96755  25.019  19.750   1.903
37253W        W96756   9.342  21.514   0.812
37254W        W96757  18.789  34.369  11.124
37255W        W96758   6.696   5.274   2.345
37256W        W96759  28.930  17.585  13.417
37257W        W96760  14.620  38.992   2.724
37258W        W96761  22.042   0.390  13.309
37259W        W96762  30.162   0.271   4.771
37260W        W96763  41.009  33.127   4.757
37261W        W96764  44.284  44.942  12.828
37262W        W96765  15.091  32.459   3.377
37263W        W96766   8.772  15.822   0.300
37264W        W96767  24.630  35.445  11.939
37265W        W96768  21.650  43.325   3.811
37266W        W96769  25.136  32.088   0.832
37267W        W96770   5.821  40.877   0.387
37268W        W96771   4.793   0.307   2.695
37269W        W96772  40.418  34.396   1.899
37270W        W96773  10.694  26.699   4.279
37271W        W96774  17.701  17.775  13.987
37272W        W96775  44.969   3.303  11.444
37273W        W96776  34.074  11.296  13.471
37274W        W96777  20.151  12.257   1.245
37275W        W96778  32.570   8.747  10.898
37276W        W96779  24.158  24.024   4.707
37277W        W96780   8.370   8.713   4.639
37278W        W96781  19.622  24.554  12.048
37279W        W96782  39.460  44.949  13.829
37280W        W96783  29.531   5.755  13.320
37281W        W96784  30.461  27.640   2.684
37282W        W96785   3.867  20.614   2.742
37283W        W96786  40.919   6.764   2.676
37284W        W96787  24.040   9.681   0.866
37285W        W96788  26.153  37.512   4.728
37286W        W96789  21.637  37.486   3.197
37287W        W96790  21.599  41.913   0.312
37288W        W96791  21.745  14.728  12.349
37289W        W96792  24.682  18.596  11.587
37290W        W96793   4.403  36.350   2.677
37291W        W96794  42.821  13.666   0.432
37292W        W96795  35.000  39.436  14.935
37293W        W96796  12.333  31.130   5.725
37294W        W96797  41.532  37.514   4.790
37295W        W96798  33.592  20.750  14.766
37296W        W96799  23.112  43.505  12.496
37297W        W96800  25.208  12.831  12.840
37298W        W96801  22.704   5.716   0.384
37299W        W96802  44.828  17.264   0.863
37300W        W96803  43.491  38.440  13.368
37301W        W96804   6.241  33.515  10.914
37302W        W96805  40.452   2.464  12.938
37303W        W96806  44.261   1.808  13.418
37304W        W96807  31.112  17.767  14.841
37305W        W96808  42.974  37.482  14.398
37306W        W96809  37.422   8.370   2.416
37307W        W96810   5.283  14.804   1.776
37308W        W96811   3.888  12.182  13.360
37309W        W96812  17.279   3.861   3.853
37310W        W96813  24.489  25.144  13.479
37311W        W96814  23.173  16.155  13.462
37312W        W96815  11.763   8.170  14.895
37313W        W96816  36.521  29.960  14.512
37314W        W96817  41.471  27.622  13.949
37315W        W96818  44.309  25.574   0.768
37316W        W96819   3.224  22.080   1.398
37317W        W96820  19.272  30.134   3.701
37318W        W96821  19.666   9.746  12.468
37319W        W96822  40.997  25.011  12.997
37320W        W96823  24.628  44.852   1.301
37321W        W96824  14.604   3.273   5.288
37322W        W96825   3.433  39.490   2.319
37323W        W96826  39.853  40.530  14.956
37324W        W96827  34.455  32.015   4.135
37325W        W96828  30.513  17.259  10.940
37326W        W96829  12.292  20.152   0.300
37327W        W96830  36.857  13.156   3.771
37328W        W96831  25.150  14.805   1.742
37329W        W96832  14.158  14.791   2.348
37330W        W96833   1.777  43.284   0.444
37331W        W96834  41.887  36.431   1.371
37332W        W96835  31.100  12.735   4.151
37333W        W96836   7.696  28.060  14.991
37334W        W96837  39.340  13.635   3.696
37335W        W96838  15.640  29.498  13.990
37336W        W96839  33.941  10.864  12.068
37337W        W96840  19.222  24.031   0.951
37338W        W96841  38.455  33.957  13.892
37339W        W96842  42.348   5.309   4.738
37340W        W96843  13.742  43.466  10.540
37341W        W96844   2.855  38.474  10.503
37342W        W96845  42.440   7.849  13.499
37343W        W96846  10.812  25.650   0.949
37344W        W96847  22.576  15.231  12.039
37345W        W96848   7.747  34.997   4.287
37346W        W96849  41.998  17.251  12.971
37347W        W96850  40.982  32.130   1.378
37348W        W96851  11.867  44.334  11.550
37349W        W96852  28.080  11.693  12.510
37350W        W96853  23.212  34.540  10.640
37351W        W96854  34.449  19.658  11.394
37352W        W96855  20.203  43.890  11.009
37353W        W96856  28.504  38.466   1.778
37354W        W96857  27.645   9.788  13.462
37355W        W96858  29.101  16.785  14.824
37356W        W96859  36.981  14.118  11.044
37357W        W96860  42.883  32.623   4.706
37358W        W96861   9.185  35.002  14.994
37359W        W96862  38.382  25.088  13.837
37360W        W96863   9.342  27.474  10.474
37361W        W96864  13.313  42.327  11.605
37362W        W96865  44.497  30.513   5.123
37363W        W96866  32.997   7.172  12.872
37364W        W96867  32.568  29.591   4.232
37365W        W96868  35.917   5.836  14.008
37366W        W96869   6.218   2.724  10.967
37367W        W96870  34.550  44.971  12.566
37368W        W96871  20.056  10.838  13.839
37369W        W96872  38.989  33.876  13.370
37370W        W96873   2.435   4.927  11.121
37371W        W96874  15.763  37.872  13.492
37372W        W96875  20.150  30.944  13.848
37373W        W96876  24.129  41.821   0.292
37374W        W96877  42.289  39.443   4.775
37375W        W96878   8.169  28.081   3.833
37376W        W96879   6.724  42.512  13.001
37377W        W96880  33.438  40.381  11.492
37378W        W96881  11.839  19.283  12.032
37379W        W96882  12.701  34.536   3.213
37380W        W96883  32.951  30.640   1.857
37381W        W96884   9.718  32.494  10.890
37382W        W96885   9.281  18.728   3.190
37383W        W96886  15.808  26.043   2.902
37384W        W96887  37.499   2.801   2.842
37385W        W96888   4.813  18.075   2.221
37386W        W96889  39.958  18.658  11.898
37387W        W96890  17.708   2.771   4.811
37388W        W96891  16.261  17.179   2.744
37389W        W96892   4.347  38.547  10.895
37390W        W96893  43.408  13.134  11.371
37391W        W96894   5.729  36.945  13.499
37392W        W96895   0.414  32.908   4.315
37393W        W96896   3.952  16.716  12.378
37394W        W96897  26.676   2.924  12.922
37395W        W96898  38.367  34.374   4.757
37396W        W96899  38.482  38.030  13.418
37397W        W96900  20.188  29.960   4.662
37398W        W96901  28.615   2.909   0.827
37399W        W96902  22.522  14.741   3.830
37400W        W96903  12.630  28.494   4.650
37401W        W96904  44.913   0.968  14.292
37402W        W96905  10.820  37.579  10.489
37403W        W96906  13.180   7.186  14.493
37404W        W96907   8.202  36.052   2.738
37405W        W96908  38.538  12.117  11.887
37406W        W96909  27.150  32.916  10.407
37407W        W96910  17.244  41.954  10.643
37408W        W96911  18.225  11.754  10.467
37409W        W96912  32.557  15.719   2.271
37410W        W96913  38.447  42.823   3.715
37411W        W96914  31.988  33.407   1.848
37412W        W96915  21.158   6.756   3.734
37413W        W96916  42.956   9.197   1.788
37414W        W96917  29.642   4.342  11.033
37415W        W96918  22.746   9.751  11.480
37416W        W96919   7.880   0.280  14.809
37417W        W96920  10.239  10.795   2.704
37418W        W96921   0.875  35.535  14.819
37419W        W96922  39.023  24.069  14.973
37420W        W96923   8.867  14.331   1.905
37421W        W96924  12.199   6.716   4.825
37422W        W96925  24.033  11.687   2.368
37423W        W96926  21.602  32.102   1.368
37424W        W96927   3.315  19.649  14.462
37425W        W96928  22.603   8.362   1.223
37426W        W96929   2.883  27.526  14.786
37427W        W96930   6.410  37.523  10.538
37428W        W96931  37.854  31.936  14.853
37429W        W96932  43.825  25.584   3.255
37430W        W96933  40.923  32.629   4.213
37431W        W96934  22.072  15.123   0.834
37432W        W96935   2.754  28.518   0.415
37433W        W96936  43.384   7.779   9.625
37434W        W96937  39.549  11.649  10.445
37435W        W96938  22.178  42.322   3.204
37436W        W96939   2.767  44.980   1.262
37437W        W96940  17.305  41.811   1.383
37438W        W96941  26.996  25.635  12.943
37439W        W96942  35.402  38.501  14.983
37440W        W96943   0.267  21.641  10.428
37441W        W96944  34.598   1.953  14.317
37442W        W96945  22.618  44.003   2.362
37443W        W96946   8.876  12.167  13.445
37444W        W96947  41.400  20.725   4.833
37445W        W96948  38.820  16.727   3.378
37446W        W96949  16.780  14.689   1.222
37447W        W96950  34.370   2.745  10.463
37448W        W96951   9.887   6.389  11.387
37449W        W96952   6.912  43.401   3.296
37450W        W96953  21.648  24.519   1.383
37451W        W96954  17.147  24.521  12.579
37452W        W96955  43.412  44.889   4.831
37453W        W96956  44.878  21.754  10.996
37454W        W96957  12.272  26.468  10.616
37455W        W96958  19.119  37.081   3.321
37456W        W96959  32.894   4.249   2.278
37457W        W96960  28.463  32.944   3.280
37458W        W96961  31.492   6.730  11.950
37459W        W96962  39.826   1.428   2.355
37460W        W96963  17.284  18.150  14.953
37461W        W96964  42.822  17.123   2.282
37462W        W96965  12.776  44.974  12.993
37463W        W96966  22.712  27.518  11.915
37464W        W96967   5.895  13.792  10.617
37465W        W96968  16.788  13.339  14.409
37466W        W96969   3.838   1.894  12.038
37467W        W96970  21.577   2.234   2.809
37468W        W96971  39.947  17.757  10.902
37469W        W96972  26.069  16.293  14.883
37470W        W96973  28.581  35.025  10.496
37471W        W96974   4.226  40.402  12.464
37472W        W96975   2.826   9.735   1.426
37473W        W96976  10.799  42.992  13.411
37474W        W96977  38.841  36.979  12.075
37475W        W96978  25.990  42.488  12.450
37476W        W96979   9.879  20.262   3.807
37477W        W96980  17.800  12.336  10.957
37478W        W96981  34.052   4.880   2.734
37479W        W96982  35.101  28.057   2.229
37480W        W96983  16.106  25.676   1.306
37481W        W96984   8.170  36.591   3.148
37482W        W96985  34.454  22.071   4.298
37483W        W96986  43.945   5.928  14.892
37484W        W96987  10.663  32.094  10.054
37485W        W96988  16.624   3.248  11.388
37486W        W96989  27.940  27.100  12.882
37487W        W96990  22.067  16.145  13.836
37488W        W96991  26.533  20.136  12.972
37489W        W96992  43.840  37.421  12.466
37490W        W96993  35.947  14.188  14.931
37491W        W96994   0.428   8.800   3.347
37492W        W96995  27.674  40.824  12.863
37493W        W96996  27.136   0.915   1.889
37494W        W96997  14.636  33.606  13.483
37495W        W96998  42.516  31.003   3.783
37496W        W96999  17.709   4.378  13.861
37497W        W97000  29.031   3.853   1.705
37498W        W97001  33.425  43.019   4.239
37499W        W97002  30.091  25.192  12.846
37500W        W97003  34.537  31.102   0.809
37501W        W97004  20.086  26.666   4.732
37502W        W97005  22.548  33.886  11.113
37503W        W97006  42.805  13.793   0.859
37504W        W97007   7.822   4.351  12.458
37505W        W97008   2.963  37.045  11.508
37506W        W97009  38.897  15.767  13.473
37507W        W97010  34.378  15.161  13.385
37508W        W97011  35.034  19.602  10.093
37509W        W97012   6.844  28.547  12.885
37510W        W97013  34.939  18.169  13.817
37511W        W97014  39.315   8.204   0.352
37512W        W97015  43.318  22.141   3.717
37513W        W97016  24.492  38.453  12.479
37514W        W97017  33.555  43.814   3.702
37515W        W97018  23.641  34.909  12.944
37516W        W97019   3.857  31.555  13.948
37517W        W97020  17.711  35.385  10.596
37518W        W97021  21.203  27.546  14.791
37519W        W97022  22.582  27.454  14.511
37520W        W97023  43.935  15.112  11.861
37521W        W97024  32.470   8.732  14.796
37522W        W97025  41.925  44.974  11.387
37523W        W97026  27.593  16.138  10.959
37524W        W97027  22.240  44.831   3.752
37525W        W97028   6.827  31.542  14.855
37526W        W97029  16.267  14.590   3.292
37527W        W97030  20.038  30.594   2.755
37528W        W97031   6.216  35.505  13.533
37529W        W97032   0.865  22.236  13.005
37530W        W97033  32.005  36.524   0.785
37531W        W97034  32.569  42.355   1.867
37532W        W97035  37.443  13.276  12.891
37533W        W97036  23.993  13.158   0.772
37534W        W97037  24.155   1.901   4.673
37535W        W97038  10.209  25.514   1.396
37536W        W97039  25.119  39.515   1.344
37537W        W97040  12.176   3.931  14.345
37538W        W97041  16.574   1.910  14.464
37539W        W97042  21.176  33.486  10.899
37540W        W97043  13.831  37.987  14.998
37541W        W97044  34.946  27.556   4.273
37542W        W97045  21.611  39.518  10.486
37543W        W97046  36.916  32.022  14.877
37544W        W97047   3.457   6.321  13.525
37545W        W97048  17.609   1.901  12.845
37546W        W97049  25.468  40.949   1.701
37547W        W97050  35.551  42.519  13.343
37548W        W97051  33.955   3.362   0.285
37549W        W97052  42.433  23.698  13.817
37550W        W97053  18.763  30.094  14.763
37551W        W97054  39.331  33.565   3.729
37552W        W97055  22.596  17.595   0.758
37553W        W97056  27.150  22.123   0.360
37554W        W97057  36.056  12.292   4.724
37555W        W97058  40.818   2.939  10.979
37556W        W97059  13.822  13.232  10.907
37557W        W97060  32.518  28.524  14.405
37558W        W97061  10.200   2.956  11.006
37559W        W97062  10.657  28.463   0.902
37560W        W97063  32.139  32.980   0.440
37561W        W97064  19.617  12.176   4.832
37562W        W97065  29.633  40.303  10.564
37563W        W97066   9.821  22.702  13.488
37564W        W97067  29.079  26.099  10.916
37565W        W97068   3.715  35.963  14.346
37566W        W97069   7.408  26.203   4.212
37567W        W97070  36.940  16.630  14.880
37568W        W97071  27.116   3.401   3.163
37569W        W97072  35.943  11.757   2.805
37570W        W97073  22.583  23.026  10.154
37571W        W97074  27.457   6.898   0.733
37572W        W97075  31.089  28.486  14.422
37573W        W97076  22.244  21.585  10.543
37574W        W97077   3.764  42.347  14.783
37575W        W97078  42.322   3.348   1.339
37576W        W97079  27.607   1.779   1.887
37577W        W97080  37.345  21.562  11.589
37578W        W97081  39.348  42.995   5.126
37579W        W97082  39.363  15.298  10.440
37580W        W97083  12.630   1.873   4.628
37581W        W97084  12.314  36.983  12.408
37582W        W97085  32.442  43.977  10.892
37583W        W97086  44.364  34.522   2.187
37584W        W97087   4.289  23.151  14.959
37585W        W97088  32.993  29.927   0.889
37586W        W97089  23.493  10.661  10.536
37587W        W97090  41.409  22.580  13.492
37588W        W97091  27.523   5.777   1.716
37589W        W97092  24.683  24.188   1.303
37590W        W97093  38.508   8.699   0.366
37591W        W97094  20.722   0.484   2.380
37592W        W97095  40.537  32.049   0.773
37593W        W97096  28.983  28.605   1.261
37594W        W97097  22.527  16.609   3.661
37595W        W97098   9.868  16.308   0.820
37596W        W97099  13.737  24.491   4.246
37597W        W97100  14.663  41.498  10.899
37598W        W97101  14.644  42.438   0.936
37599W        W97102  19.774   9.345  13.926
37600W        W97103   1.257   5.281  14.839
37601W        W97104  34.382  27.112  12.002
37602W        W97105  33.530  11.687  12.437
37603W        W97106  32.136  19.089  11.464
37604W        W97107  23.671  26.575   4.645
37605W        W97108  16.627  10.687   2.182
37606W        W97109  12.836  33.013  13.986
37607W        W97110   5.929  31.092   4.796
37608W        W97111   7.379  38.430   3.203
37609W        W97112  11.806  10.235   2.190
37610W        W97113  27.528  23.642   2.692
37611W        W97114  23.609  17.743  14.859
37612W        W97115  42.385  37.988   2.831
37613W        W97116  30.448  23.177   2.788
37614W        W97117  43.346  25.178  10.115
37615W        W97118  44.329  14.635   0.918
37616W        W97119  38.824  16.210   2.385
37617W        W97120   5.338  36.848   4.708
37618W        W97121  42.945  34.926   2.682
37619W        W97122  28.458  13.610   4.215
37620W        W97123  17.168  40.015   2.760
37621W        W97124  18.635  34.911  12.024
37622W        W97125  22.194  36.978  13.449
37623W        W97126   2.758   2.724  11.946
37624W        W97127  32.518  12.677  12.482
37625W        W97128   8.823  11.717  12.987
37626W        W97129  42.308  44.972   4.313
37627W        W97130   9.390  29.612   2.826
37628W        W97131  35.980  13.788  12.086
37629W        W97132  11.676  35.857   1.423
37630W        W97133  29.570  28.438   1.345
37631W        W97134  22.182  40.375   0.967
37632W        W97135   3.804  38.847  12.056
37633W        W97136   3.764   8.778   4.770
37634W        W97137  37.953   5.715   1.888
37635W        W97138  39.439  22.199   4.175
37636W        W97139  11.305  16.118   1.725
37637W        W97140   5.746  18.664   1.713
37638W        W97141  44.400  11.310  11.994
37639W        W97142  32.527  12.687  14.424
37640W        W97143   5.278  17.206  12.447
37641W        W97144  10.667  44.842   1.812
37642W        W97145  18.718  25.576  14.986
37643W        W97146  35.367  24.985   0.380
37644W        W97147  43.277  38.972  12.059
37645W        W97148  42.963   1.289   4.627
37646W        W97149  11.791  31.913   0.297
37647W        W97150   4.863  36.473  11.533
37648W        W97151   2.814  41.800   3.844
37649W        W97152   8.656  28.521   2.665
37650W        W97153  11.250  37.872  12.470
37651W        W97154  10.864  26.699  11.502
37652W        W97155  32.555  29.647  13.343
37653W        W97156  16.200  16.186  13.481
37654W        W97157  36.424  10.223   2.898
37655W        W97158  13.624  23.596   0.825
37656W        W97159  34.916   1.422  13.307
37657W        W97160   5.431  35.503   0.313
37658W        W97161   0.835  41.865  12.352
37659W        W97162  23.020   0.886   0.807
37660W        W97163  26.540  13.217   3.801
37661W        W97164  24.010  23.684   3.369
37662W        W97165  28.522   7.887  14.957
37663W        W97166  25.658  15.796  13.928
37664W        W97167  33.392  40.513  14.903
37665W        W97168  32.624  15.731   1.311
37666W        W97169  33.582   8.329  10.559
37667W        W97170  10.263   8.188   2.363
37668W        W97171  29.051  43.458  12.415
37669W        W97172  11.670  24.713  12.408
37670W        W97173  16.645   9.875   0.776
37671W        W97174  11.230   1.401   4.618
37672W        W97175  28.171  29.520   3.328
37673W        W97176  44.271  43.479   9.985
37674W        W97177  40.876  37.572  12.059
37675W        W97178  41.947  40.046  12.423
37676W        W97179  31.073  42.958   1.424
37677W        W97180  35.941  10.156   1.730
37678W        W97181  25.471  21.045  13.807
37679W        W97182  23.122  28.985   0.820
37680W        W97183   2.884   0.335   3.228
37681W        W97184  41.382  44.806  12.854
37682W        W97185  31.515  25.587  10.434
37683W        W97186  23.553   1.342  14.371
37684W        W97187  29.169   7.245   0.261
37685W        W97188  36.057  31.602   3.722
37686W        W97189   7.881  13.199   1.335
37687W        W97190  10.640  25.497  11.403
37688W        W97191  17.064  28.582   1.316
37689W        W97192  13.209  17.140  14.810
37690W        W97193  39.346   1.915   2.712
37691W        W97194  22.648  16.222   1.890
37692W        W97195  24.176   8.859  11.090
37693W        W97196  43.327  13.313  14.805
37694W        W97197  22.615  17.652   2.323
37695W        W97198  12.227  21.056   2.854
37696W        W97199  16.609  22.132  12.444
37697W        W97200  32.452  19.088  14.814
37698W        W97201   7.758  19.547   3.323
37699W        W97202  23.223  26.673   0.313
37700W        W97203  32.415  42.792   1.845
37701W        W97204  21.194   5.758   4.288
37702W        W97205   5.924  43.836   2.870
37703W        W97206   3.359  22.148   4.698
37704W        W97207  19.772  28.435   2.187
37705W        W97208  42.948  37.908  11.124
37706W        W97209  40.003  21.522   2.805
37707W        W97210  36.449  34.546  14.426
37708W        W97211   6.704   7.338  12.524
37709W        W97212  27.960  29.622   0.813
37710W        W97213  13.643  36.094  13.811
37711W        W97214  31.940   3.890  11.467
37712W        W97215  15.107   8.173   3.852
37713W        W97216  42.929  42.005  10.547
37714W        W97217  38.348  13.315  12.540
37715W        W97218  29.964  40.886   4.681
37716W        W97219  24.150  21.619   4.301
37717W        W97220   6.291  37.361  14.960
37718W        W97221   2.469  11.333  14.329
37719W        W97222  43.394   9.383  14.508
37720W        W97223   3.884  26.154   0.804
37721W        W97224   3.413  32.573  10.971
37722W        W97225   8.882  29.609  14.958
37723W        W97226  21.680  14.720  11.073
37724W        W97227  18.286   4.361  14.881
37725W        W97228  36.018  20.224   1.861
37726W        W97229  42.370  30.481  10.894
37727W        W97230  16.778  40.438  10.591
37728W        W97231  17.194  42.944   1.758
37729W        W97232  26.992  18.132  14.919
37730W        W97233  31.105  34.087  10.998
37731W        W97234  17.738  39.903  14.944
37732W        W97235  11.704  20.069  14.863
37733W        W97236  17.621   6.217  11.520
37734W        W97237  44.814   8.246  11.104
37735W        W97238  40.028  24.522   1.365
37736W        W97239  35.530  10.684   2.401
37737W        W97240  11.738  26.580   1.739
37738W        W97241  12.826   2.458   3.212
37739W        W97242  20.662  13.240   4.812
37740W        W97243   7.413  28.061  11.495
37741W        W97244  29.929  26.481   3.242
37742W        W97245  41.923  22.039   3.867
37743W        W97246   9.274   2.335  13.318
37744W        W97247  14.268  44.781  14.290
37745W        W97248  44.895  14.107  13.467
37746W        W97249  16.718  11.853  12.007
37747W        W97250  26.542  34.054  13.060
37748W        W97251   3.278  21.078  13.036
37749W        W97252  11.659  18.769   4.127
37750W        W97253  39.861  31.049  14.811
37751W        W97254   9.847  28.568   3.182
37752W        W97255  40.006  28.515  14.982
37753W        W97256  36.047   2.923   4.280
37754W        W97257   0.290  27.691  13.855
37755W        W97258  37.027  40.822   0.358
37756W        W97259  24.190  17.149   0.293
37757W        W97260  34.558  43.933  13.849
37758W        W97261  33.035  16.748  12.350
37759W        W97262  10.823  19.213  13.963
37760W        W97263   6.275   0.836  14.791
37761W        W97264   0.764  19.246   5.567
37762W        W97265  33.953   6.204   9.987
37763W        W97266   6.855  20.639   1.881
37764W        W97267  17.184  15.109   1.899
37765W        W97268  22.064  32.567  11.572
37766W        W97269   8.681  28.949   3.219
37767W        W97270  16.280  39.908  11.594
37768W        W97271  25.183  29.605   2.857
37769W        W97272   6.735  34.930  10.597
37770W        W97273  18.284  22.686   1.236
37771W        W97274  12.290  21.195   3.781
37772W        W97275  30.498   9.861   3.200
37773W        W97276  25.172  43.890  14.018
37774W        W97277  31.929   3.271   5.192
37775W        W97278   1.337  20.071   3.788
37776W        W97279  16.306  36.378   4.766
37777W        W97280  24.189   8.232  10.506
37778W        W97281   3.771  37.887   0.326
37779W        W97282  10.724  15.698   3.200
37780W        W97283  32.950  42.373   3.750
37781W        W97284  41.925  12.293   0.793
37782W        W97285  19.164  41.853   3.259
37783W        W97286  19.141  36.967   0.378
37784W        W97287   2.418  24.551  12.392
37785W        W97288   7.746   7.728  11.900
37786W        W97289  18.247  18.210   4.792
37787W        W97290  40.014  42.449   4.659
37788W        W97291  17.077  39.002   5.228
37789W        W97292  26.617  10.357   3.221
37790W        W97293  43.966  17.701   0.277
37791W        W97294  24.215   1.738   2.804
37792W        W97295   4.286  39.009   2.780
37793W        W97296  28.003  20.209  10.601
37794W        W97297  12.213  41.826   0.336
37795W        W97298  26.547  35.486   1.313
37796W        W97299  36.845  19.197   1.369
37797W        W97300  22.243  37.922  12.960
37798W        W97301  41.392  20.546  13.538
37799W        W97302  37.492  35.959  11.117
37800W        W97303  15.639  11.646  10.957
37801W        W97304  12.748  22.071   2.348
37802W        W97305  12.317  29.647   2.388
37803W        W97306   0.903  17.684  14.281
37804W        W97307  16.619  20.069   4.158
37805W        W97308  20.074  27.583  14.779
37806W        W97309  10.250  16.296   2.798
37807W        W97310  33.545  25.076   5.165
37808W        W97311  15.305   9.180  13.928
37809W        W97312  12.192  41.033   1.916
37810W        W97313  40.492  13.178   3.689
37811W        W97314  23.620  13.784   4.314
37812W        W97315  18.082  16.579  11.117
37813W        W97316   3.451  32.137  13.419
37814W        W97317  19.688  12.328  11.439
37815W        W97318  32.127  28.132   3.198
37816W        W97319   1.416  18.058  13.826
37817W        W97320  36.424  16.165   1.376
37818W        W97321  13.171   0.933  14.893
37819W        W97322  35.462   4.930   4.270
37820W        W97323   3.939  13.767  14.493
37821W        W97324   1.896  26.069   0.949
37822W        W97325   7.241  10.246  12.046
37823W        W97326  21.177  23.218   0.922
37824W        W97327  26.479  41.824   0.337
37825W        W97328  14.801  13.110   0.735
37826W        W97329   0.846  14.138  11.015
37827W        W97330  39.066  42.428  12.832
37828W        W97331   6.708  39.945  11.461
37829W        W97332  42.291  11.679  10.593
37830W        W97333   4.929  42.839  13.996
37831W        W97334  18.649  23.111   3.252
37832W        W97335  14.224   0.289   0.354
37833W        W97336  26.572  37.394  14.005
37834W        W97337  14.263  42.301   3.679
37835W        W97338  16.798  34.080  10.946
37836W        W97339  13.824  12.139   2.349
37837W        W97340  36.914  23.226  11.430
37838W        W97341  18.161  33.907  14.975
37839W        W97342  40.945  41.527   0.274
37840W        W97343  39.060  22.037   0.341
37841W        W97344  44.426  33.004  12.525
37842W        W97345   4.815  25.617   0.482
37843W        W97346  30.998  30.977   0.873
37844W        W97347  37.966  21.237  12.026
37845W        W97348   1.442  11.705  11.372
37846W        W97349  16.118  24.993  10.513
37847W        W97350  38.881  16.167  14.872
37848W        W97351  16.631  14.664  12.428
37849W        W97352  19.775  29.660   4.817
37850W        W97353  24.226  41.014   4.332
37851W        W97354  41.396  37.839  12.361
37852W        W97355  27.191  13.221   3.734
37853W        W97356  20.579  29.510  12.889
37854W        W97357  17.259  39.915  13.819
37855W        W97358  29.158  24.669  13.872
37856W        W97359   8.207  13.616  10.486
37857W        W97360  40.043   9.264  10.887
37858W        W97361   1.815   5.361  10.907
37859W        W97362  41.443  25.575  11.911
37860W        W97363   8.342  15.776  11.997
37861W        W97364  20.156  12.228  11.021
37862W        W97365   2.856  19.112   0.873
37863W        W97366  27.620  10.150   3.783
37864W        W97367  32.441  13.313  14.890
37865W        W97368  39.418  17.099   2.860
37866W        W97369   5.342   3.455   4.309
37867W        W97370  12.239  14.674  10.541
37868W        W97371  29.501  39.450  11.905
37869W        W97372  37.882  42.371  13.975
37870W        W97373  32.453  35.554  10.899
37871W        W97374   9.359  28.486  14.917
37872W        W97375  36.028  14.833   2.714
37873W        W97376  23.066  33.943  11.054
37874W        W97377  27.170  36.572   4.748
37875W        W97378  38.887  38.507  12.405
37876W        W97379  17.079  17.675   3.678
37877W        W97380   5.826  28.092  13.317
37878W        W97381  29.496  21.243  11.408
37879W        W97382   3.834  27.607   1.326
37880W        W97383   7.822  43.014  14.297
37881W        W97384   2.250   5.425  14.852
37882W        W97385   6.847  28.620  10.564
37883W        W97386  14.822  13.213  12.870
37884W        W97387   1.874  24.686  13.384
37885W        W97388  40.950  30.938   0.365
37886W        W97389  29.551  27.560  10.538
37887W        W97390  30.035   7.334   0.880
37888W        W97391  40.488  37.950   0.483
37889W        W97392  31.547  43.503   3.824
37890W        W97393  39.374  26.127  11.439
37891W        W97394  30.589   8.254   1.343
37892W        W97395  17.674  30.971  13.830
37893W        W97396  14.705  33.056  11.393
37894W        W97397  18.666  24.116   1.820
37895W        W97398  38.828  38.504   1.271
37896W        W97399   0.324  15.098  11.915
37897W        W97400  18.157  22.523   0.753
37898W        W97401   9.345  16.164  14.006
37899W        W97402  22.551  10.164  12.563
37900W        W97403  20.140  21.170  10.023
37901W        W97404   2.860  18.550   1.725
37902W        W97405  42.031  31.437  10.473
37903W        W97406  23.579  36.444   1.813
37904W        W97407  40.398   1.779   3.237
37905W        W97408  10.752  24.002  10.506
37906W        W97409  33.057  22.635  12.981
37907W        W97410   3.905   0.911   0.740
37908W        W97411  35.517   8.838   1.309
37909W        W97412   7.834  20.128  14.799
37910W        W97413  29.429   1.278  12.508
37911W        W97414   1.840  43.989   3.146
37912W        W97415  12.250  40.466   1.443
37913W        W97416  12.818  32.920   1.746
37914W        W97417   1.463  37.441  11.393
37915W        W97418   9.689   0.787   3.370
37916W        W97419  40.832  13.833   1.919
37917W        W97420  24.537   4.870   3.205
37918W        W97421  25.076  12.718   0.320
37919W        W97422  32.417  14.666   2.697
37920W        W97423   1.382   7.253  14.762
37921W        W97424  26.958  32.999   0.252
37922W        W97425  20.239  15.710   5.222
37923W        W97426  19.749  20.529  10.633
37924W        W97427  15.175  38.046  12.406
37925W        W97428  32.611  38.857  14.510
37926W        W97429  41.305  13.329   4.224
37927W        W97430  21.583   4.840  13.461
37928W        W97431  10.154  10.305  10.643
37929W        W97432  42.316  43.939   3.731
37930W        W97433  23.057  32.400   2.739
37931W        W97434  28.179  18.091   1.363
37932W        W97435  27.988  21.030  14.326
37933W        W97436  40.494   3.362   3.703
37934W        W97437   7.896  13.649  11.072
37935W        W97438  36.412  21.519  13.813
37936W        W97439  22.565  12.152  12.009
37937W        W97440  40.036   0.782   4.337
37938W        W97441  42.311  26.014  10.580
37939W        W97442  20.029  10.719   2.402
37940W        W97443  20.236   9.719   0.778
37941W        W97444  10.374  36.580   5.141
37942W        W97445   4.253   4.750  11.439
37943W        W97446  20.569  26.632   4.233
37944W        W97447   9.826   2.794  14.872
37945W        W97448  44.292   9.184  11.862
37946W        W97449   3.879  40.853   1.890
37947W        W97450  18.581  19.065   1.725
37948W        W97451  24.069   2.425   0.875
37949W        W97452  23.173  10.810   0.789
37950W        W97453   5.843  28.547   3.378
37951W        W97454  43.443  10.779  14.876
37952W        W97455   2.925   5.357   1.437
37953W        W97456  35.867  19.050   4.200
37954W        W97457  34.380  20.717  10.499
37955W        W97458  20.670  39.934   2.326
37956W        W97459   2.305  41.016   3.376
37957W        W97460   2.285  20.545   3.368
37958W        W97461  25.688  29.601  13.036
37959W        W97462  10.187  22.014  10.891
37960W        W97463  12.221  22.553   1.316
37961W        W97464   0.807  42.807   4.675
37962W        W97465  20.732   3.842   9.459
37963W        W97466  15.811  29.034  11.439
37964W        W97467  23.993  35.565   2.185
37965W        W97468   9.764  38.874   3.655
37966W        W97469   2.379  11.704  10.495
37967W        W97470  42.369  18.105  12.464
37968W        W97471  18.281  27.946   2.312
37969W        W97472  18.130  23.715   4.831
37970W        W97473  21.194  32.050   2.271
37971W        W97474   0.792   1.467   0.318
37972W        W97475  37.458   9.270   1.289
37973W        W97476  10.298   0.959   3.345
37974W        W97477  20.705  16.243  14.489
37975W        W97478   4.395  10.843   3.335
37976W        W97479   2.954  41.382  13.810
37977W        W97480  36.095  36.976  10.493
37978W        W97481  20.652  25.973  14.972
37979W        W97482  12.180  28.034  13.816
37980W        W97483   4.216  34.504   4.335
37981W        W97484  35.490  44.951  12.933
37982W        W97485  17.284  26.496   3.382
37983W        W97486  42.467   1.460  11.980
37984W        W97487  40.910   7.885  12.925
37985W        W97488   4.333  21.712   4.663
37986W        W97489  11.656   8.801  10.159
37987W        W97490   5.704   8.682  14.773
37988W        W97491  40.459  44.822   3.183
37989W        W97492  17.561   8.697  10.911
37990W        W97493  11.224  25.666   2.178
37991W        W97494   8.384  29.659  12.383
37992W        W97495  25.058   0.873  14.775
37993W        W97496  37.576  25.191   0.800
37994W        W97497   8.897  17.639  13.045
37995W        W97498  38.378  25.079   1.742
37996W        W97499  30.942  26.466   1.228
37997W        W97500  26.005   4.815  14.909
37998W        W97501  13.190  11.229  14.489
37999W        W97502  29.043  16.658   2.785
38000W        W97503  44.354  31.125   0.478
38001W        W97504  36.458  13.138  13.417
38002W        W97505  25.627  14.674   1.809
38003W        W97506  22.607   5.893   1.765
38004W        W97507  36.074  27.613   0.453
38005W        W97508   4.305   7.220   3.821
38006W        W97509   9.332  39.986   4.777
38007W        W97510  11.291  18.772   1.705
38008W        W97511  39.832  33.568   1.801
38009W        W97512  12.249  15.614   3.861
38010W        W97513   7.732  18.651   4.143
38011W        W97514  16.812  39.974   0.813
38012W        W97515  42.919  25.677   4.346
38013W        W97516  32.448  24.693  13.989
38014W        W97517  32.932  23.069  12.091
38015W        W97518  12.688  15.306  14.900
38016W        W97519   8.270  23.658   0.245
38017W        W97520  16.255  16.801   2.800
38018W        W97521  24.680   6.869   2.822
38019W        W97522   8.325  30.994   4.275
38020W        W97523  17.786  44.440   0.800
38021W        W97524  22.633  31.517   4.295
38022W        W97525   8.789  39.532  13.989
38023W        W97526  36.370   0.933   0.275
38024W        W97527  35.359  36.491   1.807
38025W        W97528  29.549  25.570  13.017
38026W        W97529  24.151   7.723  10.563
38027W        W97530  24.519  25.623  10.448
38028W        W97531  42.483  26.134  13.433
38029W        W97532  42.986  38.993  11.533
38030W        W97533   3.289   1.888  13.836
38031W        W97534  27.135  26.029  14.300
38032W        W97535  31.953   7.849  12.034
38033W        W97536  23.160  28.570  14.968
38034W        W97537   7.717  27.109  14.426
38035W        W97538  23.239  35.069  10.906
38036W        W97539  37.445  21.115   5.083
38037W        W97540  21.088  16.567   1.417
38038W        W97541  19.724  20.625  12.901
38039W        W97542  31.573  27.179  13.869
38040W        W97543  12.256  10.806   4.241
38041W        W97544  15.718  44.009  11.898
38042W        W97545   0.255  11.761  11.396
38043W        W97546   1.974   9.714   3.712
38044W        W97547  33.938  35.075   1.702
38045W        W97548  15.308  38.501  10.471
38046W        W97549   8.889  30.047   1.694
38047W        W97550  10.154  41.948   0.400
38048W        W97551   6.810   6.193  13.995
38049W        W97552   0.809  44.473  10.977
38050W        W97553   6.406  40.991  14.882
38051W        W97554  41.814  29.104  10.452
38052W        W97555  36.059  15.596  12.345
38053W        W97556  21.256  11.247   3.182
38054W        W97557  40.392   1.811   0.910
38055W        W97558  43.499  30.455   4.702
38056W        W97559  15.131  26.564   4.322
38057W        W97560  10.854  32.081   4.735
38058W        W97561  42.516  27.603  14.845
38059W        W97562  42.411   7.181   2.290
38060W        W97563  14.759  22.662   2.718
38061W        W97564   5.764  32.561   3.320
38062W        W97565   4.835  19.642   3.214
38063W        W97566  23.544   4.256   9.988
38064W        W97567  42.288  14.207   3.295
38065W        W97568  42.376  12.275  12.941
38066W        W97569   5.695   3.370   1.282
38067W        W97570   2.419  40.936  14.489
38068W        W97571  16.193   0.369   3.168
38069W        W97572  16.303  13.826  13.934
38070W        W97573  14.792  40.907   0.961
38071W        W97574  14.617  31.631  12.984
38072W        W97575   6.233  34.107   1.714
38073W        W97576   2.740  12.815   2.818
38074W        W97577   8.187  40.830   3.172
38075W        W97578  25.085  26.952   0.327
38076W        W97579  11.165  42.453  10.606
38077W        W97580  36.361   6.825   3.759
38078W        W97581  10.362  19.218   1.237
38079W        W97582  23.007  12.270  14.331
38080W        W97583  25.506  36.921  11.858
38081W        W97584  24.064  14.644  11.487
38082W        W97585  34.928  41.868  11.573
38083W        W97586  20.032  24.102  12.374
38084W        W97587   7.214  29.651   3.355
38085W        W97588  20.129  28.012  11.374
38086W        W97589  25.710  37.469   9.983
38087W        W97590  38.033  38.546   1.433
38088W        W97591  39.434  31.906  12.375
38089W        W97592  26.580  27.643   4.119
38090W        W97593  28.648  10.356  14.486
38091W        W97594  36.356  18.227  11.430
38092W        W97595   5.220   6.364   0.374
38093W        W97596  21.650  38.915  14.978
38094W        W97597  13.174  32.116  11.945
38095W        W97598  31.141  34.561   1.270
38096W        W97599  44.917  39.433   4.157
38097W        W97600  16.221  13.695  12.948
38098W        W97601  26.127   2.808  14.495
38099W        W97602   4.331  23.120   4.721
38100W        W97603  11.824  22.231  11.031
38101W        W97604  13.187  43.374   1.230
38102W        W97605   2.355   1.270   3.855
38103W        W97606   3.852  25.513   2.873
38104W        W97607  26.506   7.192  12.992
38105W        W97608   5.330  14.774  12.083
38106W        W97609  25.018  19.126  12.954
38107W        W97610  26.496   9.674   4.766
38108W        W97611  27.466   0.964   3.300
38109W        W97612  39.420  20.083  11.388
38110W        W97613  20.695   4.879   0.931
38111W        W97614   6.766  18.098   1.298
38112W        W97615  25.565  19.629   1.231
38113W        W97616  19.171  31.979  13.530
38114W        W97617   2.928   2.294  12.096
38115W        W97618  31.907  12.612   1.737
38116W        W97619   7.826  38.914   4.679
38117W        W97620  25.109  21.595  11.418
38118W        W97621  14.605  27.475   0.928
38119W        W97622   4.350  44.470  10.624
38120W        W97623  13.780   5.930   2.825
38121W        W97624  43.414  35.447  13.044
38122W        W97625  41.298  20.523  14.288
38123W        W97626   2.924   3.214   3.325
38124W        W97627  12.793  14.679   3.703
38125W        W97628  40.036  11.709  11.941
38126W        W97629  31.631  11.317   4.789
38127W        W97630   5.418  10.843  10.535
38128W        W97631  13.822   1.850   3.347
38129W        W97632  29.624   7.871   4.739
38130W        W97633   9.201   4.742  13.940
38131W        W97634  37.980  17.222   4.779
38132W        W97635   4.914  43.008   3.765
38133W        W97636  23.581  37.561  11.536
38134W        W97637  25.548  28.445   1.362
38135W        W97638  33.071  18.061   1.722
38136W        W97639  41.318  39.963   2.765
38137W        W97640  33.584  20.677  13.533
38138W        W97641  22.995  42.520  12.437
38139W        W97642  34.494  44.915  11.887
38140W        W97643   9.353  42.442   0.753
38141W        W97644  40.866  35.432   3.733
38142W        W97645  43.376  44.460  14.321
38143W        W97646  38.439  44.923  13.399
38144W        W97647  12.772  43.945   3.341
38145W        W97648   7.739   2.836  14.912
38146W        W97649  14.785  36.953  12.490
38147W        W97650  37.340  40.798  12.503
38148W        W97651   0.254  11.735   1.316
38149W        W97652  37.377   6.721   2.846
38150W        W97653  35.453  10.683  13.914
38151W        W97654   8.295  13.745  12.475
38152W        W97655  30.973  26.139  12.057
38153W        W97656  36.919   5.871  14.776
38154W        W97657  19.553   4.391   4.625
38155W        W97658  19.635  16.258  11.524
38156W        W97659  44.952   2.416  10.555
38157W        W97660  25.595  23.029  13.900
38158W        W97661  32.139   6.401   5.243
38159W        W97662  33.040  26.016  12.933
38160W        W97663   4.730  13.720   9.946
38161W        W97664  41.392  34.505  14.441
38162W        W97665   7.700  38.997   0.316
38163W        W97666  16.766   6.349   3.373
38164W        W97667  24.537  14.166  14.461
38165W        W97668  26.037  44.295   4.627
38166W        W97669   1.285   6.374  12.412
38167W        W97670  34.995  31.043  11.436
38168W        W97671  24.582  44.979   4.659
38169W        W97672  11.848  14.112   4.827
38170W        W97673   7.360  24.149   4.272
38171W        W97674  13.113   6.403   4.831
38172W        W97675   2.798  23.238   1.870
38173W        W97676   9.660  32.527   0.433
38174W        W97677  14.799   4.939  13.355
38175W        W97678   5.330  41.983  13.414
38176W        W97679  21.742  20.670   3.185
38177W        W97680  29.456  36.475  11.992
38178W        W97681   6.339  29.590  13.322
38179W        W97682  31.152  13.717  14.307
38180W        W97683   1.808  20.527  13.512
38181W        W97684  21.628  12.764  10.517
38182W        W97685  19.267  25.564  14.485
38183W        W97686  35.931  20.198   1.422
38184W        W97687   8.810  40.851   0.390
38185W        W97688   8.210  44.415   2.179
38186W        W97689  19.706  44.464  13.062
38187W        W97690  32.519  29.606  13.818
38188W        W97691  19.223  13.717  14.853
38189W        W97692  27.063  16.739   4.719
38190W        W97693  36.987  16.109  12.914
38191W        W97694  17.671   0.416   3.841
38192W        W97695  33.614  26.963   2.690
38193W        W97696  36.410  33.446  10.605
38194W        W97697  24.107  33.875   0.791
38195W        W97698  38.546   8.394   2.246
38196W        W97699  14.730   4.751   4.772
38197W        W97700  11.704  10.340   2.799
38198W        W97701  39.539  15.229   4.271
38199W        W97702   9.149  22.224  12.974
38200W        W97703  16.188  37.057  12.993
38201W        W97704  24.184  41.950   1.718
38202W        W97705  15.123  16.216  14.465
38203W        W97706   5.311  37.476   3.847
38204W        W97707  39.530   2.308  12.470
38205W        W97708  37.085  38.443  13.395
38206W        W97709  39.530  23.591  14.462
38207W        W97710   7.683  36.083  14.450
38208W        W97711  31.947  38.840  14.929
38209W        W97712  35.941  35.584   4.265
38210W        W97713   2.806   2.390  13.414
38211W        W97714   7.774  19.099   5.608
38212W        W97715  39.849   1.840  14.285
38213W        W97716  41.896  23.617   0.405
38214W        W97717  10.278   2.356   3.225
38215W        W97718  21.142  11.152  14.801
38216W        W97719  36.874  36.485   3.338
38217W        W97720  33.040   1.864   1.325
38218W        W97721  21.254  16.140  11.478
38219W        W97722   5.296   8.367  12.840
38220W        W97723  18.085  38.940   4.797
38221W        W97724  37.365  41.487  10.625
38222W        W97725   8.297   4.736  14.908
38223W        W97726  22.535  13.675  14.830
38224W        W97727  29.977  17.656   4.283
38225W        W97728  11.127  31.433   0.750
38226W        W97729  22.247  41.910   2.820
38227W        W97730   8.693   3.722  12.073
38228W        W97731   6.304   8.379   3.851
38229W        W97732   9.373   7.741  12.013
38230W        W97733  19.060  14.782  14.887
38231W        W97734  12.163  38.513   4.237
38232W        W97735  39.955  29.579   0.924
38233W        W97736  14.678  24.116  10.944
38234W        W97737  40.528  26.187  11.969
38235W        W97738  41.341  12.639   0.298
38236W        W97739  44.475  31.972  14.769
38237W        W97740  21.139  41.396   2.402
38238W        W97741  35.897  23.498   0.876
38239W        W97742  27.643  31.640   4.247
38240W        W97743  40.900  15.129  10.933
38241W        W97744  26.497  35.402   0.853
38242W        W97745   6.299  18.633   0.805
38243W        W97746  30.586   3.407  11.961
38244W        W97747  28.547  24.073  10.624
38245W        W97748  10.142   2.869  12.958
38246W        W97749  36.543  42.810   4.658
38247W        W97750  39.371  18.665   1.723
38248W        W97751   0.357   4.732   0.759
38249W        W97752  20.754  12.195  14.881
38250W        W97753  21.233  18.650  10.418
38251W        W97754  14.141  32.953  13.001
38252W        W97755  21.030   4.926  13.931
38253W        W97756  41.035   3.257  13.805
38254W        W97757  20.111  30.517  14.978
38255W        W97758  37.859   2.730   4.679
38256W        W97759  24.065   6.726   3.771
38257W        W97760  31.568  21.117  12.991
38258W        W97761   4.322  16.697  14.895
38259W        W97762   7.692  18.718  11.523
38260W        W97763  38.416  11.652   3.685
38261W        W97764   5.740  38.962  13.856
38262W        W97765  23.681   7.388  13.029
38263W        W97766  36.981  21.256   3.147
38264W        W97767  17.730  29.531   1.360
38265W        W97768  26.162  23.601   0.341
38266W        W97769  32.505  22.645   3.643
38267W        W97770   3.421   5.878   4.260
38268W        W97771  28.014  35.510  10.984
38269W        W97772  32.415  29.996  11.565
38270W        W97773   4.737  13.654   1.864
38271W        W97774  12.668  32.631   1.317
38272W        W97775  30.110  29.160   3.206
38273W        W97776  13.201  23.495  14.810
38274W        W97777  11.148  23.728  11.578
38275W        W97778  23.146  22.101  14.510
38276W        W97779  11.360   1.482  14.453
38277W        W97780  15.248  27.557  10.491
38278W        W97781  37.493  12.142   1.269
38279W        W97782  27.068  27.972   1.734
38280W        W97783  41.330   4.747   1.896
38281W        W97784  35.426  17.615  10.471
38282W        W97785   3.432  24.722   1.412
38283W        W97786  19.727   0.844  11.941
38284W        W97787  30.096  19.635   3.668
38285W        W97788  38.496  42.848  13.896
38286W        W97789  39.952  12.210   3.736
38287W        W97790  20.681  38.866   4.150
38288W        W97791   2.745  20.659   1.878
38289W        W97792  37.465  11.235  10.620
38290W        W97793  15.810  22.590   0.353
38291W        W97794   1.886  21.112  13.905
38292W        W97795  32.110   9.740   2.733
38293W        W97796  31.970   4.395  11.427
38294W        W97797   2.929  44.879   4.213
38295W        W97798  14.191  34.498  14.911
38296W        W97799   9.810  37.926   1.282
38297W        W97800  28.031   6.267   4.141
38298W        W97801  39.416   2.788  14.911
38299W        W97802   6.889   7.735  12.419
38300W        W97803  43.450  12.742   1.286
38301W        W97804  15.149  13.121   4.611
38302W        W97805  28.083   4.782  14.366
38303W        W97806  20.615  22.119   2.198
38304W        W97807  25.019  14.659   4.168
38305W        W97808   0.299  21.169   3.164
38306W        W97809  11.169  12.190  12.941
38307W        W97810  27.143  13.340   2.389
38308W        W97811  42.472  27.977  12.025
38309W        W97812  41.932   5.217  12.501
38310W        W97813  35.047  29.942   0.295
38311W        W97814   3.867   4.879   4.599
38312W        W97815   3.805  39.329  10.510
38313W        W97816  11.700  40.904   3.196
38314W        W97817  19.585  32.411   4.819
38315W        W97818  28.961  30.992  12.997
38316W        W97819  11.657  33.405   1.402
38317W        W97820  43.002  10.806   0.870
38318W        W97821  40.357  18.725  14.400
38319W        W97822  43.406  35.009   0.434
38320W        W97823  30.512  17.696   9.957
38321W        W97824   3.372  40.435  13.002
38322W        W97825  19.581   8.760   2.702
38323W        W97826   2.737  15.126   1.333
38324W        W97827  26.097  19.123   3.690
38325W        W97828  22.527  34.986  12.425
38326W        W97829  26.977   2.949  14.452
38327W        W97830  27.590  14.128   3.324
38328W        W97831  25.526  25.981  14.929
38329W        W97832   2.789   6.727  13.357
38330W        W97833  20.108  20.268  12.019
38331W        W97834  42.919   2.344  13.333
38332W        W97835  35.548  44.766   2.393
38333W        W97836   0.251   9.241  14.510
38334W        W97837   7.738  42.337   2.178
38335W        W97838  19.279  10.693  12.002
38336W        W97839  43.459   5.912  14.794
38337W        W97840  28.111  30.919   1.226
38338W        W97841  26.974  25.037   0.309
38339W        W97842  14.808  33.549  10.570
38340W        W97843  11.168   8.824  10.948
38341W        W97844  14.292  44.881   4.130
38342W        W97845   9.189  16.630  13.957
38343W        W97846  31.903  17.114  12.382
38344W        W97847  17.180  20.666  12.554
38345W        W97848  24.074  15.306   0.463
38346W        W97849  29.637   6.349  12.345
38347W        W97850  15.588   4.844  13.919
38348W        W97851  20.199  23.584   3.729
38349W        W97852  22.142   5.415  10.609
38350W        W97853  18.104  11.666   2.733
38351W        W97854  44.377  36.024   2.405
38352W        W97855  39.849   2.418  12.933
38353W        W97856  37.859   8.394   3.713
38354W        W97857  11.696  14.636   2.772
38355W        W97858   7.708   7.680   3.337
38356W        W97859  11.156  19.156  13.383
38357W        W97860   8.205  34.028  13.045
38358W        W97861  40.829  33.938   4.707
38359W        W97862  26.005   9.311   1.896
38360W        W97863   2.309  14.173  13.984
38361W        W97864  10.858   1.482   3.632
38362W        W97865  20.685   5.925  12.528
38363W        W97866   3.317  23.643  12.367
38364W        W97867   6.198  14.750   2.390
38365W        W97868   5.410  31.069   4.332
38366W        W97869  33.015  34.590   0.810
38367W        W97870  43.400  11.820  12.378
38368W        W97871  37.841   8.171   2.706
38369W        W97872   4.230  10.756  14.845
38370W        W97873  38.491  22.122  13.523
38371W        W97874  32.129  43.280  13.846
38372W        W97875   6.723   1.764   2.858
38373W        W97876   3.359  22.649  13.331
38374W        W97877   7.794  35.513  11.859
38375W        W97878  36.959   6.784   3.645
38376W        W97879  32.564  32.057   0.829
38377W        W97880  23.636  20.763  10.453
38378W        W97881  30.592  34.953   1.713
38379W        W97882  42.981   0.925  13.812
38380W        W97883  23.037   7.340  10.590
38381W        W97884  12.698  17.762   1.811
38382W        W97885   8.746  35.487  14.890
38383W        W97886   5.796  30.153  12.580
38384W        W97887  29.941  22.600   1.246
38385W        W97888  26.469  37.949  14.332
38386W        W97889  31.912   8.182   2.780
38387W        W97890  27.492  35.595   3.768
38388W        W97891  44.372  14.659  11.511
38389W        W97892  33.066  28.498   2.222
38390W        W97893  40.414  10.653  14.994
38391W        W97894  26.482  18.254  13.954
38392W        W97895  36.530  27.682  11.976
38393W        W97896  36.947  33.429   4.203
38394W        W97897   1.268  15.228   0.763
38395W        W97898  22.006   0.461   0.255
38396W        W97899  26.978  40.362   3.327
38397W        W97900  31.436   4.310   0.851
38398W        W97901  15.649  43.998   2.315
38399W        W97902   4.795  44.948   3.775
38400W        W97903  11.232  33.082   2.810
38401W        W97904   2.241  23.726  12.980
38402W        W97905  27.150  31.419   1.371
38403W        W97906  30.086  15.298  12.340
38404W        W97907  22.035  34.547   3.205
38405W        W97908   5.264   6.278  10.602
38406W        W97909   5.889   5.277   0.293
38407W        W97910  37.984  23.226   4.659
38408W        W97911   1.778   9.272   0.827
38409W        W97912  12.216  14.112  13.997
38410W        W97913  39.909  13.233  10.498
38411W        W97914  37.075  10.641  11.874
38412W        W97915  17.706  30.492  13.458
38413W        W97916  37.454  23.995  14.794
38414W        W97917  21.738  21.192   1.914
38415W        W97918  28.032  33.884   0.814
38416W        W97919  36.915  26.162   1.733
38417W        W97920  35.054  36.080   5.704
38418W        W97921   8.804  12.843   2.890
38419W        W97922   6.368  18.618  12.968
38420W        W97923  11.175  11.839   3.252
38421W        W97924  44.801  24.161  13.402
38422W        W97925  39.392  19.671   0.844
38423W        W97926   8.217  30.596  11.882
38424W        W97927  43.938  21.212  12.439
38425W        W97928  11.624   5.398  12.383
38426W        W97929   7.257  43.995  12.056
38427W        W97930   0.456  21.214   2.713
38428W        W97931  31.518   8.876   0.856
38429W        W97932  10.201   7.808   3.153
38430W        W97933  40.021  44.425   0.958
38431W        W97934  44.346  38.521   0.387
38432W        W97935  30.960  42.453  10.927
38433W        W97936  16.136  35.854   4.175
38434W        W97937  21.036   8.235  10.514
38435W        W97938  28.082  41.526   4.318
38436W        W97939  31.505   4.424  14.284
38437W        W97940  11.661  16.616   1.849
38438W        W97941  18.283  24.015  12.419
38439W        W97942  21.701  10.193   0.922
38440W        W97943  22.235  23.107  12.367
38441W        W97944   1.403  17.183   4.669
38442W        W97945  21.121  27.968  13.524
38443W        W97946   4.223  38.474   4.221
38444W        W97947  15.809  26.627  12.039
38445W        W97948  30.157  37.957  13.898
38446W        W97949  37.358   0.263   1.376
38447W        W97950   1.805  39.879   1.449
38448W        W97951   8.194  33.917  10.516
38449W        W97952  28.654  31.929   4.202
38450W        W97953  36.575   3.719  12.953
38451W        W97954  37.860  40.401  14.480
38452W        W97955   4.738  27.116  11.039
38453W        W97956  11.296   1.451  11.866
38454W        W97957  26.971  10.639   3.339
38455W        W97958  31.609  30.596  10.422
38456W        W97959  16.744   4.788  14.003
38457W        W97960  19.598  42.440  12.425
38458W        W97961  30.079  26.611   0.406
38459W        W97962  11.726  34.449   1.219
38460W        W97963  23.182  38.430  14.015
38461W        W97964  24.165  13.283  11.930
38462W        W97965  40.514  17.088  12.487
38463W        W97966  39.829  13.844  11.593
38464W        W97967  29.932   6.224   0.313
38465W        W97968  21.023  15.120   0.815
38466W        W97969  28.675  44.864   0.247
38467W        W97970   8.192  27.525   1.876
38468W        W97971  36.409  32.411  12.573
38469W        W97972  25.669  13.793   1.826
38470W        W97973   8.781  12.318   3.800
38471W        W97974  23.062   6.887  12.071
38472W        W97975   5.302  34.095  11.554
38473W        W97976   0.480  38.392   3.373
38474W        W97977  40.959   3.254   3.856
38475W        W97978  17.194   3.758   0.748
38476W        W97979  30.979  10.634  11.601
38477W        W97980  30.541  33.037   2.338
38478W        W97981   1.789  18.559  13.523
38479W        W97982  35.575  41.797  12.976
38480W        W97983  15.718   6.897   4.167
38481W        W97984  37.483  18.050  11.868
38482W        W97985  37.478  22.082  11.560
38483W        W97986  31.632  18.713   2.818
38484W        W97987  23.139  20.113  13.936
38485W        W97988  42.860  44.382  14.018
38486W        W97989   3.748  23.117   4.698
38487W        W97990  28.967  44.428  10.517
38488W        W97991  24.604  24.044   1.738
38489W        W97992  18.608  12.735  14.891
38490W        W97993  21.070  14.324   4.658
38491W        W97994  10.181  42.491  13.035
38492W        W97995  11.261  40.493   1.328
38493W        W97996  10.873  12.356  11.943
38494W        W97997  24.036   7.299  12.928
38495W        W97998  37.430   2.854   3.766
38496W        W97999  41.537  10.692   2.747
38497W        W98000  42.989  37.915   4.276
38498W        W98001  27.027  13.290   4.151
38499W        W98002  42.294   8.757   2.279
38500W        W98003  35.877  14.607   1.242
38501W        W98004  18.107  10.850   0.409
38502W        W98005  44.272  19.595   4.338
38503W        W98006  18.250  24.168   0.255
38504W        W98007  18.571   1.746   4.299
38505W        W98008  20.720  40.386   0.436
38506W        W98009  29.069  18.550  14.995
38507W        W98010  15.661  22.705  14.317
38508W        W98011  18.730  14.821   4.354
38509W        W98012   1.455  11.220  14.760
38510W        W98013  25.022  21.532  10.623
38511W        W98014   1.454   2.448   1.311
38512W        W98015   6.364  33.986   3.173
38513W        W98016  20.146  12.790  13.906
38514W        W98017  41.323  33.900   3.295
38515W        W98018  20.569  25.580   4.309
38516W        W98019  42.390  27.003  11.927
38517W        W98020   4.438  43.833  14.409
38518W        W98021  40.308  15.648  12.535
38519W        W98022   4.252   1.317  11.550
38520W        W98023  16.641  29.569   4.328
38521W        W98024  17.081   7.173  11.018
38522W        W98025  22.151  40.946   4.220
38523W        W98026  42.335  30.536   4.232
38524W        W98027  36.972  13.641   3.260
38525W        W98028  20.176   7.709  13.361
38526W        W98029  19.535  31.037  13.800
38527W        W98030   3.715  31.923   0.749
38528W        W98031  26.058  38.850   0.938
38529W        W98032  10.759  22.230  14.962
38530W        W98033  41.309  24.170   3.202
38531W        W98034  10.240   6.831   1.830
38532W        W98035   3.222  43.491  11.958
38533W        W98036  35.883  10.796  12.436
38534W        W98037  15.122  32.532   2.752
38535W        W98038   9.271  24.500   1.900
38536W        W98039  40.054  11.725   1.889
38537W        W98040  28.610  16.748  13.859
38538W        W98041  18.134  42.438   2.863
38539W        W98042  27.515  15.099   1.862
38540W        W98043  37.060  31.017  14.832
38541W        W98044  33.107   0.432   2.704
38542W        W98045   9.881  12.140   1.716
38543W        W98046  42.293  17.739  14.012
38544W        W98047  11.371  15.128   0.261
38545W        W98048  30.547  20.698   0.831
38546W        W98049   0.301  35.890  11.886
38547W        W98050  38.045  43.321   1.247
38548W        W98051  16.620  21.532   2.217
38549W        W98052  22.588  28.533   0.294
38550W        W98053  22.534  20.033   3.235
38551W        W98054  11.310  18.574  10.563
38552W        W98055  19.587  38.500   0.738
38553W        W98056  33.513  10.377  11.057
38554W        W98057  35.417  15.194   4.648
38555W        W98058  23.160  16.631  13.792
38556W        W98059  21.527   7.803  11.019
38557W        W98060  40.381  20.736  13.409
38558W        W98061  43.278  28.603  13.977
38559W        W98062  20.701  40.484   4.659
38560W        W98063   5.788  16.106  12.340
38561W        W98064  21.658   1.770   4.733
38562W        W98065  18.241  44.888   1.449
38563W        W98066  13.757   7.676   2.798
38564W        W98067  36.504  10.266   0.945
38565W        W98068   9.352  40.985  13.061
38566W        W98069  21.146  11.689   4.351
38567W        W98070  21.166  23.539   1.449
38568W        W98071  38.976  30.123  14.003
38569W        W98072  38.994  28.179  14.514
38570W        W98073  14.194  21.512   0.483
38571W        W98074  30.591  28.953  10.930
38572W        W98075  21.565  20.561  10.611
38573W        W98076  43.919  37.424   4.253
38574W        W98077  21.039  32.894  14.845
38575W        W98078  17.077  35.578  10.971
38576W        W98079  37.032  43.849   0.842
38577W        W98080  24.103  26.613   4.776
38578W        W98081  36.560  21.708  12.345
38579W        W98082  21.155  22.130   1.829
38580W        W98083  34.001  24.505  11.409
38581W        W98084   0.328  36.950  10.533
38582W        W98085  24.142  22.677   2.307
38583W        W98086   8.323  26.156   0.776
38584W        W98087   3.328  36.587  10.497
38585W        W98088  22.700  11.179   2.753
38586W        W98089  19.110  32.434   3.367
38587W        W98090  29.559  44.876   3.851
38588W        W98091  42.466  39.551   3.284
38589W        W98092   3.812  30.990  11.904
38590W        W98093   4.420  15.251  11.899
38591W        W98094  10.735  27.464   1.431
38592W        W98095  29.430  22.243  11.058
38593W        W98096  43.286   2.896  13.042
38594W        W98097  14.833   7.786   4.816
38595W        W98098   1.854  20.553   4.256
38596W        W98099  29.423   1.735  10.121
38597W        W98100  22.671  27.138   1.764
38598W        W98101   1.346  38.518  14.378
38599W        W98102  15.223  26.534  13.548
38600W        W98103  15.287  39.495  13.366
38601W        W98104   0.320  41.356   4.620
38602W        W98105  28.470  37.450   5.114
38603W        W98106  30.452  34.441  11.002
38604W        W98107  43.883   4.800   5.285
38605W        W98108   2.958  36.045   3.264
38606W        W98109  44.474  41.437  12.518
38607W        W98110   9.824  30.434  11.474
38608W        W98111  27.012  29.995  11.410
38609W        W98112  26.189  15.767  12.491
38610W        W98113   5.804  19.623  11.093
38611W        W98114  29.051  41.883   2.215
38612W        W98115  17.087  20.635   1.930
38613W        W98116  24.497  10.663   2.388
38614W        W98117  37.525  22.057  12.944
38615W        W98118  20.224   2.815  10.007
38616W        W98119  14.201  24.551  11.546
38617W        W98120  36.389   7.753  11.458
38618W        W98121  41.868  13.811  11.043
38619W        W98122   6.401  25.164   2.294
38620W        W98123  22.534  42.520  13.945
38621W        W98124  14.118  18.286   0.833
38622W        W98125  30.648  28.537  14.015
38623W        W98126  22.670  22.600   0.397
38624W        W98127  39.865  34.956   2.334
38625W        W98128  30.524  41.042  14.962
38626W        W98129   3.769   4.348   2.859
38627W        W98130   7.306  31.091  11.590
38628W        W98131   3.275   8.371   4.641
38629W        W98132  38.367  33.105  13.839
38630W        W98133  39.474  22.582  14.325
38631W        W98134   8.273  16.083   3.361
38632W        W98135  12.796  35.456  10.931
38633W        W98136   0.294  43.391   5.117
38634W        W98137  10.245  14.769  14.340
38635W        W98138  28.123  31.074   2.749
38636W        W98139  23.637  28.172   2.290
38637W        W98140   8.169   7.239  12.958
38638W        W98141  18.236  12.649  14.983
38639W        W98142  15.786  38.474  11.856
38640W        W98143  14.598  38.343  12.352
38641W        W98144  21.579  33.452  14.799
38642W        W98145  42.907  38.555  12.488
38643W        W98146  24.017  22.607  12.350
38644W        W98147   4.721  30.080  14.889
38645W        W98148   6.273   3.450   3.702
38646W        W98149  11.858  42.868   0.746
38647W        W98150  17.110  42.307   4.211
38648W        W98151  32.415  15.664   0.319
38649W        W98152   8.832  42.362   0.304
38650W        W98153  39.383   1.269  12.985
38651W        W98154  18.746  30.485   2.722
38652W        W98155  23.520  29.463  13.876
38653W        W98156  39.007  43.858  10.541
38654W        W98157  40.968  42.435  13.996
38655W        W98158  17.071  11.684   3.308
38656W        W98159  26.466  42.974   0.398
38657W        W98160  34.481  14.173   4.204
38658W        W98161  36.451  33.498  13.525
38659W        W98162  42.337   0.809  12.851
38660W        W98163   2.748  24.483  13.485
38661W        W98164   4.298  39.004   4.601
38662W        W98165   2.430  30.012  11.897
38663W        W98166   7.245  34.559  10.954
38664W        W98167   8.849  14.144  14.450
38665W        W98168  12.142  31.099   9.580
38666W        W98169  14.270  19.668  11.931
38667W        W98170  36.072  10.269   0.818
38668W        W98171   5.871  43.304  14.498
38669W        W98172  43.367   7.860  13.897
38670W        W98173  12.644  29.651   0.258
38671W        W98174   7.889  21.750  13.055
38672W        W98175  15.187  30.642  14.762
38673W        W98176  25.679  42.915   1.805
38674W        W98177   2.297  16.171   2.322
38675W        W98178   8.387  20.659   4.295
38676W        W98179  19.164  38.335  14.480
38677W        W98180  32.500  11.679   0.328
38678W        W98181  15.643   9.739   4.733
38679W        W98182  23.019  27.600   1.241
38680W        W98183   0.823  13.187  14.367
38681W        W98184   3.717  44.006  13.905
38682W        W98185  29.130  24.154  12.930
38683W        W98186  27.484  34.968  14.994
38684W        W98187  42.448   1.427   1.276
38685W        W98188  41.805  42.824  14.867
38686W        W98189   5.785   4.211   3.845
38687W        W98190  36.999  42.318  14.764
38688W        W98191  32.970   8.369   1.745
38689W        W98192  13.157  14.101   5.318
38690W        W98193  29.606  24.976  11.426
38691W        W98194   8.382  41.909   1.697
38692W        W98195  35.905  36.408  14.945
38693W        W98196   4.291   3.712   2.414
38694W        W98197  17.618  40.423   3.824
38695W        W98198  33.028  28.170   0.390
38696W        W98199  15.151  24.050   0.869
38697W        W98200  36.395   4.351  13.051
38698W        W98201  27.685  38.439   3.346
38699W        W98202  43.391   1.474  11.915
38700W        W98203  14.779   0.405   0.833
38701W        W98204   2.393  39.402  14.949
38702W        W98205  41.529  39.046   3.338
38703W        W98206  42.331  30.925   1.718
38704W        W98207  21.083  31.517  14.315
38705W        W98208   3.322  39.822  12.979
38706W        W98209  14.589  11.792   0.819
38707W        W98210  34.040   8.859   1.701
38708W        W98211  43.406  25.013  11.533
38709W        W98212   8.660  14.627  11.918
38710W        W98213  39.814  29.989   1.439
38711W        W98214   7.790  22.697  12.853
38712W        W98215  34.873  27.480  14.353
38713W        W98216  30.119  13.786   1.745
38714W        W98217  16.161  24.608  13.825
38715W        W98218  40.432  23.129  10.629
38716W        W98219  27.056   3.791  11.557
38717W        W98220  27.017   2.937   2.369
38718W        W98221   3.375  10.694   2.209
38719W        W98222  20.103  42.033  10.896
38720W        W98223  20.110  18.259   4.329
38721W        W98224   9.334  42.801  14.276
38722W        W98225  14.317  37.511  14.405
38723W        W98226  20.149  24.504  10.415
38724W        W98227  26.663  10.267  10.978
38725W        W98228  20.542  37.898   3.634
38726W        W98229  43.479  33.883   0.314
38727W        W98230   6.336  30.939  11.105
38728W        W98231  10.819  29.170  12.571
38729W        W98232   1.745  14.114   0.888
38730W        W98233   9.856  32.047  13.362
38731W        W98234  32.553  39.809   3.358
38732W        W98235  11.638  42.382  11.056
38733W        W98236  14.285  13.698  10.437
38734W        W98237  21.019  25.634  10.435
38735W        W98238  38.390  32.080   4.717
38736W        W98239  21.631  10.688  12.892
38737W        W98240  20.145   2.913   3.755
38738W        W98241  41.844  30.135  13.469
38739W        W98242   3.246  33.383  10.977
38740W        W98243  39.470  28.521  13.932
38741W        W98244  40.800  25.994  11.466
38742W        W98245  19.564  29.653  13.487
38743W        W98246  25.967  16.776  13.356
38744W        W98247  13.611  25.554   4.809
38745W        W98248   8.854  40.835   1.404
38746W        W98249  15.183   8.831  14.819
38747W        W98250  22.248  32.971   3.281
38748W        W98251  32.977  20.669   3.301
38749W        W98252  25.626   9.272   3.337
38750W        W98253  27.644  24.108   4.771
38751W        W98254  24.557  28.051  13.529
38752W        W98255  31.967  44.502  14.380
38753W        W98256   4.807  27.638   1.903
38754W        W98257  44.320  33.912   3.841
38755W        W98258  37.885  18.639  13.879
38756W        W98259  37.544  27.096  14.775
38757W        W98260   2.407   7.229   0.954
38758W        W98261  40.918  27.620  13.460
38759W        W98262  24.155   7.232   9.920
38760W        W98263  17.801  36.038   1.227
38761W        W98264  24.104  40.543  11.122
38762W        W98265  38.863   7.817   1.373
38763W        W98266  17.268  24.028   3.150
38764W        W98267   6.370  38.971   5.183
38765W        W98268  30.461   0.360  14.414
38766W        W98269  31.542  21.069  11.123
38767W        W98270  21.090  42.285  10.580
38768W        W98271  27.683  17.091  11.461
38769W        W98272   5.856  26.699  10.915
38770W        W98273   0.425   9.331   3.783
38771W        W98274  12.713   1.276   3.276
38772W        W98275   2.759  40.010   0.301
38773W        W98276   5.306  24.711   1.406
38774W        W98277  13.610   8.727   2.208
38775W        W98278   8.811   2.425   3.258
38776W        W98279  41.034   8.385  14.930
38777W        W98280  40.027  14.291  13.527
38778W        W98281  38.523  15.216  13.534
38779W        W98282  11.202  10.726  14.447
38780W        W98283  14.647  35.507   0.301
38781W        W98284   3.929  41.525   2.409
38782W        W98285  27.625  20.047  11.465
38783W        W98286  30.067   5.219  10.941
38784W        W98287  44.383  17.592  12.579
38785W        W98288  22.537  41.016  13.533
38786W        W98289  24.604  17.094   3.180
38787W        W98290  22.691  13.149   0.792
38788W        W98291  22.572  32.604   1.240
38789W        W98292   6.783   3.440  11.486
38790W        W98293  33.386   4.718   5.268
38791W        W98294  28.081  28.988  12.534
38792W        W98295   2.318  44.394  13.046
38793W        W98296  17.707  23.075  10.485
38794W        W98297   0.405   4.841  13.501
38795W        W98298  15.181   5.251   3.735
38796W        W98299  41.039  14.278   1.325
38797W        W98300  25.000  14.758   0.459
38798W        W98301   4.251  44.831  11.581
38799W        W98302  25.206  21.244   0.946
38800W        W98303  18.740   1.331   0.366
38801W        W98304  28.007  39.064   0.386
38802W        W98305  17.236  29.990   3.330
38803W        W98306  15.816  30.463   0.951
38804W        W98307  25.636   8.406   2.365
38805W        W98308  32.411  23.533   0.839
38806W        W98309   8.180  24.155   3.768
38807W        W98310   6.228   4.371   3.201
38808W        W98311  17.686  38.953   9.957
38809W        W98312   1.250  30.095  11.028
38810W        W98313  15.734   3.860   0.443
38811W        W98314  32.561  33.064  13.456
38812W        W98315  31.418   3.408  14.919
38813W        W98316  26.103  27.149   3.333
38814W        W98317  37.495  10.817   2.780
38815W        W98318  25.573   6.212   4.713
38816W        W98319  31.590   4.283  13.846
38817W        W98320   2.317  16.775  12.426
38818W        W98321  23.508   3.446   2.221
38819W        W98322  13.690   3.919  14.948
38820W        W98323  26.171  41.380  13.320
38821W        W98324  18.765  22.548  13.052
38822W        W98325   7.878  21.055  13.057
38823W        W98326  24.075  27.473  10.560
38824W        W98327  35.856  39.434   0.839
38825W        W98328  13.752  20.738  12.836
38826W        W98329  27.488  38.487  10.448
38827W        W98330  23.116  20.089   0.450
38828W        W98331  30.158  32.569  14.813
38829W        W98332  24.154   5.308  12.838
38830W        W98333   6.711  32.594   4.628
38831W        W98334  25.030  25.178   1.697
38832W        W98335  22.075  22.117   3.833
38833W        W98336  30.034  25.574   1.867
38834W        W98337   1.247  32.140   0.271
38835W        W98338  18.673  21.029   1.924
38836W        W98339  36.388  23.212   4.732
38837W        W98340  11.351  19.190  14.515
38838W        W98341   0.332  40.929   4.120
38839W        W98342  16.799  19.061  12.549
38840W        W98343  25.704  13.835   0.787
38841W        W98344  30.016   8.823  11.944
38842W        W98345  27.456  32.970   3.258
38843W        W98346  20.040  41.457   4.164
38844W        W98347  28.994  40.324   0.425
38845W        W98348  31.121   1.454   4.335
38846W        W98349   8.770  12.777  10.947
38847W        W98350  27.056   0.343   3.638
38848W        W98351  38.838  20.650   3.644
38849W        W98352  11.694  19.705   3.324
38850W        W98353  39.991   8.800   0.846
38851W        W98354  21.093  14.641   4.146
38852W        W98355   9.803   8.401   3.829
38853W        W98356   9.760  37.086   1.910
38854W        W98357  11.818  11.825   1.918
38855W        W98358  26.116  43.926  14.862
38856W        W98359  20.096  12.202   0.351
38857W        W98360  38.066  15.659   4.810
38858W        W98361  37.534  15.196  11.440
38859W        W98362  35.979  37.013   3.249
38860W        W98363  28.663  43.285   1.726
38861W        W98364  20.755  39.967   0.286
38862W        W98365  27.058  41.433   0.333
38863W        W98366  38.506  23.733   4.725
38864W        W98367  22.747  29.554  12.864
38865W        W98368  39.016  14.657  11.096
38866W        W98369   8.659   2.839   4.696
38867W        W98370  23.601  26.966   3.346
38868W        W98371  19.601  43.276   0.730
38869W        W98372  37.911  23.171   1.877
38870W        W98373  26.558  32.910  13.812
38871W        W98374  30.002  38.477  14.301
38872W        W98375  19.209  20.123  13.825
38873W        W98376  14.704   5.874  14.971
38874W        W98377  33.549  20.752   2.180
38875W        W98378  20.186  43.007   0.433
38876W        W98379  35.550  40.521  10.624
38877W        W98380   9.186   2.309   3.327
38878W        W98381  11.864  20.148   0.393
38879W        W98382  28.045  32.402  12.002
38880W        W98383  30.010  32.980  11.505
38881W        W98384  11.808  22.638   2.186
38882W        W98385  43.931   0.843  12.535
38883W        W98386  22.117  24.203  14.358
38884W        W98387   1.455  20.116   1.442
38885W        W98388  22.570  31.959   1.753
38886W        W98389  31.091   7.688  13.483
38887W        W98390  32.512   4.411   0.838
38888W        W98391  34.021   6.280   4.254
38889W        W98392  24.672  21.542  10.902
38890W        W98393  34.549  31.963   0.829
38891W        W98394   8.701  11.804  13.327
38892W        W98395  43.996   6.855   4.125
38893W        W98396   7.205  15.665   0.907
38894W        W98397  25.176  23.524  11.510
38895W        W98398  26.620   1.859  14.304
38896W        W98399   3.419  25.150  14.351
38897W        W98400   5.381   3.906   1.312
38898W        W98401  13.262   5.772   0.838
38899W        W98402   5.424  20.238   2.359
38900W        W98403  14.676  38.339  14.907
38901W        W98404  37.942  25.085   5.108
38902W        W98405   1.869  41.471  10.128
38903W        W98406  16.666  37.420  12.823
38904W        W98407   6.265  40.800   0.380
38905W        W98408   4.331  14.687  11.992
38906W        W98409  39.515  22.588   1.711
38907W        W98410  42.374  11.813  13.904
38908W        W98411  16.709  31.112   4.637
38909W        W98412  14.326  39.059  10.947
38910W        W98413  43.353  18.592   0.338
38911W        W98414  10.323  43.838  13.039
38912W        W98415  11.774  37.915   3.697
38913W        W98416  24.631   9.841   2.385
38914W        W98417  27.054   6.392  11.397
38915W        W98418  39.317   6.918   3.672
38916W        W98419  42.978  30.595  14.879
38917W        W98420  37.843  43.311   4.283
38918W        W98421   7.734  42.364  13.427
38919W        W98422  41.463   3.214   0.851
38920W        W98423  35.526  34.409   3.343
38921W        W98424  34.434  15.789  11.505
38922W        W98425  30.995  14.693   3.240
38923W        W98426  44.391  30.165   0.484
38924W        W98427   6.923   3.791   4.223
38925W        W98428   9.226  25.621   3.296
38926W        W98429  44.371  20.193   1.912
38927W        W98430  38.490  39.497  11.504
38928W        W98431   2.779   3.420  13.962
38929W        W98432  23.668  14.304  14.921
38930W        W98433  29.099   2.869  11.120
38931W        W98434  30.604  26.005   2.359
38932W        W98435  29.104  15.770  14.428
38933W        W98436   6.714  14.126  12.340
38934W        W98437  13.784   0.743   1.249
38935W        W98438  20.103  19.734  14.338
38936W        W98439  10.662  35.563   0.774
38937W        W98440  44.970  24.187   1.244
38938W        W98441   5.776   1.850   0.404
38939W        W98442   6.412  33.927  11.944
38940W        W98443   0.945  22.571   0.296
38941W        W98444  15.742  15.311   1.779
38942W        W98445  13.214   9.260   4.813
38943W        W98446   0.952  25.026  11.500
38944W        W98447  17.648   6.717   1.710
38945W        W98448  31.582  37.339  12.844
38946W        W98449  34.115  36.455  14.869
38947W        W98450   9.260  32.576  10.989
38948W        W98451  42.465  44.339  12.554
38949W        W98452  25.522  16.729   4.196
38950W        W98453  16.794  12.714  10.532
38951W        W98454   3.375  44.005   9.974
38952W        W98455  26.507   0.969  11.977
38953W        W98456  15.235  33.539   0.363
38954W        W98457  36.584   2.733   1.757
38955W        W98458   9.768  34.609   0.333
38956W        W98459   7.796  13.628   2.821
38957W        W98460  21.744   1.853  10.430
38958W        W98461   7.372  32.079  14.896
38959W        W98462  14.679  34.006  11.092
38960W        W98463  14.718  37.985   4.226
38961W        W98464   8.217   5.859   2.897
38962W        W98465  10.299  10.717   0.414
38963W        W98466  11.642  44.423   1.413
38964W        W98467  19.585  13.246  10.644
38965W        W98468  11.665  21.115  14.856
38966W        W98469   7.202  27.449  13.360
38967W        W98470   0.372   0.370  13.847
38968W        W98471  40.407   9.825  14.369
38969W        W98472   8.662  35.399   4.648
38970W        W98473  33.073  43.786  13.917
38971W        W98474  41.963  32.575   3.243
38972W        W98475  17.080  30.938  10.546
38973W        W98476   6.862   4.213  13.486
38974W        W98477  29.071  15.101   1.776
38975W        W98478   0.485  13.213  14.505
38976W        W98479   6.368  23.178  14.448
38977W        W98480  30.602  37.565   2.871
38978W        W98481  22.540  17.064   1.446
38979W        W98482  12.241  43.514   4.174
38980W        W98483  37.399  23.203   1.877
38981W        W98484  19.212  26.587  10.980
38982W        W98485  31.494   0.288   0.412
38983W        W98486   2.823  22.043  14.910
38984W        W98487  30.601  27.018  11.935
38985W        W98488  32.445  32.029   3.189
38986W        W98489  39.969   5.384   3.729
38987W        W98490  40.488  38.558   1.368
38988W        W98491  33.984   9.392   2.349
38989W        W98492  12.827  42.941   2.274
38990W        W98493   0.471  43.844   5.756
38991W        W98494  41.864  32.896  14.830
38992W        W98495  28.551  17.176  11.460
38993W        W98496   7.417  42.297  12.848
38994W        W98497  16.583   7.816  14.438
38995W        W98498  37.559  25.510   1.235
38996W        W98499  30.604  25.576   2.225
38997W        W98500  39.389  12.650  12.342
38998W        W98501  23.567  25.542   4.626
38999W        W98502  10.311  34.604  11.439
39000W        W98503  39.384   4.237  11.982
39001W        W98504  11.848  43.021  10.968
39002W        W98505  33.542   0.836   4.629
39003W        W98506  25.147  24.603   0.941
39004W        W98507  32.633  31.471   0.814
39005W        W98508  17.223   3.795   1.718
39006W        W98509  23.011  44.917  12.378
39007W        W98510  31.074  43.906   2.831
39008W        W98511  38.535   4.794   4.212
39009W        W98512  14.752  30.104  12.580
39010W        W98513  43.964  28.471   9.601
39011W        W98514  44.005   9.702  11.430
39012W        W98515  24.219  37.993  10.527
39013W        W98516  15.581  28.045  10.512
39014W        W98517  38.848  21.558  12.905
39015W        W98518  30.091  19.751   4.639
39016W        W98519  31.139  24.132   4.649
39017W        W98520   5.239  38.546  13.517
39018W        W98521  35.913  24.655   1.786
39019W        W98522  15.104  23.718  14.802
39020W        W98523  29.968  28.613   0.916
39021W        W98524  35.924  28.031   3.357
39022W        W98525  43.891   3.854  12.895
39023W        W98526  29.978   5.338   2.309
39024W        W98527  33.519  34.002  14.831
39025W        W98528  14.650   3.280   4.296
39026W        W98529   9.665  25.529  11.375
39027W        W98530  29.967  14.727   4.187
39028W        W98531  34.913   4.944   4.248
39029W        W98532  26.606  38.532  12.036
39030W        W98533  44.392  17.711  14.845
39031W        W98534   7.212  44.950   1.795
39032W        W98535  23.664  23.656  14.386
39033W        W98536  24.183  39.518  10.473
39034W        W98537   0.932  11.282   0.300
39035W        W98538  24.587   5.337   0.260
39036W        W98539  40.392  35.024   1.211
39037W        W98540  16.623  43.003   9.937
39038W        W98541  15.265  39.923   2.304
39039W        W98542  25.138  28.999  13.489
39040W        W98543  15.598  31.062   2.692
39041W        W98544  11.290  30.967  10.449
39042W        W98545  39.373  14.315  13.506
39043W        W98546   1.768  33.918  11.124
39044W        W98547  37.475   6.848   2.227
39045W        W98548  24.596  10.331  14.442
39046W        W98549  12.285   1.904   3.374
39047W        W98550   4.753  27.070  13.881
39048W        W98551  38.835  31.977   3.189
39049W        W98552  30.118   1.332  11.575
39050W        W98553  20.124   0.872  12.980
39051W        W98554   6.428  34.553  10.518
39052W        W98555  37.020  17.666  13.812
39053W        W98556  22.076  22.680  12.402
39054W        W98557  32.567  34.966  13.026
39055W        W98558   3.421  29.107   2.356
39056W        W98559  34.903  28.564  12.878
39057W        W98560  18.174  14.135   3.826
39058W        W98561   2.418  26.458  12.450
39059W        W98562  22.704  30.922  13.848
39060W        W98563  19.164  34.371  14.898
39061W        W98564  30.977  20.690   3.281
39062W        W98565  12.231  16.272  10.447
39063W        W98566  36.929  39.410  11.428
39064W        W98567  36.423   6.382   4.120
39065W        W98568   6.808   6.373   4.683
39066W        W98569  18.732  34.949   4.721
39067W        W98570  29.480  44.804   2.280
39068W        W98571  38.824   0.863  11.017
39069W        W98572  13.108   9.281  10.597
39070W        W98573  33.103  15.175  10.936
39071W        W98574  35.920  10.172   3.372
39072W        W98575  13.286  29.038   5.282
39073W        W98576  18.674   5.282  13.961
39074W        W98577  26.064  13.693  14.812
39075W        W98578   5.745  30.972  10.587
39076W        W98579  31.519   0.744  13.979
39077W        W98580  25.515  40.437   2.354
39078W        W98581  20.568  18.772  13.917
39079W        W98582  22.214   9.270   3.153
39080W        W98583  43.372  21.722   3.298
39081W        W98584   2.235   8.163  13.461
39082W        W98585  21.616  43.831   1.383
39083W        W98586  15.758   2.384  11.902
39084W        W98587  26.532  22.072   1.387
39085W        W98588  41.488   9.752   3.350
39086W        W98589  39.356   1.970   3.812
39087W        W98590  30.591   6.775   3.671
39088W        W98591  11.775  40.464   2.192
39089W        W98592  34.042  39.363   2.264
39090W        W98593  37.868  35.875  13.035
39091W        W98594   0.475  40.377  12.405
39092W        W98595   7.732  19.069   2.266
39093W        W98596  19.645  42.509   1.249
39094W        W98597  35.011  43.953  14.440
39095W        W98598  44.921  39.816   0.410
39096W        W98599  36.067   9.801   4.687
39097W        W98600  17.093  21.551  11.900
39098W        W98601  27.641  13.116  14.502
39099W        W98602   8.869  10.256   2.283
39100W        W98603  21.592  41.362  13.519
39101W        W98604  37.058  42.498   0.779
39102W        W98605   9.757  13.143  14.997
39103W        W98606  15.269   7.239  10.478
39104W        W98607  20.742  22.630  12.959
39105W        W98608  33.605  20.072   4.610
39106W        W98609  16.141  37.393   3.228
39107W        W98610  16.709  22.521   1.699
39108W        W98611  27.048  23.696   1.446
39109W        W98612  36.357   2.288   2.321
39110W        W98613  40.003  25.483   3.697
39111W        W98614   4.415  10.155   2.830
39112W        W98615  26.208   1.892  11.957
39113W        W98616   3.305  22.542   0.775
39114W        W98617  12.687  19.648   2.866
39115W        W98618  20.651  38.006  11.050
39116W        W98619  39.925  27.501  14.792
39117W        W98620  13.127  37.527  13.827
39118W        W98621  13.794  19.111  10.519
39119W        W98622  21.590  32.008   0.882
39120W        W98623  15.705  39.449  14.899
39121W        W98624  21.140   4.290   3.819
39122W        W98625   3.222  24.613  11.601
39123W        W98626  19.641  21.732   2.247
39124W        W98627   8.359  28.582  11.445
39125W        W98628  23.725  43.776   2.248
39126W        W98629  30.912   5.868   2.192
39127W        W98630   1.838  32.076  14.925
39128W        W98631  29.503   2.276  14.417
39129W        W98632   9.723  18.237  12.843
39130W        W98633  24.539  17.780  11.879
39131W        W98634  13.250  25.217   1.297
39132W        W98635   6.782  43.488   1.765
39133W        W98636  20.259  22.694   4.326
39134W        W98637  21.262  42.864   1.880
39135W        W98638  36.955  14.697   3.178
39136W        W98639   1.787  13.145   3.733
39137W        W98640  14.121  34.450   4.832
39138W        W98641  41.971  21.073  10.430
39139W        W98642  23.077  11.183  10.550
39140W        W98643   7.193  31.624   3.781
39141W        W98644  26.611  27.633   2.407
39142W        W98645  20.030   9.175  14.493
39143W        W98646  13.347   7.176   1.831
39144W        W98647  42.910  17.222   2.712
39145W        W98648  15.779  33.075   0.961
39146W        W98649  22.641  16.198   4.639
39147W        W98650  38.336  24.537   4.350
39148W        W98651  18.694  42.780   4.769
39149W        W98652   3.382  34.522  10.983
39150W        W98653  16.146  33.056   0.329
39151W        W98654   6.771   7.172  13.347
39152W        W98655   5.724  22.116  10.917
39153W        W98656  14.808   3.930  14.021
39154W        W98657  32.132  17.290   9.491
39155W        W98658  37.954  37.526   3.370
39156W        W98659  20.065  35.897   9.974
39157W        W98660   4.406  14.824   4.271
39158W        W98661  14.310  31.565  14.891
39159W        W98662  23.511   1.339  12.829
39160W        W98663  17.178  34.070  10.609
39161W        W98664  17.061   3.792  12.572
39162W        W98665  43.769  19.643  10.613
39163W        W98666  21.029  43.386  13.516
39164W        W98667  15.635  15.682  13.853
39165W        W98668  36.466  35.567  14.852
39166W        W98669   6.833   4.779  12.900
39167W        W98670  32.453  30.520  14.982
39168W        W98671  25.599  24.505   4.785
39169W        W98672   6.332   3.903  12.472
39170W        W98673  10.795  14.693  11.941
39171W        W98674  10.686  18.618   0.908
39172W        W98675  10.671  31.919   9.561
39173W        W98676  43.514   9.702   2.671
39174W        W98677  18.685  28.009   0.369
39175W        W98678  23.999  17.111  14.420
39176W        W98679  15.282  38.396   3.822
39177W        W98680  14.178  30.994   4.184
39178W        W98681  41.347  11.752   3.805
39179W        W98682  30.974   6.691  11.880
39180W        W98683  11.332  27.162  11.414
39181W        W98684  13.832  38.459   3.223
39182W        W98685  15.687   7.798  11.938
39183W        W98686  38.847  25.208   2.353
39184W        W98687  39.001   2.273   4.756
39185W        W98688  44.847  31.060   0.948
39186W        W98689  26.063   6.279   1.835
39187W        W98690  25.581   6.409   1.785
39188W        W98691  11.355   5.240  14.986
39189W        W98692  10.203  29.166  13.944
39190W        W98693  43.969  21.754   2.728
39191W        W98694  24.525  23.538   2.702
39192W        W98695   1.356  29.977   1.228
39193W        W98696   4.876   0.341  14.431
39194W        W98697  36.435   9.880   1.413
39195W        W98698  27.169  15.633   0.440
39196W        W98699  10.235  33.603   4.812
39197W        W98700   7.233  34.025  14.869
39198W        W98701  40.841  33.468   3.175
39199W        W98702   3.343  36.942  11.904
39200W        W98703  15.126  26.005   0.449
39201W        W98704  37.528  40.339   5.181
39202W        W98705  12.145  35.515   5.265
39203W        W98706  28.007  28.997   3.736
39204W        W98707  39.421   4.292   0.481
39205W        W98708  18.221  26.691  14.493
39206W        W98709  44.852  24.616  12.378
39207W        W98710  34.569  32.552  11.951
39208W        W98711   6.897   7.175   4.716
39209W        W98712   8.249  34.434   4.746
39210W        W98713   7.726  28.119  14.380
39211W        W98714   8.313   7.183  12.086
39212W        W98715   5.796  34.437   3.383
39213W        W98716  36.484  30.938   4.716
39214W        W98717  14.167  11.333  14.280
39215W        W98718  21.212  27.121   1.223
39216W        W98719  28.584   1.805   2.410
39217W        W98720  16.642  43.925   4.133
39218W        W98721   3.942  37.966   2.380
39219W        W98722  42.302  29.982  12.449
39220W        W98723  43.422   7.319  12.992
39221W        W98724  43.328  10.813   4.117
39222W        W98725  15.700  11.746   4.190
39223W        W98726  39.425  20.054   2.685
39224W        W98727  14.329  23.084  12.341
39225W        W98728  30.024  36.949   3.283
39226W        W98729  26.048  29.997   1.790
39227W        W98730  25.068  13.626  12.857
39228W        W98731  17.769  11.722  11.958
39229W        W98732  31.425  44.424  11.558
39230W        W98733  41.973  24.503   0.921
39231W        W98734  28.596  18.735  10.912
39232W        W98735  11.348  38.973  12.501
39233W        W98736   7.719  44.349   4.816
39234W        W98737  39.538  29.982   3.160
39235W        W98738  39.442  30.094  11.876
39236W        W98739  34.434  27.508  11.504
39237W        W98740  43.921  42.857   3.364
39238W        W98741  14.138  13.666   3.363
39239W        W98742  40.801  33.467  12.573
39240W        W98743  31.941   7.361   4.626
39241W        W98744   8.864  27.179   2.800
39242W        W98745   8.840  32.890   0.285
39243W        W98746   1.826  35.448  10.994
39244W        W98747  33.922  29.977  14.366
39245W        W98748  26.123  37.529  14.996
39246W        W98749  39.499  32.128   1.696
39247W        W98750  25.125  10.356   4.725
39248W        W98751  12.817   8.286   1.256
39249W        W98752  38.049  41.538   3.836
39250W        W98753  35.071  37.491  13.512
39251W        W98754  33.987  11.143  11.927
39252W        W98755  16.803   6.703   4.795
39253W        W98756   6.719   5.802   0.936
39254W        W98757   2.950  11.656   0.729
39255W        W98758  25.966  23.646   2.352
39256W        W98759  19.658  16.576   0.330
39257W        W98760   4.283  16.702   3.663
39258W        W98761  37.974  27.021  12.850
39259W        W98762  25.655  42.994   2.876
39260W        W98763   9.173  10.319   3.635
39261W        W98764  13.196   2.880  13.834
39262W        W98765   3.906  20.662  11.860
39263W        W98766  44.350   1.457  10.888
39264W        W98767  42.898   3.956   3.270
39265W        W98768  26.064  30.066   3.672
39266W        W98769   8.693  11.764   4.163
39267W        W98770  11.799  32.515  14.389
39268W        W98771  43.289  35.452   3.795
39269W        W98772   3.736   7.285   1.841
39270W        W98773  37.474  11.643   0.848
39271W        W98774   5.858   0.814   3.270
39272W        W98775  27.188  42.297   0.925
39273W        W98776   7.832  22.076   0.810
39274W        W98777  11.168   4.365   1.823
39275W        W98778  37.468  12.218  12.504
39276W        W98779  14.826   0.364   2.740
39277W        W98780  41.350  40.428  10.454
39278W        W98781  42.996  41.514  13.793
39279W        W98782  39.963  33.625   0.732
39280W        W98783  39.398  23.628  12.435
39281W        W98784  32.454   7.322   1.837
39282W        W98785  33.116   0.336  13.928
39283W        W98786  35.587  28.557  10.452
39284W        W98787   7.319  17.232   2.226
39285W        W98788  13.268  38.480   0.399
39286W        W98789  37.853  17.778  13.423
39287W        W98790   7.772  26.594   9.970
39288W        W98791   6.791  24.123   0.789
39289W        W98792  30.455  35.377   1.703
39290W        W98793  19.701   1.374   0.937
39291W        W98794  34.025   8.275  12.961
39292W        W98795  21.149  11.322   1.284
39293W        W98796  12.149  28.523   4.813
39294W        W98797  31.480  30.452   3.861
39295W        W98798  43.783  15.237  13.947
39296W        W98799  35.109  15.189  14.332
39297W        W98800  14.737   2.332   1.743
39298W        W98801  20.175  12.660   2.814
39299W        W98802  15.229  13.791   2.688
39300W        W98803   1.255  28.505   5.277
39301W        W98804  40.811  20.676   2.742
39302W        W98805  25.652   7.180   4.673
39303W        W98806  20.198   4.234   4.213
39304W        W98807  20.699  38.338  11.993
39305W        W98808  40.041  44.002  11.508
39306W        W98809  35.071  11.253  12.007
39307W        W98810   4.802  39.852   3.800
39308W        W98811   4.367  40.903   0.819
39309W        W98812  31.992  39.353  12.527
39310W        W98813  25.976  20.174   3.720
39311W        W98814  13.625  44.266  13.811
39312W        W98815  18.135  30.061  11.583
39313W        W98816  37.895  13.241   3.833
39314W        W98817  21.080  12.334  14.000
39315W        W98818  10.788  26.982  14.296
39316W        W98819  38.978  34.505  12.515
39317W        W98820  17.279  33.920   3.285
39318W        W98821   9.734  23.999  10.404
39319W        W98822   9.385  32.465  13.902
39320W        W98823  20.580   3.871  12.926
39321W        W98824   2.254   1.812  12.571
39322W        W98825   3.815  35.970   3.769
39323W        W98826  26.596  14.260   5.182
39324W        W98827   0.315  29.955  13.385
39325W        W98828   2.243   5.206  11.023
39326W        W98829   3.427   8.307   0.461
39327W        W98830  14.156  28.991  10.448
39328W        W98831  44.850  32.435  12.568
39329W        W98832  26.648   2.451   2.793
39330W        W98833  37.471  35.060   1.273
39331W        W98834  27.175  21.083   3.734
39332W        W98835  15.624  41.949   5.281
39333W        W98836  17.193  30.453  10.993
39334W        W98837  36.361  30.041  13.330
39335W        W98838  15.654  26.205  13.520
39336W        W98839  40.887  20.767   1.223
39337W        W98840  15.263  37.018   2.400
39338W        W98841  35.067  32.008  10.027
39339W        W98842  16.210  33.003  13.339
39340W        W98843   7.411  41.037  10.504
39341W        W98844  10.222  13.286   2.848
39342W        W98845  22.644   4.894   0.437
39343W        W98846  25.062  35.868   4.633
39344W        W98847  24.155  41.038   4.797
39345W        W98848  35.957  18.191   0.289
39346W        W98849  29.436   8.707  14.924
39347W        W98850  27.987  35.587  10.476
39348W        W98851  11.168  38.849  14.853
39349W        W98852  39.398  37.474   2.293
39350W        W98853  16.088   4.940   4.337
39351W        W98854  18.180  20.256  13.433
39352W        W98855  39.823  21.599  10.637
39353W        W98856  13.227  38.879  11.484
39354W        W98857  33.114  18.658   2.259
39355W        W98858   0.873  31.983  10.119
39356W        W98859  40.526  21.100   0.442
39357W        W98860  29.517  32.405  10.510
39358W        W98861  38.929   8.816  12.918
39359W        W98862   6.896  38.339  11.429
39360W        W98863   5.334  39.391   2.799
39361W        W98864  35.511   3.901   0.318
39362W        W98865   4.891  24.123   0.726
39363W        W98866  27.035  37.504  11.999
39364W        W98867  36.070  40.848   2.371
39365W        W98868  39.057  17.750   0.814
39366W        W98869  22.708  27.052   1.328
39367W        W98870   8.239  42.964   1.223
39368W        W98871  39.408  31.612   3.231
39369W        W98872   9.372  20.730   3.170
39370W        W98873   5.396  19.570   3.842
39371W        W98874  28.615  13.843   1.238
39372W        W98875  32.995  24.568   4.803
39373W        W98876  31.588  10.214  13.061
39374W        W98877  20.124  38.499   1.213
39375W        W98878  43.875  20.081   3.772
39376W        W98879  20.181  42.318  13.871
39377W        W98880  11.144  21.069  10.640
39378W        W98881  39.371  13.187  11.076
39379W        W98882  35.532  27.473  14.941
39380W        W98883   5.823  17.257  12.952
39381W        W98884   6.847  40.939   3.663
39382W        W98885  29.643  34.079   4.248
39383W        W98886   1.933  28.479  11.078
39384W        W98887   2.789  30.001  12.939
39385W        W98888  42.807   7.337   9.481
39386W        W98889   1.455  17.097   1.231
39387W        W98890  19.710  26.046  10.436
39388W        W98891  37.425  14.793   1.770
39389W        W98892  31.086  42.817  10.063
39390W        W98893  13.338   8.405   0.876
39391W        W98894  44.820   3.348   3.271
39392W        W98895  13.192  43.484   4.342
39393W        W98896  33.999  29.585   3.329
39394W        W98897   2.261  28.507  11.900
39395W        W98898  31.643  13.280  13.013
39396W        W98899  20.179  27.639  12.068
39397W        W98900  17.649  37.943  10.485
39398W        W98901  31.941  30.462  11.432
39399W        W98902  16.766   9.167  11.579
39400W        W98903  25.482  24.008   4.836
39401W        W98904  32.051  42.939   0.847
39402W        W98905  28.654  14.266   1.227
39403W        W98906  27.577   6.286  14.980
39404W        W98907  44.997   2.836   1.807
39405W        W98908  38.424   2.311   3.642
39406W        W98909   9.678   4.851  12.371
39407W        W98910  14.769  13.143   4.303
39408W        W98911  18.190  10.865  10.978
39409W        W98912  19.238  24.003   2.741
39410W        W98913  17.066  25.071  12.400
39411W        W98914  20.748  29.980   1.842
39412W        W98915  18.668  13.202   5.265
39413W        W98916  19.226  13.122  13.926
39414W        W98917  20.166   4.839   1.430
39415W        W98918  38.468  16.149   2.214
39416W        W98919  29.527  44.455  11.048
39417W        W98920  21.658   6.765   4.339
39418W        W98921   5.228   8.719  14.334
39419W        W98922  22.049  36.942  10.964
39420W        W98923  38.537  36.954   0.336
39421W        W98924  37.921  23.201   3.337
39422W        W98925   2.350  36.848  12.527
39423W        W98926  32.430  39.468   3.173
39424W        W98927  41.502  25.078   4.830
39425W        W98928  23.507  26.170   4.257
39426W        W98929   6.779  10.780   4.178
39427W        W98930  35.598  10.808  12.027
39428W        W98931   4.776  16.587   3.214
39429W        W98932  34.395  14.645   2.760
39430W        W98933  20.612  30.019   1.255
39431W        W98934  28.624   7.669   1.289
39432W        W98935  31.125  10.793  10.926
39433W        W98936   0.290   2.308  11.100
39434W        W98937  42.310  14.631  11.542
39435W        W98938  33.990  13.340  11.996
39436W        W98939  15.736  20.106  12.998
39437W        W98940   9.678   5.769   1.267
39438W        W98941  32.978  42.304   2.701
39439W        W98942   8.335   8.856   1.720
39440W        W98943  37.356   3.324  12.560
39441W        W98944  25.206  42.888   3.833
39442W        W98945   9.176   7.175   3.286
39443W        W98946  10.691  41.404  13.926
39444W        W98947  10.718  21.195   1.275
39445W        W98948  41.013  30.934   4.619
39446W        W98949  10.699  19.145  11.078
39447W        W98950   3.284  16.175   1.253
39448W        W98951  41.530   8.817  13.546
39449W        W98952   4.762  20.621  13.400
39450W        W98953  29.091   5.903  11.866
39451W        W98954  22.231  22.216  13.993
39452W        W98955  25.669  24.034   2.901
39453W        W98956  22.090  18.097  13.532
39454W        W98957  39.509  33.994   0.455
39455W        W98958  27.590  42.334   4.709
39456W        W98959  37.501  22.075   0.737
39457W        W98960   0.406  31.627   0.850
39458W        W98961  11.786  19.573   0.920
39459W        W98962  41.375  12.170   0.904
39460W        W98963   3.423  19.127   2.292
39461W        W98964  18.189  43.401   4.238
39462W        W98965  23.043  39.009  13.453
39463W        W98966  32.031  31.140   3.797
39464W        W98967  16.570  28.579  10.539
39465W        W98968  33.595   5.858  10.964
39466W        W98969  17.561  43.332   3.652
39467W        W98970  36.986  39.053   4.691
39468W        W98971  24.586  25.150  13.835
39469W        W98972  30.553   8.372  10.538
39470W        W98973   2.286  28.662   2.249
39471W        W98974  41.434   2.826   4.267
39472W        W98975  25.012   4.902   4.668
39473W        W98976  18.690  21.752   1.819
39474W        W98977   2.407  25.075  13.901
39475W        W98978   1.838  31.917   4.223
39476W        W98979  43.429  16.791  14.474
39477W        W98980  10.749  32.476   1.854
39478W        W98981  36.418  19.100  10.431
39479W        W98982   5.416  37.385  13.348
39480W        W98983  27.475  16.680   4.604
39481W        W98984  31.033  19.575  14.502
39482W        W98985   0.930  37.522  14.004
39483W        W98986  16.297   3.775  11.404
39484W        W98987  28.506  15.744   4.221
39485W        W98988  40.926  10.879  11.472
39486W        W98989  20.614  27.950  14.367
39487W        W98990  29.021  12.789   4.341
39488W        W98991  30.023   8.792   4.616
39489W        W98992  16.804   1.833   1.725
39490W        W98993  16.106  19.770  12.467
39491W        W98994  14.663  28.646   3.354
39492W        W98995  10.138  34.029   0.299
39493W        W98996  27.613   4.927  14.792
39494W        W98997  24.602   7.189   4.259
39495W        W98998  16.090   6.197   3.810
39496W        W98999  35.007  31.092  12.851
39497W        W99000  33.444  33.483  13.442
39498W        W99001   8.673  21.645  11.105
39499W        W99002  41.022   8.728   3.839
39500W        W99003   4.747   3.412   0.245
39501W        W99004  35.938   6.759  12.469
39502W        W99005   6.866  18.762  10.072
39503W        W99006  14.761  33.457  11.998
39504W        W99007  40.961  31.062  10.923
39505W        W99008  33.125  21.101   2.817
39506W        W99009  40.532  44.500  13.497
39507W        W99010  14.212  26.550  13.409
39508W        W99011  38.402  42.361  14.877
39509W        W99012  40.853  17.230   3.183
39510W        W99013  34.995  21.017  13.835
39511W        W99014  40.453  22.225   3.161
39512W        W99015   0.875  31.450  11.916
39513W        W99016   1.922  28.952   0.912
39514W        W99017   8.244  17.679  12.848
39515W        W99018  35.001  42.842   4.666
39516W        W99019  16.074   3.270   4.198
39517W        W99020  42.331   3.362   2.829
39518W        W99021  29.156  10.384  12.083
39519W        W99022  29.590   9.315   0.251
39520W        W99023  27.059  29.954   0.250
39521W        W99024  23.099  34.013   2.317
39522W        W99025   6.847  23.704   3.384
39523W        W99026  43.862   8.203   3.667
39524W        W99027  23.206  35.920   4.679
39525W        W99028  17.699  35.422   0.728
39526W        W99029  12.313  18.230  13.926
39527W        W99030  38.853  29.623  12.376
39528W        W99031  18.611  12.636   1.754
39529W        W99032  30.073  30.539   2.849
39530W        W99033  36.922  22.571   2.336
39531W        W99034   1.339  12.116   4.178
39532W        W99035   7.350   0.798  12.015
39533W        W99036  18.102   2.824  11.462
39534W        W99037  42.003   6.842  10.035
39535W        W99038   0.349  44.938  13.394
39536W        W99039   3.399  37.904   2.270
39537W        W99040  21.611  12.131   4.258
39538W        W99041  41.315  28.520   0.373
39539W        W99042   6.845  13.326   4.131
39540W        W99043  33.598  13.132   0.727
39541W        W99044  39.433  12.160  14.002
39542W        W99045  43.296  13.603  11.008
39543W        W99046  40.832  26.601  12.089
39544W        W99047   0.491  39.955  13.811
39545W        W99048   6.865  30.626  10.451
39546W        W99049  26.153  27.170  13.510
39547W        W99050  30.004  14.269   1.377
39548W        W99051  33.084  23.164  14.995
39549W        W99052  34.394  24.664   1.763
39550W        W99053  42.468  17.213  14.413
39551W        W99054  38.027  12.702  12.896
39552W        W99055  34.582  23.510  13.403
39553W        W99056   4.789  11.676   4.296
39554W        W99057  44.794  33.550   2.257
39555W        W99058   9.387   8.802  11.869
39556W        W99059   1.883  34.980  13.333
39557W        W99060  21.749   5.311   4.124
39558W        W99061  38.012  35.940   4.726
39559W        W99062  27.088  34.515   1.805
39560W        W99063  31.943  19.603  13.911
39561W        W99064  22.114  44.386  14.499
39562W        W99065  16.721   9.163   0.756
39563W        W99066  37.004  33.884  11.938
39564W        W99067   2.278  19.222   0.285
39565W        W99068  27.648  37.861  10.974
39566W        W99069  10.836   0.863   3.170
39567W        W99070  36.513  37.384   4.811
39568W        W99071  15.600   3.224   2.869
39569W        W99072  28.166  42.355  11.954
39570W        W99073  26.503   3.279  11.545
39571W        W99074  34.906   5.745   4.714
39572W        W99075  10.237  33.610  13.849
39573W        W99076   7.831  29.641  13.016
39574W        W99077   7.900  12.271   3.217
39575W        W99078  35.913  42.510  13.797
39576W        W99079  23.091   7.890   1.733
39577W        W99080  23.548  33.472  13.852
39578W        W99081  18.224  36.489   0.781
39579W        W99082  26.700  31.606   3.230
39580W        W99083   9.390  41.441  10.916
39581W        W99084  31.009  31.059   4.173
39582W        W99085   7.841  14.137   0.948
39583W        W99086   3.239   9.341   0.395
39584W        W99087  19.228  30.478  12.523
39585W        W99088  22.141  22.168  11.492
39586W        W99089  16.249  31.644   4.186
39587W        W99090  26.165  32.990   4.714
39588W        W99091   3.855  26.085  14.874
39589W        W99092  39.908  26.533  13.467
39590W        W99093  14.778  19.647   4.838
39591W        W99094   8.851  43.375   4.295
39592W        W99095  33.076  18.783   3.818
39593W        W99096  20.767   6.231   4.287
39594W        W99097  39.943   5.874  11.453
39595W        W99098   7.844  28.160   4.179
39596W        W99099   5.852   6.213  11.998
39597W        W99100  30.095  38.358  11.575
39598W        W99101   7.384  21.021  11.060
39599W        W99102  19.742  43.385  11.018
39600W        W99103  31.148  44.872  12.412
39601W        W99104  24.567   2.227  11.932
39602W        W99105  15.140   9.289  14.338
39603W        W99106   5.801  44.465   1.385
39604W        W99107  34.108  14.735  11.951
39605W        W99108  28.444  40.859   0.743
39606W        W99109  42.903  20.635   0.342
39607W        W99110  31.556  31.441   4.163
39608W        W99111  10.702   1.337  10.503
39609W        W99112  35.870  32.932   3.319
39610W        W99113   4.909  26.534   4.302
39611W        W99114   4.406   8.877   0.945
39612W        W99115  13.697  22.996  13.481
39613W        W99116   3.783  25.989   4.714
39614W        W99117  28.653  35.529  11.035
39615W        W99118  19.210  19.687   4.792
39616W        W99119  31.432  29.549   3.650
39617W        W99120   8.658   5.431   3.219
39618W        W99121  42.387   9.827  11.888
39619W        W99122   4.747   6.399  12.363
39620W        W99123  17.160   4.217  10.438
39621W        W99124  39.835  30.459   2.757
39622W        W99125   6.242  32.544   2.294
39623W        W99126   6.324  15.133   2.665
39624W        W99127  38.426  10.268   2.663
39625W        W99128   2.272  42.976  13.345
39626W        W99129  12.770  39.411  13.334
39627W        W99130  32.582  13.834  14.809
39628W        W99131  33.534  39.036   3.285
39629W        W99132  44.000  42.977  10.417
39630W        W99133  26.085  24.678  11.587
39631W        W99134   6.689   8.899   4.642
39632W        W99135  30.589  25.172  10.482
39633W        W99136  44.373  12.843   3.695
39634W        W99137   8.790  29.048   1.723
39635W        W99138   2.462   4.258   3.775
39636W        W99139   0.873  39.406   1.912
39637W        W99140  40.914  16.711   3.677
39638W        W99141  21.562  23.232  11.067
39639W        W99142  12.808  38.396   4.662
39640W        W99143  11.782  39.845   3.223
39641W        W99144  18.683   6.208   0.737
39642W        W99145  44.459  18.666  14.390
39643W        W99146   7.762   4.383  12.885
39644W        W99147   9.273   6.228  11.516
39645W        W99148  29.609  43.770  13.044
39646W        W99149  36.043  36.943   1.335
39647W        W99150  13.817   5.862  11.979
39648W        W99151  28.181  27.078  11.550
39649W        W99152   4.357  42.823  10.630
39650W        W99153  41.010  44.457   2.377
39651W        W99154  43.451  39.858   4.718
39652W        W99155  16.696  43.834   1.264
39653W        W99156  32.915  32.553  13.406
39654W        W99157   8.268  38.072   3.814
39655W        W99158  16.163   9.194   3.653
39656W        W99159  28.638  10.840  11.476
39657W        W99160  20.116   8.872   4.717
39658W        W99161  25.077   6.270  14.937
39659W        W99162  16.249  43.010   4.763
39660W        W99163  13.757  26.671   1.387
39661W        W99164  24.072  14.266  10.920
39662W        W99165  31.969   5.264   4.633
39663W        W99166   8.722  34.021  11.962
39664W        W99167  29.649  44.771  12.960
39665W        W99168  21.107  34.031  12.474
39666W        W99169  26.134  31.922   3.182
39667W        W99170   3.461  24.542   4.779
39668W        W99171   0.427  14.612   4.814
39669W        W99172  30.416  31.507  13.355
39670W        W99173  24.625  18.157  14.911
39671W        W99174  26.186  20.749  10.601
39672W        W99175  11.153  38.533   3.195
39673W        W99176   6.349  21.530  13.313
39674W        W99177  17.735  21.668  12.410
39675W        W99178  32.031   9.658   3.358
39676W        W99179   5.864  37.058   2.781
39677W        W99180  43.991  13.838   2.201
39678W        W99181   6.278   7.344   0.766
39679W        W99182  44.950  19.539  12.935
39680W        W99183   6.687  15.306   3.163
39681W        W99184  35.589   6.870   3.222
39682W        W99185  26.031  12.710  12.082
39683W        W99186  32.433  34.071   4.772
39684W        W99187  35.038  33.884  13.499
39685W        W99188   3.740   2.932   0.874
39686W        W99189  30.037   9.778   1.768
39687W        W99190  42.435  44.000  14.302
39688W        W99191  35.529  24.007  10.512
39689W        W99192  28.671  34.911   2.371
39690W        W99193  39.004  15.321  12.057
39691W        W99194   1.241   6.288  12.948
39692W        W99195  22.049   1.469  13.046
39693W        W99196   1.239   0.958   4.314
39694W        W99197  13.124  37.413  10.136
39695W        W99198   6.244   3.311  14.790
39696W        W99199  31.038  22.556  11.945
39697W        W99200  16.233  19.623   0.459
39698W        W99201  28.493  36.507  13.527
39699W        W99202  16.198  41.326  13.542
39700W        W99203   9.339  21.742   1.772
39701W        W99204   5.250  30.412  12.554
39702W        W99205  16.240  22.642  12.450
39703W        W99206   3.778  39.363   1.787
39704W        W99207  36.506  43.787  14.420
39705W        W99208  42.501  17.138   1.295
39706W        W99209  14.137  28.624   3.674
39707W        W99210   1.775  31.557  11.090
39708W        W99211  31.595   2.734  13.455
39709W        W99212  34.069  26.194  12.849
39710W        W99213  25.560  23.490  12.949
39711W        W99214  39.328  28.055  10.021
39712W        W99215  42.309  44.493   3.838
39713W        W99216  23.996  42.986   3.697
39714W        W99217  34.087  11.632  14.990
39715W        W99218  34.909  26.489   3.365
39716W        W99219  20.033  10.259  13.064
39717W        W99220  13.638  39.523   2.790
39718W        W99221  14.829  29.098  12.420
39719W        W99222  31.589  16.764  10.548
39720W        W99223  39.481  12.313   4.114
39721W        W99224   1.349  44.785   3.249
39722W        W99225  10.749  33.505  11.869
39723W        W99226   4.422  29.640   0.427
39724W        W99227  37.990  25.651   4.650
39725W        W99228   5.691  16.698  14.394
39726W        W99229   0.292  26.158   5.214
39727W        W99230  11.657   1.478   1.242
39728W        W99231  18.088  30.627  12.406
39729W        W99232  24.029  23.523  10.960
39730W        W99233  24.149  17.772   2.677
39731W        W99234  23.188   2.356   0.431
39732W        W99235  21.085  23.534  14.787
39733W        W99236  43.452   7.698  13.062
39734W        W99237   2.882   9.843   4.599
39735W        W99238   9.850   8.203   3.303
39736W        W99239  38.453  40.391   3.343
39737W        W99240  18.236  12.796   2.796
39738W        W99241  43.975  36.922  14.339
39739W        W99242  40.806  24.087  11.859
39740W        W99243   1.434  18.568   1.317
39741W        W99244   6.293   4.902   1.850
39742W        W99245  32.541  20.129   0.759
39743W        W99246  44.495  40.352  13.422
39744W        W99247  11.840  41.852   1.836
39745W        W99248  38.856  27.673   2.868
39746W        W99249  24.205   4.278  13.836
39747W        W99250   7.816  42.886  10.971
39748W        W99251  16.581  15.288   2.874
39749W        W99252   0.818  29.573   3.360
39750W        W99253  35.510   5.752   3.836
39751W        W99254  32.484   3.773  12.842
39752W        W99255  23.194  27.187   0.320
39753W        W99256  16.141  25.064   4.133
39754W        W99257  24.184  44.437   0.340
39755W        W99258  14.675   5.369  12.029
39756W        W99259  27.544  18.141  13.521
39757W        W99260  25.001  36.446  13.993
39758W        W99261   2.275   7.334  14.337
39759W        W99262  42.837   6.213   1.707
39760W        W99263  42.455  39.898  12.393
39761W        W99264  36.992   0.462  12.420
39762W        W99265  16.098  34.010   1.340
39763W        W99266  44.328   0.332   4.687
39764W        W99267   1.385  26.043  10.028
39765W        W99268  28.128  22.591   5.229
39766W        W99269  42.368  24.520  11.439
39767W        W99270  11.666  16.131  10.460
39768W        W99271  20.744  36.415   2.414
39769W        W99272  33.504  34.065  12.093
39770W        W99273   2.885  29.536  12.344
39771W        W99274   6.286  34.369   3.725
39772W        W99275  28.530  28.531   1.917
39773W        W99276  23.568  23.995  13.935
39774W        W99277  38.352  37.955   3.254
39775W        W99278   6.750  20.221  11.604
39776W        W99279  16.617  34.069   0.281
39777W        W99280  18.189  12.257   4.629
39778W        W99281  37.412  38.985   2.220
39779W        W99282  13.642  17.150  12.423
39780W        W99283  13.152  36.450   4.766
39781W        W99284   7.377  30.438   0.369
39782W        W99285   5.381  18.692   2.789
39783W        W99286  43.794  36.568  12.036
39784W        W99287  22.606  27.150  12.093
39785W        W99288  18.575  30.659   0.807
39786W        W99289  34.866   4.810   0.827
39787W        W99290  31.450  41.926   1.341
39788W        W99291  17.195  31.138   4.748
39789W        W99292  27.450  12.830   2.241
39790W        W99293  30.915   8.304   1.847
39791W        W99294  29.533  13.710  13.896
39792W        W99295   2.449  22.089  10.893
39793W        W99296  36.552   7.266  14.961
39794W        W99297   0.897  43.894   1.317
39795W        W99298  33.883  18.687   0.737
39796W        W99299   9.733   8.695  11.976
39797W        W99300  34.015   0.861   4.752
39798W        W99301  21.199  13.349   4.806
39799W        W99302  42.032   7.867   4.224
39800W        W99303  20.628  34.419   0.926
39801W        W99304   7.840   8.333  12.918
39802W        W99305  22.172  11.648  14.860
39803W        W99306  28.123  22.084  10.944
39804W        W99307   6.348  38.558   0.847
39805W        W99308   7.772  10.284  10.065
39806W        W99309  27.602  31.037  13.981
39807W        W99310  20.061   3.409  10.416
39808W        W99311  27.641  37.482  12.080
39809W        W99312  17.687  44.377  11.420
39810W        W99313  19.535   5.697  14.332
39811W        W99314  14.248   6.358   3.197
39812W        W99315  22.554  35.032  13.367
39813W        W99316  39.514  22.603   3.274
39814W        W99317  21.028  14.267   9.975
39815W        W99318   3.361   9.725  13.985
39816W        W99319  21.530  20.199   4.764
39817W        W99320  15.213  41.352   0.876
39818W        W99321   7.384   9.769  13.839
39819W        W99322   3.399  15.674   5.219
39820W        W99323  19.586   5.243  12.455
39821W        W99324   8.316  19.126   3.631
39822W        W99325   2.805  32.897  10.889
39823W        W99326   3.831   0.365  13.511
39824W        W99327   6.279   2.251  13.375
39825W        W99328  12.747  17.695   4.240
39826W        W99329  13.164  43.014   3.195
39827W        W99330  28.023  38.013   2.714
39828W        W99331  35.046  22.656  10.492
39829W        W99332   8.244  32.434   5.625
39830W        W99333  17.268  35.371  11.916
39831W        W99334  36.842  15.650  12.082
39832W        W99335  41.452  23.182  11.582
39833W        W99336  33.899  21.175  10.439
39834W        W99337   6.750  20.211   2.664
39835W        W99338  38.966   6.760  12.385
39836W        W99339   7.212  11.320   3.671
39837W        W99340   0.440   0.757   3.826
39838W        W99341  35.375  24.576  12.478
39839W        W99342  27.610  10.324   4.227
39840W        W99343  41.335   7.726   2.391
39841W        W99344  39.040  40.920   2.316
39842W        W99345   3.880  13.839   0.936
39843W        W99346  18.690  21.046  12.526
39844W        W99347  12.159  30.616   0.294
39845W        W99348  20.132   1.410  12.539
39846W        W99349  12.845  13.703  14.471
39847W        W99350  30.925  10.757   4.780
39848W        W99351  16.075   6.259  10.096
39849W        W99352   0.913  27.462  13.876
39850W        W99353  36.028  37.865  14.325
39851W        W99354  38.544  43.288   0.298
39852W        W99355  38.538  21.615  13.824
39853W        W99356   5.296  27.466  11.933
39854W        W99357  32.519  25.646   3.153
39855W        W99358  25.594  33.951  14.016
39856W        W99359   6.912  28.066  10.638
39857W        W99360  31.041  43.445  11.403
39858W        W99361  27.112   8.736  14.510
39859W        W99362  20.186  16.274  12.019
39860W        W99363  18.243  42.383  13.315
39861W        W99364  39.934   6.199   3.285
39862W        W99365  44.274  25.207  11.570
39863W        W99366  16.623  44.884  14.860
39864W        W99367  22.604  38.545   0.902
39865W        W99368   5.412   3.763   0.460
39866W        W99369   4.216   2.790  12.870
39867W        W99370  36.965  43.428  10.548
39868W        W99371  32.615  10.281  11.874
39869W        W99372  38.020   8.819  11.558
39870W        W99373  17.197  27.486  14.844
39871W        W99374  18.756  29.004   2.779
39872W        W99375   1.262  20.176  10.087
39873W        W99376  44.453  36.884   2.756
39874W        W99377  41.341   6.807   2.227
39875W        W99378   6.723   0.879  11.520
39876W        W99379  20.602  19.147  14.923
39877W        W99380  39.369  29.464   0.423
39878W        W99381   5.320  25.472  11.577
39879W        W99382  22.600   7.879   0.445
39880W        W99383  41.341  15.248  13.854
39881W        W99384  29.658  39.351   4.299
39882W        W99385  14.824  26.464   1.329
39883W        W99386  36.404  43.846  14.979
39884W        W99387  36.465  10.716  12.553
39885W        W99388   0.306   8.877  11.985
39886W        W99389  16.081  39.489   1.216
39887W        W99390  42.824  30.570  10.907
39888W        W99391  40.864  28.648  13.898
39889W        W99392  39.379  10.709   0.294
39890W        W99393  13.693   5.893  11.594
39891W        W99394  39.953  12.807  14.861
39892W        W99395  38.958   2.900   0.808
39893W        W99396  22.659  33.406   1.779
39894W        W99397   6.366   8.672  11.888
39895W        W99398   0.852  26.538   2.280
39896W        W99399   5.322  43.409   3.754
39897W        W99400  26.048  11.238   4.704
39898W        W99401  42.301  36.010  12.530
39899W        W99402  30.606  40.314   3.717
39900W        W99403  39.360   4.912  11.916
39901W        W99404  42.926   9.368  12.938
39902W        W99405  37.384  44.010  11.532
39903W        W99406  34.027   4.383   4.760
39904W        W99407  19.667  37.995   3.718
39905W        W99408  38.470  31.910   2.812
39906W        W99409  30.095  31.562   3.340
39907W        W99410  36.034  33.065   3.670
39908W        W99411  19.533  32.599  13.029
39909W        W99412  15.210   6.862   0.401
39910W        W99413  35.440  43.914  10.564
39911W        W99414  18.225  27.191  12.449
39912W        W99415   1.975  14.805  10.903
39913W        W99416   9.219  19.683  10.998
39914W        W99417  21.221   8.876   5.240
39915W        W99418  38.356  11.370   3.197
39916W        W99419   8.745   6.840   2.202
39917W        W99420  23.068   7.298   2.833
39918W        W99421  42.477  25.661  13.848
39919W        W99422  15.204  32.391   0.788
39920W        W99423  10.846  10.777   2.860
39921W        W99424   7.319  22.678  14.454
39922W        W99425  19.754  28.093  13.957
39923W        W99426  15.301  31.930   9.928
39924W        W99427  15.295  27.128   1.306
39925W        W99428  28.487  16.090  12.837
39926W        W99429  21.609  16.775   1.308
39927W        W99430  18.295  37.542   2.279
39928W        W99431  31.448   1.926   3.301
39929W        W99432  20.597   1.913   3.780
39930W        W99433   0.459  35.526  13.431
39931W        W99434  31.646  27.570  14.949
39932W        W99435  16.241  17.279   0.295
39933W        W99436  17.608  38.535   0.916
39934W        W99437  32.887  32.483  13.993
39935W        W99438   0.256  25.074   2.888
39936W        W99439  26.177  15.801   1.362
39937W        W99440   6.918  12.159  10.440
39938W        W99441  39.541  23.195   4.720
39939W        W99442  44.296  34.051  10.915
39940W        W99443  37.873   9.353   3.194
39941W        W99444   5.816  42.920   9.939
39942W        W99445   3.732  27.544  14.426
39943W        W99446  23.691  28.479   4.835
39944W        W99447  36.991   1.343   4.322
39945W        W99448  44.840  39.059  10.911
39946W        W99449   3.822  42.472  13.846
39947W        W99450   6.884  31.417  13.351
39948W        W99451  29.574  24.074   1.768
39949W        W99452  34.394   4.855   1.374
39950W        W99453  42.844  25.484  14.831
39951W        W99454  10.727  21.585  11.958
39952W        W99455  27.519  16.696  13.308
39953W        W99456  20.047  18.280  12.404
39954W        W99457  18.692  11.223  11.389
39955W        W99458  32.570   9.749   1.281
39956W        W99459  30.038  24.714  13.311
39957W        W99460  40.346  14.212  10.983
39958W        W99461  13.623  36.004   1.775
39959W        W99462  16.088  14.192   0.820
39960W        W99463  20.761  21.075   3.197
39961W        W99464   3.928  12.675   4.211
39962W        W99465  36.375  29.957   3.802
39963W        W99466  27.169  41.331  13.936
39964W        W99467  15.086  14.804  12.362
39965W        W99468  10.268  20.028  10.953
39966W        W99469   6.277  13.676  13.448
39967W        W99470  19.261  38.374  13.931
39968W        W99471  38.003  16.111  11.587
39969W        W99472  37.027  30.571   3.182
39970W        W99473  26.124  13.749  12.089
39971W        W99474  30.041  15.184   2.383
39972W        W99475  20.032  34.481   4.287
39973W        W99476   0.491  37.455   2.249
39974W        W99477  27.529  37.052  12.364
39975W        W99478  41.467  34.068  13.418
39976W        W99479   0.791  13.601   3.171
39977W        W99480  36.433  36.528  12.940
39978W        W99481  22.543   3.783   3.753
39979W        W99482   2.754  32.588   4.269
39980W        W99483  27.618  16.269   2.232
39981W        W99484  30.534   7.281   4.745
39982W        W99485   3.452   5.333  14.892
39983W        W99486  26.050   1.873  13.516
39984W        W99487  25.558  27.079   4.212
39985W        W99488  31.646   7.699  10.448
39986W        W99489   2.337  22.022  13.378
39987W        W99490  21.077  26.694   0.254
39988W        W99491  29.525   5.718  13.892
39989W        W99492   1.476  37.929  14.300
39990W        W99493  13.751  27.977   3.348
39991W        W99494  12.353  21.172  10.609
39992W        W99495  42.454  33.541  13.503
39993W        W99496  38.032  38.352   4.291
39994W        W99497  23.119  17.129   1.298
39995W        W99498  10.213  26.103  11.885
39996W        W99499  12.158   1.803  11.385
39997W        W99500   4.937  44.833   4.212
39998W        W99501  26.113  25.069  12.863
39999W        W99502   9.385   8.811  13.837
40000W        W99503  21.693  28.144  14.421
40001W        W99504   6.699  21.553   2.682
40002W        W99505   1.903   9.322   2.209
40003W        W99506  13.125  39.820  10.452
40004W        W99507  17.759  20.636   4.285
40005W        W99508  23.124   5.413   2.386
40006W        W99509   4.806  24.100   2.278
40007W        W99510  33.532  20.625   3.233
40008W        W99511  37.497  11.723   1.763
40009W        W99512  39.010  15.217   3.225
40010W        W99513  18.095  40.903   0.401
40011W        W99514   9.873  28.620  13.415
40012W        W99515  33.536   0.832   3.740
40013W        W99516  30.580  41.332  14.895
40014W        W99517  26.482  29.957   0.287
40015W        W99518  34.461  40.313   4.353
40016W        W99519  43.968  39.873   4.157
40017W        W99520  38.537  39.912  14.761
40018W        W99521  38.499   4.886  14.004
40019W        W99522  41.029  33.036   1.281
40020W        W99523   8.353  27.476  14.021
40021W        W99524  44.443  44.327  12.944
40022W        W99525  19.184  38.860   3.266
40023W        W99526   3.444  26.075   0.309
40024W        W99527   6.282   3.375   5.236
40025W        W99528  11.718  26.531   4.825
40026W        W99529  10.799  42.295  14.985
40027W        W99530  30.035   4.787   4.193
40028W        W99531   9.677  10.365   4.784
40029W        W99532  25.082  36.478   5.307
40030W        W99533  25.671  38.380   1.810
40031W        W99534  40.909  19.746  12.044
40032W        W99535  16.615  39.418  11.393
40033W        W99536  31.570  18.164   3.771
40034W        W99537  32.981  25.666  11.911
40035W        W99538  15.150  42.345   2.670
40036W        W99539  30.503  10.643  11.978
40037W        W99540  11.842  39.345  11.886
40038W        W99541   1.248  29.478   1.390
40039W        W99542  20.658  14.737  12.889
40040W        W99543  21.144   2.406   3.220
40041W        W99544  36.507  20.704   1.365
40042W        W99545  15.178  37.836   2.224
40043W        W99546  27.037   5.890   2.811
40044W        W99547  22.710  36.465   0.472
40045W        W99548  35.018  23.666   4.814
40046W        W99549   8.271   4.879  11.925
40047W        W99550  18.225  18.640   2.829
40048W        W99551  17.149  33.597  11.374
40049W        W99552  31.092  26.009  10.445
40050W        W99553  44.835  27.956  14.898
40051W        W99554   8.190  32.892   1.305
40052W        W99555  25.962   7.267  14.789
40053W        W99556  27.120   3.825  14.923
40054W        W99557  38.475  15.647   4.340
40055W        W99558  37.384  22.571  13.050
40056W        W99559  12.246  18.050  12.893
40057W        W99560  37.970   4.862  10.569
40058W        W99561  28.659  18.670   3.387
40059W        W99562  27.054  40.835  13.902
40060W        W99563  39.323  17.708   0.290
40061W        W99564  14.824  10.293  10.102
40062W        W99565   5.749  31.059  11.418
40063W        W99566   4.204  24.091  14.503
40064W        W99567   6.923  25.711   0.378
40065W        W99568  42.817  40.434  11.437
40066W        W99569  39.845  12.833   3.760
40067W        W99570   6.883  15.247  13.989
40068W        W99571  25.599  32.922   3.832
40069W        W99572  28.036  14.114   0.417
40070W        W99573  17.707   0.828  11.377
40071W        W99574  38.495  11.662   0.400
40072W        W99575  11.752  12.141   4.238
40073W        W99576  32.124  26.001   9.499
40074W        W99577   6.835  29.539  10.557
40075W        W99578   5.855  11.346  14.318
40076W        W99579   4.265  41.941   2.368
40077W        W99580   2.374  28.059  12.473
40078W        W99581  24.577  32.895  14.020
40079W        W99582  27.087  43.297   3.299
40080W        W99583  41.957  17.223   1.705
40081W        W99584  23.197  34.576   0.804
40082W        W99585   0.316  38.510  14.794
40083W        W99586  25.986  30.658  14.397
40084W        W99587  34.589  10.699   4.165
40085W        W99588  31.973  22.016  14.446
40086W        W99589  31.049  36.041  13.421
40087W        W99590  19.540   8.881   3.804
40088W        W99591  25.666  17.089   2.791
40089W        W99592  32.898  12.150   1.871
40090W        W99593   0.759   1.875   2.894
40091W        W99594  43.959  26.128  11.915
40092W        W99595  26.204  34.098   1.321
40093W        W99596   2.432  21.521   2.802
40094W        W99597  22.996  37.882  10.639
40095W        W99598  15.820  40.366  13.939
40096W        W99599  21.740  29.945  13.817
40097W        W99600  31.554  38.458   0.766
40098W        W99601   5.826  18.786  12.492
40099W        W99602  33.537  30.962   0.247
40100W        W99603   0.770  34.522  10.057
40101W        W99604  36.379  21.037  12.364
40102W        W99605  17.096  44.270   1.268
40103W        W99606   5.412  21.207  13.413
40104W        W99607   7.752  44.868  12.527
40105W        W99608   2.297   2.739  13.824
40106W        W99609  34.016   5.725  12.342
40107W        W99610  42.524  33.981   3.208
40108W        W99611  38.428  25.512  10.530
40109W        W99612  43.477  24.008   1.849
40110W        W99613  39.343   8.222   1.382
40111W        W99614  32.434  24.066  12.884
40112W        W99615   9.785  21.577   0.440
40113W        W99616  37.937  14.298  14.918
40114W        W99617   8.889  18.260  13.932
40115W        W99618   1.845  20.682  14.785
40116W        W99619  43.864  34.019   4.354
40117W        W99620   8.789  30.514   2.695
40118W        W99621  39.019  44.329   0.776
40119W        W99622  14.260  42.486   0.911
40120W        W99623   7.703  37.414   2.301
40121W        W99624  44.439  22.088  10.931
40122W        W99625  18.112  38.962   2.198
40123W        W99626  30.010  21.703   2.302
40124W        W99627  12.612  23.128  14.311
40125W        W99628  24.676  25.533  12.367
40126W        W99629  27.190  34.480  12.042
40127W        W99630  44.478  32.045   3.283
40128W        W99631   9.760   4.851   2.669
40129W        W99632  34.419  11.832  11.975
40130W        W99633   0.916  43.331   0.767
40131W        W99634  27.505   0.796   1.404
40132W        W99635  19.106  24.592  14.312
40133W        W99636   9.170  25.637  11.861
40134W        W99637  19.616  20.151   0.353
40135W        W99638  22.177  38.881   3.165
40136W        W99639   7.393   9.193  12.983
40137W        W99640   4.927  35.105   4.256
40138W        W99641  28.149  39.335  14.279
40139W        W99642  29.937  41.849   3.380
40140W        W99643  33.438  21.614  13.874
40141W        W99644   4.790  27.048   2.833
40142W        W99645  23.705   0.429  14.939
40143W        W99646  44.348  30.559   9.978
40144W        W99647  40.039  31.933  13.371
40145W        W99648  14.220  27.484  14.880
40146W        W99649  21.033  10.140  11.382
40147W        W99650  31.557  30.447  14.281
40148W        W99651  38.402  35.966  10.638
40149W        W99652  38.864  44.005  14.920
40150W        W99653  32.953  15.815  10.971
40151W        W99654  22.111  28.555  12.013
40152W        W99655  36.568  20.660  13.400
40153W        W99656  23.622   2.335   1.932
40154W        W99657   6.381  38.064   2.754
40155W        W99658  34.098  43.015   0.471
40156W        W99659  43.481  18.565  14.377
40157W        W99660  35.957  43.476   3.819
40158W        W99661  42.957   0.444   0.960
40159W        W99662  15.227   7.392   4.291
40160W        W99663   8.729  15.147   2.325
40161W        W99664  36.995  23.524   2.741
40162W        W99665  20.060  26.499   0.365
40163W        W99666   3.232   7.672  13.313
40164W        W99667  33.444  22.710  12.443
40165W        W99668  25.669  19.775   2.352
40166W        W99669  13.781  38.409   0.775
40167W        W99670  41.929   1.341  12.849
40168W        W99671  32.452   8.690   4.722
40169W        W99672  41.519  34.973  10.624
40170W        W99673  20.108  37.362  12.093
40171W        W99674   5.834  14.619  10.015
40172W        W99675  37.548  24.141   1.826
40173W        W99676  35.408  41.296   4.691
40174W        W99677  35.530   7.733  11.019
40175W        W99678  19.258  33.997  11.518
40176W        W99679  19.275   3.928  14.810
40177W        W99680  30.493  40.010   2.278
40178W        W99681  44.373   2.794   0.427
40179W        W99682  34.083   9.333   2.682
40180W        W99683  43.329   8.322  10.038
40181W        W99684   6.831  20.626   0.959
40182W        W99685  20.211   1.460   3.780
40183W        W99686  34.974  22.744  14.883
40184W        W99687  34.096   2.725   3.778
40185W        W99688  35.085   2.957   3.345
40186W        W99689  19.635  15.700  14.504
40187W        W99690  36.006  25.529  14.936
40188W        W99691  35.566  27.555  14.371
40189W        W99692   2.325  20.093   1.734
40190W        W99693  21.034  20.249   2.334
40191W        W99694  41.494  36.098  14.348
40192W        W99695  18.664  19.078  14.785
40193W        W99696  26.022  25.476  12.524
40194W        W99697   7.772  26.029  10.511
40195W        W99698  15.681  20.725   0.903
40196W        W99699  23.643  11.188  11.104
40197W        W99700  28.553  39.425   3.289
40198W        W99701  21.149  42.311  14.915
40199W        W99702   1.393   2.923  10.477
40200W        W99703  16.076   9.221  13.924
40201W        W99704  16.747  34.399  11.571
40202W        W99705   6.411  16.126   2.740
40203W        W99706  17.120  33.110  14.425
40204W        W99707   4.244   7.777   1.935
40205W        W99708  41.516  34.615   2.409
40206W        W99709  22.069  29.951  13.911
40207W        W99710   6.905  34.603   4.670
40208W        W99711   9.864  44.394   0.375
40209W        W99712   0.410  22.633   3.760
40210W        W99713  28.535   3.737   3.686
40211W        W99714  38.535  40.502   3.859
40212W        W99715   0.419  41.903  14.462
40213W        W99716  31.151  27.135  11.569
40214W        W99717   0.940  41.524   0.304
40215W        W99718   1.411  20.206  11.875
40216W        W99719  15.682   8.831  13.835
40217W        W99720   0.302  20.102  10.971
40218W        W99721   0.789   4.271  12.445
40219W        W99722  44.856  12.707   4.674
40220W        W99723  40.053  39.513   2.333
40221W        W99724  13.215  43.904  12.579
40222W        W99725   0.950  33.617   2.178
40223W        W99726   1.806   9.357   4.125
40224W        W99727  29.935  16.734  11.606
40225W        W99728  35.414  42.809  11.543
40226W        W99729  26.601  16.590   4.167
40227W        W99730   3.308  28.441  11.934
40228W        W99731  21.142  28.980  14.018
40229W        W99732  20.184  26.565   5.113
40230W        W99733  14.663  42.389  11.940
40231W        W99734  44.354   6.293   3.848
40232W        W99735  20.608   4.392   3.189
40233W        W99736  35.586  12.690  11.860
40234W        W99737  13.775  30.962   3.764
40235W        W99738  34.103  38.343  12.034
40236W        W99739   1.439   8.168   2.369
40237W        W99740  10.194   8.752  12.565
40238W        W99741  16.781  24.995  10.489
40239W        W99742   3.775  31.513  12.562
40240W        W99743  42.286  25.487  11.960
40241W        W99744   0.909  42.820   5.657
40242W        W99745  24.088  36.903   3.243
40243W        W99746  33.926  35.594  12.004
40244W        W99747  22.679  33.954  10.496
40245W        W99748  23.173  38.422   0.294
40246W        W99749   9.182  21.198  14.937
40247W        W99750  19.083  39.459   4.253
40248W        W99751  19.659  38.504  11.086
40249W        W99752  11.719  16.624  10.974
40250W        W99753  34.400  19.132   4.185
40251W        W99754  43.917   5.778   4.782
40252W        W99755  33.074  40.998  13.845
40253W        W99756  18.189  23.722  11.109
40254W        W99757  21.064   7.685   3.165
40255W        W99758   5.230  40.467   2.282
40256W        W99759  39.036  27.617   4.127
40257W        W99760   0.769  15.609  12.881
40258W        W99761   9.247  44.985   2.211
40259W        W99762   6.352  21.062  11.380
40260W        W99763  22.224   1.397  12.537
40261W        W99764  44.882  30.427  13.938
40262W        W99765  16.625  44.819  13.842
40263W        W99766  43.385  44.264   1.871
40264W        W99767  32.472   3.944   4.156
40265W        W99768  29.949   4.859   2.803
40266W        W99769   3.281   0.968  14.994
40267W        W99770  35.433  17.279  11.578
40268W        W99771  28.182  32.418  14.916
40269W        W99772  36.420  40.440   1.847
40270W        W99773  24.534   1.408  10.016
40271W        W99774  20.696   3.407   3.302
40272W        W99775  36.470  17.694   0.472
40273W        W99776  27.611  10.829   0.787
40274W        W99777   5.836  33.580  11.090
40275W        W99778  13.277  44.796   4.288
40276W        W99779  43.831  24.721   1.839
40277W        W99780  15.208  40.486  11.059
40278W        W99781  34.886   0.932  12.931
40279W        W99782  28.658  43.356  10.967
40280W        W99783  21.157  42.434   3.148
40281W        W99784  30.972  30.129  14.293
40282W        W99785   8.860  44.897  11.565
40283W        W99786  12.743  10.795  13.466
40284W        W99787  23.522  19.120   3.232
40285W        W99788  12.178  36.877   3.644
40286W        W99789   2.922  15.818  11.031
40287W        W99790  19.274  23.014  11.986
40288W        W99791  43.395  42.364   0.335
40289W        W99792   8.367   0.848  10.893
40290W        W99793  34.070  20.721  11.855
40291W        W99794  32.515   5.738  11.505
40292W        W99795  20.738  31.016  14.829
40293W        W99796  32.986  17.070   3.690
40294W        W99797  30.439  43.903  11.376
40295W        W99798  14.689   0.747   3.833
40296W        W99799  13.654  34.928  11.887
40297W        W99800  41.295   8.229   1.757
40298W        W99801   4.301  31.966  14.027
40299W        W99802  18.249   6.857  11.379
40300W        W99803  14.658  38.002   1.785
40301W        W99804  34.402  39.354   4.144
40302W        W99805  12.227  32.133  10.438
40303W        W99806   5.762  28.095   1.749
40304W        W99807  34.547  33.121   1.424
40305W        W99808  17.625  26.552   2.758
40306W        W99809   8.295  29.549  10.611
40307W        W99810  38.354  43.498   3.843
40308W        W99811  39.522   3.856  11.864
40309W        W99812  35.094  20.251   0.761
40310W        W99813  23.086  39.975   1.336
40311W        W99814  43.863  35.518   0.416
40312W        W99815   7.231  14.648  14.915
40313W        W99816  42.808  12.669   0.255
40314W        W99817  32.035  13.119   0.395
40315W        W99818   6.191   8.852  13.529
40316W        W99819  39.402  15.105   1.761
40317W        W99820  27.459  15.715   1.811
40318W        W99821  36.529  16.653   0.875
40319W        W99822   8.794  25.508   0.311
40320W        W99823  36.493   4.380  14.788
40321W        W99824  32.924   1.442  14.821
40322W        W99825   5.358  28.066  10.572
40323W        W99826  28.054  32.413   2.881
40324W        W99827   9.262  36.989   2.353
40325W        W99828  13.139  15.085   0.305
40326W        W99829  23.225   9.706   1.802
40327W        W99830  18.221  44.352   3.308
40328W        W99831  24.554  30.005   4.214
40329W        W99832   7.375  13.699  11.120
40330W        W99833  24.207  32.467   4.159
40331W        W99834  11.860  42.861  14.444
40332W        W99835   4.745  34.534  10.452
40333W        W99836  35.050  29.121   4.833
40334W        W99837  12.643  40.366  12.566
40335W        W99838  16.269   3.948  10.996
40336W        W99839  44.470  44.901  12.043
40337W        W99840  26.592  36.037  10.103
40338W        W99841  32.514  38.866   0.884
40339W        W99842  36.433  20.174   0.806
40340W        W99843  31.042   9.395  10.630
40341W        W99844   8.773  25.528  13.524
40342W        W99845  13.237  19.162  14.426
40343W        W99846   6.795   3.443  11.856
40344W        W99847  25.065  42.341  14.933
40345W        W99848  42.943  38.978   3.784
40346W        W99849   5.846   9.271   0.875
40347W        W99850  40.333  13.722   4.318
40348W        W99851   7.904   4.742  14.457
40349W        W99852  17.645  36.080  14.906
40350W        W99853  33.508  28.564  10.540
40351W        W99854  43.823   7.387  13.419
40352W        W99855  25.107  24.119   5.314
40353W        W99856  37.889  40.053  14.863
40354W        W99857  28.599   2.876  11.604
40355W        W99858  24.536  43.964  14.943
40356W        W99859  44.898  41.032   2.216
40357W        W99860   5.357  35.863  12.506
40358W        W99861   2.782   9.175   3.171
40359W        W99862   0.411  13.146  13.478
40360W        W99863  28.143  37.922   1.776
40361W        W99864  33.520  36.395   2.874
40362W        W99865   1.286  23.199   0.966
40363W        W99866  37.017  40.024   3.719
40364W        W99867  41.425   7.788   3.658
40365W        W99868  33.502  29.958   3.307
40366W        W99869  44.487  37.538   4.614
40367W        W99870  22.057  18.781   0.379
40368W        W99871  24.069  31.477  13.416
40369W        W99872  43.454  28.087  14.807
40370W        W99873  14.685  16.737   1.933
40371W        W99874  15.317  37.041   3.366
40372W        W99875  34.910  16.751  14.870
40373W        W99876  38.332  39.496  11.940
40374W        W99877   2.353  21.043   0.943
40375W        W99878  29.463   4.892  11.471
40376W        W99879  41.832  26.166   1.315
40377W        W99880  34.576   7.369  10.966
40378W        W99881  19.561  23.188  13.419
40379W        W99882  39.825  40.535  10.590
40380W        W99883  44.011   9.840   0.242
40381W        W99884   4.745  42.000   0.243
40382W        W99885   2.780  42.366  12.834
40383W        W99886  21.742  31.486  10.468
40384W        W99887  24.677  18.552   1.901
40385W        W99888  21.758  32.555  14.801
40386W        W99889  28.154   0.818   2.287
40387W        W99890   3.731  26.143  10.581
40388W        W99891  37.490  37.502   0.860
40389W        W99892  44.419  40.497   2.261
40390W        W99893  41.316  32.897  13.009
40391W        W99894  42.380  25.543   3.857
40392W        W99895  39.923  31.019  10.436
40393W        W99896  13.214  18.173  10.500
40394W        W99897  37.841  42.343  13.545
40395W        W99898  16.155  16.755   4.127
40396W        W99899   7.198  23.507  13.890
40397W        W99900  10.859  36.899   3.841
40398W        W99901  34.941  40.396  14.849
40399W        W99902  35.363   1.878   4.816
40400W        W99903  43.881  35.988  12.433
40401W        W99904  25.002   6.866   4.657
40402W        W99905  34.043   8.232   4.228
40403W        W99906   9.840  15.618   1.745
40404W        W99907  20.734  11.272   4.284
40405W        W99908   6.194   0.771  11.064
40406W        W99909  26.174  41.382   2.732
40407W        W99910  23.664  32.583   2.313
40408W        W99911  10.173  30.543   9.521
40409W        W99912  17.593  23.147   2.386
40410W        W99913  12.836  17.302   0.961
40411W        W99914  44.456  30.108  11.882
40412W        W99915  28.932  24.117   3.718
40413W        W99916  37.474  18.055   0.345
40414W        W99917  15.597  19.082   0.299
40415W        W99918   3.792  32.420   0.835
40416W        W99919  11.835  24.984   0.940
40417W        W99920  26.150  34.446   2.181
40418W        W99921  11.313  19.768  13.403
40419W        W99922   2.934  17.083   4.701
40420W        W99923  23.729  37.855   4.233
40421W        W99924  30.026  11.322   2.862
40422W        W99925  29.139  35.994   3.755
40423W        W99926  16.133  11.787   2.841
40424W        W99927   7.831  36.361   2.702
40425W        W99928  10.672  15.135  13.057
40426W        W99929  19.562   6.733   2.407
40427W        W99930  38.332  29.507  12.385
40428W        W99931  36.849  12.725   3.359
40429W        W99932  12.250  23.715  12.924
40430W        W99933  41.827  31.473  12.374
40431W        W99934  27.149   3.304   3.685
40432W        W99935  18.088  39.531   1.904
40433W        W99936   7.410  33.014  14.364
40434W        W99937   8.782  29.494   4.794
40435W        W99938   7.855  42.337  14.804
40436W        W99939  28.680   9.254   4.219
40437W        W99940  26.154   9.221  14.807
40438W        W99941  26.600  19.179  10.412
40439W        W99942   8.884   1.474   0.442
40440W        W99943  18.234  18.283  12.357
40441W        W99944  15.767  21.146   1.393
40442W        W99945   1.891  36.382  12.922
40443W        W99946  15.296   9.192  10.635
40444W        W99947  12.358  43.277  12.469
40445W        W99948  12.254  34.586  10.534
40446W        W99949  28.153   8.683  13.990
40447W        W99950   6.817  20.716  10.975
40448W        W99951  36.858  34.098   2.758
40449W        W99952   4.436  21.238   1.855
40450W        W99953  25.074  43.993   1.293
40451W        W99954  36.349  43.016   0.401
40452W        W99955  44.400  42.415   3.177
40453W        W99956   5.438  24.651   2.229
40454W        W99957  25.586  25.056  10.422
40455W        W99958  40.993  28.521   3.286
40456W        W99959  21.651   0.259   4.616
40457W        W99960  15.154  28.594  12.548
40458W        W99961  33.942   0.941  11.548
40459W        W99962  36.469  30.543  10.427
40460W        W99963  15.706  17.578  11.467
40461W        W99964  17.651  14.144   1.271
40462W        W99965  26.632  16.231  12.351
40463W        W99966  26.955  39.352   1.727
40464W        W99967  12.798   8.377  14.397
40465W        W99968  33.921  10.636  10.613
40466W        W99969  26.697  27.959   5.307
40467W        W99970  13.256  35.585   1.329
40468W        W99971  10.872  37.967   1.811
40469W        W99972  21.671  11.777  10.469
40470W        W99973   7.295  11.189  13.518
40471W        W99974  17.736  25.611   3.315
40472W        W99975  25.171   8.205  13.898
40473W        W99976  14.623  27.496  13.879
40474W        W99977  30.561  35.867  11.587
40475W        W99978   4.837  39.007   0.369
40476W        W99979  34.555  44.867   2.199
40477W        W99980  44.891   4.225   1.235
40478W        W99981  30.941  26.513  12.535
40479W        W99982   4.405   9.336  12.404
40480W        W99983  24.593  37.906   4.635
40481W        W99984  26.671  21.076   1.364
40482W        W99985   7.747   6.295   2.691
40483W        W99986  31.980  20.748  10.941
40484W        W99987  26.575  32.054   1.394
40485W        W99988  39.524   8.665   2.249
40486W        W99989  37.966   7.346   4.291
40487W        W99990  20.261  26.963   3.863
40488W        W99991  39.498  16.131  13.345
40489W        W99992   4.826  23.725  13.948
40490W        W99993  22.621  29.067  10.014
40491W        W99994   4.396  28.536  13.888
40492W        W99995  24.108  13.803  11.456
40493W        W99996  21.619  17.726   0.295
40494W        W99997  19.235  16.216   0.416
40495W        W99998  16.305  12.339  12.436
40496W        W99999  38.900  35.989   0.477
40497W        W    0   6.395  26.661   1.764
40498W        W    1   3.823  30.519   3.174
40499W        W    2  32.471  40.431   1.409
40500W        W    3   4.356  38.964  11.993
40501W        W    4  28.452  21.037   2.370
40502W        W    5  13.796  41.953   1.794
40503W        W    6  20.554   7.874  10.639
40504W        W    7  29.642   9.833   0.756
40505W        W    8   5.289  19.613  13.946
40506W        W    9   3.777  34.105  13.366
40507W        W   10   6.200  32.625  11.981
40508W        W   11  39.379  32.506  11.583
40509W        W   12  26.149  21.578  11.585
40510W        W   13  21.623  37.547  10.467
40511W        W   14  42.915  18.094  11.503
40512W        W   15   2.838  42.400  13.949
40513W        W   16  38.971  25.005  13.951
40514W        W   17   4.788   1.362   0.434
40515W        W   18  12.339  23.733   3.637
40516W        W   19  39.323   4.901   0.777
40517W        W   20   0.983  38.506   4.833
40518W        W   21  14.599  43.827   1.716
40519W        W   22   0.772   6.712  12.565
40520W        W   23   8.313  17.130   5.179
40521W        W   24   0.818  10.306  11.060
40522W        W   25  37.972  32.043  10.452
40523W        W   26  31.411  24.556  12.875
40524W        W   27  31.968  44.892  14.385
40525W        W   28  36.406  39.508   2.893
40526W        W   29   7.253   6.788  10.892
40527W        W   30   9.787   2.801  11.569
40528W        W   31   2.896  25.599   4.781
40529W        W   32  28.677   3.821   4.308
40530W        W   33  28.101   6.735   0.254
40531W        W   34   6.393  37.349   0.739
40532W        W   35  37.002  21.054   4.768
40533W        W   36  37.521  44.959  14.025
40534W        W   37   2.466  42.857  10.941
40535W        W   38  28.174  18.188  11.499
40536W        W   39  17.290   6.364  13.953
40537W        W   40  14.736  14.688   3.716
40538W        W   41  18.236   5.725  10.558
40539W        W   42   9.203   8.742  12.888
40540W        W   43  15.817   1.476  11.048
40541W        W   44  33.412  21.567  13.050
40542W        W   45  31.054  42.288   0.734
40543W        W   46  39.461  42.957   1.229
40544W        W   47  14.755  25.481   0.929
40545W        W   48  22.021  26.479  14.028
40546W        W   49   8.241   1.460   2.770
40547W        W   50  44.969  34.088  10.456
40548W        W   51  40.517  31.497  10.893
40549W        W   52   3.778  40.844   3.218
40550W        W   53   2.321   5.926  12.052
40551W        W   54  24.495  26.525   2.384
40552W        W   55  27.492   6.407   2.871
40553W        W   56  18.253  14.794   4.715
40554W        W   57  34.100  14.239  11.111
40555W        W   58  23.692  18.726   3.727
40556W        W   59  34.993   2.252   3.209
40557W        W   60  40.901  17.217   0.780
40558W        W   61   4.754  36.037   3.798
40559W        W   62  25.541  18.285   1.815
40560W        W   63  14.766   2.347  11.981
40561W        W   64  13.164  26.204   1.355
40562W        W   65  19.618  33.450  14.871
40563W        W   66  10.854  23.145  11.962
40564W        W   67   4.313  18.252   1.400
40565W        W   68   2.851   2.277  13.838
40566W        W   69  30.101  23.558  13.056
40567W        W   70  19.195  34.512  12.985
40568W        W   71  43.956  39.405   2.203
40569W        W   72   3.738  38.989  14.480
40570W        W   73  24.687   9.798  10.637
40571W        W   74  35.594   8.672   0.358
40572W        W   75  32.502  43.370   2.892
40573W        W   76  31.119  37.428  14.827
40574W        W   77  34.896   2.275   3.812
40575W        W   78  22.040  40.882   1.912
40576W        W   79  12.807  29.157  13.405
40577W        W   80  32.554  11.859   1.410
40578W        W   81  20.551  31.482  12.437
40579W        W   82  23.985  16.155   3.201
40580W        W   83  32.105  12.358  10.474
40581W        W   84  18.104   9.320   4.234
40582W        W   85  20.203  23.533   4.163
40583W        W   86  23.640   6.706  14.933
40584W        W   87  30.108  33.440  13.904
40585W        W   88  40.018   4.279  13.034
40586W        W   89  17.185  20.565  13.890
40587W        W   90   9.249  32.004   0.957
40588W        W   91  23.638   2.818  12.859
40589W        W   92   9.307  41.462   3.647
40590W        W   93  24.985  29.070   4.612
40591W        W   94  31.640  15.654  14.508
40592W        W   95  35.075  30.122   1.389
40593W        W   96  36.039   8.760   4.759
40594W        W   97  44.354   0.804   3.800
40595W        W   98  10.219  15.293  12.016
40596W        W   99  34.438  32.997   2.300
40597W        W  100  25.968  12.221  11.519
40598W        W  101  40.448  42.407   1.375
40599W        W  102  21.099  25.654  12.020
40600W        W  103  39.001  41.531  10.100
40601W        W  104  37.342  43.807   4.774
40602W        W  105  17.070  35.492   2.703
40603W        W  106  32.095  35.381   9.526
40604W        W  107  28.943   1.772   2.222
40605W        W  108  18.098   4.767   3.337
40606W        W  109   4.316  27.539  13.006
40607W        W  110  28.098   4.840  10.123
40608W        W  111  12.729   9.224   0.906
40609W        W  112   6.276  31.048  14.022
40610W        W  113  15.781   3.361  13.048
40611W        W  114  28.672  14.834   4.138
40612W        W  115  31.593  42.970  10.461
40613W        W  116   1.480  40.822   3.313
40614W        W  117   3.820  36.015  13.467
40615W        W  118  28.435   4.447   4.306
40616W        W  119   2.732  14.615  11.604
40617W        W  120  43.852  36.545   0.306
40618W        W  121  23.075  41.020  14.875
40619W        W  122   9.829  19.561   4.697
40620W        W  123   2.232  15.666   2.219
40621W        W  124  38.995   8.300  14.443
40622W        W  125  40.498  40.540   4.352
40623W        W  126   1.448  24.574   2.232
40624W        W  127  15.586  40.934   3.662
40625W        W  128  13.316   5.827   2.872
40626W        W  129  32.042  17.201  10.540
40627W        W  130   0.958  44.005   0.740
40628W        W  131  42.902  24.675   4.790
40629W        W  132  31.620  34.079  14.400
40630W        W  133  40.423  11.625   0.292
40631W        W  134  36.978  35.481  11.413
40632W        W  135  14.663  22.127   3.648
40633W        W  136  19.089  41.793   4.284
40634W        W  137  12.712  15.233   1.355
40635W        W  138   6.896  13.722   2.787
40636W        W  139  20.136  41.039  11.387
40637W        W  140  39.913  18.113  10.404
40638W        W  141  11.328  13.704  13.522
40639W        W  142  19.256  10.736   4.228
40640W        W  143  27.133  21.132   3.165
40641W        W  144  19.172  39.387   3.179
40642W        W  145  11.186  38.019  11.508
40643W        W  146   7.685  35.104  12.441
40644W        W  147   9.764  22.082  13.898
40645W        W  148  23.229  22.189  11.057
40646W        W  149  40.415   6.754  11.942
40647W        W  150  42.356  11.811  12.509
40648W        W  151  36.991   7.854   4.131
40649W        W  152   0.943  14.709   1.756
40650W        W  153  23.017   9.305  12.426
40651W        W  154  15.155   3.311   0.812
40652W        W  155  38.992  22.714  10.027
40653W        W  156  22.040   8.730  14.380
40654W        W  157   3.256  11.173  10.443
40655W        W  158   9.687  24.617   1.234
40656W        W  159  31.036  29.670   9.992
40657W        W  160  36.976  43.808  12.541
40658W        W  161  20.530  38.866  14.341
40659W        W  162  38.473  21.644   4.702
40660W        W  163  40.408  23.632  12.466
40661W        W  164  11.370  29.996   1.931
40662W        W  165  32.012   8.385   3.692
40663W        W  166  16.615  42.906   3.765
40664W        W  167  20.581  33.905   2.684
40665W        W  168  22.568  11.812   3.748
40666W        W  169  30.629  18.570  14.335
40667W        W  170  41.876   3.341  11.468
40668W        W  171  32.015   5.720  13.909
40669W        W  172  24.997  28.655   4.152
40670W        W  173  29.164  44.332   3.259
40671W        W  174  13.248  44.359   1.278
40672W        W  175  24.686  10.736  13.525
40673W        W  176  42.462  40.046   0.367
40674W        W  177  18.064  11.206   4.310
40675W        W  178  42.816   4.382   3.178
40676W        W  179  10.644  32.929   3.306
40677W        W  180   2.322  44.886   1.418
40678W        W  181  30.154  15.274   0.296
40679W        W  182  31.023   6.362  12.983
40680W        W  183   9.648  44.425   2.208
40681W        W  184  13.158   8.670  14.902
40682W        W  185  28.569  12.132  12.477
40683W        W  186   7.332  16.076  13.902
40684W        W  187  12.215   7.755  14.984
40685W        W  188  16.681   8.740   3.271
40686W        W  189  12.679  44.852   1.274
40687W        W  190  21.087   1.875   4.130
40688W        W  191  27.648  40.955  13.402
40689W        W  192  18.733  42.862   2.236
40690W        W  193  21.241   9.668  14.804
40691W        W  194  27.631  32.434  13.017
40692W        W  195  23.640  36.014  14.983
40693W        W  196   5.198  16.750   9.654
40694W        W  197   9.158  40.479  10.514
40695W        W  198  18.283   9.262   0.729
40696W        W  199  33.601  17.611  13.456
40697W        W  200   6.390  34.949  13.492
40698W        W  201  38.486  40.379  12.572
40699W        W  202  13.685  22.242   3.231
40700W        W  203  44.839  14.310   4.344
40701W        W  204  31.959  20.265   4.827
40702W        W  205  38.940  18.633   0.919
40703W        W  206  18.236   8.864  12.569
40704W        W  207  32.051   9.834  13.511
40705W        W  208  14.726  40.817  12.375
40706W        W  209  38.874  39.853   3.373
40707W        W  210  39.372  21.151  11.499
40708W        W  211  23.997  18.164   1.768
40709W        W  212  38.515  19.096   0.317
40710W        W  213  36.435  22.641  13.052
40711W        W  214   8.164  28.940  13.427
40712W        W  215   5.808  26.056   4.685
40713W        W  216  12.727  24.662   1.731
40714W        W  217  29.559  40.475   1.850
40715W        W  218   0.919  30.045   4.652
40716W        W  219  16.594  37.934   4.237
40717W        W  220  37.839  24.590  14.018
40718W        W  221  44.860  32.016  11.554
40719W        W  222  28.550  38.560  13.893
40720W        W  223   3.718   9.755   0.961
40721W        W  224  34.369  42.508   1.211
40722W        W  225  39.391   1.819  11.952
40723W        W  226  31.090  39.499   3.232
40724W        W  227  12.843  14.700   1.361
40725W        W  228  10.774   0.979  13.031
40726W        W  229  10.800  17.270   4.132
40727W        W  230  23.996  25.190   1.793
40728W        W  231  10.378   4.740   3.362
40729W        W  232  41.360   2.415   4.139
40730W        W  233  43.488  33.900   0.914
40731W        W  234   1.310   6.688  10.465
40732W        W  235  34.017  16.591   0.401
40733W        W  236  38.886  32.061   3.690
40734W        W  237  32.597  15.328  14.454
40735W        W  238  31.008  23.203   2.707
40736W        W  239   7.213  41.323  13.319
40737W        W  240  17.645   8.291   1.303
40738W        W  241  25.022  14.744   2.769
40739W        W  242  11.225   4.267   2.179
40740W        W  243  17.233  41.836  14.370
40741W        W  244  29.615  28.569  14.287
40742W        W  245  25.085  28.991  10.451
40743W        W  246  28.977   1.407  10.591
40744W        W  247  31.627  38.998   0.732
40745W        W  248  31.639  38.017  11.913
40746W        W  249  26.615  10.280  14.017
40747W        W  250  16.729   2.787   2.391
40748W        W  251  17.172   4.278  13.047
40749W        W  252  11.176  12.695  10.541
40750W        W  253  32.889  17.724   0.402
40751W        W  254   1.442  16.314  13.475
40752W        W  255  25.029  29.467   3.241
40753W        W  256  28.577   3.263   3.325
40754W        W  257  27.644   0.341  13.335
40755W        W  258  43.990  13.740  12.483
40756W        W  259  37.469   1.314  12.920
40757W        W  260  27.561  30.514   2.881
40758W        W  261   1.820  13.264   4.334
40759W        W  262  31.013  11.367   3.344
40760W        W  263  19.071  41.481   3.354
40761W        W  264  28.589  19.775  12.380
40762W        W  265   0.905  28.535   1.699
40763W        W  266  25.707  42.845   0.482
40764W        W  267  33.047   6.855   2.779
40765W        W  268   2.897  28.995   1.867
40766W        W  269  17.162  44.454   2.346
40767W        W  270  44.993  32.452   4.675
40768W        W  271  11.833  42.329  12.826
40769W        W  272   2.247  18.631   2.863
40770W        W  273  16.220  23.205   2.296
40771W        W  274  34.426  33.535   3.728
40772W        W  275  43.883  33.947  10.558
40773W        W  276  21.068  26.665  12.999
40774W        W  277  19.195  12.347   4.682
40775W        W  278  25.989  36.012  10.612
40776W        W  279  38.439  44.856  12.085
40777W        W  280  21.025  40.528   4.759
40778W        W  281  14.611   7.291   5.232
40779W        W  282  35.100  10.335  13.990
40780W        W  283  14.325  43.464  13.860
40781W        W  284  19.271  33.029   0.907
40782W        W  285  36.056  31.938  14.790
40783W        W  286  29.499   3.896   0.889
40784W        W  287  42.471   8.340   4.269
40785W        W  288  13.803  26.505   2.680
40786W        W  289  24.499  26.076   1.766
40787W        W  290  19.071   0.958   1.878
40788W        W  291  26.457  34.502  10.912
40789W        W  292  36.969  42.449   0.452
40790W        W  293   9.682  23.659   3.190
40791W        W  294   5.249  42.961  11.093
40792W        W  295  10.656   0.382   1.726
40793W        W  296   6.860  29.949  11.125
40794W        W  297  11.198  26.603  13.518
40795W        W  298   8.313  22.638  10.613
40796W        W  299   5.354   4.845   0.448
40797W        W  300   0.925   3.261   2.810
40798W        W  301  27.180   4.850  12.840
40799W        W  302   3.915   9.861  12.013
40800W        W  303  39.000  44.956  12.946
40801W        W  304   8.305  42.288  12.542
40802W        W  305   5.817   0.353  12.038
40803W        W  306  17.619   5.430   2.846
40804W        W  307  31.439  17.580  13.050
40805W        W  308  16.093  10.312  11.437
40806W        W  309  11.307  41.397   1.749
40807W        W  310  42.982   3.821   4.675
40808W        W  311  12.277  14.254   1.210
40809W        W  312  30.950   3.919   1.327
40810W        W  313  17.252  11.754   0.272
40811W        W  314  16.208  34.377   1.700
40812W        W  315  13.688  34.904  14.481
40813W        W  316  13.174  18.733   4.285
40814W        W  317  33.987  42.827   4.167
40815W        W  318  28.996   1.411  12.010
40816W        W  319  41.878  12.323  13.384
40817W        W  320  17.162  23.218  14.856
40818W        W  321   5.197  44.767  14.362
40819W        W  322   7.238  10.292   1.813
40820W        W  323  33.104   7.366  11.067
40821W        W  324  35.901   8.804  14.852
40822W        W  325   2.388  32.627  12.409
40823W        W  326  36.908  26.103  13.988
40824W        W  327  13.246  37.953  12.565
40825W        W  328  24.550   3.823   2.707
40826W        W  329  17.142  33.469   3.197
40827W        W  330  33.948  41.798  14.804
40828W        W  331  25.097  30.549  12.079
40829W        W  332  20.679  17.111  14.432
40830W        W  333  33.533   2.366  14.758
40831W        W  334  22.659   8.207   4.679
40832W        W  335  13.680  19.536   3.342
40833W        W  336   5.325   7.208  12.357
40834W        W  337  16.808   1.808  13.903
40835W        W  338  30.931   0.942  14.864
40836W        W  339   9.245  20.538   0.320
40837W        W  340  28.440  26.188   4.658
40838W        W  341  21.684  35.866  10.514
40839W        W  342  26.686   5.239   1.403
40840W        W  343  37.044  29.014   3.224
40841W        W  344   6.346   5.864  14.904
40842W        W  345  13.646  44.962  12.997
40843W        W  346  34.543  22.127   3.297
40844W        W  347  16.793  35.403  14.028
40845W        W  348  44.978  26.624  12.375
40846W        W  349   2.737  32.427  13.348
40847W        W  350   7.413  16.103   3.308
40848W        W  351  29.662  25.624   1.839
40849W        W  352  25.010  14.149   3.665
40850W        W  353  12.631  24.058   0.924
40851W        W  354  25.126  24.148   0.893
40852W        W  355  13.319  37.995  11.923
40853W        W  356   9.293  10.202   1.226
40854W        W  357  13.724  42.839   4.640
40855W        W  358  13.123  17.759   4.701
40856W        W  359  23.508  40.804  10.985
40857W        W  360  23.561   9.797   3.840
40858W        W  361  29.630   8.887   0.379
40859W        W  362  38.862  15.677  13.899
40860W        W  363  12.732  29.082  12.963
40861W        W  364  20.583  37.372  13.840
40862W        W  365   5.252  26.039  11.905
40863W        W  366  37.991  37.547  12.892
40864W        W  367  18.670   5.849   9.940
40865W        W  368  22.651  18.649   4.712
40866W        W  369  25.169  18.668   1.237
40867W        W  370  11.231   4.269  10.995
40868W        W  371  14.111  38.526  12.371
40869W        W  372  40.904   4.288   0.332
40870W        W  373  42.384  37.933  12.451
40871W        W  374   8.845  44.441   0.373
40872W        W  375  41.980  12.286   2.376
40873W        W  376   0.286  40.904  13.016
40874W        W  377  41.822  30.534   1.749
40875W        W  378  35.552  44.322   4.128
40876W        W  379  42.896  17.689   3.747
40877W        W  380   4.733  18.273  10.113
40878W        W  381  44.281  27.658  13.443
40879W        W  382  44.962  18.582  11.911
40880W        W  383  35.056  21.039  12.028
40881W        W  384  39.880  23.131   3.172
40882W        W  385   1.967  37.916   0.439
40883W        W  386  16.611  26.519   0.835
40884W        W  387   2.287   9.687  13.028
40885W        W  388   2.750   9.188  14.312
40886W        W  389  16.214  44.405  11.582
40887W        W  390  33.955  17.091  12.971
40888W        W  391  17.601  16.155  11.105
40889W        W  392  30.623  34.435   1.408
40890W        W  393   2.315  18.176   5.307
40891W        W  394  33.949   6.409   2.408
40892W        W  395  27.057  23.685   3.382
40893W        W  396   4.301  11.634  10.409
40894W        W  397   0.977  28.080   3.177
40895W        W  398  19.681  26.681  14.763
40896W        W  399  23.710   8.394   1.320
40897W        W  400  22.665  34.930   0.331
40898W        W  401   2.897   2.887  13.512
40899W        W  402  18.231   6.243  12.512
40900W        W  403  19.142  11.761   4.699
40901W        W  404  22.230  17.267  14.403
40902W        W  405  38.519  17.637  12.503
40903W        W  406   2.947   4.828   3.679
40904W        W  407  24.698  23.018   1.787
40905W        W  408  13.340  13.809  14.884
40906W        W  409   9.879  40.024  13.041
40907W        W  410   2.409  40.836   3.795
40908W        W  411  33.591  26.100   3.823
40909W        W  412   4.334  36.865  14.327
40910W        W  413  30.472   4.436   2.674
40911W        W  414  21.611  28.081   3.796
40912W        W  415  23.066  19.247   3.214
40913W        W  416  29.514  37.966  10.622
40914W        W  417  40.917  26.593   0.315
40915W        W  418   7.279  16.770   4.685
40916W        W  419  26.126  21.147  11.106
40917W        W  420  42.006  41.468   5.109
40918W        W  421  22.582  10.691   4.630
40919W        W  422  22.515  21.666   2.857
40920W        W  423  18.238  37.416  12.511
40921W        W  424  39.944  34.920  12.467
40922W        W  425  43.982   1.283   0.364
40923W        W  426  18.089  32.116   2.861
40924W        W  427  39.399  37.434   4.653
40925W        W  428  18.115  10.335   0.870
40926W        W  429  34.462  26.467  13.951
40927W        W  430  42.948   8.802  14.928
40928W        W  431  19.108   7.873   3.803
40929W        W  432  31.434   5.720  14.345
40930W        W  433   1.902  33.008  11.994
40931W        W  434   0.287  10.207   4.177
40932W        W  435  28.484  20.126   1.848
40933W        W  436   8.378  20.237   2.896
40934W        W  437  42.956  40.313  14.434
40935W        W  438   4.413  31.065  14.788
40936W        W  439  26.541  30.915   2.857
40937W        W  440   7.186  18.658   1.223
40938W        W  441  13.151  43.483  13.007
40939W        W  442  21.164  32.490  12.516
40940W        W  443  37.873  38.421  12.939
40941W        W  444  10.815  32.057   2.327
40942W        W  445  22.714  25.519   3.719
40943W        W  446  32.440   3.347   0.293
40944W        W  447   0.259  17.288  13.481
40945W        W  448  27.977  18.682   4.739
40946W        W  449  21.199   7.702  11.559
40947W        W  450  24.619  22.562  11.414
40948W        W  451  20.739  44.414  10.922
40949W        W  452  35.936  21.238  10.453
40950W        W  453  41.324  16.239   4.739
40951W        W  454  29.037   5.283  14.981
40952W        W  455   1.356  17.674  13.809
40953W        W  456  19.711  12.322  13.043
40954W        W  457  34.000  33.508   4.792
40955W        W  458  12.765  23.004   3.284
40956W        W  459  33.969  43.463   3.184
40957W        W  460   9.868   6.313   2.890
40958W        W  461  35.006  13.267   5.176
40959W        W  462  43.476   6.719  12.381
40960W        W  463  12.278  32.904   0.806
40961W        W  464  17.259   0.329   3.385
40962W        W  465   1.380   2.397   0.811
40963W        W  466  37.566  43.481  14.788
40964W        W  467  25.594  24.088  13.319
40965W        W  468  37.344  25.610  10.472
40966W        W  469  35.879  33.044   4.700
40967W        W  470  43.277  41.341   2.377
40968W        W  471  40.856   9.799   4.132
40969W        W  472  17.766  26.171  11.487
40970W        W  473   1.434  39.006  13.512
40971W        W  474  28.951  25.167   1.271
40972W        W  475  22.552  14.325   1.354
40973W        W  476  21.150  41.483  10.504
40974W        W  477  37.020   5.249   3.702
40975W        W  478  14.724  32.586   5.746
40976W        W  479  19.578  38.464   1.735
40977W        W  480   6.262  40.030  14.817
40978W        W  481  12.184   6.374   0.737
40979W        W  482  16.761  14.110  14.017
40980W        W  483  14.684  20.033   0.907
40981W        W  484  33.501   2.763   1.364
40982W        W  485  12.624  42.865  14.338
40983W        W  486   8.763   3.722  12.393
40984W        W  487  15.248  32.030   0.279
40985W        W  488   1.748  23.126  12.947
40986W        W  489  42.281  13.335   0.856
40987W        W  490  28.554  38.547   4.167
40988W        W  491  43.508   8.820   3.785
40989W        W  492  32.452  18.081  11.439
40990W        W  493  14.140   1.835  13.323
40991W        W  494   2.753  12.347  14.917
40992W        W  495  15.796   7.735  12.832
40993W        W  496   3.323  21.160  14.916
40994W        W  497  43.372  36.932   1.915
40995W        W  498   6.210  30.523  11.919
40996W        W  499  33.404  39.815   1.250
40997W        W  500  38.857  31.516   2.862
40998W        W  501  12.803   3.236  11.385
40999W        W  502  23.042  22.030   1.798
41000W        W  503   5.786  26.021  14.795
41001W        W  504   7.379  37.545   0.949
41002W        W  505  43.779  21.715  10.459
41003W        W  506  13.647  11.295   0.924
41004W        W  507  39.525  44.372   4.249
41005W        W  508  23.634  36.021   0.843
41006W        W  509   9.686  39.402  14.942
41007W        W  510  10.723  28.028  13.027
41008W        W  511  24.180  17.278  13.970
41009W        W  512  29.660  24.493   1.705
41010W        W  513   1.947  31.981  11.044
41011W        W  514  14.186  44.295  14.499
41012W        W  515   0.369  30.089  12.999
41013W        W  516  33.119  25.537  12.863
41014W        W  517   5.699  23.627   0.740
41015W        W  518   8.392   0.481   3.764
41016W        W  519  26.191   9.365  10.555
41017W        W  520  42.502  30.053   2.715
41018W        W  521  32.052  21.718   4.229
41019W        W  522  17.146  36.986  13.923
41020W        W  523  34.499  38.840  13.882
41021W        W  524  43.381   1.312  12.884
41022W        W  525  27.083  29.638   4.798
41023W        W  526  38.430  40.977  13.043
41024W        W  527  27.049  23.992   4.195
41025W        W  528   4.364   8.829  13.057
41026W        W  529  14.330  14.239   4.780
41027W        W  530  32.635  44.892   1.775
41028W        W  531  41.909  14.718  13.497
41029W        W  532  26.575  37.926  13.879
41030W        W  533   3.729  26.459  10.547
41031W        W  534  30.454  43.952   4.300
41032W        W  535  34.042  21.723   4.654
41033W        W  536   5.712  15.611  13.538
41034W        W  537  11.286  20.636   2.850
41035W        W  538  24.545  21.203   3.224
41036W        W  539   0.814  25.640   4.612
41037W        W  540  30.016   8.392  11.387
41038W        W  541  42.969  31.479   3.285
41039W        W  542  28.626  12.289  11.470
41040W        W  543   0.372  22.508  14.847
41041W        W  544  14.819  25.158   2.674
41042W        W  545  29.048  43.791   0.802
41043W        W  546  15.271  43.484  10.575
41044W        W  547  18.060  15.150   1.321
41045W        W  548  34.946  44.754  11.999
41046W        W  549   6.395  19.543   2.414
41047W        W  550  22.088  17.759   2.178
41048W        W  551  13.716  40.499   3.348
41049W        W  552   7.313  27.111   1.779
41050W        W  553  29.068   7.744   0.312
41051W        W  554  10.732   2.810   2.316
41052W        W  555   0.451  38.394   1.706
41053W        W  556   2.274  11.761  13.002
41054W        W  557  20.676   2.424  12.461
41055W        W  558  29.008  14.687  14.762
41056W        W  559  26.102  20.040  13.970
41057W        W  560  30.994  25.700  11.501
41058W        W  561   9.378  31.013   0.361
41059W        W  562  29.931  19.596   2.355
41060W        W  563  41.970  34.591   2.663
41061W        W  564   1.256   3.731  12.080
41062W        W  565  31.010  33.624  14.763
41063W        W  566  27.623   8.719   4.259
41064W        W  567  31.026  37.461   1.245
41065W        W  568   7.844  25.102  11.501
41066W        W  569  44.427  30.118  14.336
41067W        W  570   3.859   7.302   3.841
41068W        W  571  39.366  40.366  13.035
41069W        W  572  10.674   4.782  14.002
41070W        W  573  36.063  17.218  10.949
41071W        W  574   8.879  30.518   2.178
41072W        W  575  32.557  28.485   0.351
41073W        W  576  14.194  11.210   0.794
41074W        W  577  24.569  37.434  12.487
41075W        W  578   2.896   0.987  12.953
41076W        W  579  33.925  43.418   2.305
41077W        W  580  22.509  42.913  10.956
41078W        W  581  16.759   1.747   1.309
41079W        W  582   8.701  25.198   1.308
41080W        W  583   1.460  41.369   2.848
41081W        W  584  33.916  27.685  11.389
41082W        W  585  23.119  13.143  12.012
41083W        W  586  13.140  12.766  13.505
41084W        W  587  42.009  41.004   1.889
41085W        W  588  25.554  28.184  14.479
41086W        W  589  21.731  40.047   2.310
41087W        W  590   0.811   9.880  13.411
41088W        W  591  12.278  18.237  10.964
41089W        W  592  13.347   6.313   2.826
41090W        W  593  20.651  18.609  12.952
41091W        W  594  31.130  39.447   0.284
41092W        W  595  19.041  16.261   2.268
41093W        W  596   5.218  29.156  11.541
41094W        W  597  16.082  42.983  10.639
41095W        W  598   3.370   1.791   0.966
41096W        W  599  30.414  15.123   2.794
41097W        W  600  26.167   9.698  13.906
41098W        W  601  21.031  27.648  13.981
41099W        W  602  12.141   4.311  11.905
41100W        W  603  18.199  17.743  12.492
41101W        W  604   7.858   5.717  12.412
41102W        W  605  38.868  41.340  14.029
41103W        W  606  18.184  14.167   3.287
41104W        W  607  35.452  30.523   2.232
41105W        W  608  30.120  20.667   3.725
41106W        W  609  13.660  29.457  12.951
41107W        W  610   6.748  12.360  13.975
41108W        W  611  39.896  44.844  10.964
41109W        W  612   0.955  32.003  12.526
41110W        W  613  17.637  32.590  12.505
41111W        W  614  12.757  43.811   3.736
41112W        W  615  22.092   8.747   0.739
41113W        W  616  19.245  40.454   4.703
41114W        W  617  30.138  34.476  14.409
41115W        W  618  37.401  35.475   3.244
41116W        W  619  11.236  35.455   3.817
41117W        W  620  42.497  32.608  11.402
41118W        W  621  24.519  20.699   1.309
41119W        W  622   5.750  43.339  11.393
41120W        W  623   1.734  33.975   0.773
41121W        W  624  36.959  34.576   3.648
41122W        W  625  24.699  21.169  14.348
41123W        W  626   9.701   6.881  14.885
41124W        W  627  25.694   2.865   2.330
41125W        W  628  11.671  35.051  13.813
41126W        W  629   0.383  36.912   2.279
41127W        W  630  42.329  19.072  11.600
41128W        W  631  22.745  28.126  14.408
41129W        W  632  42.806  14.197  13.855
41130W        W  633  44.294  21.158   5.715
41131W        W  634   0.311   5.836   0.256
41132W        W  635  21.512  16.811  14.468
41133W        W  636  43.934   8.858  10.889
41134W        W  637   5.864   6.341  13.373
41135W        W  638  34.048  22.618  10.408
41136W        W  639  37.875  16.804   3.354
41137W        W  640   6.358  38.902   1.296
41138W        W  641  21.601  35.979   0.343
41139W        W  642  40.838  26.661   3.740
41140W        W  643  12.705  22.109  13.461
41141W        W  644  41.848  42.991   0.444
41142W        W  645   3.369  16.620   0.968
41143W        W  646  28.987   6.683  14.438
41144W        W  647  31.431  35.970  10.439
41145W        W  648  31.084   5.754  14.933
41146W        W  649  22.228   9.355   3.819
41147W        W  650  20.656   7.410   3.840
41148W        W  651  23.115   0.904   2.358
41149W        W  652  35.037   1.389   3.284
41150W        W  653  36.914  37.513   1.345
41151W        W  654  39.416  39.005  12.466
41152W        W  655  23.678  16.577   4.702
41153W        W  656  13.204  40.001   9.954
41154W        W  657  30.499  43.468   3.285
41155W        W  658  43.341  37.960   0.318
41156W        W  659   0.395  31.615   2.302
41157W        W  660  17.623   5.389  14.807
41158W        W  661   2.360  36.384  14.372
41159W        W  662  31.619  33.124  12.357
41160W        W  663  12.231   7.844   0.803
41161W        W  664  21.657  31.044   2.771
41162W        W  665  40.403   9.809   3.287
41163W        W  666  29.495  12.621  10.030
41164W        W  667  23.085  44.846   0.247
41165W        W  668   6.752   6.847  12.989
41166W        W  669  37.961  32.496  10.908
41167W        W  670  11.175   8.371   3.219
41168W        W  671  25.559  15.682   1.356
41169W        W  672  39.402  21.642  10.614
41170W        W  673  26.010  34.873  13.805
41171W        W  674  26.457   5.328   3.755
41172W        W  675   0.421  23.103   0.279
41173W        W  676  23.498  41.982  12.363
41174W        W  677   1.841   3.801  10.515
41175W        W  678  42.823   9.795  12.473
41176W        W  679  42.499  43.477  11.393
41177W        W  680  40.037  12.334  11.998
41178W        W  681  34.519  13.185   3.166
41179W        W  682   0.820  40.332   0.315
41180W        W  683  41.932  36.089   0.351
41181W        W  684  37.578  27.132  11.508
41182W        W  685  35.544  33.606  12.562
41183W        W  686   0.313  32.608   2.223
41184W        W  687  28.161  43.011  13.822
41185W        W  688   5.260  13.211   1.255
41186W        W  689   8.170  14.738   4.211
41187W        W  690  33.568  19.200  12.365
41188W        W  691  14.149  32.587   1.270
41189W        W  692  26.074  26.001  12.893
41190W        W  693   2.935   8.662   1.859
41191W        W  694   9.792  16.205  14.354
41192W        W  695  20.694   6.419   2.405
41193W        W  696  29.136  41.836  12.368
41194W        W  697  42.019  30.424   3.243
41195W        W  698  19.145  18.768  12.054
41196W        W  699   2.964  20.033  11.488
41197W        W  700  12.278  24.650  13.037
41198W        W  701  37.967   3.224  12.475
41199W        W  702  44.912  29.623   3.320
41200W        W  703  21.689  35.591  10.918
41201W        W  704  17.719  43.940  12.499
41202W        W  705   0.905   1.832   3.316
41203W        W  706  21.135   3.944   3.865
41204W        W  707  26.070  40.515   4.762
41205W        W  708  33.506   6.865   1.295
41206W        W  709  12.640   8.740  10.972
41207W        W  710  22.214  29.943  13.479
41208W        W  711  26.632  12.359   0.263
41209W        W  712  23.211  10.216   0.834
41210W        W  713  44.486  31.638   2.282
41211W        W  714  25.123   3.223   0.731
41212W        W  715  26.206   3.445   3.385
41213W        W  716  11.854  25.966   4.788
41214W        W  717  41.393   1.334  14.312
41215W        W  718  23.545  17.261  14.993
41216W        W  719  42.986  36.583  14.297
41217W        W  720  12.186  41.005  10.583
41218W        W  721  11.286  42.028  11.122
41219W        W  722  33.528  28.041   1.323
41220W        W  723   3.263  29.002  13.864
41221W        W  724  29.034  10.290   3.831
41222W        W  725  43.013  24.569  11.930
41223W        W  726  29.067   5.823   3.644
41224W        W  727  33.573  22.161  14.849
41225W        W  728   5.213  40.006  11.907
41226W        W  729   1.815  31.422   4.614
41227W        W  730  41.857  25.203   2.876
41228W        W  731  15.199  30.531  12.417
41229W        W  732   6.238  38.003  10.990
41230W        W  733  31.909  35.445   5.782
41231W        W  734  21.699  27.557   1.230
41232W        W  735  31.062   6.805  13.984
41233W        W  736   7.299  44.370   1.404
41234W        W  737   5.780  37.954  11.889
41235W        W  738  33.915  21.584   3.814
41236W        W  739  15.823   9.295  10.536
41237W        W  740  17.696  38.503  13.801
41238W        W  741  28.602  11.813  13.865
41239W        W  742  43.770   0.287  13.482
41240W        W  743  14.103   5.700   0.845
41241W        W  744   9.343  22.585   1.229
41242W        W  745   0.473  33.520  11.413
41243W        W  746  41.984  38.015  13.482
41244W        W  747  31.138  27.545  14.828
41245W        W  748   9.311   7.792  13.407
41246W        W  749  42.318  43.994  12.984
41247W        W  750  11.827  42.951   2.901
41248W        W  751  39.378  36.029  11.110
41249W        W  752   1.449  25.694   9.671
41250W        W  753  12.350  28.114  12.867
41251W        W  754  38.062  29.670  11.872
41252W        W  755  42.929   0.451  10.499
41253W        W  756  44.299  39.328   1.269
41254W        W  757  17.252  20.530   4.154
41255W        W  758  44.960  40.968  13.480
41256W        W  759  10.673  13.188   0.265
41257W        W  760  20.238  40.981   0.284
41258W        W  761  13.117   3.325  10.160
41259W        W  762  20.105  14.714  10.414
41260W        W  763  31.026   0.429  14.851
41261W        W  764  40.353  29.153  13.938
41262W        W  765  23.231   2.443  14.358
41263W        W  766   8.671  20.064  14.838
41264W        W  767  34.041   6.348  10.523
41265W        W  768  20.707  43.861   1.306
41266W        W  769   6.308  10.876  14.494
41267W        W  770  27.650  10.745  14.801
41268W        W  771  36.055  30.468   4.296
41269W        W  772   4.362  41.813  14.464
41270W        W  773  44.987   1.873  11.482
41271W        W  774  28.509  44.973   2.836
41272W        W  775   7.889  10.753   3.357
41273W        W  776   0.986  12.834  14.897
41274W        W  777  14.637  20.678   2.389
41275W        W  778   3.748   6.348  10.586
41276W        W  779  11.765  36.053  13.040
41277W        W  780   4.385  26.005   3.352
41278W        W  781  43.949   1.312  13.971
41279W        W  782  32.993  35.036  14.305
41280W        W  783   4.821   1.899  10.026
41281W        W  784  18.278  44.879   3.708
41282W        W  785  17.174  44.327   0.408
41283W        W  786   4.860  24.706   2.384
41284W        W  787  38.372  34.051  10.549
41285W        W  788  40.535  34.920   4.811
41286W        W  789  41.903  16.082  11.866
41287W        W  790  44.346  43.956  11.426
41288W        W  791   1.318  21.246   3.680
41289W        W  792  16.149  21.034   0.774
41290W        W  793   5.399  26.082   3.858
41291W        W  794  25.502  34.965   3.773
41292W        W  795  38.048  14.833   2.368
41293W        W  796  31.623   9.718   3.787
41294W        W  797  12.847  40.897   1.321
41295W        W  798  29.049  28.595   4.631
41296W        W  799  42.316   4.411  14.410
41297W        W  800   9.294  28.971   0.804
41298W        W  801  21.074   0.414  14.476
41299W        W  802   2.439  41.821   5.215
41300W        W  803  11.246  14.123  12.089
41301W        W  804  20.726  38.516  11.017
41302W        W  805  15.304   4.769  14.884
41303W        W  806  20.124   7.760   2.360
41304W        W  807  37.884  26.530   0.950
41305W        W  808  23.173  34.867   1.742
41306W        W  809  11.315  31.582  13.823
41307W        W  810  12.322  23.138   0.393
41308W        W  811  37.016  29.022  13.402
41309W        W  812  36.411  40.002  14.325
41310W        W  813  41.350  36.939   2.351
41311W        W  814  40.533   1.429   4.629
41312W        W  815  34.560  37.472  11.032
41313W        W  816  35.394  16.598   0.787
41314W        W  817  25.632  41.362   5.183
41315W        W  818  23.128   4.431   0.261
41316W        W  819  23.519  38.950  13.878
41317W        W  820  16.077   5.295  14.847
41318W        W  821  23.181   9.295  11.093
41319W        W  822  15.673  35.068  11.481
41320W        W  823  18.762  22.077   2.879
41321W        W  824  31.088  31.088   1.748
41322W        W  825  20.062  25.110  10.590
41323W        W  826   4.447  13.709   1.309
41324W        W  827  34.395  31.096   3.184
41325W        W  828  38.837   9.886  11.093
41326W        W  829  33.058  37.902  12.955
41327W        W  830  12.146  16.229  12.979
41328W        W  831  44.319  23.601  11.945
41329W        W  832  24.070  23.016   2.667
41330W        W  833   8.840   4.699  12.858
41331W        W  834   5.698  43.513  12.506
41332W        W  835  37.337  44.422  11.471
41333W        W  836  24.561  21.511  11.555
41334W        W  837  18.715  15.269  10.596
41335W        W  838  27.599  43.789   1.862
41336W        W  839  34.607  38.823   1.308
41337W        W  840  11.157  13.242   4.251
41338W        W  841  41.908  14.189  10.529
41339W        W  842  16.644  23.557  12.390
41340W        W  843   0.345  32.495  13.875
41341W        W  844   2.742  40.359  12.919
41342W        W  845  14.789  31.555   4.616
41343W        W  846  32.906  16.317   0.359
41344W        W  847   5.332   5.812   1.419
41345W        W  848  40.493  32.988   3.299
41346W        W  849  38.423  33.383   4.700
41347W        W  850  35.020   6.877  13.949
41348W        W  851  13.286  30.595  12.950
41349W        W  852  28.582  30.054   1.799
41350W        W  853  28.122  21.257   4.696
41351W        W  854  44.468  38.903   4.346
41352W        W  855  35.959  44.815  13.310
41353W        W  856  33.924  32.496   4.223
41354W        W  857  11.327  16.720   4.132
41355W        W  858  35.939  29.966   4.765
41356W        W  859  18.586  11.212   3.176
41357W        W  860  14.278  35.988  11.066
41358W        W  861  23.155  23.517  14.324
41359W        W  862  22.159  11.688  14.402
41360W        W  863  28.553   8.272  13.383
41361W        W  864  11.810  42.371   2.277
41362W        W  865  21.581  26.107  12.517
41363W        W  866  42.457  11.321  13.511
41364W        W  867  22.599  30.087   3.230
41365W        W  868  41.033  18.727   4.307
41366W        W  869  28.477  43.990  11.424
41367W        W  870  23.200  32.950   1.776
41368W        W  871  23.663   7.829   0.387
41369W        W  872  22.527  30.482   0.247
41370W        W  873  39.444   2.855  10.469
41371W        W  874   7.683  42.480  11.047
41372W        W  875   5.871  12.289   0.789
41373W        W  876   7.279  10.238   2.884
41374W        W  877  24.497  41.329   0.764
41375W        W  878  44.848  18.100   2.256
41376W        W  879  39.926  34.475   4.696
41377W        W  880  20.655  21.257  13.368
41378W        W  881  28.168  37.578   1.782
41379W        W  882  26.661  28.456  14.805
41380W        W  883  11.818  15.240  12.410
41381W        W  884  32.044  44.825  14.862
41382W        W  885  32.032  28.508  12.930
41383W        W  886  39.828  19.193  13.864
41384W        W  887  40.375   1.336  12.986
41385W        W  888   5.241   2.855  12.520
41386W        W  889  34.550  27.098   4.760
41387W        W  890  33.087  25.497   0.797
41388W        W  891   8.295  44.900  14.867
41389W        W  892  40.993  12.306  14.809
41390W        W  893  15.316  14.767  10.430
41391W        W  894  21.525   4.865  11.041
41392W        W  895   6.895  42.454   4.271
41393W        W  896  31.530  43.305   2.828
41394W        W  897  31.618   1.798  11.028
41395W        W  898  21.051  40.499  14.796
41396W        W  899  12.849   1.300   1.783
41397W        W  900  29.983   8.830   0.250
41398W        W  901  21.754  36.386   0.404
41399W        W  902  39.890   1.273  11.492
41400W        W  903  16.201  26.532  13.485
41401W        W  904  35.881  44.445   2.844
41402W        W  905  10.745  35.428   3.327
41403W        W  906  29.474  35.389   1.376
41404W        W  907  39.837  31.613  11.447
41405W        W  908   4.339   3.853   1.320
41406W        W  909  37.422   3.305   1.781
41407W        W  910   6.810  15.760  11.924
41408W        W  911  26.605  42.896   1.334
41409W        W  912  14.714  29.136   1.770
41410W        W  913   4.847   4.212  10.414
41411W        W  914   2.891   9.750  14.899
41412W        W  915  44.943  29.521   4.197
41413W        W  916   0.838  33.062   4.597
41414W        W  917  33.955   6.888   3.720
41415W        W  918  30.068  23.035  13.500
41416W        W  919  10.806   0.478   1.376
41417W        W  920  25.468  32.097  14.853
41418W        W  921  22.576   1.953   5.257
41419W        W  922  17.250  31.483  13.792
41420W        W  923   4.316  14.233   2.238
41421W        W  924  17.587  28.667  11.507
41422W        W  925  16.723  33.107   4.720
41423W        W  926  28.680  12.358  10.473
41424W        W  927  43.791  40.852   1.447
41425W        W  928   4.791  28.615  12.055
41426W        W  929   7.698  10.857  11.101
41427W        W  930  22.567  22.189  14.440
41428W        W  931  32.073  36.439  11.554
41429W        W  932  33.417  15.677   2.233
41430W        W  933  24.718  20.706   2.187
41431W        W  934  43.900  19.670   1.735
41432W        W  935  43.335  12.323   3.796
41433W        W  936  11.638   1.764   9.948
41434W        W  937   3.805  37.398  13.385
41435W        W  938  30.110  11.285   4.315
41436W        W  939  20.159   6.321   0.418
41437W        W  940  21.167  16.729  10.126
41438W        W  941  12.755  15.647   5.210
41439W        W  942  18.139   3.954   3.836
41440W        W  943  39.877   4.880  11.457
41441W        W  944  41.964  15.584  14.895
41442W        W  945   0.428  28.083  13.521
41443W        W  946  24.623  33.093  10.491
41444W        W  947  14.326  37.348  11.962
41445W        W  948  28.032  30.979   3.350
41446W        W  949  34.922  33.464   1.894
41447W        W  950   6.886  37.987  13.540
41448W        W  951  43.282  37.491   2.791
41449W        W  952  12.631  34.468  11.939
41450W        W  953  29.955  37.991  14.944
41451W        W  954  15.163  40.527   2.671
41452W        W  955  16.155  39.543   3.781
41453W        W  956  13.813  33.577  11.939
41454W        W  957  10.700   6.879  10.960
41455W        W  958  29.600  10.195  12.054
41456W        W  959   5.906  21.579   1.897
41457W        W  960  18.192  33.612   1.881
41458W        W  961  24.065   0.467   1.246
41459W        W  962  17.295   4.415  14.998
41460W        W  963   1.792  37.864  13.791
41461W        W  964  27.605  22.587  13.028
41462W        W  965  12.332   2.378   3.363
41463W        W  966  11.210  23.076  12.090
41464W        W  967  33.552  23.514   3.718
41465W        W  968   3.832   9.851  13.929
41466W        W  969  39.938  39.919  11.430
41467W        W  970  22.151  22.742  11.611
41468W        W  971  11.819   4.362   4.180
41469W        W  972  12.177  12.118  11.990
41470W        W  973  22.088  29.013   0.359
41471W        W  974  15.122  44.899  13.924
41472W        W  975  16.617  13.704  10.619
41473W        W  976  14.314   3.856  14.468
41474W        W  977  27.535  14.325   4.285
41475W        W  978  25.702  28.954  12.429
41476W        W  979  37.397  15.710   4.226
41477W        W  980  14.807  11.234  12.064
41478W        W  981  14.680   1.743  12.016
41479W        W  982  41.400  11.632   0.274
41480W        W  983  37.067  41.954  10.630
41481W        W  984   7.360  11.646  13.393
41482W        W  985  21.628  19.257  14.843
41483W        W  986  35.485  12.613  12.913
41484W        W  987  12.653  27.547  10.636
41485W        W  988  14.116  33.985  11.091
41486W        W  989  31.533  10.644   0.373
41487W        W  990   9.886  14.284  10.470
41488W        W  991   0.256  24.512  10.439
41489W        W  992  28.444  11.225  11.457
41490W        W  993  29.054  21.537  11.122
41491W        W  994  42.840  34.908  10.980
41492W        W  995   0.767  31.033  11.907
41493W        W  996  21.158  27.570   2.841
41494W        W  997  18.706  21.758   3.730
41495W        W  998  39.004  22.722   3.749
41496W        W  999   5.847   0.920   0.376
41497W        W 1000  37.021  10.369  13.905
41498W        W 1001  12.212  14.814  13.325
41499W        W 1002  28.648  14.640   4.627
41500W        W 1003  26.015  36.459  14.404
41501W        W 1004  37.355   8.295   1.368
41502W        W 1005   5.927  27.539   1.307
41503W        W 1006  24.098  15.822  11.405
41504W        W 1007  36.930  26.645  11.538
41505W        W 1008   8.232  20.215   1.436
41506W        W 1009  44.316  35.880   3.798
41507W        W 1010  35.070   5.303  11.070
41508W        W 1011  11.749  16.662   3.665
41509W        W 1012  39.950  16.265  14.873
41510W        W 1013  29.048   1.379   4.632
41511W        W 1014  34.548  13.144   2.699
41512W        W 1015  41.514  41.901  10.465
41513W        W 1016  12.767  33.549   1.435
41514W        W 1017  17.104  38.544   0.314
41515W        W 1018  19.047   7.213   0.734
41516W        W 1019  27.132  10.193  12.395
41517W        W 1020   3.929   5.810   0.762
41518W        W 1021  20.677  19.564  12.915
41519W        W 1022  17.764  41.342  13.796
41520W        W 1023   5.883  15.605  13.938
41521W        W 1024   9.211  21.257  11.085
41522W        W 1025  41.864   8.768  12.352
41523W        W 1026  12.242  37.991  13.456
41524W        W 1027  22.250  17.267  12.493
41525W        W 1028  28.964  26.575  11.475
41526W        W 1029  42.903  28.522   1.441
41527W        W 1030  41.466  43.862  11.944
41528W        W 1031  12.651   5.804  11.989
41529W        W 1032  35.413  43.507  10.489
41530W        W 1033  11.244   8.382   0.946
41531W        W 1034   8.309   9.215  10.426
41532W        W 1035  40.033  43.475   3.631
41533W        W 1036  40.028  24.163  11.905
41534W        W 1037  34.068  23.491  10.603
41535W        W 1038  41.898  15.082   0.729
41536W        W 1039   7.730  37.030  13.991
41537W        W 1040  39.968  11.860   0.437
41538W        W 1041  36.457  26.646   2.897
41539W        W 1042   0.975  27.634  12.533
41540W        W 1043  39.943  43.802   3.782
41541W        W 1044  14.783  28.151   1.212
41542W        W 1045  12.836  27.989   0.960
41543W        W 1046   9.736  39.416   2.371
41544W        W 1047  12.680  41.534   1.814
41545W        W 1048  15.161  42.023  11.376
41546W        W 1049  16.617   6.277   2.256
41547W        W 1050  30.977   8.217  10.935
41548W        W 1051  19.617  37.525  11.991
41549W        W 1052  17.265  14.103  11.888
41550W        W 1053   6.248  44.996   0.365
41551W        W 1054  43.906  13.212  13.364
41552W        W 1055  12.708  37.359  11.594
41553W        W 1056  14.612   1.828   2.299
41554W        W 1057   0.483  21.523   3.358
41555W        W 1058  35.046  44.346   1.353
41556W        W 1059  37.521  44.892  12.087
41557W        W 1060  10.305   1.384   4.247
41558W        W 1061  26.075   5.922   2.219
41559W        W 1062  35.487   4.315   2.806
41560W        W 1063   9.707  15.144   1.389
41561W        W 1064   5.746   4.879  13.022
41562W        W 1065  29.639   6.815  10.929
41563W        W 1066  25.488  34.986   4.353
41564W        W 1067  21.738   5.311   1.320
41565W        W 1068  38.839  19.654   3.828
41566W        W 1069   6.403  11.704   0.937
41567W        W 1070  33.556  42.873   2.804
41568W        W 1071  10.783   8.663   1.765
41569W        W 1072  30.618   4.749  10.463
41570W        W 1073   8.222  41.376  13.470
41571W        W 1074  28.522   7.859  12.553
41572W        W 1075  14.765  28.101   2.889
41573W        W 1076  30.135  33.975  12.559
41574W        W 1077  32.502  44.802  10.963
41575W        W 1078  30.153   0.293   2.784
41576W        W 1079  31.922  33.034  12.387
41577W        W 1080   2.372  11.332  11.027
41578W        W 1081  16.167  22.517   0.470
41579W        W 1082  32.554   6.895   3.349
41580W        W 1083   5.425  22.507  12.347
41581W        W 1084  19.670  10.338   1.919
41582W        W 1085  24.580  35.424   0.465
41583W        W 1086  39.909  31.628   1.283
41584W        W 1087  16.140  23.044  11.583
41585W        W 1088  36.019  10.811  10.949
41586W        W 1089  11.764  43.510  14.330
41587W        W 1090  31.974  39.991   4.754
41588W        W 1091  26.513   6.851   1.860
41589W        W 1092  15.748  13.790  12.867
41590W        W 1093  12.837  18.132  10.453
41591W        W 1094  22.165  27.187   4.743
41592W        W 1095  11.708  13.288   0.954
41593W        W 1096  32.921   5.895   3.648
41594W        W 1097  37.998  28.581   2.351
41595W        W 1098  11.647  43.340  11.454
41596W        W 1099  20.031  43.435   1.376
41597W        W 1100  21.040   8.393   0.899
41598W        W 1101  10.343  18.153   3.276
41599W        W 1102   0.823   3.877  12.478
41600W        W 1103  34.527  25.505   1.899
41601W        W 1104  36.538   7.738  10.522
41602W        W 1105  38.904  18.572  14.400
41603W        W 1106  10.211  38.426  10.968
41604W        W 1107  36.890  39.983  13.985
41605W        W 1108  34.013   6.823   3.223
41606W        W 1109   6.790  34.026  10.988
41607W        W 1110  43.937  37.338  13.802
41608W        W 1111  34.530  39.958  11.947
41609W        W 1112  36.486  35.046  10.095
41610W        W 1113   6.315   9.313   1.370
41611W        W 1114  12.618  13.727   2.702
41612W        W 1115   3.954  40.488   0.414
41613W        W 1116  29.987  31.106  11.009
41614W        W 1117  36.553  21.618   2.824
41615W        W 1118  22.574  12.656   3.341
41616W        W 1119  27.088  20.067   4.194
41617W        W 1120  36.551   2.832  13.851
41618W        W 1121  44.933   5.436   3.636
41619W        W 1122  15.740  13.262  10.939
41620W        W 1123  16.690  15.738   3.844
41621W        W 1124  34.588   9.354  13.340
41622W        W 1125   7.749  11.749   2.747
41623W        W 1126  39.937   0.426   1.420
41624W        W 1127  41.462   2.395  10.612
41625W        W 1128  18.180  33.948   1.755
41626W        W 1129  29.978   3.451  11.558
41627W        W 1130   6.716  40.025   1.871
41628W        W 1131  35.083  21.620  10.471
41629W        W 1132  29.462  17.566   1.858
41630W        W 1133  42.910  16.692   3.302
41631W        W 1134  39.025  18.765  13.487
41632W        W 1135  28.972  17.109   3.359
41633W        W 1136  22.138   4.750  12.054
41634W        W 1137  13.731  18.262   4.676
41635W        W 1138   2.410  42.357  11.569
41636W        W 1139  16.155  38.495  13.358
41637W        W 1140  44.500  24.704   1.934
41638W        W 1141  16.655  23.184   1.812
41639W        W 1142  29.157   4.784  14.008
41640W        W 1143   0.335   6.182  13.335
41641W        W 1144  30.514  30.136   4.353
41642W        W 1145  30.986  31.576  11.000
41643W        W 1146   6.741  19.632  10.554
41644W        W 1147  37.969  28.088   3.630
41645W        W 1148  11.860  11.718   3.690
41646W        W 1149  13.599  14.702  12.070
41647W        W 1150  14.729  26.594   2.245
41648W        W 1151  13.718  34.586  14.443
41649W        W 1152  13.809  21.220  10.561
41650W        W 1153  42.454   6.299   2.784
41651W        W 1154  27.551   7.900  12.874
41652W        W 1155  29.931  17.677  14.357
41653W        W 1156   0.483  41.983  14.769
41654W        W 1157  13.312   1.464   0.468
41655W        W 1158   6.288  25.503  10.926
41656W        W 1159  26.007  10.698   1.295
41657W        W 1160  13.712   4.750  14.275
41658W        W 1161  40.818  31.443   1.359
41659W        W 1162  29.965  19.273  11.569
41660W        W 1163   5.379   2.393  13.341
41661W        W 1164  35.379  27.112   4.335
41662W        W 1165  24.045  33.058  12.548
41663W        W 1166  37.079  41.018   1.366
41664W        W 1167  36.558   7.350  12.092
41665W        W 1168   5.404   4.250   2.714
41666W        W 1169  38.335  40.832   0.433
41667W        W 1170   6.859  19.227  12.879
41668W        W 1171   4.845  11.742  11.034
41669W        W 1172  22.506  27.978  11.587
41670W        W 1173  27.101  16.604  14.313
41671W        W 1174   8.663   8.710  10.930
41672W        W 1175  13.312  10.207   2.856
41673W        W 1176  26.176  29.639   0.331
41674W        W 1177   3.427  30.587  10.626
41675W        W 1178  16.737  24.564  13.487
41676W        W 1179   5.231  13.271   0.254
41677W        W 1180  23.150  21.197  11.949
41678W        W 1181  18.224  29.022  12.968
41679W        W 1182   9.712   3.777   3.659
41680W        W 1183  11.807  31.009   1.881
41681W        W 1184  10.305  30.644  12.547
41682W        W 1185  40.021  30.019  13.821
41683W        W 1186  31.613  41.825  13.887
41684W        W 1187  28.577  39.982   1.397
41685W        W 1188  29.459   2.772  12.531
41686W        W 1189  25.506  40.036  13.382
41687W        W 1190  16.196   2.819   4.193
41688W        W 1191  44.405  11.204   3.246
41689W        W 1192  16.081  17.240  14.009
41690W        W 1193  44.926  38.892  11.542
41691W        W 1194   1.860  29.659   2.357
41692W        W 1195  22.046  35.926  14.453
41693W        W 1196   9.667   3.215   1.401
41694W        W 1197  33.998   1.284  11.945
41695W        W 1198  35.451   1.918   0.912
41696W        W 1199  35.373  40.853   1.872
41697W        W 1200  39.352   0.911  12.557
41698W        W 1201   0.293  40.495  11.510
41699W        W 1202  16.644  19.695   3.211
41700W        W 1203   2.472  21.653   2.207
41701W        W 1204   1.902   6.302  12.927
41702W        W 1205  28.030  31.013   4.805
41703W        W 1206  38.378  43.423  11.577
41704W        W 1207  35.357  39.520   3.331
41705W        W 1208   4.279  33.453  10.633
41706W        W 1209  17.177  10.674  10.970
41707W        W 1210   8.676  24.231   3.633
41708W        W 1211  22.210  24.720   3.242
41709W        W 1212   9.369  34.054  12.974
41710W        W 1213  16.289  33.916  13.904
41711W        W 1214  32.049  19.701   4.817
41712W        W 1215  21.554  26.952  11.381
41713W        W 1216  34.551   3.382   2.863
41714W        W 1217  23.659  14.832  14.835
41715W        W 1218   6.776  41.361  13.487
41716W        W 1219   4.392  29.005  11.411
41717W        W 1220  36.921  27.038   4.316
41718W        W 1221  26.090  41.483  10.603
41719W        W 1222  44.484  34.118   0.336
41720W        W 1223  16.275  17.065  13.452
41721W        W 1224   4.238  26.533   1.345
41722W        W 1225  32.483  36.005  11.475
41723W        W 1226  17.104   4.716  14.291
41724W        W 1227  41.401   4.894  13.384
41725W        W 1228  29.027   1.432  14.013
41726W        W 1229   6.223  27.188   4.657
41727W        W 1230  37.049  15.669   1.231
41728W        W 1231  43.874  16.236  11.994
41729W        W 1232   1.365  31.547  14.996
41730W        W 1233  32.422  27.948   1.391
41731W        W 1234   8.186   7.697  13.039
41732W        W 1235  44.901  39.456   1.312
41733W        W 1236   5.867  16.316  11.451
41734W        W 1237  31.500  21.102  13.818
41735W        W 1238  38.998  41.297   3.337
41736W        W 1239  25.986  39.884   4.139
41737W        W 1240  25.547  27.556  13.474
41738W        W 1241   0.321  31.505   1.707
41739W        W 1242  16.301  26.093   4.330
41740W        W 1243  13.339  12.235  11.897
41741W        W 1244  41.836   0.403   3.336
41742W        W 1245  17.758  43.344   1.421
41743W        W 1246   7.333  31.107   0.820
41744W        W 1247  44.010  42.846   4.280
41745W        W 1248  21.065  34.384   4.633
41746W        W 1249  44.386  19.127  11.544
41747W        W 1250  44.883  31.063   2.419
41748W        W 1251   5.833  29.990  14.922
41749W        W 1252  28.001  20.761   1.853
41750W        W 1253  16.671  11.236   3.763
41751W        W 1254  14.094  24.015   1.431
41752W        W 1255  28.039  26.686  11.601
41753W        W 1256  16.309  25.515   0.440
41754W        W 1257  34.097  34.517  13.490
41755W        W 1258  34.940  10.854   1.254
41756W        W 1259   9.233  37.374   0.910
41757W        W 1260  36.575  44.849  12.067
41758W        W 1261  37.469  29.431   4.309
41759W        W 1262   9.737  36.946   0.780
41760W        W 1263  41.915  17.275  12.575
41761W        W 1264  40.888  43.307  10.607
41762W        W 1265  12.268  14.239   0.325
41763W        W 1266  11.857  22.175  10.461
41764W        W 1267   9.654   8.186  14.793
41765W        W 1268  17.104  43.370  10.568
41766W        W 1269  42.527   9.648   0.379
41767W        W 1270  33.994  17.177   1.929
41768W        W 1271  22.600  19.736   4.220
41769W        W 1272  38.383  18.637  10.607
41770W        W 1273  43.009  13.700  11.960
41771W        W 1274  10.277   5.364  13.492
41772W        W 1275  28.080  34.900   2.358
41773W        W 1276   9.777  15.314   0.340
41774W        W 1277  18.646  35.923  14.302
41775W        W 1278  11.865   9.817  13.818
41776W        W 1279  39.810  14.616  10.422
41777W        W 1280  41.510  17.214   1.364
41778W        W 1281  44.937   7.880   4.319
41779W        W 1282   6.194  40.454  11.562
41780W        W 1283  16.159  31.954   0.947
41781W        W 1284  41.381  41.522  12.924
41782W        W 1285  41.845  43.287  14.496
41783W        W 1286  36.853  18.121   3.367
41784W        W 1287  34.572  35.081  13.381
41785W        W 1288  19.627   9.655  13.364
41786W        W 1289  10.844  41.940  13.858
41787W        W 1290  27.461  11.859  11.964
41788W        W 1291  31.048  14.646  14.431
41789W        W 1292  43.914  25.497   4.171
41790W        W 1293  34.120  40.338   2.238
41791W        W 1294   6.362  14.199  13.326
41792W        W 1295   1.804  28.601   2.754
41793W        W 1296   0.799  26.487   3.154
41794W        W 1297  26.596  23.091   1.359
41795W        W 1298   2.759  42.358  14.364
41796W        W 1299  12.628   5.719   4.118
41797W        W 1300  39.364  24.185  12.956
41798W        W 1301   5.411  43.999  14.825
41799W        W 1302   4.274  14.820  14.918
41800W        W 1303  40.876   3.284   5.239
41801W        W 1304  36.415  37.883   1.428
41802W        W 1305  26.086  33.382  14.447
41803W        W 1306  39.961   8.387  14.992
41804W        W 1307   5.198  14.593   2.405
41805W        W 1308  10.353  27.071  14.325
41806W        W 1309   3.845  21.747   4.324
41807W        W 1310  19.089  43.875   0.839
41808W        W 1311  40.445  44.866  14.857
41809W        W 1312   2.359   0.973   2.372
41810W        W 1313   4.764  41.331   2.367
41811W        W 1314  32.962  19.042   3.762
41812W        W 1315  41.485   4.861  10.493
41813W        W 1316  10.636  44.494  14.018
41814W        W 1317   6.193  41.415   2.218
41815W        W 1318  44.986  26.656   3.249
41816W        W 1319  10.660   1.298   3.362
41817W        W 1320  15.807  35.397   2.317
41818W        W 1321  31.974  36.869  14.851
41819W        W 1322  15.773  31.106  12.903
41820W        W 1323   1.451  31.416   5.302
41821W        W 1324  12.633  20.702   0.476
41822W        W 1325   5.771  31.641   1.275
41823W        W 1326  27.470  43.384   0.752
41824W        W 1327   1.316  21.101  10.889
41825W        W 1328  39.330  21.744  13.475
41826W        W 1329  18.067  39.027   4.145
41827W        W 1330  38.832  16.669   2.684
41828W        W 1331  37.892  15.279  11.573
41829W        W 1332  28.012  35.478  11.996
41830W        W 1333  27.623  14.623   2.200
41831W        W 1334   8.661  18.263  11.539
41832W        W 1335  14.693  34.943  10.411
41833W        W 1336   0.330   4.799  13.913
41834W        W 1337  19.715  38.009  14.515
41835W        W 1338   3.784  24.595  10.119
41836W        W 1339  36.411   2.721   4.149
41837W        W 1340  13.649  30.501   3.656
41838W        W 1341   8.699  15.221  12.878
41839W        W 1342  39.877  35.073  11.988
41840W        W 1343   5.894  19.127  12.536
41841W        W 1344  20.032  38.384   0.806
41842W        W 1345  22.725  10.787   1.782
41843W        W 1346  17.681   5.719   3.211
41844W        W 1347  35.535   1.766  12.568
41845W        W 1348  23.665  29.516  13.483
41846W        W 1349  27.458  17.644  13.872
41847W        W 1350  26.613  21.091  11.531
41848W        W 1351   8.735  41.954   3.292
41849W        W 1352  42.974  10.144   3.213
41850W        W 1353  22.582  11.760   4.708
41851W        W 1354  33.124  35.958   0.417
41852W        W 1355  28.103  18.293  14.981
41853W        W 1356  18.229  11.636   4.258
41854W        W 1357  26.136   2.931  13.815
41855W        W 1358  19.596  13.136  13.915
41856W        W 1359  26.478  39.481   4.157
41857W        W 1360  26.071  42.318  13.908
41858W        W 1361   6.200  14.631   3.779
41859W        W 1362  37.418  25.616  13.309
41860W        W 1363  20.184  42.954   3.720
41861W        W 1364  21.224  40.918   2.216
41862W        W 1365  17.135   3.911  11.004
41863W        W 1366  28.603  10.737   4.114
41864W        W 1367  27.995   6.365   1.916
41865W        W 1368  36.460   5.920   2.287
41866W        W 1369  34.441  20.085  14.852
41867W        W 1370  33.053  34.949  11.397
41868W        W 1371   8.774   9.862  10.985
41869W        W 1372   2.948   0.893  11.860
41870W        W 1373  35.381  37.861   2.881
41871W        W 1374  13.737  26.580  10.918
41872W        W 1375   3.923  15.108  11.948
41873W        W 1376  41.975  24.677  13.845
41874W        W 1377  17.793  32.552  13.323
41875W        W 1378   7.761  38.566   0.922
41876W        W 1379  20.568  13.824  11.106
41877W        W 1380  42.349  40.435  12.863
41878W        W 1381  44.305  43.496  11.491
41879W        W 1382  39.323  11.193   4.226
41880W        W 1383  36.852   6.747  12.071
41881W        W 1384  28.988  21.090  12.493
41882W        W 1385   3.287   2.298   0.412
41883W        W 1386  40.549  34.948  10.634
41884W        W 1387  16.604   5.930  13.465
41885W        W 1388  35.395  18.293  13.882
41886W        W 1389  38.044  19.771   9.972
41887W        W 1390  36.940   5.800  10.476
41888W        W 1391  21.753  27.493  11.904
41889W        W 1392  24.517   2.837  13.034
41890W        W 1393  39.875  39.915   2.699
41891W        W 1394  12.212  44.351  11.507
41892W        W 1395   9.331  19.683  11.874
41893W        W 1396  28.637  36.539   3.703
41894W        W 1397  31.508   1.413   4.210
41895W        W 1398   4.412  29.109   3.647
41896W        W 1399  35.945  28.931  12.095
41897W        W 1400  13.131   2.369  11.567
41898W        W 1401   9.279   5.304  12.073
41899W        W 1402  11.370   2.721   4.767
41900W        W 1403   3.817   7.326   3.370
41901W        W 1404  25.154  24.157  10.913
41902W        W 1405  14.186   7.355   3.254
41903W        W 1406   0.442  28.171  14.489
41904W        W 1407   3.765  40.468   1.450
41905W        W 1408  38.954  33.949   0.288
41906W        W 1409   7.196  31.418  11.128
41907W        W 1410   8.840  11.757  12.522
41908W        W 1411  38.872  40.318   2.350
41909W        W 1412  36.899  17.573   4.182
41910W        W 1413  33.113  12.207   0.740
41911W        W 1414  44.408   6.308   3.232
41912W        W 1415  37.058  22.663   4.179
41913W        W 1416  36.561   3.947  13.946
41914W        W 1417  14.759  24.152  11.856
41915W        W 1418  11.775  15.238   1.858
41916W        W 1419  27.101  26.663   2.205
41917W        W 1420  40.893  40.951  14.905
41918W        W 1421  40.020   1.841   1.794
41919W        W 1422  26.609  10.225   4.772
41920W        W 1423  35.039   0.813   4.777
41921W        W 1424  31.908  37.345  11.574
41922W        W 1425  31.970  36.993   0.908
41923W        W 1426  11.177  25.086  11.424
41924W        W 1427   8.162  42.877  12.541
41925W        W 1428  33.470  25.645  13.426
41926W        W 1429   9.720  24.047  14.964
41927W        W 1430   6.335  18.565   3.852
41928W        W 1431   9.223  30.545   1.438
41929W        W 1432  12.213  23.173   4.630
41930W        W 1433  29.563  38.524  11.396
41931W        W 1434  32.534  14.729   0.307
41932W        W 1435   4.275  14.828   5.098
41933W        W 1436  38.527  38.858  14.361
41934W        W 1437  35.426  30.078   0.728
41935W        W 1438  33.930  19.284   3.187
41936W        W 1439  34.051   3.880   2.786
41937W        W 1440  11.818  23.051  14.857
41938W        W 1441   2.924  41.473  13.491
41939W        W 1442   3.949  19.778   1.428
41940W        W 1443  42.005  27.584  13.808
41941W        W 1444  11.653  27.131  12.483
41942W        W 1445  11.669  24.505  12.006
41943W        W 1446  29.975  23.042  12.072
41944W        W 1447  17.215  15.132  11.010
41945W        W 1448  21.721   1.802  14.974
41946W        W 1449  23.991  21.091  11.605
41947W        W 1450  18.722  20.628   1.411
41948W        W 1451   6.290  29.481  11.486
41949W        W 1452  23.017  22.711  13.859
41950W        W 1453  16.782   1.906   4.301
41951W        W 1454  42.989  35.046  13.952
41952W        W 1455  32.539   3.455  11.532
41953W        W 1456  26.468  10.202   2.233
41954W        W 1457  33.619  14.318  14.514
41955W        W 1458   3.861  24.131  12.090
41956W        W 1459  25.590   1.934  11.069
41957W        W 1460  35.015  33.478   4.643
41958W        W 1461  31.985  25.581   4.223
41959W        W 1462   5.235   1.287   2.879
41960W        W 1463  25.155  24.079   0.279
41961W        W 1464   5.705  14.764  14.464
41962W        W 1465  19.534  23.015  12.447
41963W        W 1466  18.563  28.463  14.483
41964W        W 1467   7.739  41.815  12.850
41965W        W 1468   4.873  19.177   2.356
41966W        W 1469   5.392  25.185   0.777
41967W        W 1470  25.208   6.824   2.272
41968W        W 1471  29.529  40.823   3.829
41969W        W 1472  29.647  16.709   4.637
41970W        W 1473  26.043  19.281   3.311
41971W        W 1474  18.721  29.612   4.244
41972W        W 1475   9.366   1.780   0.242
41973W        W 1476   2.357  14.641   3.752
41974W        W 1477  44.794  31.562   1.836
41975W        W 1478  16.154  32.441  10.008
41976W        W 1479  35.499  44.917   3.777
41977W        W 1480  24.526  37.520  13.796
41978W        W 1481  34.496   4.703  10.915
41979W        W 1482  22.076  18.631  10.448
41980W        W 1483  29.942  25.182   0.383
41981W        W 1484  20.031  20.712   2.382
41982W        W 1485  15.665  31.938   3.204
41983W        W 1486  42.859  36.073  13.320
41984W        W 1487  27.590  33.494  11.102
41985W        W 1488  41.842  33.008  14.283
41986W        W 1489  39.818  28.488  11.102
41987W        W 1490  23.709  21.734   2.812
41988W        W 1491  13.713  16.146   2.848
41989W        W 1492  34.075   0.358  13.339
41990W        W 1493   0.264  44.857  12.999
41991W        W 1494   8.691  12.194   2.329
41992W        W 1495  31.548  32.963   3.642
41993W        W 1496  35.012  42.308   2.683
41994W        W 1497  17.642   0.383  12.079
41995W        W 1498   4.788  10.280   3.815
41996W        W 1499  43.844  14.684  14.005
41997W        W 1500   4.315  18.281   0.845
41998W        W 1501  34.089  29.476  13.913
41999W        W 1502  30.094  26.633   2.288
42000W        W 1503  43.413   9.720  11.959
42001W        W 1504  32.635  10.722   0.858
42002W        W 1505  41.803  14.771   3.172
42003W        W 1506  21.154  14.677  13.810
42004W        W 1507   0.442  17.198   1.388
42005W        W 1508  34.033   5.238   4.348
42006W        W 1509  18.616   0.858  13.878
42007W        W 1510  38.969  28.078   2.708
42008W        W 1511  22.556  43.289  14.370
42009W        W 1512  41.463  43.984   0.292
42010W        W 1513  37.377  43.448   0.478
42011W        W 1514  44.320  26.116   2.178
42012W        W 1515  20.682  21.620  12.410
42013W        W 1516  21.571  15.663  14.993
42014W        W 1517  22.100  23.725  12.984
42015W        W 1518  37.985  27.114  12.450
42016W        W 1519   3.875  21.756   1.438
42017W        W 1520  34.429  22.744   2.671
42018W        W 1521  37.911  15.696   2.675
42019W        W 1522   0.794  34.475  14.511
42020W        W 1523  31.907  39.347  10.464
42021W        W 1524  11.204  16.587   4.652
42022W        W 1525   5.249  20.168   4.262
42023W        W 1526  19.047   9.158  12.005
42024W        W 1527  43.856  28.098   3.633
42025W        W 1528   3.352   0.959   0.909
42026W        W 1529  37.852   0.314   4.171
42027W        W 1530  42.847   0.753  13.455
42028W        W 1531  23.733  16.235   2.723
42029W        W 1532  24.065   4.274  14.881
42030W        W 1533   9.727  29.160   4.726
42031W        W 1534  36.047  33.116   0.360
42032W        W 1535  42.777  33.061   0.395
42033W        W 1536   4.233  19.238  12.570
42034W        W 1537  21.221  16.313  13.428
42035W        W 1538   4.907  10.641  12.350
42036W        W 1539   4.707  41.796  14.843
42037W        W 1540  36.847   3.940   2.184
42038W        W 1541   8.754  27.002   4.188
42039W        W 1542  11.639   9.226  14.492
42040W        W 1543  31.488  32.126  12.425
42041W        W 1544   5.824   3.282   9.933
42042W        W 1545  20.527  40.475   4.231
42043W        W 1546  14.172  44.970   1.391
42044W        W 1547  29.577  22.197   0.375
42045W        W 1548  15.160   0.446   1.744
42046W        W 1549  12.843  18.593  14.933
42047W        W 1550  23.034  16.600  11.454
42048W        W 1551  44.868  31.979   1.233
42049W        W 1552  42.870  20.733  12.540
42050W        W 1553  36.953  21.063   1.720
42051W        W 1554  38.059   9.321  14.898
42052W        W 1555  40.918  34.118  10.996
42053W        W 1556  41.297  40.924  10.916
42054W        W 1557   8.885  20.650  10.578
42055W        W 1558  36.929  36.893   3.800
42056W        W 1559  14.215  37.433  10.970
42057W        W 1560   7.821  21.126  13.877
42058W        W 1561  19.168   8.861  10.993
42059W        W 1562  27.447  21.562  11.010
42060W        W 1563  36.036  42.496  13.059
42061W        W 1564  12.117   0.907   1.708
42062W        W 1565   4.758  37.886   2.784
42063W        W 1566  20.708   1.917   2.392
42064W        W 1567  15.793  36.439  10.428
42065W        W 1568  43.977  18.624   0.414
42066W        W 1569  12.160   3.746   1.218
42067W        W 1570   1.803  41.484  14.353
42068W        W 1571   5.265   9.846  12.426
42069W        W 1572   0.299  14.174   1.310
42070W        W 1573  22.679  25.691  13.827
42071W        W 1574  26.547  38.481   2.780
42072W        W 1575  35.471  33.538   4.835
42073W        W 1576  22.565   6.271   0.918
42074W        W 1577   0.816  17.797  10.981
42075W        W 1578   2.935   3.797  13.493
42076W        W 1579  44.420  31.536  14.001
42077W        W 1580  12.235  31.118   4.229
42078W        W 1581  26.132  21.757   3.697
42079W        W 1582  41.372  13.134   4.640
42080W        W 1583  16.588  41.916   1.219
42081W        W 1584  29.935  36.472  13.886
42082W        W 1585  32.392   1.262   4.287
42083W        W 1586  22.120   1.884   1.266
42084W        W 1587   4.717  42.974  14.952
42085W        W 1588   1.299  43.924   0.418
42086W        W 1589  29.107   0.332   2.307
42087W        W 1590  27.461  14.117  12.971
42088W        W 1591  32.003   1.473  10.461
42089W        W 1592  33.401  10.259  10.141
42090W        W 1593  38.391  10.267  14.916
42091W        W 1594  24.121  38.485   3.731
42092W        W 1595  11.294   7.807   3.228
42093W        W 1596   6.816  30.918   4.170
42094W        W 1597   3.748   5.828   2.297
42095W        W 1598  39.333   9.829  14.982
42096W        W 1599  34.949  13.211   2.295
42097W        W 1600   4.294  22.105  12.493
42098W        W 1601  37.898  29.430   3.320
42099W        W 1602  33.543  34.574   2.857
42100W        W 1603  35.603  11.155   4.166
42101W        W 1604   6.187  16.308  12.530
42102W        W 1605  21.244   8.329   3.243
42103W        W 1606  42.364   0.828   0.760
42104W        W 1607   1.746   3.251  11.876
42105W        W 1608  43.960  38.379   1.283
42106W        W 1609  21.551  18.227  12.014
42107W        W 1610  23.202  26.959  12.860
42108W        W 1611  16.660  32.637  13.013
42109W        W 1612  32.990  24.572   1.304
42110W        W 1613  16.275  32.424   5.637
42111W        W 1614  41.334   6.737  12.954
42112W        W 1615  40.900  22.513   0.294
42113W        W 1616  39.379  41.811   4.603
42114W        W 1617  35.959  42.324  10.547
42115W        W 1618  37.834  35.857   1.393
42116W        W 1619  11.310  23.704  12.857
42117W        W 1620  13.762   1.933   3.747
42118W        W 1621  14.719  35.536   3.218
42119W        W 1622  25.108   9.246   0.251
42120W        W 1623   6.796  35.961   1.421
42121W        W 1624  33.404  40.485  12.977
42122W        W 1625  22.585  42.815  14.833
42123W        W 1626  27.073  20.225  12.091
42124W        W 1627  18.293  14.251   2.419
42125W        W 1628   5.335  24.535   4.325
42126W        W 1629   1.863  17.199   5.275
42127W        W 1630  28.969   2.322  12.393
42128W        W 1631  24.673  36.922  13.350
42129W        W 1632  10.854   4.356  11.605
42130W        W 1633  22.193  36.885   1.267
42131W        W 1634  30.055   8.789  11.375
42132W        W 1635  40.046  27.168  11.975
42133W        W 1636  29.951  15.790   3.869
42134W        W 1637  32.119  31.048  14.402
42135W        W 1638  26.030  15.283  13.029
42136W        W 1639  28.607  11.234  10.046
42137W        W 1640  37.411  10.295   3.331
42138W        W 1641  43.834   3.801  12.000
42139W        W 1642  36.356  31.620   3.207
42140W        W 1643  22.648  12.222   0.302
42141W        W 1644   4.941  22.674   1.878
42142W        W 1645  18.672  23.989   5.117
42143W        W 1646  41.836  21.029   3.647
42144W        W 1647   4.361  20.563  12.514
42145W        W 1648  27.478  43.822  13.409
42146W        W 1649  32.000   4.313   4.734
42147W        W 1650  13.314  10.769   3.814
42148W        W 1651   1.237  24.704   1.288
42149W        W 1652  44.420  35.986  14.417
42150W        W 1653  39.383  12.162   2.395
42151W        W 1654  11.192   7.405   0.429
42152W        W 1655  25.711   3.432  12.363
42153W        W 1656  20.536  22.010   4.788
42154W        W 1657  15.613  25.691  14.868
42155W        W 1658  36.981  42.846  12.377
42156W        W 1659  28.659  27.505  12.350
42157W        W 1660   7.795   9.648   2.245
42158W        W 1661   4.879  25.971   0.865
42159W        W 1662  13.833  19.064  14.846
42160W        W 1663  43.352  17.183  12.932
42161W        W 1664   4.265  24.188   1.911
42162W        W 1665  26.652  30.462   2.248
42163W        W 1666   5.395  40.941   1.718
42164W        W 1667  20.696  41.977  11.860
42165W        W 1668  13.652  34.997   0.868
42166W        W 1669  30.039  40.855   0.369
42167W        W 1670  22.710  30.483  11.538
42168W        W 1671  11.785  11.312  13.962
42169W        W 1672  21.165  44.940  13.953
42170W        W 1673   1.838  30.610  14.474
42171W        W 1674  23.212  40.500   2.314
42172W        W 1675  38.877  40.807   3.750
42173W        W 1676  24.116  36.882   3.735
42174W        W 1677  39.004  20.527   0.906
42175W        W 1678   8.207   9.849   4.130
42176W        W 1679  44.987   7.768   0.451
42177W        W 1680  10.778   5.304  11.099
42178W        W 1681  13.235  38.819  12.045
42179W        W 1682  35.096  39.027  13.924
42180W        W 1683  13.698   6.209   4.660
42181W        W 1684   9.783  15.699  13.823
42182W        W 1685  15.640   0.854   4.124
42183W        W 1686  41.295  30.639  13.990
42184W        W 1687  12.202  33.060  10.535
42185W        W 1688  37.047  32.471  11.073
42186W        W 1689   7.286  39.839  14.332
42187W        W 1690  30.442  42.970   2.712
42188W        W 1691  35.935   6.826   2.812
42189W        W 1692  44.349   4.379  10.918
42190W        W 1693  19.614   2.394   2.314
42191W        W 1694   1.927  34.481  12.052
42192W        W 1695  21.717  26.125  12.062
42193W        W 1696  39.349  18.671  13.540
42194W        W 1697  32.930  10.633  10.626
42195W        W 1698  35.601  24.202  14.979
42196W        W 1699  31.911   8.879   3.347
42197W        W 1700  16.747  39.063   3.307
42198W        W 1701  41.384  37.927  11.483
42199W        W 1702  14.640  36.013   2.900
42200W        W 1703   4.723   1.781   3.161
42201W        W 1704  13.183  37.944  13.394
42202W        W 1705  15.640   6.751  11.968
42203W        W 1706  20.037  27.583   4.312
42204W        W 1707  12.774  15.255   0.872
42205W        W 1708  12.256  29.619   1.409
42206W        W 1709   5.289  43.509   4.680
42207W        W 1710  38.043  17.228   2.187
42208W        W 1711  37.910  31.031   0.336
42209W        W 1712  21.586   6.256   4.626
42210W        W 1713  24.546   0.924  12.536
42211W        W 1714   0.357  17.071   2.748
42212W        W 1715  16.184   8.308  10.446
42213W        W 1716  12.685  23.582  13.034
42214W        W 1717  26.607  38.867  12.353
42215W        W 1718  37.836   3.797   4.117
42216W        W 1719  41.501  35.474  12.512
42217W        W 1720  19.669  28.662  14.289
42218W        W 1721  31.014   3.227   3.252
42219W        W 1722  26.640  22.634  12.978
42220W        W 1723  31.535  44.319   2.382
42221W        W 1724  41.990   6.228   1.878
42222W        W 1725  21.620  20.270  10.549
42223W        W 1726  19.073   2.426   2.765
42224W        W 1727  41.000  21.731   1.758
42225W        W 1728  21.060   0.312   9.522
42226W        W 1729   1.838   2.959  13.844
42227W        W 1730  24.116  31.918   5.185
42228W        W 1731  32.051  15.620   3.362
42229W        W 1732  37.423  16.206  13.499
42230W        W 1733  22.046  40.875  13.935
42231W        W 1734  14.288  25.514  13.000
42232W        W 1735  20.591   7.752   2.777
42233W        W 1736  37.577  39.321   2.887
42234W        W 1737  34.074  21.637  12.027
42235W        W 1738  11.862  33.381   2.195
42236W        W 1739   3.352   2.257   4.216
42237W        W 1740  14.635   3.457  11.856
42238W        W 1741  38.822  31.006  11.126
42239W        W 1742   0.931  20.121   1.749
42240W        W 1743  22.107  12.137  10.898
42241W        W 1744   5.904   0.437   1.289
42242W        W 1745  15.216  22.709  13.899
42243W        W 1746  14.146  36.383   1.719
42244W        W 1747  16.309  35.370   2.260
42245W        W 1748  27.042  13.131  14.427
42246W        W 1749   8.324  10.735   0.948
42247W        W 1750   2.824  15.280  13.818
42248W        W 1751   3.381  10.165   0.269
42249W        W 1752  31.944  23.127  14.896
42250W        W 1753  39.927  36.971   0.276
42251W        W 1754  42.328   2.354  11.507
42252W        W 1755  38.057  22.133  12.055
42253W        W 1756  36.878  22.610   3.240
42254W        W 1757  20.167  28.671  10.480
42255W        W 1758  14.213  10.353  14.793
42256W        W 1759   9.297  37.390  10.133
42257W        W 1760  43.508  39.934  12.875
42258W        W 1761   9.290   2.270  14.472
42259W        W 1762  11.248  18.726   4.670
42260W        W 1763  21.644  33.605   4.680
42261W        W 1764  34.513   2.381  13.898
42262W        W 1765  40.477  14.339   4.755
42263W        W 1766  32.011  43.372  13.475
42264W        W 1767   6.329  27.580   4.343
42265W        W 1768  31.585   5.727   1.297
42266W        W 1769  28.442   6.706   0.942
42267W        W 1770   7.701  35.468  10.638
42268W        W 1771  34.009   2.447   4.340
42269W        W 1772  36.079  15.803   3.331
42270W        W 1773  14.221  30.134  12.883
42271W        W 1774  14.146  40.454   3.333
42272W        W 1775  24.992  12.639  13.353
42273W        W 1776   3.888   3.803   3.327
42274W        W 1777  12.343  15.158  12.393
42275W        W 1778   4.807  22.187   2.259
42276W        W 1779   9.153  35.049   9.543
42277W        W 1780  31.480  22.581   0.246
42278W        W 1781   9.800   0.790  11.896
42279W        W 1782  38.547   4.924  10.512
42280W        W 1783  13.612  16.280   2.342
42281W        W 1784  29.118  20.612   1.230
42282W        W 1785  43.887  17.085  12.533
42283W        W 1786   2.357  24.687   0.395
42284W        W 1787  12.285  33.399   3.710
42285W        W 1788   0.810  16.811  11.113
42286W        W 1789   3.444  25.087  13.476
42287W        W 1790  21.177  26.490   5.187
42288W        W 1791   1.763  44.300  12.837
42289W        W 1792  24.481  14.276   4.820
42290W        W 1793  41.410  40.318  14.964
42291W        W 1794  40.540  19.554   0.912
42292W        W 1795   0.293  38.425   0.861
42293W        W 1796  23.565  14.623   1.261
42294W        W 1797   8.227  38.010   3.302
42295W        W 1798  11.263   4.401   1.332
42296W        W 1799  25.521  26.564   0.898
42297W        W 1800  34.984  13.350  12.835
42298W        W 1801  19.596  13.814  14.343
42299W        W 1802   6.746  29.505   4.600
42300W        W 1803  42.475  12.748   4.628
42301W        W 1804  35.403  14.297  13.864
42302W        W 1805   3.343  37.498  12.874
42303W        W 1806   0.322  14.286  13.535
42304W        W 1807  11.715  23.604  11.981
42305W        W 1808  35.973   6.347   0.463
42306W        W 1809  30.967  19.048   1.294
42307W        W 1810  20.750  36.588  10.628
42308W        W 1811  25.168   3.949  13.005
42309W        W 1812  37.075  43.276   1.833
42310W        W 1813  22.679  36.946  10.928
42311W        W 1814  25.648  25.012   2.231
42312W        W 1815  24.180   4.760  11.546
42313W        W 1816  21.120  24.068   0.732
42314W        W 1817   4.900  27.191   4.134
42315W        W 1818  23.573  44.398   5.316
42316W        W 1819   3.281  39.443  14.865
42317W        W 1820  11.734   4.706  14.990
42318W        W 1821  20.103  34.933   2.273
42319W        W 1822   2.303  15.127   4.147
42320W        W 1823  11.860  29.059  14.882
42321W        W 1824   6.722  17.152  14.777
42322W        W 1825  16.300  11.738   1.418
42323W        W 1826   0.744   5.769   0.473
42324W        W 1827  24.635  17.682   2.689
42325W        W 1828  41.346  32.557  12.397
42326W        W 1829  24.580  17.155  12.960
42327W        W 1830  17.096  23.117   2.686
42328W        W 1831   7.213  41.431   1.840
42329W        W 1832   4.831   7.367  12.092
42330W        W 1833  29.078  42.953  11.528
42331W        W 1834  28.454  28.166  14.788
42332W        W 1835  18.767   0.415  13.891
42333W        W 1836  24.673  42.482  12.373
42334W        W 1837  11.647  18.124   1.770
42335W        W 1838  21.198  39.471   3.255
42336W        W 1839  12.245  29.613  13.342
42337W        W 1840   6.747  24.532   0.883
42338W        W 1841  31.061   5.892  14.009
42339W        W 1842  34.907  27.465   4.748
42340W        W 1843  33.067  25.704   3.712
42341W        W 1844  38.487  11.308   0.889
42342W        W 1845  38.969   6.186  13.372
42343W        W 1846  21.672  37.478  11.478
42344W        W 1847   6.709  15.646  12.400
42345W        W 1848   6.218  27.665   2.838
42346W        W 1849   7.750  30.601  13.932
42347W        W 1850  23.672  21.180   4.785
42348W        W 1851  25.471   4.332   4.754
42349W        W 1852  26.508  21.190   3.163
42350W        W 1853  18.582  13.674  10.429
42351W        W 1854  22.120  33.401   1.790
42352W        W 1855  28.502  41.365   4.604
42353W        W 1856  19.062  27.485  14.397
42354W        W 1857  28.668  24.104  13.949
42355W        W 1858  38.859  11.668   4.683
42356W        W 1859  10.206  13.787   4.725
42357W        W 1860  23.651  25.647   1.308
42358W        W 1861  27.497   4.861  12.946
42359W        W 1862   7.384  22.678  10.914
42360W        W 1863  15.233   2.400   4.827
42361W        W 1864   3.285   2.728  14.789
42362W        W 1865  16.256  22.227  11.101
42363W        W 1866   1.383  29.516  14.465
42364W        W 1867  14.704  18.721   1.330
42365W        W 1868  43.279  28.447  11.109
42366W        W 1869   7.413   7.776   1.794
42367W        W 1870  31.069  18.286   2.400
42368W        W 1871   0.959  33.073  11.978
42369W        W 1872   2.726  22.532  14.448
42370W        W 1873  26.478   6.211   4.139
42371W        W 1874   0.410  43.982  12.024
42372W        W 1875  36.941  19.110   4.698
42373W        W 1876  27.668  21.215   1.920
42374W        W 1877  25.624  40.843   0.779
42375W        W 1878  15.229  27.051   4.758
42376W        W 1879  40.024  34.497  12.937
42377W        W 1880  17.799  39.515  14.003
42378W        W 1881   3.801  36.904  13.050
42379W        W 1882  26.994  31.512  13.986
42380W        W 1883  33.103  32.519   1.776
42381W        W 1884  20.734  12.153   4.116
42382W        W 1885  40.014  37.050  14.326
42383W        W 1886  27.042  16.621  12.845
42384W        W 1887   0.316  42.876   9.643
42385W        W 1888   5.348   5.416   3.780
42386W        W 1889  31.514  17.653  11.912
42387W        W 1890  29.951   8.181  12.941
42388W        W 1891  21.060  43.005   0.843
42389W        W 1892  41.824  38.334   2.788
42390W        W 1893  34.998  34.485   4.748
42391W        W 1894   3.842  41.329  14.949
42392W        W 1895   2.953   2.282   0.769
42393W        W 1896  42.032  11.368  10.923
42394W        W 1897  13.229  30.588   2.293
42395W        W 1898  33.505   2.355   0.439
42396W        W 1899  38.064   1.357  12.440
42397W        W 1900  28.051  34.994   1.395
42398W        W 1901   5.411  32.013  13.324
42399W        W 1902  10.241  28.117   4.251
42400W        W 1903  21.077  28.630  11.418
42401W        W 1904  27.110  14.657   1.708
42402W        W 1905  24.567  17.265  14.457
42403W        W 1906  31.533   8.708   3.220
42404W        W 1907  16.166  17.145  10.160
42405W        W 1908  28.061  44.403   1.917
42406W        W 1909  22.734   1.862  13.426
42407W        W 1910  21.116  14.722   3.689
42408W        W 1911   1.401  34.073  12.858
42409W        W 1912  26.667  11.778   4.626
42410W        W 1913  14.724  44.003  10.888
42411W        W 1914  19.725   3.899  14.988
42412W        W 1915  43.843  27.972   1.764
42413W        W 1916  11.702  42.973  13.985
42414W        W 1917  18.139   8.303  12.964
42415W        W 1918  27.682  25.635   9.621
42416W        W 1919   5.209  25.106  11.610
42417W        W 1920  24.505  43.277   1.307
42418W        W 1921  26.463  22.663  14.947
42419W        W 1922  16.208   6.914   2.397
42420W        W 1923   9.751  26.570   0.890
42421W        W 1924  15.262  39.809  10.541
42422W        W 1925  23.113  27.495   1.713
42423W        W 1926  38.030  42.486  12.376
42424W        W 1927   3.742  24.624   0.907
42425W        W 1928  40.966  13.328  10.470
42426W        W 1929   9.172  39.524  10.582
42427W        W 1930  13.609   8.787  11.946
42428W        W 1931  32.552  19.284  12.502
42429W        W 1932   4.340   7.231   1.358
42430W        W 1933  12.238   6.327  11.535
42431W        W 1934  36.424  14.272  14.896
42432W        W 1935  30.936  30.559   0.302
42433W        W 1936  42.405  22.032   4.185
42434W        W 1937  22.104  31.016   1.298
42435W        W 1938   4.348   8.168   1.287
42436W        W 1939   3.750  17.737  10.561
42437W        W 1940  31.943  21.679   3.777
42438W        W 1941  44.308  36.098  12.521
42439W        W 1942  29.660  39.040   2.352
42440W        W 1943  44.313  19.251  12.374
42441W        W 1944   3.845  20.147   0.945
42442W        W 1945   0.419  18.775   5.120
42443W        W 1946   2.377  37.901  14.388
42444W        W 1947  24.664  30.605  10.489
42445W        W 1948  26.559   0.786   5.120
42446W        W 1949   4.333  30.502   1.817
42447W        W 1950  35.060  38.828   4.283
42448W        W 1951  26.537  43.455   0.806
42449W        W 1952  25.007   9.767   1.923
42450W        W 1953   6.771  12.142   3.223
42451W        W 1954  18.563  10.153   1.235
42452W        W 1955   9.724  14.288  12.038
42453W        W 1956  40.857   2.900  11.877
42454W        W 1957   7.327  44.983  11.126
42455W        W 1958   8.675  21.261  11.912
42456W        W 1959  44.888  23.187  12.971
42457W        W 1960  33.546  26.577   4.661
42458W        W 1961  26.456  36.566   2.812
42459W        W 1962  18.594   4.412  11.070
42460W        W 1963  27.074  39.411   1.403
42461W        W 1964  35.906  27.189  12.053
42462W        W 1965   2.415  41.885   4.267
42463W        W 1966  41.479   5.759   1.271
42464W        W 1967  34.589  29.085  12.989
42465W        W 1968   3.767  26.458   5.733
42466W        W 1969  10.261  44.479  13.342
42467W        W 1970  18.597   1.312  13.000
42468W        W 1971  27.687   9.165  11.982
42469W        W 1972   9.207  44.980  14.368
42470W        W 1973  39.421   4.415  13.990
42471W        W 1974  22.246  26.650   4.200
42472W        W 1975  28.076  24.165   1.754
42473W        W 1976  34.944  33.943  12.368
42474W        W 1977  11.676  24.644  13.036
42475W        W 1978  36.085  32.532  11.974
42476W        W 1979  26.510   1.900  14.868
42477W        W 1980  19.736  38.471   4.727
42478W        W 1981  22.048   8.684  12.444
42479W        W 1982  24.081  41.487  13.012
42480W        W 1983  16.605   1.307  11.936
42481W        W 1984  33.510  16.234  14.382
42482W        W 1985   2.822  24.695  12.339
42483W        W 1986  14.283  32.546  13.539
42484W        W 1987  14.313  37.087   0.840
42485W        W 1988  29.573  24.165   2.300
42486W        W 1989   4.882  20.123  11.007
42487W        W 1990  14.813  33.013  13.515
42488W        W 1991  29.548  28.548  13.017
42489W        W 1992   4.267  12.325  14.787
42490W        W 1993   2.721  16.263   0.815
42491W        W 1994  10.668  22.644   3.693
42492W        W 1995   9.251  40.861  12.468
42493W        W 1996  20.166   9.300   0.482
42494W        W 1997  39.315   4.425   0.918
42495W        W 1998  12.313  33.049   4.786
42496W        W 1999  18.588  21.069  13.451
42497W        W 2000  17.725   6.399  10.491
42498W        W 2001   2.743  10.258   3.361
42499W        W 2002  31.948  26.006  13.845
42500W        W 2003  26.114   7.843   2.699
42501W        W 2004  15.683  10.843  14.303
42502W        W 2005  31.993  22.733  12.070
42503W        W 2006  37.924  44.791  11.429
42504W        W 2007  37.405  34.029  10.896
42505W        W 2008  40.854  19.649  14.976
42506W        W 2009  22.675  35.953  12.521
42507W        W 2010   0.382  44.362   4.147
42508W        W 2011  28.569  40.462  14.475
42509W        W 2012  23.026  44.963  14.015
42510W        W 2013  18.090   8.213  13.982
42511W        W 2014  16.203  17.577  10.630
42512W        W 2015  39.388  16.229   2.300
42513W        W 2016  32.586  30.032  12.542
42514W        W 2017  44.988  43.885  13.865
42515W        W 2018  40.527  31.930  12.854
42516W        W 2019  20.151   2.325  10.460
42517W        W 2020  40.345  39.877  13.858
42518W        W 2021   5.717   8.284   0.444
42519W        W 2022  35.857   7.684  14.815
42520W        W 2023  37.362  32.003  12.406
42521W        W 2024  35.604  42.424   0.817
42522W        W 2025  36.915  10.796   3.743
42523W        W 2026  10.357  29.438  10.541
42524W        W 2027  22.708  44.964  13.820
42525W        W 2028  16.212   3.276  14.976
42526W        W 2029  36.413  42.022  13.891
42527W        W 2030  15.631  37.030  12.054
42528W        W 2031  40.963   0.314   2.802
42529W        W 2032  20.114  30.075   2.303
42530W        W 2033  22.659  37.506  10.561
42531W        W 2034  10.220  35.437  11.073
42532W        W 2035   8.261  11.134  13.937
42533W        W 2036  40.939   9.779  14.859
42534W        W 2037  18.262  24.041   2.331
42535W        W 2038  30.019  17.614  12.831
42536W        W 2039   2.432  39.023  12.410
42537W        W 2040  39.006  11.250   0.805
42538W        W 2041  10.768  29.141   2.712
42539W        W 2042  20.529  19.609  13.910
42540W        W 2043  12.288  33.020  14.818
42541W        W 2044   6.739   4.353   2.796
42542W        W 2045  22.059   2.941   1.251
42543W        W 2046  42.940   2.360  12.048
42544W        W 2047  22.678   7.286   3.264
42545W        W 2048  10.196  19.589  14.954
42546W        W 2049  26.699   5.194  13.951
42547W        W 2050  43.493  44.271   0.739
42548W        W 2051  27.175   0.887  12.992
42549W        W 2052  28.164  27.514  14.953
42550W        W 2053   0.838   3.254  10.601
42551W        W 2054   5.350   1.282   0.918
42552W        W 2055   2.272  11.629  11.046
42553W        W 2056  24.216  30.575  12.954
42554W        W 2057   9.763   9.164  14.896
42555W        W 2058  20.558  41.305   1.426
42556W        W 2059   2.914  11.316  13.825
42557W        W 2060   9.799  30.042  13.501
42558W        W 2061  15.671   3.736   2.841
42559W        W 2062  30.949  18.665   3.833
42560W        W 2063  34.909  12.774  11.519
42561W        W 2064  10.361  43.969  13.830
42562W        W 2065   1.237  36.857   0.794
42563W        W 2066  38.465   7.874  11.460
42564W        W 2067  14.217  23.984   2.250
42565W        W 2068  44.464  40.451  14.502
42566W        W 2069   9.818  10.723  14.957
42567W        W 2070  25.103  40.332   1.388
42568W        W 2071  19.055  22.700   4.723
42569W        W 2072  37.399  37.971   2.234
42570W        W 2073  41.471  23.165  10.938
42571W        W 2074  40.308  26.475   1.880
42572W        W 2075   1.832  43.830  13.837
42573W        W 2076  40.009  37.414  12.842
42574W        W 2077  35.539  17.567  14.440
42575W        W 2078  39.476  35.478   1.421
42576W        W 2079  12.238   2.903  10.642
42577W        W 2080   4.905  44.412  14.822
42578W        W 2081  39.057  16.098  10.640
42579W        W 2082   4.307  21.539   2.400
42580W        W 2083  21.554  15.769   2.327
42581W        W 2084  13.698  25.662  13.424
42582W        W 2085  17.713   8.262   1.791
42583W        W 2086   4.704  29.561  12.069
42584W        W 2087  18.147  30.937  15.000
42585W        W 2088  13.346  25.192   3.279
42586W        W 2089  32.117   0.894   3.773
42587W        W 2090   8.373  40.818   4.167
42588W        W 2091   2.451  40.992  11.494
42589W        W 2092   1.961  33.469   1.778
42590W        W 2093   0.445   1.922   4.205
42591W        W 2094  43.923   3.848  14.020
42592W        W 2095  38.357  29.564   1.223
42593W        W 2096  33.031   5.219   0.833
42594W        W 2097   5.341   8.288  13.408
42595W        W 2098  13.742   0.811  13.428
42596W        W 2099   2.915  17.597   3.293
42597W        W 2100  41.378  31.627  11.035
42598W        W 2101   6.212   5.256  11.125
42599W        W 2102  10.384   1.386  14.975
42600W        W 2103  35.563  21.215   2.197
42601W        W 2104  32.086  24.646  13.840
42602W        W 2105  24.213  42.877   2.209
42603W        W 2106  22.095   7.859  13.429
42604W        W 2107  43.772  43.481   1.792
42605W        W 2108  41.043   4.923  10.608
42606W        W 2109  12.676  29.494  14.432
42607W        W 2110   0.446  23.102  14.974
42608W        W 2111   6.315  42.286  12.461
42609W        W 2112  16.191  36.959   4.792
42610W        W 2113  38.896  26.657  11.531
42611W        W 2114  44.010  15.732   5.193
42612W        W 2115   3.402  30.419   2.752
42613W        W 2116  26.073  16.203   0.349
42614W        W 2117  36.910  30.456  12.064
42615W        W 2118  27.496  38.874   3.270
42616W        W 2119   5.257  12.819   1.853
42617W        W 2120  20.114  31.638  12.373
42618W        W 2121  28.170  18.717   3.378
42619W        W 2122   5.437  23.229   2.789
42620W        W 2123  11.134  17.192  12.002
42621W        W 2124  36.919   9.172  12.396
42622W        W 2125  13.312  37.338   2.718
42623W        W 2126   2.263  13.265  13.987
42624W        W 2127  31.950  40.890  12.544
42625W        W 2128  29.990  17.160   3.807
42626W        W 2129  36.943   4.253   1.707
42627W        W 2130  31.511  43.510  13.372
42628W        W 2131  43.996  37.070   4.741
42629W        W 2132   8.833   6.774  10.463
42630W        W 2133  12.350   4.835  13.546
42631W        W 2134  43.950  35.536   0.765
42632W        W 2135  43.510  29.460  10.993
42633W        W 2136  38.020  18.096  10.591
42634W        W 2137  26.132   8.294   3.334
42635W        W 2138  43.928   5.220   0.290
42636W        W 2139   9.834  37.344   1.427
42637W        W 2140  30.614  33.084  12.023
42638W        W 2141  42.335  36.380  11.423
42639W        W 2142  18.082  29.492  10.941
42640W        W 2143  44.383  28.934   4.194
42641W        W 2144  16.083  42.323  10.604
42642W        W 2145  33.999  25.978  10.902
42643W        W 2146  40.031  21.084   9.942
42644W        W 2147  25.197  31.025  10.409
42645W        W 2148   8.301  17.631  11.127
42646W        W 2149  38.875   3.305  14.501
42647W        W 2150  19.184  35.422   3.186
42648W        W 2151  16.644  30.948  11.096
42649W        W 2152   2.799   6.904  10.968
42650W        W 2153  41.470   4.711  14.996
42651W        W 2154  33.088  26.152   0.813
42652W        W 2155   2.748  38.418  12.994
42653W        W 2156  12.220  35.602   2.875
42654W        W 2157   7.209   5.222  11.041
42655W        W 2158   5.431  39.900  11.011
42656W        W 2159   1.892  30.943  14.806
42657W        W 2160  40.865  36.860  13.363
42658W        W 2161   7.358  29.603   0.320
42659W        W 2162  18.132   7.754   4.738
42660W        W 2163   9.698  15.324  12.874
42661W        W 2164   3.243   0.464   4.724
42662W        W 2165  41.402  29.619   2.315
42663W        W 2166  38.398  17.602  12.862
42664W        W 2167   1.354  16.615  13.370
42665W        W 2168  37.983  35.507  12.004
42666W        W 2169  34.546   2.820  14.960
42667W        W 2170  16.270  22.144   3.671
42668W        W 2171  43.825  25.152  11.582
42669W        W 2172   3.270  30.108  11.496
42670W        W 2173  27.178  26.700  13.864
42671W        W 2174   9.664  40.356   0.881
42672W        W 2175  13.786   9.691  13.495
42673W        W 2176  35.997   5.884   1.431
42674W        W 2177  26.696   5.863  13.945
42675W        W 2178   7.417  31.904  12.048
42676W        W 2179  44.333  14.170   3.295
42677W        W 2180  43.021  30.946   2.799
42678W        W 2181  21.617  34.548  10.589
42679W        W 2182  30.084   7.232  12.996
42680W        W 2183   6.774   7.823  13.995
42681W        W 2184  13.164  23.146   3.635
42682W        W 2185  39.381  42.828  12.352
42683W        W 2186  26.125  37.001   4.722
42684W        W 2187  28.098   5.754   1.739
42685W        W 2188  36.499  10.322   5.083
42686W        W 2189   3.934  29.033  14.882
42687W        W 2190   4.764  36.895  11.869
42688W        W 2191  31.431  33.932  10.978
42689W        W 2192  29.474  27.503   0.872
42690W        W 2193  19.130  43.795   3.338
42691W        W 2194  40.449   4.385   1.895
42692W        W 2195  30.158  35.559   3.794
42693W        W 2196  14.267  21.693   4.314
42694W        W 2197  26.095  20.739  11.861
42695W        W 2198  17.744  32.925   4.155
42696W        W 2199   1.752  20.100  13.902
42697W        W 2200  23.224  36.891   1.741
42698W        W 2201  11.765  18.667  12.436
42699W        W 2202  16.136  17.285   1.210
42700W        W 2203  19.649  17.151   1.742
42701W        W 2204  28.076  29.630  11.893
42702W        W 2205  44.262  40.409   0.313
42703W        W 2206  21.746  16.773   2.786
42704W        W 2207   5.319  42.520   1.727
42705W        W 2208  23.154  17.765   1.829
42706W        W 2209  26.527  13.727  13.483
42707W        W 2210  33.453  17.558   3.723
42708W        W 2211  20.221  24.721   2.745
42709W        W 2212  17.562  16.656   4.221
42710W        W 2213  25.467  13.721  12.549
42711W        W 2214   1.453  22.563   2.766
42712W        W 2215  22.248  10.158   4.212
42713W        W 2216   2.823   3.453   1.298
42714W        W 2217   9.705  12.164  12.538
42715W        W 2218   7.793  32.447  11.052
42716W        W 2219   5.311  26.541   0.758
42717W        W 2220  28.166   5.842   0.774
42718W        W 2221   2.859  43.870   4.196
42719W        W 2222  11.794  42.519   2.892
42720W        W 2223  11.242  19.572  12.353
42721W        W 2224  40.045  33.615   3.252
42722W        W 2225   2.754  41.846  13.028
42723W        W 2226   2.947  38.065  12.412
42724W        W 2227   8.172   0.834   4.690
42725W        W 2228  28.147  19.234  11.004
42726W        W 2229  17.794   4.849   2.323
42727W        W 2230   2.859  32.908   1.361
42728W        W 2231  23.508   6.413  10.501
42729W        W 2232  16.142   3.932   4.598
42730W        W 2233  33.415  32.900   9.945
42731W        W 2234  38.076  40.989  11.086
42732W        W 2235  39.538  40.927   3.279
42733W        W 2236  18.280   4.737   4.263
42734W        W 2237  15.224  32.568   4.759
42735W        W 2238  14.745  10.841   0.749
42736W        W 2239  23.008   3.799  14.002
42737W        W 2240  25.622  26.045  11.893
42738W        W 2241  22.030  19.082  13.412
42739W        W 2242  41.953  22.148  10.432
42740W        W 2243  23.011  23.998   0.453
42741W        W 2244  26.038  26.118   3.817
42742W        W 2245   7.732  41.427   2.383
42743W        W 2246  25.065  29.497   4.835
42744W        W 2247   9.211  21.536   3.683
42745W        W 2248  42.308  40.344  14.286
42746W        W 2249   6.839  11.232   2.784
42747W        W 2250  36.891  20.574   1.354
42748W        W 2251  12.122  16.273  13.998
42749W        W 2252  20.603   9.824  13.864
42750W        W 2253  12.234  42.327   4.236
42751W        W 2254  42.905   2.387  14.396
42752W        W 2255   7.711  23.102  14.311
42753W        W 2256  20.532  37.411  14.341
42754W        W 2257  24.198  16.091   1.787
42755W        W 2258  36.430   3.714  14.996
42756W        W 2259  15.302  42.375  12.411
42757W        W 2260  25.687  33.041   0.841
42758W        W 2261  17.629  30.520   0.866
42759W        W 2262   3.225   7.356  10.104
42760W        W 2263  10.194  21.257  14.859
42761W        W 2264   0.348  11.714   3.383
42762W        W 2265  37.556   5.863  12.869
42763W        W 2266  44.829  14.279  11.088
42764W        W 2267  27.984  21.133   4.140
42765W        W 2268  19.577   8.332  13.521
42766W        W 2269  10.241  23.997   3.145
42767W        W 2270  41.938  18.688  12.920
42768W        W 2271   2.911  10.864   1.726
42769W        W 2272  17.292  18.620   3.238
42770W        W 2273  12.236   9.827  13.826
42771W        W 2274  11.357   9.702   2.410
42772W        W 2275   3.898  31.604  14.442
42773W        W 2276  37.033  34.987   3.673
42774W        W 2277   7.912  29.449  11.526
42775W        W 2278  38.892   1.394   2.193
42776W        W 2279  15.768  32.066   0.430
42777W        W 2280   9.192  31.142   4.747
42778W        W 2281   4.907   8.866   4.617
42779W        W 2282   2.913  34.107   4.653
42780W        W 2283  40.391  36.972   2.891
42781W        W 2284  15.188   5.269   4.304
42782W        W 2285  22.088  31.501  11.540
42783W        W 2286  23.649  34.100  13.545
42784W        W 2287   3.868  35.852  14.991
42785W        W 2288  44.333  30.480  14.936
42786W        W 2289  19.545  26.653  11.958
42787W        W 2290  13.818  14.639   4.247
42788W        W 2291  24.502  37.850  11.516
42789W        W 2292  21.145  19.165   2.202
42790W        W 2293   8.750  42.467   3.295
42791W        W 2294  24.634  10.365  13.414
42792W        W 2295  43.468  10.298  13.446
42793W        W 2296  27.684  15.252  13.989
42794W        W 2297   4.813  40.548   0.323
42795W        W 2298  20.101  22.094  11.046
42796W        W 2299   1.816  35.037   0.788
42797W        W 2300  18.695  25.027  11.408
42798W        W 2301  14.337  18.137   2.693
42799W        W 2302  39.413  17.776   1.856
42800W        W 2303   0.375   3.447  12.837
42801W        W 2304  17.665  19.709   1.385
42802W        W 2305  32.485  11.278   0.339
42803W        W 2306   1.337  30.050   0.415
42804W        W 2307  42.304   0.434   2.336
42805W        W 2308  20.694   4.890   4.617
42806W        W 2309  41.930  16.233   3.229
42807W        W 2310  18.210   9.802  13.357
42808W        W 2311  36.495  10.645  11.125
42809W        W 2312  30.093  15.285  11.397
42810W        W 2313  42.960  28.452   4.169
42811W        W 2314  37.380  24.202   2.874
42812W        W 2315  25.189  16.161   0.749
42813W        W 2316  41.494  13.677   0.242
42814W        W 2317  29.621  31.018  10.523
42815W        W 2318  28.050  43.362   5.164
42816W        W 2319  19.662  15.262  11.021
42817W        W 2320  40.309  18.604  11.585
42818W        W 2321  25.179   8.167   2.763
42819W        W 2322   4.770  28.653   0.795
42820W        W 2323  24.215  40.895  13.316
42821W        W 2324   4.303  13.120  12.845
42822W        W 2325   8.241  14.623   0.773
42823W        W 2326   1.421  20.550  14.301
42824W        W 2327  38.017  23.616  11.446
42825W        W 2328  23.579  30.527  14.498
42826W        W 2329   2.767   8.778   0.406
42827W        W 2330   3.930  42.956  13.008
42828W        W 2331  39.530  33.413  13.950
42829W        W 2332  35.413  39.923  12.543
42830W        W 2333   3.225  24.524  13.985
42831W        W 2334  20.632  44.286   0.789
42832W        W 2335   2.270  37.963   4.233
42833W        W 2336  22.065   6.230   0.391
42834W        W 2337  18.258  44.790  13.452
42835W        W 2338  18.603  10.347  11.417
42836W        W 2339  38.930   3.423  14.915
42837W        W 2340  29.009  32.929  13.872
42838W        W 2341  28.110  11.148  14.899
42839W        W 2342  29.553  32.610   0.438
42840W        W 2343   4.730  29.147   1.892
42841W        W 2344  30.002  31.951   1.773
42842W        W 2345  44.470  28.672   0.961
42843W        W 2346  36.009  26.104   0.277
42844W        W 2347  30.139  25.507   9.560
42845W        W 2348  22.188  35.482   4.201
42846W        W 2349  21.256  15.730  11.457
42847W        W 2350  37.546  15.605  13.978
42848W        W 2351   8.887  27.028  11.893
42849W        W 2352  21.116   4.707   3.220
42850W        W 2353   7.261  28.638   0.940
42851W        W 2354   1.846  31.103   2.293
42852W        W 2355  21.132  33.598  13.844
42853W        W 2356  16.127  23.187  13.044
42854W        W 2357  40.309  11.163  14.463
42855W        W 2358  24.230  35.988   2.686
42856W        W 2359   5.719  23.693  13.819
42857W        W 2360  39.891  33.939   3.760
42858W        W 2361  24.485  32.015  10.935
42859W        W 2362  40.398  32.424  12.948
42860W        W 2363  35.381  11.364   2.747
42861W        W 2364  36.892  40.954  13.813
42862W        W 2365  29.581  22.247  13.519
42863W        W 2366  31.935  10.703   0.786
42864W        W 2367  43.905  33.120  11.497
42865W        W 2368  41.402  11.808   1.310
42866W        W 2369  36.392  12.158  12.018
42867W        W 2370  22.034  13.765  10.986
42868W        W 2371  17.777  42.434  10.409
42869W        W 2372  24.528  26.525   0.409
42870W        W 2373  38.897  19.554   0.965
42871W        W 2374   6.854  43.381   4.354
42872W        W 2375  30.565  34.611   2.742
42873W        W 2376   9.290  14.622   0.298
42874W        W 2377  33.475  27.025  14.283
42875W        W 2378  13.333   3.714  12.001
42876W        W 2379   5.701  44.978   4.714
42877W        W 2380  39.517  24.662   2.303
42878W        W 2381  12.739   1.315  11.579
42879W        W 2382   1.468  38.492   4.651
42880W        W 2383  40.886  41.905  14.327
42881W        W 2384   4.339  29.486   3.279
42882W        W 2385  36.446  36.027  12.561
42883W        W 2386  42.998  24.549   2.284
42884W        W 2387  44.930  26.547  14.349
42885W        W 2388  25.526  18.163  10.562
42886W        W 2389  31.906  37.435   4.272
42887W        W 2390  13.811  11.226   1.741
42888W        W 2391  25.202  13.832  14.344
42889W        W 2392  24.995   5.734  14.305
42890W        W 2393   6.781  33.928   1.734
42891W        W 2394  28.083  39.414  13.875
42892W        W 2395  30.076  37.853  13.350
42893W        W 2396  24.179  18.691   2.726
42894W        W 2397  40.466  20.149  10.947
42895W        W 2398  14.643  42.342  10.940
42896W        W 2399  16.788  37.006   3.364
42897W        W 2400  43.335  12.649  13.444
42898W        W 2401  43.425  32.476  13.866
42899W        W 2402  29.654  23.049   4.730
42900W        W 2403  18.601  23.072  13.060
42901W        W 2404  11.842  39.997   2.695
42902W        W 2405  20.761   2.875   4.121
42903W        W 2406  40.877  44.301  11.058
42904W        W 2407  13.814  14.093  11.480
42905W        W 2408  41.989  10.872   0.412
42906W        W 2409   5.928  16.303   0.355
42907W        W 2410  31.038  27.191  13.547
42908W        W 2411  16.588  23.014  12.079
42909W        W 2412  13.258   2.298  10.596
42910W        W 2413  24.224  34.982   4.277
42911W        W 2414  24.607  14.783  14.923
42912W        W 2415   8.347  13.155   2.788
42913W        W 2416  11.262  26.121  13.898
42914W        W 2417  18.602  39.421   4.630
42915W        W 2418   4.729  29.502  14.300
42916W        W 2419  13.204  29.640  13.940
42917W        W 2420   1.307  20.672  13.497
42918W        W 2421  21.587   9.794  14.921
42919W        W 2422  36.534   2.303   3.661
42920W        W 2423  39.993  28.171  14.840
42921W        W 2424  12.802  20.043  12.568
42922W        W 2425  39.848  13.604  13.791
42923W        W 2426  13.334  10.277  14.426
42924W        W 2427   0.433   6.791   0.437
42925W        W 2428  16.277   0.911   3.870
42926W        W 2429  23.720  30.948   0.734
42927W        W 2430   1.836  22.044   1.406
42928W        W 2431  44.893  18.779   3.227
42929W        W 2432  17.573  25.485  13.954
42930W        W 2433  31.435   2.928  10.888
42931W        W 2434   2.749  33.081  14.335
42932W        W 2435   3.444  13.781   0.839
42933W        W 2436  12.185  22.165   1.248
42934W        W 2437  31.435   8.347  10.454
42935W        W 2438  19.704  22.550  14.387
42936W        W 2439  17.634  31.901   1.755
42937W        W 2440  29.036  12.271   2.387
42938W        W 2441  35.865  15.158  13.806
42939W        W 2442  19.044  14.766  12.078
42940W        W 2443   0.785  27.623  14.974
42941W        W 2444  18.754   9.709   1.304
42942W        W 2445  27.557  11.305   3.719
42943W        W 2446  16.184   5.407  13.370
42944W        W 2447   3.797  13.169   4.759
42945W        W 2448   7.344  20.099  10.943
42946W        W 2449  40.397  29.480   3.343
42947W        W 2450   8.823  26.079   3.672
42948W        W 2451  11.321   1.885   4.759
42949W        W 2452  21.561   8.768   2.303
42950W        W 2453  40.333  11.837  13.465
42951W        W 2454   6.789   0.359  14.966
42952W        W 2455  15.667  41.038  11.012
42953W        W 2456   2.365  24.167  11.604
42954W        W 2457   9.254  36.988  13.920
42955W        W 2458  16.622  34.510  10.479
42956W        W 2459  37.425  12.147  14.933
42957W        W 2460  39.512  16.778   3.871
42958W        W 2461  16.813  24.627  11.517
42959W        W 2462  13.668  22.700  11.120
42960W        W 2463  14.781  44.499  11.408
42961W        W 2464  25.997  13.713  14.010
42962W        W 2465  14.176  18.705  10.953
42963W        W 2466  35.596  28.946  11.385
42964W        W 2467   3.723  20.570  12.567
42965W        W 2468  10.678  21.640  11.069
42966W        W 2469  32.904   5.882  10.639
42967W        W 2470  26.504  26.042   0.339
42968W        W 2471  34.067  40.893  12.823
42969W        W 2472  17.594  42.513   2.672
42970W        W 2473  13.650  13.790  13.835
42971W        W 2474  42.868   7.398   1.363
42972W        W 2475   6.254  31.638   1.218
42973W        W 2476  37.347  24.525   1.422
42974W        W 2477  26.974  10.149   4.823
42975W        W 2478  43.497  26.104  11.450
42976W        W 2479   0.972   3.447   4.606
42977W        W 2480   3.872  26.026  13.367
42978W        W 2481  17.275  20.226   2.895
42979W        W 2482  10.163  24.077   0.754
42980W        W 2483  44.356  43.442  14.291
42981W        W 2484  39.383  10.221  11.505
42982W        W 2485   5.884  28.636   3.817
42983W        W 2486  14.125  38.563   0.273
42984W        W 2487   1.928  10.322  10.060
42985W        W 2488   4.720  20.595  10.405
42986W        W 2489  23.196   7.857  10.454
42987W        W 2490  32.016   0.912  12.960
42988W        W 2491  37.564  36.439   3.674
42989W        W 2492  34.876   5.745   0.466
42990W        W 2493  10.770  41.475  11.546
42991W        W 2494  30.492   6.411  11.534
42992W        W 2495  29.627  17.140  11.935
42993W        W 2496  31.574   1.906  13.440
42994W        W 2497   0.863  36.073  10.087
42995W        W 2498  44.375  43.391   2.744
42996W        W 2499  15.597  31.420  10.468
42997W        W 2500   2.364  32.495  12.834
42998W        W 2501  35.399  13.326   2.865
42999W        W 2502  32.053  27.045  13.385
43000W        W 2503  42.998  23.104   4.345
43001W        W 2504  36.910  12.145  13.513
43002W        W 2505  23.613   6.723  12.827
43003W        W 2506  39.851  22.691  13.000
43004W        W 2507   1.856  28.537   0.823
43005W        W 2508  32.498   5.919   1.286
43006W        W 2509   8.346  44.871  11.531
43007W        W 2510  19.246  17.220   3.365
43008W        W 2511  23.178   8.847  11.983
43009W        W 2512  38.543  12.835  11.044
43010W        W 2513  25.119  31.580  14.463
43011W        W 2514  38.367  18.154   3.225
43012W        W 2515   8.752  19.055  14.487
43013W        W 2516  31.909  39.827  11.930
43014W        W 2517  34.907  43.942  11.598
43015W        W 2518   0.328  14.653   2.328
43016W        W 2519  22.178  38.440  12.400
43017W        W 2520   1.396   9.227   0.897
43018W        W 2521  11.150  18.277  11.530
43019W        W 2522   8.688  24.556  14.397
43020W        W 2523  35.459   3.715   3.798
43021W        W 2524  14.278  20.185  13.903
43022W        W 2525  19.709  12.306  14.500
43023W        W 2526  44.278  11.167  14.315
43024W        W 2527  24.573  27.021   1.737
43025W        W 2528  17.609   8.818  14.353
43026W        W 2529  43.949   0.863  12.024
43027W        W 2530   4.845  39.529  12.884
43028W        W 2531  40.347  17.717  14.427
43029W        W 2532   3.251   8.771  10.425
43030W        W 2533   1.944  19.606  14.012
43031W        W 2534  16.119  34.986   4.683
43032W        W 2535  25.145   3.853  12.481
43033W        W 2536  20.698  27.054  13.322
43034W        W 2537   1.278   2.826   2.208
43035W        W 2538  39.040  43.510   0.338
43036W        W 2539  13.646   7.380   1.304
43037W        W 2540  24.230   4.798  10.613
43038W        W 2541  33.971  43.426   0.807
43039W        W 2542  31.962  44.289  12.015
43040W        W 2543  22.064  27.008  14.434
43041W        W 2544   1.294  24.682   1.719
43042W        W 2545   9.297  36.921  11.007
43043W        W 2546   3.736   2.836   3.217
43044W        W 2547  27.141  29.171  11.463
43045W        W 2548  39.424  17.261  12.487
43046W        W 2549  37.042  40.997  11.499
43047W        W 2550   3.896   3.356  13.324
43048W        W 2551   2.352  29.645   4.724
43049W        W 2552  30.020  18.744  13.933
43050W        W 2553   3.935  20.170   2.710
43051W        W 2554  17.174   1.846   0.480
43052W        W 2555  34.417  22.511  13.505
43053W        W 2556  16.657  38.455  10.487
43054W        W 2557   5.696   2.737   4.600
43055W        W 2558  42.839  29.491   1.699
43056W        W 2559   7.745  20.585   0.910
43057W        W 2560  36.372  19.736  14.353
43058W        W 2561  25.470  25.156  13.409
43059W        W 2562   9.869  22.577   4.825
43060W        W 2563  30.567  40.954   1.355
43061W        W 2564  35.973  15.613   4.267
43062W        W 2565  12.629  33.547  10.479
43063W        W 2566  14.237  26.499  11.398
43064W        W 2567   3.802  39.879  10.005
43065W        W 2568  31.499   9.311  10.964
43066W        W 2569  11.193   8.691   0.937
43067W        W 2570  20.632  31.480  10.631
43068W        W 2571   0.431  15.274   3.666
43069W        W 2572  38.926  28.624   0.444
43070W        W 2573  31.110  22.708   2.824
43071W        W 2574   3.769  18.149  13.463
43072W        W 2575  41.311  38.448   1.234
43073W        W 2576  34.426  40.524   4.726
43074W        W 2577  41.874  42.308   3.298
43075W        W 2578  20.222  30.619  13.060
43076W        W 2579  19.727   4.359  11.895
43077W        W 2580  35.908   7.199   4.604
43078W        W 2581  35.895  43.339   3.330
43079W        W 2582   0.924  11.686  10.507
43080W        W 2583   5.199  37.363  10.999
43081W        W 2584  13.810  41.326  13.464
43082W        W 2585  30.079  17.169  11.920
43083W        W 2586  43.314  31.616  12.975
43084W        W 2587  29.979  30.026  11.385
43085W        W 2588  31.906   2.952  10.459
43086W        W 2589  34.000  42.319  14.783
43087W        W 2590  11.839   9.653  14.866
43088W        W 2591  10.351  36.002  11.538
43089W        W 2592  32.424  30.032   0.935
43090W        W 2593  13.811  36.854  10.530
43091W        W 2594  12.834  33.556  12.938
43092W        W 2595  23.518  11.137  14.956
43093W        W 2596  19.169  44.928   1.699
43094W        W 2597  21.099  10.211   5.170
43095W        W 2598   9.792  21.656  14.017
43096W        W 2599  23.007  44.761   0.840
43097W        W 2600  27.581  22.070   3.800
43098W        W 2601   8.663  25.015  13.454
43099W        W 2602  18.741  19.046  10.443
43100W        W 2603  20.215  15.257   2.796
43101W        W 2604  26.035  41.389  12.545
43102W        W 2605  19.222   9.853  12.468
43103W        W 2606  27.142  27.523  13.008
43104W        W 2607  19.756  18.681  10.536
43105W        W 2608  20.110  34.116  10.612
43106W        W 2609  42.946   2.386   1.361
43107W        W 2610  10.811  14.780   5.287
43108W        W 2611   3.873  14.126  13.372
43109W        W 2612  24.168   4.754   1.379
43110W        W 2613  42.980  23.661   3.154
43111W        W 2614  30.151   3.845  11.977
43112W        W 2615   3.933  10.198  12.361
43113W        W 2616  29.592  40.373   0.932
43114W        W 2617  11.208   3.410   3.377
43115W        W 2618  27.451  15.244  13.356
43116W        W 2619   9.154  30.146   2.832
43117W        W 2620  13.661  19.130  10.898
43118W        W 2621   8.842  39.530  10.411
43119W        W 2622  12.617  18.752   2.416
43120W        W 2623  34.985   2.792   0.939
43121W        W 2624   3.294   5.197   2.225
43122W        W 2625  41.338  25.124  13.901
43123W        W 2626  41.970  40.867  12.965
43124W        W 2627  16.232  39.462  11.456
43125W        W 2628   2.442   9.720   1.803
43126W        W 2629   0.259  11.216  12.083
43127W        W 2630  22.676  41.830   3.343
43128W        W 2631  22.015  30.629   3.159
43129W        W 2632  34.559  14.631   1.783
43130W        W 2633  25.669   8.659  14.492
43131W        W 2634  32.442   9.240   3.687
43132W        W 2635   4.342   7.842  11.469
43133W        W 2636  26.029  18.239   2.324
43134W        W 2637  30.659  43.453  10.970
43135W        W 2638  30.607  20.115   0.883
43136W        W 2639  19.274   3.248  12.045
43137W        W 2640  21.122  19.062  14.861
43138W        W 2641   3.355  27.006  11.987
43139W        W 2642   8.290   0.970   1.246
43140W        W 2643  27.114   2.337  14.497
43141W        W 2644  17.592   0.937  10.428
43142W        W 2645   0.343  38.888   1.707
43143W        W 2646  42.358  43.479  14.476
43144W        W 2647  27.688  19.771   0.429
43145W        W 2648  18.723  34.390   4.291
43146W        W 2649   6.271   5.814  14.030
43147W        W 2650   6.879  27.164  12.920
43148W        W 2651  32.953  19.573   3.743
43149W        W 2652  32.511   3.294  13.896
43150W        W 2653  37.393  31.074   0.815
43151W        W 2654  39.376  14.181   2.399
43152W        W 2655  16.672  24.506   1.860
43153W        W 2656  21.632  35.382  12.951
43154W        W 2657  23.161  36.869  14.896
43155W        W 2658  19.168  16.710   3.744
43156W        W 2659  16.625  26.969  11.008
43157W        W 2660   4.777  33.010  12.534
43158W        W 2661  35.401  19.229   2.899
43159W        W 2662  31.982  28.006   5.097
43160W        W 2663  43.334   7.373   3.823
43161W        W 2664  18.739  41.039   1.854
43162W        W 2665  32.094   7.333  14.786
43163W        W 2666  18.791  35.401   0.265
43164W        W 2667   9.835  43.926  13.454
43165W        W 2668  28.179   3.234   4.638
43166W        W 2669  12.158   5.417  13.539
43167W        W 2670   9.834  42.924  11.032
43168W        W 2671  33.428   2.866   2.321
43169W        W 2672  43.851  31.470   4.306
43170W        W 2673  37.416  41.363   1.233
43171W        W 2674   4.825  36.014   3.244
43172W        W 2675  33.881   1.307  14.425
43173W        W 2676  29.661  42.822  13.903
43174W        W 2677  32.522   2.330  11.592
43175W        W 2678  25.962  22.559   0.735
43176W        W 2679  29.044  30.566  14.500
43177W        W 2680  31.608  25.535  12.090
43178W        W 2681  19.061  10.244   4.236
43179W        W 2682  20.166  20.622  12.008
43180W        W 2683  28.632  40.820   1.303
43181W        W 2684  16.298  41.788  11.977
43182W        W 2685   8.161   1.250   4.668
43183W        W 2686  38.906  37.421   0.448
43184W        W 2687  44.009  31.575  11.873
43185W        W 2688  41.880  26.467  13.980
43186W        W 2689   6.204  33.883  11.048
43187W        W 2690  21.085   7.240  13.414
43188W        W 2691  18.111  23.660  12.418
43189W        W 2692   6.278  15.302  12.923
43190W        W 2693  40.386  35.586  10.577
43191W        W 2694  35.528  16.115  11.015
43192W        W 2695  35.916   9.666   0.332
43193W        W 2696  37.479  29.923  14.981
43194W        W 2697  11.634  19.606  14.371
43195W        W 2698   2.827  32.426   2.190
43196W        W 2699  27.629   9.693   4.163
43197W        W 2700  25.523   0.859  13.887
43198W        W 2701  14.628  37.538   3.778
43199W        W 2702  42.958   6.287  14.855
43200W        W 2703  12.319   9.828  12.397
43201W        W 2704  34.431   8.164  11.425
43202W        W 2705  36.588  36.526  10.577
43203W        W 2706  32.057  25.538  10.422
43204W        W 2707  42.826   4.879  14.393
43205W        W 2708   7.780  11.731   4.145
43206W        W 2709   7.735   6.774   3.782
43207W        W 2710  43.921  34.942   1.730
43208W        W 2711  32.035  41.353   0.795
43209W        W 2712  40.428  19.742  13.527
43210W        W 2713  19.729  40.949   2.727
43211W        W 2714   8.715  38.000   3.261
43212W        W 2715  30.449   9.159  12.426
43213W        W 2716   5.394  30.508  13.999
43214W        W 2717  26.125   6.781   4.193
43215W        W 2718  14.655  44.504   3.707
43216W        W 2719   3.241  43.777   2.236
43217W        W 2720   7.226  42.841   1.847
43218W        W 2721  41.370  19.253   2.762
43219W        W 2722  43.970  39.369   0.336
43220W        W 2723  33.104  42.907  13.529
43221W        W 2724  35.390  18.723  11.970
43222W        W 2725   4.746  37.512   0.794
43223W        W 2726  22.605  39.061  13.392
43224W        W 2727  18.134  30.982  11.916
43225W        W 2728   3.892   7.911  11.512
43226W        W 2729   0.259   7.267   0.947
43227W        W 2730  27.517   1.774  12.050
43228W        W 2731   8.683  10.804   0.481
43229W        W 2732  24.663   6.257   0.849
43230W        W 2733  14.649  27.569  10.925
43231W        W 2734  10.231  18.172  14.981
43232W        W 2735  29.530   5.767  11.542
43233W        W 2736   4.429  22.056   3.767
43234W        W 2737  44.944  25.188   3.864
43235W        W 2738   2.419   8.187   0.436
43236W        W 2739   6.883   7.667  13.445
43237W        W 2740   5.797  40.919   1.814
43238W        W 2741  31.095  18.160  11.589
43239W        W 2742   9.235  28.487   1.815
43240W        W 2743  40.393  27.070  14.398
43241W        W 2744  33.596  36.896   3.265
43242W        W 2745   6.240  15.207  13.512
43243W        W 2746  24.623   2.386  13.964
43244W        W 2747  13.225  43.322   1.778
43245W        W 2748   7.858  20.755  13.006
43246W        W 2749  33.089  13.769  11.954
43247W        W 2750  21.639   8.661  13.397
43248W        W 2751   4.419   1.791   3.377
43249W        W 2752  40.505  40.992  12.913
43250W        W 2753   7.345  29.524  13.364
43251W        W 2754  12.207  34.920  10.018
43252W        W 2755  35.952  39.494   4.644
43253W        W 2756   3.222   9.771  14.353
43254W        W 2757  29.504  17.655   4.127
43255W        W 2758   3.397  27.100  14.295
43256W        W 2759   2.765  25.190   1.240
43257W        W 2760   7.314  12.147   4.642
43258W        W 2761   1.343  33.983   3.770
43259W        W 2762  30.969  14.311  11.413
43260W        W 2763  12.821  31.455  11.093
43261W        W 2764   8.378  16.785   5.652
43262W        W 2765  13.264  13.761   1.386
43263W        W 2766  43.798   4.315  10.590
43264W        W 2767  12.198  31.082  10.617
43265W        W 2768  26.979   5.896  10.538
43266W        W 2769  34.008  43.464   4.295
43267W        W 2770  20.222  14.777   3.303
43268W        W 2771  18.148   1.920   2.729
43269W        W 2772  11.321  21.518  12.503
43270W        W 2773  27.955  11.363   4.762
43271W        W 2774  44.498   9.298  13.811
43272W        W 2775  11.720   0.763   2.381
43273W        W 2776   9.154   4.778   2.792
43274W        W 2777  22.519  21.093   3.243
43275W        W 2778  35.929  34.944   1.782
43276W        W 2779  11.269  11.752  11.030
43277W        W 2780  13.249  23.048   2.363
43278W        W 2781  22.681  31.569   0.321
43279W        W 2782  43.005  28.646   3.208
43280W        W 2783  24.020  35.543  13.441
43281W        W 2784  36.891   7.887  12.402
43282W        W 2785  22.598  27.579   2.719
43283W        W 2786  19.634  43.765   4.118
43284W        W 2787   0.938  22.016   4.192
43285W        W 2788  36.381   0.745   1.903
43286W        W 2789   6.785  24.188   4.248
43287W        W 2790  28.000  34.498   2.326
43288W        W 2791   6.272   5.809  12.351
43289W        W 2792   6.892  15.776  10.938
43290W        W 2793   8.769  28.028   2.692
43291W        W 2794   1.287  10.187  12.070
43292W        W 2795  29.171  23.513   3.213
43293W        W 2796  15.197  38.962   3.807
43294W        W 2797  22.620  23.044   0.931
43295W        W 2798  11.219  25.166   1.305
43296W        W 2799  26.038  16.772   3.726
43297W        W 2800  35.502  23.219  14.384
43298W        W 2801   3.221  33.569   5.230
43299W        W 2802  39.959  20.638   2.350
43300W        W 2803  41.328  15.252  12.367
43301W        W 2804  42.869   4.436   1.227
43302W        W 2805  32.032  30.568  14.803
43303W        W 2806  27.517  12.705  14.845
43304W        W 2807   5.767  16.195  14.349
43305W        W 2808  21.686  30.046   0.434
43306W        W 2809  13.162  20.619   3.151
43307W        W 2810  21.199  21.103  11.073
43308W        W 2811  21.145  43.798   4.315
43309W        W 2812  20.171  45.000  11.014
43310W        W 2813  23.183  16.627  14.470
43311W        W 2814  27.498  16.725  11.466
43312W        W 2815  35.598  27.596   2.302
43313W        W 2816  23.491  24.588  12.059
43314W        W 2817  27.948  37.032  14.811
43315W        W 2818   5.253  27.979  11.940
43316W        W 2819   2.962  27.634  12.843
43317W        W 2820   2.380  34.109   0.342
43318W        W 2821  21.207  42.324   2.311
43319W        W 2822  13.276  19.698  13.920
43320W        W 2823  41.462  44.436  13.429
43321W        W 2824   8.828  33.959  14.971
43322W        W 2825  20.563  44.939   0.383
43323W        W 2826  38.368  12.704   1.420
43324W        W 2827   4.332  30.451   2.886
43325W        W 2828  32.949   0.475   4.693
43326W        W 2829  20.110  36.027  11.979
43327W        W 2830  18.607  13.801   2.873
43328W        W 2831  43.284   7.414   4.135
43329W        W 2832  36.470  31.969   1.294
43330W        W 2833  29.013  24.079  10.554
43331W        W 2834  10.709  26.624  10.533
43332W        W 2835  37.398  15.635  11.513
43333W        W 2836  12.693  24.206  14.280
43334W        W 2837  17.759  16.584   1.899
43335W        W 2838  19.075   8.381  10.462
43336W        W 2839   5.433  20.163  10.526
43337W        W 2840  42.790   4.364  11.089
43338W        W 2841  34.027   7.839   3.324
43339W        W 2842   4.725  22.109  12.892
43340W        W 2843  35.381  43.280   2.733
43341W        W 2844  14.098  27.644  11.509
43342W        W 2845  11.371  14.744   2.903
43343W        W 2846  28.449  17.667   4.178
43344W        W 2847  38.348  29.502   1.911
43345W        W 2848  31.963   3.245  13.433
43346W        W 2849   3.303   1.259   1.309
43347W        W 2850  22.554  37.557   2.720
43348W        W 2851  32.473   0.871   1.217
43349W        W 2852  23.667  37.546  12.477
43350W        W 2853  37.439  36.386  14.357
43351W        W 2854   3.938  26.078  13.027
43352W        W 2855  22.659  26.104  14.471
43353W        W 2856  26.624  33.599  12.942
43354W        W 2857  26.591   2.858  13.500
43355W        W 2858  16.784  28.503   4.281
43356W        W 2859  32.588   8.316  10.549
43357W        W 2860  34.426   4.741   3.673
43358W        W 2861  39.383   8.826  12.879
43359W        W 2862  28.139  43.501  14.483
43360W        W 2863  17.252  10.144   3.246
43361W        W 2864   4.743  12.689  13.490
43362W        W 2865  19.283   3.867  13.440
43363W        W 2866  18.157  28.105  12.930
43364W        W 2867  26.510   1.430   1.696
43365W        W 2868   9.197  33.973   2.199
43366W        W 2869  41.391  15.723  13.852
43367W        W 2870   6.877  24.614   1.782
43368W        W 2871  25.638  17.738   4.248
43369W        W 2872  22.209   7.912  13.855
43370W        W 2873  28.054  33.393  13.921
43371W        W 2874  40.489  16.681   0.968
43372W        W 2875  42.495  29.965  10.607
43373W        W 2876  12.847   8.176   4.117
43374W        W 2877  40.932  34.496  10.447
43375W        W 2878  19.608   1.912  11.969
43376W        W 2879  39.362  11.720  11.464
43377W        W 2880  17.062   5.335   1.384
43378W        W 2881   6.901   3.769  11.606
43379W        W 2882  39.916  30.132   2.729
43380W        W 2883  37.059  44.409  13.482
43381W        W 2884  25.152  33.123  11.412
43382W        W 2885  25.634  21.571  11.532
43383W        W 2886  28.553  34.466   0.760
43384W        W 2887  41.836  42.911   1.766
43385W        W 2888  19.080  44.344  11.999
43386W        W 2889  10.851  20.725   0.728
43387W        W 2890   8.797   7.711   3.227
43388W        W 2891   0.896   1.451  10.161
43389W        W 2892  41.916  37.502  11.488
43390W        W 2893   6.909  28.677   0.325
43391W        W 2894  37.569  30.996   3.277
43392W        W 2895  21.036  44.953   4.183
43393W        W 2896  12.718  43.471  12.554
43394W        W 2897  26.199   0.809   0.870
43395W        W 2898  39.964  35.604  10.413
43396W        W 2899  11.769  27.974  11.480
43397W        W 2900   4.912  36.065  13.362
43398W        W 2901   0.403  13.722   3.799
43399W        W 2902  31.019  21.725  12.833
43400W        W 2903  17.121   4.314   0.432
43401W        W 2904   8.304  37.374   0.380
43402W        W 2905   7.265   2.771  10.554
43403W        W 2906   7.397  40.820   1.448
43404W        W 2907   7.367  40.488   2.818
43405W        W 2908  24.567  38.916   4.351
43406W        W 2909  42.304  40.988  10.541
43407W        W 2910  32.926  17.266  10.945
43408W        W 2911  10.729  34.604   2.288
43409W        W 2912  22.729  25.166   3.711
43410W        W 2913  24.125   3.757  11.433
43411W        W 2914  39.934  10.372   1.908
43412W        W 2915  30.619  16.783   0.876
43413W        W 2916  32.426   8.721   1.435
43414W        W 2917   4.395  29.492  13.063
43415W        W 2918   5.869  16.223  13.830
43416W        W 2919  32.470   4.266  10.443
43417W        W 2920  44.447  41.392   4.206
43418W        W 2921   6.187  12.715   3.172
43419W        W 2922   2.437  15.817  13.372
43420W        W 2923  10.206  16.131   1.926
43421W        W 2924  14.657   1.480   0.868
43422W        W 2925   9.644  36.052   2.324
43423W        W 2926  38.981   3.312  11.439
43424W        W 2927  18.761  15.788  14.316
43425W        W 2928  42.840   7.846  11.856
43426W        W 2929   9.703  26.691   2.240
43427W        W 2930   1.788   1.960  10.530
43428W        W 2931  36.960  31.913   0.357
43429W        W 2932  20.739  17.135  11.006
43430W        W 2933  29.632  15.599   3.377
43431W        W 2934  43.942  15.278   4.822
43432W        W 2935   9.302  17.287   5.157
43433W        W 2936  39.904  41.887   4.260
43434W        W 2937   2.248  44.822  14.487
43435W        W 2938   4.760  19.661  10.632
43436W        W 2939  13.727   2.417   2.384
43437W        W 2940  38.915  20.560  13.957
43438W        W 2941  39.542   1.299  11.864
43439W        W 2942  32.507   7.885  14.927
43440W        W 2943  21.099  25.215  13.324
43441W        W 2944  10.811  23.694   2.882
43442W        W 2945  33.381  22.130   0.921
43443W        W 2946  26.527  37.450   4.803
43444W        W 2947  27.961  43.289  13.997
43445W        W 2948   2.259  15.163  13.321
43446W        W 2949  31.598   9.727  11.111
43447W        W 2950  30.518  42.413   2.394
43448W        W 2951  33.124   1.479  11.875
43449W        W 2952  14.736  34.423   0.923
43450W        W 2953  17.240  25.555  12.438
43451W        W 2954   1.955  42.998   2.706
43452W        W 2955  14.684  21.743   1.390
43453W        W 2956  23.068  34.927   2.306
43454W        W 2957  34.593  37.567   2.743
43455W        W 2958  26.463   4.875   1.702
43456W        W 2959   5.857  37.040  11.949
43457W        W 2960  44.336  17.578   2.410
43458W        W 2961  19.246  16.605  14.483
43459W        W 2962  18.273  40.881  10.573
43460W        W 2963   4.930  23.061   2.316
43461W        W 2964  37.065  14.599  12.482
43462W        W 2965   0.816  34.022   1.787
43463W        W 2966  42.377  40.921  13.968
43464W        W 2967   7.808   6.273   1.439
43465W        W 2968  17.672   7.863  12.025
43466W        W 2969  26.140  10.139  14.477
43467W        W 2970  27.688  35.878  10.951
43468W        W 2971  39.904   5.886  14.002
43469W        W 2972  31.469  42.298  14.922
43470W        W 2973  12.749  17.621   0.270
43471W        W 2974  41.521  21.742   2.225
43472W        W 2975  41.985  42.013   0.888
43473W        W 2976  40.949  25.021   1.262
43474W        W 2977  20.125  35.560   0.401
43475W        W 2978  31.411  13.297   1.744
43476W        W 2979  42.890  21.066   2.826
43477W        W 2980  21.684  40.409  13.334
43478W        W 2981  14.693  35.873   1.882
43479W        W 2982  26.141  20.198   1.354
43480W        W 2983  11.792  14.827   4.219
43481W        W 2984   5.302  12.269   0.779
43482W        W 2985   3.914  30.936   4.706
43483W        W 2986   1.892  27.598   0.382
43484W        W 2987  19.193  15.686  11.987
43485W        W 2988   9.219  16.263   2.757
43486W        W 2989  11.646  41.335   5.141
43487W        W 2990  31.949   1.752  13.002
43488W        W 2991  10.713  40.539   3.384
43489W        W 2992  15.650  30.431  12.354
43490W        W 2993  33.906   1.856  12.019
43491W        W 2994  13.307  29.477   2.221
43492W        W 2995   3.292  39.549  11.384
43493W        W 2996  41.883  26.105   3.306
43494W        W 2997   1.262  32.617  11.958
43495W        W 2998  23.521  16.233  12.397
43496W        W 2999  17.757   1.902   0.422
43497W        W 3000  29.630  24.230  10.915
43498W        W 3001  30.159  16.619  12.838
43499W        W 3002  17.715  23.571   2.696
43500W        W 3003  16.771  13.746   0.350
43501W        W 3004  13.782  16.107   4.603
43502W        W 3005  22.552  17.073   1.695
43503W        W 3006  38.408   6.334  13.530
43504W        W 3007   2.290  28.442   4.662
43505W        W 3008  36.467   6.328   1.739
43506W        W 3009  10.266  41.469   3.276
43507W        W 3010  39.455  37.480   0.831
43508W        W 3011   9.158  22.510   4.713
43509W        W 3012  28.984  42.018  10.433
43510W        W 3013   7.720  41.034  13.411
43511W        W 3014  39.053   8.223   9.522
43512W        W 3015   5.702  36.898   3.250
43513W        W 3016  31.041  36.071   4.766
43514W        W 3017  24.571  18.733  11.934
43515W        W 3018  30.156  40.474   2.212
43516W        W 3019  35.427   1.301  12.379
43517W        W 3020   5.698  16.137  10.890
43518W        W 3021   0.876  11.640  12.085
43519W        W 3022   1.462  17.262  11.428
43520W        W 3023  29.034  11.128  12.577
43521W        W 3024  27.145  10.823   2.281
43522W        W 3025  21.210   8.292   1.306
43523W        W 3026   5.804  17.157   3.713
43524W        W 3027   3.396  17.082  13.936
43525W        W 3028  20.540  18.114   2.765
43526W        W 3029  37.835   1.286   4.688
43527W        W 3030  30.144  36.009   3.757
43528W        W 3031  15.659  11.675   3.784
43529W        W 3032   2.750   2.307  10.588
43530W        W 3033  31.478  30.992  11.959
43531W        W 3034  38.413  36.543   3.173
43532W        W 3035   5.748   7.753   4.166
43533W        W 3036  19.119   1.432  12.976
43534W        W 3037  17.152  23.171   1.926
43535W        W 3038  31.046  25.997   4.700
43536W        W 3039  32.433  23.505  12.392
43537W        W 3040  36.890  25.525  13.912
43538W        W 3041  31.070   7.908   1.218
43539W        W 3042  14.739  39.508   1.365
43540W        W 3043  10.876  15.608   4.737
43541W        W 3044  37.906  26.470  10.589
43542W        W 3045  39.883  17.062  11.078
43543W        W 3046  39.011  38.528  13.910
43544W        W 3047  33.042  35.856  11.061
43545W        W 3048   4.261   4.799   0.401
43546W        W 3049  43.448  16.228   0.483
43547W        W 3050  37.946  28.438  12.433
43548W        W 3051  31.043   6.869   1.432
43549W        W 3052  12.350  28.165   3.657
43550W        W 3053  22.624  18.163   5.160
43551W        W 3054  44.369  40.982   0.479
43552W        W 3055  13.689  12.359   3.214
43553W        W 3056   2.232  16.768   4.663
43554W        W 3057  26.507   8.245  14.455
43555W        W 3058  20.095   4.346  14.985
43556W        W 3059   4.700   8.681  12.341
43557W        W 3060  36.876   4.749   4.231
43558W        W 3061  17.273  12.338  13.926
43559W        W 3062  31.957   2.411  13.455
43560W        W 3063  26.204  32.016   4.195
43561W        W 3064   7.867  32.531   1.824
43562W        W 3065   2.772   6.413   3.807
43563W        W 3066  36.593  32.904  13.392
43564W        W 3067  40.972  27.477  11.571
43565W        W 3068  43.950   1.423   4.334
43566W        W 3069  10.350  36.033   3.675
43567W        W 3070  19.084  37.488   3.173
43568W        W 3071  27.550  23.163   1.304
43569W        W 3072  12.824  27.033   0.811
43570W        W 3073  21.732  32.478   4.642
43571W        W 3074   9.375  36.850  13.043
43572W        W 3075  43.764  21.132   1.405
43573W        W 3076  33.959  34.466   2.382
43574W        W 3077  12.242  23.638   2.285
43575W        W 3078  19.203  16.208   1.850
43576W        W 3079  41.008   5.849   2.189
43577W        W 3080  15.199  31.633  13.432
43578W        W 3081  14.672  20.715   2.804
43579W        W 3082  44.967  41.392   0.782
43580W        W 3083   4.821  42.841   0.457
43581W        W 3084  27.537  11.641   3.663
43582W        W 3085  15.243  42.486  10.502
43583W        W 3086  28.452  29.538  14.382
43584W        W 3087  16.267  11.622   1.775
43585W        W 3088  41.292  37.981   0.462
43586W        W 3089   8.756  26.492   4.656
43587W        W 3090  18.544  13.796  14.495
43588W        W 3091  42.314  33.403   2.798
43589W        W 3092  32.410  10.809  12.486
43590W        W 3093   5.332  24.179   4.211
43591W        W 3094  23.239   3.358  13.329
43592W        W 3095   1.848  38.480  14.400
43593W        W 3096  29.075   6.816  13.970
43594W        W 3097  10.377   8.884   1.388
43595W        W 3098  25.478   1.326   0.360
43596W        W 3099  12.334  41.364   0.458
43597W        W 3100  20.228  33.482  13.978
43598W        W 3101  42.334  18.711  13.533
43599W        W 3102  13.175  11.329   4.822
43600W        W 3103  25.673   7.384   0.279
43601W        W 3104  39.998  14.270  14.322
43602W        W 3105  25.116  34.017  13.447
43603W        W 3106  25.619  14.757   2.794
43604W        W 3107   4.404  19.708  12.859
43605W        W 3108  32.415  15.265  13.395
43606W        W 3109   0.943  42.941  14.451
43607W        W 3110  39.962  40.345  12.081
43608W        W 3111  36.347   2.806  11.518
43609W        W 3112   5.692  26.514   3.249
43610W        W 3113   4.356  34.100   3.267
43611W        W 3114  15.788  15.091   3.753
43612W        W 3115  35.501  37.960   5.284
43613W        W 3116  44.329   7.264   9.994
43614W        W 3117  14.152  18.259  11.067
43615W        W 3118  21.028  24.667   2.801
43616W        W 3119  24.587   5.827  11.422
43617W        W 3120  29.499  43.364  13.063
43618W        W 3121  25.553  12.733  13.488
43619W        W 3122   3.285  43.908   1.873
43620W        W 3123   5.361   3.778   4.117
43621W        W 3124  15.607  21.029  11.904
43622W        W 3125  39.513  42.353  14.445
43623W        W 3126  27.508  28.465   1.813
43624W        W 3127  34.398  13.132   0.886
43625W        W 3128  29.526   2.469   2.204
43626W        W 3129  21.064  33.888   5.082
43627W        W 3130  42.868   6.397  10.984
43628W        W 3131  33.531  17.695  10.945
43629W        W 3132  29.166  29.632   3.153
43630W        W 3133  16.800  28.638   0.839
43631W        W 3134  35.033   9.878  11.034
43632W        W 3135  14.706  33.464   2.397
43633W        W 3136  11.743  43.866  10.523
43634W        W 3137  13.169  42.398  10.469
43635W        W 3138  43.919  20.036  14.455
43636W        W 3139  28.456   1.905   4.699
43637W        W 3140  29.014  37.407   2.346
43638W        W 3141  35.535  30.492   0.289
43639W        W 3142  25.687   7.786  10.609
43640W        W 3143  18.171   9.716   3.672
43641W        W 3144  14.246  40.406  10.992
43642W        W 3145   2.822  38.048  11.473
43643W        W 3146   4.784  28.143   5.198
43644W        W 3147  42.439  44.468   1.801
43645W        W 3148  30.510   6.323   2.768
43646W        W 3149   1.340  32.421   3.243
43647W        W 3150  23.023  19.210  11.520
43648W        W 3151  37.024   7.807   1.322
43649W        W 3152  42.890  12.184  10.438
43650W        W 3153  32.583  38.415   1.772
43651W        W 3154  44.431  43.453  11.922
43652W        W 3155  28.536   7.401  12.523
43653W        W 3156   1.315  43.439  12.090
43654W        W 3157  19.585  15.107   1.268
43655W        W 3158  41.870   2.269  11.372
43656W        W 3159  31.995  41.979  14.765
43657W        W 3160  38.391   7.343   2.749
43658W        W 3161  19.200   6.735   0.810
43659W        W 3162  10.287  23.235   0.843
43660W        W 3163  41.987  12.258  11.435
43661W        W 3164  44.941  30.607  14.860
43662W        W 3165  28.038  18.706  13.983
43663W        W 3166  43.861  18.244   2.319
43664W        W 3167   3.850  42.434  13.474
43665W        W 3168  30.133   6.846  10.981
43666W        W 3169  34.069  34.403  12.869
43667W        W 3170   2.868  38.918   2.204
43668W        W 3171  44.480  20.114  11.609
43669W        W 3172  21.137  43.821  12.078
43670W        W 3173   2.869  30.519  12.038
43671W        W 3174  44.776  42.526  12.374
43672W        W 3175  32.109   5.332  10.512
43673W        W 3176  40.052   6.310   2.417
43674W        W 3177  44.457   4.890   1.712
43675W        W 3178  23.681   9.177  13.051
43676W        W 3179  41.306  17.757   3.754
43677W        W 3180   6.720  28.163   0.302
43678W        W 3181  20.142  19.069  12.403
43679W        W 3182  15.210   7.314  13.902
43680W        W 3183   3.433  29.035   4.340
43681W        W 3184  15.226  28.156  13.903
43682W        W 3185  43.909  11.296  14.948
43683W        W 3186  32.944  22.587   3.225
43684W        W 3187  44.956   7.238  14.487
43685W        W 3188  12.334  31.980   1.749
43686W        W 3189  27.982  19.049  12.081
43687W        W 3190  20.612  36.393  11.595
43688W        W 3191  35.589  33.386   1.870
43689W        W 3192  20.096  15.782   0.834
43690W        W 3193  11.642  40.820  14.340
43691W        W 3194   1.458  13.663  13.538
43692W        W 3195  20.173  33.077   3.195
43693W        W 3196   5.221  39.039  10.404
43694W        W 3197   1.245  32.091   1.272
43695W        W 3198  29.038  42.435   3.207
43696W        W 3199  16.138  29.135   1.908
43697W        W 3200  39.506  35.583   2.225
43698W        W 3201  32.034  34.368   2.869
43699W        W 3202  25.087  11.300   4.337
43700W        W 3203  37.559  21.189  10.562
43701W        W 3204  33.033  13.249  12.866
43702W        W 3205  19.090  41.464  13.392
43703W        W 3206  21.597  35.077   3.168
43704W        W 3207  41.845   7.240   2.181
43705W        W 3208  30.461   5.226   3.811
43706W        W 3209   9.883  34.479   2.259
43707W        W 3210   6.396  32.621   0.480
43708W        W 3211  23.075  25.134   0.748
43709W        W 3212  30.049  10.154   9.962
43710W        W 3213  26.601   7.298  14.029
43711W        W 3214  19.586  43.013  13.488
43712W        W 3215  13.164   1.816   4.685
43713W        W 3216  34.076  36.065   2.180
43714W        W 3217  16.665  19.702  12.837
43715W        W 3218  24.506  15.191   4.776
43716W        W 3219  16.260  24.648  11.090
43717W        W 3220   2.326  17.219  11.571
43718W        W 3221  32.464  25.649   0.941
43719W        W 3222  31.121   7.416   2.817
43720W        W 3223  34.505  33.001   3.192
43721W        W 3224  31.114  11.291   4.664
43722W        W 3225  26.666   0.459   5.109
43723W        W 3226  25.056  36.471  14.316
43724W        W 3227  15.621   9.676  10.561
43725W        W 3228  41.517  16.747  10.631
43726W        W 3229  41.427  15.702  13.545
43727W        W 3230   5.772  25.566  13.390
43728W        W 3231  28.478  18.235   3.781
43729W        W 3232   2.763  17.089   1.418
43730W        W 3233   0.827  44.753   2.797
43731W        W 3234  11.767   3.320  13.872
43732W        W 3235  37.951  40.998  12.487
43733W        W 3236  16.122  37.497  11.420
43734W        W 3237  37.359  36.947  10.405
43735W        W 3238  33.388  35.078  13.819
43736W        W 3239  25.067  10.861  11.580
43737W        W 3240   9.277   8.329   3.642
43738W        W 3241  41.939  38.920   2.677
43739W        W 3242   7.246   3.243   2.711
43740W        W 3243  14.650  14.232   3.145
43741W        W 3244  38.828  33.541   0.748
43742W        W 3245   2.896  36.561   0.411
43743W        W 3246  18.253  15.122   4.790
43744W        W 3247  16.747  16.164  14.980
43745W        W 3248  15.144   7.190  11.858
43746W        W 3249  43.847  30.137   4.259
43747W        W 3250  41.935  28.614   1.214
43748W        W 3251   0.313  35.011  12.999
43749W        W 3252  42.824  21.211   2.369
43750W        W 3253   0.255   8.741   2.412
43751W        W 3254  44.317   8.765  11.528
43752W        W 3255  23.705   4.792  12.042
43753W        W 3256  30.585  27.590  14.397
43754W        W 3257  15.771  40.019  13.060
43755W        W 3258   9.290   3.278  11.486
43756W        W 3259  34.921  40.310   2.288
43757W        W 3260  34.041  39.873  11.876
43758W        W 3261  12.702  12.232   4.241
43759W        W 3262  28.011  39.405   2.231
43760W        W 3263  40.941   9.810   2.739
43761W        W 3264  33.433  36.089   1.775
43762W        W 3265  12.810   8.823  13.540
43763W        W 3266  26.105  16.738  11.515
43764W        W 3267   9.231  19.263  10.627
43765W        W 3268  40.816   0.382   1.811
43766W        W 3269  39.814  29.059   1.775
43767W        W 3270  36.484  34.934  10.629
43768W        W 3271  12.737   1.432  14.466
43769W        W 3272  43.414  18.740   1.298
43770W        W 3273  24.497  28.537   2.195
43771W        W 3274  40.012  20.709   0.256
43772W        W 3275  14.198  27.641  10.526
43773W        W 3276  33.496  20.261  10.940
43774W        W 3277  15.121  28.537  11.866
43775W        W 3278  17.266  20.552   0.802
43776W        W 3279  37.387  34.510   4.186
43777W        W 3280  10.183  11.306   0.931
43778W        W 3281  23.555   4.699  14.427
43779W        W 3282  22.044   8.829   3.175
43780W        W 3283  37.348  14.224  12.004
43781W        W 3284  13.255   8.196  10.540
43782W        W 3285   8.275  36.898   2.339
43783W        W 3286  20.219  15.171  10.612
43784W        W 3287   7.741  27.522  14.404
43785W        W 3288  16.163   8.271   4.685
43786W        W 3289  40.952  44.765   4.730
43787W        W 3290  16.687  38.533   1.776
43788W        W 3291   8.872  21.059  13.357
43789W        W 3292  24.202  18.153   3.630
43790W        W 3293   9.227  17.565  10.439
43791W        W 3294  20.212  25.555  14.826
43792W        W 3295   5.396  19.274  11.486
43793W        W 3296  29.150  29.942   3.843
43794W        W 3297   0.811   5.881   1.370
43795W        W 3298  28.966  38.489   9.666
43796W        W 3299  15.263  40.455  14.503
43797W        W 3300  35.399   6.820   2.675
43798W        W 3301  27.665   0.882  11.017
43799W        W 3302  12.221  10.738  12.383
43800W        W 3303   9.652   9.208  12.376
43801W        W 3304  33.929  18.722  12.033
43802W        W 3305  29.660  16.088   0.909
43803W        W 3306  27.608  13.178   1.225
43804W        W 3307  26.063  35.036  14.331
43805W        W 3308  43.492  13.813  14.017
43806W        W 3309  17.249  22.119  12.462
43807W        W 3310  37.068  10.864  11.565
43808W        W 3311  42.398   5.246  10.035
43809W        W 3312   5.394  40.958   0.785
43810W        W 3313  20.633  26.177   3.674
43811W        W 3314  12.179  41.340  13.009
43812W        W 3315  39.527   4.873   4.642
43813W        W 3316  30.152  34.397  12.383
43814W        W 3317   1.427  38.985   3.797
43815W        W 3318   9.842   4.922  10.148
43816W        W 3319  12.185  44.440  13.984
43817W        W 3320  26.176  11.336  10.439
43818W        W 3321   6.766  13.332  14.933
43819W        W 3322  38.452  13.160  14.900
43820W        W 3323  39.392  36.455  12.495
43821W        W 3324   3.234  10.799   1.793
43822W        W 3325  16.162  14.197   4.212
43823W        W 3326  12.641  36.871   3.829
43824W        W 3327  39.437   4.854   5.584
43825W        W 3328  41.835  18.137  14.450
43826W        W 3329  12.684   0.870   0.760
43827W        W 3330  28.487  42.449   2.698
43828W        W 3331  25.113  21.603  13.956
43829W        W 3332  30.940  11.846   5.597
43830W        W 3333  43.017   2.458   2.669
43831W        W 3334  40.851   0.944  14.429
43832W        W 3335  22.167  10.332   3.794
43833W        W 3336  39.898   9.780   3.163
43834W        W 3337  27.527  22.009  10.974
43835W        W 3338  34.041  32.434  12.939
43836W        W 3339  32.114  14.762  12.847
43837W        W 3340  43.016  44.949  13.309
43838W        W 3341  43.285  12.655  13.025
43839W        W 3342  27.634   5.724   1.409
43840W        W 3343  23.138  41.419   4.735
43841W        W 3344  24.175  20.625   1.312
43842W        W 3345   6.744  10.191  14.404
43843W        W 3346   7.827  17.562  13.975
43844W        W 3347  33.899  16.208  14.018
43845W        W 3348  15.084  36.474  10.585
43846W        W 3349  31.476  43.960  14.866
43847W        W 3350  44.802  26.142  12.395
43848W        W 3351  22.244  32.549  14.441
43849W        W 3352  27.948  37.894   0.813
43850W        W 3353  28.476  11.171   1.388
43851W        W 3354  34.428   1.956   4.607
43852W        W 3355  27.104  35.015   2.310
43853W        W 3356   9.696  17.259  13.484
43854W        W 3357   1.249  12.267  14.507
43855W        W 3358  39.433   6.192  11.451
43856W        W 3359  27.517  14.739  13.054
43857W        W 3360  34.471  36.557   4.199
43858W        W 3361   0.818  38.989  10.933
43859W        W 3362  21.154  32.534   1.448
43860W        W 3363  22.226   9.322  13.354
43861W        W 3364  18.764  23.627   0.884
43862W        W 3365  13.309  13.259   5.203
43863W        W 3366  39.881  35.852  12.084
43864W        W 3367   4.217  24.610   3.189
43865W        W 3368   8.853   0.908  13.792
43866W        W 3369  26.685  14.310   3.298
43867W        W 3370  10.646  34.996   3.193
43868W        W 3371  35.522   4.367  14.987
43869W        W 3372   5.378   2.422   2.802
43870W        W 3373  20.095  34.372   3.762
43871W        W 3374  25.524  14.594   4.684
43872W        W 3375   3.218  25.974  13.352
43873W        W 3376  25.015  23.193  14.836
43874W        W 3377  12.786  44.347  10.578
43875W        W 3378  34.893  23.584  11.031
43876W        W 3379   6.681  20.212   1.296
43877W        W 3380   7.781  38.494  11.582
43878W        W 3381  37.478  22.581  11.989
43879W        W 3382   8.320  10.179  14.024
43880W        W 3383   0.417  39.469   1.715
43881W        W 3384  11.251  17.791  10.977
43882W        W 3385  13.163  12.741  14.949
43883W        W 3386  44.348  39.459   1.858
43884W        W 3387   3.453  15.692   1.778
43885W        W 3388  18.247  33.463   3.639
43886W        W 3389  36.375  36.896   4.672
43887W        W 3390  38.388  26.550  11.036
43888W        W 3391  32.032  28.474   2.295
43889W        W 3392   5.886   0.762  10.458
43890W        W 3393  43.902  13.843   4.769
43891W        W 3394   2.758  16.740   4.248
43892W        W 3395  30.458  16.081  12.425
43893W        W 3396  12.211   5.297   0.864
43894W        W 3397  11.655  11.822   9.972
43895W        W 3398  44.343  42.947   3.148
43896W        W 3399  37.077   3.743   5.310
43897W        W 3400   1.772  37.347  10.976
43898W        W 3401  37.943  15.666  10.475
43899W        W 3402  22.206  34.899   3.683
43900W        W 3403  17.568  33.407   1.801
43901W        W 3404  32.014  44.293   2.217
43902W        W 3405  37.020  41.376  10.509
43903W        W 3406  38.543   9.646  14.942
43904W        W 3407  25.127   2.777  11.394
43905W        W 3408   4.377  28.478  13.041
43906W        W 3409   0.492  44.753  10.992
43907W        W 3410   6.389  17.144  12.528
43908W        W 3411  41.823  23.702   2.278
43909W        W 3412  22.010  17.295   0.967
43910W        W 3413  22.676  33.921   3.835
43911W        W 3414   2.824   6.731  11.986
43912W        W 3415  24.168  34.387   2.885
43913W        W 3416  29.947  10.374  14.971
43914W        W 3417  35.965  41.314   2.706
43915W        W 3418  18.131   1.446   1.766
43916W        W 3419  29.931   1.767   3.797
43917W        W 3420  13.299  40.972  14.974
43918W        W 3421  20.679  23.682  11.981
43919W        W 3422  31.916  15.268  14.869
43920W        W 3423  22.552  22.095  11.906
43921W        W 3424   5.265  27.504   0.773
43922W        W 3425  41.979  23.527   4.605
43923W        W 3426   6.733  25.976   0.313
43924W        W 3427  30.020  31.537  12.033
43925W        W 3428  26.088  23.735  10.419
43926W        W 3429   3.950  29.093  12.512
43927W        W 3430  14.720  25.067   3.159
43928W        W 3431  32.946   9.851   2.419
43929W        W 3432   5.205  20.660   2.788
43930W        W 3433  41.851  26.051  12.041
43931W        W 3434  13.152  43.420  13.319
43932W        W 3435  39.424  32.049  11.972
43933W        W 3436  21.635  36.915  14.288
43934W        W 3437  37.936   2.796   1.326
43935W        W 3438  25.476  37.564   0.797
43936W        W 3439  21.034   9.260   1.751
43937W        W 3440  30.446   4.804   4.798
43938W        W 3441  34.100  16.174  14.802
43939W        W 3442  10.797  18.738  11.480
43940W        W 3443  20.690  16.075   1.353
43941W        W 3444  18.208  41.341   0.363
43942W        W 3445  35.957  40.964   2.892
43943W        W 3446  37.505  21.050   0.839
43944W        W 3447  41.397  10.818   0.893
43945W        W 3448  26.525  16.772   3.831
43946W        W 3449  13.610   9.377  12.985
43947W        W 3450   6.762  23.005  13.871
43948W        W 3451  16.074  12.255  13.468
43949W        W 3452  11.766  23.097  12.971
43950W        W 3453  16.145  17.578  11.898
43951W        W 3454  27.457  38.865  14.856
43952W        W 3455  31.917  43.480   4.740
43953W        W 3456  34.515   1.386   2.704
43954W        W 3457  12.802  25.173   3.708
43955W        W 3458  12.791   9.886   3.358
43956W        W 3459  35.862  43.444   0.794
43957W        W 3460  11.802  29.628   3.175
43958W        W 3461  31.449  39.398   9.939
43959W        W 3462  22.022  29.618  14.410
43960W        W 3463  21.658  13.737  12.076
43961W        W 3464  25.100  16.689   2.895
43962W        W 3465   3.840  31.047  12.413
43963W        W 3466  40.038  39.520   2.880
43964W        W 3467  40.812  17.757   2.181
43965W        W 3468  36.482  18.646   3.203
43966W        W 3469   5.208  15.304   4.122
43967W        W 3470  40.496  35.555   4.710
43968W        W 3471  40.051  20.755   4.601
43969W        W 3472  43.770  17.740  13.053
43970W        W 3473   4.758   5.797   4.830
43971W        W 3474  12.736  30.976   0.406
43972W        W 3475  33.985  29.989  11.861
43973W        W 3476   1.750  32.511  14.300
43974W        W 3477  42.799  14.275   2.755
43975W        W 3478  23.698  16.074   0.398
43976W        W 3479   7.206  16.102  13.380
43977W        W 3480  11.353  24.175   4.649
43978W        W 3481  29.976   0.970  14.303
43979W        W 3482  24.217  23.206  12.460
43980W        W 3483  39.316  28.053   2.187
43981W        W 3484  41.456   6.185   1.418
43982W        W 3485  30.048  10.810  11.942
43983W        W 3486  38.403  29.469  13.890
43984W        W 3487  10.875  37.400  11.061
43985W        W 3488  11.802   4.443   2.813
43986W        W 3489  33.616   7.323   3.650
43987W        W 3490  41.827  24.617   1.215
43988W        W 3491   0.418   9.689   1.252
43989W        W 3492  14.209  22.180   1.220
43990W        W 3493  29.588  42.335   2.706
43991W        W 3494  27.990  13.165   3.693
43992W        W 3495   2.281  40.327   3.689
43993W        W 3496  17.723  38.424  11.566
43994W        W 3497   2.270  17.162  10.094
43995W        W 3498  18.248  26.695  11.377
43996W        W 3499   4.407  15.614   2.194
43997W        W 3500  33.915  20.174  12.508
43998W        W 3501  26.023  41.944  11.455
43999W        W 3502  36.567  11.267   1.389
44000W        W 3503  15.084  43.492   2.818
44001W        W 3504  22.110  18.169   3.790
44002W        W 3505  11.342  17.709   3.775
44003W        W 3506  16.145   1.955  13.915
44004W        W 3507  39.973   2.348   0.794
44005W        W 3508  13.722   5.862   0.840
44006W        W 3509   0.860  18.258  11.084
44007W        W 3510  34.508  35.868   4.760
44008W        W 3511  21.561  44.397  10.956
44009W        W 3512   5.417  29.053  14.515
44010W        W 3513  25.144  10.717  11.890
44011W        W 3514  37.045  35.408   3.643
44012W        W 3515   8.709  35.060   3.647
44013W        W 3516  12.300   1.382  13.058
44014W        W 3517  24.073  40.905  12.014
44015W        W 3518  19.696   9.848   3.250
44016W        W 3519  19.057   6.727  14.277
44017W        W 3520  26.697  33.119  10.083
44018W        W 3521  27.674  43.270  11.931
44019W        W 3522  11.724  30.030  14.329
44020W        W 3523  11.812   7.727   1.446
44021W        W 3524  41.789  37.944  13.797
44022W        W 3525   1.397  19.099  14.795
44023W        W 3526  30.953  21.104   1.839
44024W        W 3527  37.535  16.585   9.949
44025W        W 3528  29.172  13.808   9.559
44026W        W 3529   0.846  40.422  14.280
44027W        W 3530  22.170  38.009  12.044
44028W        W 3531   2.435   2.817   4.191
44029W        W 3532  16.748  35.978   2.727
44030W        W 3533  11.206  36.017   0.853
44031W        W 3534   9.875   3.818  14.309
44032W        W 3535  22.657  18.654  12.914
44033W        W 3536  25.601   2.957   3.654
44034W        W 3537  12.704  16.139   3.285
44035W        W 3538  23.513   0.336   0.790
44036W        W 3539  27.482  14.134   2.248
44037W        W 3540  19.535  17.172   4.142
44038W        W 3541  23.027  12.173   0.263
44039W        W 3542  42.850  31.532  12.836
44040W        W 3543  16.661  30.143   1.338
44041W        W 3544  33.981  19.116   0.412
44042W        W 3545  44.798  13.206  13.030
44043W        W 3546  33.486  18.560   3.209
44044W        W 3547   7.710  30.984   3.696
44045W        W 3548  23.537  43.986   2.863
44046W        W 3549   9.314  43.901  12.407
44047W        W 3550   2.258  17.655  14.868
44048W        W 3551   1.353  19.160  10.075
44049W        W 3552  44.936   9.693   3.749
44050W        W 3553  42.908  28.091  13.490
44051W        W 3554   0.471  29.020  11.540
44052W        W 3555   1.837  38.980  13.832
44053W        W 3556  31.524  42.932  13.459
44054W        W 3557  38.993  19.216  12.874
44055W        W 3558  33.423  12.201  10.638
44056W        W 3559  20.157  20.178  12.983
44057W        W 3560  20.272  37.378  10.459
44058W        W 3561  25.647  20.609   2.363
44059W        W 3562  25.125  23.157  10.567
44060W        W 3563  31.461  35.520   0.834
44061W        W 3564  26.484   4.777  11.971
44062W        W 3565  25.554  28.998   2.882
44063W        W 3566  44.285  18.547   0.426
44064W        W 3567  44.803   0.456   3.385
44065W        W 3568  12.778  24.008  11.535
44066W        W 3569  35.984   8.267   4.293
44067W        W 3570  10.790  21.727   0.903
44068W        W 3571   1.432  29.148   2.698
44069W        W 3572  31.497  32.970  11.863
44070W        W 3573  18.568  26.597  14.946
44071W        W 3574  34.878  23.137   0.891
44072W        W 3575  17.181  34.914   3.179
44073W        W 3576   2.946  23.208   3.817
44074W        W 3577   8.729   2.313  12.509
44075W        W 3578  33.601  10.708   2.879
44076W        W 3579  28.012  22.514  10.502
44077W        W 3580  20.136   1.258  14.441
44078W        W 3581  35.997   1.943   4.141
44079W        W 3582   8.308  21.033  10.093
44080W        W 3583  31.900   5.291   0.948
44081W        W 3584  16.620  41.019   4.603
44082W        W 3585  38.514   3.715   3.670
44083W        W 3586  29.614  42.317  12.398
44084W        W 3587   8.822  39.857  12.045
44085W        W 3588  28.578  17.784  14.282
44086W        W 3589  10.682  34.077  10.644
44087W        W 3590  42.310  22.694   0.963
44088W        W 3591  10.229  37.900   2.857
44089W        W 3592  30.930  20.717  14.359
44090W        W 3593  39.000  10.254  10.155
44091W        W 3594   7.807   9.252  10.641
44092W        W 3595  40.992  31.097   3.274
44093W        W 3596  23.680  13.249   0.416
44094W        W 3597  13.245  44.351   9.977
44095W        W 3598   5.308  40.467   3.262
44096W        W 3599  34.543  44.269   4.173
44097W        W 3600   9.233  11.836   3.306
44098W        W 3601  27.551   2.840   1.294
44099W        W 3602   4.829  33.622   4.173
44100W        W 3603  22.647  31.961   9.929
44101W        W 3604  29.546  23.632  10.899
44102W        W 3605   9.843  25.982   2.252
44103W        W 3606  10.832  40.016   1.740
44104W        W 3607  42.378  25.137  10.547
44105W        W 3608  18.732  30.092  13.440
44106W        W 3609  30.461  18.789   2.339
44107W        W 3610   4.226  43.388  13.391
44108W        W 3611  44.447   1.889  13.836
44109W        W 3612  14.203  13.260   2.787
44110W        W 3613  39.391  34.509  13.809
44111W        W 3614  30.422   1.879   0.419
44112W        W 3615   9.796  41.438  14.505
44113W        W 3616  37.562   4.868  13.003
44114W        W 3617  37.529  44.286   5.118
44115W        W 3618   5.266  42.986   4.679
44116W        W 3619   7.341   4.782  12.493
44117W        W 3620  19.594  35.381  13.797
44118W        W 3621   8.405  21.193   4.642
44119W        W 3622  25.516  17.664  14.421
44120W        W 3623  14.238   7.672  10.517
44121W        W 3624  22.716  20.690   1.226
44122W        W 3625  20.547   0.399   1.352
44123W        W 3626  20.614  29.531  11.084
44124W        W 3627  16.279  25.475   0.810
44125W        W 3628   6.824  14.106   3.822
44126W        W 3629  36.096  44.000   0.915
44127W        W 3630  27.554  11.676  10.413
44128W        W 3631  25.661  14.328   0.863
44129W        W 3632  35.584  12.757   3.376
44130W        W 3633  34.923   8.663   3.862
44131W        W 3634  27.979  13.340  13.482
44132W        W 3635  43.934  31.110  11.451
44133W        W 3636  18.768  16.293   1.392
44134W        W 3637  27.164  41.530   1.804
44135W        W 3638  30.015   1.472  14.006
44136W        W 3639   6.285  21.609  12.406
44137W        W 3640  41.849  37.571   2.191
44138W        W 3641   4.858  25.045   3.632
44139W        W 3642  27.484  16.209   3.648
44140W        W 3643  37.443  27.609   1.889
44141W        W 3644  19.760  11.695  14.842
44142W        W 3645  29.536   4.418   2.183
44143W        W 3646  12.218   0.911   0.338
44144W        W 3647  41.849  44.881   4.238
44145W        W 3648   2.876  21.218  12.015
44146W        W 3649  43.506   4.293  12.089
44147W        W 3650  29.985  38.052  10.973
44148W        W 3651  11.691  12.227   4.838
44149W        W 3652  43.412  10.799   4.637
44150W        W 3653  25.178  21.573  14.412
44151W        W 3654  37.502   9.229   2.238
44152W        W 3655  25.619  27.683   2.414
44153W        W 3656  37.514  14.153   4.122
44154W        W 3657  18.206  16.090  14.968
44155W        W 3658  35.970   5.381   2.793
44156W        W 3659   1.281  12.709   2.412
44157W        W 3660   6.813   0.923   5.224
44158W        W 3661  41.924   1.789  12.368
44159W        W 3662  17.203  41.832  13.915
44160W        W 3663   2.903  29.474   4.198
44161W        W 3664  18.747  34.397  14.461
44162W        W 3665  13.304  33.033  11.565
44163W        W 3666  31.491  39.369  10.407
44164W        W 3667  15.686  26.630  12.348
44165W        W 3668  44.915  36.450   1.745
44166W        W 3669  40.820  40.453   1.789
44167W        W 3670  27.966  40.459   3.772
44168W        W 3671  36.505  21.219  12.032
44169W        W 3672  11.834  43.445  13.991
44170W        W 3673   9.806  12.129  13.327
44171W        W 3674  39.824   8.709  10.542
44172W        W 3675   3.755   3.887  13.047
44173W        W 3676  41.533  28.626  14.884
44174W        W 3677  12.767  34.876  12.398
44175W        W 3678  13.110  38.547   3.843
44176W        W 3679  28.636  43.499  12.866
44177W        W 3680  40.454   8.874  10.947
44178W        W 3681  40.420  41.327   2.380
44179W        W 3682  23.125  33.595   1.344
44180W        W 3683  37.896   7.399  12.386
44181W        W 3684  34.023  30.433   3.322
44182W        W 3685  41.881   8.309  13.413
44183W        W 3686  25.691   3.311   3.728
44184W        W 3687   6.380  41.477  11.482
44185W        W 3688  33.907  38.344  12.971
44186W        W 3689  44.493   1.933  10.952
44187W        W 3690  23.529  20.656   4.720
44188W        W 3691   7.199  26.588   2.802
44189W        W 3692  25.044  21.583   3.273
44190W        W 3693  44.889  28.015  11.438
44191W        W 3694  31.143  32.905   3.785
44192W        W 3695  35.591  23.509  14.497
44193W        W 3696  16.786  25.119  14.321
44194W        W 3697  26.622  22.624  13.425
44195W        W 3698  40.528   3.331  13.462
44196W        W 3699  20.707   7.862  11.976
44197W        W 3700  12.726  38.477  14.464
44198W        W 3701  42.382  35.951   0.774
44199W        W 3702  44.884  17.587  11.472
44200W        W 3703  26.994  38.972   2.677
44201W        W 3704  40.336   0.493   4.241
44202W        W 3705  18.768  28.079   1.329
44203W        W 3706  31.630   0.923  13.375
44204W        W 3707  15.580  21.029   1.806
44205W        W 3708   6.359  20.237   1.712
44206W        W 3709  27.094   0.474  14.501
44207W        W 3710   7.320  30.543   1.324
44208W        W 3711   8.767   3.317  13.045
44209W        W 3712   8.792  23.491  10.530
44210W        W 3713   1.933  22.593  12.999
44211W        W 3714  36.383  37.870   2.214
44212W        W 3715  32.629  28.574   3.851
44213W        W 3716  14.267  16.143  11.985
44214W        W 3717   0.407  39.867  11.904
44215W        W 3718  37.960   6.765  14.508
44216W        W 3719  27.456   0.318  14.926
44217W        W 3720  27.031  18.118  14.281
44218W        W 3721  42.408   1.872  11.062
44219W        W 3722  12.220  24.043   2.244
44220W        W 3723  25.700   4.860   0.879
44221W        W 3724  26.072  17.136   4.152
44222W        W 3725  22.502   2.265  12.857
44223W        W 3726  30.531  17.231   2.696
44224W        W 3727  29.659  41.368  11.584
44225W        W 3728  26.161  43.012  13.841
44226W        W 3729   7.406  12.709  14.388
44227W        W 3730   6.784  42.008  13.032
44228W        W 3731  41.951  41.948  12.421
44229W        W 3732  21.017   9.828   4.256
44230W        W 3733  42.823  12.805   1.348
44231W        W 3734   4.360  22.675   2.744
44232W        W 3735  15.118  21.242   1.355
44233W        W 3736  16.180  43.358   1.350
44234W        W 3737  30.035  36.917   1.841
44235W        W 3738   1.740  24.584   4.738
44236W        W 3739  26.118  37.346  11.417
44237W        W 3740   4.252  10.841   2.215
44238W        W 3741  36.019   9.868   2.667
44239W        W 3742  32.967  10.141   2.760
44240W        W 3743  39.942  41.508   1.902
44241W        W 3744  33.542  34.050   2.837
44242W        W 3745  32.464   2.240  12.354
44243W        W 3746  21.658  43.983   1.846
44244W        W 3747  24.015  15.087  11.960
44245W        W 3748  11.693  42.833   4.250
44246W        W 3749  28.672  25.566   2.881
44247W        W 3750  26.041  43.900  10.419
44248W        W 3751  16.632  23.085  14.435
44249W        W 3752  39.950  12.144   1.265
44250W        W 3753  28.555   1.335  11.380
44251W        W 3754  16.155  10.848   4.120
44252W        W 3755  13.813  20.145  11.095
44253W        W 3756  44.361  37.911   0.938
44254W        W 3757  41.535  41.811   1.727
44255W        W 3758  42.030  27.956   1.834
44256W        W 3759  36.509  29.559   3.745
44257W        W 3760  19.544  16.570   3.213
44258W        W 3761  20.692   0.474  11.037
44259W        W 3762  24.482  30.419  13.392
44260W        W 3763   8.175  23.065  14.514
44261W        W 3764  26.186  17.590  11.581
44262W        W 3765  13.711   2.241  12.562
44263W        W 3766  40.485  44.908  11.901
44264W        W 3767  33.050  18.241   4.645
44265W        W 3768   7.286  16.077   1.450
44266W        W 3769  26.124  13.818  11.394
44267W        W 3770  40.980  11.781  14.301
44268W        W 3771  27.565  30.502   4.649
44269W        W 3772  36.073  18.208   0.851
44270W        W 3773  38.555  28.051   2.378
44271W        W 3774   2.334  17.568  11.050
44272W        W 3775  25.576   8.307   3.297
44273W        W 3776  40.409   0.746  14.386
44274W        W 3777  36.909  32.441   1.908
44275W        W 3778  22.059   2.765   0.439
44276W        W 3779  34.433  33.517  11.521
44277W        W 3780  32.888   6.917   2.363
44278W        W 3781   7.879   8.693   2.729
44279W        W 3782  38.379  38.992  13.962
44280W        W 3783  42.807  23.697  13.801
44281W        W 3784  16.096  23.678  14.846
44282W        W 3785   3.780  32.620  12.450
44283W        W 3786  18.554   7.766   4.682
44284W        W 3787   9.711   9.251  11.972
44285W        W 3788  24.114  18.640   0.333
44286W        W 3789  40.532  40.436  13.938
44287W        W 3790  20.693  33.523   3.280
44288W        W 3791  14.751  41.937   1.379
44289W        W 3792  36.495   9.851   2.721
44290W        W 3793   6.184   1.877  12.536
44291W        W 3794  25.622  22.210  12.517
44292W        W 3795   3.932  27.042   2.771
44293W        W 3796  33.067   5.919  13.052
44294W        W 3797  26.976  18.087  13.989
44295W        W 3798  31.532  37.499   1.263
44296W        W 3799  15.125   1.875   3.798
44297W        W 3800   9.646   6.857  12.026
44298W        W 3801   9.386  11.742  10.913
44299W        W 3802  35.028  39.484   2.724
44300W        W 3803  44.865   1.404  14.842
44301W        W 3804  37.062  41.872   3.371
44302W        W 3805  28.985  15.318   0.266
44303W        W 3806  24.576  25.011   2.293
44304W        W 3807  18.736  28.637   3.650
44305W        W 3808   6.198  40.351  11.936
44306W        W 3809  42.831  22.538   3.812
44307W        W 3810  25.533  26.093  10.637
44308W        W 3811  37.081  30.970   3.803
44309W        W 3812  41.507  37.458   2.785
44310W        W 3813  36.584  15.168   4.699
44311W        W 3814  17.774  42.499   0.472
44312W        W 3815  19.564  10.833   2.181
44313W        W 3816  12.139  43.503   0.860
44314W        W 3817   7.812  33.397   1.832
44315W        W 3818   2.462  35.436   0.917
44316W        W 3819  43.840  13.627  13.376
44317W        W 3820  41.345  35.047   1.427
44318W        W 3821   2.347   5.742  11.469
44319W        W 3822  16.776  31.513   2.380
44320W        W 3823  13.200  23.056   0.422
44321W        W 3824  19.151  17.607  13.329
44322W        W 3825  16.310  25.541   4.715
44323W        W 3826   7.378  33.503   4.246
44324W        W 3827  20.274   0.387   2.835
44325W        W 3828  31.547  35.445   0.291
44326W        W 3829  14.239  26.674  11.053
44327W        W 3830  24.596   7.902   4.819
44328W        W 3831  26.047  18.274  10.919
44329W        W 3832  37.470  22.221   0.292
44330W        W 3833  31.027  41.435  14.374
44331W        W 3834  44.819  40.413  12.021
44332W        W 3835   6.267  37.527   2.684
44333W        W 3836   0.429   1.873   1.262
44334W        W 3837  31.436  17.226   3.757
44335W        W 3838  28.485  26.083   2.812
44336W        W 3839   4.754  44.982   0.424
44337W        W 3840  15.121   4.376  14.392
44338W        W 3841  41.295  42.329  10.563
44339W        W 3842  36.570  30.613   0.318
44340W        W 3843  36.874  33.059  14.475
44341W        W 3844   4.785   9.669   4.259
44342W        W 3845  38.393   0.407   4.259
44343W        W 3846  44.907  31.134  14.893
44344W        W 3847   3.777  39.541  11.943
44345W        W 3848  41.798  39.932   0.455
44346W        W 3849  43.461   0.311  10.640
44347W        W 3850  40.347  44.314  12.579
44348W        W 3851  16.297  33.075   4.701
44349W        W 3852   5.831   3.739  13.923
44350W        W 3853  32.086  34.042   4.684
44351W        W 3854  13.334  10.719   1.270
44352W        W 3855  13.793  21.161   1.251
44353W        W 3856  25.633   0.307  10.563
44354W        W 3857  40.019   7.390   4.621
44355W        W 3858   4.890  38.056  10.582
44356W        W 3859  39.518   4.820   2.891
44357W        W 3860  27.112  14.336  14.332
44358W        W 3861  26.021  27.667  12.086
44359W        W 3862  38.453  33.045   3.264
44360W        W 3863  17.652  41.022   4.657
44361W        W 3864  24.104  15.742   3.790
44362W        W 3865  34.387  33.464   4.643
44363W        W 3866  19.755  41.954  10.897
44364W        W 3867  25.619  39.979  11.454
44365W        W 3868  25.139  10.296  11.378
44366W        W 3869  20.274  27.141  11.393
44367W        W 3870  27.176  19.125  13.994
44368W        W 3871  41.866  25.055   4.598
44369W        W 3872   0.880  36.352   4.604
44370W        W 3873  41.787  33.598   1.850
44371W        W 3874  22.192  42.903   3.351
44372W        W 3875   3.349   7.769  14.818
44373W        W 3876   0.364  17.714  13.313
44374W        W 3877  23.090  29.652  13.466
44375W        W 3878  44.440   6.781   0.366
44376W        W 3879   3.814  25.015   5.134
44377W        W 3880  24.628  15.125  13.988
44378W        W 3881  16.683  43.017  13.334
44379W        W 3882  23.051  25.533   2.824
44380W        W 3883  33.573  24.067   4.686
44381W        W 3884  17.291  34.891   0.253
44382W        W 3885  39.032  25.107   4.142
44383W        W 3886  34.035  41.292  14.853
44384W        W 3887  23.583   0.843  12.527
44385W        W 3888  18.270  40.363   4.186
44386W        W 3889  11.363  16.208   9.974
44387W        W 3890  42.775   3.765  11.072
44388W        W 3891  40.457   9.820   3.840
44389W        W 3892  15.161  39.808  13.423
44390W        W 3893   1.479  24.647  14.278
44391W        W 3894  38.075  21.055   0.741
44392W        W 3895  28.154  23.016  13.319
44393W        W 3896  10.381   8.327  14.338
44394W        W 3897  41.445  26.111   2.332
44395W        W 3898   2.395  22.567  10.439
44396W        W 3899   7.282  39.852  14.841
44397W        W 3900  20.173  28.059   2.321
44398W        W 3901  27.185  42.415   1.355
44399W        W 3902   4.766   8.665  10.572
44400W        W 3903  27.184  15.682  14.475
44401W        W 3904  42.025  29.526   4.193
44402W        W 3905  41.343   6.239   2.733
44403W        W 3906   3.364  25.544   3.690
44404W        W 3907   7.690  44.808  12.007
44405W        W 3908  27.600   3.304   2.387
44406W        W 3909  30.632  26.168   9.500
44407W        W 3910  18.096   3.710   3.356
44408W        W 3911   5.377  43.949  11.988
44409W        W 3912  21.161   6.285   0.955
44410W        W 3913   6.700  12.236   1.432
44411W        W 3914  39.479  10.753  10.989
44412W        W 3915  35.602   9.265  13.507
44413W        W 3916  19.605  31.140  10.586
44414W        W 3917  19.609  10.282  13.400
44415W        W 3918  11.215  14.821   3.670
44416W        W 3919  25.496   9.300   4.213
44417W        W 3920  18.289  28.965  11.868
44418W        W 3921  13.224  14.191   2.417
44419W        W 3922  38.939  19.232   2.853
44420W        W 3923  27.601   5.825   2.798
44421W        W 3924  27.629  35.417  14.410
44422W        W 3925   1.368   1.940  12.951
44423W        W 3926  40.965  23.579   1.888
44424W        W 3927  10.320  12.233  10.963
44425W        W 3928  12.842  32.418   0.281
44426W        W 3929  21.230  16.128   2.414
44427W        W 3930  38.831   4.254   4.267
44428W        W 3931   6.425  12.239   0.275
44429W        W 3932  10.682   1.952  13.984
44430W        W 3933  17.068  16.764  14.893
44431W        W 3934  30.428   9.366   2.227
44432W        W 3935  31.915   5.356   3.371
44433W        W 3936  27.004  34.094  11.982
44434W        W 3937  37.974  18.772   2.382
44435W        W 3938  31.443   4.242   2.229
44436W        W 3939  25.214   2.289   4.314
44437W        W 3940  11.825  36.541   0.937
44438W        W 3941  12.725  14.813  13.850
44439W        W 3942  22.069  13.844   2.752
44440W        W 3943  41.839  17.147   4.714
44441W        W 3944  38.896  28.547  11.981
44442W        W 3945  37.958  19.170   3.177
44443W        W 3946  16.679  15.097   0.837
44444W        W 3947  27.132  40.449  10.429
44445W        W 3948   2.785  38.995  12.551
44446W        W 3949  30.428  24.094  10.440
44447W        W 3950  33.624   0.421  14.288
44448W        W 3951  41.490  21.690   3.787
44449W        W 3952  39.554   8.399   5.566
44450W        W 3953  37.005  27.567  13.018
44451W        W 3954  22.996  26.174   4.785
44452W        W 3955  19.552  31.488  13.818
44453W        W 3956  21.212   2.450   1.891
44454W        W 3957  11.695   1.264  13.530
44455W        W 3958  40.039   6.420   1.926
44456W        W 3959  44.962   0.764  14.785
44457W        W 3960  33.487  32.499  12.891
44458W        W 3961   4.330  41.513   0.464
44459W        W 3962  35.384  24.117  12.043
44460W        W 3963  25.671  27.544   3.673
44461W        W 3964  36.349  14.276  13.886
44462W        W 3965  15.812  25.646   1.234
44463W        W 3966  11.137  31.060  10.125
44464W        W 3967  38.922  43.444  10.463
44465W        W 3968   1.357  30.634  14.937
44466W        W 3969  29.997  37.421  14.891
44467W        W 3970  30.915   7.319   2.271
44468W        W 3971   2.267  12.824   2.208
44469W        W 3972  36.558   6.370  13.939
44470W        W 3973  14.257  39.324   4.251
44471W        W 3974   2.763  43.780  13.353
44472W        W 3975   7.395  36.973   0.417
44473W        W 3976  31.035  15.641  12.408
44474W        W 3977  35.854  15.657  11.116
44475W        W 3978  32.947  15.179   1.239
44476W        W 3979   2.735   7.880   2.209
44477W        W 3980  44.907  10.877   1.743
44478W        W 3981  24.521  34.036   4.342
44479W        W 3982  35.453  37.498   4.832
44480W        W 3983  41.821  19.224   5.285
44481W        W 3984  41.389   5.221   3.860
44482W        W 3985  17.255   3.831  11.895
44483W        W 3986  19.213  17.755   4.252
44484W        W 3987   6.192  35.021   0.814
44485W        W 3988  41.027  32.459   4.660
44486W        W 3989  40.321   4.216  14.784
44487W        W 3990   3.943  37.364   3.384
44488W        W 3991  20.049  36.488  11.902
44489W        W 3992   3.221  29.443  10.891
44490W        W 3993  39.830   2.775   5.622
44491W        W 3994  12.659  13.832  11.600
44492W        W 3995  19.724  34.867   2.899
44493W        W 3996  10.350   8.674  14.346
44494W        W 3997   4.421   3.396   3.280
44495W        W 3998  34.507  40.008   4.228
44496W        W 3999   1.971  11.675   3.228
44497W        W 4000  17.568   9.745   1.421
44498W        W 4001  37.995  15.764  11.518
44499W        W 4002  27.514   3.757   1.350
44500W        W 4003   8.819  40.402  13.447
44501W        W 4004  36.886   3.727  11.573
44502W        W 4005   9.241   1.877  14.488
44503W        W 4006  28.553   3.225   3.657
44504W        W 4007  40.304  10.734  11.500
44505W        W 4008  28.073  37.082  14.375
44506W        W 4009  42.959   6.791  12.896
44507W        W 4010   4.753  22.100   1.838
44508W        W 4011  42.351  39.849  12.068
44509W        W 4012  34.405   0.451  10.408
44510W        W 4013  39.483   7.177   3.264
44511W        W 4014  28.090  29.155  11.896
44512W        W 4015   7.318  31.000  14.440
44513W        W 4016  14.136  27.486   1.325
44514W        W 4017  30.559  19.759   2.718
44515W        W 4018  32.481  17.157   9.495
44516W        W 4019  41.995   5.907  11.424
44517W        W 4020  43.876  28.505   4.676
44518W        W 4021  28.057  44.977  10.593
44519W        W 4022  42.493   8.731  10.423
44520W        W 4023  13.767  41.348   0.962
44521W        W 4024   6.843  17.682   4.203
44522W        W 4025   0.826  40.986   0.795
44523W        W 4026  30.107  35.423   2.774
44524W        W 4027  39.457  24.220  11.526
44525W        W 4028  33.556  39.880   4.131
44526W        W 4029  41.441  25.058  10.482
44527W        W 4030  35.024  27.449   0.454
44528W        W 4031  39.034  34.086  10.945
44529W        W 4032  36.469  18.175   4.741
44530W        W 4033  34.488  44.424   0.329
44531W        W 4034  28.563  42.395  12.410
44532W        W 4035   1.776  23.594  14.846
44533W        W 4036  24.676  12.854   4.776
44534W        W 4037  26.662  40.864   2.306
44535W        W 4038  14.098  33.914  14.469
44536W        W 4039  19.776  18.259  12.040
44537W        W 4040  44.004  43.511   2.188
44538W        W 4041  25.568  38.467   3.313
44539W        W 4042   7.396  35.564   1.790
44540W        W 4043  28.034  17.272  12.078
44541W        W 4044   9.336  38.429  14.315
44542W        W 4045  38.438  37.556   3.762
44543W        W 4046   7.302  38.500  12.399
44544W        W 4047  32.567  33.522   4.249
44545W        W 4048  43.504  38.884   4.216
44546W        W 4049   7.396  22.195  10.944
44547W        W 4050  41.354   1.453   2.755
44548W        W 4051  16.254  10.684   4.731
44549W        W 4052  37.843   3.826   0.773
44550W        W 4053  32.091  19.674  10.490
44551W        W 4054  23.214   5.878   3.640
44552W        W 4055   3.368  10.665   3.767
44553W        W 4056  31.031  38.536  13.026
44554W        W 4057   4.348  28.640  10.892
44555W        W 4058  32.055  29.644  13.377
44556W        W 4059  44.389  11.163  11.574
44557W        W 4060   4.789  19.579   3.834
44558W        W 4061  44.282  11.206  12.413
44559W        W 4062  16.736  24.481   0.426
44560W        W 4063  11.622  29.001  10.100
44561W        W 4064  26.118  30.950  11.611
44562W        W 4065  40.810   2.852   0.844
44563W        W 4066  12.627  25.175   4.180
44564W        W 4067   4.449  20.568   0.457
44565W        W 4068  26.991  39.968   4.822
44566W        W 4069  21.101  25.078   3.165
44567W        W 4070   8.217  42.519   0.412
44568W        W 4071  16.085  28.552   0.285
44569W        W 4072  16.761  26.553   2.182
44570W        W 4073   9.652  41.404   0.422
44571W        W 4074   9.183  42.410  11.586
44572W        W 4075  19.697  42.455   0.379
44573W        W 4076   2.870  14.792  11.088
44574W        W 4077  25.483  33.067  12.058
44575W        W 4078  32.102  31.899  12.906
44576W        W 4079  13.692  21.751   2.240
44577W        W 4080  36.004  29.023  13.397
44578W        W 4081  14.103  15.731  13.440
44579W        W 4082  20.183  32.551  14.455
44580W        W 4083  14.302  12.715   2.879
44581W        W 4084  22.245   8.204  10.968
44582W        W 4085   5.757  16.193   1.413
44583W        W 4086  16.813   8.342   2.239
44584W        W 4087  11.188   9.302   4.178
44585W        W 4088  38.556  17.617   4.635
44586W        W 4089  22.613  26.173   4.757
44587W        W 4090  44.423  11.244  13.452
44588W        W 4091   5.366  34.065   4.654
44589W        W 4092   5.397   0.417   0.450
44590W        W 4093  23.589  33.945  11.389
44591W        W 4094   6.256   4.830  13.917
44592W        W 4095  25.069  23.699  12.823
44593W        W 4096  34.512  43.459  12.998
44594W        W 4097   0.307  33.570   3.713
44595W        W 4098  32.460  24.018  11.050
44596W        W 4099   5.874  23.094  13.345
44597W        W 4100  24.621  38.009  12.545
44598W        W 4101   8.181  12.792   3.326
44599W        W 4102  35.094  38.461   4.677
44600W        W 4103   7.412  41.501   2.812
44601W        W 4104  15.230   0.790  14.014
44602W        W 4105  41.941  21.128  10.927
44603W        W 4106  17.772  14.705   3.365
44604W        W 4107   0.836  35.537   0.377
44605W        W 4108  22.679  29.619  11.371
44606W        W 4109   3.839  41.462  12.405
44607W        W 4110  44.918  23.631  11.056
44608W        W 4111  26.108  27.168  12.417
44609W        W 4112  17.105  36.958  13.536
44610W        W 4113   2.762   7.328   2.901
44611W        W 4114  13.201  32.097  13.820
44612W        W 4115  32.477  32.003   4.282
44613W        W 4116  17.102  33.578  13.495
44614W        W 4117   5.767  41.923   3.168
44615W        W 4118   0.364  10.179  11.446
44616W        W 4119   1.449  31.974  13.412
44617W        W 4120  35.562   7.867   0.390
44618W        W 4121  39.021  10.337   2.181
44619W        W 4122  24.667  21.539  13.400
44620W        W 4123  21.204   9.175  14.467
44621W        W 4124  12.823   6.884   3.180
44622W        W 4125   0.442  40.855  13.882
44623W        W 4126  16.139   9.654   1.858
44624W        W 4127   6.868   3.425  12.842
44625W        W 4128   5.328  17.797  14.390
44626W        W 4129  18.243  38.012  13.921
44627W        W 4130  35.386   6.361   3.784
44628W        W 4131  40.433  15.170  13.010
44629W        W 4132  26.110  24.219   1.737
44630W        W 4133  12.854  20.129   2.769
44631W        W 4134  32.588  34.504  13.425
44632W        W 4135  32.007  36.014  10.092
44633W        W 4136  22.667  23.089   1.770
44634W        W 4137  15.669  32.396  13.994
44635W        W 4138  42.992  21.614   1.408
44636W        W 4139  34.613  19.741   2.710
44637W        W 4140  30.917  20.201  14.299
44638W        W 4141  35.552  27.968   0.827
44639W        W 4142  36.574  11.633  11.571
44640W        W 4143  40.454  22.621  11.896
44641W        W 4144  32.092  41.458  12.936
44642W        W 4145   3.856  44.286  13.543
44643W        W 4146  27.100  19.690  13.356
44644W        W 4147  24.077  33.414  11.021
44645W        W 4148  41.384  21.092  12.930
44646W        W 4149   7.724  38.478  11.062
44647W        W 4150   7.188  32.513  13.320
44648W        W 4151  23.148  24.204   4.702
44649W        W 4152   6.244  40.854   3.297
44650W        W 4153  41.361  15.635   0.267
44651W        W 4154  43.805   4.393   4.242
44652W        W 4155  16.568  22.633  14.797
44653W        W 4156   0.825  33.024  11.545
44654W        W 4157  34.911   8.695   0.352
44655W        W 4158  18.609  18.670  11.970
44656W        W 4159  15.775  34.884  13.509
44657W        W 4160  10.751   7.273   3.751
44658W        W 4161  25.173  25.994  12.003
44659W        W 4162  34.969  13.184   3.291
44660W        W 4163   2.857  31.995   2.852
44661W        W 4164  28.934  13.185   5.093
44662W        W 4165  11.277  24.647  11.050
44663W        W 4166  33.572  19.071   4.232
44664W        W 4167   9.343  40.397   4.798
44665W        W 4168  17.231  14.266   0.414
44666W        W 4169  37.960  36.906   4.264
44667W        W 4170  36.929  12.650  11.999
44668W        W 4171  23.696  17.245   1.226
44669W        W 4172  35.860  23.221   0.343
44670W        W 4173  32.054  30.098   1.389
44671W        W 4174  30.514  36.042  13.308
44672W        W 4175   1.808  15.204   1.260
44673W        W 4176  39.518  10.783   1.346
44674W        W 4177   4.357   8.302   4.769
44675W        W 4178  20.744  31.032  14.502
44676W        W 4179  37.342  42.948  14.842
44677W        W 4180  29.934  35.906  14.925
44678W        W 4181   5.345  17.757  13.984
44679W        W 4182  13.723   1.477   0.371
44680W        W 4183  36.363   6.787  14.492
44681W        W 4184  31.113  31.635  13.389
44682W        W 4185  34.475  31.084   4.793
44683W        W 4186  39.821  26.552  14.025
44684W        W 4187   3.808  21.527   3.298
44685W        W 4188  32.104  40.347   4.810
44686W        W 4189  31.136  23.073  12.923
44687W        W 4190  35.001  24.181   1.338
44688W        W 4191   7.357  23.052   0.243
44689W        W 4192  33.538  27.614  13.948
44690W        W 4193  14.174   0.335  11.037
44691W        W 4194  36.399  36.033   3.809
44692W        W 4195  34.899  35.552  12.467
44693W        W 4196  26.093  34.938   3.185
44694W        W 4197  15.130  24.551   4.672
44695W        W 4198  38.482  38.954  12.564
44696W        W 4199  21.637  26.632  14.916
44697W        W 4200  25.971  23.072  11.073
44698W        W 4201  21.582   8.169   1.713
44699W        W 4202  19.217  40.006   1.916
44700W        W 4203  18.272  17.214   3.350
44701W        W 4204  37.562  34.939  13.056
44702W        W 4205  42.283  19.159  14.326
44703W        W 4206   9.684  27.649   0.376
44704W        W 4207  13.842   4.749   1.887
44705W        W 4208  17.154  44.391   3.768
44706W        W 4209   2.258   0.898  14.801
44707W        W 4210  12.837  30.475   4.128
44708W        W 4211   2.333  29.454  12.968
44709W        W 4212  38.548  37.967  12.441
44710W        W 4213  16.081  14.626   0.460
44711W        W 4214   4.876  31.083  11.494
44712W        W 4215  27.961   8.883  13.322
44713W        W 4216  36.081  40.421   1.397
44714W        W 4217  14.162  36.904  10.612
44715W        W 4218  21.251  38.874  12.415
44716W        W 4219  23.628   7.210  13.930
44717W        W 4220  19.710  27.560  13.033
44718W        W 4221  37.915  15.578   0.794
44719W        W 4222  16.708  34.120   4.648
44720W        W 4223  37.976  37.431   0.309
44721W        W 4224  43.827  35.568  14.993
44722W        W 4225  42.824  24.041  14.454
44723W        W 4226  20.181   4.358  12.957
44724W        W 4227  11.266  41.336   3.328
44725W        W 4228  10.703  24.721  11.592
44726W        W 4229  28.669  18.084  10.464
44727W        W 4230  29.126  42.407   1.728
44728W        W 4231   0.767   2.739   2.311
44729W        W 4232  41.799  20.177   3.840
44730W        W 4233  10.647   2.896  13.441
44731W        W 4234  22.085   2.374   4.829
44732W        W 4235  26.481  44.462  12.372
44733W        W 4236   5.904  28.521  12.490
44734W        W 4237  44.957  17.259   1.284
44735W        W 4238  23.176   0.804  12.397
44736W        W 4239  24.720  12.636   3.786
44737W        W 4240   3.757  39.968  10.484
44738W        W 4241  13.120  21.139   1.415
44739W        W 4242  22.684   2.344  10.432
44740W        W 4243  11.292  23.573  14.008
44741W        W 4244  40.348  11.342  11.507
44742W        W 4245   8.204  37.489  12.350
44743W        W 4246   5.696  44.902  13.020
44744W        W 4247  44.501  12.784   4.679
44745W        W 4248   5.364  38.389  11.099
44746W        W 4249  11.789  31.960  14.962
44747W        W 4250   4.703  22.732  12.866
44748W        W 4251  38.465  41.439   2.762
44749W        W 4252  21.584  38.550  12.028
44750W        W 4253  44.410  43.768   4.778
44751W        W 4254  39.360  39.531   0.886
44752W        W 4255  17.692  27.021   1.742
44753W        W 4256  28.489  11.191  14.947
44754W        W 4257  44.010  17.716   5.104
44755W        W 4258  20.562  33.956  14.323
44756W        W 4259  41.434  10.250   3.365
44757W        W 4260  23.054   8.841   4.651
44758W        W 4261  37.863  18.695   1.786
44759W        W 4262  18.656   7.821   2.310
44760W        W 4263   4.932  20.267  13.434
44761W        W 4264   5.231  16.082  11.390
44762W        W 4265   3.455  10.360   3.283
44763W        W 4266  19.230   6.274  13.452
44764W        W 4267  11.792  26.015  11.512
44765W        W 4268   4.706  29.118   3.329
44766W        W 4269  26.583   5.246   2.683
44767W        W 4270  40.021  32.597  11.448
44768W        W 4271  34.897  10.275  10.520
44769W        W 4272  26.992  25.538  10.901
44770W        W 4273   4.263  23.667  14.013
44771W        W 4274  25.672  22.099   2.340
44772W        W 4275  42.395  41.420  13.320
44773W        W 4276  14.601  27.140  10.633
44774W        W 4277  18.225  36.539  12.375
44775W        W 4278  30.935  22.532  10.035
44776W        W 4279  42.014   6.751   1.806
44777W        W 4280  28.021  20.571  10.900
44778W        W 4281  42.385  36.920  10.457
44779W        W 4282  20.096  17.219   1.935
44780W        W 4283  18.720   5.305   4.206
44781W        W 4284  28.675  22.098   1.241
44782W        W 4285   9.301  36.566  13.342
44783W        W 4286  25.592  21.218  14.814
44784W        W 4287  44.868  26.570   9.527
44785W        W 4288   3.891   3.721  11.955
44786W        W 4289  16.754   7.841   2.813
44787W        W 4290   9.293   7.763  12.411
44788W        W 4291  40.371  30.510   2.337
44789W        W 4292  40.435  14.803   3.675
44790W        W 4293  19.276  18.183  12.907
44791W        W 4294  20.624  23.600  12.934
44792W        W 4295  21.606  38.968   4.830
44793W        W 4296  18.288  33.073  12.394
44794W        W 4297  22.161  26.507  14.365
44795W        W 4298  15.750   3.373  10.120
44796W        W 4299   2.960  30.576   4.676
44797W        W 4300  44.380  30.641  13.811
44798W        W 4301  16.140  26.997   4.157
44799W        W 4302   1.887   7.812   1.253
44800W        W 4303   1.901  12.675  12.389
44801W        W 4304  24.095   0.903   0.311
44802W        W 4305  36.574  38.521   0.388
44803W        W 4306  20.076  12.626  10.523
44804W        W 4307   0.338  26.502  12.569
44805W        W 4308   7.671   6.420  12.565
44806W        W 4309  24.175   4.222  13.350
44807W        W 4310  38.850  28.562   2.695
44808W        W 4311   1.893  39.027  11.947
44809W        W 4312  10.829   9.847   1.767
44810W        W 4313  30.030  23.733   5.218
44811W        W 4314   8.774   0.391   2.886
44812W        W 4315  28.649  38.523   5.170
44813W        W 4316  26.087   4.716  10.636
44814W        W 4317   3.272  20.525   2.755
44815W        W 4318  24.667  43.396   3.842
44816W        W 4319  18.063  19.216   2.878
44817W        W 4320  22.192  12.777  11.050
44818W        W 4321  34.009   8.839  13.859
44819W        W 4322  15.685  12.836   3.809
44820W        W 4323  23.147  25.698   1.431
44821W        W 4324  34.452  29.571  10.104
44822W        W 4325   2.777   2.923  14.316
44823W        W 4326  42.012  29.130  11.084
44824W        W 4327  22.598  33.095  10.461
44825W        W 4328   7.825  43.497   0.429
44826W        W 4329   1.789  29.100  12.993
44827W        W 4330  36.574  29.621   0.289
44828W        W 4331  30.002  32.524   1.421
44829W        W 4332  37.342  29.947   2.267
44830W        W 4333  37.336  23.550   3.668
44831W        W 4334  18.657  35.440  12.424
44832W        W 4335  19.632  33.409   0.275
44833W        W 4336   1.292   1.301   0.423
44834W        W 4337  28.179  13.239  12.502
44835W        W 4338  10.687  44.340  13.340
44836W        W 4339  22.544  16.677  11.410
44837W        W 4340  18.646   5.762   4.166
44838W        W 4341  30.576   3.905   1.755
44839W        W 4342  10.194   8.892   5.125
44840W        W 4343   8.764   8.826  12.502
44841W        W 4344  10.706  41.790  12.427
44842W        W 4345  31.954   0.841  11.402
44843W        W 4346  41.967  34.917   4.211
44844W        W 4347   7.337  26.956  10.562
44845W        W 4348  16.804   3.951  10.470
44846W        W 4349  27.576  22.126  13.365
44847W        W 4350  25.963   8.661  11.480
44848W        W 4351  32.127  13.139   0.776
44849W        W 4352  16.109  22.086  14.910
44850W        W 4353   9.815  39.967   1.876
44851W        W 4354  17.086  39.398  12.053
44852W        W 4355  30.428  34.062   4.174
44853W        W 4356  33.423  16.586  14.793
44854W        W 4357  39.349  26.555   4.126
44855W        W 4358  35.013   7.240  11.993
44856W        W 4359  36.048   4.323  10.622
44857W        W 4360   9.354  19.643   2.664
44858W        W 4361  13.822  35.479   2.281
44859W        W 4362   4.310  33.411  12.907
44860W        W 4363   9.683  31.440   3.267
44861W        W 4364  33.001  15.698  12.363
44862W        W 4365  37.067  23.218  10.964
44863W        W 4366  23.661   8.289   0.897
44864W        W 4367  35.000   8.777   4.133
44865W        W 4368  20.113  11.734   3.820
44866W        W 4369  10.181   3.794   0.764
44867W        W 4370  16.317  39.392   2.850
44868W        W 4371   7.878  39.053   1.921
44869W        W 4372  20.656  26.545  11.400
44870W        W 4373  20.755  15.141   2.233
44871W        W 4374   7.850  13.181  14.937
44872W        W 4375  13.276   9.815   4.342
44873W        W 4376  29.479  16.616  11.107
44874W        W 4377   2.952  18.212   0.384
44875W        W 4378  20.733  17.649  11.529
44876W        W 4379  12.279  31.437  13.447
44877W        W 4380  13.224  28.040   3.678
44878W        W 4381  34.061  37.029   0.888
44879W        W 4382  15.586   2.813   4.300
44880W        W 4383  42.358  18.223   0.841
44881W        W 4384  11.320   4.398  14.361
44882W        W 4385  28.615  20.119  13.886
44883W        W 4386  13.154   3.399   1.877
44884W        W 4387  30.964   4.378  12.517
44885W        W 4388  43.915  17.757  14.974
44886W        W 4389  36.943  12.710   4.787
44887W        W 4390   5.785  43.404   3.277
44888W        W 4391  12.360  41.479  11.044
44889W        W 4392   3.794  24.203  14.451
44890W        W 4393  25.072  41.842   2.685
44891W        W 4394   4.851  13.332   3.217
44892W        W 4395  40.945  32.578  12.907
44893W        W 4396  39.551  16.677   4.839
44894W        W 4397  26.957  14.247   1.236
44895W        W 4398  11.641  29.630   4.164
44896W        W 4399  42.447  14.310  13.415
44897W        W 4400  16.243  17.561   4.781
44898W        W 4401  14.794  31.153  12.920
44899W        W 4402  15.307  35.075   0.339
44900W        W 4403  29.652  41.426  12.050
44901W        W 4404   3.453   1.436   0.301
44902W        W 4405   1.272  40.410   1.434
44903W        W 4406  17.093  38.966  13.475
44904W        W 4407  23.497  39.427   1.729
44905W        W 4408   5.308  12.825   4.708
44906W        W 4409  18.738  22.512  10.977
44907W        W 4410  11.745  27.627  12.493
44908W        W 4411  34.110  15.161  13.920
44909W        W 4412  43.433   1.245  11.033
44910W        W 4413  41.972  26.995  10.921
44911W        W 4414  16.617  23.105   3.731
44912W        W 4415  30.494  31.596   3.335
44913W        W 4416  40.894  33.057  11.945
44914W        W 4417  14.732  15.294  12.053
44915W        W 4418  34.561  11.229   2.764
44916W        W 4419   4.788  18.712   1.868
44917W        W 4420  11.681  43.291   0.817
44918W        W 4421  44.858  42.992  14.759
44919W        W 4422  18.604  26.565   5.238
44920W        W 4423  17.200   7.318   2.665
44921W        W 4424   2.328  36.429  12.054
44922W        W 4425  32.995  11.735   0.812
44923W        W 4426  38.932   2.420   3.208
44924W        W 4427  22.038  23.726   2.346
44925W        W 4428  34.896  20.138   3.823
44926W        W 4429  38.349  42.893  10.626
44927W        W 4430  22.553  39.976   3.296
44928W        W 4431   5.421  14.697  12.402
44929W        W 4432  26.119   1.346   2.670
44930W        W 4433  10.873  31.922  10.889
44931W        W 4434  11.655   2.799  12.957
44932W        W 4435  13.665   1.404   2.760
44933W        W 4436  36.988  26.189  13.495
44934W        W 4437  30.089   9.215   4.342
44935W        W 4438  24.081  31.945   2.322
44936W        W 4439   5.380   6.232   1.343
44937W        W 4440  28.034   6.273  11.487
44938W        W 4441  25.684   5.277  11.577
44939W        W 4442   5.289  38.962   3.777
44940W        W 4443  10.265  34.093  10.427
44941W        W 4444  26.575  13.832   1.714
44942W        W 4445   6.303  27.999  14.466
44943W        W 4446  24.138  10.152   2.788
44944W        W 4447  31.135  36.049   2.728
44945W        W 4448  38.857   0.829  14.306
44946W        W 4449  30.001  23.143  14.809
44947W        W 4450  36.097  16.158   4.654
44948W        W 4451  17.156  14.730  10.638
44949W        W 4452  37.514  40.884  10.469
44950W        W 4453  23.109  25.467  12.905
44951W        W 4454  27.563  33.446   2.318
44952W        W 4455  32.492  12.341  12.854
44953W        W 4456  39.373  16.121  12.897
44954W        W 4457  38.411  28.544  10.438
44955W        W 4458   1.459  26.026   2.700
44956W        W 4459   0.279  18.662  12.551
44957W        W 4460  23.234   2.817  11.944
44958W        W 4461  12.749  24.644  13.348
44959W        W 4462  27.967   6.276   3.350
44960W        W 4463  16.799  19.678   4.140
44961W        W 4464  38.386   7.850  12.011
44962W        W 4465  36.858  23.734   4.701
44963W        W 4466  43.787  26.475   4.822
44964W        W 4467  13.290  35.528   3.323
44965W        W 4468   3.826  21.685  14.909
44966W        W 4469  34.942  19.624  14.020
44967W        W 4470   0.965  29.027   1.419
44968W        W 4471  23.678   7.392   2.369
44969W        W 4472  44.937   9.345   4.320
44970W        W 4473  33.002  18.080  14.830
44971W        W 4474   0.937   0.253   3.689
44972W        W 4475   0.406  41.795  12.018
44973W        W 4476  18.105  35.543   2.827
44974W        W 4477  38.965  42.845  11.000
44975W        W 4478  24.557  19.183   2.736
44976W        W 4479   2.232  20.628   2.895
44977W        W 4480  15.101  15.235   0.762
44978W        W 4481  17.704  34.419   3.831
44979W        W 4482   4.303  16.804  11.038
44980W        W 4483  29.506  30.532  12.407
44981W        W 4484  26.022  24.500   2.886
44982W        W 4485  34.455   9.746  13.982
44983W        W 4486  32.917  16.200  11.076
44984W        W 4487   7.223  13.143   3.333
44985W        W 4488   0.755  42.288   9.448
44986W        W 4489   7.747   6.712   2.365
44987W        W 4490  11.777  29.017  12.951
44988W        W 4491   8.840   1.357  10.483
44989W        W 4492  17.750  22.739   1.432
44990W        W 4493  24.989  17.137   5.200
44991W        W 4494  29.966  31.987  10.446
44992W        W 4495  33.094  42.503  13.454
44993W        W 4496  27.610   5.230  11.513
44994W        W 4497  19.717  28.028   1.778
44995W        W 4498  44.332   2.777   1.747
44996W        W 4499   3.358  39.964   1.224
44997W        W 4500  37.983  29.035   0.893
44998W        W 4501  43.419   7.201   9.518
44999W        W 4502  18.235   2.811   3.838
45000W        W 4503   0.858  38.336   2.217
45001W        W 4504  24.119  20.064   0.865
45002W        W 4505   2.246   7.391  12.056
45003W        W 4506  38.505  12.629   3.706
45004W        W 4507  30.526  33.904   1.333
45005W        W 4508  32.397  40.418   2.399
45006W        W 4509  27.974  38.524  14.910
45007W        W 4510  39.332  15.722  11.079
45008W        W 4511  21.733  19.199  13.840
45009W        W 4512  21.703  37.517   4.736
45010W        W 4513  12.749  42.970   2.696
45011W        W 4514  17.681  14.778   1.264
45012W        W 4515  11.755  41.348   2.797
45013W        W 4516  44.328   7.355  14.467
45014W        W 4517  41.412  21.529   1.933
45015W        W 4518  20.236   2.929  12.876
45016W        W 4519  41.536  19.685   2.675
45017W        W 4520  14.641  14.652  10.893
45018W        W 4521  32.905  28.559   0.377
45019W        W 4522  19.682   7.706  10.444
45020W        W 4523  26.194  22.141  14.865
45021W        W 4524   5.355  36.913  11.050
45022W        W 4525  43.501  16.160  10.596
45023W        W 4526  16.301  23.139   2.713
45024W        W 4527   2.397  34.014  13.337
45025W        W 4528  11.768   4.349   2.214
45026W        W 4529   0.757  31.422  11.403
45027W        W 4530  25.569  33.495   1.768
45028W        W 4531  11.299   9.213  13.456
45029W        W 4532  11.841  43.850   2.662
45030W        W 4533   6.275  31.534  12.088
45031W        W 4534  24.542  30.916  11.058
45032W        W 4535  43.323  18.555  12.573
45033W        W 4536  31.144   0.255   1.884
45034W        W 4537  10.355  17.263   0.353
45035W        W 4538  23.986   9.305  13.934
45036W        W 4539  14.265   0.381  12.484
45037W        W 4540  42.448  30.000  13.467
45038W        W 4541  22.186  43.928   0.336
45039W        W 4542  34.913  20.258  14.440
45040W        W 4543   7.700  19.212  13.986
45041W        W 4544  11.301  36.047   0.444
45042W        W 4545   3.786  11.351   2.181
45043W        W 4546   6.710  29.988   3.737
45044W        W 4547  11.702  25.968   0.927
45045W        W 4548  37.067  15.208  12.532
45046W        W 4549  23.552  43.846   1.234
45047W        W 4550  33.983  39.362  10.041
45048W        W 4551  13.681   1.359  13.373
45049W        W 4552  23.144   4.213   3.862
45050W        W 4553  10.711  14.708   2.373
45051W        W 4554  41.296   1.764  14.338
45052W        W 4555  42.434   3.887   3.363
45053W        W 4556  16.248  19.604  14.478
45054W        W 4557  14.695  21.191  12.379
45055W        W 4558  34.052  29.631   1.888
45056W        W 4559  19.591  34.596   0.461
45057W        W 4560  27.607   1.389  14.447
45058W        W 4561  32.950  18.106  11.548
45059W        W 4562  23.239  24.506   3.848
45060W        W 4563  26.106   3.720   0.779
45061W        W 4564  37.856   4.751  12.421
45062W        W 4565  18.614   8.707   5.186
45063W        W 4566  22.026  28.946  11.080
45064W        W 4567  37.539  15.206   0.450
45065W        W 4568  29.095  26.157  14.955
45066W        W 4569  20.549  40.306  10.548
45067W        W 4570   4.741   9.279   0.856
45068W        W 4571  27.080  34.059  10.570
45069W        W 4572   3.782  29.510  10.642
45070W        W 4573  23.021  35.496   2.241
45071W        W 4574   3.332  35.934  12.831
45072W        W 4575  42.954  40.443   3.178
45073W        W 4576  36.518  31.048   3.655
45074W        W 4577  24.005  19.661   3.690
45075W        W 4578  25.710  42.302   1.213
45076W        W 4579  40.807  34.560   4.709
45077W        W 4580  21.147  11.344  12.985
45078W        W 4581  20.564  12.343   1.312
45079W        W 4582  19.775  19.763  13.044
45080W        W 4583  27.670  38.864  12.957
45081W        W 4584  34.586  38.037  10.034
45082W        W 4585  14.728   1.353  13.010
45083W        W 4586  34.546  44.291  11.611
45084W        W 4587  41.324  38.824  11.928
45085W        W 4588  37.452  35.926   2.286
45086W        W 4589  31.035   2.392   3.250
45087W        W 4590  20.609  32.492  10.459
45088W        W 4591  22.075  42.015   4.618
45089W        W 4592  42.484  29.538  11.373
45090W        W 4593   4.940  41.464  14.914
45091W        W 4594  13.813  20.537   1.710
45092W        W 4595  21.623   8.168  11.489
45093W        W 4596  43.005   5.897   2.759
45094W        W 4597  11.204  32.561   1.706
45095W        W 4598   6.722  26.607   3.182
45096W        W 4599  23.227  13.226  14.942
45097W        W 4600   3.295  29.487   1.899
45098W        W 4601  39.940  41.465   4.227
45099W        W 4602  31.961  16.659  13.857
45100W        W 4603  31.441  33.560   3.831
45101W        W 4604  24.482  13.272   2.394
45102W        W 4605  20.259   5.329  11.469
45103W        W 4606   8.385   4.379   2.664
45104W        W 4607  25.483  34.455   4.184
45105W        W 4608   7.356   8.880   2.757
45106W        W 4609  15.787  34.584  13.906
45107W        W 4610  34.594  31.452   1.259
45108W        W 4611  16.713  18.228  11.384
45109W        W 4612  32.520  11.333  11.407
45110W        W 4613   8.718  20.260   0.873
45111W        W 4614  20.103  20.128  13.369
45112W        W 4615  22.094  22.618   0.939
45113W        W 4616   5.327  44.312  13.878
45114W        W 4617  19.586  24.195   1.408
45115W        W 4618  39.897  13.276  14.852
45116W        W 4619  20.115   1.856   1.307
45117W        W 4620  31.046  36.500   0.297
45118W        W 4621  35.081  23.008  14.847
45119W        W 4622  18.165  29.438  13.922
45120W        W 4623   6.392  38.410  12.529
45121W        W 4624  28.059  33.127  12.963
45122W        W 4625  29.485  24.695   0.409
45123W        W 4626  26.967  41.310   3.271
45124W        W 4627  11.284  13.723   1.758
45125W        W 4628  25.641  25.545   4.812
45126W        W 4629   6.893  28.677  12.576
45127W        W 4630  16.719  11.340   4.797
45128W        W 4631  10.217  22.738  11.890
45129W        W 4632  34.950  13.787   4.263
45130W        W 4633  40.974  17.761   4.169
45131W        W 4634   1.790  26.060  13.464
45132W        W 4635  31.596   6.310  13.364
45133W        W 4636  27.159  28.501   5.601
45134W        W 4637  16.303  29.518  11.550
45135W        W 4638  40.373  41.948  11.967
45136W        W 4639  29.103  21.030   2.292
45137W        W 4640   4.433  26.505   4.262
45138W        W 4641  43.872  28.605   4.340
45139W        W 4642  43.802   5.896   1.832
45140W        W 4643   4.247  35.386  14.782
45141W        W 4644   8.296   0.914  12.433
45142W        W 4645  13.729  38.464  11.873
45143W        W 4646  38.872  21.566   0.427
45144W        W 4647   8.856  32.013  10.528
45145W        W 4648  33.091   5.377   1.409
45146W        W 4649   6.416  43.471   4.818
45147W        W 4650  13.690  36.988   0.844
45148W        W 4651   1.839   9.879  11.480
45149W        W 4652  37.350  43.926  12.828
45150W        W 4653  35.407  25.496   2.179
45151W        W 4654  44.267   8.705  10.030
45152W        W 4655   0.488   4.741   3.719
45153W        W 4656  40.547  28.158   2.369
45154W        W 4657  13.136  22.127  14.863
45155W        W 4658  33.001  44.771  11.546
45156W        W 4659  31.445  39.328   2.303
45157W        W 4660  37.837  19.744   3.811
45158W        W 4661  32.133  38.368   5.257
45159W        W 4662  27.641  23.117   0.785
45160W        W 4663  37.464  26.208   0.274
45161W        W 4664   5.282  25.969   1.442
45162W        W 4665   5.322  40.993   2.247
45163W        W 4666  44.335  27.458   2.666
45164W        W 4667  33.538  30.981  12.094
45165W        W 4668   7.866  42.298  12.849
45166W        W 4669  17.291  42.298   2.401
45167W        W 4670  27.149  33.948   2.719
45168W        W 4671  24.222  41.839   2.205
45169W        W 4672   6.751  17.284   3.692
45170W        W 4673  14.624  10.805   4.323
45171W        W 4674  26.692  27.043  13.937
45172W        W 4675  12.712  10.679   4.790
45173W        W 4676  43.341  40.804  11.385
45174W        W 4677  23.057  28.047   4.355
45175W        W 4678  28.449  11.702  11.585
45176W        W 4679  33.938  23.066   1.415
45177W        W 4680  12.259   4.781  10.072
45178W        W 4681  35.051   7.266  10.922
45179W        W 4682  36.016  44.011   3.234
45180W        W 4683  42.333  43.443   2.276
45181W        W 4684  16.221  29.553   0.890
45182W        W 4685  17.659  11.338   3.362
45183W        W 4686  29.577  43.812  10.444
45184W        W 4687  23.063  16.681   2.889
45185W        W 4688  12.795   0.352  10.582
45186W        W 4689  44.320  16.738   4.137
45187W        W 4690  17.775  10.315  14.310
45188W        W 4691  10.755  22.588   2.898
45189W        W 4692  16.682  13.200   4.707
45190W        W 4693  34.480  35.381  13.867
45191W        W 4694   5.239  44.473   1.337
45192W        W 4695  11.151  11.194   2.700
45193W        W 4696  44.366  37.582   2.394
45194W        W 4697  41.974  25.690   2.388
45195W        W 4698  15.749  13.830   3.655
45196W        W 4699  32.527  20.160   3.649
45197W        W 4700  44.482   6.316  13.405
45198W        W 4701  44.344  23.005  12.032
45199W        W 4702  25.078  41.916   3.372
45200W        W 4703   5.749   1.401   4.281
45201W        W 4704  30.150   2.928   1.400
45202W        W 4705  13.274  31.143  12.394
45203W        W 4706  40.958  35.003  10.990
45204W        W 4707  24.499  41.415   3.765
45205W        W 4708  35.090  29.100  13.514
45206W        W 4709  16.655  32.116  11.584
45207W        W 4710  23.662  39.034   4.626
45208W        W 4711  25.620   7.247   3.331
45209W        W 4712  27.076   1.461   4.214
45210W        W 4713  32.405   6.870  10.574
45211W        W 4714   7.857   5.210  13.809
45212W        W 4715  21.548  34.033   0.733
45213W        W 4716  42.430  16.583   2.847
45214W        W 4717   8.320  38.515  11.081
45215W        W 4718   2.294  25.646   1.407
45216W        W 4719  19.627  20.057  13.452
45217W        W 4720  14.774  41.475  12.897
45218W        W 4721  19.552  40.050  13.796
45219W        W 4722   2.320   4.789  10.460
45220W        W 4723   4.395  25.999  11.380
45221W        W 4724   7.337   1.878   3.657
45222W        W 4725  29.549  38.888  12.021
45223W        W 4726  10.309  36.410   0.455
45224W        W 4727   9.785  11.290  14.976
45225W        W 4728  13.203  22.590  12.886
45226W        W 4729   7.280  38.538  13.426
45227W        W 4730   4.911  34.085   2.416
45228W        W 4731  14.692  29.629  13.945
45229W        W 4732  25.168  22.722   4.813
45230W        W 4733  12.833  17.726   2.821
45231W        W 4734  10.764  30.474   2.343
45232W        W 4735   7.237  11.796   4.262
45233W        W 4736  14.329  21.559  12.035
45234W        W 4737   6.913   9.321  11.540
45235W        W 4738  17.144  39.353  13.329
45236W        W 4739  17.165  16.691  13.045
45237W        W 4740  33.947   5.912   2.319
45238W        W 4741  16.227  32.519  14.924
45239W        W 4742  33.476  25.590   0.799
45240W        W 4743   8.765  27.111   4.776
45241W        W 4744  10.723  13.239   2.663
45242W        W 4745  33.518  15.590  12.503
45243W        W 4746  10.651  39.918   2.832
45244W        W 4747  11.191  26.691   2.697
45245W        W 4748  42.475  23.022  10.457
45246W        W 4749   7.176  22.072   1.790
45247W        W 4750  14.671  11.735   2.398
45248W        W 4751  31.584  38.410   1.234
45249W        W 4752   2.410  13.207   2.704
45250W        W 4753  19.265  13.824   2.372
45251W        W 4754  38.340  34.883   4.246
45252W        W 4755  20.186   6.838  11.424
45253W        W 4756  24.592   7.726  11.587
45254W        W 4757  27.009  35.969  11.401
45255W        W 4758   4.448   1.359  11.877
45256W        W 4759  44.491  23.198   4.650
45257W        W 4760  33.901   2.418  11.128
45258W        W 4761  16.188  14.107  11.044
45259W        W 4762  14.724   1.467  13.992
45260W        W 4763  31.405  36.851   1.317
45261W        W 4764   0.478  19.041  12.954
45262W        W 4765  42.374  10.303   0.474
45263W        W 4766   8.214   3.768  13.852
45264W        W 4767  32.070  27.460  12.991
45265W        W 4768   1.333  34.924  13.804
45266W        W 4769   4.889  36.860   3.359
45267W        W 4770  18.605  31.646   3.799
45268W        W 4771  16.699   2.929  12.460
45269W        W 4772  17.168  12.780  13.465
45270W        W 4773   3.847  38.515  13.917
45271W        W 4774  20.048  21.728  11.955
45272W        W 4775   8.704  35.439   0.435
45273W        W 4776  16.774  16.236  11.592
45274W        W 4777  28.109  21.169  12.995
45275W        W 4778  11.245  43.017  14.331
45276W        W 4779  39.345   6.696  13.428
45277W        W 4780  10.361  16.653   2.843
45278W        W 4781   1.948   3.908  14.473
45279W        W 4782  10.337  41.029  14.882
45280W        W 4783  29.121  34.400   1.229
45281W        W 4784  28.161  38.489  12.046
45282W        W 4785  27.570  30.498   0.317
45283W        W 4786   0.477  38.494  10.908
45284W        W 4787   1.429  17.191  13.991
45285W        W 4788  12.855  28.564   3.766
45286W        W 4789  12.780   6.789  11.091
45287W        W 4790  35.928  10.770  13.525
45288W        W 4791  34.405  12.199   0.391
45289W        W 4792   4.893  34.393   4.609
45290W        W 4793  20.760  36.057  14.385
45291W        W 4794   7.395   6.822   4.606
45292W        W 4795  22.642  38.462  11.115
45293W        W 4796  40.985  44.827   1.344
45294W        W 4797  36.500   2.820  10.935
45295W        W 4798  40.412  28.162  11.502
45296W        W 4799   4.329  35.403   4.116
45297W        W 4800   1.317  25.693   5.142
45298W        W 4801   1.892  11.352   1.271
45299W        W 4802  24.098  44.463  14.359
45300W        W 4803  25.530   3.313  14.771
45301W        W 4804  28.998   3.815   1.220
45302W        W 4805  40.415  42.925  11.411
45303W        W 4806  12.131  41.801  12.047
45304W        W 4807  44.886   2.294   1.272
45305W        W 4808   2.805   0.763   2.665
45306W        W 4809  13.328  42.850   1.770
45307W        W 4810  28.625  39.884  14.982
45308W        W 4811  23.093  12.315   3.285
45309W        W 4812  13.747  16.786   4.682
45310W        W 4813   9.645  38.487  14.896
45311W        W 4814   0.447  38.837  12.846
45312W        W 4815  29.635  21.690   3.698
45313W        W 4816  40.384  28.092   4.748
45314W        W 4817  36.503   7.888  13.352
45315W        W 4818  21.548   6.859  12.383
45316W        W 4819   3.955  27.447  12.340
45317W        W 4820  22.648  22.503   3.654
45318W        W 4821  43.934  24.134   4.752
45319W        W 4822  24.513  36.892   1.320
45320W        W 4823  22.546   6.741  14.999
45321W        W 4824  39.534  40.425   0.866
45322W        W 4825  17.675  24.496  11.430
45323W        W 4826  11.177  43.879   4.625
45324W        W 4827  43.796   7.716  11.901
45325W        W 4828  12.657  43.505  12.892
45326W        W 4829  18.661  42.858  10.581
45327W        W 4830  13.237  26.071   0.967
45328W        W 4831   0.978  11.208   1.419
45329W        W 4832  13.177   7.351   2.852
45330W        W 4833  23.621  12.273  14.878
45331W        W 4834  19.168  35.059   3.287
45332W        W 4835  36.482  24.582  13.397
45333W        W 4836  34.375  27.626   0.891
45334W        W 4837  17.693  22.035  11.992
45335W        W 4838   1.914   5.771   3.281
45336W        W 4839  25.573  29.049   2.335
45337W        W 4840  28.657   9.359  11.493
45338W        W 4841  11.348  22.222   0.380
45339W        W 4842   2.371  13.157   1.250
45340W        W 4843  42.027  15.731   3.172
45341W        W 4844  33.891  22.095  11.506
45342W        W 4845  22.999  10.867   1.757
45343W        W 4846  25.054  21.679  13.505
45344W        W 4847  44.339  33.912   4.687
45345W        W 4848  33.535   6.376  14.911
45346W        W 4849  39.923  34.371   1.374
45347W        W 4850  17.108  39.880  13.382
45348W        W 4851  19.746  15.229   3.273
45349W        W 4852  14.702   2.937   2.183
45350W        W 4853   3.856   4.809  10.604
45351W        W 4854  26.488  44.496  14.768
45352W        W 4855  16.609  38.454  10.998
45353W        W 4856  42.900  12.256  13.482
45354W        W 4857   9.752  44.772  12.007
45355W        W 4858  10.233   9.258   4.213
45356W        W 4859  10.171  39.540   0.261
45357W        W 4860  13.813  13.633   2.292
45358W        W 4861  38.864  11.130   4.601
45359W        W 4862  27.539  35.438   1.891
45360W        W 4863  42.916  11.630   0.901
45361W        W 4864  35.972  25.498   2.356
45362W        W 4865  32.899  39.395  11.541
45363W        W 4866  22.204   2.857   4.825
45364W        W 4867   9.316  12.235  10.445
45365W        W 4868  20.209   9.667   0.256
45366W        W 4869  16.737  24.675   2.308
45367W        W 4870  23.651  16.630   1.376
45368W        W 4871   7.381  13.151   5.097
45369W        W 4872  16.569  16.122   1.424
45370W        W 4873  42.400  21.240  14.953
45371W        W 4874  10.358  27.946   1.856
45372W        W 4875  11.797  35.072   4.141
45373W        W 4876   9.655  14.218  12.456
45374W        W 4877  30.999  32.507  12.864
45375W        W 4878   9.808   1.290   1.798
45376W        W 4879  32.032  11.690  11.569
45377W        W 4880  27.069  37.884   3.153
45378W        W 4881  10.794  23.532  13.936
45379W        W 4882  43.498  40.344  13.862
45380W        W 4883  38.431  29.984  10.967
45381W        W 4884  41.405  34.098  14.784
45382W        W 4885   2.782  11.307  13.367
45383W        W 4886  16.598  15.252  14.447
45384W        W 4887  19.272   2.904  12.443
45385W        W 4888  28.630   7.355  11.105
45386W        W 4889  34.510  20.037  13.433
45387W        W 4890   6.711  25.589  13.837
45388W        W 4891  38.491  29.995   4.791
45389W        W 4892   4.222  34.493  11.860
45390W        W 4893  40.380  34.377  13.372
45391W        W 4894  25.114  21.216   4.116
45392W        W 4895   0.410  33.558   1.880
45393W        W 4896   6.367  16.640   2.348
45394W        W 4897  18.575  15.213  13.833
45395W        W 4898  24.636  23.635   3.758
45396W        W 4899  32.129  32.031   0.461
45397W        W 4900  27.622   7.398   2.747
45398W        W 4901  43.953   9.701   2.699
45399W        W 4902  30.484  39.023  11.017
45400W        W 4903  12.773  41.382  10.405
45401W        W 4904  29.045  41.352  13.535
45402W        W 4905  35.965  13.193   3.807
45403W        W 4906   4.439  17.180   2.709
45404W        W 4907  15.590  44.433  14.910
45405W        W 4908  29.631  22.058   4.196
45406W        W 4909  21.152  13.640   3.707
45407W        W 4910  37.517  31.606  14.882
45408W        W 4911  41.913  31.416   4.809
45409W        W 4912  22.502  12.776   0.471
45410W        W 4913   0.372  41.373   5.168
45411W        W 4914   8.170   5.241  12.986
45412W        W 4915  36.955   9.353   0.811
45413W        W 4916  40.547  25.127  11.372
45414W        W 4917  23.111  28.546   1.742
45415W        W 4918   8.891  34.491  10.145
45416W        W 4919   7.822   3.292   4.604
45417W        W 4920  35.534  30.426   3.654
45418W        W 4921  27.549  42.385  12.874
45419W        W 4922   0.427  39.917   2.870
45420W        W 4923   9.221  16.110  12.372
45421W        W 4924  29.976  41.931  12.452
45422W        W 4925  12.135   9.791  13.541
45423W        W 4926  42.958  15.264  13.909
45424W        W 4927  37.382  40.505  13.382
45425W        W 4928  27.629  25.195  10.625
45426W        W 4929  33.557  20.061  10.049
45427W        W 4930  25.564  18.060  12.014
45428W        W 4931   6.288  41.843  14.938
45429W        W 4932   6.759  11.825  11.076
45430W        W 4933   1.263  26.691  13.884
45431W        W 4934  21.653  39.412  14.336
45432W        W 4935  15.705   8.668   1.397
45433W        W 4936   6.798  19.640  14.277
45434W        W 4937  25.155  27.995  12.965
45435W        W 4938  24.111   5.304   2.395
45436W        W 4939  23.690  21.569   0.398
45437W        W 4940   1.386  18.628  10.942
45438W        W 4941  43.401  20.551   0.321
45439W        W 4942  40.854  33.527   3.728
45440W        W 4943  15.728   4.783   3.257
45441W        W 4944  30.091  41.413  12.495
45442W        W 4945  29.965  40.349  13.044
45443W        W 4946  33.484  37.475  11.497
45444W        W 4947  19.117  21.072  12.851
45445W        W 4948  31.128  28.949  11.402
45446W        W 4949  27.585  44.448   4.603
45447W        W 4950  36.093  15.152   4.144
45448W        W 4951  28.041  23.044  11.486
45449W        W 4952  29.930  10.372  10.935
45450W        W 4953  22.998  16.254  12.845
45451W        W 4954   5.416  39.938   0.734
45452W        W 4955  39.024   1.811   0.807
45453W        W 4956  33.579  28.012  12.455
45454W        W 4957   6.901  22.661   2.755
45455W        W 4958  20.116  43.879  14.402
45456W        W 4959   8.168   6.382   1.213
45457W        W 4960  10.829  23.161  11.407
45458W        W 4961  36.866  30.564   2.198
45459W        W 4962  44.371  30.581   1.750
45460W        W 4963  35.089  23.067   3.266
45461W        W 4964  21.730  44.461  13.993
45462W        W 4965  28.639  42.819  12.887
45463W        W 4966  29.039   1.854  13.504
45464W        W 4967   6.809   6.752  13.975
45465W        W 4968  31.575  22.061   2.774
45466W        W 4969  15.746   0.397  14.340
45467W        W 4970  10.674   6.842   4.178
45468W        W 4971  14.138  20.559  14.777
45469W        W 4972  37.534   6.342  14.284
45470W        W 4973  28.573  16.784   2.898
45471W        W 4974  25.547  40.503  12.022
45472W        W 4975  39.054   3.458  13.871
45473W        W 4976  35.361  19.179   4.338
45474W        W 4977  34.591  39.809  13.880
45475W        W 4978  38.331  42.505  11.866
45476W        W 4979   7.883  11.236   2.688
45477W        W 4980  11.189  10.300   1.739
45478W        W 4981  36.433  22.625   2.705
45479W        W 4982  41.995  11.653   2.392
45480W        W 4983   3.809   8.697   3.753
45481W        W 4984  34.892   9.186   0.737
45482W        W 4985  16.146   6.291   2.179
45483W        W 4986  38.356   7.374   3.155
45484W        W 4987   7.750   6.420   0.273
45485W        W 4988  25.088   6.358   3.266
45486W        W 4989  21.716  20.120   3.213
45487W        W 4990  19.542  40.528  11.394
45488W        W 4991  44.892   7.408  12.080
45489W        W 4992  25.477  13.136  12.409
45490W        W 4993  19.700  30.110   1.730
45491W        W 4994  42.348   8.875  14.907
45492W        W 4995  27.152  41.842  10.619
45493W        W 4996  14.230  25.133  13.437
45494W        W 4997  10.751  20.093   3.203
45495W        W 4998  24.123  19.173   2.267
45496W        W 4999  14.652  39.524   3.812
45497W        W 5000  14.833  33.573  12.432
45498W        W 5001  34.369  25.208  13.396
45499W        W 5002  18.704  16.113  10.536
45500W        W 5003  21.169  24.064   1.833
45501W        W 5004  13.736  27.649   2.208
45502W        W 5005   4.431   5.893   0.873
45503W        W 5006  33.424  18.237   1.875
45504W        W 5007  33.921  33.028  13.828
45505W        W 5008  17.673  25.090   4.306
45506W        W 5009   0.872  17.802   3.811
45507W        W 5010  30.054  35.433  11.014
45508W        W 5011  42.328  14.167   1.218
45509W        W 5012  44.263  15.810   2.233
45510W        W 5013  41.916  23.129  14.821
45511W        W 5014  36.591  37.013   2.298
45512W        W 5015  42.029  12.185   2.821
45513W        W 5016  22.699  39.887   4.645
45514W        W 5017   9.750   0.470  11.096
45515W        W 5018  37.902   2.862   4.158
45516W        W 5019   1.870  24.548   0.912
45517W        W 5020   0.329  25.122  13.001
45518W        W 5021   7.780  37.546   3.223
45519W        W 5022  14.340   7.301  12.407
45520W        W 5023  38.489  15.684  14.980
45521W        W 5024  33.003  22.051   1.267
45522W        W 5025  44.366  33.044   0.325
45523W        W 5026  12.226  12.723   2.321
45524W        W 5027  34.876   1.868  12.854
45525W        W 5028  18.722   5.419   2.902
45526W        W 5029  24.677  16.180   4.607
45527W        W 5030  15.328  12.817   4.215
45528W        W 5031   9.698  18.700   0.334
45529W        W 5032  29.659   6.861   3.688
45530W        W 5033   8.871  15.101  12.441
45531W        W 5034  16.278   0.988   2.726
45532W        W 5035  32.108  29.013   0.768
45533W        W 5036  30.567  42.946   2.417
45534W        W 5037  44.990  20.529  14.397
45535W        W 5038  41.944  40.029   1.221
45536W        W 5039   6.709  21.625  10.953
45537W        W 5040   2.352  30.643  11.952
45538W        W 5041   2.434  29.984   0.262
45539W        W 5042  18.082  21.166  11.071
45540W        W 5043  33.504  29.432  13.849
45541W        W 5044  40.995  34.438  13.825
45542W        W 5045  28.540  16.651   1.701
45543W        W 5046  33.565   5.340  14.807
45544W        W 5047  31.007  15.608   2.308
45545W        W 5048  18.573  35.961  10.062
45546W        W 5049  39.354  17.305  13.969
45547W        W 5050  30.512  37.480  14.995
45548W        W 5051  14.320  27.023  10.510
45549W        W 5052  14.781  33.566  10.039
45550W        W 5053  29.161  31.632  12.556
45551W        W 5054  36.976  22.535  12.358
45552W        W 5055  34.404  34.439  12.534
45553W        W 5056  43.395  36.886  13.336
45554W        W 5057  35.031   6.832  13.314
45555W        W 5058  15.300  10.295   0.738
45556W        W 5059  35.953  28.938   4.824
45557W        W 5060  28.162  27.106   2.838
45558W        W 5061  31.585   7.300  14.424
45559W        W 5062  36.353  18.275  10.426
45560W        W 5063   7.711  25.471   3.694
45561W        W 5064  12.299  30.016   3.146
45562W        W 5065  37.392  17.569  13.885
45563W        W 5066  37.948  39.531   2.297
45564W        W 5067   2.722  18.768  11.565
45565W        W 5068  28.612  22.632   1.417
45566W        W 5069  39.877  35.100  12.873
45567W        W 5070  44.848  34.949   1.255
45568W        W 5071  34.053  17.669  13.896
45569W        W 5072  37.577  42.342   3.371
45570W        W 5073   4.779  23.574  12.051
45571W        W 5074  43.802   7.241  10.985
45572W        W 5075  36.367   0.839   2.354
45573W        W 5076  16.629   2.328  11.425
45574W        W 5077  15.241  18.070   4.251
45575W        W 5078  30.491  21.199   2.393
45576W        W 5079  22.228  18.279   3.245
45577W        W 5080  26.502   8.397  10.453
45578W        W 5081   7.381   2.880  12.893
45579W        W 5082  42.301  31.086  13.989
45580W        W 5083  33.001  40.906  12.543
45581W        W 5084  33.017  29.592  11.558
45582W        W 5085  13.242  23.703   0.245
45583W        W 5086  27.510  32.043   4.776
45584W        W 5087  39.419  37.364   2.825
45585W        W 5088  22.059  42.417  13.058
45586W        W 5089  30.526  36.040  13.843
45587W        W 5090  11.817   6.756  11.889
45588W        W 5091   5.842  30.020   4.343
45589W        W 5092  27.074   5.919  11.046
45590W        W 5093  10.260  29.979   4.125
45591W        W 5094  35.932  18.274  11.487
45592W        W 5095  39.973  20.066  13.454
45593W        W 5096   9.150  23.090  10.535
45594W        W 5097  41.320  34.028  10.440
45595W        W 5098  44.289   6.881  11.442
45596W        W 5099  35.496   7.268  10.422
45597W        W 5100  28.088   3.763  10.933
45598W        W 5101   0.781   2.790  11.860
45599W        W 5102  35.882   9.799   1.749
45600W        W 5103  15.288  42.519  13.423
45601W        W 5104   9.174  15.651  14.006
45602W        W 5105  38.465  16.205   4.243
45603W        W 5106  15.176   4.701  12.905
45604W        W 5107  33.040  26.521   3.152
45605W        W 5108  17.619   2.956  13.442
45606W        W 5109  21.036   6.882  12.838
45607W        W 5110  28.643   2.416  11.612
45608W        W 5111  30.640  31.569   1.750
45609W        W 5112  36.955  42.011  14.443
45610W        W 5113  38.371  42.523  14.432
45611W        W 5114  38.497  23.178  13.045
45612W        W 5115  21.614  29.567  11.036
45613W        W 5116  30.026  43.484  10.602
45614W        W 5117   0.461   6.689  10.581
45615W        W 5118   6.419  11.677  13.851
45616W        W 5119  34.589  31.052  13.326
45617W        W 5120  39.005  35.949  12.389
45618W        W 5121   6.214  26.541  12.071
45619W        W 5122  16.609   9.734  11.873
45620W        W 5123  16.187  30.939  10.601
45621W        W 5124  15.175   5.367  10.543
45622W        W 5125  31.593   6.765  12.905
45623W        W 5126  42.431  26.052   4.329
45624W        W 5127  22.019  35.940   4.817
45625W        W 5128  18.546  12.224  13.414
45626W        W 5129  20.659   8.816  14.958
45627W        W 5130  14.332  15.794   1.848
45628W        W 5131   9.796  12.626  10.919
45629W        W 5132  11.262  25.089  10.908
45630W        W 5133   3.865  22.076   4.229
45631W        W 5134  26.696  28.528   3.162
45632W        W 5135  33.998  44.767  11.606
45633W        W 5136  42.518   6.388  14.982
45634W        W 5137  37.342   2.814   1.334
45635W        W 5138   3.951   3.766   1.722
45636W        W 5139  10.177  22.213  12.852
45637W        W 5140  25.646   5.275   2.685
45638W        W 5141  19.659   9.775   1.727
45639W        W 5142  36.913  31.139   0.346
45640W        W 5143  10.788  10.856  10.642
45641W        W 5144  10.160  33.941  12.938
45642W        W 5145   2.914  44.290   1.320
45643W        W 5146  16.594  24.567  10.420
45644W        W 5147  16.271  42.902   0.461
45645W        W 5148  30.083  32.523   0.944
45646W        W 5149  33.073  21.670   3.691
45647W        W 5150   5.728   7.330   1.340
45648W        W 5151  20.747  39.424   2.832
45649W        W 5152  32.506  19.253  13.454
45650W        W 5153  30.146   4.760   2.216
45651W        W 5154  44.000   6.240  10.637
45652W        W 5155  13.835  41.796   3.342
45653W        W 5156   1.416  20.760  12.458
45654W        W 5157  18.789  13.724  13.326
45655W        W 5158   5.690  32.508  11.497
45656W        W 5159   7.238  35.072   2.872
45657W        W 5160   9.164  39.373  12.067
45658W        W 5161  23.227  22.633   2.676
45659W        W 5162  25.656  43.905  12.977
45660W        W 5163   8.322  23.121   1.423
45661W        W 5164  22.175  35.927   0.885
45662W        W 5165  35.438  41.913   3.308
45663W        W 5166  41.472  32.561  11.459
45664W        W 5167  14.617   5.432   0.908
45665W        W 5168  11.720   4.337  11.113
45666W        W 5169  12.694  20.613   1.408
45667W        W 5170  31.945  30.504  13.477
45668W        W 5171  30.040  40.435   3.650
45669W        W 5172  35.887  32.942  14.456
45670W        W 5173  16.167  42.784  11.992
45671W        W 5174  34.513   4.426   3.776
45672W        W 5175  41.882   3.292   0.351
45673W        W 5176  41.897  24.509   4.184
45674W        W 5177   3.836  31.108   0.890
45675W        W 5178  38.943  44.281  14.300
45676W        W 5179  39.882  39.848   1.884
45677W        W 5180  42.411   8.707   1.758
45678W        W 5181   3.819   8.860  11.502
45679W        W 5182  15.180  41.485  12.544
45680W        W 5183  30.537   2.732  14.327
45681W        W 5184  21.064  39.019  14.470
45682W        W 5185  34.886  26.197   3.341
45683W        W 5186  17.137  38.988  14.287
45684W        W 5187  40.442  12.744  10.075
45685W        W 5188  17.729  40.392   3.369
45686W        W 5189  36.372  38.877  11.122
45687W        W 5190  41.850  40.877  11.397
45688W        W 5191  11.149   4.913   0.859
45689W        W 5192  20.663  41.948  10.451
45690W        W 5193   1.396   5.693   4.718
45691W        W 5194   8.187  16.308   2.874
45692W        W 5195  29.500  21.699  14.425
45693W        W 5196  31.585  10.869   1.426
45694W        W 5197  21.552  20.731  14.783
45695W        W 5198   3.312  36.412  13.409
45696W        W 5199  36.869   0.285   0.339
45697W        W 5200   5.912   7.393   2.866
45698W        W 5201  22.065   2.882  13.378
45699W        W 5202  42.005  18.231  12.353
45700W        W 5203   3.290  36.429   0.246
45701W        W 5204  41.466  16.279   3.209
45702W        W 5205  36.591  13.770  13.425
45703W        W 5206  18.613   4.291   1.328
45704W        W 5207  22.017  22.225  12.535
45705W        W 5208  28.582  37.900   1.879
45706W        W 5209  23.678  13.721  14.497
45707W        W 5210  15.631  24.701   0.383
45708W        W 5211  23.734  15.321  11.088
45709W        W 5212  23.711  43.833   4.241
45710W        W 5213  36.897   9.778  11.372
45711W        W 5214  19.166  15.329  13.517
45712W        W 5215  28.533  43.422   3.342
45713W        W 5216  42.851  28.008   0.865
45714W        W 5217   3.925  10.659   0.344
45715W        W 5218  23.596   2.752  13.901
45716W        W 5219  29.143  30.013  11.424
45717W        W 5220   3.883   1.821  10.407
45718W        W 5221   4.811  35.042  14.003
45719W        W 5222  38.562  43.834   1.715
45720W        W 5223   6.853  16.584   4.176
45721W        W 5224  24.173  36.052  12.893
45722W        W 5225  17.297  20.695   0.290
45723W        W 5226  13.185  32.596  12.976
45724W        W 5227  19.623  27.651  11.433
45725W        W 5228  38.493   9.792  12.424
45726W        W 5229  43.013   8.233  14.782
45727W        W 5230  18.667   7.299   4.117
45728W        W 5231  27.160   5.343  11.589
45729W        W 5232   0.915  10.878  12.884
45730W        W 5233  23.089  35.017   4.265
45731W        W 5234  43.508  17.240   9.981
45732W        W 5235  37.497  41.887  14.480
45733W        W 5236  33.073  24.098   4.734
45734W        W 5237  29.659  25.496   0.880
45735W        W 5238  15.613  36.490   0.410
45736W        W 5239  34.444  13.265  12.855
45737W        W 5240   5.361  10.186   0.768
45738W        W 5241  33.424   0.413  10.057
45739W        W 5242  17.569  20.546   0.407
45740W        W 5243  38.425  25.673   4.192
45741W        W 5244  18.144  16.088   3.823
45742W        W 5245  15.126  36.025   4.827
45743W        W 5246   6.910  32.923   2.869
45744W        W 5247  43.981   1.350  14.312
45745W        W 5248   3.786   2.296   5.757
45746W        W 5249  11.310  16.700   3.230
45747W        W 5250  40.486  13.162   2.791
45748W        W 5251  31.490   4.784  14.965
45749W        W 5252  21.126  39.404  11.921
45750W        W 5253  31.136  33.489  14.479
45751W        W 5254  23.505  14.235  13.340
45752W        W 5255  42.022  30.066  10.933
45753W        W 5256  33.494  35.533  12.493
45754W        W 5257   2.301   3.287  12.418
45755W        W 5258  24.619   6.402   3.218
45756W        W 5259  37.961  20.582   2.385
45757W        W 5260  42.438   7.302   4.825
45758W        W 5261  39.919  38.548  12.415
45759W        W 5262  44.368  39.844   2.791
45760W        W 5263  22.690  19.637   0.472
45761W        W 5264  37.393   0.924  11.082
45762W        W 5265  37.555  38.429   1.718
45763W        W 5266  17.583  24.064  11.900
45764W        W 5267  21.614  36.386  14.347
45765W        W 5268  24.021  10.718  12.055
45766W        W 5269  22.611  29.525   3.769
45767W        W 5270  43.931  30.512  14.958
45768W        W 5271   4.343   6.315   2.266
45769W        W 5272   5.902  24.695   0.966
45770W        W 5273  36.588   3.781  13.356
45771W        W 5274   9.314  16.666   4.678
45772W        W 5275  37.924  43.990   4.153
45773W        W 5276  25.195   2.455   4.754
45774W        W 5277  12.796  36.489  14.321
45775W        W 5278  30.023   0.917  12.842
45776W        W 5279   1.306   6.298   3.260
45777W        W 5280  31.030  34.022   3.660
45778W        W 5281  19.136  25.216  10.921
45779W        W 5282  42.443  20.626  13.816
45780W        W 5283  21.514  18.562   0.267
45781W        W 5284  43.811  37.519   1.242
45782W        W 5285   3.275   7.811   2.402
45783W        W 5286  35.107  23.586   3.177
45784W        W 5287  16.102  23.181   1.734
45785W        W 5288  33.609   5.859   1.266
45786W        W 5289  43.785   4.867   4.599
45787W        W 5290  27.456  25.604   2.790
45788W        W 5291  37.890  44.496   2.183
45789W        W 5292  28.440  27.684   3.237
45790W        W 5293  22.231  39.489   0.762
45791W        W 5294   9.393  17.750  12.490
45792W        W 5295  43.455  40.925  13.515
45793W        W 5296   5.831  37.503   3.233
45794W        W 5297  17.726  21.573  14.979
45795W        W 5298   9.382  10.146   2.798
45796W        W 5299  33.042  34.117  11.069
45797W        W 5300  27.943   5.835  13.868
45798W        W 5301  28.132  12.193  11.902
45799W        W 5302   1.962  37.864  14.489
45800W        W 5303   2.353  24.049   9.585
45801W        W 5304  13.161  14.789   3.706
45802W        W 5305  22.537  20.098  13.327
45803W        W 5306  16.759  25.593  13.051
45804W        W 5307  19.647  33.904  10.632
45805W        W 5308  34.466  29.495  12.485
45806W        W 5309  15.320  12.765  11.861
45807W        W 5310   5.798   4.846   1.860
45808W        W 5311  42.857  42.374   1.425
45809W        W 5312  36.519  14.680  11.083
45810W        W 5313  26.175  36.850  12.566
45811W        W 5314  18.788  24.136  10.576
45812W        W 5315  37.917  36.478  11.555
45813W        W 5316  28.011  14.274   5.131
45814W        W 5317  14.709   2.753   1.217
45815W        W 5318  40.538   9.690  10.997
45816W        W 5319   1.461  41.305   3.336
45817W        W 5320  27.692  20.680  13.396
45818W        W 5321  14.795   8.259   0.447
45819W        W 5322  24.535  19.100  12.562
45820W        W 5323  27.169  44.410  14.763
45821W        W 5324   3.340  10.142  10.936
45822W        W 5325  12.784  27.509   4.690
45823W        W 5326   6.210  37.532   1.913
45824W        W 5327   7.906  39.868   3.354
45825W        W 5328  17.693  25.073  10.533
45826W        W 5329  29.954  26.620  13.829
45827W        W 5330  31.447  19.548  12.356
45828W        W 5331   3.745  15.796  11.444
45829W        W 5332  19.202  42.926   3.859
45830W        W 5333  41.792  25.676   4.126
45831W        W 5334  36.082  37.075  12.441
45832W        W 5335   0.471   0.898   4.309
45833W        W 5336  27.991  25.100  13.382
45834W        W 5337  19.560  39.012   3.637
45835W        W 5338  23.987  19.533   5.310
45836W        W 5339  34.582  34.599   2.882
45837W        W 5340  20.650  10.199   4.836
45838W        W 5341  38.471   3.887   5.696
45839W        W 5342  39.879   8.400   4.264
45840W        W 5343  41.459  37.003   4.166
45841W        W 5344  33.484  28.044   2.708
45842W        W 5345   3.876  19.108  13.331
45843W        W 5346   3.710  17.632   2.893
45844W        W 5347  19.569  36.953   0.885
45845W        W 5348  26.565  27.000   1.399
45846W        W 5349  26.088   9.285   2.667
45847W        W 5350  35.591  32.422   4.611
45848W        W 5351  24.163  41.526   0.281
45849W        W 5352  16.137  21.531   2.299
45850W        W 5353  15.586  20.096   3.326
45851W        W 5354  19.730  21.197   2.328
45852W        W 5355  33.594  11.703   3.259
45853W        W 5356   8.394  22.060   3.320
45854W        W 5357  21.258  20.182   0.298
45855W        W 5358  38.354   0.277   3.843
45856W        W 5359  44.809   4.736  14.472
45857W        W 5360  33.110  40.898   3.831
45858W        W 5361  25.680  43.401   1.840
45859W        W 5362  31.610  40.939   1.297
45860W        W 5363   0.382  38.050   1.413
45861W        W 5364   9.251  18.656  11.967
45862W        W 5365  35.882  33.496  11.975
45863W        W 5366  42.870   8.674   1.701
45864W        W 5367  22.039  31.418  14.887
45865W        W 5368   6.886  42.517  14.855
45866W        W 5369  22.633  43.386   2.703
45867W        W 5370  41.293  23.580  11.522
45868W        W 5371  19.055  32.914  10.505
45869W        W 5372  21.687   2.907  11.507
45870W        W 5373   3.443  42.489   0.841
45871W        W 5374  40.440  28.511  10.926
45872W        W 5375  14.730   4.751   1.730
45873W        W 5376  16.767  14.121  13.386
45874W        W 5377  24.627  18.597  14.970
45875W        W 5378  30.953  13.216   1.778
45876W        W 5379  31.137   0.452  13.434
45877W        W 5380  42.369  32.077  14.014
45878W        W 5381  30.651  16.617  11.440
45879W        W 5382  16.721  44.467   4.721
45880W        W 5383   8.306  11.798  13.030
45881W        W 5384  25.505  19.207   4.235
45882W        W 5385   1.343  34.415   3.327
45883W        W 5386   9.321  38.823  10.074
45884W        W 5387  26.532  24.527   0.467
45885W        W 5388   6.319  43.299   9.620
45886W        W 5389  11.132  32.042  13.832
45887W        W 5390  33.384   4.216   0.367
45888W        W 5391   8.307   3.878   3.368
45889W        W 5392   0.769  25.706   4.262
45890W        W 5393  24.086  30.487   4.772
45891W        W 5394  11.225   1.410   4.221
45892W        W 5395  28.133  13.252   5.619
45893W        W 5396  30.520  26.467   2.834
45894W        W 5397  31.952  38.981   3.847
45895W        W 5398   2.412  36.409   4.785
45896W        W 5399  26.014  23.100   4.768
45897W        W 5400  32.978   0.931   0.746
45898W        W 5401  33.025  23.495   0.891
45899W        W 5402  19.780   6.861  12.380
45900W        W 5403  10.215  32.404  13.440
45901W        W 5404   5.875   5.312   4.241
45902W        W 5405  26.112   2.928  11.905
45903W        W 5406   1.380  32.932   0.775
45904W        W 5407  12.226   2.381   2.688
45905W        W 5408  26.645  16.713   1.297
45906W        W 5409  39.892  31.070   3.183
45907W        W 5410   9.819   0.947  13.838
45908W        W 5411  25.035   5.692  13.358
45909W        W 5412  21.062  11.783   5.266
45910W        W 5413  37.439  32.478   0.901
45911W        W 5414   3.318  40.987   1.823
45912W        W 5415  24.694  30.057  12.373
45913W        W 5416  37.536  20.538  10.415
45914W        W 5417  15.137  28.450   1.702
45915W        W 5418   2.459  34.523  14.336
45916W        W 5419  15.285  16.189  12.439
45917W        W 5420  32.522  28.104   1.726
45918W        W 5421   0.473   4.769  11.913
45919W        W 5422  24.621  36.911  12.573
45920W        W 5423  17.792  25.666   3.827
45921W        W 5424  38.326  34.431   1.264
45922W        W 5425  17.184   1.734   5.283
45923W        W 5426  14.255  13.823   2.184
45924W        W 5427  43.879   5.251  13.508
45925W        W 5428  31.483  18.621   2.239
45926W        W 5429  44.939  42.432   2.857
45927W        W 5430   7.872   3.218   1.806
45928W        W 5431   7.909   8.874   0.764
45929W        W 5432  18.231   8.311   1.719
45930W        W 5433  13.839  14.709   3.866
45931W        W 5434  29.492  19.629   4.285
45932W        W 5435  37.965  27.637  10.514
45933W        W 5436  29.621  24.646   1.229
45934W        W 5437  36.533  15.120   1.707
45935W        W 5438   7.178  26.964  12.565
45936W        W 5439  25.078  11.162  12.017
45937W        W 5440  15.136  34.509   2.852
45938W        W 5441  44.755  17.220  11.944
45939W        W 5442  33.591  11.706   4.799
45940W        W 5443  44.361  10.248   1.252
45941W        W 5444   6.333  34.094  11.511
45942W        W 5445  22.120   6.339  12.565
45943W        W 5446  29.438  35.512  14.293
45944W        W 5447  13.309  27.153  13.369
45945W        W 5448  40.304  32.543  11.502
45946W        W 5449   7.178   7.842  11.015
45947W        W 5450   7.886   6.312  11.969
45948W        W 5451  24.625  17.590   3.181
45949W        W 5452  28.995  12.793  12.080
45950W        W 5453  40.418  24.621   0.902
45951W        W 5454  37.462  18.272   4.817
45952W        W 5455  35.417  13.255   3.184
45953W        W 5456  31.486  34.522   1.769
45954W        W 5457  35.537  21.597   1.861
45955W        W 5458  29.928  40.807   3.344
45956W        W 5459  37.457  25.176   4.802
45957W        W 5460  16.797   3.903  13.821
45958W        W 5461   1.741  31.463  11.938
45959W        W 5462  39.020  25.970  11.565
45960W        W 5463  22.024  36.521  10.959
45961W        W 5464  36.398  17.784  11.877
45962W        W 5465  21.030  21.570  10.475
45963W        W 5466  39.441  12.256  11.063
45964W        W 5467   7.814   8.351  14.289
45965W        W 5468  37.504   4.874   4.166
45966W        W 5469   3.419  37.482   1.821
45967W        W 5470  37.406  22.597   1.829
45968W        W 5471  12.718   8.221  11.427
45969W        W 5472   9.735  25.482  14.277
45970W        W 5473  40.897  29.506  14.459
45971W        W 5474  13.158  28.524  10.470
45972W        W 5475  42.981  28.548   3.758
45973W        W 5476  31.460  11.633  12.092
45974W        W 5477  34.463   5.248  11.894
45975W        W 5478  32.975   3.230   1.788
45976W        W 5479  31.044   5.826   3.373
45977W        W 5480  42.438  33.952  10.521
45978W        W 5481  32.525   9.347  13.315
45979W        W 5482  10.176  28.555  13.359
45980W        W 5483  35.924  39.544   3.197
45981W        W 5484  43.355  31.608  13.450
45982W        W 5485  30.510  20.220   2.723
45983W        W 5486  19.696  19.656  11.457
45984W        W 5487  42.310  16.076  13.389
45985W        W 5488   7.717  40.954   4.345
45986W        W 5489  25.588   1.884   2.342
45987W        W 5490  15.663  37.433   1.263
45988W        W 5491   0.284  29.503  11.378
45989W        W 5492   4.443  26.174   1.903
45990W        W 5493  18.553  13.150   2.700
45991W        W 5494  33.486  33.611   0.868
45992W        W 5495  36.882   6.785  11.519
45993W        W 5496  26.597   4.853   2.678
45994W        W 5497  44.810  20.099   2.891
45995W        W 5498   1.310   8.726   2.662
45996W        W 5499  38.331  41.830   3.731
45997W        W 5500   9.255  34.041  13.335
45998W        W 5501  40.491  10.853  14.419
45999W        W 5502  25.100  10.326   2.304
46000W        W 5503  10.141  35.360   3.836
46001W        W 5504  43.022  18.661  12.433
46002W        W 5505  24.709  38.902   4.614
46003W        W 5506  13.108  34.041   0.728
46004W        W 5507   6.404  25.104   0.845
46005W        W 5508   3.936  26.206   1.808
46006W        W 5509  35.962  21.018  12.504
46007W        W 5510   2.229  44.358   2.277
46008W        W 5511  10.251  29.155  14.465
46009W        W 5512  37.907  40.850  11.592
46010W        W 5513  36.939  32.088  14.352
46011W        W 5514  34.944  40.447   1.709
46012W        W 5515  40.520  30.420   3.343
46013W        W 5516  28.061   2.453  14.472
46014W        W 5517  28.000  10.230  10.617
46015W        W 5518  43.855   5.430   4.760
46016W        W 5519  36.066  43.352  13.891
46017W        W 5520  29.134  35.370  11.500
46018W        W 5521  43.821  29.463  11.107
46019W        W 5522  32.427  19.244   1.369
46020W        W 5523  13.695  19.541   3.777
46021W        W 5524  11.327  20.566   1.354
46022W        W 5525  24.665  23.572  12.880
46023W        W 5526   6.740  33.108   1.347
46024W        W 5527  25.994  11.664  13.836
46025W        W 5528  42.443   3.880  10.538
46026W        W 5529  34.439  39.877  12.830
46027W        W 5530   7.862  29.984  13.451
46028W        W 5531   7.698  29.040   0.851
46029W        W 5532  40.348  41.026   1.389
46030W        W 5533  25.641   4.771   4.119
46031W        W 5534  18.652  27.555   1.378
46032W        W 5535  35.097  28.168  13.797
46033W        W 5536  38.852  17.676   3.820
46034W        W 5537  26.464  24.667  11.506
46035W        W 5538   4.266   3.346   3.794
46036W        W 5539  43.787  15.703   4.835
46037W        W 5540  15.606  13.289  11.547
46038W        W 5541   9.317  29.958  13.830
46039W        W 5542   3.819  10.237   4.776
46040W        W 5543  44.272  30.077   1.381
46041W        W 5544  24.694  41.931  13.013
46042W        W 5545  11.645  23.647   0.938
46043W        W 5546  30.113  11.729   1.805
46044W        W 5547  24.554  35.511  10.621
46045W        W 5548  35.521  31.564  11.945
46046W        W 5549   1.881  37.892  10.931
46047W        W 5550   0.276  40.378   1.271
46048W        W 5551  38.903  34.911  14.818
46049W        W 5552  34.890  36.415  11.487
46050W        W 5553   6.803  17.128  11.948
46051W        W 5554  41.338  43.825   3.210
46052W        W 5555  14.212   5.855   3.826
46053W        W 5556   2.235  43.326   2.408
46054W        W 5557   1.247  33.120   4.347
46055W        W 5558   5.264   6.361  11.980
46056W        W 5559  32.415   7.785   2.671
46057W        W 5560  44.761   7.307   2.703
46058W        W 5561   5.394  26.609   5.159
46059W        W 5562  17.587  29.948   1.734
46060W        W 5563   7.710  29.107  10.123
46061W        W 5564   9.261   5.869   2.387
46062W        W 5565  33.593  22.656  10.569
46063W        W 5566  34.109  32.434  11.012
46064W        W 5567  37.573  27.993   0.424
46065W        W 5568  26.986  16.751   3.810
46066W        W 5569   9.319  25.155  10.600
46067W        W 5570  12.809  39.965   2.238
46068W        W 5571  30.004  44.987   2.691
46069W        W 5572  28.516  24.688  14.309
46070W        W 5573  34.597   6.806  11.069
46071W        W 5574  40.356   2.440  14.461
46072W        W 5575  35.064  39.491  12.022
46073W        W 5576  16.709  27.949  10.941
46074W        W 5577  20.677  27.581  12.444
46075W        W 5578  11.660   1.760  11.952
46076W        W 5579  33.603   8.229  10.965
46077W        W 5580  40.000  26.992  12.856
46078W        W 5581  13.223  41.934   0.289
46079W        W 5582  20.595  33.542   0.742
46080W        W 5583  42.458  12.691   3.665
46081W        W 5584  37.579  15.764   1.741
46082W        W 5585  31.521  39.432   4.116
46083W        W 5586  24.088  17.691   4.221
46084W        W 5587  33.466   7.808  13.929
46085W        W 5588   8.863  42.298  12.570
46086W        W 5589  26.684  32.053   2.199
46087W        W 5590   7.263  40.029   3.844
46088W        W 5591  37.956  31.931   1.441
46089W        W 5592  30.623   8.799  13.813
46090W        W 5593  19.755   0.354   5.292
46091W        W 5594   5.282   2.456   0.350
46092W        W 5595  31.462  18.609   0.818
46093W        W 5596   3.246  13.250   0.376
46094W        W 5597  17.237  26.647   2.740
46095W        W 5598  12.267  12.248  10.472
46096W        W 5599  22.182  13.796   1.890
46097W        W 5600   0.930   2.350  14.495
46098W        W 5601  14.118  30.988   3.308
46099W        W 5602  18.236  12.230   1.228
46100W        W 5603   7.214  29.531   1.397
46101W        W 5604  21.559  43.295  13.486
46102W        W 5605  11.774  16.206  11.933
46103W        W 5606  26.468  18.276   1.366
46104W        W 5607  44.325   0.332   1.433
46105W        W 5608   7.763  12.202  14.475
46106W        W 5609  37.080  31.637  11.960
46107W        W 5610  17.606  39.534  13.333
46108W        W 5611  29.081  34.099  14.892
46109W        W 5612  23.638   3.315  10.605
46110W        W 5613   9.643   3.734  11.963
46111W        W 5614   7.850   1.249   0.275
46112W        W 5615  12.164   6.830   2.383
46113W        W 5616   8.726  22.232   3.714
46114W        W 5617  37.410  44.011   3.331
46115W        W 5618   4.291  35.580   1.885
46116W        W 5619  23.592  35.942   1.222
46117W        W 5620  12.294   4.317  14.462
46118W        W 5621  28.057  22.575  14.787
46119W        W 5622  44.899  41.350   1.288
46120W        W 5623  33.975   3.335  11.874
46121W        W 5624   7.844  36.370  14.443
46122W        W 5625  34.032  37.852  11.399
46123W        W 5626  22.148  43.935   2.807
46124W        W 5627  27.643  24.483   1.228
46125W        W 5628   9.329  42.367  10.994
46126W        W 5629  13.727   5.284  10.893
46127W        W 5630  43.448  18.756   0.780
46128W        W 5631  15.086  17.782   4.248
46129W        W 5632   1.827   3.777  11.432
46130W        W 5633   7.365   1.295  11.973
46131W        W 5634  43.342  25.590  14.302
46132W        W 5635   4.940  30.517   2.892
46133W        W 5636  36.525  40.823   4.768
46134W        W 5637  16.299  31.097   1.764
46135W        W 5638   5.320  30.916   0.742
46136W        W 5639  24.635   1.450  13.859
46137W        W 5640  36.578  25.578  12.346
46138W        W 5641   0.392  44.351   9.587
46139W        W 5642  33.994   8.796  12.086
46140W        W 5643  42.019   4.350  14.939
46141W        W 5644  27.024  16.225  14.282
46142W        W 5645  26.032  42.489  11.100
46143W        W 5646  25.517  31.941   0.875
46144W        W 5647  38.940  14.670  13.331
46145W        W 5648  16.213  12.278   3.821
46146W        W 5649  38.980  41.471  14.821
46147W        W 5650  12.279   5.888  13.346
46148W        W 5651  15.705  38.850   3.852
46149W        W 5652  44.986  16.701  14.509
46150W        W 5653  22.591  43.479  11.588
46151W        W 5654  29.131  15.593   4.696
46152W        W 5655  15.654  17.075   0.855
46153W        W 5656  11.131  33.380   0.283
46154W        W 5657  25.980  39.866  14.872
46155W        W 5658   8.726  12.754   1.294
46156W        W 5659  16.775  44.909   3.760
46157W        W 5660   7.414   9.389  13.417
46158W        W 5661  30.428  39.880  14.845
46159W        W 5662   2.721   3.218   0.880
46160W        W 5663  31.622  38.023   5.605
46161W        W 5664  36.443  20.634   4.718
46162W        W 5665   8.702  13.147  13.402
46163W        W 5666   8.221  13.237  13.337
46164W        W 5667  23.114  27.987  12.563
46165W        W 5668  37.055  43.497   4.343
46166W        W 5669  38.334  11.700   1.409
46167W        W 5670  28.577   4.804   1.219
46168W        W 5671  26.076  35.363  11.910
46169W        W 5672  44.779   2.743   4.642
46170W        W 5673  39.959   0.296  14.020
46171W        W 5674   0.270  31.537  10.891
46172W        W 5675  24.632  24.169  13.342
46173W        W 5676   8.382  16.085   1.395
46174W        W 5677  15.819  33.626  13.478
46175W        W 5678  30.591  24.624  10.930
46176W        W 5679   8.760  12.764  12.962
46177W        W 5680  12.266   4.386   3.647
46178W        W 5681  31.635  12.125   0.372
46179W        W 5682   7.706  39.447   0.768
46180W        W 5683  39.434  32.480   2.679
46181W        W 5684   8.744  24.083  12.558
46182W        W 5685  35.584  21.725   3.828
46183W        W 5686  11.136  44.789  13.494
46184W        W 5687  32.009  29.478  13.037
46185W        W 5688   0.380  38.892  14.986
46186W        W 5689   2.833  27.138  14.840
46187W        W 5690  41.021   2.333   1.411
46188W        W 5691   7.387  37.050   2.210
46189W        W 5692  35.474  31.963   4.679
46190W        W 5693  31.403  18.136   1.912
46191W        W 5694  32.090   7.272  14.453
46192W        W 5695  31.095  21.630   0.370
46193W        W 5696  37.844  31.989   1.912
46194W        W 5697  20.603  42.791  12.093
46195W        W 5698  17.221  36.499   1.369
46196W        W 5699  34.033   0.376   4.347
46197W        W 5700  16.678  10.724   2.692
46198W        W 5701  42.870  10.148  10.450
46199W        W 5702  17.225  33.540  11.108
46200W        W 5703   6.280   8.812  12.928
46201W        W 5704   6.868  28.534   1.913
46202W        W 5705  35.551   6.364   1.725
46203W        W 5706  11.754   6.837   0.288
46204W        W 5707  29.645  19.132  13.462
46205W        W 5708   8.709  35.531   1.828
46206W        W 5709   1.737  31.429  11.540
46207W        W 5710  27.652   1.274  11.434
46208W        W 5711   2.773  18.239   0.769
46209W        W 5712  44.288  26.164  13.429
46210W        W 5713  14.140  29.147   1.231
46211W        W 5714  10.322  41.500  11.870
46212W        W 5715  39.866  34.466  12.037
46213W        W 5716  41.866  37.846   3.732
46214W        W 5717  42.961  16.136  10.946
46215W        W 5718   6.364  22.599  14.308
46216W        W 5719  39.355   3.792   1.700
46217W        W 5720  30.925   9.391  13.007
46218W        W 5721  30.622  40.418  14.813
46219W        W 5722  16.733  35.407   1.890
46220W        W 5723   9.835  33.489  11.966
46221W        W 5724  24.617  44.775   0.960
46222W        W 5725   0.969   9.702  14.468
46223W        W 5726  41.506  19.222  13.326
46224W        W 5727  36.991   4.395  13.426
46225W        W 5728  41.352   0.442   2.783
46226W        W 5729  23.144   2.238  10.536
46227W        W 5730  18.692  38.892   5.234
46228W        W 5731   5.237   0.420  11.963
46229W        W 5732   3.442   4.898   2.374
46230W        W 5733   9.724   8.740   2.704
46231W        W 5734  28.510  44.978  11.965
46232W        W 5735  29.647  16.774  12.459
46233W        W 5736  16.683  25.162  12.351
46234W        W 5737  24.124   1.837  11.882
46235W        W 5738  22.529  21.639  12.559
46236W        W 5739   8.828  30.659  10.964
46237W        W 5740  24.222  31.518   0.430
46238W        W 5741   3.367  15.759   4.600
46239W        W 5742  29.030  43.299  10.552
46240W        W 5743  22.668  25.967  13.373
46241W        W 5744  10.775  11.659  14.488
46242W        W 5745  28.665   7.735  12.840
46243W        W 5746  18.665   4.767   0.468
46244W        W 5747  26.596  21.234  14.431
46245W        W 5748  44.385   9.668   1.904
46246W        W 5749  28.511  14.690  11.989
46247W        W 5750   1.863  15.259  11.582
46248W        W 5751  35.571  12.735  14.765
46249W        W 5752   4.311  40.846   2.898
46250W        W 5753   6.689   6.848  11.498
46251W        W 5754  35.426  12.170  14.379
46252W        W 5755  43.476  20.593  13.419
46253W        W 5756  27.983  20.612   0.768
46254W        W 5757   1.379   9.816   0.351
46255W        W 5758  11.706  30.429  13.959
46256W        W 5759  29.172  30.155   1.355
46257W        W 5760  35.073  17.250  13.391
46258W        W 5761   0.459  35.548  12.395
46259W        W 5762  32.538   8.236  11.910
46260W        W 5763  19.596  16.227   3.196
46261W        W 5764  41.297  29.052   4.148
46262W        W 5765  38.887  31.599  11.446
46263W        W 5766   6.856  13.744  11.103
46264W        W 5767  34.977   1.835   5.283
46265W        W 5768   9.161  40.905  13.327
46266W        W 5769   7.818  25.534   2.811
46267W        W 5770  27.517  41.471   0.286
46268W        W 5771  42.406  12.283  14.496
46269W        W 5772  44.972   6.766  10.459
46270W        W 5773   1.785  36.430   0.942
46271W        W 5774  19.685   1.298  11.557
46272W        W 5775  19.094  22.028   3.223
46273W        W 5776   9.255   7.861   4.650
46274W        W 5777  23.107  39.404  11.504
46275W        W 5778  35.027  30.128   4.150
46276W        W 5779  36.377  17.290  10.089
46277W        W 5780   8.758  11.838  11.044
46278W        W 5781  40.951  25.080   2.182
46279W        W 5782   8.655  34.423  14.764
46280W        W 5783  44.387  43.850   2.713
46281W        W 5784  24.502  21.707  14.442
46282W        W 5785   7.246  28.468   1.886
46283W        W 5786  30.435  29.024   3.216
46284W        W 5787   8.694  32.393  11.597
46285W        W 5788  23.094  24.208   4.295
46286W        W 5789   2.457  26.196  12.021
46287W        W 5790  32.402  24.142   2.849
46288W        W 5791  20.762  21.662   3.694
46289W        W 5792  27.993  22.637  12.824
46290W        W 5793  22.646  16.180   1.222
46291W        W 5794  17.638  18.623  14.477
46292W        W 5795  27.546  31.897  14.369
46293W        W 5796  43.486  33.570  14.500
46294W        W 5797  42.812   4.867   1.380
46295W        W 5798  16.619  36.359  10.993
46296W        W 5799  24.138  23.063   4.768
46297W        W 5800  24.001  19.719   3.306
46298W        W 5801  31.018  16.693  13.456
46299W        W 5802  21.139   6.685   2.258
46300W        W 5803  26.012  32.564  14.782
46301W        W 5804  33.110  26.140   1.211
46302W        W 5805  41.510   9.202   4.196
46303W        W 5806  17.798   8.692   3.689
46304W        W 5807   8.747  13.744  11.963
46305W        W 5808  35.501  39.318  11.887
46306W        W 5809  14.615  35.411   2.779
46307W        W 5810  23.161  31.934  14.450
46308W        W 5811  15.155  10.717  11.567
46309W        W 5812  40.497  17.306   4.295
46310W        W 5813   6.806  40.472   1.796
46311W        W 5814  13.779  19.263  12.349
46312W        W 5815  20.526  42.343  10.467
46313W        W 5816  19.684  14.298   9.946
46314W        W 5817  19.161  14.273   4.666
46315W        W 5818  35.503  34.388   3.823
46316W        W 5819  13.223   9.234  14.483
46317W        W 5820   7.282   0.781   0.355
46318W        W 5821  37.367   1.914   4.334
46319W        W 5822   2.809  18.065  12.844
46320W        W 5823   5.227  19.621  14.807
46321W        W 5824  38.570  24.720   0.362
46322W        W 5825  30.934  30.024   4.791
46323W        W 5826  17.061  21.219   5.295
46324W        W 5827  30.616  20.146  14.773
46325W        W 5828  35.072   7.264   0.299
46326W        W 5829   6.409  34.004   0.841
46327W        W 5830  24.075   8.764   3.714
46328W        W 5831  25.015  19.141  12.385
46329W        W 5832  33.563  30.047   0.837
46330W        W 5833  10.352  27.451  12.007
46331W        W 5834   2.368  12.819   0.273
46332W        W 5835   5.261  27.482  14.016
46333W        W 5836  21.731   0.291   0.962
46334W        W 5837   3.799  31.006  14.981
46335W        W 5838  18.227   2.867   4.768
46336W        W 5839  32.573  26.572   3.857
46337W        W 5840  22.597  33.030  14.369
46338W        W 5841   0.299  28.986  11.065
46339W        W 5842  34.373  31.916  14.892
46340W        W 5843   7.300  39.407   3.674
46341W        W 5844  40.489  39.392   4.605
46342W        W 5845  35.459  31.941  13.536
46343W        W 5846   8.220   9.367  14.891
46344W        W 5847  12.150   4.426  14.767
46345W        W 5848  39.347   5.838  10.453
46346W        W 5849   7.816  12.295  13.521
46347W        W 5850  39.536  18.109   0.275
46348W        W 5851  27.659   0.415  14.289
46349W        W 5852  14.703   1.936   0.871
46350W        W 5853   8.197  39.447  12.900
46351W        W 5854  20.622   9.388   1.324
46352W        W 5855  35.524  43.846  12.432
46353W        W 5856  34.958  26.697  12.952
46354W        W 5857  10.254  17.749   3.333
46355W        W 5858  35.422  38.949   3.339
46356W        W 5859  33.926   8.820  14.801
46357W        W 5860   4.346  27.048  11.097
46358W        W 5861   1.291  37.961  14.960
46359W        W 5862  18.105  20.032   3.222
46360W        W 5863  30.028  31.455  11.494
46361W        W 5864  26.980   7.183  11.028
46362W        W 5865  21.049  11.243   4.146
46363W        W 5866  13.225   3.726   0.325
46364W        W 5867  22.659  25.154  12.954
46365W        W 5868  40.398  44.811   2.691
46366W        W 5869  11.181  29.463  11.396
46367W        W 5870  34.509  41.334  11.567
46368W        W 5871  14.301  41.411   0.345
46369W        W 5872  41.042  37.387   2.211
46370W        W 5873  31.559  15.642  10.586
46371W        W 5874  32.435  22.065  12.949
46372W        W 5875  17.580   6.198  12.464
46373W        W 5876  44.453  30.043   3.211
46374W        W 5877   2.344  38.931   5.309
46375W        W 5878  20.269  35.907   2.709
46376W        W 5879  22.063  24.578   0.949
46377W        W 5880  20.047  25.011  13.325
46378W        W 5881  17.690  16.217  14.506
46379W        W 5882  25.962  33.506   4.801
46380W        W 5883  41.938  32.143   0.927
46381W        W 5884  22.638  18.167   4.282
46382W        W 5885  27.140   2.760   3.202
46383W        W 5886  42.475  43.883  11.866
46384W        W 5887  38.028  15.219   2.881
46385W        W 5888   3.366   3.234   2.323
46386W        W 5889  16.259  18.725  10.050
46387W        W 5890  39.358  17.081   1.782
46388W        W 5891   3.881  36.878   0.772
46389W        W 5892  30.579  36.494  14.368
46390W        W 5893  18.686  34.057  10.476
46391W        W 5894  39.931  37.374  12.482
46392W        W 5895   2.421  40.526   2.872
46393W        W 5896   0.301  38.036   4.661
46394W        W 5897  38.835  14.607   5.096
46395W        W 5898  35.932   5.734  10.924
46396W        W 5899  19.599  13.787   2.277
46397W        W 5900  26.506  40.932   4.354
46398W        W 5901  29.597   4.212   1.304
46399W        W 5902  18.731  10.193  11.104
46400W        W 5903  27.478  14.811  10.986
46401W        W 5904  29.599  40.882   4.118
46402W        W 5905  34.081   8.300  12.001
46403W        W 5906  39.030   5.922   0.446
46404W        W 5907  42.898  40.381  11.970
46405W        W 5908  15.213  41.529  13.451
46406W        W 5909  25.973  17.093  10.934
46407W        W 5910   3.840  17.741   2.325
46408W        W 5911  39.380   0.777   2.269
46409W        W 5912   3.354  18.245   4.223
46410W        W 5913   4.935  42.370   4.161
46411W        W 5914  32.570  30.624   2.207
46412W        W 5915   2.744  40.945   1.880
46413W        W 5916  39.406   6.422   2.788
46414W        W 5917  41.967  25.473  13.057
46415W        W 5918  40.882  19.183   9.964
46416W        W 5919  43.938  20.750   0.946
46417W        W 5920   0.770   5.920   3.376
46418W        W 5921  18.249  19.556  13.358
46419W        W 5922   8.395  15.146  14.435
46420W        W 5923   3.234  11.809   2.386
46421W        W 5924   4.755  33.922   2.702
46422W        W 5925  30.458  19.151   1.864
46423W        W 5926   3.256  26.616   5.188
46424W        W 5927  32.892  26.163  10.480
46425W        W 5928  11.825  17.649   3.716
46426W        W 5929  14.725  41.465  14.761
46427W        W 5930   4.752  43.339  14.352
46428W        W 5931  35.444   9.801  10.531
46429W        W 5932  25.669  28.143   3.259
46430W        W 5933   0.960  42.919  13.923
46431W        W 5934  31.080  20.198   1.887
46432W        W 5935  11.641  18.213   1.241
46433W        W 5936  37.889   6.787  10.055
46434W        W 5937  31.967  34.086  14.772
46435W        W 5938  26.078  18.627  12.527
46436W        W 5939   4.817  29.605   0.932
46437W        W 5940  38.857  13.649  11.512
46438W        W 5941  23.549   6.768   0.404
46439W        W 5942  13.259  33.979   3.377
46440W        W 5943  14.700  10.238  11.583
46441W        W 5944  40.543  38.873  12.376
46442W        W 5945  34.472  18.051   1.411
46443W        W 5946  19.564  26.985  10.518
46444W        W 5947  22.219  32.486   3.843
46445W        W 5948  28.980  17.211   2.673
46446W        W 5949  40.027  17.701   2.705
46447W        W 5950  31.983  33.030   2.824
46448W        W 5951  17.140   2.459   3.246
46449W        W 5952  39.476  25.000   1.322
46450W        W 5953  23.564  36.480  10.443
46451W        W 5954   4.801   5.739  13.397
46452W        W 5955  42.904  29.661   2.326
46453W        W 5956   9.208  17.776  13.024
46454W        W 5957  21.113  18.261  13.026
46455W        W 5958  27.122  10.262  13.936
46456W        W 5959   5.348  16.702   4.271
46457W        W 5960  44.327  40.418   3.182
46458W        W 5961  14.767   0.306   4.814
46459W        W 5962  42.912  16.676   4.310
46460W        W 5963   8.850  11.358   3.639
46461W        W 5964  22.544   4.359   2.261
46462W        W 5965  32.536  38.467   3.345
46463W        W 5966   8.383  37.020   4.658
46464W        W 5967  24.118  35.395  14.942
46465W        W 5968  25.057  36.045  11.606
46466W        W 5969  37.907  19.690  14.289
46467W        W 5970  28.083  36.037  11.436
46468W        W 5971  25.706   9.650   0.829
46469W        W 5972   4.841  35.424  11.596
46470W        W 5973  28.052  32.005  11.044
46471W        W 5974  35.021  42.345  14.321
46472W        W 5975  34.610  37.356  11.507
46473W        W 5976   1.372  11.275   2.212
46474W        W 5977  25.660  19.102  11.970
46475W        W 5978  42.315  20.563   0.324
46476W        W 5979  16.207  20.147  10.420
46477W        W 5980  34.104  15.743   0.417
46478W        W 5981  25.071  24.673   3.147
46479W        W 5982   5.357  33.108   1.449
46480W        W 5983   1.945  17.115   0.329
46481W        W 5984  43.787  15.255  14.477
46482W        W 5985  36.495  18.787  12.954
46483W        W 5986  21.671  27.465  10.552
46484W        W 5987  24.220  33.112  11.949
46485W        W 5988  25.540  15.311  13.827
46486W        W 5989  37.862  15.312  10.403
46487W        W 5990  33.479  19.586   0.376
46488W        W 5991  24.147  27.996   5.124
46489W        W 5992   5.438  41.940  14.996
46490W        W 5993  12.850  39.991  11.483
46491W        W 5994  24.611   0.978   0.850
46492W        W 5995  30.106   2.447  13.956
46493W        W 5996  40.930  14.676  14.969
46494W        W 5997  39.324  24.089  10.594
46495W        W 5998   6.697  36.904  11.869
46496W        W 5999  34.513  18.671   3.804
46497W        W 6000  18.681  40.969  13.943
46498W        W 6001   8.387  18.191  13.811
46499W        W 6002  40.526  42.789   2.187
46500W        W 6003  12.160  38.021   0.471
46501W        W 6004  37.021  26.557   3.850
46502W        W 6005  20.215  17.276  12.041
46503W        W 6006  33.100  38.981  12.950
46504W        W 6007   3.342  35.578  14.831
46505W        W 6008  30.944  13.284  13.340
46506W        W 6009  40.311  32.461   4.344
46507W        W 6010   8.666  19.778   2.712
46508W        W 6011  25.985  11.223   2.865
46509W        W 6012  35.955  36.022  12.498
46510W        W 6013  18.746   0.961   5.149
46511W        W 6014   3.356  20.602   4.355
46512W        W 6015  31.087   4.769  12.834
46513W        W 6016  35.087  42.840   3.208
46514W        W 6017  31.015  30.937  12.830
46515W        W 6018  41.477  44.311  13.044
46516W        W 6019  27.560  33.015   0.730
46517W        W 6020  10.307  40.997   1.864
46518W        W 6021   8.253  39.515  14.963
46519W        W 6022  31.040  37.486   0.781
46520W        W 6023   5.222  13.673   4.217
46521W        W 6024  27.198  38.408   2.900
46522W        W 6025  42.403  26.126   4.697
46523W        W 6026  43.493  33.411   2.745
46524W        W 6027  20.226  38.483   2.345
46525W        W 6028   2.381  36.070  14.924
46526W        W 6029   6.425  25.006  12.473
46527W        W 6030  13.343  42.872  14.837
46528W        W 6031  15.101  23.177  12.526
46529W        W 6032   3.918  29.658  12.069
46530W        W 6033  14.162  20.568   4.147
46531W        W 6034  12.300   9.805  14.348
46532W        W 6035  15.327  12.158  12.830
46533W        W 6036  36.080  40.924   3.364
46534W        W 6037  37.889  18.612  12.849
46535W        W 6038  22.610  17.285  12.094
46536W        W 6039  27.974  15.786   3.318
46537W        W 6040  44.387  33.878   1.695
46538W        W 6041  39.466  42.950  11.034
46539W        W 6042  29.437  14.630  13.345
46540W        W 6043  40.972  26.038  12.463
46541W        W 6044  12.228   2.744  12.013
46542W        W 6045  17.163  27.584  10.455
46543W        W 6046  35.555  17.573   4.155
46544W        W 6047   0.324  33.011   1.308
46545W        W 6048   5.301  17.207  10.998
46546W        W 6049   9.836  20.126  14.514
46547W        W 6050  41.002  26.087   2.337
46548W        W 6051  16.125  10.350  12.072
46549W        W 6052  41.440  38.329  14.834
46550W        W 6053  37.462  33.400   1.829
46551W        W 6054  30.937   2.471   3.716
46552W        W 6055  28.937  41.304  14.457
46553W        W 6056  41.336   9.265   5.276
46554W        W 6057   9.664  39.416  12.377
46555W        W 6058  33.930  14.778  10.617
46556W        W 6059  16.121  21.739  10.502
46557W        W 6060  36.008  11.211   3.356
46558W        W 6061  11.711  20.658  13.353
46559W        W 6062  12.198   7.368  10.967
46560W        W 6063  29.106  25.562  14.302
46561W        W 6064  16.709  34.022  10.622
46562W        W 6065  19.279   0.968   4.199
46563W        W 6066  28.541  25.209  11.004
46564W        W 6067  15.816  24.000   1.740
46565W        W 6068  21.039  19.618  12.838
46566W        W 6069  22.593  30.648   1.361
46567W        W 6070  12.840   0.427  13.845
46568W        W 6071   2.238  20.262  11.014
46569W        W 6072  28.568   4.728  14.996
46570W        W 6073   6.762  36.374  10.589
46571W        W 6074  16.140  18.286   0.272
46572W        W 6075  18.552  24.036  14.289
46573W        W 6076  22.590  27.516   2.382
46574W        W 6077  27.464   4.343  10.967
46575W        W 6078  44.996  27.589  11.945
46576W        W 6079  40.015  22.089  11.566
46577W        W 6080  11.781  31.129   4.340
46578W        W 6081  16.160  13.107  11.412
46579W        W 6082   9.733  25.005  14.429
46580W        W 6083  33.037  18.774   2.726
46581W        W 6084  12.832  30.160   0.928
46582W        W 6085  40.471  33.603   2.836
46583W        W 6086  11.654  12.711   9.956
46584W        W 6087  36.938  38.372   1.726
46585W        W 6088  35.908   2.901  12.052
46586W        W 6089   2.804  15.110  12.393
46587W        W 6090  32.096  12.701   2.413
46588W        W 6091  27.662  28.616   4.287
46589W        W 6092   3.269  16.277   2.299
46590W        W 6093  23.640  35.380   3.723
46591W        W 6094  35.911  27.686  12.078
46592W        W 6095  18.139  13.615  11.470
46593W        W 6096   2.305  22.142   4.616
46594W        W 6097  38.355   3.352   9.521
46595W        W 6098  41.909   9.376   3.274
46596W        W 6099  30.432   5.793  13.338
46597W        W 6100  31.125  36.517   2.874
46598W        W 6101  20.649  21.133  11.992
46599W        W 6102  39.454   0.281   3.333
46600W        W 6103  16.245  30.477  12.504
46601W        W 6104  11.622  35.960  10.985
46602W        W 6105   9.784  44.931  13.448
46603W        W 6106  13.298  33.536  13.996
46604W        W 6107  24.038  40.503  13.039
46605W        W 6108  22.512   5.733   4.243
46606W        W 6109  17.784  12.687  10.556
46607W        W 6110  36.410  38.910   2.867
46608W        W 6111   7.235   5.377  13.462
46609W        W 6112  44.375  17.171   0.953
46610W        W 6113   1.745   2.334  11.041
46611W        W 6114  17.123  30.045  14.482
46612W        W 6115  39.856  33.439   4.124
46613W        W 6116   8.287  19.748  13.391
46614W        W 6117  41.789  27.005   4.709
46615W        W 6118  10.221   5.774   3.178
46616W        W 6119  10.235  40.424  13.512
46617W        W 6120  19.674  27.613   4.342
46618W        W 6121  36.978  10.772  13.542
46619W        W 6122  12.637  31.481   4.251
46620W        W 6123  22.627  42.465   3.314
46621W        W 6124  41.914   5.725  12.386
46622W        W 6125  35.091   3.709  12.833
46623W        W 6126  27.581  34.105   2.370
46624W        W 6127   2.407  37.355  12.060
46625W        W 6128  43.434   0.940   2.764
46626W        W 6129  13.606  23.690   4.758
46627W        W 6130   7.274  27.972  11.049
46628W        W 6131   0.361  15.667   2.185
46629W        W 6132  13.198  33.030  14.446
46630W        W 6133  24.145  44.352  11.393
46631W        W 6134  31.148  36.859   2.812
46632W        W 6135  13.245  24.511   0.303
46633W        W 6136  37.506  43.504  12.077
46634W        W 6137  20.594  42.965  14.762
46635W        W 6138  37.928  43.493   1.914
46636W        W 6139  14.226  42.375   4.768
46637W        W 6140  11.674   3.293   2.364
46638W        W 6141  24.551  26.503  14.793
46639W        W 6142  25.502  27.462  13.023
46640W        W 6143  40.896  20.709  11.044
46641W        W 6144   3.289  12.696   3.665
46642W        W 6145  22.561  36.017   0.907
46643W        W 6146  37.362  12.751  12.574
46644W        W 6147  21.090   1.304  13.048
46645W        W 6148  34.878   9.168  13.529
46646W        W 6149  14.281  12.678   0.379
46647W        W 6150  31.623  20.142  14.793
46648W        W 6151  43.832   3.389   4.147
46649W        W 6152  11.190  13.833  10.452
46650W        W 6153   4.230  20.143  10.473
46651W        W 6154  20.627  42.901   4.295
46652W        W 6155  13.662  21.258  14.290
46653W        W 6156  30.045   9.191   1.916
46654W        W 6157  15.601  25.989  14.027
46655W        W 6158  31.906  21.718  11.088
46656W        W 6159  14.687   7.369  11.010
46657W        W 6160   8.398  12.179  12.003
46658W        W 6161   2.273  43.974   2.212
46659W        W 6162   0.404  20.751  14.949
46660W        W 6163  15.618  24.975   1.376
46661W        W 6164   8.713   4.884   4.342
46662W        W 6165  29.433  36.396  12.484
46663W        W 6166  23.053  40.306  14.396
46664W        W 6167  25.010  12.229  12.913
46665W        W 6168  42.341  33.032  13.464
46666W        W 6169  42.352  39.330  12.964
46667W        W 6170  24.175  28.437   4.284
46668W        W 6171  44.754  34.011   0.893
46669W        W 6172   0.445  31.575  12.091
46670W        W 6173  38.482   5.329   1.924
46671W        W 6174  32.115  43.377   0.257
46672W        W 6175  36.882  31.975   4.641
46673W        W 6176  16.659  10.832   4.743
46674W        W 6177  41.891  25.137  11.491
46675W        W 6178  44.790  24.492   2.200
46676W        W 6179  43.974  27.586   4.317
46677W        W 6180  33.087   9.273  11.581
46678W        W 6181  34.442  34.566  13.005
46679W        W 6182  27.450   1.278   1.892
46680W        W 6183  26.585  17.224  10.480
46681W        W 6184   1.325  24.543   2.767
46682W        W 6185  29.528  23.560  10.468
46683W        W 6186  15.815  44.872   4.275
46684W        W 6187  18.695   7.294  13.860
46685W        W 6188   2.840  20.669  13.366
46686W        W 6189  13.657  37.480  13.033
46687W        W 6190  40.929  44.789   0.878
46688W        W 6191  16.571  29.990  13.848
46689W        W 6192  35.109   5.406  11.945
46690W        W 6193  41.367  21.741   2.760
46691W        W 6194  17.108  41.039  14.019
46692W        W 6195  10.360  19.072  13.386
46693W        W 6196  14.126  14.183   2.848
46694W        W 6197  29.561  21.181  10.088
46695W        W 6198   2.875  26.143  14.925
46696W        W 6199  21.229  27.549  13.489
46697W        W 6200   6.392  34.017  13.383
46698W        W 6201  20.605  23.713   0.462
46699W        W 6202  38.062   4.843   3.169
46700W        W 6203  35.500  38.356   2.180
46701W        W 6204   8.837  44.995   1.717
46702W        W 6205   1.295  22.677   0.283
46703W        W 6206   6.260  13.154   3.285
46704W        W 6207   6.252   4.805  12.046
46705W        W 6208  22.102  27.955  10.534
46706W        W 6209  42.430  34.573  14.801
46707W        W 6210  27.032  17.794  13.386
46708W        W 6211  16.698  37.539   3.211
46709W        W 6212  22.689  30.162  10.984
46710W        W 6213  26.989  17.799   0.726
46711W        W 6214  40.308  25.108   0.767
46712W        W 6215  40.938  18.134   3.348
46713W        W 6216  30.933  14.625  11.440
46714W        W 6217  22.232  10.866  13.866
46715W        W 6218   4.911  22.210  10.024
46716W        W 6219   7.852  34.051   0.929
46717W        W 6220  12.738  26.457  14.910
46718W        W 6221  26.084  26.551  13.903
46719W        W 6222  40.314  34.050  14.863
46720W        W 6223  34.014  25.077  12.465
46721W        W 6224  25.183  29.130  13.929
46722W        W 6225  39.998  21.181   3.282
46723W        W 6226  20.173  41.880  13.915
46724W        W 6227  39.548  19.563   4.811
46725W        W 6228  35.896  23.686  12.983
46726W        W 6229  21.569  25.126   5.217
46727W        W 6230  28.483  22.196   0.316
46728W        W 6231  39.881   7.328   3.712
46729W        W 6232  23.706  40.953  12.909
46730W        W 6233   2.764   7.406   0.447
46731W        W 6234  37.015  35.059  12.553
46732W        W 6235   6.227  22.047  12.980
46733W        W 6236   2.824  11.223  10.456
46734W        W 6237  37.077  32.586  11.405
46735W        W 6238  33.560  25.611  14.337
46736W        W 6239  30.036   5.706  10.545
46737W        W 6240  11.675  35.493   2.682
46738W        W 6241   1.914  18.771   4.301
46739W        W 6242  43.326   2.943  13.539
46740W        W 6243  15.303   2.367  11.074
46741W        W 6244  20.191  25.568   1.444
46742W        W 6245  30.020  32.996  14.946
46743W        W 6246   2.768  24.992  11.984
46744W        W 6247  21.119  44.798  14.510
46745W        W 6248  16.770  14.253   0.961
46746W        W 6249  30.949  36.019  11.431
46747W        W 6250  36.429  37.861  13.811
46748W        W 6251   9.312  10.781   2.308
46749W        W 6252  17.760  20.556  14.851
46750W        W 6253   2.844   3.749   3.363
46751W        W 6254  28.101  42.818   3.365
46752W        W 6255  33.955  11.217  10.119
46753W        W 6256  16.149  41.985   0.791
46754W        W 6257   0.309  37.863  13.881
46755W        W 6258  15.127  10.273   1.818
46756W        W 6259   5.722   2.385  11.600
46757W        W 6260  34.405  13.138  13.361
46758W        W 6261  39.995   2.882   0.837
46759W        W 6262  22.590  14.217  12.003
46760W        W 6263  23.650  25.477   1.926
46761W        W 6264  24.714   2.445   3.166
46762W        W 6265  28.508  11.321   4.698
46763W        W 6266  19.545  15.674  12.829
46764W        W 6267  30.957   4.410   1.739
46765W        W 6268  25.616  35.415   2.384
46766W        W 6269  17.671  20.043   2.273
46767W        W 6270  17.561  29.532  14.309
46768W        W 6271  42.514  13.641   1.369
46769W        W 6272  43.959  37.512  10.418
46770W        W 6273  44.266  26.478  10.533
46771W        W 6274   2.414  37.889  11.556
46772W        W 6275  32.460  39.431  10.551
46773W        W 6276   6.259  25.135  10.424
46774W        W 6277  25.106  37.488   1.448
46775W        W 6278   2.279  23.514  11.473
46776W        W 6279  44.824  25.035  11.373
46777W        W 6280  37.087  20.167   3.684
46778W        W 6281   2.248  19.644  14.303
46779W        W 6282  41.308  24.128   5.108
46780W        W 6283  41.408  24.530   4.653
46781W        W 6284  25.550  10.242   2.408
46782W        W 6285   9.272  38.486  11.931
46783W        W 6286  20.694  18.105   1.297
46784W        W 6287   1.782  22.563   1.831
46785W        W 6288  37.397   3.311   3.702
46786W        W 6289   7.332   9.149   4.143
46787W        W 6290  33.523  16.090  11.552
46788W        W 6291   8.826  35.109  13.495
46789W        W 6292  14.144  16.673  14.324
46790W        W 6293  18.069  10.148   1.804
46791W        W 6294  37.831  16.692  10.466
46792W        W 6295  30.622  13.251   2.800
46793W        W 6296  27.158   7.688  13.009
46794W        W 6297  12.291  34.415  11.071
46795W        W 6298  35.370   7.854  12.369
46796W        W 6299  28.080  21.180  13.974
46797W        W 6300  37.501  40.499   4.655
46798W        W 6301  14.248   8.386  11.122
46799W        W 6302   9.734  22.582   4.141
46800W        W 6303  27.495   8.273   4.828
46801W        W 6304  19.235  34.981   2.251
46802W        W 6305  28.463  40.977  10.434
46803W        W 6306  22.679  38.563  11.873
46804W        W 6307  12.309  32.487   1.878
46805W        W 6308   8.668  22.744  14.301
46806W        W 6309  37.563  24.599  10.541
46807W        W 6310   7.356  12.308   4.260
46808W        W 6311   7.674   5.398  11.101
46809W        W 6312   5.759  38.532   4.178
46810W        W 6313   7.827  24.090   3.715
46811W        W 6314  22.722  30.430  12.078
46812W        W 6315  42.517   3.275   3.225
46813W        W 6316   8.312   8.247   1.316
46814W        W 6317  40.867  18.126   1.211
46815W        W 6318  18.250  30.439   2.387
46816W        W 6319  15.193  30.475  11.922
46817W        W 6320   0.486   1.839   3.660
46818W        W 6321  27.614  35.859   2.291
46819W        W 6322  15.745   1.864  11.977
46820W        W 6323   1.816  32.038   2.758
46821W        W 6324  13.787  19.645  10.569
46822W        W 6325   0.403   2.899  10.554
46823W        W 6326  24.617   2.317   4.160
46824W        W 6327  33.498  41.907   2.233
46825W        W 6328  17.799  38.364   3.834
46826W        W 6329  28.134   5.787   1.236
46827W        W 6330  27.016  42.946  14.386
46828W        W 6331  19.074  27.688  12.016
46829W        W 6332  34.612  15.187   4.656
46830W        W 6333   2.243  40.845  11.124
46831W        W 6334  44.830  25.190   1.888
46832W        W 6335  14.705  39.838   0.331
46833W        W 6336  19.212  11.159  14.010
46834W        W 6337   8.167   1.382  10.898
46835W        W 6338  31.521  44.446   2.750
46836W        W 6339  36.006  26.173   1.789
46837W        W 6340  28.187   0.969   3.342
46838W        W 6341  34.061  37.863   4.142
46839W        W 6342  22.209  25.096   1.933
46840W        W 6343  39.957  16.708  13.952
46841W        W 6344  15.818  17.646   2.722
46842W        W 6345  32.541  29.652  10.948
46843W        W 6346  10.183   9.767   2.185
46844W        W 6347  43.319  25.067  12.978
46845W        W 6348  10.151  20.659  12.513
46846W        W 6349  20.166  35.594   4.117
46847W        W 6350  22.054  24.989  11.055
46848W        W 6351   7.739   4.715  14.867
46849W        W 6352  44.365  39.843  13.510
46850W        W 6353  38.952  30.937  14.444
46851W        W 6354  11.695  26.624  10.020
46852W        W 6355   9.260  38.947   2.240
46853W        W 6356  24.696  11.683  10.638
46854W        W 6357  10.815   2.312   3.312
46855W        W 6358   5.756   2.328   2.713
46856W        W 6359   3.840  35.526   1.211
46857W        W 6360  37.872  12.305   3.357
46858W        W 6361   7.876  29.631   1.800
46859W        W 6362  32.439  43.827   1.331
46860W        W 6363   8.664   1.371   0.772
46861W        W 6364  35.462  31.923   1.935
46862W        W 6365  40.383  21.751  14.508
46863W        W 6366   6.918  37.040  14.017
46864W        W 6367  44.001   8.171   1.348
46865W        W 6368  39.006   2.331  13.419
46866W        W 6369  22.559  35.593   0.442
46867W        W 6370  34.474   1.767  14.002
46868W        W 6371  34.603  20.687  13.905
46869W        W 6372  22.539  31.544  14.886
46870W        W 6373   5.357  33.924   1.371
46871W        W 6374  14.673  43.481   2.718
46872W        W 6375  15.819  27.080   1.732
46873W        W 6376  24.519  22.013  10.928
46874W        W 6377  38.017  31.909   0.765
46875W        W 6378  31.010   1.907   2.256
46876W        W 6379  27.677  22.561   3.855
46877W        W 6380  24.560  32.634   3.853
46878W        W 6381  18.081  26.115  14.301
46879W        W 6382  27.507  20.167  14.931
46880W        W 6383   8.879  39.922   1.817
46881W        W 6384   9.205  12.852   0.950
46882W        W 6385  32.636  20.108  14.940
46883W        W 6386   0.301   9.352   4.122
46884W        W 6387  34.482  22.562  14.410
46885W        W 6388  12.745  42.857   1.365
46886W        W 6389  24.097  25.973  12.855
46887W        W 6390  18.159  43.299  12.059
46888W        W 6391   4.313  16.088  11.401
46889W        W 6392  23.573  31.430  14.957
46890W        W 6393  15.734   3.430   3.148
46891W        W 6394   8.398  13.612  14.423
46892W        W 6395  16.197  44.942   0.420
46893W        W 6396   8.192  23.673   4.132
46894W        W 6397   3.319  37.439  14.373
46895W        W 6398  24.529  10.375   3.868
46896W        W 6399  15.096  25.196   1.765
46897W        W 6400  42.796  37.366   2.888
46898W        W 6401   5.828  14.223  12.037
46899W        W 6402  32.946   9.765   1.826
46900W        W 6403  36.076  34.546  14.924
46901W        W 6404  10.272  22.113   4.794
46902W        W 6405  16.228  14.683  11.062
46903W        W 6406  32.399  42.307   3.254
46904W        W 6407  19.658  15.579  11.889
46905W        W 6408  35.881  29.930  13.950
46906W        W 6409  40.411  11.829   4.741
46907W        W 6410  13.617  31.948   1.283
46908W        W 6411   4.247  30.581  11.567
46909W        W 6412   1.399  29.922   3.239
46910W        W 6413   5.929  32.495  14.841
46911W        W 6414  23.692  18.125   1.292
46912W        W 6415  18.578   2.275  10.502
46913W        W 6416   3.819  40.329   3.633
46914W        W 6417   2.411  27.563  13.867
46915W        W 6418  27.553  41.817  12.406
46916W        W 6419  16.677   3.397   1.295
46917W        W 6420  23.985   7.236  13.889
46918W        W 6421  11.754   0.951  10.512
46919W        W 6422  19.726  22.688   0.817
46920W        W 6423  15.258  16.808   1.805
46921W        W 6424  18.646  26.541  11.541
46922W        W 6425  43.872  19.179   2.855
46923W        W 6426  27.155  38.885  11.473
46924W        W 6427   8.702  10.671  10.620
46925W        W 6428  21.107  34.552  13.796
46926W        W 6429   7.305  37.025   1.301
46927W        W 6430   7.321   6.817   1.310
46928W        W 6431  43.833  27.048  12.997
46929W        W 6432  26.542  36.928   2.255
46930W        W 6433  32.091  42.305  11.962
46931W        W 6434   9.303  20.208   2.335
46932W        W 6435  34.106  37.955  10.458
46933W        W 6436   0.336  15.189   1.416
46934W        W 6437   0.402  43.359   1.253
46935W        W 6438  29.509  42.000  14.383
46936W        W 6439   2.374  17.625   2.194
46937W        W 6440  25.201  14.317  10.936
46938W        W 6441  18.583  16.114  14.501
46939W        W 6442  35.602  17.558  13.351
46940W        W 6443  33.581  34.030  11.411
46941W        W 6444   0.323   6.899   1.775
46942W        W 6445   9.700  14.333   4.127
46943W        W 6446  10.227  40.919   0.930
46944W        W 6447  15.728   4.446  10.991
46945W        W 6448  34.886  39.451   3.311
46946W        W 6449   1.900   7.761   2.239
46947W        W 6450  24.033  38.016  14.776
46948W        W 6451  43.328   7.840   3.671
46949W        W 6452  23.562  20.615  13.915
46950W        W 6453   5.911  15.644  14.508
46951W        W 6454  16.752  11.150   1.848
46952W        W 6455  22.725  39.048  14.868
46953W        W 6456   4.270  29.669  13.397
46954W        W 6457  30.952   2.400   1.714
46955W        W 6458  16.287  29.499   4.636
46956W        W 6459  20.043  18.639   3.749
46957W        W 6460  28.174   0.976  14.943
46958W        W 6461  17.587   9.801  11.104
46959W        W 6462   0.482  19.747  14.793
46960W        W 6463  25.704  37.912  12.854
46961W        W 6464   2.804  12.274   1.905
46962W        W 6465   7.388  12.322  12.042
46963W        W 6466  17.268  11.166   2.855
46964W        W 6467  22.179   5.218   4.320
46965W        W 6468   2.753  25.043  11.388
46966W        W 6469  29.432  24.198  13.940
46967W        W 6470  26.967  39.941   4.176
46968W        W 6471  36.054  32.999   2.306
46969W        W 6472   8.192  20.063  11.481
46970W        W 6473  18.601  34.955  13.444
46971W        W 6474   7.858  13.107   4.716
46972W        W 6475  31.525  35.402  14.301
46973W        W 6476  33.945  14.319   0.860
46974W        W 6477  41.949  30.536  14.016
46975W        W 6478  40.987  22.546  11.922
46976W        W 6479  25.972  18.716  10.938
46977W        W 6480  14.096  20.667   4.625
46978W        W 6481  26.576   3.755   5.305
46979W        W 6482  17.242  30.446   3.849
46980W        W 6483  26.552  18.691   0.753
46981W        W 6484  41.794  11.636   2.815
46982W        W 6485  26.072  22.113  13.058
46983W        W 6486  12.219  18.773  10.576
46984W        W 6487  10.263  42.031   2.314
46985W        W 6488  24.606  14.655  14.420
46986W        W 6489  11.223  13.199  14.418
46987W        W 6490  23.187  39.991   4.237
46988W        W 6491   7.350  32.946   2.315
46989W        W 6492  23.661  29.025   4.667
46990W        W 6493   4.447  28.511   0.266
46991W        W 6494  10.814  26.581  14.370
46992W        W 6495  29.012  39.323   1.281
46993W        W 6496  32.931   7.402   3.815
46994W        W 6497  44.345  32.042  13.333
46995W        W 6498  44.777  10.661   1.370
46996W        W 6499  36.052  22.592  12.990
46997W        W 6500  10.806  16.199  10.033
46998W        W 6501  27.037  26.146  11.859
46999W        W 6502  16.609  27.682  11.919
47000W        W 6503  24.574  38.424   3.679
47001W        W 6504   2.749  12.754  10.967
47002W        W 6505  34.029   3.935  12.842
47003W        W 6506   5.919  18.208  11.444
47004W        W 6507  20.207  32.018  14.510
47005W        W 6508  12.715  13.160  13.834
47006W        W 6509  17.774  10.666  10.592
47007W        W 6510  18.644   9.368   1.298
47008W        W 6511  33.481  29.552   3.149
47009W        W 6512  15.166  26.675  10.905
47010W        W 6513   6.865  36.422   0.793
47011W        W 6514  11.747  10.776   3.225
47012W        W 6515  21.574  11.129  12.420
47013W        W 6516  32.573  39.464  10.985
47014W        W 6517  33.462  23.065  10.443
47015W        W 6518  40.543   6.330  11.930
47016W        W 6519  35.440   8.668   2.839
47017W        W 6520  26.052  39.535  13.493
47018W        W 6521  30.482   1.845   3.371
47019W        W 6522  39.829  38.419   4.191
47020W        W 6523  23.189  31.056  13.458
47021W        W 6524  39.963  33.999  14.983
47022W        W 6525  29.095  11.266  12.890
47023W        W 6526  19.040   6.241  12.385
47024W        W 6527  43.364   4.314  12.398
47025W        W 6528  40.478  37.472   3.834
47026W        W 6529  43.343  24.499   1.443
47027W        W 6530  26.613  21.662   0.386
47028W        W 6531  40.456  36.526   1.312
47029W        W 6532  14.675   9.787  11.568
47030W        W 6533  21.175  43.894   0.745
47031W        W 6534   2.766  42.025  12.094
47032W        W 6535  10.325  18.207   4.334
47033W        W 6536  28.073  41.939  12.541
47034W        W 6537  21.024  36.382   1.253
47035W        W 6538  21.595  29.499   3.387
47036W        W 6539  21.733   4.786  12.086
47037W        W 6540  39.039  26.068   3.631
47038W        W 6541  13.817  30.037  13.799
47039W        W 6542   6.851  26.174  12.949
47040W        W 6543  37.841   7.715   3.222
47041W        W 6544   4.318  40.409  13.347
47042W        W 6545  42.423  29.488   1.392
47043W        W 6546  40.838  32.905   3.803
47044W        W 6547  21.060  31.092   2.298
47045W        W 6548   4.230  35.495  11.434
47046W        W 6549  19.576  31.935  11.962
47047W        W 6550  10.194  40.441   2.207
47048W        W 6551  18.123  33.874   1.437
47049W        W 6552  16.787  23.633   1.219
47050W        W 6553  43.998  22.068  13.350
47051W        W 6554  44.433  44.288  14.926
47052W        W 6555  39.532   1.371  12.505
47053W        W 6556  32.532  40.383   9.975
47054W        W 6557  22.046   7.796  12.078
47055W        W 6558   9.334  37.357  14.785
47056W        W 6559  34.034  25.470   2.854
47057W        W 6560  24.528  12.144  12.552
47058W        W 6561  14.822   6.706   3.828
47059W        W 6562   9.831   6.797  12.500
47060W        W 6563  27.627  43.767  11.510
47061W        W 6564  35.591  44.782  14.285
47062W        W 6565  30.539  31.935   2.745
47063W        W 6566  44.361  37.059  10.445
47064W        W 6567  37.548  19.539   1.449
47065W        W 6568  28.469   8.811   4.225
47066W        W 6569  38.366  12.646   0.258
47067W        W 6570   6.817   7.829   3.732
47068W        W 6571  13.654  18.560  14.502
47069W        W 6572  31.091   5.423   4.119
47070W        W 6573  37.972   2.261  13.954
47071W        W 6574  20.546  21.076   0.799
47072W        W 6575  23.155   0.288  12.566
47073W        W 6576  15.115  15.305   1.432
47074W        W 6577  35.960  35.015  14.835
47075W        W 6578  23.171  22.700   1.288
47076W        W 6579  26.496  18.214  14.932
47077W        W 6580  20.584  35.859  10.507
47078W        W 6581  34.550  30.645   0.382
47079W        W 6582  26.001  11.860   0.855
47080W        W 6583   6.275  44.968   0.938
47081W        W 6584   4.860  32.451   3.753
47082W        W 6585  14.154  18.586  10.541
47083W        W 6586  35.012  33.552  12.344
47084W        W 6587  15.319  30.586   0.332
47085W        W 6588   5.858  18.084  14.867
47086W        W 6589  27.521  43.448  11.528
47087W        W 6590   4.376  40.537  14.017
47088W        W 6591   2.314  24.695   1.251
47089W        W 6592  22.020   2.769   0.759
47090W        W 6593  22.100  29.428   3.285
47091W        W 6594  39.839  43.300   4.674
47092W        W 6595  29.019  14.229   1.363
47093W        W 6596  23.153   3.394  13.856
47094W        W 6597  14.762  18.697   2.342
47095W        W 6598  34.054  40.912   3.760
47096W        W 6599  41.409  28.600  13.030
47097W        W 6600  39.444   6.341   3.177
47098W        W 6601  24.219  34.988   4.669
47099W        W 6602  38.521  31.063  10.565
47100W        W 6603  15.167  25.600   1.699
47101W        W 6604  24.206  29.103   1.752
47102W        W 6605   0.358  12.735   3.730
47103W        W 6606  25.499  42.916  12.069
47104W        W 6607  35.995  32.506   2.810
47105W        W 6608  10.320   4.897   1.724
47106W        W 6609  34.924  18.664   0.257
47107W        W 6610  20.620  20.114  10.419
47108W        W 6611   8.220   3.306   1.926
47109W        W 6612   9.735  32.140   2.712
47110W        W 6613  44.437  16.308  10.497
47111W        W 6614  17.637  44.861  11.483
47112W        W 6615  17.738   8.182  14.926
47113W        W 6616   4.872  19.559  11.396
47114W        W 6617  11.716  26.580  10.913
47115W        W 6618  35.547   2.840   1.301
47116W        W 6619   7.178  17.285  11.512
47117W        W 6620  18.570   4.366   0.300
47118W        W 6621  14.780  13.263  13.887
47119W        W 6622  10.374  33.417  10.440
47120W        W 6623  34.389   2.342  10.546
47121W        W 6624   0.359  42.476   0.825
47122W        W 6625  18.565  20.214  14.339
47123W        W 6626   2.342  14.779   1.426
47124W        W 6627  29.092  44.893  10.943
47125W        W 6628  39.411  37.082   1.352
47126W        W 6629  32.093  17.626  13.945
47127W        W 6630   5.755  24.222   3.216
47128W        W 6631   0.884   3.887   0.831
47129W        W 6632  38.883  32.488   0.912
47130W        W 6633  24.188   1.771   4.305
47131W        W 6634   0.455   2.384   1.846
47132W        W 6635  17.572   8.209  12.074
47133W        W 6636  32.060  35.857   1.749
47134W        W 6637  33.045  20.174   0.897
47135W        W 6638   3.303  13.817  12.929
47136W        W 6639  44.775  37.408  12.061
47137W        W 6640  33.500  12.333  12.488
47138W        W 6641  36.095  15.146   3.168
47139W        W 6642   4.213  23.197   0.370
47140W        W 6643  12.842  35.559   2.361
47141W        W 6644  21.131  33.600   4.831
47142W        W 6645  13.750  15.251  11.890
47143W        W 6646  43.338  41.012   1.399
47144W        W 6647  19.217  26.063   3.658
47145W        W 6648   1.393  33.042  14.019
47146W        W 6649  24.156   7.269  12.488
47147W        W 6650  22.200   3.833   3.852
47148W        W 6651  23.226  14.135   0.449
47149W        W 6652  44.877  26.064  14.964
47150W        W 6653   0.265  42.404  11.498
47151W        W 6654  27.549   5.266  13.892
47152W        W 6655   5.206  19.698   0.340
47153W        W 6656   9.180  39.841   4.335
47154W        W 6657   6.692  12.690  11.080
47155W        W 6658  25.553  43.372  11.984
47156W        W 6659  34.593  40.339   3.661
47157W        W 6660  35.394  39.349  11.579
47158W        W 6661  25.203  33.489  10.498
47159W        W 6662  14.782   8.182  11.435
47160W        W 6663  44.967  19.094  14.463
47161W        W 6664  26.121  38.349  10.522
47162W        W 6665  25.634  15.811   1.700
47163W        W 6666  43.394  12.740  14.389
47164W        W 6667  20.540   2.773  11.050
47165W        W 6668  11.164   6.225   1.906
47166W        W 6669  20.668  11.216   4.698
47167W        W 6670  29.576  20.753  11.397
47168W        W 6671   7.702  25.117   0.813
47169W        W 6672  31.016   9.183  11.524
47170W        W 6673  12.336  41.292  13.908
47171W        W 6674   9.876  37.853   0.422
47172W        W 6675  20.567  22.023  14.393
47173W        W 6676  37.463  11.822  10.922
47174W        W 6677  23.571  42.845   2.222
47175W        W 6678  31.043  36.007   4.201
47176W        W 6679  38.553   5.707  14.333
47177W        W 6680   5.328  21.599  13.923
47178W        W 6681  33.035  17.265  13.035
47179W        W 6682   5.783  21.145  13.051
47180W        W 6683  12.694  36.534   1.324
47181W        W 6684  23.613  12.247   4.811
47182W        W 6685  11.858   0.399  13.995
47183W        W 6686  40.333   0.276   2.853
47184W        W 6687  34.962  17.157   0.728
47185W        W 6688  19.239   9.821  11.081
47186W        W 6689  27.632  21.667   4.635
47187W        W 6690  37.896  23.504  10.533
47188W        W 6691  11.681  13.332   1.722
47189W        W 6692  35.056  29.474  14.369
47190W        W 6693  34.453   3.773  11.976
47191W        W 6694  42.322  33.491  12.515
47192W        W 6695  38.480   6.839   2.344
47193W        W 6696  23.051  24.482  14.396
47194W        W 6697   7.821  29.018  13.879
47195W        W 6698  35.538  40.853  12.000
47196W        W 6699   0.781   5.305  11.094
47197W        W 6700   5.690   2.795  11.906
47198W        W 6701  27.111  19.687  14.780
47199W        W 6702  13.187  39.514   0.829
47200W        W 6703  38.035  27.544  12.904
47201W        W 6704  10.659  15.135  14.278
47202W        W 6705   3.910  18.078   0.945
47203W        W 6706  26.620  25.105  14.492
47204W        W 6707  34.876   3.245  14.415
47205W        W 6708  44.431  24.062   3.155
47206W        W 6709  40.808  34.527   3.737
47207W        W 6710  27.128  15.260   3.725
47208W        W 6711   3.956  30.504  13.014
47209W        W 6712   4.726   2.952  13.379
47210W        W 6713  41.816  24.497   0.245
47211W        W 6714   2.319  42.354   4.696
47212W        W 6715  24.999  29.513  12.957
47213W        W 6716   1.731  20.067  12.446
47214W        W 6717   2.392  13.142   0.306
47215W        W 6718  33.386  10.840  11.963
47216W        W 6719  34.868  44.793   2.663
47217W        W 6720  35.372  42.851  10.576
47218W        W 6721  37.347  20.761   4.128
47219W        W 6722   1.948  43.499  14.459
47220W        W 6723  24.617  27.137  14.316
47221W        W 6724  43.385  43.826  11.413
47222W        W 6725  28.554  11.342  14.463
47223W        W 6726  11.656  14.603   4.688
47224W        W 6727   1.966  22.224  11.373
47225W        W 6728  13.703  35.439   3.180
47226W        W 6729  26.681  15.311  12.499
47227W        W 6730  12.251  34.108   1.401
47228W        W 6731  38.933  16.641  12.934
47229W        W 6732  35.576  38.504   0.381
47230W        W 6733  33.081  43.921  14.437
47231W        W 6734  33.442  22.221  13.464
47232W        W 6735  36.949  43.451   2.689
47233W        W 6736  11.313   1.928  11.399
47234W        W 6737  32.069  14.754  12.083
47235W        W 6738  31.005  33.089   4.738
47236W        W 6739  39.908  40.403  12.411
47237W        W 6740  12.741   7.199  12.458
47238W        W 6741  10.726  37.989  11.059
47239W        W 6742   4.889  27.973   4.165
47240W        W 6743  41.442  44.304   4.605
47241W        W 6744   9.168  15.227  11.965
47242W        W 6745  44.386  10.231  14.279
47243W        W 6746  13.156  24.168  13.965
47244W        W 6747  16.117   8.740   3.345
47245W        W 6748   7.673  44.274  12.075
47246W        W 6749   4.729  16.781   2.806
47247W        W 6750  10.773  19.090  11.972
47248W        W 6751  38.397  39.055   3.824
47249W        W 6752  17.071  17.220  10.644
47250W        W 6753  31.143  13.669  11.876
47251W        W 6754  18.293  16.172  13.535
47252W        W 6755  27.028  14.647   2.871
47253W        W 6756   0.954   2.914  10.955
47254W        W 6757   2.296  44.364  11.531
47255W        W 6758   9.822  19.593  11.606
47256W        W 6759   6.256  23.492  11.944
47257W        W 6760  29.555  24.679  13.396
47258W        W 6761  40.478  38.914   2.813
47259W        W 6762  40.410  33.927  14.455
47260W        W 6763  24.989   3.772   1.424
47261W        W 6764  37.556  14.216  13.010
47262W        W 6765  44.763  43.960  10.953
47263W        W 6766   7.231  15.265  13.369
47264W        W 6767  10.279  25.215   3.731
47265W        W 6768  10.810  43.857  13.318
47266W        W 6769  33.609  19.642  14.386
47267W        W 6770  34.018  43.009  10.593
47268W        W 6771  40.427  11.672  14.899
47269W        W 6772  36.908   2.448  13.026
47270W        W 6773  39.007  38.525   0.290
47271W        W 6774   2.930  34.375  13.331
47272W        W 6775  11.852  10.259  14.375
47273W        W 6776  21.606  34.586   2.260
47274W        W 6777  11.787  24.661   1.851
47275W        W 6778  33.389  30.638   2.677
47276W        W 6779  23.604  39.471  10.572
47277W        W 6780  34.548  43.279   0.467
47278W        W 6781  28.970  13.781  12.058
47279W        W 6782  22.704  37.415  12.898
47280W        W 6783  24.542  41.039  12.543
47281W        W 6784   8.857  31.131   2.293
47282W        W 6785  32.539   3.297  11.959
47283W        W 6786  10.235  39.440   3.795
47284W        W 6787  12.680  13.127   4.675
47285W        W 6788  17.267  40.902   4.329
47286W        W 6789  29.013  28.521   2.707
47287W        W 6790  21.586  39.484  11.596
47288W        W 6791  34.516  38.434   4.838
47289W        W 6792  19.607  44.849   0.883
47290W        W 6793  36.081  17.062  14.779
47291W        W 6794  31.597  31.527  10.489
47292W        W 6795  33.593  11.312  10.138
47293W        W 6796   7.752  20.060   4.829
47294W        W 6797  27.028  25.695   4.228
47295W        W 6798   9.258  32.143  14.936
47296W        W 6799   5.338  36.366  14.504
47297W        W 6800  23.664  26.049   1.421
47298W        W 6801  13.732  13.328   0.390
47299W        W 6802  41.942   4.406  14.473
47300W        W 6803   9.663   4.805   3.777
47301W        W 6804  32.451   8.285  13.040
47302W        W 6805  22.555  27.542   3.371
47303W        W 6806  34.545   0.312   2.230
47304W        W 6807  31.628  30.040   4.173
47305W        W 6808  31.947   4.725  10.490
47306W        W 6809  26.461   3.836   2.315
47307W        W 6810  29.467  41.382  13.006
47308W        W 6811   3.941  41.806   2.374
47309W        W 6812  12.322  39.903   2.871
47310W        W 6813  43.999   5.248  12.921
47311W        W 6814  13.618   8.853   0.818
47312W        W 6815  15.130  29.465   0.860
47313W        W 6816  44.366  41.408   1.888
47314W        W 6817  41.376  17.739  12.574
47315W        W 6818  18.139   4.792   3.650
47316W        W 6819  44.962  34.410  12.024
47317W        W 6820  20.181  38.347  10.467
47318W        W 6821  17.636  14.195   0.850
47319W        W 6822   6.746  32.576   2.835
47320W        W 6823  26.670  43.861   0.466
47321W        W 6824   9.760  10.302  10.547
47322W        W 6825   4.420  11.721  12.860
47323W        W 6826  44.474   0.898   1.382
47324W        W 6827  28.465  34.466  11.503
47325W        W 6828  22.192  40.540   2.762
47326W        W 6829  21.193  23.686  14.360
47327W        W 6830   3.227  23.079   2.710
47328W        W 6831  22.532  29.947  10.438
47329W        W 6832  32.448   4.210  13.510
47330W        W 6833  32.945   0.365  12.550
47331W        W 6834  11.822  12.116  12.889
47332W        W 6835  10.286  10.811   3.642
47333W        W 6836  18.551  13.843  12.995
47334W        W 6837  21.056   1.479  11.892
47335W        W 6838  32.078  14.292  13.547
47336W        W 6839  30.572  40.451   2.218
47337W        W 6840  31.975  20.567   5.145
47338W        W 6841  40.033  18.758   2.667
47339W        W 6842  23.086  11.648   0.246
47340W        W 6843  42.324  12.621   2.249
47341W        W 6844  38.849  33.427   5.205
47342W        W 6845   6.414  41.365   1.748
47343W        W 6846  17.602  24.121   3.851
47344W        W 6847  42.945   9.695   0.433
47345W        W 6848   9.676   1.391   3.722
47346W        W 6849  14.327   8.313  11.470
47347W        W 6850   5.933  26.974   2.240
47348W        W 6851  18.265  15.268  10.897
47349W        W 6852  44.952   4.884   3.296
47350W        W 6853   2.358  34.093  12.445
47351W        W 6854   1.266  36.485   0.897
47352W        W 6855  18.247  27.082  10.599
47353W        W 6856   6.342  28.989   2.895
47354W        W 6857  38.328  33.958  14.331
47355W        W 6858  19.099   7.294  13.463
47356W        W 6859   6.809  12.168  14.373
47357W        W 6860  14.226  42.835   3.827
47358W        W 6861  30.975  34.383  11.033
47359W        W 6862  10.242  23.088  12.823
47360W        W 6863  25.166  35.873  14.924
47361W        W 6864  25.703   9.816   3.823
47362W        W 6865  12.299   7.768  11.904
47363W        W 6866  28.992  20.619   3.858
47364W        W 6867  33.909  19.719   3.699
47365W        W 6868  22.639  21.536  12.022
47366W        W 6869  25.546  23.012   4.662
47367W        W 6870  31.041  44.366   0.949
47368W        W 6871  36.943  13.605  13.838
47369W        W 6872  26.590  25.093   2.253
47370W        W 6873  37.923  43.891   4.623
47371W        W 6874   8.765  39.977  11.443
47372W        W 6875  39.379  40.979   1.214
47373W        W 6876  29.472   0.864   5.083
47374W        W 6877  10.841   8.780   1.435
47375W        W 6878  29.116  40.322  13.989
47376W        W 6879  27.562  40.831  14.764
47377W        W 6880  19.780   2.293   3.791
47378W        W 6881   2.423  38.560   4.685
47379W        W 6882   7.685  14.747  13.856
47380W        W 6883   8.309  23.228   1.757
47381W        W 6884  39.011  28.957  12.829
47382W        W 6885  40.493  14.829   2.208
47383W        W 6886  40.968  17.569  13.391
47384W        W 6887  43.447   1.735   0.254
47385W        W 6888  39.369  22.138   1.924
47386W        W 6889   9.754  35.069   0.431
47387W        W 6890  19.147  41.336   0.251
47388W        W 6891  12.617  28.936  12.572
47389W        W 6892  20.672  10.305  13.810
47390W        W 6893   6.701  30.430  11.053
47391W        W 6894  11.216  12.195  11.534
47392W        W 6895  28.607   4.433  10.492
47393W        W 6896  29.083   5.434   4.676
47394W        W 6897  20.215  23.094  14.332
47395W        W 6898  32.424  42.888  11.029
47396W        W 6899  25.218  44.444  14.325
47397W        W 6900  25.547   8.228   2.669
47398W        W 6901  19.143  30.550  13.800
47399W        W 6902  44.892   9.862   4.201
47400W        W 6903   4.279  15.322   0.855
47401W        W 6904   0.455  25.078  14.313
47402W        W 6905   4.863   2.287  12.413
47403W        W 6906  27.171  40.364   0.327
47404W        W 6907  20.201  37.498   0.262
47405W        W 6908  41.870   0.392  14.996
47406W        W 6909  37.948  30.415   1.375
47407W        W 6910  14.641   7.844   3.190
47408W        W 6911   2.856  15.797   2.867
47409W        W 6912  43.937  10.695   4.284
47410W        W 6913  44.342  10.641  14.816
47411W        W 6914  26.679  34.916   2.803
47412W        W 6915  42.839   1.790  14.998
47413W        W 6916   5.327  40.364   0.780
47414W        W 6917  21.247  32.951   3.640
47415W        W 6918  28.174  13.169   0.454
47416W        W 6919  12.298   3.877  11.466
47417W        W 6920  13.253  15.749   2.874
47418W        W 6921   6.397  14.598  13.968
47419W        W 6922  34.992  39.488  10.967
47420W        W 6923  31.040  41.867   4.158
47421W        W 6924   9.164  39.870  10.476
47422W        W 6925  41.294  22.160   2.411
47423W        W 6926  29.963   9.685   5.717
47424W        W 6927  10.365  19.672  13.048
47425W        W 6928  12.192  33.565   0.461
47426W        W 6929  30.108  22.709   4.157
47427W        W 6930  26.614  19.568  13.547
47428W        W 6931  18.250  12.123   4.186
47429W        W 6932  10.368  11.726   0.472
47430W        W 6933  12.315  19.722  14.470
47431W        W 6934  35.437  11.189  13.460
47432W        W 6935  44.835   2.730  12.481
47433W        W 6936  38.552  27.090  12.362
47434W        W 6937  32.085  37.030   3.800
47435W        W 6938   0.846   9.647   0.405
47436W        W 6939   2.822  26.053  13.926
47437W        W 6940  14.257  10.337   3.324
47438W        W 6941  38.041  19.251  12.018
47439W        W 6942  33.596  24.039  10.488
47440W        W 6943  13.242   4.221   2.356
47441W        W 6944  44.446  36.487  13.879
47442W        W 6945  19.589  26.609   4.298
47443W        W 6946  16.805  35.854   3.252
47444W        W 6947  29.091  17.089  12.955
47445W        W 6948   0.477  28.653   2.199
47446W        W 6949  27.972  10.202  11.930
47447W        W 6950  19.215  35.467  13.853
47448W        W 6951   8.829  31.434  11.890
47449W        W 6952  41.307  19.557   0.448
47450W        W 6953  16.089  28.972  13.965
47451W        W 6954  22.192  27.079   2.876
47452W        W 6955   6.706  38.565   4.137
47453W        W 6956  35.886  22.036   0.804
47454W        W 6957  38.423  39.024   0.785
47455W        W 6958  17.089   1.913   0.925
47456W        W 6959  24.979  24.517  14.894
47457W        W 6960  24.535  26.539  12.069
47458W        W 6961  24.988  29.587   0.914
47459W        W 6962  33.953  29.592  14.966
47460W        W 6963  43.422  43.932  12.341
47461W        W 6964  12.158  28.552   2.355
47462W        W 6965   3.228   8.360  11.983
47463W        W 6966  34.378  14.657   0.913
47464W        W 6967  27.004  22.557   1.398
47465W        W 6968  31.491  31.435   3.225
47466W        W 6969  28.014  11.844   1.342
47467W        W 6970  25.516  14.234  12.343
47468W        W 6971  37.582  24.114   3.358
47469W        W 6972   4.360  31.426   2.890
47470W        W 6973  24.587   1.968  13.489
47471W        W 6974   6.323   8.404  11.885
47472W        W 6975  19.197   9.370  11.403
47473W        W 6976  25.497  39.412  13.834
47474W        W 6977  44.941  14.274  12.934
47475W        W 6978   3.378  41.411  12.381
47476W        W 6979  28.973  25.188  13.799
47477W        W 6980  42.482  13.837   0.903
47478W        W 6981   0.408  41.030  10.484
47479W        W 6982   4.733  14.192  13.811
47480W        W 6983  22.736  41.892  13.941
47481W        W 6984  30.580  23.717   9.615
47482W        W 6985  26.086  11.812  13.534
47483W        W 6986  22.712  38.376   1.920
47484W        W 6987   2.302  15.257  14.363
47485W        W 6988  21.230  17.249   2.857
47486W        W 6989  30.652  31.033   0.446
47487W        W 6990  35.090  36.352   2.871
47488W        W 6991  15.127  24.671  14.496
47489W        W 6992   5.255   4.899   2.353
47490W        W 6993  28.047  26.640  14.317
47491W        W 6994   6.360  28.111   4.207
47492W        W 6995   7.413  17.725  11.128
47493W        W 6996  10.280  11.355  10.944
47494W        W 6997  17.119  38.063  12.909
47495W        W 6998  29.501  39.984  14.276
47496W        W 6999  43.896  15.186   0.883
47497W        W 7000  24.031  38.328   4.293
47498W        W 7001  15.724  21.022  14.501
47499W        W 7002   0.446   9.684   2.830
47500W        W 7003  11.706  34.887   3.248
47501W        W 7004  23.039   7.375   0.846
47502W        W 7005  41.512   8.748  13.854
47503W        W 7006  31.989   2.458  10.963
47504W        W 7007  38.032  41.982  12.365
47505W        W 7008  24.064  24.535   0.773
47506W        W 7009  43.979   2.323  13.960
47507W        W 7010  13.658  20.142  11.434
47508W        W 7011  36.466  41.357  10.008
47509W        W 7012  18.185  30.650   0.818
47510W        W 7013   4.410  30.475   1.427
47511W        W 7014  10.226  22.733   2.203
47512W        W 7015   0.795  10.270  11.984
47513W        W 7016  40.892  14.161   3.783
47514W        W 7017  44.433  37.840   1.384
47515W        W 7018  18.756  25.547   0.480
47516W        W 7019   5.354  16.302  11.050
47517W        W 7020  34.390  31.622  12.861
47518W        W 7021   7.238  33.395  13.533
47519W        W 7022  18.208   3.268  13.431
47520W        W 7023   5.348  14.800  13.983
47521W        W 7024   7.412  26.677  14.002
47522W        W 7025  43.793  38.974   2.891
47523W        W 7026  31.437   9.817   1.745
47524W        W 7027   3.834  15.323  11.383
47525W        W 7028  40.910  28.938   3.844
47526W        W 7029   6.323  13.756   0.321
47527W        W 7030  16.126   7.868   4.205
47528W        W 7031  18.785  33.388  11.505
47529W        W 7032   7.877  44.410   4.302
47530W        W 7033  43.476  35.000  14.496
47531W        W 7034  42.415   6.815   3.809
47532W        W 7035  32.095  25.103   2.185
47533W        W 7036  18.161  33.512  11.576
47534W        W 7037  44.959   4.311  14.312
47535W        W 7038  41.363  35.447  11.934
47536W        W 7039   2.391  19.220  13.489
47537W        W 7040  24.118  30.538  12.357
47538W        W 7041  31.410  17.683   0.781
47539W        W 7042  16.134  13.695   2.782
47540W        W 7043  42.428  15.146  13.041
47541W        W 7044  41.451  16.793   3.692
47542W        W 7045  29.540  13.788   3.824
47543W        W 7046  34.991  43.994   3.176
47544W        W 7047   3.439  13.155   2.366
47545W        W 7048  33.534  43.829  10.599
47546W        W 7049  24.079  16.659   3.694
47547W        W 7050  26.007  30.513  14.789
47548W        W 7051  40.979  17.255   2.729
47549W        W 7052  11.134  33.594   1.781
47550W        W 7053  17.665   3.904  14.450
47551W        W 7054   6.273  22.705  14.760
47552W        W 7055  27.056  11.691  13.510
47553W        W 7056   9.187  43.951  14.297
47554W        W 7057  12.337  43.376  11.582
47555W        W 7058  30.483  39.927   1.238
47556W        W 7059  39.896  43.309   1.327
47557W        W 7060  42.882  26.168  10.924
47558W        W 7061   8.400  25.034   4.662
47559W        W 7062   8.346  38.064  12.941
47560W        W 7063  14.103  44.502  11.475
47561W        W 7064  44.289   7.253   4.179
47562W        W 7065  34.045  15.125   3.228
47563W        W 7066  10.323  16.718  12.475
47564W        W 7067  24.716   4.924  13.822
47565W        W 7068  44.474  18.291  14.389
47566W        W 7069  17.595  44.337   2.730
47567W        W 7070   1.455  40.340  14.425
47568W        W 7071  33.451  30.615   1.239
47569W        W 7072  24.603  20.581  14.437
47570W        W 7073  18.256  40.414   0.304
47571W        W 7074   7.237   7.379   4.125
47572W        W 7075  33.440  37.833   0.404
47573W        W 7076   7.283  36.026  11.094
47574W        W 7077  17.283  14.191   0.848
47575W        W 7078  19.078  44.359  10.558
47576W        W 7079  24.693  16.605  10.999
47577W        W 7080  21.537   4.708   1.280
47578W        W 7081  30.111  41.999  14.002
47579W        W 7082   6.244  44.838  14.345
47580W        W 7083  13.220   2.842   2.179
47581W        W 7084  23.572  26.137  14.830
47582W        W 7085   4.923  14.593  10.050
47583W        W 7086  21.612  37.478  14.377
47584W        W 7087  16.289  13.627  11.380
47585W        W 7088  22.053  18.761   0.840
47586W        W 7089   4.368  17.068  13.017
47587W        W 7090  16.593  10.178  14.455
47588W        W 7091  19.280   3.399  10.590
47589W        W 7092  26.635  25.032  11.601
47590W        W 7093   4.369  28.041  12.392
47591W        W 7094  26.956  42.017  13.929
47592W        W 7095  23.733  44.496   5.584
47593W        W 7096  36.093  41.850   3.664
47594W        W 7097  11.331  10.355  13.001
47595W        W 7098  25.570  19.676   0.310
47596W        W 7099  22.213   1.839  13.438
47597W        W 7100  42.927  36.852  14.923
47598W        W 7101  43.014  26.200   1.329
47599W        W 7102  19.072  31.632  10.504
47600W        W 7103   7.754  43.316  14.021
47601W        W 7104  16.152  44.811  13.361
47602W        W 7105  14.723  44.426  12.433
47603W        W 7106  35.374  39.441  13.381
47604W        W 7107  27.604   7.373  13.428
47605W        W 7108  25.706  21.020  12.552
47606W        W 7109  34.371   0.822  13.928
47607W        W 7110  27.689  17.706   4.741
47608W        W 7111  26.149  24.619  14.999
47609W        W 7112   3.887   7.714  12.434
47610W        W 7113  23.586  26.969   4.665
47611W        W 7114  11.859   2.464   4.324
47612W        W 7115  11.234  23.040  14.398
47613W        W 7116  40.334   5.317  11.876
47614W        W 7117  19.264  31.486  12.376
47615W        W 7118  39.923  26.982   2.795
47616W        W 7119  39.981  25.079  11.482
47617W        W 7120  37.044  14.112   4.760
47618W        W 7121  40.811   3.806  13.508
47619W        W 7122  33.599  28.607   3.233
47620W        W 7123  34.537  11.746   2.404
47621W        W 7124  30.464  30.623   2.339
47622W        W 7125  38.449   2.887   4.802
47623W        W 7126  21.082  13.717   4.149
47624W        W 7127   0.961  26.524  13.041
47625W        W 7128  21.533   1.386  12.385
47626W        W 7129  42.473  10.252   4.259
47627W        W 7130  13.781  33.565   4.132
47628W        W 7131  15.734  34.519  14.840
47629W        W 7132  10.225  10.694   1.811
47630W        W 7133  38.967   5.345  14.424
47631W        W 7134  21.175  37.491   4.719
47632W        W 7135   9.713  13.711   4.321
47633W        W 7136  42.293  35.384  14.486
47634W        W 7137  24.044   5.284  13.491
47635W        W 7138  17.623  29.006  13.840
47636W        W 7139  29.103  35.585   4.275
47637W        W 7140  23.726  37.440   0.307
47638W        W 7141  42.442  18.659   3.332
47639W        W 7142  12.124  34.053   2.900
47640W        W 7143   4.285  32.457  11.080
47641W        W 7144  42.921  38.335  14.891
47642W        W 7145  43.856  26.955   1.753
47643W        W 7146  27.447  30.545   3.730
47644W        W 7147  32.015  22.137  11.909
47645W        W 7148  30.535  42.442   3.750
47646W        W 7149  31.541  32.492  11.933
47647W        W 7150  29.081  14.222   2.744
47648W        W 7151  44.881  18.100  13.323
47649W        W 7152  44.479  37.926   5.155
47650W        W 7153  11.803  16.636  13.426
47651W        W 7154  28.140  39.334   3.247
47652W        W 7155  14.781  11.822  11.052
47653W        W 7156  23.618  17.701   1.825
47654W        W 7157   2.961  18.205  10.589
47655W        W 7158  32.586  19.533  10.530
47656W        W 7159  44.772  33.587  10.419
47657W        W 7160   1.946  20.685  14.353
47658W        W 7161  34.584  21.196   0.319
47659W        W 7162   1.942  21.078   0.309
47660W        W 7163  19.664  33.076   3.735
47661W        W 7164  12.153  22.584   1.808
47662W        W 7165   4.267  25.980   3.690
47663W        W 7166  42.446  24.536  10.989
47664W        W 7167   8.250   4.419   1.792
47665W        W 7168  28.088  15.804  12.065
47666W        W 7169  42.452  18.204   2.361
47667W        W 7170  19.157  27.129   4.704
47668W        W 7171  21.591  40.469  14.826
47669W        W 7172  12.267  22.117   2.210
47670W        W 7173  20.083  25.033  12.919
47671W        W 7174  32.010  23.711  11.870
47672W        W 7175  36.379   3.801   2.236
47673W        W 7176  22.214   9.745  14.976
47674W        W 7177   3.812  11.303   1.216
47675W        W 7178  23.502  19.216  13.537
47676W        W 7179  22.057  13.206   4.818
47677W        W 7180   7.709  17.579   2.294
47678W        W 7181   5.775  26.024   3.711
47679W        W 7182  32.451  38.438   5.772
47680W        W 7183  10.877   3.790   4.718
47681W        W 7184  28.569  26.113  10.451
47682W        W 7185   5.871  29.035   3.174
47683W        W 7186  25.600  20.656  10.589
47684W        W 7187  30.629  22.019  11.079
47685W        W 7188   0.437  24.181  11.019
47686W        W 7189  33.994   2.821   0.741
47687W        W 7190  42.300  24.536  10.531
47688W        W 7191  12.724  18.779   4.275
47689W        W 7192  38.527   7.361  14.344
47690W        W 7193  10.741  42.490  11.907
47691W        W 7194  18.605  40.871   0.249
47692W        W 7195  25.595  44.812  13.437
47693W        W 7196   9.708  17.176   2.394
47694W        W 7197  38.411  24.207   4.612
47695W        W 7198  22.527  33.964  13.050
47696W        W 7199  25.582  41.462  10.562
47697W        W 7200  41.509  43.988  12.998
47698W        W 7201  43.371  34.576   0.804
47699W        W 7202  30.947   1.766   2.744
47700W        W 7203  29.598  34.427  12.540
47701W        W 7204   2.771  15.188  10.513
47702W        W 7205  28.063   5.213  14.515
47703W        W 7206  42.834  25.664   1.397
47704W        W 7207  31.582   1.396   3.244
47705W        W 7208   7.756   3.318   0.781
47706W        W 7209  18.234  36.479  13.948
47707W        W 7210   8.666   1.769  10.512
47708W        W 7211  17.674  21.185  12.401
47709W        W 7212  14.161  39.016   0.444
47710W        W 7213  13.268   4.357   0.899
47711W        W 7214  37.336  23.020  10.591
47712W        W 7215  28.072   7.233   3.814
47713W        W 7216  41.321  11.358   3.813
47714W        W 7217  41.469  13.345  12.464
47715W        W 7218  14.654  14.774   4.203
47716W        W 7219  28.955  19.686  13.841
47717W        W 7220  13.210   6.299   5.200
47718W        W 7221  35.911  13.832   3.240
47719W        W 7222   3.367   0.369   2.685
47720W        W 7223  11.675   8.792   3.831
47721W        W 7224   2.821  30.083  13.461
47722W        W 7225  23.680   9.709  10.920
47723W        W 7226  26.469  40.350   3.678
47724W        W 7227  17.739  10.209   4.119
47725W        W 7228  13.808  32.393  13.335
47726W        W 7229  33.989  44.817   4.313
47727W        W 7230  35.881  21.261  13.047
47728W        W 7231  31.548  33.889  12.932
47729W        W 7232  12.759   1.965  11.593
47730W        W 7233  37.880   5.265   2.776
47731W        W 7234   6.837   5.924   4.818
47732W        W 7235  35.456  19.774  11.440
47733W        W 7236  13.629  43.805  14.358
47734W        W 7237  43.784  33.908   4.739
47735W        W 7238  39.820  12.730   3.185
47736W        W 7239   3.303  15.114  11.423
47737W        W 7240  25.681   7.287  10.027
47738W        W 7241   0.968  29.157   0.943
47739W        W 7242  12.618  29.017  11.450
47740W        W 7243  12.696  41.411  13.489
47741W        W 7244  18.172  13.831  12.519
47742W        W 7245   8.310  39.985  11.507
47743W        W 7246  33.923  39.022   3.632
47744W        W 7247  35.873  10.734   4.632
47745W        W 7248  20.036   5.213  10.641
47746W        W 7249  12.122  20.714   0.272
47747W        W 7250  26.551  11.705   5.313
47748W        W 7251  31.599  36.851  10.897
47749W        W 7252  39.498  27.544  10.536
47750W        W 7253  30.598  11.239  10.952
47751W        W 7254  31.919  17.705   3.675
47752W        W 7255  33.509  35.492   0.248
47753W        W 7256   9.368  31.104   2.858
47754W        W 7257   8.742   5.869   3.320
47755W        W 7258   3.261  31.113  13.506
47756W        W 7259  30.154  41.372   2.725
47757W        W 7260   0.951  23.720   2.362
47758W        W 7261   9.849  17.598  12.383
47759W        W 7262   1.862   7.404   2.871
47760W        W 7263  36.966  36.498   2.372
47761W        W 7264   0.795  41.024  11.093
47762W        W 7265  17.641  10.673  11.568
47763W        W 7266  19.229  24.197   4.681
47764W        W 7267   1.276  30.513   0.294
47765W        W 7268  33.584  43.374   4.617
47766W        W 7269   6.858  44.905   0.354
47767W        W 7270   9.218  27.454  14.469
47768W        W 7271  37.854  41.946  14.957
47769W        W 7272  28.030   9.711  10.970
47770W        W 7273   9.809  39.506  13.405
47771W        W 7274  33.964  42.922  14.768
47772W        W 7275  27.160  42.942   1.228
47773W        W 7276  12.351  20.708  12.399
47774W        W 7277   3.811  40.320   4.284
47775W        W 7278  25.008  43.480  13.838
47776W        W 7279  33.915  18.294   0.814
47777W        W 7280   2.302   5.792  10.622
47778W        W 7281  39.973  28.149  13.456
47779W        W 7282  26.079  14.257   0.784
47780W        W 7283   4.396  22.570   0.858
47781W        W 7284  31.119  18.214   0.965
47782W        W 7285   0.466  23.594   5.146
47783W        W 7286   3.868  41.473   2.661
47784W        W 7287  18.280  27.159  14.487
47785W        W 7288  15.166  24.561   3.266
47786W        W 7289   9.324  16.197   1.274
47787W        W 7290   4.345  19.280   4.815
47788W        W 7291  20.217   0.903   0.768
47789W        W 7292  39.480  18.119  14.903
47790W        W 7293  38.042  25.204   2.721
47791W        W 7294  19.564  44.846  13.062
47792W        W 7295  18.244  31.454   4.204
47793W        W 7296  22.206  41.530   2.846
47794W        W 7297  29.039  39.459  11.010
47795W        W 7298  12.305  33.382  13.040
47796W        W 7299   1.393  26.025   1.774
47797W        W 7300  28.627  28.977  12.018
47798W        W 7301  35.914  25.070   3.772
47799W        W 7302  17.222  41.436   1.786
47800W        W 7303  13.318  11.727  13.919
47801W        W 7304  39.911  11.721  14.855
47802W        W 7305  26.185   3.306  14.337
47803W        W 7306  39.032   4.296   3.700
47804W        W 7307  17.647  17.275   3.367
47805W        W 7308  14.817  17.599   2.231
47806W        W 7309  45.000  18.127  12.518
47807W        W 7310  40.009   5.400  14.869
47808W        W 7311  30.105  37.402  14.376
47809W        W 7312   4.369  25.707   1.807
47810W        W 7313  34.451  40.871   3.366
47811W        W 7314  10.248  44.936   1.394
47812W        W 7315  44.848  40.885  11.017
47813W        W 7316   7.900  42.284  12.039
47814W        W 7317  27.521  10.714   2.362
47815W        W 7318  14.767   7.319   3.816
47816W        W 7319  24.575  23.564   4.300
47817W        W 7320  26.070   7.228  12.964
47818W        W 7321   2.430   3.341  11.093
47819W        W 7322  30.005  31.039   2.736
47820W        W 7323  33.946  31.511   0.834
47821W        W 7324   5.886  18.109   0.799
47822W        W 7325  28.178  21.056  11.994
47823W        W 7326  23.007  41.801   4.786
47824W        W 7327  22.579  33.607   2.787
47825W        W 7328  22.589  37.924  13.358
47826W        W 7329  38.990   2.350   2.891
47827W        W 7330  32.015   9.329   3.272
47828W        W 7331  13.326  25.518   1.232
47829W        W 7332  10.223  39.043   1.724
47830W        W 7333   5.341  44.312  14.367
47831W        W 7334  41.414  11.771  10.508
47832W        W 7335  36.396  36.354  14.801
47833W        W 7336  43.898  28.987  10.983
47834W        W 7337  12.184   7.237   4.771
47835W        W 7338  37.396   7.694   2.406
47836W        W 7339   1.426  19.581   9.530
47837W        W 7340  25.566  39.494   2.191
47838W        W 7341  35.854   7.908  11.417
47839W        W 7342  14.758   4.902  11.552
47840W        W 7343  44.789  21.730   3.785
47841W        W 7344  10.759  16.693  13.536
47842W        W 7345   3.722  39.478   0.398
47843W        W 7346  36.898  35.569   1.721
47844W        W 7347  14.788  15.296  13.408
47845W        W 7348  23.109   8.378  14.479
47846W        W 7349  39.313   0.454   2.694
47847W        W 7350  19.752  29.581  10.917
47848W        W 7351  26.593  13.642   3.674
47849W        W 7352  21.596  13.763  14.938
47850W        W 7353  40.867  20.153   4.759
47851W        W 7354  15.101  35.496   1.401
47852W        W 7355  19.596  40.481   0.301
47853W        W 7356   3.923  39.322   3.385
47854W        W 7357  43.376   9.394   1.833
47855W        W 7358   9.301  22.060   3.864
47856W        W 7359  16.146  43.273  12.994
47857W        W 7360  30.106  17.191  11.377
47858W        W 7361  43.849  19.266   4.250
47859W        W 7362  31.023  27.680   0.427
47860W        W 7363  23.207   5.399   3.225
47861W        W 7364  42.985  17.564  11.073
47862W        W 7365  34.880   3.234  13.928
47863W        W 7366   5.759  30.553   0.803
47864W        W 7367   4.900  28.065  14.990
47865W        W 7368  44.819  43.483   4.759
47866W        W 7369  41.341   1.937   0.941
47867W        W 7370   8.816  36.945   2.723
47868W        W 7371  23.126  31.062   4.821
47869W        W 7372  36.520  18.113   0.275
47870W        W 7373  20.627  36.515  13.800
47871W        W 7374  44.322  40.906   4.333
47872W        W 7375   3.223  37.485  13.425
47873W        W 7376  30.164  23.525   1.712
47874W        W 7377  44.835  17.709   3.682
47875W        W 7378  44.407  13.770   1.410
47876W        W 7379  30.150  30.588  14.782
47877W        W 7380  17.758  27.014  13.801
47878W        W 7381  29.163  40.030   2.771
47879W        W 7382  16.789   5.700  14.872
47880W        W 7383  21.662  38.968   4.145
47881W        W 7384   3.458  17.231  10.538
47882W        W 7385  32.555  28.675   1.750
47883W        W 7386  15.693  36.467   1.901
47884W        W 7387   4.246  26.463  14.958
47885W        W 7388  43.436  24.594   4.279
47886W        W 7389  16.175  22.085  13.822
47887W        W 7390   3.253  39.323   0.322
47888W        W 7391   3.905   8.860   1.318
47889W        W 7392  21.522  32.614   2.266
47890W        W 7393  38.075   2.299  14.351
47891W        W 7394  25.690  33.030  13.063
47892W        W 7395  42.414  23.103  14.302
47893W        W 7396   7.752  32.439  12.013
47894W        W 7397  32.002  22.561  14.850
47895W        W 7398  29.534  28.468  13.346
47896W        W 7399  22.673  30.001  12.826
47897W        W 7400   6.819  22.693  13.049
47898W        W 7401  19.542  44.963  14.988
47899W        W 7402  12.618  11.656  14.313
47900W        W 7403  40.548  29.542  13.495
47901W        W 7404   6.278  15.289   0.297
47902W        W 7405  31.553  38.371  12.500
47903W        W 7406  23.705   8.220  13.447
47904W        W 7407  23.200  21.023   2.665
47905W        W 7408  24.033  15.816   2.859
47906W        W 7409   2.832  36.456  12.074
47907W        W 7410  38.931  38.045   3.249
47908W        W 7411  11.344  17.687   4.305
47909W        W 7412  24.130  40.500   1.266
47910W        W 7413   7.865  40.478   3.293
47911W        W 7414   1.811  23.186   2.241
47912W        W 7415  26.643  41.415  11.421
47913W        W 7416   7.729  23.997   1.792
47914W        W 7417   7.795  34.877  11.442
47915W        W 7418  24.623  24.550  14.781
47916W        W 7419  15.265  25.522  14.302
47917W        W 7420   8.741  12.190   2.871
47918W        W 7421  21.629  41.795  10.618
47919W        W 7422   3.235  12.119  10.603
47920W        W 7423   7.209  26.581   3.351
47921W        W 7424  14.137  19.134   1.260
47922W        W 7425  32.906  18.289   2.258
47923W        W 7426  11.284  40.426  12.435
47924W        W 7427   7.685   8.674  13.919
47925W        W 7428   3.398  36.085   0.437
47926W        W 7429  31.917  30.467   1.317
47927W        W 7430  27.068  15.657   1.747
47928W        W 7431  30.998   1.418  11.396
47929W        W 7432   0.483  19.723   2.368
47930W        W 7433  16.603   7.341  11.112
47931W        W 7434   2.727  15.819  11.385
47932W        W 7435  28.604  43.890  12.348
47933W        W 7436  18.200  31.067  10.977
47934W        W 7437   9.151   8.358   2.331
47935W        W 7438  16.191   9.746  13.975
47936W        W 7439  24.204   2.925   4.764
47937W        W 7440  22.220  17.683  11.508
47938W        W 7441  35.893  35.997  10.527
47939W        W 7442   1.267  18.112   0.799
47940W        W 7443  35.017  11.277  13.880
47941W        W 7444  31.537  36.568   2.714
47942W        W 7445   8.332   5.777  11.043
47943W        W 7446   8.224   8.381  10.421
47944W        W 7447   3.864  15.664   4.677
47945W        W 7448   2.286  28.003   2.780
47946W        W 7449   4.333  23.011  10.487
47947W        W 7450   4.725  29.569   1.352
47948W        W 7451  38.029  17.754   2.267
47949W        W 7452  36.544  42.929  11.376
47950W        W 7453   4.801  39.362   3.796
47951W        W 7454  36.871   9.671  13.053
47952W        W 7455   1.963  41.382   5.285
47953W        W 7456   1.250  16.599   2.707
47954W        W 7457   2.934  22.534  11.026
47955W        W 7458   9.702  35.537  12.476
47956W        W 7459  43.786  15.707  14.980
47957W        W 7460  31.508  43.973   3.303
47958W        W 7461  38.955  35.064  14.515
47959W        W 7462   0.909  13.266  10.597
47960W        W 7463  27.626  31.131   3.841
47961W        W 7464  32.937  20.607  11.976
47962W        W 7465  15.783  35.877   4.641
47963W        W 7466  19.159  15.279   2.199
47964W        W 7467   9.359  33.481  14.872
47965W        W 7468  20.207  32.463  12.395
47966W        W 7469  27.659  33.987  14.991
47967W        W 7470  25.526  34.586   4.810
47968W        W 7471  38.831  10.724  13.375
47969W        W 7472  23.041  12.729   4.189
47970W        W 7473  19.721   7.268   0.744
47971W        W 7474  18.629  36.564   1.396
47972W        W 7475  33.388  16.193  13.434
47973W        W 7476   1.314  39.554  11.497
47974W        W 7477  40.469  17.557   4.710
47975W        W 7478  37.030  35.096  10.931
47976W        W 7479   6.860   8.869  10.535
47977W        W 7480   4.419  11.245   4.804
47978W        W 7481  12.732  28.637   4.197
47979W        W 7482  27.045   1.806  14.916
47980W        W 7483   0.930  37.868   0.363
47981W        W 7484  15.201  36.554   1.922
47982W        W 7485  23.062  37.867  11.970
47983W        W 7486  28.450   8.798  13.466
47984W        W 7487   8.718  27.671   4.619
47985W        W 7488  27.502   1.925   4.316
47986W        W 7489  19.612  36.382  10.413
47987W        W 7490  10.226   4.216  11.991
47988W        W 7491   8.682  37.975   1.431
47989W        W 7492  19.542  39.472   4.761
47990W        W 7493   3.871  20.611   0.456
47991W        W 7494  14.708  36.037   4.173
47992W        W 7495  26.125  31.112  14.302
47993W        W 7496  35.574  38.994   1.251
47994W        W 7497  35.973  42.450  14.865
47995W        W 7498  19.212  23.099  10.619
47996W        W 7499  32.607  11.233   0.726
47997W        W 7500  38.412   1.977  11.435
47998W        W 7501  21.664  43.314  11.548
47999W        W 7502  26.630  30.954  11.124
48000W        W 7503  44.502  37.832   0.409
48001W        W 7504  20.231  33.499   0.860
48002W        W 7505  42.821   2.726   0.338
48003W        W 7506   1.804  21.617   0.875
48004W        W 7507  15.811  16.171   3.287
48005W        W 7508  35.854  41.475  12.544
48006W        W 7509  24.625  10.195   0.457
48007W        W 7510  17.747  36.485  14.885
48008W        W 7511  10.633   1.789  12.489
48009W        W 7512  43.397   4.919   4.674
48010W        W 7513  44.385  22.538   1.270
48011W        W 7514  38.475  12.313   0.892
48012W        W 7515  36.985  29.535   3.154
48013W        W 7516  43.961  17.250   2.865
48014W        W 7517  26.472  28.442   4.181
48015W        W 7518   1.467  36.976   4.673
48016W        W 7519  17.784  13.318  11.591
48017W        W 7520  35.425   0.360  13.005
48018W        W 7521  17.674  29.493   1.844
48019W        W 7522  30.071  16.213  10.894
48020W        W 7523  14.254  33.408   4.659
48021W        W 7524  42.368   2.284  10.948
48022W        W 7525   2.851  18.587  12.857
48023W        W 7526  38.368  14.736   0.412
48024W        W 7527  40.964  32.412  11.890
48025W        W 7528   9.867  32.570   3.790
48026W        W 7529  11.741  32.532   0.377
48027W        W 7530  20.167   8.695  11.009
48028W        W 7531  39.025   4.868  12.435
48029W        W 7532   0.918  31.990  14.864
48030W        W 7533  30.425   3.248  13.838
48031W        W 7534   6.371  25.194   1.424
48032W        W 7535   5.930  11.206  12.453
48033W        W 7536  10.744   3.953  12.375
48034W        W 7537  24.136  23.022   1.837
48035W        W 7538  15.723   8.803  11.456
48036W        W 7539   3.287  23.039   0.269
48037W        W 7540  16.084  37.077   0.736
48038W        W 7541  31.983  21.249   3.207
48039W        W 7542  28.552  43.878  13.022
48040W        W 7543  40.837  32.078  14.991
48041W        W 7544   6.311  25.510  12.446
48042W        W 7545  33.905   3.311  14.794
48043W        W 7546  42.024  13.213   0.476
48044W        W 7547  43.516  26.620   2.362
48045W        W 7548   7.230  37.973   0.863
48046W        W 7549   2.938   5.385   4.323
48047W        W 7550   6.306  18.606  13.481
48048W        W 7551  22.186  41.930   0.863
48049W        W 7552   8.404  20.188   0.390
48050W        W 7553  14.275  32.130   0.339
48051W        W 7554  11.631  29.579   2.274
48052W        W 7555  18.097   7.761  11.049
48053W        W 7556  18.772  25.999   2.185
48054W        W 7557  26.043  24.991  14.803
48055W        W 7558  22.223  21.748  14.865
48056W        W 7559  25.072   9.803   1.299
48057W        W 7560  38.401  12.634   3.325
48058W        W 7561   9.244   6.274  13.530
48059W        W 7562  35.532  20.659   1.312
48060W        W 7563  32.104  38.046  14.417
48061W        W 7564  42.492  17.589  11.402
48062W        W 7565  10.260  14.269  14.454
48063W        W 7566  38.050  20.245   2.230
48064W        W 7567   2.839   8.347  12.362
48065W        W 7568  24.012  29.995   4.609
48066W        W 7569  23.582   6.388   1.402
48067W        W 7570  37.423  41.001   4.673
48068W        W 7571  27.092  44.784  12.576
48069W        W 7572  26.587  36.916   0.362
48070W        W 7573  27.593  38.927   1.319
48071W        W 7574  13.750  29.606  11.412
48072W        W 7575  19.224  12.215  13.838
48073W        W 7576  13.285  16.219  14.959
48074W        W 7577  18.747  40.962  10.414
48075W        W 7578  36.088   3.250   3.347
48076W        W 7579  11.138  25.999   3.173
48077W        W 7580   1.850  33.464   1.298
48078W        W 7581   9.678  23.132   3.232
48079W        W 7582   1.806  27.512  14.365
48080W        W 7583  19.267  41.482  10.571
48081W        W 7584  22.685   5.312  13.344
48082W        W 7585  43.294   1.763  10.123
48083W        W 7586  36.388  41.807   4.333
48084W        W 7587  22.531  38.914   3.794
48085W        W 7588   7.237  20.596  10.552
48086W        W 7589   5.771  44.995  10.975
48087W        W 7590  17.671  33.952  13.932
48088W        W 7591  20.213  20.715   1.925
48089W        W 7592   4.352  16.676  11.580
48090W        W 7593   5.239   3.841  11.373
48091W        W 7594  38.074  10.708   4.329
48092W        W 7595  20.604  34.982  14.425
48093W        W 7596  36.550  38.563  13.467
48094W        W 7597  11.265   5.907   3.748
48095W        W 7598  34.375   3.301   2.266
48096W        W 7599   5.701  30.105   0.911
48097W        W 7600  18.777  22.144   4.193
48098W        W 7601  27.153   9.290   0.252
48099W        W 7602  41.918  21.020   2.714
48100W        W 7603   9.880  35.937  11.569
48101W        W 7604  22.686  40.493   0.744
48102W        W 7605  36.982   1.414   3.813
48103W        W 7606  33.038  15.154   3.158
48104W        W 7607  29.028  13.138   1.697
48105W        W 7608  15.737  38.995   4.623
48106W        W 7609  37.547   2.436   3.856
48107W        W 7610  37.939  17.616   3.855
48108W        W 7611  26.547  36.542  11.416
48109W        W 7612  19.549  41.890   0.351
48110W        W 7613  11.221   0.786  14.411
48111W        W 7614  15.299  14.738   0.437
48112W        W 7615  30.067   7.409   3.375
48113W        W 7616  28.629  19.681  10.965
48114W        W 7617  31.907  37.502   1.847
48115W        W 7618   9.814  33.437   1.933
48116W        W 7619  14.102   9.367   0.930
48117W        W 7620  33.040  29.453   2.835
48118W        W 7621  26.641  36.992  12.466
48119W        W 7622  22.043  25.491  13.840
48120W        W 7623  37.460  31.015   0.447
48121W        W 7624  44.356  34.614   0.924
48122W        W 7625   8.332  18.564  11.932
48123W        W 7626  29.556   8.875  10.524
48124W        W 7627   8.688  41.507   4.208
48125W        W 7628  36.892  17.789  10.930
48126W        W 7629  43.378  12.730  13.999
48127W        W 7630  20.618  25.024   4.737
48128W        W 7631  17.599  42.829  10.993
48129W        W 7632  21.731  28.122   1.830
48130W        W 7633  14.632   3.788  14.462
48131W        W 7634  24.081   6.330   1.422
48132W        W 7635  24.073  24.102  12.344
48133W        W 7636  18.069  21.628  13.054
48134W        W 7637  36.372  24.160  11.872
48135W        W 7638  37.497   1.330  14.883
48136W        W 7639  22.998   1.879  12.427
48137W        W 7640   9.277  40.019  13.801
48138W        W 7641  25.041   8.846  12.049
48139W        W 7642  43.401  10.327  13.826
48140W        W 7643  40.308   4.400   1.263
48141W        W 7644   1.412   7.740  13.998
48142W        W 7645   6.345   0.791  13.321
48143W        W 7646  11.828  38.448   2.325
48144W        W 7647  10.201  19.577  10.961
48145W        W 7648   0.254  33.589  14.324
48146W        W 7649  32.936  28.181   0.944
48147W        W 7650  42.391  34.406   3.671
48148W        W 7651   2.791  30.090   9.658
48149W        W 7652   4.214  30.940  12.361
48150W        W 7653  10.639  24.007  11.907
48151W        W 7654  22.074   7.191   0.463
48152W        W 7655   3.809  34.969  10.509
48153W        W 7656  27.118  18.648  13.459
48154W        W 7657   2.303  29.488  14.865
48155W        W 7658   4.929  14.647   2.736
48156W        W 7659  32.617  11.146   3.302
48157W        W 7660   7.858  41.804   1.384
48158W        W 7661  22.647  44.929  11.601
48159W        W 7662  11.799  18.132   3.642
48160W        W 7663  39.527   4.207  12.903
48161W        W 7664  42.891  17.107  13.378
48162W        W 7665   5.282  35.055   3.790
48163W        W 7666  21.149  22.187  13.830
48164W        W 7667  36.906  16.591  11.550
48165W        W 7668  24.696  29.000  12.364
48166W        W 7669  26.008  33.415  13.025
48167W        W 7670  29.643   1.748  12.916
48168W        W 7671  21.569  12.313  12.462
48169W        W 7672  33.610  31.129  10.939
48170W        W 7673  12.182  33.380   5.753
48171W        W 7674  12.337  20.636   3.156
48172W        W 7675  44.911   7.670  12.065
48173W        W 7676  14.773  41.377   3.293
48174W        W 7677  43.330   4.803   4.299
48175W        W 7678  14.645  16.801   3.196
48176W        W 7679  40.404  27.681  11.586
48177W        W 7680   3.460  35.454   2.666
48178W        W 7681  43.958  16.658  12.993
48179W        W 7682   8.802  15.810   2.792
48180W        W 7683   4.878   0.838  14.880
48181W        W 7684  44.431   8.733  12.972
48182W        W 7685  35.024  17.238  14.920
48183W        W 7686  20.630   9.163  13.897
48184W        W 7687  41.835  44.860   3.284
48185W        W 7688  42.878  32.009   3.634
48186W        W 7689  30.537  16.118  11.519
48187W        W 7690  18.068  41.396  12.477
48188W        W 7691  13.274   2.455   3.274
48189W        W 7692  36.071  14.816  11.954
48190W        W 7693   7.775  34.400  14.968
48191W        W 7694  19.238  20.216  12.839
48192W        W 7695   4.782   3.845   4.260
48193W        W 7696  28.619   0.358   1.250
48194W        W 7697  40.459  14.642  14.493
48195W        W 7698   1.278  28.513   0.883
48196W        W 7699  39.552   5.852   3.772
48197W        W 7700  33.618  21.689   4.786
48198W        W 7701  12.634  26.074  14.898
48199W        W 7702  15.155  13.123  13.325
48200W        W 7703  29.000  30.983  10.555
48201W        W 7704  34.991  10.648  11.403
48202W        W 7705  18.704  19.088   0.416
48203W        W 7706  41.013  30.971   4.289
48204W        W 7707   8.699  23.134  14.504
48205W        W 7708  35.581  21.109   3.152
48206W        W 7709   0.466  43.923  14.455
48207W        W 7710  38.476  23.509   3.780
48208W        W 7711  42.363  28.602   0.764
48209W        W 7712  15.138   5.236   2.757
48210W        W 7713   8.868  31.597   5.263
48211W        W 7714   2.875  11.223  13.044
48212W        W 7715  38.416  39.499   4.791
48213W        W 7716  12.323  11.718  11.877
48214W        W 7717   1.257  27.063   0.426
48215W        W 7718  29.491  30.580   4.148
48216W        W 7719  35.382  12.781   1.757
48217W        W 7720  14.625  44.390  10.501
48218W        W 7721  32.117  19.745   0.293
48219W        W 7722  17.589  43.789  13.039
48220W        W 7723  17.734  24.527   2.230
48221W        W 7724  14.604  38.558  13.054
48222W        W 7725  19.591   8.825   1.856
48223W        W 7726   9.765  33.426   9.646
48224W        W 7727   5.705  29.985   4.714
48225W        W 7728  14.618  12.271  14.775
48226W        W 7729   4.924  17.079   2.816
48227W        W 7730   7.688  29.640   2.828
48228W        W 7731  15.229   7.404   1.215
48229W        W 7732   4.744  19.264   3.323
48230W        W 7733   1.418  36.962   3.338
48231W        W 7734   0.805  22.514  11.017
48232W        W 7735   0.954  31.998   1.737
48233W        W 7736  15.648  22.244  13.510
48234W        W 7737  20.160  29.118  10.462
48235W        W 7738  40.009  27.164   2.260
48236W        W 7739  28.933  19.197  12.466
48237W        W 7740  33.004  33.875   2.806
48238W        W 7741  28.546  29.551   0.456
48239W        W 7742   2.261  36.974   1.933
48240W        W 7743  12.188   3.863  13.892
48241W        W 7744   9.832   7.412   4.684
48242W        W 7745  25.145   8.879  14.799
48243W        W 7746  10.662  40.317   2.717
48244W        W 7747  25.532   4.848  10.948
48245W        W 7748  18.149  38.905  14.291
48246W        W 7749  10.837  43.367   2.703
48247W        W 7750  39.522  22.206   0.904
48248W        W 7751  28.993   0.758   4.142
48249W        W 7752  18.067  16.722   0.933
48250W        W 7753   9.792  38.446  10.563
48251W        W 7754  30.037  24.602   0.423
48252W        W 7755   2.400  41.867  13.894
48253W        W 7756  42.328  16.201  11.044
48254W        W 7757  25.193   7.271   2.676
48255W        W 7758  27.652  27.682   4.606
48256W        W 7759  17.688  17.256  10.641
48257W        W 7760   7.173  26.497  14.338
48258W        W 7761  25.204  35.097   2.839
48259W        W 7762  41.418   2.324   3.854
48260W        W 7763   1.974  41.876  10.483
48261W        W 7764  18.219  22.513   2.768
48262W        W 7765  24.013  25.168  13.307
48263W        W 7766  18.743   1.388  11.938
48264W        W 7767  44.984  44.496   4.812
48265W        W 7768   8.361  25.082   4.350
48266W        W 7769  37.069  19.727   0.740
48267W        W 7770   9.278  17.665   1.397
48268W        W 7771   7.396  43.810   4.798
48269W        W 7772  34.037  20.671  11.423
48270W        W 7773  27.059   7.691  13.974
48271W        W 7774   1.958  28.168   2.375
48272W        W 7775  17.270  19.615  13.381
48273W        W 7776  36.371   2.836   4.821
48274W        W 7777   4.757   7.901  14.795
48275W        W 7778  44.275   4.750  10.895
48276W        W 7779  35.472   7.195   1.696
48277W        W 7780   7.844  11.157   0.740
48278W        W 7781  41.958  29.953   0.415
48279W        W 7782   1.737   8.785  13.435
48280W        W 7783  38.543  24.030  14.774
48281W        W 7784  39.484  43.968  12.574
48282W        W 7785  21.183   3.721   1.384
48283W        W 7786  13.250  17.641   1.800
48284W        W 7787  42.404  16.758  13.856
48285W        W 7788  16.761  11.683  13.474
48286W        W 7789  14.821  11.318  14.999
48287W        W 7790  29.928   4.226   3.790
48288W        W 7791  20.115  22.208   3.722
48289W        W 7792  21.127  30.607  10.613
48290W        W 7793  14.297  37.080   1.916
48291W        W 7794   8.357  24.090  11.936
48292W        W 7795  17.258  34.017   4.760
48293W        W 7796  20.050  22.040  12.385
48294W        W 7797  44.924  19.619   2.349
48295W        W 7798  19.721  22.658  14.804
48296W        W 7799  32.975  31.949  12.987
48297W        W 7800  20.719  44.494  14.956
48298W        W 7801  20.045  11.810   1.754
48299W        W 7802  14.762  26.675  12.521
48300W        W 7803   5.856  19.202   3.330
48301W        W 7804  31.932  23.027  13.906
48302W        W 7805  36.478  38.870  11.522
48303W        W 7806  23.031  42.886  13.038
48304W        W 7807  18.621  23.607   4.292
48305W        W 7808  17.567  31.946   3.205
48306W        W 7809  30.546  36.476   3.233
48307W        W 7810  32.058  43.952   0.363
48308W        W 7811   4.315   8.693   1.262
48309W        W 7812  41.946  11.211   2.268
48310W        W 7813   5.877  27.686   0.356
48311W        W 7814  36.457  21.144   1.232
48312W        W 7815  21.592  38.960  13.471
48313W        W 7816   9.805  31.599  13.366
48314W        W 7817  43.310   0.325  14.998
48315W        W 7818   2.309  40.843  12.087
48316W        W 7819   4.910  35.581  10.493
48317W        W 7820   8.664  39.938  13.054
48318W        W 7821  35.543  15.613  10.563
48319W        W 7822   4.206  28.000  13.313
48320W        W 7823  19.728  43.377  11.932
48321W        W 7824  43.908  24.009  11.430
48322W        W 7825   8.710  12.729   4.650
48323W        W 7826   8.255  30.484  10.914
48324W        W 7827  34.600  25.698  14.387
48325W        W 7828  36.916  30.070   4.830
48326W        W 7829  15.627  15.245  10.505
48327W        W 7830  19.263  29.431   3.288
48328W        W 7831   2.238   2.938   3.174
48329W        W 7832  25.559  15.250  10.537
48330W        W 7833  17.797   2.930   0.319
48331W        W 7834  17.302  44.801   3.791
48332W        W 7835   7.798  16.660   0.729
48333W        W 7836  17.754   0.282  11.077
48334W        W 7837  12.847  26.620  14.380
48335W        W 7838  23.059  21.127   4.793
48336W        W 7839  18.188   9.888   2.728
48337W        W 7840  29.430  26.197   2.714
48338W        W 7841  18.288  38.896  10.566
48339W        W 7842  28.641   5.766   1.904
48340W        W 7843  14.737   4.778  14.020
48341W        W 7844   5.779  42.889  10.985
48342W        W 7845  12.796  23.211   4.701
48343W        W 7846  18.595  44.973   0.783
48344W        W 7847  27.090  42.527   3.864
48345W        W 7848   7.859  32.597   4.833
48346W        W 7849  22.652  16.146  11.042
48347W        W 7850  14.822  33.417   1.802
48348W        W 7851  29.449   2.450  10.992
48349W        W 7852  24.073  18.761  11.901
48350W        W 7853   8.694  33.968   4.639
48351W        W 7854  14.631  32.429   2.306
48352W        W 7855  27.981  17.605  13.472
48353W        W 7856  12.692  15.594  14.372
48354W        W 7857  42.367  31.424  14.025
48355W        W 7858  26.196  38.396  11.986
48356W        W 7859  24.478  27.582  12.343
48357W        W 7860   6.185  16.593   0.386
48358W        W 7861  28.506   0.487  12.868
48359W        W 7862  20.710  13.239  14.875
48360W        W 7863  44.454  38.046   1.749
48361W        W 7864  29.050  41.315  11.556
48362W        W 7865  22.245  38.386  10.421
48363W        W 7866  14.205  13.768   4.212
48364W        W 7867  14.718  26.032  14.448
48365W        W 7868  15.581  41.306  11.529
48366W        W 7869  10.186  33.956  14.464
48367W        W 7870  32.027  19.729   0.858
48368W        W 7871  25.503  15.792   2.307
48369W        W 7872  43.426  19.053  12.524
48370W        W 7873  41.368  16.588  14.296
48371W        W 7874  12.190   5.372  12.577
48372W        W 7875  26.532  28.459   1.729
48373W        W 7876  29.000  23.095  11.574
48374W        W 7877  37.511  22.525  10.547
48375W        W 7878   3.870  26.969  14.417
48376W        W 7879  26.189  27.548   3.767
48377W        W 7880  44.968  13.273  10.524
48378W        W 7881  12.703  15.258   1.905
48379W        W 7882  15.102  20.240   0.444
48380W        W 7883   1.904  41.920  13.982
48381W        W 7884  40.971  24.171  10.972
48382W        W 7885  18.691   2.742   0.344
48383W        W 7886  17.216  28.575  12.924
48384W        W 7887   2.405   9.256  13.820
48385W        W 7888  30.525  43.935   3.363
48386W        W 7889  40.518  39.857   4.796
48387W        W 7890  37.479  40.442   0.434
48388W        W 7891  34.376  24.566  10.564
48389W        W 7892  33.914  41.914  13.061
48390W        W 7893  27.560  26.464  10.596
48391W        W 7894  18.549  18.696   5.098
48392W        W 7895   3.297   0.983   1.742
48393W        W 7896  28.946  28.036   1.260
48394W        W 7897  21.750  23.607   3.650
48395W        W 7898  26.146  10.668  12.908
48396W        W 7899  39.956  14.100   3.674
48397W        W 7900  32.930  30.471   2.238
48398W        W 7901  17.222   6.397  14.453
48399W        W 7902  27.603   9.357  14.476
48400W        W 7903  25.651   1.790   3.760
48401W        W 7904  29.964   3.263   4.624
48402W        W 7905  34.460  25.553  12.510
48403W        W 7906  15.640  13.665  11.102
48404W        W 7907  42.967   7.840  13.356
48405W        W 7908  13.268   7.306   3.756
48406W        W 7909   0.366  25.695   3.309
48407W        W 7910   3.857  31.137   3.316
48408W        W 7911   9.694  35.558  14.842
48409W        W 7912  38.851  27.940  10.915
48410W        W 7913   3.828  26.475   1.276
48411W        W 7914  20.767  22.718   4.833
48412W        W 7915  15.694  28.078   0.267
48413W        W 7916  18.569  24.182  12.941
48414W        W 7917  29.101   0.369  12.546
48415W        W 7918  38.421  21.604  14.764
48416W        W 7919  33.617  43.813   3.220
48417W        W 7920  15.726  41.946  14.437
48418W        W 7921  39.921   3.806   0.939
48419W        W 7922  10.655   4.228  13.390
48420W        W 7923   8.357   3.303  13.402
48421W        W 7924  19.179   0.328   1.424
48422W        W 7925  28.506   2.262   4.220
48423W        W 7926   9.327   5.743   0.352
48424W        W 7927   4.426  36.569  10.536
48425W        W 7928   8.793  21.741  12.501
48426W        W 7929  29.987  35.951   2.223
48427W        W 7930  28.068  23.210   1.908
48428W        W 7931   0.931  37.975   4.213
48429W        W 7932  14.806  34.015   0.381
48430W        W 7933  40.984  19.705  12.385
48431W        W 7934  13.686  17.131  10.936
48432W        W 7935  29.150  15.167   3.373
48433W        W 7936  24.079  20.191   1.304
48434W        W 7937  20.595  44.376   3.305
48435W        W 7938  23.031   7.814   4.609
48436W        W 7939  15.304  21.730  12.536
48437W        W 7940  14.672  43.448  11.861
48438W        W 7941  25.014   4.321  14.992
48439W        W 7942   4.352  14.272  11.097
48440W        W 7943  13.640  21.081  10.902
48441W        W 7944  44.773  36.896  10.898
48442W        W 7945  26.604  20.184  13.421
48443W        W 7946   9.258   3.297   0.832
48444W        W 7947   1.318  36.371   0.459
48445W        W 7948  32.559  43.960  13.017
48446W        W 7949  30.622   1.941  12.416
48447W        W 7950   5.748  34.895   2.762
48448W        W 7951  15.713   2.744   0.742
48449W        W 7952  44.968  28.973   0.884
48450W        W 7953  24.033  24.715  12.385
48451W        W 7954  31.479  38.921   2.808
48452W        W 7955  20.711  18.786  13.360
48453W        W 7956  44.312   0.436   3.199
48454W        W 7957  41.043  10.282   0.841
48455W        W 7958  24.015   0.862  12.073
48456W        W 7959  14.239   1.332   2.312
48457W        W 7960  10.211   1.895   1.234
48458W        W 7961  31.409  35.988   3.818
48459W        W 7962  37.854   9.692  13.465
48460W        W 7963  18.088  29.609  14.484
48461W        W 7964  44.940  18.635  14.923
48462W        W 7965   5.693  35.481   3.356
48463W        W 7966   0.432  26.688  14.407
48464W        W 7967  22.632   5.897   4.740
48465W        W 7968  27.458  42.455   0.955
48466W        W 7969  43.945  19.089   1.848
48467W        W 7970  35.023  27.592  13.416
48468W        W 7971  25.147  18.210   1.804
48469W        W 7972  35.946  19.537   4.797
48470W        W 7973  36.471  27.011   3.851
48471W        W 7974   3.825   8.328   2.788
48472W        W 7975  40.856  31.642  14.406
48473W        W 7976   1.280  38.016   1.248
48474W        W 7977  16.719  17.584   0.887
48475W        W 7978  32.426  25.513   0.388
48476W        W 7979   1.853  17.717   0.755
48477W        W 7980   1.740  29.080   2.364
48478W        W 7981  27.100  33.878  13.537
48479W        W 7982  18.198  26.959   2.336
48480W        W 7983  32.613  15.659   4.213
48481W        W 7984   0.297   8.365  13.352
48482W        W 7985  17.203  39.916  10.015
48483W        W 7986   1.752  33.528   2.186
48484W        W 7987  27.992   9.668   3.235
48485W        W 7988  11.762  28.598   4.797
48486W        W 7989  26.628  40.419   2.741
48487W        W 7990  37.494  41.952  12.537
48488W        W 7991  22.008  11.349   2.389
48489W        W 7992  21.696  28.436  14.465
48490W        W 7993  17.126  38.054  14.338
48491W        W 7994  25.533  38.519  14.798
48492W        W 7995  26.514   9.822   1.311
48493W        W 7996  27.098   2.362   4.798
48494W        W 7997  33.443  23.514   1.817
48495W        W 7998  23.694   3.916  11.422
48496W        W 7999  34.987  20.625   4.754
48497W        W 8000   0.852   3.718   3.690
48498W        W 8001   7.209  44.763  14.344
48499W        W 8002  14.814  15.205  13.875
48500W        W 8003  15.654   9.183  11.905
48501W        W 8004  24.569  43.848   2.416
48502W        W 8005  41.440  21.139  12.485
48503W        W 8006  34.900   3.922  13.797
48504W        W 8007  38.547  31.585   0.913
48505W        W 8008  22.113  43.383  11.070
48506W        W 8009   2.313   9.827  10.546
48507W        W 8010  10.208   6.880   0.277
48508W        W 8011  35.585  13.709  11.518
48509W        W 8012  25.629  12.789  14.900
48510W        W 8013  31.140  17.695   9.552
48511W        W 8014  23.001  39.898  13.365
48512W        W 8015  29.534   6.395  11.933
48513W        W 8016  20.721  41.936  13.338
48514W        W 8017  43.367  29.025  13.914
48515W        W 8018   8.838   6.887  14.851
48516W        W 8019  42.493  25.026   3.727
48517W        W 8020  43.274  27.194   1.769
48518W        W 8021  41.821  43.463   3.661
48519W        W 8022  12.661  26.042   4.240
48520W        W 8023  32.902  37.082   2.688
48521W        W 8024   3.375  16.313  14.425
48522W        W 8025  34.507  24.501  14.373
48523W        W 8026  34.934  40.339   0.474
48524W        W 8027  32.520  35.947   5.277
48525W        W 8028  24.061   5.875   0.421
48526W        W 8029  36.043  25.694   0.457
48527W        W 8030  39.536  37.010   2.386
48528W        W 8031   9.301  44.493  12.850
48529W        W 8032  36.367  15.581   4.775
48530W        W 8033  34.390  26.484   1.251
48531W        W 8034  33.983  24.573   0.742
48532W        W 8035   3.890  42.306   1.420
48533W        W 8036  42.890  40.350   2.676
48534W        W 8037  22.591   0.748  14.760
48535W        W 8038  30.913  12.728   2.392
48536W        W 8039  26.627  28.115   2.344
48537W        W 8040  27.670  34.885   1.744
48538W        W 8041  18.184  35.016   2.294
48539W        W 8042   8.837  20.048   0.268
48540W        W 8043  15.656  44.475   9.993
48541W        W 8044  30.146  11.809  10.408
48542W        W 8045  27.647  18.216   0.875
48543W        W 8046  23.154  30.576   1.912
48544W        W 8047  27.130   8.888   2.209
48545W        W 8048   3.260  38.440  14.304
48546W        W 8049  19.680  37.550  13.457
48547W        W 8050  13.221  18.213  12.383
48548W        W 8051  11.247  13.651   0.389
48549W        W 8052   6.238  11.306   2.859
48550W        W 8053  22.176  26.505   1.765
48551W        W 8054   9.716  17.640  14.489
48552W        W 8055  39.961  27.956   1.448
48553W        W 8056  35.939  32.407   1.412
48554W        W 8057   5.893  17.775   2.876
48555W        W 8058  38.401  15.210   2.741
48556W        W 8059  30.583   3.223   1.833
48557W        W 8060  34.499   8.837   0.934
48558W        W 8061  24.683  33.518  13.379
48559W        W 8062  24.609  11.216  13.385
48560W        W 8063  37.876  19.172  10.951
48561W        W 8064  14.096  39.008  14.292
48562W        W 8065  40.991  26.012   0.901
48563W        W 8066  25.991   6.182  11.386
48564W        W 8067  22.090  18.616   2.384
48565W        W 8068  27.635  44.448   3.189
48566W        W 8069   6.307  23.720   1.421
48567W        W 8070  27.111  17.158  13.816
48568W        W 8071  43.995  39.857   1.372
48569W        W 8072   1.447  39.369   0.844
48570W        W 8073  40.997  29.952  10.421
48571W        W 8074   4.302  11.133   2.892
48572W        W 8075  31.503  15.656  13.435
48573W        W 8076  15.122  13.679  13.345
48574W        W 8077   7.731   1.331   0.841
48575W        W 8078  13.209  38.523   4.213
48576W        W 8079  43.409  22.737  12.877
48577W        W 8080  23.709  24.523  13.397
48578W        W 8081   1.819  37.447  12.531
48579W        W 8082  13.152  18.551   0.275
48580W        W 8083  27.159  20.256  12.991
48581W        W 8084  39.867   8.245  10.574
48582W        W 8085  32.113  20.223   2.224
48583W        W 8086  33.432  38.418  12.926
48584W        W 8087   4.251  10.315  10.438
48585W        W 8088   0.365  26.007  14.974
48586W        W 8089  34.891  31.441  12.880
48587W        W 8090  21.579  39.370   3.646
48588W        W 8091   3.820   4.783  14.985
48589W        W 8092  16.583   3.425  13.546
48590W        W 8093  39.401   2.281   3.193
48591W        W 8094  44.959  13.734  13.384
48592W        W 8095  33.599  38.028  10.998
48593W        W 8096  43.461  22.509  10.567
48594W        W 8097  41.838  36.429   2.370
48595W        W 8098  15.599  29.591   3.202
48596W        W 8099  20.096  27.152   4.183
48597W        W 8100  32.403  33.934  13.974
48598W        W 8101  43.970  37.457  14.896
48599W        W 8102  32.513  30.479  10.920
48600W        W 8103   5.814  23.529   4.798
48601W        W 8104  16.805   6.202   1.756
48602W        W 8105  17.735  11.127  12.407
48603W        W 8106  18.052  12.837  10.944
48604W        W 8107  12.708   3.821   0.321
48605W        W 8108  20.767  39.503  12.981
48606W        W 8109  24.196  33.021   1.790
48607W        W 8110  18.563  29.985  13.043
48608W        W 8111  10.150   4.407   0.358
48609W        W 8112  25.013  38.461  10.548
48610W        W 8113  21.243   3.902  11.558
48611W        W 8114  34.008  28.122  13.011
48612W        W 8115   3.263  16.671   1.389
48613W        W 8116  44.989  20.758  12.934
48614W        W 8117  32.963  41.335  13.480
48615W        W 8118  38.469   5.287   1.337
48616W        W 8119  27.194   2.459  10.094
48617W        W 8120   1.478   2.452  13.025
48618W        W 8121  22.140  13.789   2.258
48619W        W 8122  37.853  41.449  14.940
48620W        W 8123  14.741  38.917  13.990
48621W        W 8124  17.567  40.908   3.655
48622W        W 8125  37.495  10.355  12.019
48623W        W 8126  39.532   7.406   0.764
48624W        W 8127  11.191  43.306   0.941
48625W        W 8128  40.348   2.829   4.166
48626W        W 8129  29.607   6.811   1.923
48627W        W 8130   5.301  35.405   4.738
48628W        W 8131   0.913  12.143   0.359
48629W        W 8132  34.590  32.561   4.689
48630W        W 8133   4.858  24.175  14.293
48631W        W 8134  29.582  10.855  12.009
48632W        W 8135   1.259  23.632   3.265
48633W        W 8136   4.420  14.659   3.188
48634W        W 8137  10.331  21.118   1.793
48635W        W 8138  37.832  44.401  12.469
48636W        W 8139  11.768   8.172  10.093
48637W        W 8140  19.693  22.089  13.863
48638W        W 8141  36.934  22.238   3.735
48639W        W 8142  28.937  35.104  10.951
48640W        W 8143   5.340   3.370   1.266
48641W        W 8144   9.161  23.130   4.259
48642W        W 8145  41.981  25.475  12.016
48643W        W 8146  12.358  31.588   3.201
48644W        W 8147  24.222   7.247   4.639
48645W        W 8148  36.899  33.615   3.736
48646W        W 8149  27.192   4.829   2.666
48647W        W 8150  29.936  10.775   1.931
48648W        W 8151  39.815  34.036   3.245
48649W        W 8152  29.444   6.875  13.792
48650W        W 8153   1.919  21.580   3.260
48651W        W 8154  21.710   2.363   2.292
48652W        W 8155  37.086  40.967  11.884
48653W        W 8156  43.885   5.850   1.376
48654W        W 8157   4.721  19.563  11.941
48655W        W 8158  38.001  41.323   5.247
48656W        W 8159  22.232  10.225  14.328
48657W        W 8160   2.282   7.246   1.930
48658W        W 8161  35.067  31.975   4.323
48659W        W 8162   5.201   9.811  13.958
48660W        W 8163  14.286  14.800   2.731
48661W        W 8164  23.179  37.075  13.939
48662W        W 8165   3.399  34.871  11.414
48663W        W 8166  19.136  14.754  11.022
48664W        W 8167  36.071  31.633   2.341
48665W        W 8168  19.633  11.821   1.401
48666W        W 8169  19.753  34.525   0.866
48667W        W 8170  36.880  27.463   1.213
48668W        W 8171  10.809   9.366   4.265
48669W        W 8172  28.545  38.045   2.856
48670W        W 8173  20.030  14.213  10.458
48671W        W 8174  28.934  42.457  12.912
48672W        W 8175  33.980  37.850  13.324
48673W        W 8176  38.076  13.139   1.442
48674W        W 8177   3.255  40.040  11.552
48675W        W 8178   6.332  27.106   0.938
48676W        W 8179  19.051  25.071   3.186
48677W        W 8180  17.069   4.818   2.764
48678W        W 8181  14.124  13.136   3.672
48679W        W 8182   2.277   3.837  14.291
48680W        W 8183  13.599   6.204   0.452
48681W        W 8184   3.285  22.148   9.977
48682W        W 8185   7.903  40.922   0.343
48683W        W 8186  34.434  19.622   0.399
48684W        W 8187  13.820  30.140  12.992
48685W        W 8188  13.639  35.472   1.243
48686W        W 8189   7.679  42.817   4.741
48687W        W 8190   4.914  37.888  11.582
48688W        W 8191  16.683  40.338   1.755
48689W        W 8192   8.858  32.142  10.015
48690W        W 8193  20.729   7.245   0.828
48691W        W 8194   6.339  41.509  10.161
48692W        W 8195  44.004  29.947   4.659
48693W        W 8196  16.299  34.466   2.186
48694W        W 8197   0.380  34.555  14.334
48695W        W 8198  17.140  16.125  11.060
48696W        W 8199  34.069  27.086  14.008
48697W        W 8200   8.211  19.653   1.431
48698W        W 8201  34.044  18.562   4.267
48699W        W 8202  43.973  11.737   1.331
48700W        W 8203  18.711  44.387  11.920
48701W        W 8204  37.845  13.625   3.310
48702W        W 8205  38.495  29.436  11.537
48703W        W 8206   3.376  18.628  14.322
48704W        W 8207  42.321  39.898  11.560
48705W        W 8208   5.283  22.153   2.348
48706W        W 8209  27.044   9.390  12.057
48707W        W 8210  42.028  41.013  14.943
48708W        W 8211  13.307  27.037   3.651
48709W        W 8212  41.330  28.077   0.919
48710W        W 8213  35.597  19.699   1.714
48711W        W 8214  22.044  31.947   1.875
48712W        W 8215  41.348  30.582   1.264
48713W        W 8216   2.359   7.377   2.662
48714W        W 8217  32.517   1.883  14.467
48715W        W 8218  11.626   0.913  14.975
48716W        W 8219   6.389  23.621  12.849
48717W        W 8220  14.138  11.621  14.840
48718W        W 8221  43.296   6.330   0.475
48719W        W 8222  41.801  10.768   3.645
48720W        W 8223  13.825   5.752  12.528
48721W        W 8224  13.150  19.579  13.443
48722W        W 8225  29.668   1.881   3.188
48723W        W 8226  38.422  44.809   4.313
48724W        W 8227  31.148  28.995  14.865
48725W        W 8228  31.520  29.096   3.757
48726W        W 8229   7.352  41.824   3.317
48727W        W 8230  28.501  18.053   3.227
48728W        W 8231  37.976  20.627  12.022
48729W        W 8232  11.297  18.093  12.852
48730W        W 8233  29.448  11.188   1.747
48731W        W 8234  23.646  18.293   0.767
48732W        W 8235  25.064  40.497  14.770
48733W        W 8236  16.212  34.443  10.957
48734W        W 8237  25.988  16.180  12.459
48735W        W 8238  38.952  17.183  12.539
48736W        W 8239  25.594  40.924   3.796
48737W        W 8240  44.336   4.832  13.838
48738W        W 8241  12.173  41.994  12.874
48739W        W 8242  13.753  29.021   3.209
48740W        W 8243   0.881  16.088   4.732
48741W        W 8244   1.924  33.075   1.362
48742W        W 8245  22.560  44.336   4.768
48743W        W 8246  22.516   4.855  11.995
48744W        W 8247  12.727  18.091  10.930
48745W        W 8248  44.878   6.838   0.435
48746W        W 8249  31.993   7.316  12.510
48747W        W 8250  21.061   0.828   4.607
48748W        W 8251  41.023   5.306  13.893
48749W        W 8252  17.801   6.879  14.486
48750W        W 8253  41.953   8.874  10.028
48751W        W 8254  19.220  20.220   3.816
48752W        W 8255   1.247  38.362  12.950
48753W        W 8256  16.306   5.416   1.702
48754W        W 8257  35.594  29.018   2.248
48755W        W 8258  25.714  31.543   4.619
48756W        W 8259  25.692   3.766   2.864
48757W        W 8260  12.695  28.980   1.915
48758W        W 8261  17.129  13.697  11.459
48759W        W 8262  26.477  12.798  14.299
48760W        W 8263   9.704  25.658   1.233
48761W        W 8264  40.388  10.818   3.291
48762W        W 8265  40.808  12.638  12.982
48763W        W 8266  12.234  23.191   4.261
48764W        W 8267  18.557   9.714   2.786
48765W        W 8268  38.850  27.484   0.848
48766W        W 8269  34.098  11.650   1.382
48767W        W 8270  31.463   4.425   3.848
48768W        W 8271   7.893  38.550   4.782
48769W        W 8272  35.580  43.282  11.382
48770W        W 8273   9.313   9.733  10.466
48771W        W 8274  21.128  35.109  12.861
48772W        W 8275  22.113  21.564  11.042
48773W        W 8276  29.648   8.357   2.298
48774W        W 8277  24.212   8.722  11.459
48775W        W 8278  24.697  32.954   3.801
48776W        W 8279  28.112  10.714  14.813
48777W        W 8280  15.102  21.678   0.753
48778W        W 8281  33.036  27.610   1.855
48779W        W 8282  24.624  25.074  11.010
48780W        W 8283  14.227  22.620  14.315
48781W        W 8284   7.894   1.962  13.898
48782W        W 8285  32.464   6.786  13.446
48783W        W 8286   3.922   8.710  11.049
48784W        W 8287  11.692  27.088   1.238
48785W        W 8288  18.710  33.962   0.953
48786W        W 8289  28.153  39.394   1.282
48787W        W 8290  14.774   1.842  14.285
48788W        W 8291  25.706  28.438  10.584
48789W        W 8292   0.456  22.092  11.857
48790W        W 8293  10.285   4.717   0.763
48791W        W 8294   5.888   0.424  11.024
48792W        W 8295  30.023  35.388  13.038
48793W        W 8296  11.138  22.672   4.273
48794W        W 8297  17.305  44.989   4.675
48795W        W 8298  13.675  12.281  13.495
48796W        W 8299  23.007  12.208  12.566
48797W        W 8300  15.596  36.512   1.411
48798W        W 8301  25.157  15.237   1.778
48799W        W 8302  13.135  42.843  12.017
48800W        W 8303  35.022  33.017   3.801
48801W        W 8304  13.765  12.230  14.911
48802W        W 8305  18.763  12.664  13.963
48803W        W 8306  14.784  24.512   2.777
48804W        W 8307  15.651   4.817   0.479
48805W        W 8308  15.590  12.320   1.439
48806W        W 8309  20.540  32.480  14.022
48807W        W 8310  33.919  33.070  13.405
48808W        W 8311  15.089   0.849   2.267
48809W        W 8312  37.030  20.589  14.314
48810W        W 8313  18.776   2.262   1.323
48811W        W 8314  33.466  13.136  12.972
48812W        W 8315  14.780  19.692   5.178
48813W        W 8316  43.936   1.816   4.319
48814W        W 8317   1.948  25.515  12.849
48815W        W 8318  18.637  19.050  14.342
48816W        W 8319  43.799  18.223   4.329
48817W        W 8320  34.044   4.920   2.226
48818W        W 8321  19.076   3.898  14.313
48819W        W 8322   5.833   3.830   1.314
48820W        W 8323  43.395  44.775   4.324
48821W        W 8324  36.057   8.340   0.342
48822W        W 8325   8.287  15.796   3.161
48823W        W 8326   7.222  34.471   1.422
48824W        W 8327  25.616  27.097  11.052
48825W        W 8328  14.811  30.037  12.015
48826W        W 8329  29.451  17.137   0.331
48827W        W 8330  20.256  14.727  13.058
48828W        W 8331  13.297  22.553   5.316
48829W        W 8332   3.309   6.295  14.451
48830W        W 8333  16.748   3.433  10.583
48831W        W 8334  29.511  25.511  12.020
48832W        W 8335  10.805  25.587  13.039
48833W        W 8336  35.052   7.817   1.288
48834W        W 8337  41.013  22.239  11.411
48835W        W 8338  13.821   7.227   3.825
48836W        W 8339  18.599  16.242   3.257
48837W        W 8340   1.430  16.641  10.606
48838W        W 8341  44.007  14.598  10.915
48839W        W 8342   7.174  35.017   3.285
48840W        W 8343  21.201  29.070  14.820
48841W        W 8344  41.315   5.364  12.385
48842W        W 8345  25.175   6.890   1.732
48843W        W 8346  42.434  11.157  12.532
48844W        W 8347  39.984   5.740  14.284
48845W        W 8348   2.790  38.926  14.767
48846W        W 8349  17.284   0.398  12.021
48847W        W 8350  31.583  42.855  11.429
48848W        W 8351  42.947   8.340  10.039
48849W        W 8352  16.082  24.209  12.035
48850W        W 8353  12.154  38.970  13.843
48851W        W 8354  31.904  11.206   3.184
48852W        W 8355  36.416   7.693   0.808
48853W        W 8356  15.307  37.523  11.937
48854W        W 8357  33.926  34.078   0.860
48855W        W 8358   4.804  36.914  10.447
48856W        W 8359  29.615  13.126  11.891
48857W        W 8360   6.284  19.612   5.098
48858W        W 8361  32.557  15.294  10.526
48859W        W 8362  23.545  10.821  11.514
48860W        W 8363   4.362   3.716  14.770
48861W        W 8364   0.430  27.590   1.712
48862W        W 8365   6.285  25.649   3.362
48863W        W 8366  29.095  42.979   0.380
48864W        W 8367  15.118  24.222  12.424
48865W        W 8368  42.959  11.163  11.978
48866W        W 8369  41.334   2.434   0.431
48867W        W 8370  40.469  19.548  14.396
48868W        W 8371  16.729   9.820  12.375
48869W        W 8372   9.252   9.830   4.740
48870W        W 8373  34.371  14.642   2.316
48871W        W 8374  10.690   4.331  13.888
48872W        W 8375  10.762  26.630  11.114
48873W        W 8376  26.090  39.468   4.616
48874W        W 8377   3.432  11.660   2.898
48875W        W 8378   8.862  18.691  12.901
48876W        W 8379  28.663  29.640   2.821
48877W        W 8380  34.086  22.248   3.254
48878W        W 8381  15.177  15.324   3.165
48879W        W 8382  35.540  43.775   2.680
48880W        W 8383   7.878  13.278  13.380
48881W        W 8384  22.685  41.996  13.361
48882W        W 8385  17.788  43.297  13.857
48883W        W 8386  18.769  32.027  11.462
48884W        W 8387  18.231   8.836   4.122
48885W        W 8388  23.671  20.180  11.465
48886W        W 8389  29.008  12.130   1.774
48887W        W 8390  15.714  41.338   9.990
48888W        W 8391  31.007  20.682   0.802
48889W        W 8392  36.415   7.372   1.740
48890W        W 8393   6.338  29.496   4.248
48891W        W 8394  16.218  25.501  12.050
48892W        W 8395  35.078  36.051   2.859
48893W        W 8396  41.531   4.284   0.935
48894W        W 8397  14.666   8.803  10.420
48895W        W 8398  13.684   8.873   1.253
48896W        W 8399  10.681  16.232  14.393
48897W        W 8400   4.879  44.503   0.363
48898W        W 8401  30.650  33.981  13.942
48899W        W 8402   2.394  29.980  14.873
48900W        W 8403  32.500  33.595  14.782
48901W        W 8404  37.390  41.034  13.878
48902W        W 8405  37.918  12.651   1.214
48903W        W 8406  32.474  15.679  13.503
48904W        W 8407  20.062   6.703   4.123
48905W        W 8408  23.506  32.089   2.685
48906W        W 8409  11.161  44.414   3.269
48907W        W 8410   3.928  36.951   3.310
48908W        W 8411  38.406  20.176   4.739
48909W        W 8412   0.277  28.093   1.814
48910W        W 8413   7.730  19.269  10.901
48911W        W 8414  13.703   3.339   3.305
48912W        W 8415  14.213   2.316   2.192
48913W        W 8416  39.537  15.146   0.365
48914W        W 8417  44.386  35.064  13.401
48915W        W 8418  10.865  13.683   1.251
48916W        W 8419  19.557  37.899  10.517
48917W        W 8420  12.181  18.764   0.247
48918W        W 8421  31.922  13.770  12.878
48919W        W 8422  26.561  35.934  13.986
48920W        W 8423  44.437  37.977  14.412
48921W        W 8424   1.248  36.880  11.113
48922W        W 8425   5.439  33.517   0.475
48923W        W 8426  38.418   3.868  14.763
48924W        W 8427  37.430   7.685  10.915
48925W        W 8428   8.816  34.451   3.660
48926W        W 8429  29.456  12.845   2.350
48927W        W 8430  14.201  20.735   1.707
48928W        W 8431  22.652  19.696   2.309
48929W        W 8432   6.865  30.949   3.221
48930W        W 8433   8.892  27.646   1.736
48931W        W 8434  13.292  37.060  11.922
48932W        W 8435  40.463  42.824  10.949
48933W        W 8436  20.089  27.565   0.923
48934W        W 8437  28.984  18.717  11.407
48935W        W 8438  40.850  23.730   3.351
48936W        W 8439  17.650   1.734  14.778
48937W        W 8440  33.995  10.368   3.698
48938W        W 8441  22.588  17.721   1.700
48939W        W 8442   4.869  39.314  13.374
48940W        W 8443  13.638   9.736   1.369
48941W        W 8444   8.353   5.703   1.774
48942W        W 8445  27.462  23.022  12.827
48943W        W 8446  38.340  32.085  14.374
48944W        W 8447  15.659   0.389  11.425
48945W        W 8448  17.202  29.505   3.385
48946W        W 8449   2.829  20.717  11.899
48947W        W 8450   8.335   3.409   0.830
48948W        W 8451  30.093  18.084  12.566
48949W        W 8452  38.433  10.839   1.439
48950W        W 8453  13.845  14.117  14.004
48951W        W 8454  25.503   5.797   3.821
48952W        W 8455  38.942  42.024  11.491
48953W        W 8456  40.407  17.643  14.920
48954W        W 8457  43.386  44.887   0.938
48955W        W 8458  19.093   7.187   1.343
48956W        W 8459  13.846  24.597  11.069
48957W        W 8460   3.436  41.333   4.295
48958W        W 8461   4.751   0.354   1.792
48959W        W 8462  40.877  18.642   1.782
48960W        W 8463  19.642  14.637   3.224
48961W        W 8464  21.120  23.092  14.813
48962W        W 8465   4.707  31.617  14.515
48963W        W 8466  25.087  39.402   4.181
48964W        W 8467   0.880  36.883  13.419
48965W        W 8468  43.364  16.671  11.599
48966W        W 8469  14.110  17.072   2.291
48967W        W 8470  39.433  38.341  14.448
48968W        W 8471  12.680  31.500   0.775
48969W        W 8472   9.681  41.925  14.351
48970W        W 8473   0.794  42.461  13.316
48971W        W 8474  10.239  24.667  11.860
48972W        W 8475  20.126  37.908  14.975
48973W        W 8476  19.699  38.413   4.279
48974W        W 8477  20.661  23.012   1.711
48975W        W 8478  22.708  44.386  13.001
48976W        W 8479  34.601   0.843  10.507
48977W        W 8480  39.347  30.564  12.479
48978W        W 8481   6.901  36.927  10.970
48979W        W 8482  18.265   8.172  13.394
48980W        W 8483  40.820  21.521  12.963
48981W        W 8484   5.744  42.481   0.918
48982W        W 8485   4.910  20.052   2.810
48983W        W 8486  29.597  15.271  12.905
48984W        W 8487  37.026  40.880   2.276
48985W        W 8488  27.971   3.264  10.006
48986W        W 8489  22.221   2.353   2.813
48987W        W 8490  35.048  11.812   5.135
48988W        W 8491   8.318  30.121  10.593
48989W        W 8492  24.697  27.087   3.165
48990W        W 8493   3.739   1.821   9.937
48991W        W 8494  30.435   5.853   3.746
48992W        W 8495  10.785  15.681  12.965
48993W        W 8496  12.855   7.242   2.383
48994W        W 8497  39.008  12.257  14.358
48995W        W 8498  37.058  36.372   4.681
48996W        W 8499  27.564  38.417   9.480
48997W        W 8500  32.123  30.050  14.908
48998W        W 8501  40.817  42.367   4.747
48999W        W 8502  15.237  18.570   1.256
49000W        W 8503  31.021  37.349   2.732
49001W        W 8504  39.047  38.500   0.966
49002W        W 8505  13.183  42.845   3.865
49003W        W 8506  21.081  19.565   3.230
49004W        W 8507  15.695  10.248   3.780
49005W        W 8508   0.772   9.343   4.153
49006W        W 8509  28.180   0.381   4.751
49007W        W 8510  26.094  20.603  14.505
49008W        W 8511  29.057  43.505   1.254
49009W        W 8512  37.566   7.341  10.411
49010W        W 8513   0.980  16.275  12.559
49011W        W 8514   8.753   6.845  12.445
49012W        W 8515   6.768   1.333  14.916
49013W        W 8516  38.893  18.112   1.231
49014W        W 8517  24.517  34.914  14.362
49015W        W 8518  23.549  28.605   0.342
49016W        W 8519  12.733   2.330   0.937
49017W        W 8520  31.133  23.113  11.856
49018W        W 8521  40.960  11.190   4.609
49019W        W 8522  32.503  13.684  14.499
49020W        W 8523   7.327  20.067   4.204
49021W        W 8524  37.434  29.055   3.266
49022W        W 8525  25.506  39.560   4.265
49023W        W 8526   8.168  15.316  10.084
49024W        W 8527  12.697  40.013  12.094
49025W        W 8528  23.069  42.300  13.883
49026W        W 8529  17.668  38.935   0.343
49027W        W 8530   2.836  44.338  11.496
49028W        W 8531   3.441   8.698   3.379
49029W        W 8532   2.807   6.388   3.203
49030W        W 8533   6.834   8.667  14.323
49031W        W 8534  30.577  21.628  12.565
49032W        W 8535  42.845  24.556   0.967
49033W        W 8536  30.067  16.574  14.933
49034W        W 8537  25.532  24.022   2.411
49035W        W 8538  14.807   2.275  11.589
49036W        W 8539   2.233   9.648   3.321
49037W        W 8540  30.066  23.027   2.840
49038W        W 8541  34.404  33.963   4.835
49039W        W 8542  18.673  31.137   1.821
49040W        W 8543  24.624  12.137   3.205
49041W        W 8544  21.622   0.902  12.348
49042W        W 8545   3.818  28.949  11.418
49043W        W 8546  20.175   8.798  13.537
49044W        W 8547  30.966  26.082   2.874
49045W        W 8548   4.407  28.074   4.689
49046W        W 8549  18.612  24.188   4.786
49047W        W 8550  26.645  10.724  12.074
49048W        W 8551  32.986  26.119   2.305
49049W        W 8552  34.380  26.652   3.265
49050W        W 8553  43.014  15.801  12.944
49051W        W 8554  27.542   7.351  10.628
49052W        W 8555   2.235  38.543  12.917
49053W        W 8556  30.527  11.816   0.286
49054W        W 8557   4.829  20.554   1.372
49055W        W 8558  30.611  16.224  13.993
49056W        W 8559  35.411   5.257  11.556
49057W        W 8560  12.152  19.142  12.383
49058W        W 8561   8.177  35.091  13.973
49059W        W 8562  19.180  37.377  11.394
49060W        W 8563  43.798  40.965   3.223
49061W        W 8564  25.117  20.167   5.306
49062W        W 8565  43.959  17.604   4.812
49063W        W 8566   7.882  35.980   4.197
49064W        W 8567  12.714  11.180  10.604
49065W        W 8568   5.341  32.566  14.350
49066W        W 8569   3.350  34.613  13.383
49067W        W 8570   5.872  18.219  13.308
49068W        W 8571  41.976  11.278   0.376
49069W        W 8572  36.496   1.444  12.823
49070W        W 8573  30.595  20.752  13.034
49071W        W 8574   3.719  11.691   1.431
49072W        W 8575  32.392   0.481  14.765
49073W        W 8576   7.676  22.562   2.281
49074W        W 8577  20.262   4.745   0.309
49075W        W 8578   5.899  18.284   2.197
49076W        W 8579  16.169  41.306   4.136
49077W        W 8580  17.093  14.706   0.449
49078W        W 8581  42.453  30.430  12.913
49079W        W 8582   9.823  31.502   1.708
49080W        W 8583  27.466  34.545   3.324
49081W        W 8584   2.783  23.128  13.826
49082W        W 8585  13.179  25.193  14.874
49083W        W 8586  42.303  29.173   0.816
49084W        W 8587  18.632  28.976  14.413
49085W        W 8588  17.266  40.543  12.379
49086W        W 8589  25.600   3.243   0.371
49087W        W 8590  15.688   7.411  10.999
49088W        W 8591  33.888  42.505   4.131
49089W        W 8592  43.841   6.742   0.931
49090W        W 8593  34.475  14.609   4.166
49091W        W 8594  35.531  19.548   4.244
49092W        W 8595  11.247  34.493   1.755
49093W        W 8596  18.635  38.828   2.899
49094W        W 8597  31.420  41.988   4.728
49095W        W 8598   0.307  14.134   4.327
49096W        W 8599  17.267  21.707  10.918
49097W        W 8600  33.623  11.152   0.851
49098W        W 8601  10.735  17.231  11.967
49099W        W 8602   1.866  36.587   4.172
49100W        W 8603  19.206  43.872  10.591
49101W        W 8604  34.958  14.832   1.307
49102W        W 8605  14.771  29.921   2.815
49103W        W 8606  39.020   8.396  10.407
49104W        W 8607  22.640  34.050   3.359
49105W        W 8608   7.240  37.932  13.456
49106W        W 8609  31.466  15.299  12.029
49107W        W 8610  23.088  41.965  11.598
49108W        W 8611   5.890  31.030  14.502
49109W        W 8612   7.185  21.053   2.890
49110W        W 8613  25.025  11.861   2.756
49111W        W 8614  27.521  37.838  11.592
49112W        W 8615  18.151  18.738   3.860
49113W        W 8616  12.855  13.268   2.324
49114W        W 8617  15.817  16.602   4.303
49115W        W 8618  25.573  38.968  12.398
49116W        W 8619   2.888   2.366  14.983
49117W        W 8620  42.440  20.548  14.862
49118W        W 8621   1.393  43.435   2.413
49119W        W 8622   5.196  26.522   4.211
49120W        W 8623  40.916   9.208   1.801
49121W        W 8624   8.307  22.171   2.848
49122W        W 8625  31.026  20.761   2.863
49123W        W 8626  13.708  11.174   0.255
49124W        W 8627  24.190  17.077  12.381
49125W        W 8628  40.828  24.224  11.597
49126W        W 8629  12.354  39.838  13.814
49127W        W 8630   6.769   2.733  14.945
49128W        W 8631   8.302  37.406   2.872
49129W        W 8632  26.539  33.576  14.333
49130W        W 8633   6.886  18.725   1.447
49131W        W 8634   6.229  24.699   1.213
49132W        W 8635  23.192  23.524   4.628
49133W        W 8636  37.407  25.673  13.836
49134W        W 8637   3.268  31.896   2.324
49135W        W 8638  33.892  23.616   1.444
49136W        W 8639  11.327  39.945   2.398
49137W        W 8640  36.554  15.093  13.413
49138W        W 8641  11.160  38.914  14.347
49139W        W 8642  33.486  39.479  11.045
49140W        W 8643  25.216  27.118   4.123
49141W        W 8644  12.346  10.705   3.631
49142W        W 8645   1.782   1.366  13.059
49143W        W 8646  24.493  39.817  12.082
49144W        W 8647  11.854  28.441   1.694
49145W        W 8648  37.880  44.396  10.548
49146W        W 8649  37.967  25.511  14.910
49147W        W 8650  24.031  42.966   2.874
49148W        W 8651  20.530   1.241  13.824
49149W        W 8652  12.800   0.260   3.323
49150W        W 8653  23.036  29.501  11.472
49151W        W 8654   0.406  32.510   1.876
49152W        W 8655  41.950  30.499   2.343
49153W        W 8656   1.871  14.738  11.860
49154W        W 8657  41.500   8.268   0.765
49155W        W 8658  33.089  17.608  13.392
49156W        W 8659  40.818  23.621  12.439
49157W        W 8660  29.558   7.266  13.998
49158W        W 8661  22.740  34.379  12.512
49159W        W 8662  41.332  21.614   0.763
49160W        W 8663  20.592   9.296  14.456
49161W        W 8664  20.746  30.973  11.966
49162W        W 8665  37.896  41.472  13.982
49163W        W 8666  34.014  43.282  13.871
49164W        W 8667   5.194   8.197  14.993
49165W        W 8668   6.863  26.631   0.756
49166W        W 8669  20.665  38.519   4.266
49167W        W 8670  31.901  16.609   0.440
49168W        W 8671  11.769  31.037  13.497
49169W        W 8672  37.392  14.830   2.355
49170W        W 8673  13.221  36.433   4.283
49171W        W 8674  38.984  29.935   4.828
49172W        W 8675  25.178  27.610  13.995
49173W        W 8676  34.516  20.164   1.320
49174W        W 8677  44.277  20.539   1.709
49175W        W 8678  12.271   8.682   1.751
49176W        W 8679   5.830  36.894   1.914
49177W        W 8680  33.532  14.788  11.488
49178W        W 8681  41.930  18.069  11.476
49179W        W 8682  13.751  12.277   2.681
49180W        W 8683  30.022  41.823   2.681
49181W        W 8684  11.164  10.642   0.457
49182W        W 8685  33.391  15.198  12.001
49183W        W 8686  14.720  17.067  14.999
49184W        W 8687  31.448  44.925   0.343
49185W        W 8688   5.241  24.205   1.822
49186W        W 8689  25.965  14.658   3.683
49187W        W 8690   9.782  12.139  13.877
49188W        W 8691  22.733  32.953  14.799
49189W        W 8692  44.892  32.038   4.225
49190W        W 8693  26.539   7.715   2.725
49191W        W 8694  16.664  30.464   4.631
49192W        W 8695  10.635  37.833  14.346
49193W        W 8696  19.735  40.897  13.483
49194W        W 8697  19.589  19.672   3.363
49195W        W 8698  23.663  12.224   4.120
49196W        W 8699  11.135  15.612  11.112
49197W        W 8700  32.522   7.835  10.488
49198W        W 8701   7.279  27.139   4.623
49199W        W 8702  33.106  18.237   4.253
49200W        W 8703  36.065   5.349   1.926
49201W        W 8704  36.519  24.106   2.771
49202W        W 8705   0.485   2.263  13.439
49203W        W 8706  36.086  31.110  14.298
49204W        W 8707  16.300  19.769   1.745
49205W        W 8708  41.999  33.955   2.736
49206W        W 8709  39.365  23.064   4.274
49207W        W 8710  11.702  40.361  14.464
49208W        W 8711  22.713  22.123  14.824
49209W        W 8712  13.805  41.834  13.479
49210W        W 8713   6.858  22.536   3.248
49211W        W 8714  18.203  28.024  11.976
49212W        W 8715  21.094  23.522   1.765
49213W        W 8716   2.949  40.949  12.452
49214W        W 8717   0.857   7.341   2.824
49215W        W 8718  36.965  36.482   1.904
49216W        W 8719  25.035  44.832  14.825
49217W        W 8720  13.241   9.881   2.864
49218W        W 8721  32.890   1.268  13.997
49219W        W 8722   2.807  30.939   5.604
49220W        W 8723   1.796  37.402   3.836
49221W        W 8724   9.251  17.101   4.118
49222W        W 8725   0.453  15.715   1.414
49223W        W 8726  13.684  40.303   4.746
49224W        W 8727  21.642   9.339   3.720
49225W        W 8728  10.812   3.355   1.852
49226W        W 8729  33.092  30.067  12.343
49227W        W 8730  43.331  11.263   0.347
49228W        W 8731  40.343   4.442   4.791
49229W        W 8732   0.788  41.302   3.702
49230W        W 8733  11.224  10.710   1.801
49231W        W 8734   7.259   2.772   0.844
49232W        W 8735  14.297  38.502   2.698
49233W        W 8736   1.397  38.427   2.796
49234W        W 8737  44.295   3.847   3.765
49235W        W 8738  34.963   7.728  14.823
49236W        W 8739  10.271   3.240  11.117
49237W        W 8740   2.936  25.069  14.900
49238W        W 8741   8.283  25.000  14.944
49239W        W 8742   7.755  23.696   9.989
49240W        W 8743   0.288  19.678  12.348
49241W        W 8744  17.603  34.378  13.936
49242W        W 8745  42.808  17.193  11.126
49243W        W 8746  10.768  22.645   4.235
49244W        W 8747  36.888  43.426  12.559
49245W        W 8748  36.524  39.061   3.663
49246W        W 8749  28.599   5.333   3.283
49247W        W 8750  33.057  28.022  11.014
49248W        W 8751  27.513   5.842  13.009
49249W        W 8752  16.150  25.085   0.420
49250W        W 8753  15.257  38.546   0.758
49251W        W 8754  39.876  17.285  13.843
49252W        W 8755   6.822   9.157  12.896
49253W        W 8756  10.877  33.057   1.210
49254W        W 8757  11.302   8.245   4.621
49255W        W 8758  31.917  33.553  12.555
49256W        W 8759  15.587  34.394  12.458
49257W        W 8760  25.598   3.804   3.868
49258W        W 8761  30.020  15.119  12.869
49259W        W 8762   6.880  27.031  14.899
49260W        W 8763  22.161  27.525  10.903
49261W        W 8764  40.532  27.021   3.856
49262W        W 8765  34.027  23.671   0.833
49263W        W 8766  38.051  40.316  11.907
49264W        W 8767  44.496  26.637   9.581
49265W        W 8768  23.189  15.586  10.994
49266W        W 8769  37.998  41.455  14.367
49267W        W 8770  32.529   9.357   4.753
49268W        W 8771  21.148  14.773   1.838
49269W        W 8772  21.129  15.659   2.788
49270W        W 8773   5.787   3.389  12.975
49271W        W 8774  27.578   4.394   4.319
49272W        W 8775  37.572  23.190  12.392
49273W        W 8776  19.549  15.648   2.811
49274W        W 8777  21.128  32.901  13.830
49275W        W 8778  12.694  21.711   0.451
49276W        W 8779  31.412  41.424   2.385
49277W        W 8780  15.207  18.578  12.956
49278W        W 8781  27.142  37.053  12.930
49279W        W 8782  18.692  14.193   2.235
49280W        W 8783  19.146   2.743  10.502
49281W        W 8784  36.031  26.003  14.870
49282W        W 8785  35.603   8.314  13.039
49283W        W 8786  22.030  19.561   4.654
49284W        W 8787  23.545  10.847   2.770
49285W        W 8788  24.572  25.967  14.835
49286W        W 8789  26.694  17.122  13.502
49287W        W 8790  39.537  35.104  14.368
49288W        W 8791  27.511  31.463   3.810
49289W        W 8792  44.365  11.271  10.516
49290W        W 8793  24.095  22.515  14.319
49291W        W 8794  40.538   1.352   1.870
49292W        W 8795  16.743  26.465   1.794
49293W        W 8796  16.731  33.096   2.815
49294W        W 8797  19.707   0.938   0.777
49295W        W 8798   8.725  29.590  10.931
49296W        W 8799   8.855  38.955  10.560
49297W        W 8800  32.424  23.152  10.474
49298W        W 8801  42.440   1.733   4.330
49299W        W 8802  17.092  27.163  11.897
49300W        W 8803  15.110  35.994   4.317
49301W        W 8804  39.330  15.302   0.786
49302W        W 8805   8.270  42.819   1.877
49303W        W 8806  15.292   9.746   2.279
49304W        W 8807  30.927  35.504  10.592
49305W        W 8808   4.929  33.503  14.888
49306W        W 8809  13.348  24.054  11.863
49307W        W 8810  15.116  41.937   0.899
49308W        W 8811   4.228  23.526   3.846
49309W        W 8812   4.731   2.328   0.251
49310W        W 8813  14.128  23.707  14.300
49311W        W 8814  19.598   0.291   3.802
49312W        W 8815   8.363  32.445   0.479
49313W        W 8816  17.248  40.320   3.805
49314W        W 8817  33.451  40.847  11.016
49315W        W 8818  44.452  11.845   2.412
49316W        W 8819  25.617  16.086  10.993
49317W        W 8820  35.859  24.481  14.329
49318W        W 8821  43.848  33.483  14.281
49319W        W 8822  13.348  22.581  10.057
49320W        W 8823  42.944   4.265   1.815
49321W        W 8824  31.897  12.697  12.353
49322W        W 8825  43.954  28.547  14.442
49323W        W 8826  21.555  33.941  11.929
49324W        W 8827  23.671  20.578  11.933
49325W        W 8828  32.120   7.847  10.501
49326W        W 8829  26.687  14.714  10.428
49327W        W 8830   7.838  17.139   2.272
49328W        W 8831  17.624  28.492   1.890
49329W        W 8832  30.507  31.472  11.521
49330W        W 8833  36.891   0.368  11.979
49331W        W 8834  29.445  12.651   3.740
49332W        W 8835  13.700  28.445  14.293
49333W        W 8836  24.535  26.552   5.318
49334W        W 8837   6.834  10.805   0.956
49335W        W 8838  40.465  25.586   1.900
49336W        W 8839  43.912  26.562  13.392
49337W        W 8840  24.038  43.880   3.153
49338W        W 8841  10.840   7.387   0.846
49339W        W 8842  16.105   2.942  13.868
49340W        W 8843  10.724   0.868  13.802
49341W        W 8844  38.974  31.009  11.486
49342W        W 8845  36.072  18.680   1.783
49343W        W 8846  42.432  14.685   2.773
49344W        W 8847   0.802  12.334  13.398
49345W        W 8848   1.948  43.988   0.879
49346W        W 8849  44.300  31.071   1.440
49347W        W 8850  29.038  17.147  12.366
49348W        W 8851  15.603  10.730  10.947
49349W        W 8852  26.656  19.199  14.361
49350W        W 8853  37.517  35.476  10.573
49351W        W 8854  41.815  26.552  11.058
49352W        W 8855   4.835  18.059  13.332
49353W        W 8856   2.432  39.979  11.538
49354W        W 8857  42.477   0.955  13.357
49355W        W 8858  15.241  33.063  12.479
49356W        W 8859  27.093  13.718   2.781
49357W        W 8860  27.514  21.134  14.332
49358W        W 8861  42.899   7.204   3.371
49359W        W 8862   0.347  25.985   0.376
49360W        W 8863  24.180   4.736  12.938
49361W        W 8864  29.992  37.352   1.268
49362W        W 8865  25.095  14.774   3.307
49363W        W 8866  34.057  30.956  14.829
49364W        W 8867  18.255  33.473   4.614
49365W        W 8868   2.731  19.764  13.415
49366W        W 8869  29.479  21.579   0.871
49367W        W 8870   5.867   1.396   1.396
49368W        W 8871  35.451  37.469   2.218
49369W        W 8872  22.574   1.445  13.379
49370W        W 8873  21.018  43.455  11.126
49371W        W 8874  35.891   4.771  13.983
49372W        W 8875  37.908   0.345   1.400
49373W        W 8876  15.664  25.078   2.827
49374W        W 8877   2.362  19.539   3.845
49375W        W 8878  20.668  13.277   1.352
49376W        W 8879  21.572  35.858   1.337
49377W        W 8880  41.391   6.363  14.004
49378W        W 8881   5.856   8.245   2.701
49379W        W 8882  11.692  14.302  10.079
49380W        W 8883   2.336  18.642  14.477
49381W        W 8884  36.386   4.281   0.337
49382W        W 8885  39.916   8.894  14.276
49383W        W 8886  21.062   0.783  10.121
49384W        W 8887  35.400  42.303  11.420
49385W        W 8888  10.297  29.526   0.834
49386W        W 8889  10.754  24.101   4.834
49387W        W 8890  13.833  18.790  11.378
49388W        W 8891  31.482   9.846   5.680
49389W        W 8892  42.385  14.102   0.385
49390W        W 8893  26.627  38.944   3.861
49391W        W 8894  40.956  16.315  14.300
49392W        W 8895   7.295  23.984  10.993
49393W        W 8896   6.347  20.160  13.380
49394W        W 8897   0.315  36.937   1.854
49395W        W 8898   8.770  28.084  13.413
49396W        W 8899   1.774  17.159   2.359
49397W        W 8900  31.083  11.778  12.923
49398W        W 8901  29.586  34.428   0.472
49399W        W 8902  18.648  21.029   0.760
49400W        W 8903  27.556   2.385  13.427
49401W        W 8904  19.615  33.078  14.356
49402W        W 8905  30.550  22.515   4.756
49403W        W 8906  18.192   6.219   0.317
49404W        W 8907  15.231  25.561  10.900
49405W        W 8908  40.976   5.722   1.370
49406W        W 8909  10.266  43.476   1.325
49407W        W 8910  33.083   6.708   4.602
49408W        W 8911  41.878  29.122   4.181
49409W        W 8912  23.620  25.618   4.149
49410W        W 8913   3.368   0.440  13.818
49411W        W 8914  18.242  12.710  13.958
49412W        W 8915  14.653  31.996  13.924
49413W        W 8916  37.385  38.984   2.813
49414W        W 8917   4.812  14.115  10.149
49415W        W 8918  18.263  18.262  12.067
49416W        W 8919  41.433   4.236   2.411
49417W        W 8920  25.486   2.295   2.288
49418W        W 8921  34.396  26.960   1.434
49419W        W 8922   5.827  37.469   3.852
49420W        W 8923  15.603  18.171  13.996
49421W        W 8924  31.588   7.827   1.341
49422W        W 8925  23.539   5.265  12.494
49423W        W 8926  43.993  37.976   1.304
49424W        W 8927  18.245  14.189  10.521
49425W        W 8928  42.818   6.834   0.957
49426W        W 8929  15.612   7.795   0.765
49427W        W 8930  10.206  31.418  14.498
49428W        W 8931   3.899  18.273   3.239
49429W        W 8932   7.341  10.680  12.834
49430W        W 8933  14.110  38.420  12.922
49431W        W 8934  16.629   0.841   4.716
49432W        W 8935   6.347   0.791  11.405
49433W        W 8936  36.097   7.737  14.397
49434W        W 8937   4.714   3.726   1.780
49435W        W 8938  10.138  20.741   2.695
49436W        W 8939  34.094   6.786  11.988
49437W        W 8940  25.150  19.558   4.165
49438W        W 8941  29.564  27.513  12.423
49439W        W 8942  17.802  13.690  14.891
49440W        W 8943  27.984   5.753  11.541
49441W        W 8944  44.328  26.558  10.114
49442W        W 8945  14.804  17.265  10.514
49443W        W 8946   3.218  23.650   4.684
49444W        W 8947  12.283  16.653  12.400
49445W        W 8948  25.672   1.468  14.774
49446W        W 8949  23.009  37.846   3.798
49447W        W 8950   9.830  37.885   4.202
49448W        W 8951  22.139  13.794  13.494
49449W        W 8952  24.532  17.212  12.489
49450W        W 8953  31.058  24.625   3.801
49451W        W 8954  10.269   9.759  12.859
49452W        W 8955  26.536  36.537  10.633
49453W        W 8956  11.626   6.890  12.471
49454W        W 8957  11.230  14.216   2.269
49455W        W 8958  30.033  29.470  11.077
49456W        W 8959   7.907   1.743  12.885
49457W        W 8960  25.705  17.109   2.212
49458W        W 8961  27.673  21.096  11.536
49459W        W 8962  16.248  31.029  14.819
49460W        W 8963  29.632   7.208   1.392
49461W        W 8964  35.529  21.596  11.916
49462W        W 8965  43.935  38.932  12.560
49463W        W 8966  28.501  26.681   4.759
49464W        W 8967  11.337  26.457  14.466
49465W        W 8968  44.868  18.640  12.941
49466W        W 8969  29.015   7.222  12.449
49467W        W 8970   4.882  39.029  11.119
49468W        W 8971  12.231  28.062  11.918
49469W        W 8972  33.016  14.623  10.466
49470W        W 8973  10.736   1.360  13.817
49471W        W 8974  16.810  38.530   4.790
49472W        W 8975   7.767  18.585   0.855
49473W        W 8976  26.639   9.354  14.771
49474W        W 8977  11.626  26.995   1.730
49475W        W 8978  11.790  44.423   2.256
49476W        W 8979  23.225  24.485   4.619
49477W        W 8980  37.367  10.646  10.429
49478W        W 8981  38.538  21.175   4.719
49479W        W 8982  28.658  23.092   2.741
49480W        W 8983  41.037  23.596  10.542
49481W        W 8984   2.742  35.940  10.938
49482W        W 8985  21.056   9.354  14.964
49483W        W 8986  21.038  25.553  13.460
49484W        W 8987  29.484  36.091  10.626
49485W        W 8988  29.599  19.679   1.305
49486W        W 8989  15.260   8.210   1.893
49487W        W 8990  26.586  33.386   3.704
49488W        W 8991  40.549  35.554  12.567
49489W        W 8992  27.489  36.899  10.596
49490W        W 8993  36.892  40.516   4.816
49491W        W 8994   5.381  42.783   0.924
49492W        W 8995  24.689  17.585   1.904
49493W        W 8996  24.665  21.736  13.893
49494W        W 8997  17.635  27.005  13.042
49495W        W 8998  17.239  12.256  13.516
49496W        W 8999  42.789  11.307   0.381
49497W        W 9000  41.913  37.436  14.783
49498W        W 9001  36.938  12.139  14.375
49499W        W 9002  28.603   4.408   0.929
49500W        W 9003  15.673  41.905   2.239
49501W        W 9004   6.775  15.790   3.814
49502W        W 9005  27.510  27.466   4.266
49503W        W 9006  35.568  33.083  11.563
49504W        W 9007   1.304  42.987   1.324
49505W        W 9008   4.324  38.484   1.878
49506W        W 9009  26.957  33.570   3.741
49507W        W 9010   9.865   2.458  12.846
49508W        W 9011  34.399  30.967   2.181
49509W        W 9012  32.941  22.612  11.545
49510W        W 9013  43.768   9.173   1.809
49511W        W 9014  42.828  27.662   0.334
49512W        W 9015   1.803  15.600  13.447
49513W        W 9016  34.925  25.979  14.483
49514W        W 9017  14.591  40.846   1.270
49515W        W 9018   8.771  41.310   1.342
49516W        W 9019  18.718  14.134  14.477
49517W        W 9020  31.085  27.491   2.757
49518W        W 9021  32.442   1.816   0.354
49519W        W 9022  26.674  40.018   1.702
49520W        W 9023  23.647  13.316   3.183
49521W        W 9024  13.815  36.362   4.799
49522W        W 9025   7.720   7.217   4.239
49523W        W 9026  40.838   0.810   1.842
49524W        W 9027   6.813   9.350  14.898
49525W        W 9028  14.337  12.748   2.273
49526W        W 9029  31.441   8.892   1.748
49527W        W 9030   5.834  21.675   1.311
49528W        W 9031  35.569  20.032   1.254
49529W        W 9032  22.663  31.984  14.879
49530W        W 9033  27.543  38.069  14.772
49531W        W 9034  20.551  20.547  14.338
49532W        W 9035  17.715   9.683  14.928
49533W        W 9036  19.728  26.466  12.440
49534W        W 9037  13.129   4.340  13.992
49535W        W 9038  17.135  25.962  13.813
49536W        W 9039   8.883   6.188  12.427
49537W        W 9040  16.127   3.412  14.401
49538W        W 9041  29.509  19.136   3.767
49539W        W 9042   1.466  22.537   9.990
49540W        W 9043   2.722   1.383  12.869
49541W        W 9044  27.015  37.527  10.629
49542W        W 9045  43.950  34.869   0.349
49543W        W 9046  39.843   3.417  11.082
49544W        W 9047  12.138  12.833  13.371
49545W        W 9048  35.469  16.797   2.789
49546W        W 9049  21.212  20.636  11.019
49547W        W 9050  13.628   2.872  14.886
49548W        W 9051   1.952   1.482  12.066
49549W        W 9052  21.210  30.448   1.407
49550W        W 9053  18.550   6.197  13.892
49551W        W 9054  31.622  30.507   4.201
49552W        W 9055  32.955   0.841  14.332
49553W        W 9056  10.635  39.340  10.973
49554W        W 9057   6.867  35.911   0.811
49555W        W 9058  29.136   8.281   4.213
49556W        W 9059   3.269  26.507  13.542
49557W        W 9060  16.623   2.768   3.781
49558W        W 9061  27.112  33.024   3.733
49559W        W 9062  40.329  11.701   4.313
49560W        W 9063  12.678   7.304  12.933
49561W        W 9064  25.147   0.355  12.844
49562W        W 9065  23.191   8.716   0.962
49563W        W 9066  33.957  43.443   4.762
49564W        W 9067   3.874  22.583  11.122
49565W        W 9068  22.706  38.385  13.878
49566W        W 9069  41.349  29.595   4.218
49567W        W 9070  18.729  36.044  14.967
49568W        W 9071  26.656  30.048  12.980
49569W        W 9072   2.365  38.439   3.276
49570W        W 9073  41.840  19.074  11.958
49571W        W 9074   9.688  21.561   3.322
49572W        W 9075   5.866   4.385  14.395
49573W        W 9076  41.016  24.704   0.830
49574W        W 9077  39.348   9.300   4.723
49575W        W 9078  41.489  41.293  14.811
49576W        W 9079  39.471   9.703  11.943
49577W        W 9080  24.657   4.386   2.877
49578W        W 9081   7.241  31.455  12.541
49579W        W 9082   6.267  11.717   4.320
49580W        W 9083  31.641  36.581   1.272
49581W        W 9084  20.152  13.645  10.409
49582W        W 9085   4.383  44.404   3.230
49583W        W 9086  36.474  13.711  10.510
49584W        W 9087   8.350  19.637  11.984
49585W        W 9088  36.466  14.199   4.142
49586W        W 9089  14.681  40.993   3.289
49587W        W 9090  21.709  27.515   4.822
49588W        W 9091   9.272   8.863  12.349
49589W        W 9092  13.265  13.280  13.477
49590W        W 9093  30.588  26.655   0.436
49591W        W 9094   9.740  27.626   1.432
49592W        W 9095   9.669   0.795   1.255
49593W        W 9096  40.421  31.606  13.056
49594W        W 9097  31.601  35.095  10.410
49595W        W 9098   2.378   4.269   0.811
49596W        W 9099  37.919  38.549   1.846
49597W        W 9100  24.179  36.870  12.047
49598W        W 9101  25.164   2.374  14.464
49599W        W 9102  40.351  41.856   2.741
49600W        W 9103  40.441   9.688   0.302
49601W        W 9104  28.019  17.674   3.212
49602W        W 9105   4.912  14.639   4.777
49603W        W 9106  11.349   4.204   0.873
49604W        W 9107  10.858   6.236  12.463
49605W        W 9108  25.568   6.697  11.919
49606W        W 9109  31.069  27.057   2.843
49607W        W 9110  31.954  41.308  14.328
49608W        W 9111  19.090  18.166  13.876
49609W        W 9112  28.559  22.711  12.018
49610W        W 9113   8.660  41.453  10.447
49611W        W 9114  27.500   1.238  11.019
49612W        W 9115  13.135  37.508  14.924
49613W        W 9116  25.690  41.898  14.484
49614W        W 9117   3.943  38.521   0.959
49615W        W 9118   3.451  42.027  14.490
49616W        W 9119  28.509   7.308   1.722
49617W        W 9120  44.788  15.193   0.321
49618W        W 9121  33.451  15.778   1.847
49619W        W 9122  38.967  21.229  14.793
49620W        W 9123  42.485  15.221  12.433
49621W        W 9124  28.166  15.302  14.411
49622W        W 9125  37.072  19.671  11.934
49623W        W 9126  38.838  43.502  11.555
49624W        W 9127  35.968  40.033  11.587
49625W        W 9128  24.177  40.905   0.730
49626W        W 9129  30.546  26.129  13.841
49627W        W 9130   1.831   4.902   2.383
49628W        W 9131  28.500  16.106   2.264
49629W        W 9132  42.337  11.253  12.036
49630W        W 9133  23.721  39.060   1.273
49631W        W 9134   3.871  36.095  14.023
49632W        W 9135   7.386  22.227  12.514
49633W        W 9136  26.484   1.308   1.226
49634W        W 9137  34.468   5.193   0.756
49635W        W 9138   0.363   8.780   2.890
49636W        W 9139  10.807  25.997  11.981
49637W        W 9140  10.767  22.510   0.472
49638W        W 9141  34.543  37.414  12.049
49639W        W 9142  41.425  16.299  10.589
49640W        W 9143  36.469  37.365   2.320
49641W        W 9144   2.356   9.367   0.954
49642W        W 9145  12.158  20.623  10.917
49643W        W 9146  40.425   7.818   0.779
49644W        W 9147  23.143  30.045  13.381
49645W        W 9148   2.772  19.719  13.991
49646W        W 9149   4.766  16.200  12.463
49647W        W 9150   4.777  10.685   2.385
49648W        W 9151  17.193  35.585  13.058
49649W        W 9152  41.458  25.126  11.961
49650W        W 9153   2.886  16.622   1.351
49651W        W 9154  22.015   0.938   3.257
49652W        W 9155  18.064   0.377   1.756
49653W        W 9156  11.739   3.337   1.798
49654W        W 9157  15.110  24.104  11.439
49655W        W 9158   1.358   2.730   3.848
49656W        W 9159  26.976  37.013   1.214
49657W        W 9160  27.021  22.232  11.022
49658W        W 9161   7.710  22.187  12.424
49659W        W 9162  39.972  24.507   4.604
49660W        W 9163   9.882  11.631  12.840
49661W        W 9164  40.921  39.507  11.101
49662W        W 9165  38.047  24.155  13.054
49663W        W 9166  33.427   0.764   1.929
49664W        W 9167   4.937   6.417  10.937
49665W        W 9168  28.067   9.367   1.269
49666W        W 9169   1.910  22.687  10.433
49667W        W 9170  26.116  40.410  13.344
49668W        W 9171   2.794  19.148  13.954
49669W        W 9172  15.625  35.014   1.388
49670W        W 9173  25.619  33.976   2.810
49671W        W 9174  42.974  42.798  11.046
49672W        W 9175  19.778  40.947  12.435
49673W        W 9176  32.921  16.583   1.786
49674W        W 9177  32.394  36.368   2.234
49675W        W 9178  23.087  19.736   4.771
49676W        W 9179  41.499   3.747   3.828
49677W        W 9180  42.917  18.192   4.636
49678W        W 9181  28.164   4.428  13.938
49679W        W 9182  10.153  41.411   3.836
49680W        W 9183  14.103   9.822   3.184
49681W        W 9184   3.452  42.398  10.926
49682W        W 9185  20.052  32.132   9.959
49683W        W 9186  37.987  18.763  13.440
49684W        W 9187   3.312   8.843   2.219
49685W        W 9188  21.236  19.556  10.010
49686W        W 9189  27.535  20.073   1.750
49687W        W 9190  22.743  25.552  12.007
49688W        W 9191  24.084  23.508  10.613
49689W        W 9192  29.019  25.147   0.259
49690W        W 9193  13.676  42.459  13.964
49691W        W 9194  40.358  42.433   4.614
49692W        W 9195  18.657  38.822  10.605
49693W        W 9196  19.574   9.707   1.440
49694W        W 9197   6.411  19.089   1.862
49695W        W 9198  18.742  40.467  12.040
49696W        W 9199   6.751  19.541   3.247
49697W        W 9200  19.059  29.501  14.820
49698W        W 9201  43.016   3.319   2.290
49699W        W 9202  37.557   9.827  14.994
49700W        W 9203  35.407   5.755  13.360
49701W        W 9204  25.575  39.961  10.445
49702W        W 9205  41.907  25.217   1.436
49703W        W 9206   9.834  26.646  10.985
49704W        W 9207  27.984  29.981  11.871
49705W        W 9208  38.963  23.113   5.158
49706W        W 9209   2.386   0.938   1.388
49707W        W 9210  33.045  27.607   3.381
49708W        W 9211   2.859  39.386  10.634
49709W        W 9212  40.516  27.648   4.776
49710W        W 9213  21.593  23.009   2.837
49711W        W 9214  31.532  28.450   0.303
49712W        W 9215  40.050   6.822   2.311
49713W        W 9216  35.885  35.946   0.846
49714W        W 9217  44.439  41.869   3.308
49715W        W 9218  19.681   3.244   2.313
49716W        W 9219  26.060   7.308   1.315
49717W        W 9220  15.735  22.542  10.598
49718W        W 9221  34.954  42.428  13.909
49719W        W 9222  17.558  36.567  12.974
49720W        W 9223  31.415  27.502   1.245
49721W        W 9224  12.826   9.285   0.457
49722W        W 9225  32.052  14.723   0.907
49723W        W 9226  34.947  37.909  11.955
49724W        W 9227  43.909  31.486   0.753
49725W        W 9228  35.105  25.069  14.297
49726W        W 9229  27.039  30.953  11.556
49727W        W 9230  13.258   5.342  10.629
49728W        W 9231  30.096  10.682  13.849
49729W        W 9232   3.425   9.258  13.407
49730W        W 9233   5.712  30.953   0.808
49731W        W 9234  26.683  18.696  11.017
49732W        W 9235  30.503  15.724   0.845
49733W        W 9236  44.817  20.688   3.277
49734W        W 9237  19.626  11.629  12.386
49735W        W 9238   9.323   5.755   3.728
49736W        W 9239  25.142  20.736   2.881
49737W        W 9240  30.536  17.735  12.917
49738W        W 9241  43.824   0.801   4.144
49739W        W 9242   3.863  26.580  14.495
49740W        W 9243   8.193  26.677   0.390
49741W        W 9244  38.570  27.964   4.268
49742W        W 9245   3.240  10.788   4.618
49743W        W 9246  10.256  24.116  14.328
49744W        W 9247  32.411  21.197   3.165
49745W        W 9248  37.402  41.910   2.362
49746W        W 9249  15.727   4.933  12.361
49747W        W 9250  26.698  38.875  12.016
49748W        W 9251  19.754  40.028  10.424
49749W        W 9252  11.136   0.335  12.846
49750W        W 9253  37.567  43.935  10.469
49751W        W 9254  16.258   5.917  13.458
49752W        W 9255  22.506  27.639  11.493
49753W        W 9256  18.556   1.920  13.983
49754W        W 9257  13.730  30.544   2.352
49755W        W 9258  42.504  21.174  11.544
49756W        W 9259  44.356   0.316  11.985
49757W        W 9260  20.536  34.460   1.314
49758W        W 9261  26.179   0.333   1.863
49759W        W 9262  38.954   9.311  10.153
49760W        W 9263  27.599  28.434   2.265
49761W        W 9264  36.075   7.803   5.139
49762W        W 9265  12.756  43.304   4.121
49763W        W 9266  24.643  31.065  12.048
49764W        W 9267  38.350   2.894  12.848
49765W        W 9268   2.298  34.908   0.335
49766W        W 9269   9.840  12.811   3.348
49767W        W 9270  34.515   6.680  12.544
49768W        W 9271   0.290   7.195   2.352
49769W        W 9272  28.452  38.022   0.454
49770W        W 9273  21.736  27.581  12.363
49771W        W 9274   2.441  10.300  11.975
49772W        W 9275  14.333  42.320   3.252
49773W        W 9276  29.047  38.423   1.264
49774W        W 9277   7.900   4.893   4.174
49775W        W 9278  26.090  31.903  10.570
49776W        W 9279   9.876  14.334  13.960
49777W        W 9280  13.168  40.905   2.384
49778W        W 9281   4.701  14.318  13.453
49779W        W 9282   9.293  31.111  13.834
49780W        W 9283  17.597  43.404   4.773
49781W        W 9284  28.576  30.920  14.393
49782W        W 9285   8.365  38.472  13.508
49783W        W 9286   5.284  28.941   3.258
49784W        W 9287   1.819  19.090   5.726
49785W        W 9288  38.561  13.678   4.631
49786W        W 9289  37.550   8.228  14.276
49787W        W 9290  26.506   6.341  13.471
49788W        W 9291  19.559  28.072   2.310
49789W        W 9292  17.067  26.107   0.940
49790W        W 9293   3.460  16.243  13.047
49791W        W 9294  33.499  26.086   0.387
49792W        W 9295  36.468  26.041  12.858
49793W        W 9296  27.540  24.562  10.592
49794W        W 9297   6.888  19.041   0.857
49795W        W 9298  41.500  21.516  14.323
49796W        W 9299  25.990   9.186   3.278
49797W        W 9300  10.636  16.647  14.386
49798W        W 9301  18.623  16.654   1.711
49799W        W 9302   5.318   5.199   4.781
49800W        W 9303   5.352  11.181   3.688
49801W        W 9304  42.012   5.834   2.312
49802W        W 9305  17.721  23.531   1.713
49803W        W 9306   6.246  42.933  13.857
49804W        W 9307  35.473  14.331  10.985
49805W        W 9308  19.579  41.026   3.273
49806W        W 9309   3.816  30.039  11.564
49807W        W 9310  21.245  21.627  11.474
49808W        W 9311  32.900  12.853   5.312
49809W        W 9312  14.804  39.918   4.780
49810W        W 9313   0.294  34.374   0.752
49811W        W 9314  25.486  33.918  11.026
49812W        W 9315  16.306   8.297  11.968
49813W        W 9316  27.556  44.947   2.372
49814W        W 9317  43.304  43.806   4.822
49815W        W 9318   6.909  24.486   3.197
49816W        W 9319   3.867  40.896  12.826
49817W        W 9320  26.597   0.325  12.954
49818W        W 9321   0.760  18.098   3.192
49819W        W 9322  18.713   0.413   2.769
49820W        W 9323  32.528  14.242   5.099
49821W        W 9324   3.714  33.030  14.414
49822W        W 9325  13.840  32.099   2.757
49823W        W 9326  26.465   2.464  10.634
49824W        W 9327  32.070  41.820  11.494
49825W        W 9328  36.042  24.093   4.813
49826W        W 9329  29.454  22.177  13.940
49827W        W 9330   0.479  15.213  14.773
49828W        W 9331  32.593  13.177  13.486
49829W        W 9332   9.690  18.692  13.437
49830W        W 9333  31.481  16.252   0.765
49831W        W 9334   1.736   5.205  12.378
49832W        W 9335   0.771  13.658  14.029
49833W        W 9336  17.634   9.759   1.850
49834W        W 9337   1.307  33.540   1.769
49835W        W 9338  17.702  30.575  12.392
49836W        W 9339   5.774   4.758  10.465
49837W        W 9340  40.487  23.142   3.664
49838W        W 9341  40.441  15.108  11.538
49839W        W 9342  14.164   9.174   1.801
49840W        W 9343  33.521  17.268  14.297
49841W        W 9344   5.314  14.716   3.150
49842W        W 9345  16.738  31.623   4.656
49843W        W 9346   8.205  19.256  12.393
49844W        W 9347  12.285   7.343  11.582
49845W        W 9348  21.670   8.393  13.402
49846W        W 9349  43.345   8.199  12.448
49847W        W 9350  19.125   6.368  11.080
49848W        W 9351  32.536  26.623  14.913
49849W        W 9352  38.897   3.333   0.892
49850W        W 9353  33.482   9.673   3.225
49851W        W 9354  32.506  19.621  13.048
49852W        W 9355  29.576  26.102  12.965
49853W        W 9356   1.291  12.642  13.439
49854W        W 9357   7.273  19.164  11.565
49855W        W 9358  41.978  15.256   0.456
49856W        W 9359  15.314   2.441   2.731
49857W        W 9360  38.046  23.650   5.102
49858W        W 9361  43.949   7.335   3.288
49859W        W 9362   0.305  39.914   4.623
49860W        W 9363  18.087  19.724   2.758
49861W        W 9364   4.286  30.471  12.081
49862W        W 9365  31.551  39.440  13.873
49863W        W 9366  35.107  37.350  11.067
49864W        W 9367   9.692  13.163  11.946
49865W        W 9368  25.649  40.442   3.296
49866W        W 9369  36.477  19.246  14.834
49867W        W 9370  39.922  14.253   0.449
49868W        W 9371  43.379  40.879   3.254
49869W        W 9372  19.056  18.613  14.961
49870W        W 9373  37.000  35.880   4.620
49871W        W 9374  10.731  31.933  14.787
49872W        W 9375  12.854  19.238   4.608
49873W        W 9376  34.014  38.430   4.185
49874W        W 9377  23.660   2.728   9.931
49875W        W 9378  28.671  36.899  13.310
49876W        W 9379  12.196  39.011   3.354
49877W        W 9380   9.716  21.600  14.870
49878W        W 9381  22.623  14.829   4.258
49879W        W 9382  29.483   1.810   5.101
49880W        W 9383  36.851  40.485  10.500
49881W        W 9384  13.125  41.492  13.465
49882W        W 9385  23.711  43.438  12.390
49883W        W 9386  25.086  12.340   2.875
49884W        W 9387  10.335  12.746   3.700
49885W        W 9388   2.248   9.244  12.578
49886W        W 9389  31.576  15.259   9.520
49887W        W 9390   8.781  15.174  14.484
49888W        W 9391  25.029  18.268  13.902
49889W        W 9392  39.412  21.731   1.899
49890W        W 9393  13.168  37.909   0.795
49891W        W 9394  23.027  43.465  11.874
49892W        W 9395  38.571  10.151   1.435
49893W        W 9396   5.233  10.168   4.703
49894W        W 9397   3.902  32.585   2.754
49895W        W 9398  29.105  19.574  12.359
49896W        W 9399  18.247  32.522  13.807
49897W        W 9400  18.205   9.385   1.916
49898W        W 9401  37.565  32.055   0.919
49899W        W 9402  12.708  11.161  13.010
49900W        W 9403  23.112  11.756  13.993
49901W        W 9404  10.146   4.881  13.454
49902W        W 9405   9.676   9.264   1.840
49903W        W 9406   7.816  36.401   3.378
49904W        W 9407   3.796   1.255   2.804
49905W        W 9408  18.066   2.810  13.027
49906W        W 9409  13.606  37.054   3.792
49907W        W 9410  26.116  34.592  13.445
49908W        W 9411   3.906   9.644   2.765
49909W        W 9412  26.657   1.238   5.253
49910W        W 9413  10.669  37.064   1.839
49911W        W 9414  26.107  36.477   4.765
49912W        W 9415  23.618  29.978   2.698
49913W        W 9416  30.936  15.106   0.943
49914W        W 9417   7.732  23.516   3.320
49915W        W 9418  40.475  19.682  11.427
49916W        W 9419  24.609  14.247   5.198
49917W        W 9420  40.995  20.043   4.187
49918W        W 9421  14.177  11.268  11.416
49919W        W 9422   0.267  16.124   4.220
49920W        W 9423  15.736  27.171   2.283
49921W        W 9424  30.512  44.346  14.485
49922W        W 9425  36.003  41.793   0.382
49923W        W 9426  11.695  26.607  12.938
49924W        W 9427  24.226  14.623  14.779
49925W        W 9428  36.906   1.295  14.397
49926W        W 9429  10.761  13.324  14.378
49927W        W 9430  40.472  23.236  10.998
49928W        W 9431  30.103  43.976   0.775
49929W        W 9432  39.906  33.003  14.879
49930W        W 9433  27.583  13.159  12.373
49931W        W 9434  18.572  32.475   0.256
49932W        W 9435   6.820   3.844   1.860
49933W        W 9436   1.808  35.017   2.186
49934W        W 9437   3.311  19.543   2.334
49935W        W 9438  34.548  15.292  10.569
49936W        W 9439  28.056  40.341   1.880
49937W        W 9440  16.591  39.534   3.250
49938W        W 9441  30.987  16.283  14.305
49939W        W 9442  21.704   1.857   3.674
49940W        W 9443  30.458  14.137   0.763
49941W        W 9444  12.680   7.886  11.112
49942W        W 9445  18.550  16.161  10.926
49943W        W 9446  35.995  21.655   0.790
49944W        W 9447  28.001  30.161  12.831
49945W        W 9448  30.052  40.902   1.794
49946W        W 9449  22.027   4.359   4.129
49947W        W 9450  11.161   0.837  10.952
49948W        W 9451  44.878   7.816  12.413
49949W        W 9452  41.409  36.907  13.353
49950W        W 9453  12.224  40.915  12.577
49951W        W 9454  36.582   5.427  14.912
49952W        W 9455  28.642  25.714   3.752
49953W        W 9456   5.244  15.087  14.425
49954W        W 9457  20.176  15.616  14.339
49955W        W 9458  33.031   3.840   4.155
49956W        W 9459   1.929  43.983   2.272
49957W        W 9460  25.033   0.490  13.529
49958W        W 9461  34.543  27.649  14.418
49959W        W 9462  27.629  14.157   2.761
49960W        W 9463  25.558  11.303  12.483
49961W        W 9464  38.345  26.574  13.477
49962W        W 9465  22.670  22.506   1.787
49963W        W 9466  12.147  13.244   0.734
49964W        W 9467  21.021   9.861   1.232
49965W        W 9468   7.182  26.178   1.221
49966W        W 9469  27.070  11.349  11.448
49967W        W 9470  29.137  34.484  12.896
49968W        W 9471   7.911  28.998   1.899
49969W        W 9472   2.435  16.606  13.496
49970W        W 9473  38.003   3.941   3.746
49971W        W 9474  20.063  38.958  13.867
49972W        W 9475  39.482  26.019   1.755
49973W        W 9476   1.424  22.636   2.381
49974W        W 9477   6.239  43.994  11.455
49975W        W 9478  16.581  12.197   3.730
49976W        W 9479   5.869  29.466   1.260
49977W        W 9480  28.458  29.100  14.929
49978W        W 9481  43.766  41.477  11.938
49979W        W 9482  25.107   8.874   9.944
49980W        W 9483  34.450  14.204  10.567
49981W        W 9484  30.610   4.227   2.179
49982W        W 9485  32.967   2.966   1.907
49983W        W 9486  43.395  14.117   3.194
49984W        W 9487  43.890  26.117   0.867
49985W        W 9488   9.389  37.345  14.318
49986W        W 9489   1.927  28.129  10.143
49987W        W 9490   5.436  34.067   4.260
49988W        W 9491  26.559   1.946  11.373
49989W        W 9492  10.189  38.393  13.369
49990W        W 9493  23.670   1.752  11.924
49991W        W 9494  39.976  22.632   2.418
49992W        W 9495  24.665  43.783   1.297
49993W        W 9496  35.492  18.667   0.964
49994W        W 9497  11.340  35.104  14.391
49995W        W 9498  35.371  35.386  14.327
49996W        W 9499   6.750  41.501  13.004
49997W        W 9500  33.423  29.148  10.983
49998W        W 9501  10.330  29.084   0.801
49999W        W 9502   9.652  41.301  11.980
50000W        W 9503   8.214   1.477   3.288
50001W        W 9504  35.021  34.541  13.324
50002W        W 9505  21.242  34.463   4.211
50003W        W 9506   0.457  15.799  10.950
50004W        W 9507  30.568  27.490  14.815
50005W        W 9508  10.286  31.084  11.460
50006W        W 9509  12.733  31.585   5.183
50007W        W 9510  39.438  43.785  11.061
50008W        W 9511  10.680   1.977   2.313
50009W        W 9512  16.224   8.807   2.860
50010W        W 9513  41.408  25.658   1.732
50011W        W 9514  33.613  40.976   3.221
50012W        W 9515   0.272  23.033  11.547
50013W        W 9516  33.510  28.169  13.957
50014W        W 9517  44.830  26.545  13.488
50015W        W 9518  36.036  36.578  12.438
50016W        W 9519  18.258  24.712   0.312
50017W        W 9520  17.682   2.746  14.277
50018W        W 9521  25.204  32.141   2.241
50019W        W 9522  37.407  23.698   1.281
50020W        W 9523  39.339  33.011   0.785
50021W        W 9524   3.728  13.664  12.544
50022W        W 9525  39.500  33.519  14.406
50023W        W 9526  16.093  22.621  11.550
50024W        W 9527  23.137  30.509   2.212
50025W        W 9528  18.118  33.121  13.518
50026W        W 9529   2.391  33.920  11.509
50027W        W 9530  26.191  36.438   3.235
50028W        W 9531  26.610  14.340  14.430
50029W        W 9532  39.964   6.295   9.953
50030W        W 9533   6.191   6.299   3.681
50031W        W 9534  36.018  27.080  13.323
50032W        W 9535  14.625  28.129   0.917
50033W        W 9536   1.779  29.130  11.450
50034W        W 9537   1.424  38.347  11.956
50035W        W 9538   7.756   2.775   3.767
50036W        W 9539   3.356   8.672   3.764
50037W        W 9540  28.670   0.392  13.872
50038W        W 9541  40.924  11.268  12.960
50039W        W 9542   4.765  23.202  13.364
50040W        W 9543   8.163  13.692   0.842
50041W        W 9544  22.740   6.409  14.382
50042W        W 9545  11.247  44.494  13.498
50043W        W 9546  27.114  17.747  11.872
50044W        W 9547  22.089  27.500   3.223
50045W        W 9548  13.766  44.363   1.842
50046W        W 9549   9.321   8.181  14.293
50047W        W 9550  40.331  37.502  14.482
50048W        W 9551  35.061   1.759   2.398
50049W        W 9552  28.155  42.994  12.940
50050W        W 9553  25.172  29.515  11.910
50051W        W 9554   0.428  43.433  13.056
50052W        W 9555  26.127   1.789   2.256
50053W        W 9556  21.150  33.081   1.724
50054W        W 9557  41.378  31.503  14.866
50055W        W 9558  35.385  19.775  14.767
50056W        W 9559  24.104  41.857  13.837
50057W        W 9560  16.661  18.720  14.324
50058W        W 9561  42.513  20.597   3.733
50059W        W 9562  14.238  17.101   1.765
50060W        W 9563   8.371  15.672   2.253
50061W        W 9564   0.343  13.789  11.509
50062W        W 9565  29.935  20.678  12.513
50063W        W 9566  21.255  39.037  14.986
50064W        W 9567  22.069  33.937   2.187
50065W        W 9568  12.149   9.191  14.329
50066W        W 9569   5.227  25.050  13.913
50067W        W 9570  41.002  19.702  10.996
50068W        W 9571  10.230  15.237   3.269
50069W        W 9572  36.051  23.513  11.493
50070W        W 9573  29.502  34.090  13.442
50071W        W 9574  15.325  27.555  10.958
50072W        W 9575  32.636  11.254  14.860
50073W        W 9576  12.213   2.862   1.390
50074W        W 9577  19.273  38.028  14.826
50075W        W 9578   1.308  41.442   1.810
50076W        W 9579  44.275  20.054  10.098
50077W        W 9580  21.621   6.832  13.546
50078W        W 9581   3.434  15.722   2.817
50079W        W 9582  25.537  42.858  12.542
50080W        W 9583  34.878  29.434   3.776
50081W        W 9584  19.284   4.381   1.294
50082W        W 9585   3.371  28.008  12.415
50083W        W 9586  30.503  38.999   2.686
50084W        W 9587  16.579   5.740   2.309
50085W        W 9588   6.230  13.675  13.862
50086W        W 9589  30.159  39.374  12.427
50087W        W 9590  30.081  35.083   3.712
50088W        W 9591  41.001  13.202  14.974
50089W        W 9592  44.472  34.888   0.289
50090W        W 9593   4.806  23.181  12.436
50091W        W 9594  17.296  35.012  10.007
50092W        W 9595  26.087   7.381  11.111
50093W        W 9596  18.182  13.176  10.912
50094W        W 9597  33.957  18.242   2.319
50095W        W 9598  27.120   5.908   4.698
50096W        W 9599   6.319  33.036  12.354
50097W        W 9600  28.130  36.050  13.959
50098W        W 9601  24.120   8.777  10.411
50099W        W 9602  20.194  21.745  12.573
50100W        W 9603  20.237   2.295  12.469
50101W        W 9604  42.309  23.696   4.316
50102W        W 9605   1.298   9.266  12.985
50103W        W 9606  23.144  20.731   3.175
50104W        W 9607  13.165  38.965   1.916
50105W        W 9608  37.374   0.816   3.865
50106W        W 9609  10.744  17.305  12.923
50107W        W 9610  10.771  38.983   2.697
50108W        W 9611  31.099  39.880   1.439
50109W        W 9612  10.766   4.799  12.402
50110W        W 9613  17.739   9.287   2.849
50111W        W 9614  38.515  14.596   3.650
50112W        W 9615  38.889   8.204   2.900
50113W        W 9616   7.382  43.412   0.295
50114W        W 9617  17.699  26.702  11.995
50115W        W 9618  38.478   4.865  11.549
50116W        W 9619  32.966   5.266  11.466
50117W        W 9620   7.684  11.136  14.767
50118W        W 9621  14.786  38.461   3.272
50119W        W 9622  37.027  33.984   2.293
50120W        W 9623  37.839  33.097   4.602
50121W        W 9624  22.741   4.393   0.789
50122W        W 9625   3.224  31.583   2.709
50123W        W 9626  25.567  28.567  13.516
50124W        W 9627  41.906  20.204  14.892
50125W        W 9628  27.039  36.026  14.347
50126W        W 9629  16.078  18.169   5.290
50127W        W 9630  30.132   9.358  12.965
50128W        W 9631   6.279   0.381   3.311
50129W        W 9632  28.953  32.636  10.938
50130W        W 9633   1.387   0.409  11.374
50131W        W 9634  10.256   5.251  11.096
50132W        W 9635  18.788  20.131   3.744
50133W        W 9636  16.618  41.043  12.922
50134W        W 9637  23.728  15.733  10.547
50135W        W 9638  11.160   6.298   3.247
50136W        W 9639  25.648  35.584   0.341
50137W        W 9640  23.594  42.029   0.959
50138W        W 9641  29.560  37.896  13.966
50139W        W 9642   6.915  24.082   1.392
50140W        W 9643  28.158  16.711   0.246
50141W        W 9644   5.270  24.133  12.342
50142W        W 9645  10.754  34.011   4.152
50143W        W 9646  22.022  27.130  10.550
50144W        W 9647  11.705   8.192   0.481
50145W        W 9648  14.303  20.091   0.331
50146W        W 9649  42.286   5.920  11.485
50147W        W 9650  15.310   2.831   3.268
50148W        W 9651  19.113  43.911   4.739
50149W        W 9652   4.830  10.818   4.237
50150W        W 9653  36.549   8.394   0.355
50151W        W 9654  38.819  44.810   4.117
50152W        W 9655   7.237  42.806  14.512
50153W        W 9656  39.447  18.240   1.294
50154W        W 9657  16.211  28.010  11.118
50155W        W 9658   2.814  19.188   9.496
50156W        W 9659  36.449  25.631  10.620
50157W        W 9660  26.965   9.838  11.990
50158W        W 9661  41.831  22.694   5.311
50159W        W 9662   2.303  24.197  14.372
50160W        W 9663  25.496  18.745   3.823
50161W        W 9664  25.056  38.880  12.457
50162W        W 9665  18.545  15.125   1.849
50163W        W 9666  11.750   4.903   0.450
50164W        W 9667  12.818  16.089  12.525
50165W        W 9668  11.735   8.334   3.162
50166W        W 9669  38.566   5.260   3.239
50167W        W 9670   7.214  12.681   1.263
50168W        W 9671  11.273  14.656  13.061
50169W        W 9672  35.877  41.479   4.325
50170W        W 9673   6.854  37.424   3.256
50171W        W 9674  24.552  44.836   2.376
50172W        W 9675  16.274  33.078  10.603
50173W        W 9676   6.230   8.833  14.349
50174W        W 9677  35.377   7.278  11.884
50175W        W 9678  21.093  10.758  10.590
50176W        W 9679   5.756  27.662   1.806
50177W        W 9680  37.003   8.403  10.918
50178W        W 9681  36.891  31.489   3.757
50179W        W 9682  18.739   4.338   1.906
50180W        W 9683   0.933   2.348   3.636
50181W        W 9684   8.692  16.748  14.428
50182W        W 9685  13.723   7.827   0.471
50183W        W 9686  19.152   0.866  13.350
50184W        W 9687  39.527   1.241   0.936
50185W        W 9688   4.772  33.968   4.196
50186W        W 9689  21.024  23.656   4.701
50187W        W 9690   5.834  30.437  12.454
50188W        W 9691  25.591  25.695   2.703
50189W        W 9692  40.373  30.059   1.827
50190W        W 9693  40.048  38.031   0.901
50191W        W 9694  14.650   4.927   0.401
50192W        W 9695  41.344  30.124  12.023
50193W        W 9696   1.417   3.333  10.638
50194W        W 9697   5.363  18.699  11.908
50195W        W 9698  11.668   1.929  12.874
50196W        W 9699   1.278  26.108  13.408
50197W        W 9700  26.480  13.806   4.611
50198W        W 9701  26.458  18.103  13.429
50199W        W 9702  30.134  40.925   2.216
50200W        W 9703  13.116  10.778   2.257
50201W        W 9704   6.884  14.171   1.805
50202W        W 9705   1.438  27.010  11.858
50203W        W 9706   2.443  19.700   2.735
50204W        W 9707  26.637  23.497   2.306
50205W        W 9708  41.534  31.000   2.790
50206W        W 9709   0.771  28.459  14.027
50207W        W 9710   9.197  44.391   4.231
50208W        W 9711  36.592   4.323   3.868
50209W        W 9712  11.835  19.234   3.275
50210W        W 9713  12.150  40.465   4.313
50211W        W 9714   2.291   8.280   4.790
50212W        W 9715  35.572  25.116  12.525
50213W        W 9716   4.240  25.663   0.959
50214W        W 9717  32.039  33.115  11.934
50215W        W 9718  30.934  15.283   3.177
50216W        W 9719  30.105  41.466   1.789
50217W        W 9720  18.766  24.146  13.386
50218W        W 9721  14.150  13.166  13.960
50219W        W 9722  19.716  20.210   2.775
50220W        W 9723  33.393  31.484   4.354
50221W        W 9724  43.293  33.940  10.616
50222W        W 9725  33.953  23.670  12.563
50223W        W 9726  24.625   7.358   1.792
50224W        W 9727  37.517  43.419   4.636
50225W        W 9728   2.861   5.433   3.859
50226W        W 9729  43.511  25.696  11.964
50227W        W 9730   2.760  33.953  12.877
50228W        W 9731  22.027   0.358   4.792
50229W        W 9732  20.123  28.461   2.716
50230W        W 9733   7.743  26.504  12.432
50231W        W 9734  12.170  15.664   0.862
50232W        W 9735   2.943  40.440   1.878
50233W        W 9736   5.911  37.844  10.980
50234W        W 9737  39.896  42.333   1.814
50235W        W 9738  43.951   5.770  11.920
50236W        W 9739  17.141  26.521  11.472
50237W        W 9740  37.364   4.838   0.754
50238W        W 9741  24.177   3.444  10.618
50239W        W 9742  25.992  29.098   0.267
50240W        W 9743  38.333  28.078  10.433
50241W        W 9744  23.568  23.092  14.904
50242W        W 9745  20.635   3.397   0.418
50243W        W 9746   3.903  30.445   1.736
50244W        W 9747  10.193  15.241  12.381
50245W        W 9748   7.227   7.779   1.373
50246W        W 9749  14.193  42.014  13.334
50247W        W 9750  37.910  40.437   0.858
50248W        W 9751  31.632  43.325   4.825
50249W        W 9752  31.136  30.655   2.903
50250W        W 9753  42.343  40.485   3.644
50251W        W 9754  39.402  25.649   2.411
50252W        W 9755  28.515  13.339   0.373
50253W        W 9756  29.662   6.215  10.485
50254W        W 9757  17.274  22.094   4.804
50255W        W 9758  41.887  31.492   4.118
50256W        W 9759  19.571  14.098   2.675
50257W        W 9760  38.964  15.584   4.721
50258W        W 9761  27.140  12.710  11.499
50259W        W 9762  15.316   9.280   4.610
50260W        W 9763   8.241  18.116   9.967
50261W        W 9764   7.748  42.853   1.820
50262W        W 9765  21.639  34.040  13.329
50263W        W 9766  42.858   3.716  14.294
50264W        W 9767  27.455   4.263  13.525
50265W        W 9768  10.314  30.481   0.394
50266W        W 9769  16.314  21.569  13.374
50267W        W 9770  44.397  44.838   3.789
50268W        W 9771  35.476   2.368   4.824
50269W        W 9772  29.649  35.552  10.966
50270W        W 9773   6.839   8.288   2.288
50271W        W 9774  30.637   6.811  14.380
50272W        W 9775  14.124   6.867  11.409
50273W        W 9776  14.129  35.922   4.734
50274W        W 9777   0.403  35.928   2.885
50275W        W 9778  44.472  28.125   1.433
50276W        W 9779  15.216  15.118  11.443
50277W        W 9780   3.824  40.922   4.712
50278W        W 9781   1.258  36.081  11.971
50279W        W 9782  10.154   2.406  11.122
50280W        W 9783  20.766  28.939   4.215
50281W        W 9784  30.968  38.329   2.720
50282W        W 9785  23.084  12.857   0.394
50283W        W 9786  21.158  42.377  14.433
50284W        W 9787  25.672  24.479  11.561
50285W        W 9788  21.184  31.124   0.467
50286W        W 9789  13.207  29.654  14.851
50287W        W 9790  11.368  31.016  13.484
50288W        W 9791  40.828  29.157   2.281
50289W        W 9792  16.217   7.668   4.740
50290W        W 9793  15.813  37.524   5.270
50291W        W 9794  33.585  38.063   3.726
50292W        W 9795   3.837  16.751  11.973
50293W        W 9796  22.580  36.874  11.569
50294W        W 9797  38.382  11.638  12.428
50295W        W 9798  39.005  34.935  10.620
50296W        W 9799  21.081   0.265   4.249
50297W        W 9800  34.496  15.146  12.339
50298W        W 9801  18.193   8.303   2.745
50299W        W 9802  18.260  14.821  13.453
50300W        W 9803  29.066  29.174  10.625
50301W        W 9804  10.633  44.383   3.765
50302W        W 9805  22.639  32.123  10.986
50303W        W 9806  14.296  11.680  10.584
50304W        W 9807   2.329  16.254   0.339
50305W        W 9808  26.535  11.694  12.038
50306W        W 9809  26.560  37.391  11.511
50307W        W 9810  29.030  31.016   4.151
50308W        W 9811  22.141  26.475  12.004
50309W        W 9812  27.544  32.621   1.900
50310W        W 9813   9.881   2.763  12.880
50311W        W 9814   1.769  40.843   0.430
50312W        W 9815  16.304  26.655   3.303
50313W        W 9816  34.015  35.378   2.664
50314W        W 9817   0.885   9.852  12.069
50315W        W 9818  38.535  37.964   4.702
50316W        W 9819  19.064  21.686  14.290
50317W        W 9820  38.530   0.338  14.780
50318W        W 9821  12.619  13.125  11.937
50319W        W 9822   1.852  33.880   4.794
50320W        W 9823  38.865  36.964   1.452
50321W        W 9824  16.752   9.292   4.802
50322W        W 9825  33.988  12.650   5.296
50323W        W 9826  31.150  30.561   3.759
50324W        W 9827   0.862  35.470   3.674
50325W        W 9828  30.001  41.814  11.518
50326W        W 9829  36.857   3.303   4.184
50327W        W 9830  23.702   1.921   9.563
50328W        W 9831   8.699  42.015  10.553
50329W        W 9832   2.861  31.467  14.292
50330W        W 9833   6.763  44.961  11.532
50331W        W 9834  26.003   1.938   1.701
50332W        W 9835  21.021  10.700   4.306
50333W        W 9836  40.399  22.078   4.820
50334W        W 9837   6.370  36.418  10.435
50335W        W 9838   8.742  11.319  13.946
50336W        W 9839  32.037  17.065   2.817
50337W        W 9840  29.090  33.414   4.764
50338W        W 9841  31.542   0.849  12.415
50339W        W 9842  28.961  19.193  14.459
50340W        W 9843  33.623  28.571   4.789
50341W        W 9844  41.468   0.760  14.839
50342W        W 9845  12.208  11.695  12.933
50343W        W 9846  40.842   9.821   2.375
50344W        W 9847  34.503  25.117  14.030
50345W        W 9848  19.548   7.876   0.746
50346W        W 9849  28.085  27.093   1.247
50347W        W 9850  33.012  14.645   4.663
50348W        W 9851  25.998  17.266   0.754
50349W        W 9852  33.004  32.519  11.887
50350W        W 9853  19.769  40.533  12.962
50351W        W 9854  32.392  10.872  14.930
50352W        W 9855  22.995  18.209  13.004
50353W        W 9856  15.276  22.084   2.255
50354W        W 9857  30.448   7.233  13.033
50355W        W 9858  44.855  10.774   3.791
50356W        W 9859  19.675  10.249  11.393
50357W        W 9860  25.979  33.568   4.335
50358W        W 9861   5.837  31.974  11.573
50359W        W 9862  29.171  15.136  14.859
50360W        W 9863   8.712  32.571  10.057
50361W        W 9864  19.118  24.074   2.340
50362W        W 9865  35.468  17.078   2.301
50363W        W 9866  16.774  19.062   3.769
50364W        W 9867  22.006  32.431   2.396
50365W        W 9868  16.276  17.089  14.959
50366W        W 9869  31.153   5.701   0.428
50367W        W 9870  18.618  25.141  13.485
50368W        W 9871  34.412   3.405   1.796
50369W        W 9872  44.826  16.279  11.401
50370W        W 9873  26.985   6.815   2.802
50371W        W 9874   0.334   7.279   0.383
50372W        W 9875  43.775  37.399   2.212
50373W        W 9876  38.938  37.406   4.196
50374W        W 9877  31.011  12.116   9.600
50375W        W 9878   3.290  16.247   2.839
50376W        W 9879  41.497  31.143  12.842
50377W        W 9880  33.438  10.831   4.343
50378W        W 9881  22.158  25.146   2.751
50379W        W 9882  41.364  33.918  12.852
50380W        W 9883  11.291  35.974  10.907
50381W        W 9884  32.450  33.449   2.823
50382W        W 9885  26.116   9.215   4.244
50383W        W 9886  27.195  11.221   3.746
50384W        W 9887  39.518  13.751   4.259
50385W        W 9888  42.966  23.177  14.413
50386W        W 9889   8.877  36.582  12.418
50387W        W 9890  19.772  32.612  14.281
50388W        W 9891  31.523   3.295  13.906
50389W        W 9892  26.632   9.671   2.351
50390W        W 9893  25.973  26.079  10.889
50391W        W 9894  39.482  30.586   2.741
50392W        W 9895  18.718  41.867   1.742
50393W        W 9896  21.176  40.906   3.755
50394W        W 9897  22.548  27.567   3.850
50395W        W 9898  32.627  32.984   3.816
50396W        W 9899  23.222  20.155  11.948
50397W        W 9900  29.487  28.108   1.710
50398W        W 9901  19.097  37.896  11.488
50399W        W 9902  25.975   0.759  13.374
50400W        W 9903   6.837   8.657   1.699
50401W        W 9904  41.534  25.505  12.968
50402W        W 9905   5.869  36.547  11.960
50403W        W 9906  17.121   5.224  11.604
50404W        W 9907  29.019   2.332   1.343
50405W        W 9908  12.191  17.094   5.143
50406W        W 9909  20.096  33.412   3.660
50407W        W 9910  35.034   3.450  12.067
50408W        W 9911  33.519   9.844   2.408
50409W        W 9912  25.183  15.741   1.358
50410W        W 9913   1.285  27.087  12.990
50411W        W 9914  42.391   8.172   0.734
50412W        W 9915  12.679  40.861  11.416
50413W        W 9916  40.358   0.256  14.854
50414W        W 9917  37.445  25.482  11.900
50415W        W 9918  24.722  31.517   2.888
50416W        W 9919   5.755   5.248  10.621
50417W        W 9920  30.954   9.155  13.512
50418W        W 9921   6.913  30.927  13.865
50419W        W 9922  30.062  14.687  14.954
50420W        W 9923   0.279  11.289   1.799
50421W        W 9924  11.803  23.214   2.393
50422W        W 9925   4.378  22.724   1.811
50423W        W 9926  12.263  37.834  11.453
50424W        W 9927  36.979  42.030  14.893
50425W        W 9928  15.741  22.052   4.663
50426W        W 9929  19.726  40.810  10.455
50427W        W 9930  38.431  27.597  13.845
50428W        W 9931  23.727   8.685  12.511
50429W        W 9932  19.554  22.210  14.893
50430W        W 9933   8.851  41.787  14.504
50431W        W 9934   9.683  26.626   0.250
50432W        W 9935  22.995  20.666  12.502
50433W        W 9936  10.879  27.684  13.431
50434W        W 9937   3.339  22.537  14.961
50435W        W 9938  14.102  29.581  14.795
50436W        W 9939  41.948  17.770   4.284
50437W        W 9940  31.954  31.460  14.386
50438W        W 9941  36.912  43.844  14.970
50439W        W 9942   5.848  38.969   4.353
50440W        W 9943  36.486  31.056   4.157
50441W        W 9944   7.720   6.248   2.409
50442W        W 9945  21.024  25.011  11.945
50443W        W 9946  16.592  31.942   0.440
50444W        W 9947  18.648  39.458  14.851
50445W        W 9948  28.504  13.229  13.427
50446W        W 9949  20.124  21.656  10.928
50447W        W 9950   7.404  13.337   4.651
50448W        W 9951  25.032   9.679   0.324
50449W        W 9952  33.907  32.577   1.377
50450W        W 9953  41.868  39.492  11.967
50451W        W 9954  17.578   1.324  14.431
50452W        W 9955  39.827  43.284  10.552
50453W        W 9956  38.451  24.571  14.295
50454W        W 9957   3.709  31.964  11.579
50455W        W 9958  23.668  14.633   0.476
50456W        W 9959  25.685  11.697  13.342
50457W        W 9960  28.554  24.719  11.506
50458W        W 9961  41.958  33.033   2.292
50459W        W 9962   8.819   1.246   3.818
50460W        W 9963  29.470   0.329  11.480
50461W        W 9964  23.989  16.618   0.395
50462W        W 9965   7.225  24.018   1.260
50463W        W 9966   9.795  19.719   1.907
50464W        W 9967  21.734  42.925   2.826
50465W        W 9968  35.054   2.250   0.864
50466W        W 9969  34.610  13.206   5.188
50467W        W 9970   0.490  24.005   1.290
50468W        W 9971  36.395  15.149   2.824
50469W        W 9972  24.143  15.087   1.866
50470W        W 9973  44.477  11.751  10.581
50471W        W 9974  20.549  22.637  12.376
50472W        W 9975   5.433  34.501   1.421
50473W        W 9976   6.881   0.420  11.589
50474W        W 9977  37.890   7.789  11.591
50475W        W 9978   0.304   7.373  11.432
50476W        W 9979  14.670  42.854   1.406
50477W        W 9980   5.769   8.240   0.888
50478W        W 9981  11.675   0.432  13.355
50479W        W 9982   4.810   5.714   3.708
50480W        W 9983  25.126   2.781   4.789
50481W        W 9984  38.493  14.834   3.196
50482W        W 9985  39.531  37.340   0.354
50483W        W 9986  15.146   2.357   0.908
50484W        W 9987  14.231   5.418   2.820
50485W        W 9988  12.306  23.991  12.900
50486W        W 9989  18.592  18.681   1.330
50487W        W 9990   2.245  14.662   2.358
50488W        W 9991   7.892  31.964   1.931
50489W        W 9992  21.174  43.903  10.128
50490W        W 9993  42.956  23.196  14.003
50491W        W 9994  37.015   3.358   2.887
50492W        W 9995  22.727  44.448   4.353
50493W        W 9996  35.020   4.699  14.304
50494W        W 9997  10.229   6.910  11.990
50495W        W 9998  44.294  42.996  13.940
50496W        W 9999  19.558  43.434   3.177
50497W        W10000  29.614   7.901  10.918
50498W        W10001  23.567  33.464   3.805
50499W        W10002  41.316  21.176   2.748
50500W        W10003   0.422  34.368   3.258
50501W        W10004  41.012  21.022   1.426
50502W        W10005  26.164  28.439   1.433
50503W        W10006  44.011   5.300  10.456
50504W        W10007  43.452  32.952   1.914
50505W        W10008  22.580  41.316   0.269
50506W        W10009   0.894  20.169  11.898
50507W        W10010  33.617   3.305  13.377
50508W        W10011  13.821  27.054  12.055
50509W        W10012  29.455   9.841  13.906
50510W        W10013   5.356  34.110   3.155
50511W        W10014  23.705  43.389  12.958
50512W        W10015  42.791  18.081   4.253
50513W        W10016  37.934  39.388  13.055
50514W        W10017  17.204  42.810  11.900
50515W        W10018  32.061  11.243  11.555
50516W        W10019  28.601   8.398   0.850
50517W        W10020   7.698  25.967   0.419
50518W        W10021   8.300  15.137  12.830
50519W        W10022  26.621  29.509  10.912
50520W        W10023   0.820  37.893   3.231
50521W        W10024  42.489  35.371  13.018
50522W        W10025   8.816  44.906  13.017
50523W        W10026  37.484  36.528  12.950
50524W        W10027  18.670  34.927   4.185
50525W        W10028  11.366  35.971   4.169
50526W        W10029  23.625  37.085   2.680
50527W        W10030  27.123  24.556   4.132
50528W        W10031  16.588  39.990  14.430
50529W        W10032  11.297   8.310  14.452
50530W        W10033   2.943  37.548  11.100
50531W        W10034  31.083  39.015  11.971
50532W        W10035  15.202  39.484  13.064
50533W        W10036  12.313  21.615  14.833
50534W        W10037  12.327  30.542  14.432
50535W        W10038  12.763  21.618  13.364
50536W        W10039  18.686  24.570   1.390
50537W        W10040   8.773  24.516  12.858
50538W        W10041  37.548  16.644  10.965
50539W        W10042   6.912  25.092   3.649
50540W        W10043  31.052  28.004  14.331
50541W        W10044  41.983  15.646   2.755
50542W        W10045  19.270  10.809  12.579
50543W        W10046   7.190  17.140  13.978
50544W        W10047  29.565  24.986   2.692
50545W        W10048  35.936  12.792   3.239
50546W        W10049  10.859  21.230  14.943
50547W        W10050   5.265  41.487  14.769
50548W        W10051  37.070   2.404   3.773
50549W        W10052  34.061  25.014   4.255
50550W        W10053  12.196  30.623   5.772
50551W        W10054  21.102  12.763   2.707
50552W        W10055  33.931  11.329   1.736
50553W        W10056  22.252  25.681  12.553
50554W        W10057  31.944  34.900  12.085
50555W        W10058   5.360   5.285  13.840
50556W        W10059  38.859   1.339   2.860
50557W        W10060   9.167  31.415  12.078
50558W        W10061  13.279   8.320   1.836
50559W        W10062  24.227  43.989  12.000
50560W        W10063  43.868  18.782  14.368
50561W        W10064  44.976  37.374  12.488
50562W        W10065   6.890  44.959  12.841
50563W        W10066  14.200   4.858   1.332
50564W        W10067   9.795  10.264   0.821
50565W        W10068  24.613  10.700  11.461
50566W        W10069  29.549  21.097   1.325
50567W        W10070  28.021   9.383  14.340
50568W        W10071  41.012  19.170   2.718
50569W        W10072  42.959  44.341   2.855
50570W        W10073  17.182   7.393   3.272
50571W        W10074  26.989  29.511  10.517
50572W        W10075  35.012   6.238   0.812
50573W        W10076  24.579  29.123  11.372
50574W        W10077  19.556  43.844   3.635
50575W        W10078  26.166   9.677  12.940
50576W        W10079  32.470  33.894   5.259
50577W        W10080   8.259  36.961   4.337
50578W        W10081  16.765  40.344  13.005
50579W        W10082  31.569  11.685  12.947
50580W        W10083  10.369   1.764  11.394
50581W        W10084  36.505  38.005  12.993
50582W        W10085  17.740   8.784   5.301
50583W        W10086  23.611  40.921   2.360
50584W        W10087  12.846  29.606  12.842
50585W        W10088  22.178  31.107  10.558
50586W        W10089  20.761  29.637  12.499
50587W        W10090  31.930  13.817  14.299
50588W        W10091  10.690   4.939  11.408
50589W        W10092  28.664  22.645  12.973
50590W        W10093  31.569  15.282  12.986
50591W        W10094  12.280  39.923  11.918
50592W        W10095  11.341  14.709   5.689
50593W        W10096  11.309   0.248   0.408
50594W        W10097   5.803  42.393  14.965
50595W        W10098  12.673   6.737  12.412
50596W        W10099   7.173  18.677   3.313
50597W        W10100   4.871  24.507  10.907
50598W        W10101   8.870  35.925  13.320
50599W        W10102  29.573  25.600  11.101
50600W        W10103  33.388   7.896  14.762
50601W        W10104  41.537  34.060   4.134
50602W        W10105   5.856  28.940  12.065
50603W        W10106  40.039  30.597  13.874
50604W        W10107  25.998  13.105  11.382
50605W        W10108  16.295  41.453   1.886
50606W        W10109  30.631  21.738   2.851
50607W        W10110   8.362  26.054  13.930
50608W        W10111  29.054  37.013   9.669
50609W        W10112  30.031   9.323  14.453
50610W        W10113  27.081   0.794  14.497
50611W        W10114   1.348   1.358   3.279
50612W        W10115  17.295  31.402  12.991
50613W        W10116  38.520  23.514   0.851
50614W        W10117   9.683  40.918  14.762
50615W        W10118  20.103   3.748   2.710
50616W        W10119   6.864   9.339   3.250
50617W        W10120  30.139  44.881   3.236
50618W        W10121  37.355  26.010   0.772
50619W        W10122  35.036   8.402   1.451
50620W        W10123  33.053  31.960   3.259
50621W        W10124   5.301  37.850   1.892
50622W        W10125  38.015  43.421  10.980
50623W        W10126  39.513  20.680  14.397
50624W        W10127   3.292  34.099   4.782
50625W        W10128   7.707  22.596   4.792
50626W        W10129  29.608  23.014  14.408
50627W        W10130  36.590  28.500  13.840
50628W        W10131   8.882  33.067  11.602
50629W        W10132   3.753  18.107   3.789
50630W        W10133  14.789  18.708   0.960
50631W        W10134  23.102  14.298   5.145
50632W        W10135  19.133  40.349   3.177
50633W        W10136   8.740  21.540  12.930
50634W        W10137  41.011  39.954   1.839
50635W        W10138  10.808  30.947   0.307
50636W        W10139  22.636   8.743   2.271
50637W        W10140  23.238  33.457  13.547
50638W        W10141  12.148   0.819  14.474
50639W        W10142  23.161  20.610  11.056
50640W        W10143  16.794  19.050   1.779
50641W        W10144  28.998  26.580   5.732
50642W        W10145   5.352  32.002   4.231
50643W        W10146   1.844  27.658  10.608
50644W        W10147  13.617  35.857  14.362
50645W        W10148  44.484  25.676  12.494
50646W        W10149  37.926  22.675  14.355
50647W        W10150  43.407  28.671   5.622
50648W        W10151  35.917  38.949  12.972
50649W        W10152  40.839  30.530  14.770
50650W        W10153   3.849  22.237  11.451
50651W        W10154  10.703   8.757  12.387
50652W        W10155  26.571  28.577  14.473
50653W        W10156  43.887  31.646  12.577
50654W        W10157  38.349  20.142   3.755
50655W        W10158  32.567  36.988  13.434
50656W        W10159   9.314   8.288  14.978
50657W        W10160  12.197  23.510  14.798
50658W        W10161  41.344  38.351  14.292
50659W        W10162  17.108  33.523  11.925
50660W        W10163  33.039  19.144   4.691
50661W        W10164  38.548   9.172  14.457
50662W        W10165  17.204  27.499   4.630
50663W        W10166   5.857  36.484  11.048
50664W        W10167  14.207  31.966   2.806
50665W        W10168  13.761   6.803   3.720
50666W        W10169  43.008  12.325   2.763
50667W        W10170  22.144   4.298  12.500
50668W        W10171  11.863  18.726   0.270
50669W        W10172  33.974  35.985  13.450
50670W        W10173  12.203  41.912   1.867
50671W        W10174  38.987   9.835   1.241
50672W        W10175  25.963  26.024  13.318
50673W        W10176   5.396  27.988   1.811
50674W        W10177  36.416   3.300   1.276
50675W        W10178   4.942  21.604  12.510
50676W        W10179  34.059  28.602  10.419
50677W        W10180  39.468   4.935   0.262
50678W        W10181  22.097  41.900  14.023
50679W        W10182  18.243  28.987   4.190
50680W        W10183  12.752  18.268   3.332
50681W        W10184   5.264  22.226   0.294
50682W        W10185  17.652   5.834   0.408
50683W        W10186   9.190  19.733   0.267
50684W        W10187  39.361  26.003   3.668
50685W        W10188  36.445  42.025   1.264
50686W        W10189  19.073   3.304  13.380
50687W        W10190  26.646  32.623   3.374
50688W        W10191   5.842  16.151  13.328
50689W        W10192  34.554   0.331   4.342
50690W        W10193  21.660   7.278   4.206
50691W        W10194  29.158  11.127   2.222
50692W        W10195  30.652  39.975   1.925
50693W        W10196  10.638  16.739   2.866
50694W        W10197  25.107  44.275  13.471
50695W        W10198  30.946  16.256  14.984
50696W        W10199  30.545   8.253  14.866
50697W        W10200   5.308  28.610   3.686
50698W        W10201   7.737   4.707  12.368
50699W        W10202  32.023  17.768   0.380
50700W        W10203  44.812  38.991  10.073
50701W        W10204   5.783  40.330   4.626
50702W        W10205  21.067  33.036   4.709
50703W        W10206  43.955  21.512   4.707
50704W        W10207  15.762  43.290   2.710
50705W        W10208  26.061  34.402  14.860
50706W        W10209   5.765  12.746  14.412
50707W        W10210   7.755  20.203  14.006
50708W        W10211  25.660  15.778   4.159
50709W        W10212  17.110  43.496   4.207
50710W        W10213   2.465  28.672   1.363
50711W        W10214  38.411  35.451   2.262
50712W        W10215   9.249  40.979  11.002
50713W        W10216   9.866  11.792   4.765
50714W        W10217  43.495   5.421   1.252
50715W        W10218  41.797   3.306   1.432
50716W        W10219  27.544   2.443  11.890
50717W        W10220   9.193  42.290   2.385
50718W        W10221  31.614   9.868   1.223
50719W        W10222  37.982  25.623  12.053
50720W        W10223   8.238  18.218  13.034
50721W        W10224   4.317  23.063   4.295
50722W        W10225   2.457  16.794   3.218
50723W        W10226   6.257   1.412  14.897
50724W        W10227  37.945  11.848  14.432
50725W        W10228  33.517  14.119   4.131
50726W        W10229  16.130  20.534   4.730
50727W        W10230  10.142  44.394   9.945
50728W        W10231  17.617  37.840  13.433
50729W        W10232  21.534  10.857   4.692
50730W        W10233  12.281  24.002   4.683
50731W        W10234  18.098  18.602   4.128
50732W        W10235  12.289  31.470   5.294
50733W        W10236  28.997   8.179   1.395
50734W        W10237  44.834  35.914  14.926
50735W        W10238  18.722  29.132   4.646
50736W        W10239   0.793  23.985  11.432
50737W        W10240   2.267  37.043  10.475
50738W        W10241  14.124  15.607  13.033
50739W        W10242  36.386  41.923  12.458
50740W        W10243   5.295  18.579   4.235
50741W        W10244   0.392   2.814   4.665
50742W        W10245  15.820  29.929  12.489
50743W        W10246  12.674  34.950   0.950
50744W        W10247  18.572  18.066   0.950
50745W        W10248  14.703  43.921  11.474
50746W        W10249  19.712   4.914  13.521
50747W        W10250  21.633  13.620   1.384
50748W        W10251  27.680  24.211   3.851
50749W        W10252  25.564  33.487   3.840
50750W        W10253  24.624  35.981   1.408
50751W        W10254  18.171  33.576  13.905
50752W        W10255   6.693  26.687  12.946
50753W        W10256  14.161  15.745   0.258
50754W        W10257  23.165  43.293   4.252
50755W        W10258  18.234   0.364   4.826
50756W        W10259  14.095  24.111   4.807
50757W        W10260   4.366  29.970  11.384
50758W        W10261  37.428  27.176  12.848
50759W        W10262  32.583  32.507  11.540
50760W        W10263  44.415   8.207   1.720
50761W        W10264  31.414   6.287   0.379
50762W        W10265  34.938  22.167   0.367
50763W        W10266  22.999  28.604   2.742
50764W        W10267  41.825  27.077   3.713
50765W        W10268   2.255  15.657   4.194
50766W        W10269   0.445  33.916   3.369
50767W        W10270  20.271   6.358   1.888
50768W        W10271  23.549  26.209  14.386
50769W        W10272  36.384   8.780   4.833
50770W        W10273  17.194  11.187  14.811
50771W        W10274   7.801  23.648  14.458
50772W        W10275   6.700  22.172  10.961
50773W        W10276  31.153   0.340   0.289
50774W        W10277  21.219  20.161   3.152
50775W        W10278  26.584  29.433   2.898
50776W        W10279  14.671  39.969   3.326
50777W        W10280  34.448  24.088   3.767
50778W        W10281  41.343  34.543   1.850
50779W        W10282  25.527  34.526   0.379
50780W        W10283  38.843   8.779  13.892
50781W        W10284  26.111   5.899   0.337
50782W        W10285  39.875  11.327  10.451
50783W        W10286   6.681   5.204  13.905
50784W        W10287   1.971   4.261   3.342
50785W        W10288   7.860   3.364  14.765
50786W        W10289   9.175  17.564  10.126
50787W        W10290  18.635  18.214  10.092
50788W        W10291  32.508  42.786  14.413
50789W        W10292  32.932  14.228  14.288
50790W        W10293  23.104  22.551   3.266
50791W        W10294  28.454  33.927  13.056
50792W        W10295  41.786  43.845   3.672
50793W        W10296  36.947  14.820   3.733
50794W        W10297  19.205   0.377  14.888
50795W        W10298  41.885   9.757   1.328
50796W        W10299  19.214  21.228  13.821
50797W        W10300  25.502   7.801  13.328
50798W        W10301  32.395  27.979  10.002
50799W        W10302  13.249  37.577   3.211
50800W        W10303   6.917  18.248  11.538
50801W        W10304   7.267   9.788   3.369
50802W        W10305  16.576   1.397  13.871
50803W        W10306  41.840  39.986   3.785
50804W        W10307   8.378  40.029  10.446
50805W        W10308  11.798  22.018   9.965
50806W        W10309   8.316  22.048  11.878
50807W        W10310  10.362  14.751   1.868
50808W        W10311  39.895  14.776   1.758
50809W        W10312  21.238  10.657   2.240
50810W        W10313  19.092  38.438  11.005
50811W        W10314  21.053   5.914  14.833
50812W        W10315  18.699  36.524  12.371
50813W        W10316  35.083  12.711   0.851
50814W        W10317  13.632  16.108   1.913
50815W        W10318  37.860  26.476   3.241
50816W        W10319   6.267  16.779   1.891
50817W        W10320  24.566  19.686   3.333
50818W        W10321  14.156  27.610  10.965
50819W        W10322   3.792  13.829   1.345
50820W        W10323  22.567  21.188   3.749
50821W        W10324   0.921  36.861  12.558
50822W        W10325  18.089   0.980   3.844
50823W        W10326  32.089  37.023   0.305
50824W        W10327  20.755  21.139  11.498
50825W        W10328  24.993   7.793   0.955
50826W        W10329  17.658  16.704  13.480
50827W        W10330   9.686  22.501  11.944
50828W        W10331  43.999  26.601   5.664
50829W        W10332  29.562  27.653  13.437
50830W        W10333  29.998  29.056   0.895
50831W        W10334   5.878  11.841   0.727
50832W        W10335  36.974  26.628   3.251
50833W        W10336   9.262   4.871  12.375
50834W        W10337  43.298   4.898  13.943
50835W        W10338   9.293  41.907   4.255
50836W        W10339   1.384  40.805   1.414
50837W        W10340  18.125   5.794   0.373
50838W        W10341  26.010  33.105   2.352
50839W        W10342  23.065  20.242  14.307
50840W        W10343  13.736  10.335   3.827
50841W        W10344  26.549  39.494   5.211
50842W        W10345  32.480  27.025   3.642
50843W        W10346  41.819   1.261   4.819
50844W        W10347  34.576   3.933  14.759
50845W        W10348  17.717   3.860   4.234
50846W        W10349  21.595   2.392  14.891
50847W        W10350  34.393  40.440   2.783
50848W        W10351   3.351  37.525   1.233
50849W        W10352  42.830   1.848  11.898
50850W        W10353   8.368  34.421   1.771
50851W        W10354  16.076   7.668  10.420
50852W        W10355  14.324  18.659  12.039
50853W        W10356  12.767  16.181  13.467
50854W        W10357  36.519  12.287   3.287
50855W        W10358  41.318   8.404   1.274
50856W        W10359  10.334  24.200  10.503
50857W        W10360  33.098  13.196   0.305
50858W        W10361  18.776   7.206  11.879
50859W        W10362  31.583  44.399  14.942
50860W        W10363   3.924  14.106   0.857
50861W        W10364   1.400   8.237  12.921
50862W        W10365  23.189  29.623  12.446
50863W        W10366  34.966  15.624  13.958
50864W        W10367  14.661  28.147  13.032
50865W        W10368  41.891  36.097   0.834
50866W        W10369  26.957   6.419   1.896
50867W        W10370  44.394   9.160   3.634
50868W        W10371  39.386  44.265  10.043
50869W        W10372  26.973  34.072   4.308
50870W        W10373  23.710   9.866  13.489
50871W        W10374  18.769  14.609  13.795
50872W        W10375  33.454  33.887  10.515
50873W        W10376  14.228   2.450   3.811
50874W        W10377  24.058  28.440  11.014
50875W        W10378  40.475  16.575   1.443
50876W        W10379  29.924  12.323  12.527
50877W        W10380  30.628   3.802   4.185
50878W        W10381  12.836  19.742   3.716
50879W        W10382   5.438  12.728  10.925
50880W        W10383  24.527  25.160  11.499
50881W        W10384  44.339  28.181  11.536
50882W        W10385  24.034  14.592   4.634
50883W        W10386  35.487  42.827  11.019
50884W        W10387   1.302  10.138  13.038
50885W        W10388   6.273  39.059  14.309
50886W        W10389  33.458  10.274  14.371
50887W        W10390  44.302  21.593   4.241
50888W        W10391  10.381   3.884   0.309
50889W        W10392   8.205  41.848   2.784
50890W        W10393  13.194  10.221  14.959
50891W        W10394  33.934   2.383  14.835
50892W        W10395   3.399  36.915  13.929
50893W        W10396  42.022  44.440  13.954
50894W        W10397  15.132  39.985   4.659
50895W        W10398  14.797  34.455   3.803
50896W        W10399   7.390  11.130  10.507
50897W        W10400  27.657  12.291   0.368
50898W        W10401   0.947  14.640  11.042
50899W        W10402  39.369  22.534  12.069
50900W        W10403  12.618   1.806  14.340
50901W        W10404  14.218   0.882  11.465
50902W        W10405  12.138  30.995   3.752
50903W        W10406   5.336  44.457   1.738
50904W        W10407  34.609   8.284   2.844
50905W        W10408   4.905  29.101   4.814
50906W        W10409  24.713  39.352  12.495
50907W        W10410  12.677  22.614  13.935
50908W        W10411   0.878  25.079   0.267
50909W        W10412  38.048  28.509   3.152
50910W        W10413  12.815   9.344  14.844
50911W        W10414  23.103  33.531  14.306
50912W        W10415  15.094  31.930   3.783
50913W        W10416  34.497  16.099   3.805
50914W        W10417  20.171  38.040   0.949
50915W        W10418  29.926   7.894  12.892
50916W        W10419  14.215  38.407   1.782
50917W        W10420  34.939   7.833   2.705
50918W        W10421  10.369  36.913   2.221
50919W        W10422  26.195  20.223   4.784
50920W        W10423  19.144   4.228   0.380
50921W        W10424  30.099  11.838   2.708
50922W        W10425  19.725  22.680  13.914
50923W        W10426  19.252  23.572   2.417
50924W        W10427  14.728  16.742   4.633
50925W        W10428  18.163  26.609   2.237
50926W        W10429   0.482  35.422  14.437
50927W        W10430  26.988   9.373  11.521
50928W        W10431   5.915  35.533   4.121
50929W        W10432  33.905   9.813  10.608
50930W        W10433  35.438  12.332   1.278
50931W        W10434  37.060  35.373  11.050
50932W        W10435  30.978  35.093   5.200
50933W        W10436  18.259  37.036  13.441
50934W        W10437   9.840   0.389   3.290
50935W        W10438  22.227  22.249   1.446
50936W        W10439  41.451  12.272  12.410
50937W        W10440  26.208  34.092  10.986
50938W        W10441  10.802  43.839   1.730
50939W        W10442  37.990  38.000   0.932
50940W        W10443  43.353   9.232  11.079
50941W        W10444  11.254  25.032   2.334
50942W        W10445  20.656  35.888  14.773
50943W        W10446  31.642   5.211  11.979
50944W        W10447  41.888   5.312   9.659
50945W        W10448   7.353   2.350  10.515
50946W        W10449   6.277  26.491   3.702
50947W        W10450   2.352  40.376   2.293
50948W        W10451  43.779  22.237   1.733
50949W        W10452  30.489  24.563  11.863
50950W        W10453  37.444  37.392  10.630
50951W        W10454  40.922  40.513   1.269
50952W        W10455   3.380   0.318  14.483
50953W        W10456  37.465  11.821   4.198
50954W        W10457  28.540  36.981  13.018
50955W        W10458  43.979  22.096  13.838
50956W        W10459  23.538  44.994  12.355
50957W        W10460  43.497   0.462  12.541
50958W        W10461   9.278  31.567  10.978
50959W        W10462  24.976  27.029   1.297
50960W        W10463  39.911  39.476  14.765
50961W        W10464   8.179   4.896  10.986
50962W        W10465  31.042  24.663   1.321
50963W        W10466  31.109  16.627   3.738
50964W        W10467   9.646  34.868  11.092
50965W        W10468  32.958  21.625  11.533
50966W        W10469  42.461  30.922   1.276
50967W        W10470  22.575  17.086   0.363
50968W        W10471  27.541  43.410   2.210
50969W        W10472  24.174  22.083  11.906
50970W        W10473  36.459  12.623  12.868
50971W        W10474  34.925  44.307  13.000
50972W        W10475  29.158  44.457   0.881
50973W        W10476  20.080  16.205  13.376
50974W        W10477  30.039  22.166   0.861
50975W        W10478  20.071  44.269   0.248
50976W        W10479   0.435  44.753  14.310
50977W        W10480  29.004  34.585  12.373
50978W        W10481   3.217  25.098  11.101
50979W        W10482  41.831  30.464  10.015
50980W        W10483  16.099  10.789  11.881
50981W        W10484  18.659  37.862   4.612
50982W        W10485  44.002  41.016  12.449
50983W        W10486   7.896  25.092   2.715
50984W        W10487  10.873   8.362  12.927
50985W        W10488  19.087  25.981  14.508
50986W        W10489   3.314  21.684  11.071
50987W        W10490  37.413  44.838   4.244
50988W        W10491  32.557   3.386   4.751
50989W        W10492  11.312  14.231   3.830
50990W        W10493  43.390  13.639   3.328
50991W        W10494  13.829  28.021  13.361
50992W        W10495   4.305  44.796   3.258
50993W        W10496   7.694  21.175  11.379
50994W        W10497  18.676   5.811   2.292
50995W        W10498  16.299   5.262  14.513
50996W        W10499   1.957  42.011   0.736
50997W        W10500  33.477   0.928   3.262
50998W        W10501  44.339  18.180   3.712
50999W        W10502  41.336  32.627   0.414
51000W        W10503   4.861  40.965   1.391
51001W        W10504  13.107  16.243   2.398
51002W        W10505  10.172  43.358  13.032
51003W        W10506  15.654  29.613  12.456
51004W        W10507   8.782  17.571  10.501
51005W        W10508  11.689  31.148  11.879
51006W        W10509  27.979  25.636   2.332
51007W        W10510  35.589  25.608  14.409
51008W        W10511  33.555  10.173  11.471
51009W        W10512  37.932   0.359  13.370
51010W        W10513   8.671  25.083   4.704
51011W        W10514   4.849   9.874   2.815
51012W        W10515  25.070  14.177   1.388
51013W        W10516   8.237  26.631   4.238
51014W        W10517  41.433  20.732  10.557
51015W        W10518  42.955   9.192   1.242
51016W        W10519  17.281  37.911  12.368
51017W        W10520  24.995   3.943   0.397
51018W        W10521  35.473  37.442   1.333
51019W        W10522  19.624  14.774   2.737
51020W        W10523  21.730  32.401   1.728
51021W        W10524   5.719  13.287   1.363
51022W        W10525   4.861  31.440   2.390
51023W        W10526  22.697   6.185  12.908
51024W        W10527  28.086  34.590  13.828
51025W        W10528  34.991  36.046   0.754
51026W        W10529   6.688  20.683   4.785
51027W        W10530  22.636   5.421   2.413
51028W        W10531  26.004  13.210   4.822
51029W        W10532  38.515   0.956   1.440
51030W        W10533  21.666  25.569  14.846
51031W        W10534  41.423  13.286  12.003
51032W        W10535  14.196  20.268  11.459
51033W        W10536  37.996  33.396   0.942
51034W        W10537  33.431   1.930   4.175
51035W        W10538  11.200  37.845   1.344
51036W        W10539   1.861  23.101  10.937
51037W        W10540  13.196  12.184  10.521
51038W        W10541  36.055  40.456   4.625
51039W        W10542   8.282  40.459  12.461
51040W        W10543  13.799  35.546  11.529
51041W        W10544  34.932  29.444   1.298
51042W        W10545  26.500  41.520   1.930
51043W        W10546  12.203  13.135   2.181
51044W        W10547  29.524  18.682  14.003
51045W        W10548  24.600   0.420   0.736
51046W        W10549   4.256   9.299   0.310
51047W        W10550  22.537  41.384   4.348
51048W        W10551  15.607  32.559  14.989
51049W        W10552  26.120   9.715   1.413
51050W        W10553  29.488  36.438  13.915
51051W        W10554  42.380  36.961   0.729
51052W        W10555   8.698  31.592  12.522
51053W        W10556  21.024  42.462  11.530
51054W        W10557  44.261  12.199  10.412
51055W        W10558   2.832  17.262  12.984
51056W        W10559  27.024   0.260   9.993
51057W        W10560  20.032   3.426   4.311
51058W        W10561  42.884  16.247   2.666
51059W        W10562  44.899  11.658  12.871
51060W        W10563   8.688  18.600   0.253
51061W        W10564   6.376   8.835   1.226
51062W        W10565  30.096  27.605   0.254
51063W        W10566  40.914  25.645  11.048
51064W        W10567  12.310  11.156   1.327
51065W        W10568  33.120   9.271   3.790
51066W        W10569  31.604  35.512   5.664
51067W        W10570  35.000  34.399   1.440
51068W        W10571  41.954  30.433   5.088
51069W        W10572  32.994  41.983   1.814
51070W        W10573  42.930  41.474  11.397
51071W        W10574  29.080  15.317   2.875
51072W        W10575  11.202  33.974   4.819
51073W        W10576  33.956  18.273  13.979
51074W        W10577   1.977  21.577  11.982
51075W        W10578  38.476  34.070  12.535
51076W        W10579  35.524  22.700   2.737
51077W        W10580  16.306   5.326  10.446
51078W        W10581  43.299  35.916  11.489
51079W        W10582  23.173  31.411  12.384
51080W        W10583  24.644  42.876   2.707
51081W        W10584   5.876  21.566  12.917
51082W        W10585  42.776   2.846  12.096
51083W        W10586  23.521   6.198  14.454
51084W        W10587  21.637  17.226  12.952
51085W        W10588  38.488  29.493   3.664
51086W        W10589   7.859  34.987   1.712
51087W        W10590  44.915   8.824  12.547
51088W        W10591  15.621   2.415   0.793
51089W        W10592  41.955  11.138   4.156
51090W        W10593  15.814  24.560  12.029
51091W        W10594  22.692   8.859   3.373
51092W        W10595  29.458  44.330  13.330
51093W        W10596  40.825  37.967   4.644
51094W        W10597  21.108  38.859   1.238
51095W        W10598  30.002  29.984   4.215
51096W        W10599  28.469  33.616   3.294
51097W        W10600  11.244  39.424  10.484
51098W        W10601  44.963  12.705   3.343
51099W        W10602  44.284   0.299  11.487
51100W        W10603  21.177  31.521  10.507
51101W        W10604  42.324  40.845  12.564
51102W        W10605  39.492  35.601   0.956
51103W        W10606  39.365  17.675   4.230
51104W        W10607  17.605  14.832   4.338
51105W        W10608  25.699   0.274   0.385
51106W        W10609   4.431  16.722   0.393
51107W        W10610  26.194  17.795  13.396
51108W        W10611  26.064  24.487   1.762
51109W        W10612  21.568  11.148  11.125
51110W        W10613  24.140  20.235  11.107
51111W        W10614   7.337  40.528  10.553
51112W        W10615  38.339  26.953  13.032
51113W        W10616   6.792  12.762  12.408
51114W        W10617  35.368  33.060   4.350
51115W        W10618  22.735  16.634  12.566
51116W        W10619  33.515  12.311   1.723
51117W        W10620  17.256  15.809   3.230
51118W        W10621   6.821  11.133  12.824
51119W        W10622  37.567  13.839   3.158
51120W        W10623   8.718   0.429  13.906
51121W        W10624  20.203  32.503  12.079
51122W        W10625  41.981  16.110  14.918
51123W        W10626  19.212  12.117  11.408
51124W        W10627   8.257  41.493  14.418
51125W        W10628   0.249   2.740  11.440
51126W        W10629  15.639  31.128   1.216
51127W        W10630  40.464   4.391   2.206
51128W        W10631   9.301   3.440  14.808
51129W        W10632  26.660   3.324   2.406
51130W        W10633  24.978  23.089   2.755
51131W        W10634  29.474  43.473   1.310
51132W        W10635   1.962  19.196   1.388
51133W        W10636   4.331  30.433  11.026
51134W        W10637  11.210   7.255   4.235
51135W        W10638  41.445   0.911   4.269
51136W        W10639  28.185  17.205  12.892
51137W        W10640  27.107  31.071  14.360
51138W        W10641  34.514  18.732   2.416
51139W        W10642  10.280  18.727  10.583
51140W        W10643  24.082  10.264   0.377
51141W        W10644   9.880  26.681  14.384
51142W        W10645  18.087  20.261  12.833
51143W        W10646  18.573  26.645   2.280
51144W        W10647  23.197  16.302   4.706
51145W        W10648   2.470  19.189   2.364
51146W        W10649  21.152  22.212   1.400
51147W        W10650  42.383  12.760   2.799
51148W        W10651  22.689  38.486  10.490
51149W        W10652  37.931  28.089  11.439
51150W        W10653  31.446  23.630  11.872
51151W        W10654  22.194  15.794  12.046
51152W        W10655  39.506  10.833   2.398
51153W        W10656  42.982   3.389  14.295
51154W        W10657  29.017   8.342  14.323
51155W        W10658  34.469  39.029  12.355
51156W        W10659  29.063  28.630   4.119
51157W        W10660   6.318  32.405  12.440
51158W        W10661   3.851  14.740   0.346
51159W        W10662  13.740  42.281  12.896
51160W        W10663  22.028  35.395  12.080
51161W        W10664  26.168  21.175  11.570
51162W        W10665  32.426   3.461   0.864
51163W        W10666  24.067  15.218  11.419
51164W        W10667  39.863  18.104   4.628
51165W        W10668  37.932  23.200   0.964
51166W        W10669   4.271   9.861   4.625
51167W        W10670  25.166  29.141  12.432
51168W        W10671  26.174  18.193   4.829
51169W        W10672  44.285  44.822  10.499
51170W        W10673  13.804  33.068  11.610
51171W        W10674   7.242  22.042  10.479
51172W        W10675   1.918   6.901   4.218
51173W        W10676  40.409  12.831   1.248
51174W        W10677  14.766  24.688   4.117
51175W        W10678  20.106   0.437   0.789
51176W        W10679  17.672   0.461  14.469
51177W        W10680   6.424   3.817   2.242
51178W        W10681  44.753  26.995   2.256
51179W        W10682  29.003  30.617  11.049
51180W        W10683  23.205  37.528  11.045
51181W        W10684  18.092  14.694  11.538
51182W        W10685   4.827  44.422  13.927
51183W        W10686  13.257   1.425   1.849
51184W        W10687   9.716   1.831  11.541
51185W        W10688  31.532  16.769  13.348
51186W        W10689  33.915  37.508   2.303
51187W        W10690   3.392  27.996  13.507
51188W        W10691  24.479  11.333   2.720
51189W        W10692  16.671  19.619  14.496
51190W        W10693  43.951   6.878  11.952
51191W        W10694  32.962   8.220  10.576
51192W        W10695  32.084   6.773  12.859
51193W        W10696  12.849  26.031  13.331
51194W        W10697  19.619   5.387  10.568
51195W        W10698  33.893  36.402  11.092
51196W        W10699  12.638  39.371   2.749
51197W        W10700   3.758  41.794  11.065
51198W        W10701  32.430  17.738   5.230
51199W        W10702  43.988  19.153  11.009
51200W        W10703  36.867  18.679  11.106
51201W        W10704  23.986   0.764  14.321
51202W        W10705  13.335  21.124   2.888
51203W        W10706   7.255  34.402   0.361
51204W        W10707  44.770   2.956   0.953
51205W        W10708  21.729  31.109  13.542
51206W        W10709  13.191  24.677   2.204
51207W        W10710  17.070  31.637   1.393
51208W        W10711   9.313   0.276  13.949
51209W        W10712  36.968  42.486  14.513
51210W        W10713  29.087  35.975   3.380
51211W        W10714   6.689  14.163   0.759
51212W        W10715  32.617  21.585  12.891
51213W        W10716  11.761  16.278   5.124
51214W        W10717  15.768  36.893   0.768
51215W        W10718  36.930  25.589  11.479
51216W        W10719  19.614   5.899  12.461
51217W        W10720   3.260  23.580  14.882
51218W        W10721  27.491  14.241  14.869
51219W        W10722   2.304  25.040   2.744
51220W        W10723   9.719   2.903   4.288
51221W        W10724  32.481  18.653  11.912
51222W        W10725  20.086  41.977  12.551
51223W        W10726  19.615   2.843  13.370
51224W        W10727   1.807  30.444  12.997
51225W        W10728  42.295  22.727   0.269
51226W        W10729  23.655   7.395   3.350
51227W        W10730  32.392  18.770   3.319
51228W        W10731   2.769  40.980   5.237
51229W        W10732  16.765  32.581   0.852
51230W        W10733  38.061   0.756   3.249
51231W        W10734  40.050   8.182  10.038
51232W        W10735  41.508   4.439  11.924
51233W        W10736  13.234  41.938   4.831
51234W        W10737   5.365  39.931   1.794
51235W        W10738  22.086  29.176  13.845
51236W        W10739  37.900   9.325   1.857
51237W        W10740  39.406  26.554  11.559
51238W        W10741  17.631  31.000   4.648
51239W        W10742  20.644  17.192   1.425
51240W        W10743  25.979   6.214   0.388
51241W        W10744  14.326  26.132   1.881
51242W        W10745   6.368  22.186  11.032
51243W        W10746  22.617   6.191   0.392
51244W        W10747  33.998  24.063   4.624
51245W        W10748  32.128  13.824   1.256
51246W        W10749  34.012  31.581  10.611
51247W        W10750  10.670  44.378  10.414
51248W        W10751  14.829   5.697  10.434
51249W        W10752   1.854   3.215  12.375
51250W        W10753  14.745  36.504   3.688
51251W        W10754  15.822  21.219  13.003
51252W        W10755   3.271  14.630   3.773
51253W        W10756   6.735  44.007   4.709
51254W        W10757  32.481   7.182   0.828
51255W        W10758  14.213   8.757   0.922
51256W        W10759  41.850  28.615   2.285
51257W        W10760  24.160   8.204   0.786
51258W        W10761  23.145  43.902   5.219
51259W        W10762  37.930  24.080  12.389
51260W        W10763   7.249  27.635   0.444
51261W        W10764  22.708  38.826   4.289
51262W        W10765   2.301  18.742   0.431
51263W        W10766  12.612  38.020   1.705
51264W        W10767  24.632  42.786  14.345
51265W        W10768   9.304   8.838   4.288
51266W        W10769  12.151  41.828   2.231
51267W        W10770  39.854   7.840   3.821
51268W        W10771  14.684  18.286  14.030
51269W        W10772  11.777  22.125  11.417
51270W        W10773  25.645  12.226  13.443
51271W        W10774  23.591  44.381  10.020
51272W        W10775  37.393  30.507   2.221
51273W        W10776  33.423  13.766  12.491
51274W        W10777  38.028  13.803  12.471
51275W        W10778   2.788  40.401   2.665
51276W        W10779   0.762  14.154   2.313
51277W        W10780  38.423  27.679   1.225
51278W        W10781  18.715  26.514   3.224
51279W        W10782   3.299  33.947  12.915
51280W        W10783  42.297  30.163   1.418
51281W        W10784  15.277  26.999  11.426
51282W        W10785  44.311  25.623  11.119
51283W        W10786  39.042   4.302  13.960
51284W        W10787  15.673  12.725  11.981
51285W        W10788  34.485   8.686   1.925
51286W        W10789  30.954  20.058   0.755
51287W        W10790  43.964  21.578   2.280
51288W        W10791   9.849  27.154  11.087
51289W        W10792   4.315  37.883  12.524
51290W        W10793  31.602  23.565  13.813
51291W        W10794   0.248   6.335  10.569
51292W        W10795  37.042   7.362  11.514
51293W        W10796  19.151  26.082   4.151
51294W        W10797  30.628  33.113   4.792
51295W        W10798  13.667  13.718  12.560
51296W        W10799  41.963  22.153  13.946
51297W        W10800  17.735  18.686   0.259
51298W        W10801  26.171   8.195  10.995
51299W        W10802   1.472  20.725  10.459
51300W        W10803  12.843  10.805  14.891
51301W        W10804  27.121   8.734  10.968
51302W        W10805  18.579   2.371  11.928
51303W        W10806  32.119  12.351   1.772
51304W        W10807  12.611  11.267   4.747
51305W        W10808  36.048   8.369  12.024
51306W        W10809  17.736  39.846   2.353
51307W        W10810   6.806   9.215  14.427
51308W        W10811  43.764  10.220  13.801
51309W        W10812  12.780  13.657   1.228
51310W        W10813   9.869  39.843  14.865
51311W        W10814  28.069  40.382  14.355
51312W        W10815  31.451  34.035   0.475
51313W        W10816  25.115  34.977   4.827
51314W        W10817  26.692  38.017   0.474
51315W        W10818  11.187  37.502   2.879
51316W        W10819  18.642  38.000  11.972
51317W        W10820  43.298  12.278  11.078
51318W        W10821  27.951  24.985  14.943
51319W        W10822  44.473  35.467   1.794
51320W        W10823  11.321  37.847  14.311
51321W        W10824  14.102  12.794  13.027
51322W        W10825  14.762  44.009   0.941
51323W        W10826  30.005   9.812  12.898
51324W        W10827  22.514  32.483   2.389
51325W        W10828  10.316  39.446   4.725
51326W        W10829  42.501  16.592   0.832
51327W        W10830  42.325  27.148  13.321
51328W        W10831  38.530  36.991  12.830
51329W        W10832   8.225  26.115  14.322
51330W        W10833   2.440  15.166   1.252
51331W        W10834  19.743  42.009  11.964
51332W        W10835  29.514  16.742   4.346
51333W        W10836  20.216  18.721  14.930
51334W        W10837  41.317  28.564  11.538
51335W        W10838  23.617  27.690   4.333
51336W        W10839  40.437  10.257   4.152
51337W        W10840  25.043  35.033   0.336
51338W        W10841  37.354  35.035  11.508
51339W        W10842  29.104   4.803  11.029
51340W        W10843   7.270   3.801  11.908
51341W        W10844  17.208   1.240  14.324
51342W        W10845  36.366   6.791   2.723
51343W        W10846  40.890  36.534   4.209
51344W        W10847  29.497   0.861   4.795
51345W        W10848  18.702  40.399  13.964
51346W        W10849  35.372  41.507  10.955
51347W        W10850  13.823  11.690   4.724
51348W        W10851   0.925   6.362  10.967
51349W        W10852   2.799  25.692   1.323
51350W        W10853  23.168  17.798  14.305
51351W        W10854  22.036  11.343  12.378
51352W        W10855  27.041  30.109   4.120
51353W        W10856  11.659  14.816  14.859
51354W        W10857   7.300  42.873   0.330
51355W        W10858  14.149   9.217  12.063
51356W        W10859  10.857  12.149  12.392
51357W        W10860  15.149  40.962  14.833
51358W        W10861   8.241  33.058   2.207
51359W        W10862   9.771  31.987   4.244
51360W        W10863  21.634  38.064  14.350
51361W        W10864  40.999   3.798   4.174
51362W        W10865  42.468   1.825   2.776
51363W        W10866  26.544  23.563   4.757
51364W        W10867  31.042  34.440   3.274
51365W        W10868  27.558  26.149   0.261
51366W        W10869  29.435  39.430   0.924
51367W        W10870  36.098  28.065   4.245
51368W        W10871  18.582  24.700   2.194
51369W        W10872  19.753   0.987   4.247
51370W        W10873  36.983  18.590  11.468
51371W        W10874  43.360   9.806   4.266
51372W        W10875  37.461   2.909   2.327
51373W        W10876  43.972  17.594   3.787
51374W        W10877  23.104  26.966   4.787
51375W        W10878  36.464  13.261   4.691
51376W        W10879   1.921  32.916  14.385
51377W        W10880  18.781  27.585   3.750
51378W        W10881  44.997  16.705  13.523
51379W        W10882  16.659  19.249   4.308
51380W        W10883   7.891  17.068   2.730
51381W        W10884  38.938  43.353  13.837
51382W        W10885  42.890  30.464   3.308
51383W        W10886  31.070  33.980   5.230
51384W        W10887   1.763  22.041  12.085
51385W        W10888  33.531  44.938   3.824
51386W        W10889  11.857  40.993  11.511
51387W        W10890  16.152  17.226  12.342
51388W        W10891  36.906  35.433   4.147
51389W        W10892  29.017  34.981  14.462
51390W        W10893  17.795   5.399  11.068
51391W        W10894   9.797   6.260   4.676
51392W        W10895   3.834  28.953  13.428
51393W        W10896  28.997  10.715   1.853
51394W        W10897  28.562  40.506   4.739
51395W        W10898  23.228  20.160   2.838
51396W        W10899   0.345  14.692  11.420
51397W        W10900   3.745  32.115  10.981
51398W        W10901  19.677  13.638   4.154
51399W        W10902  20.230  44.755  10.502
51400W        W10903  38.453  15.169   0.860
51401W        W10904   3.457  19.102   0.439
51402W        W10905   5.211  26.472   2.180
51403W        W10906  16.694  18.647  13.810
51404W        W10907  17.289  27.992  12.463
51405W        W10908   5.756   3.372   0.940
51406W        W10909  12.800  34.883   4.275
51407W        W10910  44.956  15.763  13.539
51408W        W10911  18.706  26.073   3.794
51409W        W10912  40.399   5.228   2.288
51410W        W10913   4.324  27.145   3.376
51411W        W10914  15.658  20.039   0.290
51412W        W10915   6.780  29.603  12.047
51413W        W10916   9.178  28.088   2.377
51414W        W10917  41.524  29.940   4.243
51415W        W10918  28.941   5.317   1.884
51416W        W10919  33.926  38.037  10.117
51417W        W10920  32.987  43.516  14.892
51418W        W10921  40.851  23.139  12.951
51419W        W10922   0.981  21.157   2.221
51420W        W10923  33.431   9.159   0.445
51421W        W10924  27.053  37.011   4.287
51422W        W10925  21.050  37.528   2.319
51423W        W10926  19.583  40.383  13.429
51424W        W10927  21.085   1.898  11.043
51425W        W10928  40.405   9.647   0.782
51426W        W10929  25.096   3.274   2.764
51427W        W10930   6.424   5.239  14.795
51428W        W10931  38.862  10.215  14.456
51429W        W10932  31.091   8.712   1.306
51430W        W10933  24.718  43.490   0.339
51431W        W10934  30.096  15.818   2.252
51432W        W10935   4.908  27.460   1.231
51433W        W10936  16.254  35.505   4.782
51434W        W10937  18.121   1.949  10.437
51435W        W10938  14.266   0.767   2.280
51436W        W10939  29.945  13.814  13.979
51437W        W10940  33.079  26.155   4.331
51438W        W10941   8.688  26.964  13.021
51439W        W10942  11.835  11.227   4.810
51440W        W10943  26.532   8.217   2.679
51441W        W10944  39.449   9.664  11.533
51442W        W10945  38.986  17.225  14.306
51443W        W10946  21.262   8.259   5.268
51444W        W10947   9.793  26.028  12.889
51445W        W10948  18.113  30.939   4.704
51446W        W10949   0.446  23.127  12.016
51447W        W10950  14.745  21.251   1.779
51448W        W10951  39.525  35.553   4.802
51449W        W10952  21.747   1.874   5.248
51450W        W10953  22.040  20.684  12.941
51451W        W10954  16.623  41.477  12.501
51452W        W10955  43.503   5.260  10.108
51453W        W10956  32.973  30.970  12.947
51454W        W10957  17.199   2.825   0.431
51455W        W10958   6.689  35.589   4.740
51456W        W10959   0.803  22.206  11.559
51457W        W10960  36.052   5.702   0.472
51458W        W10961  39.929   9.655  11.927
51459W        W10962  13.758  37.036  13.964
51460W        W10963  44.767  39.813  10.947
51461W        W10964  25.526  24.168  11.962
51462W        W10965  33.964  10.199  12.959
51463W        W10966   6.187   0.828  13.058
51464W        W10967  42.955  39.500  14.862
51465W        W10968  37.879   9.333  12.955
51466W        W10969  35.043  26.574  13.845
51467W        W10970   0.942   1.450  11.589
51468W        W10971  15.216   3.773  13.937
51469W        W10972  40.843   0.869  11.038
51470W        W10973   8.400  42.429   3.787
51471W        W10974   9.698   3.370  13.059
51472W        W10975  28.465  31.525   2.824
51473W        W10976  44.938  11.734  14.826
51474W        W10977  25.534  10.245  12.502
51475W        W10978  34.007  13.158   1.410
51476W        W10979   5.231  12.244  12.519
51477W        W10980  35.395   0.937   4.709
51478W        W10981  20.706  26.196  13.897
51479W        W10982  18.756  32.520  14.277
51480W        W10983  22.581  20.589  12.532
51481W        W10984   8.265  10.744   3.809
51482W        W10985  34.383  25.000   1.325
51483W        W10986  27.599  21.122  12.036
51484W        W10987  20.128  26.173   2.235
51485W        W10988  38.012  26.525   4.170
51486W        W10989  30.586   3.290   1.335
51487W        W10990   4.755   5.431  14.866
51488W        W10991  22.163  20.740  10.937
51489W        W10992  35.520  41.977  14.776
51490W        W10993  21.246  10.240   3.350
51491W        W10994  41.295  27.123  10.566
51492W        W10995  24.974  40.445  13.028
51493W        W10996  30.087   0.827  13.462
51494W        W10997   6.886  20.048  13.351
51495W        W10998  13.288  25.000   4.168
51496W        W10999  34.584  27.567   4.127
51497W        W11000  32.075  27.590  10.972
51498W        W11001  28.514  29.053   3.168
51499W        W11002  31.137  12.673  11.457
51500W        W11003  42.915  29.023  13.986
51501W        W11004  41.504  24.090   4.219
51502W        W11005  35.103  38.555   0.888
51503W        W11006  44.473  38.394  13.491
51504W        W11007  38.821  14.244   0.795
51505W        W11008  36.379   4.276   1.261
51506W        W11009  13.288  20.595  14.936
51507W        W11010   3.823  20.208  11.610
51508W        W11011  20.192   5.410   4.198
51509W        W11012   7.280  40.404   1.823
51510W        W11013  36.365  32.572  13.471
51511W        W11014  12.326   4.781  11.933
51512W        W11015   5.232  34.995  14.763
51513W        W11016  37.435  20.722  11.443
51514W        W11017  27.466  11.266   4.261
51515W        W11018  33.600  12.755   4.178
51516W        W11019  25.195  40.028   2.759
51517W        W11020  25.015  41.940  13.846
51518W        W11021  17.737  36.077   0.925
51519W        W11022   5.411  11.724   2.309
51520W        W11023  29.622  12.660   0.382
51521W        W11024  32.092  43.458  14.859
51522W        W11025  40.969  37.455  13.395
51523W        W11026  13.685  37.051   3.168
51524W        W11027  20.103  10.178  12.089
51525W        W11028   5.396   6.379   0.799
51526W        W11029  14.248  42.879   4.165
51527W        W11030   3.854  27.154   1.373
51528W        W11031  14.608   0.257  12.010
51529W        W11032   8.702  43.921   4.191
51530W        W11033  37.526  35.483  14.403
51531W        W11034  38.867  13.776  10.588
51532W        W11035  41.871  27.632   2.372
51533W        W11036  39.013  25.006   1.378
51534W        W11037  34.022  42.399   2.888
51535W        W11038   8.692  40.472   4.712
51536W        W11039  12.304  39.025   0.775
51537W        W11040  10.683  19.271   0.785
51538W        W11041   4.387  41.532   4.273
51539W        W11042  38.538  30.480  11.558
51540W        W11043  24.013  44.446   4.331
51541W        W11044  36.356  31.132  10.584
51542W        W11045   5.270  10.377  14.276
51543W        W11046  28.535  40.548   1.400
51544W        W11047  28.124   2.951  10.997
51545W        W11048  22.660  15.302   3.699
51546W        W11049  18.714  24.115   0.819
51547W        W11050   7.680  14.291   0.270
51548W        W11051  40.490  31.467  13.859
51549W        W11052  37.345   5.284   0.830
51550W        W11053   0.838  34.494  13.931
51551W        W11054  13.342  24.977  14.026
51552W        W11055  35.472   7.700   2.372
51553W        W11056   5.253   0.878   2.864
51554W        W11057   9.758  16.267   1.289
51555W        W11058  29.169  33.558  10.084
51556W        W11059  12.798   1.875  11.021
51557W        W11060  36.388  30.907   0.756
51558W        W11061  31.557  37.882   4.682
51559W        W11062   6.249   5.216  10.444
51560W        W11063  13.329  42.958   1.395
51561W        W11064  34.565  34.942  10.924
51562W        W11065  38.001  27.969   3.261
51563W        W11066  19.552  41.320   3.255
51564W        W11067   7.347  43.810   0.310
51565W        W11068  44.301  31.472  14.833
51566W        W11069   1.335  25.637  13.957
51567W        W11070   6.712   3.388   4.704
51568W        W11071  28.467   9.374   2.722
51569W        W11072  37.964  26.195   4.211
51570W        W11073  22.217  12.221   2.740
51571W        W11074  26.516   8.385   3.840
51572W        W11075  28.057   0.821   1.223
51573W        W11076  23.093  28.158  13.461
51574W        W11077  25.480  10.836  11.470
51575W        W11078  29.659  31.581  14.406
51576W        W11079  31.100   7.782   0.742
51577W        W11080  36.031   4.249  10.076
51578W        W11081   0.343  34.963  12.574
51579W        W11082  36.853   1.764   0.737
51580W        W11083   8.661  37.343  10.447
51581W        W11084  23.170  44.499   1.696
51582W        W11085  21.718  22.164   0.899
51583W        W11086   9.875   2.232   0.353
51584W        W11087  14.726  41.390   3.786
51585W        W11088  35.530  43.424  11.983
51586W        W11089  26.140   5.415  13.054
51587W        W11090  10.287   6.726   2.714
51588W        W11091  33.410  19.584  12.875
51589W        W11092   0.473  39.864   1.243
51590W        W11093   6.238   1.416  13.401
51591W        W11094  19.201  31.433  11.612
51592W        W11095  24.135   9.169  12.993
51593W        W11096  22.176   7.771   2.803
51594W        W11097  35.889  30.533  13.857
51595W        W11098  36.448  11.834  12.565
51596W        W11099  38.953  35.517  13.023
51597W        W11100  15.727  25.152   1.919
51598W        W11101   6.811  25.490  12.857
51599W        W11102  26.462  29.038   0.738
51600W        W11103  11.129  33.401  12.012
51601W        W11104  17.090  31.100   0.920
51602W        W11105  43.309  29.970   4.264
51603W        W11106  34.379   0.315   3.370
51604W        W11107  19.166  21.040   1.758
51605W        W11108   5.194  39.023  12.471
51606W        W11109  28.608  23.514  13.011
51607W        W11110  41.797  18.701   0.824
51608W        W11111  18.253  23.998   3.787
51609W        W11112   2.745  22.534   0.964
51610W        W11113  10.268  38.332  11.390
51611W        W11114  44.337  41.519   3.243
51612W        W11115  34.031  16.138  14.435
51613W        W11116  43.863  28.134  11.537
51614W        W11117  34.609  15.760  10.638
51615W        W11118   6.685  32.945  14.827
51616W        W11119  21.245  16.616  13.458
51617W        W11120   9.808  30.943   1.799
51618W        W11121  23.709   3.357   1.732
51619W        W11122   4.257  42.512  11.507
51620W        W11123  14.102  19.267  10.586
51621W        W11124   9.383   7.368  11.873
51622W        W11125  10.251  29.920   0.841
51623W        W11126   8.398   4.219  10.915
51624W        W11127  34.574   2.441   3.282
51625W        W11128  36.405  21.017   9.946
51626W        W11129  29.544   6.740  12.443
51627W        W11130  10.275   8.302   3.736
51628W        W11131  19.078   3.909  12.865
51629W        W11132   2.417  12.212  14.439
51630W        W11133  30.565  22.134   1.210
51631W        W11134  28.667  22.728   4.236
51632W        W11135   4.382   7.399  10.601
51633W        W11136  11.847  19.539   2.845
51634W        W11137  39.890  14.155  10.998
51635W        W11138  40.973  29.087  11.375
51636W        W11139  13.177  32.510  13.347
51637W        W11140   8.798  32.098  11.870
51638W        W11141  14.332  39.050  12.407
51639W        W11142   7.683  13.753   2.306
51640W        W11143  13.267  21.142   2.261
51641W        W11144  42.905  19.103   0.759
51642W        W11145  28.527   0.348   3.679
51643W        W11146  33.441  30.093  12.427
51644W        W11147   7.221   8.161  12.068
51645W        W11148  30.626  29.667   9.957
51646W        W11149  38.829   5.396  11.940
51647W        W11150   7.693  15.098   0.914
51648W        W11151  24.213   2.242   5.652
51649W        W11152   3.245  14.095   2.802
51650W        W11153  23.565  12.261  13.429
51651W        W11154  14.646  14.627  12.489
51652W        W11155  16.579  23.698  13.885
51653W        W11156  38.393  19.081  13.324
51654W        W11157  19.082  30.096  13.398
51655W        W11158  37.082   0.836  11.078
51656W        W11159   2.726  32.447  11.467
51657W        W11160  12.717  18.063   3.826
51658W        W11161  13.106  10.357   1.915
51659W        W11162  39.484  39.388   1.802
51660W        W11163  24.608  32.987  11.520
51661W        W11164  13.801   9.258   2.324
51662W        W11165   1.889  39.915  13.835
51663W        W11166  26.702  20.572  11.405
51664W        W11167  25.525   7.296  11.095
51665W        W11168  15.165  42.401   0.750
51666W        W11169  28.997  43.294   0.329
51667W        W11170  38.422   1.964   4.336
51668W        W11171   1.795  41.439  11.577
51669W        W11172  32.517  25.567   4.344
51670W        W11173  27.028  35.000  12.055
51671W        W11174  35.038  29.030  14.477
51672W        W11175  27.502  36.576   5.667
51673W        W11176  35.428  36.844  10.473
51674W        W11177  22.235  34.555  14.323
51675W        W11178   1.266   1.928  14.977
51676W        W11179   8.846  43.287   3.806
51677W        W11180  25.165  44.318   1.317
51678W        W11181  14.221   1.868   2.398
51679W        W11182  17.802  32.898   0.309
51680W        W11183  20.701  30.514  12.887
51681W        W11184  30.526  14.801   2.399
51682W        W11185  12.168   2.330  10.931
51683W        W11186  39.342   6.183  12.921
51684W        W11187  28.452  44.402   0.305
51685W        W11188  42.783  40.440  10.590
51686W        W11189  15.770  29.534   3.828
51687W        W11190   5.316  43.974   2.786
51688W        W11191  31.023   0.818  10.416
51689W        W11192  24.999  44.885   5.310
51690W        W11193  43.366  36.370  13.004
51691W        W11194  33.983  23.520  14.375
51692W        W11195  18.642  12.356   0.892
51693W        W11196  41.523  15.298  11.502
51694W        W11197  36.514  31.402   4.688
51695W        W11198  28.070  30.112  14.414
51696W        W11199  44.460   5.386   4.615
51697W        W11200  27.634  25.696   4.157
51698W        W11201  20.235   1.442  12.967
51699W        W11202  21.748   7.247   0.933
51700W        W11203  40.947   4.421   1.393
51701W        W11204  28.661  43.933   3.385
51702W        W11205  18.699  16.578   4.122
51703W        W11206  20.158   8.849   5.246
51704W        W11207  37.081  19.666  14.864
51705W        W11208  17.694  23.099  10.964
51706W        W11209  16.765  22.028   0.906
51707W        W11210  42.775  39.482  12.533
51708W        W11211   9.243  13.270   4.174
51709W        W11212   9.353  38.511  13.486
51710W        W11213  24.632  22.173  12.076
51711W        W11214  20.604  39.885  13.982
51712W        W11215   2.411  13.240   5.303
51713W        W11216   0.400  44.964   2.356
51714W        W11217  14.704  33.620  14.386
51715W        W11218  36.589  26.545   3.747
51716W        W11219  33.894   7.206   0.797
51717W        W11220  34.937  12.679   4.150
51718W        W11221  36.937  37.976   0.775
51719W        W11222   3.792   0.827   0.427
51720W        W11223  39.821  18.592   1.294
51721W        W11224  38.058   0.487  14.996
51722W        W11225  27.183   5.918   4.332
51723W        W11226  20.147   2.955  14.817
51724W        W11227  25.061  11.235  12.945
51725W        W11228  37.994  39.924  11.939
51726W        W11229  31.602  14.601   2.840
51727W        W11230  26.509  41.370  14.773
51728W        W11231  13.679   1.304  14.443
51729W        W11232  20.728  40.387  12.893
51730W        W11233   6.334  34.397  12.402
51731W        W11234  29.507  38.571  12.402
51732W        W11235  31.574  36.085   5.739
51733W        W11236   0.340  39.366  11.930
51734W        W11237  19.630   1.454   0.438
51735W        W11238  21.614  35.437  10.498
51736W        W11239  16.131  31.545  11.497
51737W        W11240  23.719  24.218  12.024
51738W        W11241   6.240   5.858  14.344
51739W        W11242   3.864  35.554   3.736
51740W        W11243  16.312  29.512  11.902
51741W        W11244  32.107  43.960  13.988
51742W        W11245  15.126  12.743   1.244
51743W        W11246   9.299  22.126  12.391
51744W        W11247  22.549  36.070   1.425
51745W        W11248  23.671  35.082   1.807
51746W        W11249  10.340  34.924   1.336
51747W        W11250   5.882  28.613  11.544
51748W        W11251  27.492  44.914   2.662
51749W        W11252  18.158   0.407   4.157
51750W        W11253  39.524   2.757   1.851
51751W        W11254  17.730  17.070  12.390
51752W        W11255   5.358  28.653   1.401
51753W        W11256  24.196  10.183  10.920
51754W        W11257  27.078   9.691  14.476
51755W        W11258  38.533   7.859   4.127
51756W        W11259  22.580  39.423  10.415
51757W        W11260  11.807  31.471  13.368
51758W        W11261  37.363  12.298  14.430
51759W        W11262  21.575  35.485  13.810
51760W        W11263   9.192  17.572   5.136
51761W        W11264  35.547  38.837   4.314
51762W        W11265  40.309  39.529  13.824
51763W        W11266  32.083   4.230  13.352
51764W        W11267  26.600  32.507   0.262
51765W        W11268  11.742  28.672  12.072
51766W        W11269  18.552  23.702  14.820
51767W        W11270  29.537   3.438   4.230
51768W        W11271  10.645  40.451  14.456
51769W        W11272  16.752  28.013   3.197
51770W        W11273  31.003  14.252   4.742
51771W        W11274  22.106  42.962   1.253
51772W        W11275  37.919  26.492   1.293
51773W        W11276  33.472  26.589  12.872
51774W        W11277  40.821   4.448  14.916
51775W        W11278   6.917  12.676  11.590
51776W        W11279  30.941  28.502  12.846
51777W        W11280  25.095  23.188   1.389
51778W        W11281  35.899  42.841   3.184
51779W        W11282  25.965  10.820   4.267
51780W        W11283  23.223  38.513   2.878
51781W        W11284  17.129   3.282   5.123
51782W        W11285  10.825  35.091   1.789
51783W        W11286  34.086  19.265  10.967
51784W        W11287  16.125  34.494  12.853
51785W        W11288  13.345  37.452  10.590
51786W        W11289   3.402  15.795   1.339
51787W        W11290  33.966   2.874  12.877
51788W        W11291  40.334  13.276   3.354
51789W        W11292  33.035   2.749   3.851
51790W        W11293  18.051  38.886  13.537
51791W        W11294  14.120  18.790   1.912
51792W        W11295   8.353  40.326  13.051
51793W        W11296  12.123  29.027   0.899
51794W        W11297  22.700  13.165   3.864
51795W        W11298  35.097  28.134   0.805
51796W        W11299  19.110  11.817   1.391
51797W        W11300   4.293  23.059  12.509
51798W        W11301  29.489  20.726   2.833
51799W        W11302  20.755  23.632  13.807
51800W        W11303  22.671  16.591  13.827
51801W        W11304  22.510  22.216   3.828
51802W        W11305  42.809  16.575   0.304
51803W        W11306  13.769  11.835  13.817
51804W        W11307  31.577  25.216  10.410
51805W        W11308  17.243  23.164  10.897
51806W        W11309  28.109  27.954  10.623
51807W        W11310  41.971  28.576  11.422
51808W        W11311  13.766  29.074   0.803
51809W        W11312  19.709  13.827  12.926
51810W        W11313  12.757  26.471   1.863
51811W        W11314  35.935  44.420   4.274
51812W        W11315  41.409  39.821  14.397
51813W        W11316  24.172  12.324  13.358
51814W        W11317   2.313   0.796  10.642
51815W        W11318   6.793  21.566  12.866
51816W        W11319   7.174  32.895  13.522
51817W        W11320  41.004  43.858  10.992
51818W        W11321   1.249  31.975   3.377
51819W        W11322   1.744   3.355   0.392
51820W        W11323  42.850   8.236   2.683
51821W        W11324   8.360   1.265   0.335
51822W        W11325  34.611  18.566   4.725
51823W        W11326  12.167  37.485  13.039
51824W        W11327  32.123  14.708  14.010
51825W        W11328  36.381   9.786  13.878
51826W        W11329   6.777  18.174   3.278
51827W        W11330  23.492  26.146  12.390
51828W        W11331  38.334  25.977  13.495
51829W        W11332   8.214   7.257   1.253
51830W        W11333  29.505  42.902   0.917
51831W        W11334  38.336   8.871   2.734
51832W        W11335  21.643  38.454  12.352
51833W        W11336   5.302  25.480   2.346
51834W        W11337  16.081  22.557  13.309
51835W        W11338  22.110   2.814  11.517
51836W        W11339  16.792  22.142   4.263
51837W        W11340  42.424  10.250  13.354
51838W        W11341  10.672   5.430  12.363
51839W        W11342  28.453  41.929   3.633
51840W        W11343   4.381  18.707   3.716
51841W        W11344  32.929   5.696  11.892
51842W        W11345   4.736  42.971   1.309
51843W        W11346  16.241  15.686  11.995
51844W        W11347  21.194   0.265   0.381
51845W        W11348  41.901  21.182  13.928
51846W        W11349  10.303  30.067  11.591
51847W        W11350  30.591  14.676   1.424
51848W        W11351   8.391  12.851   0.267
51849W        W11352  18.249  37.386   9.995
51850W        W11353   9.227  18.575   1.338
51851W        W11354  26.194   0.441  12.415
51852W        W11355  29.534  29.133   3.157
51853W        W11356  26.082  24.214  10.966
51854W        W11357   5.768  31.151   3.292
51855W        W11358  30.135   5.917   1.278
51856W        W11359  25.564   1.864  14.339
51857W        W11360  24.712  15.692  13.834
51858W        W11361   9.647  25.067  12.402
51859W        W11362  27.639   8.837  14.439
51860W        W11363  30.067  20.063  12.497
51861W        W11364  15.156  44.956  12.857
51862W        W11365   1.764   8.343   2.691
51863W        W11366   8.806  19.054  14.999
51864W        W11367  14.705   7.724   2.350
51865W        W11368   2.780   7.840  14.023
51866W        W11369  31.968   1.898   1.794
51867W        W11370  42.797  28.096  12.083
51868W        W11371   3.359  44.495   0.954
51869W        W11372   3.825  33.987   2.676
51870W        W11373  13.621  35.982  12.876
51871W        W11374  41.043  12.640   1.271
51872W        W11375  43.811   1.920  11.393
51873W        W11376  32.078  15.231  14.504
51874W        W11377  23.514  12.695   2.725
51875W        W11378  20.601   4.219   1.412
51876W        W11379  31.036  22.999  10.455
51877W        W11380   8.837  23.141   2.830
51878W        W11381  15.734  17.176  11.404
51879W        W11382  30.001  19.078   4.623
51880W        W11383  40.356  10.235   2.799
51881W        W11384  27.546  30.133  13.860
51882W        W11385  14.133  23.068   2.780
51883W        W11386  13.820  39.317  12.476
51884W        W11387   1.286   1.940   4.604
51885W        W11388  17.632   2.757   2.249
51886W        W11389  30.973  24.979   2.409
51887W        W11390  17.736  35.098  12.402
51888W        W11391   1.916   8.223  11.607
51889W        W11392  38.842   3.794  12.529
51890W        W11393  40.981  38.484   3.766
51891W        W11394  37.076   7.401   4.622
51892W        W11395   2.396   6.706  13.905
51893W        W11396   2.460  37.384  10.489
51894W        W11397  30.057  37.890   3.784
51895W        W11398  32.891   4.903  12.397
51896W        W11399  40.445  17.270  13.412
51897W        W11400  40.445  41.858  11.611
51898W        W11401  24.189  17.081  11.438
51899W        W11402  17.722  37.891   1.884
51900W        W11403  41.469  34.504   4.714
51901W        W11404  25.582   2.254  14.372
51902W        W11405  26.666  12.190  12.482
51903W        W11406  16.671  38.043   4.732
51904W        W11407  36.889  30.989   2.854
51905W        W11408  17.793  32.603   4.703
51906W        W11409  23.034  33.910   3.366
51907W        W11410  10.354  14.691  13.423
51908W        W11411   8.689  25.653  12.416
51909W        W11412  10.304  27.977   2.385
51910W        W11413  38.899  11.200   3.287
51911W        W11414   3.909  25.035   0.753
51912W        W11415  30.109   2.899   4.291
51913W        W11416  33.437  40.907   3.702
51914W        W11417  23.518  32.081   0.253
51915W        W11418  32.054   3.244   2.791
51916W        W11419  21.557   6.795  13.983
51917W        W11420   4.277  35.499   0.471
51918W        W11421  26.482  13.299  12.962
51919W        W11422  37.947   4.429   1.294
51920W        W11423  26.059  16.577  12.375
51921W        W11424  20.261  39.840   2.667
51922W        W11425  36.049  16.195  10.933
51923W        W11426  20.724  15.223  10.980
51924W        W11427  23.531  44.265   3.153
51925W        W11428  24.074  26.199  14.505
51926W        W11429  33.025  40.017   0.904
51927W        W11430  42.983  23.564   3.824
51928W        W11431   3.758  25.506  13.339
51929W        W11432  35.873  35.568   4.631
51930W        W11433  14.821  43.324  10.957
51931W        W11434   0.754  44.341   1.824
51932W        W11435  41.892  10.743   0.799
51933W        W11436  29.149  36.461   2.219
51934W        W11437  28.930  27.066   0.243
51935W        W11438  21.171   2.766   1.886
51936W        W11439  15.804  20.568  11.443
51937W        W11440   4.888  13.252   3.766
51938W        W11441  39.436  44.363   2.286
51939W        W11442  36.053  15.328  13.032
51940W        W11443  32.953  11.831   4.284
51941W        W11444  38.433   4.319  11.605
51942W        W11445   2.720  42.441   5.296
51943W        W11446  17.232  28.050  14.378
51944W        W11447  14.206  24.685  10.562
51945W        W11448  37.415  16.296   1.391
51946W        W11449  33.586   8.856   0.376
51947W        W11450  17.234  25.611  11.512
51948W        W11451  35.576  35.941   4.272
51949W        W11452  38.055  31.486  14.984
51950W        W11453  31.012  24.164  14.411
51951W        W11454  38.538  37.505   1.865
51952W        W11455  13.646   8.161   3.343
51953W        W11456  32.637  28.065   2.185
51954W        W11457  14.649  44.295   4.185
51955W        W11458  35.924  29.045  13.906
51956W        W11459   9.689  32.615   9.576
51957W        W11460  42.468  34.927  10.514
51958W        W11461  28.029  44.428  12.514
51959W        W11462  35.922  36.039   1.878
51960W        W11463  14.196  17.236  13.015
51961W        W11464  38.043  43.898   0.270
51962W        W11465   7.267  44.466  11.950
51963W        W11466   5.337  43.278  11.981
51964W        W11467  33.875  32.494   1.821
51965W        W11468  36.036  21.079  13.893
51966W        W11469  35.423  20.129   4.217
51967W        W11470   3.216  14.319   3.789
51968W        W11471  34.380  43.832  10.976
51969W        W11472  13.789   0.819  13.064
51970W        W11473  21.708  40.978   1.750
51971W        W11474  28.675  43.832  14.887
51972W        W11475  35.465  16.167   3.324
51973W        W11476  35.598  28.134   1.819
51974W        W11477  24.147  26.696   5.187
51975W        W11478   2.410  28.038  10.460
51976W        W11479  11.836  36.870  12.402
51977W        W11480  38.050  23.236  11.072
51978W        W11481  15.123  20.266   1.725
51979W        W11482  19.658  30.079   4.733
51980W        W11483  29.515  33.039  13.542
51981W        W11484  11.864   1.319  10.576
51982W        W11485  36.992  13.209  10.556
51983W        W11486   2.436  22.549  12.904
51984W        W11487  11.296  23.141  14.801
51985W        W11488   4.935  17.229  13.838
51986W        W11489   2.914  37.953   1.886
51987W        W11490  30.554   2.334  11.416
51988W        W11491  32.077  27.047  12.070
51989W        W11492  28.522  34.448  12.446
51990W        W11493  21.722  35.546   0.818
51991W        W11494  27.689  36.021  12.527
51992W        W11495  37.041  19.074   1.887
51993W        W11496  27.154  25.506  14.759
51994W        W11497   9.173   6.303   1.894
51995W        W11498  42.830  31.098  13.510
51996W        W11499  14.665  32.010   4.714
51997W        W11500  35.002  11.159  12.892
51998W        W11501  14.727   8.814   4.784
51999W        W11502  17.268  27.988   1.412
52000W        W11503  44.325  29.660  14.476
52001W        W11504  44.922  43.010  14.477
52002W        W11505  22.602  13.332  14.294
52003W        W11506   6.392  41.419  12.047
52004W        W11507  29.586  36.414   5.280
52005W        W11508  16.235   5.730   1.285
52006W        W11509  37.565   7.273   3.368
52007W        W11510   0.905   7.290   2.290
52008W        W11511  29.429   9.264  13.434
52009W        W11512   3.395  30.096   4.120
52010W        W11513  31.137  23.107  12.374
52011W        W11514  16.743   5.312   1.232
52012W        W11515  15.241  37.464   0.414
52013W        W11516  10.877   3.262   3.753
52014W        W11517  19.737  28.636  10.962
52015W        W11518  39.316   5.709   1.431
52016W        W11519  35.969   3.300   4.177
52017W        W11520  41.010  44.332   1.346
52018W        W11521  31.999   1.284  11.531
52019W        W11522  29.438   5.731   3.187
52020W        W11523  34.533  44.355   2.310
52021W        W11524  34.884  14.616   3.664
52022W        W11525  21.656   6.827  10.439
52023W        W11526  15.225   5.890  13.468
52024W        W11527  29.460   7.813  11.897
52025W        W11528  42.526  30.130  14.338
52026W        W11529  44.323  24.988  14.401
52027W        W11530  39.969  38.376  11.118
52028W        W11531  17.568  25.118   2.395
52029W        W11532  21.653  41.927  13.046
52030W        W11533  35.063  29.096   2.418
52031W        W11534   1.936   4.886   1.320
52032W        W11535  26.507   8.214   3.347
52033W        W11536  42.426  35.525   1.878
52034W        W11537   9.819  28.663  10.643
52035W        W11538  29.425  35.983   5.298
52036W        W11539  24.509  31.627   0.840
52037W        W11540  23.690  26.580  14.504
52038W        W11541  37.490  15.780  11.047
52039W        W11542  41.310  16.582   0.797
52040W        W11543  29.953  16.254  12.078
52041W        W11544  11.851  25.675   4.121
52042W        W11545   4.725  15.717   2.220
52043W        W11546  32.540  37.493  14.835
52044W        W11547  25.112   5.874   4.128
52045W        W11548  24.151  21.253  12.853
52046W        W11549  43.942   8.802   5.105
52047W        W11550  36.032  10.223   0.243
52048W        W11551  19.080  24.575   0.345
52049W        W11552  19.081   4.715   2.871
52050W        W11553   9.708  10.149   0.269
52051W        W11554  20.070  25.040  14.901
52052W        W11555  38.893  13.831   0.858
52053W        W11556  27.147   2.434   0.960
52054W        W11557  36.921  34.487   4.628
52055W        W11558   3.409  30.077   1.792
52056W        W11559  38.424  32.969  14.896
52057W        W11560  13.672  27.145   4.311
52058W        W11561  31.110  34.484  14.395
52059W        W11562   9.220  14.655   0.802
52060W        W11563  19.591  26.084   3.319
52061W        W11564  43.426  38.018   1.815
52062W        W11565  19.613   2.953   0.245
52063W        W11566  27.045  11.334   4.202
52064W        W11567  17.132  12.650  10.970
52065W        W11568  41.976  30.472   2.742
52066W        W11569  15.165  35.089   3.172
52067W        W11570  26.146   9.788  11.082
52068W        W11571  32.500  13.326   2.893
52069W        W11572   4.352  17.255  11.471
52070W        W11573  10.313   5.230   3.239
52071W        W11574   6.344  39.840   4.631
52072W        W11575   4.738  36.519   0.285
52073W        W11576  20.690  14.156   2.709
52074W        W11577  40.454  19.741   4.298
52075W        W11578  33.084   7.668  14.811
52076W        W11579  40.343  28.572   2.899
52077W        W11580  28.132  39.002  11.043
52078W        W11581   0.940  16.277   3.332
52079W        W11582  16.603  13.803  10.964
52080W        W11583  35.411   0.296   1.803
52081W        W11584  42.284  10.779  11.873
52082W        W11585  11.760  43.329  12.068
52083W        W11586  24.186  20.616   3.227
52084W        W11587  35.486  23.580  10.617
52085W        W11588  29.922   6.847  13.948
52086W        W11589  34.077  23.587  12.868
52087W        W11590  19.099  42.977   4.294
52088W        W11591  25.691   3.881  14.441
52089W        W11592  14.293  22.597  11.011
52090W        W11593  21.532  21.748   0.465
52091W        W11594  36.362  33.459   0.763
52092W        W11595  38.335  32.043  12.981
52093W        W11596  13.289  25.698  11.111
52094W        W11597   4.896  38.332   2.718
52095W        W11598  30.526  10.688  13.814
52096W        W11599  12.312  13.137   2.748
52097W        W11600  17.206  31.953  13.504
52098W        W11601  23.569  31.429  11.005
52099W        W11602  25.963  20.768  13.009
52100W        W11603  27.077  20.648   3.302
52101W        W11604  29.444   4.778  10.632
52102W        W11605  20.617  17.248   0.829
52103W        W11606  21.657   5.204  13.837
52104W        W11607  32.918  41.894   3.295
52105W        W11608   8.190   2.448   0.371
52106W        W11609  42.849  13.217   4.810
52107W        W11610  13.215   7.886   0.391
52108W        W11611  38.892   2.936  11.480
52109W        W11612  34.917  38.414  10.075
52110W        W11613  15.743  22.122   1.709
52111W        W11614  14.130  23.212  12.077
52112W        W11615  27.566  39.039  11.540
52113W        W11616  25.128  17.623  14.806
52114W        W11617  11.373  10.727   1.346
52115W        W11618  38.835  11.341  11.463
52116W        W11619  23.236  21.670   4.831
52117W        W11620  37.432   7.332   4.834
52118W        W11621  35.902  43.830   3.720
52119W        W11622  42.459   0.780   1.810
52120W        W11623  31.099   8.749  14.439
52121W        W11624  11.631  18.553   4.737
52122W        W11625  44.368   5.331   4.190
52123W        W11626   3.922  17.255  11.397
52124W        W11627  29.601  21.199   1.729
52125W        W11628  41.010  43.404   2.260
52126W        W11629  21.056  23.147  14.349
52127W        W11630  42.290  15.669   5.098
52128W        W11631  38.354  27.184  10.454
52129W        W11632  13.297   3.773  13.506
52130W        W11633  29.074  14.772  13.878
52131W        W11634  13.663  13.137  13.341
52132W        W11635   9.359  37.354   4.740
52133W        W11636  19.280   9.657   2.666
52134W        W11637  28.610  21.560  14.820
52135W        W11638   8.266  36.592   1.385
52136W        W11639  41.037  18.617  14.305
52137W        W11640  39.955  33.971   1.310
52138W        W11641   6.899   0.985   2.785
52139W        W11642  24.707  24.994  11.941
52140W        W11643  39.420  12.222   3.280
52141W        W11644  27.528  21.228  12.430
52142W        W11645   2.813  37.898   4.752
52143W        W11646  34.489   7.172   2.268
52144W        W11647  11.332   7.721   0.895
52145W        W11648  14.828   1.731   0.365
52146W        W11649  10.329  44.315   2.241
52147W        W11650   9.230  36.558  14.992
52148W        W11651  41.987  24.043  14.871
52149W        W11652  43.812  22.599  11.410
52150W        W11653  21.679   7.186  11.064
52151W        W11654   1.831  20.542   1.410
52152W        W11655   4.319   4.412   4.742
52153W        W11656  11.143   3.435  10.522
52154W        W11657  38.339  42.377  14.001
52155W        W11658  42.286  44.453  13.860
52156W        W11659  24.154  29.942  13.987
52157W        W11660  11.847  35.038   3.770
52158W        W11661  41.460  27.163   1.790
52159W        W11662  35.523  41.343  14.828
52160W        W11663   4.742  15.636  12.034
52161W        W11664   0.336  41.933  12.917
52162W        W11665  36.580   7.232   3.289
52163W        W11666  12.705  12.710  14.951
52164W        W11667  20.665  40.809  13.495
52165W        W11668  38.448   1.309  13.888
52166W        W11669  17.627  28.170  13.843
52167W        W11670  13.726  39.040   0.422
52168W        W11671  16.810  27.531   4.352
52169W        W11672  15.686  22.514   3.829
52170W        W11673  22.599  17.150   3.365
52171W        W11674  37.467  20.099  14.946
52172W        W11675  32.533  27.470  13.335
52173W        W11676  37.397  15.609   4.683
52174W        W11677  28.011  13.687  14.276
52175W        W11678  14.285   0.349   1.820
52176W        W11679  24.011   2.392   2.662
52177W        W11680   1.890  41.454   2.375
52178W        W11681  30.646  34.601  10.107
52179W        W11682  38.910   5.901  14.441
52180W        W11683   3.769  38.484  13.517
52181W        W11684  20.094  30.155  12.874
52182W        W11685   7.857  37.869   0.762
52183W        W11686   2.411  10.236   1.310
52184W        W11687  21.553  20.734   2.312
52185W        W11688  23.122  15.162  10.426
52186W        W11689  40.340  14.601   1.724
52187W        W11690  18.202  22.584  11.013
52188W        W11691  39.863  37.967  10.429
52189W        W11692  43.430  39.518  10.531
52190W        W11693  41.505   9.290  14.924
52191W        W11694  39.912  28.491  13.441
52192W        W11695   9.844  34.875  12.983
52193W        W11696  11.744   7.242   2.884
52194W        W11697   6.701  36.915   0.914
52195W        W11698  15.771   5.328   1.368
52196W        W11699  20.187  17.716  13.794
52197W        W11700   7.879  24.166  10.603
52198W        W11701  30.153   3.872  13.526
52199W        W11702   2.404  12.357   3.861
52200W        W11703  23.126  33.986   1.919
52201W        W11704  10.334  14.600  11.045
52202W        W11705  34.607  10.200  13.355
52203W        W11706  18.595  28.607   1.802
52204W        W11707  25.535  32.001   2.673
52205W        W11708  23.622  35.862  10.890
52206W        W11709  13.818  37.404   1.810
52207W        W11710  16.083   3.832   4.177
52208W        W11711  43.018  23.592  12.928
52209W        W11712  21.048   7.340  12.547
52210W        W11713   1.769  23.667   2.725
52211W        W11714  39.457  44.879  12.939
52212W        W11715  14.667   7.417   0.902
52213W        W11716  27.942  13.208   4.773
52214W        W11717  11.705  39.426  12.847
52215W        W11718  26.573   5.266   5.107
52216W        W11719  16.592  42.446  10.918
52217W        W11720  30.150  43.360   4.142
52218W        W11721  29.478  19.615   0.775
52219W        W11722   5.318  22.591  11.856
52220W        W11723  42.856  34.073   0.831
52221W        W11724  41.827  23.504  10.984
52222W        W11725  21.036   8.667  12.517
52223W        W11726  12.674  24.489   0.813
52224W        W11727   0.793  43.867   5.158
52225W        W11728  19.562  11.843  13.802
52226W        W11729  27.642  20.071   3.639
52227W        W11730   2.462  18.256  11.056
52228W        W11731  35.473  17.217   3.288
52229W        W11732  30.124  31.056  14.324
52230W        W11733   9.240  20.567   1.423
52231W        W11734   3.361  18.090  12.982
52232W        W11735   5.812  41.370   0.370
52233W        W11736  11.133  27.499   2.851
52234W        W11737  21.179  33.903   1.805
52235W        W11738   5.818   5.838  11.539
52236W        W11739  15.139  22.012   4.724
52237W        W11740  44.919   9.737  10.432
52238W        W11741  22.188  31.527  10.586
52239W        W11742  33.563  33.945   2.271
52240W        W11743  23.545  24.219  10.503
52241W        W11744  39.446  23.993   0.361
52242W        W11745  27.613  44.877  14.338
52243W        W11746  24.136  31.983  12.826
52244W        W11747  21.130  15.795  14.839
52245W        W11748  34.488  40.374   0.423
52246W        W11749  11.855  22.518  10.546
52247W        W11750  12.151  23.536   2.681
52248W        W11751  35.517  37.893   1.427
52249W        W11752  12.649  27.093   0.419
52250W        W11753  19.544  25.560   1.806
52251W        W11754   4.934  26.989  10.506
52252W        W11755   2.820  16.785   3.286
52253W        W11756  27.517   6.397   0.965
52254W        W11757   2.340   1.375   1.427
52255W        W11758  42.784  26.565  10.477
52256W        W11759  40.940  26.469   3.275
52257W        W11760  31.430  25.151   4.740
52258W        W11761   9.786  33.924  14.460
52259W        W11762   6.349  42.457  12.085
52260W        W11763   3.228  21.576  10.543
52261W        W11764   7.217   7.178  14.930
52262W        W11765   7.280   8.814  11.032
52263W        W11766  44.777  15.159  12.966
52264W        W11767   7.776  19.659   0.736
52265W        W11768  28.124  37.443  11.511
52266W        W11769   3.904   5.396  14.018
52267W        W11770  11.682   8.324  13.941
52268W        W11771   9.720   7.875   2.718
52269W        W11772  19.763   0.778   4.789
52270W        W11773  43.275  36.593  11.420
52271W        W11774  39.355   3.297  11.947
52272W        W11775  37.958   1.327  13.524
52273W        W11776  16.783  10.142   2.783
52274W        W11777   5.323  38.938   9.964
52275W        W11778  27.169  34.510  14.412
52276W        W11779  22.042  18.758  13.827
52277W        W11780  10.869   2.399  11.008
52278W        W11781   3.833  33.081   0.317
52279W        W11782   9.150  22.560   2.277
52280W        W11783  32.570  33.073  13.881
52281W        W11784   4.822   8.353   1.250
52282W        W11785  40.425   9.148  11.560
52283W        W11786  43.443  15.256   0.896
52284W        W11787  11.786  34.488  14.881
52285W        W11788  16.122  15.713   1.828
52286W        W11789   2.377  40.040   1.741
52287W        W11790  27.478  23.545   4.727
52288W        W11791   0.272  24.498  14.334
52289W        W11792  41.428   9.743   0.251
52290W        W11793  42.878  10.844   1.273
52291W        W11794  15.196  41.457   3.151
52292W        W11795  44.889  14.126   3.309
52293W        W11796  31.911  31.084  10.403
52294W        W11797   5.853  37.992   4.731
52295W        W11798   6.345  25.638  14.903
52296W        W11799  39.052  23.715   1.298
52297W        W11800  35.407  34.994   1.726
52298W        W11801   0.776  12.653  10.448
52299W        W11802  17.245  25.207  14.460
52300W        W11803  41.881  18.596  14.422
52301W        W11804  24.725  12.318   0.844
52302W        W11805  38.486  10.779  13.841
52303W        W11806  40.947   2.233   2.806
52304W        W11807  33.904  33.031   3.198
52305W        W11808  13.232  12.701  12.921
52306W        W11809   4.773  11.688   3.316
52307W        W11810  35.537  36.566  12.995
52308W        W11811   4.407  24.220  12.077
52309W        W11812  12.839  36.440   3.724
52310W        W11813  34.452  39.478  12.863
52311W        W11814   5.247   9.355  11.459
52312W        W11815  10.791   2.803  13.812
52313W        W11816  16.664  22.595  12.081
52314W        W11817   1.975  41.986  11.554
52315W        W11818  17.176  29.464   1.930
52316W        W11819  33.049   0.868   4.775
52317W        W11820  22.637  22.663  13.897
52318W        W11821  10.234   7.373   4.625
52319W        W11822  43.765  28.537  13.959
52320W        W11823  36.002  12.225   1.775
52321W        W11824  32.534  39.897   2.310
52322W        W11825  34.542  17.774  12.028
52323W        W11826   2.728   7.356   1.444
52324W        W11827  41.361   5.813   0.788
52325W        W11828   2.471   0.352   0.354
52326W        W11829  43.406  37.017   4.193
52327W        W11830   4.713  44.966  11.901
52328W        W11831   1.781  35.588   3.756
52329W        W11832   0.893   0.922   1.720
52330W        W11833  41.463   3.339   3.695
52331W        W11834  33.407  20.578   1.867
52332W        W11835  30.604   2.268   3.350
52333W        W11836  34.407   4.385  12.875
52334W        W11837  19.735  25.086   4.275
52335W        W11838  25.699   2.361   0.342
52336W        W11839  36.570  33.969  10.497
52337W        W11840  18.228  23.015  13.398
52338W        W11841   9.387   2.956  14.299
52339W        W11842   3.403  32.545  10.590
52340W        W11843  40.980  35.509  10.567
52341W        W11844  33.574   2.400  14.421
52342W        W11845   3.884  35.947  12.464
52343W        W11846  11.843   2.912  10.616
52344W        W11847  15.684  23.162   4.702
52345W        W11848  19.615  14.213   3.182
52346W        W11849  37.056  22.604  14.472
52347W        W11850  12.627  30.637  14.421
52348W        W11851   1.317   1.469   2.403
52349W        W11852  18.219   3.815  13.023
52350W        W11853  29.084  11.703   3.196
52351W        W11854   4.212  30.501  13.045
52352W        W11855  34.464  35.106  14.878
52353W        W11856  40.310  19.157   0.805
52354W        W11857  35.568  25.518   3.253
52355W        W11858  11.823  29.573  14.401
52356W        W11859  33.918  20.234   0.323
52357W        W11860  41.942   0.840   3.816
52358W        W11861   9.299  27.964  12.999
52359W        W11862  29.485  33.594   3.221
52360W        W11863   9.283  11.287  14.782
52361W        W11864  10.363  17.269   1.862
52362W        W11865  24.196  20.215  14.909
52363W        W11866  23.087   1.356  11.913
52364W        W11867  30.501  44.845  11.006
52365W        W11868  30.533  44.268   0.282
52366W        W11869  21.028  32.459   3.309
52367W        W11870  11.749  25.172   5.131
52368W        W11871   7.315   2.880   2.867
52369W        W11872  15.295  21.241   0.244
52370W        W11873   5.735  38.942   4.615
52371W        W11874  30.119   2.944   3.164
52372W        W11875  24.531   4.267  12.401
52373W        W11876   3.904  16.144   2.825
52374W        W11877  22.167  27.635  14.852
52375W        W11878  36.376  32.962   3.683
52376W        W11879  16.779  43.328  12.395
52377W        W11880  20.593  31.572   4.225
52378W        W11881  11.690   2.408  13.342
52379W        W11882  32.079  22.158  14.848
52380W        W11883   5.787   1.443   0.439
52381W        W11884  44.874   4.343  12.941
52382W        W11885  30.076  13.276  12.836
52383W        W11886   4.934  19.256   0.281
52384W        W11887  20.250   7.769  11.531
52385W        W11888   9.347  30.119   0.399
52386W        W11889  39.890  29.921  14.981
52387W        W11890   3.335  44.283   5.613
52388W        W11891  37.369   8.835  11.567
52389W        W11892  12.772  44.342   1.427
52390W        W11893   6.329  10.647   2.352
52391W        W11894  20.528   1.250  14.465
52392W        W11895   3.438   5.809   0.352
52393W        W11896  27.131  12.118  10.928
52394W        W11897  26.061  32.517   1.283
52395W        W11898  27.649  43.927  14.430
52396W        W11899  10.140  14.798   0.368
52397W        W11900  30.038  33.484   1.718
52398W        W11901   5.842  20.739   1.415
52399W        W11902   3.453  29.537   4.300
52400W        W11903  31.614  15.206  11.117
52401W        W11904  21.184   3.879  14.956
52402W        W11905   1.825  36.063  14.437
52403W        W11906  15.717  10.269   4.674
52404W        W11907  14.809  37.017   0.268
52405W        W11908  34.477   6.271   1.822
52406W        W11909  22.548  22.209  13.810
52407W        W11910   4.868  37.488  12.568
52408W        W11911  40.978  21.603  14.288
52409W        W11912  24.487  44.438   0.464
52410W        W11913  37.896  24.201  14.421
52411W        W11914  42.362  30.465  13.812
52412W        W11915  31.639  17.294  10.982
52413W        W11916  39.863  19.134   2.213
52414W        W11917  35.854  27.080   0.387
52415W        W11918  32.917   6.759  12.444
52416W        W11919  40.401  17.273  11.058
52417W        W11920  16.150  41.434   2.303
52418W        W11921   0.827   8.275  13.856
52419W        W11922  28.156  33.538   3.697
52420W        W11923  34.978   3.912   1.926
52421W        W11924  13.843  39.839   4.812
52422W        W11925   4.809  27.674   9.962
52423W        W11926  26.954  34.374   1.325
52424W        W11927  20.681  27.614  12.827
52425W        W11928  18.117  41.830  14.851
52426W        W11929  31.581   8.210  11.942
52427W        W11930  29.073  33.497   1.367
52428W        W11931  44.932  28.017   2.686
52429W        W11932   6.713  40.035  13.877
52430W        W11933   2.768  26.207   5.253
52431W        W11934  44.767  16.294   4.228
52432W        W11935  16.805  11.215   2.896
52433W        W11936  20.172  33.538   2.365
52434W        W11937  28.158  11.706  11.000
52435W        W11938   2.772  30.003  14.850
52436W        W11939   8.765  38.013  10.607
52437W        W11940  39.853  26.099   2.329
52438W        W11941  40.470  34.495   1.228
52439W        W11942  26.995  30.973   1.703
52440W        W11943  23.199  26.099   2.759
52441W        W11944  10.367  33.894  11.093
52442W        W11945  33.876  13.621  10.027
52443W        W11946  42.789  14.325   4.296
52444W        W11947  41.488  37.503  13.981
52445W        W11948  43.997   7.375   0.475
52446W        W11949   2.809   1.828  13.313
52447W        W11950  21.263  35.087   1.754
52448W        W11951   2.395  23.176   0.942
52449W        W11952  38.984  32.957   0.452
52450W        W11953  33.061   2.348  14.509
52451W        W11954  13.275  15.691   0.331
52452W        W11955  33.112   2.273  13.406
52453W        W11956   9.873  15.207  13.983
52454W        W11957  34.875  26.193   0.757
52455W        W11958  38.365   0.916   3.634
52456W        W11959   7.878  31.147   1.364
52457W        W11960  32.103  25.200   1.930
52458W        W11961  29.114  40.391   4.289
52459W        W11962  11.839   1.298  14.434
52460W        W11963   7.851   5.253   2.391
52461W        W11964  27.526  11.316   0.358
52462W        W11965  21.081  31.427  14.950
52463W        W11966   3.450  17.067  11.467
52464W        W11967  37.995  21.556   4.124
52465W        W11968  41.006  33.607  10.440
52466W        W11969  25.207   8.160   1.803
52467W        W11970  10.735  31.614   3.335
52468W        W11971  24.067  20.602  13.902
52469W        W11972  27.555   2.426   5.299
52470W        W11973  28.930  37.918  13.949
52471W        W11974  26.650  20.083  13.874
52472W        W11975   5.294   0.358  10.439
52473W        W11976   1.906  27.574  13.884
52474W        W11977  31.631  39.457  13.467
52475W        W11978  38.472  21.185  12.053
52476W        W11979  16.649   8.776   4.285
52477W        W11980   7.856  17.659  12.385
52478W        W11981   9.309  33.623  11.971
52479W        W11982  44.438  15.645  12.340
52480W        W11983  11.727  33.909  12.075
52481W        W11984  20.684  38.373   0.365
52482W        W11985  41.884  12.635   0.397
52483W        W11986  33.512  10.851   4.694
52484W        W11987   8.163  21.564  12.450
52485W        W11988  33.071   6.396  10.894
52486W        W11989  26.467  21.025   4.792
52487W        W11990   6.194  27.009   2.679
52488W        W11991  17.264  14.189  13.948
52489W        W11992  24.722   3.335  13.032
52490W        W11993  39.939   4.404  11.598
52491W        W11994  37.525  27.580  11.589
52492W        W11995  12.725  29.995  14.327
52493W        W11996   2.821  40.032  13.501
52494W        W11997  33.548  43.882   2.361
52495W        W11998  21.160   0.755   2.376
52496W        W11999  38.039   9.168   2.215
52497W        W12000  17.067  37.003   0.747
52498W        W12001  27.499   5.371   2.208
52499W        W12002   4.726  44.487  10.949
52500W        W12003  17.270  37.880   0.434
52501W        W12004  14.267  14.278  12.344
52502W        W12005  17.662  12.284   1.223
52503W        W12006  27.554  31.040  12.434
52504W        W12007  38.427  16.736  10.976
52505W        W12008  10.772   1.472  13.377
52506W        W12009   1.385  24.181  13.011
52507W        W12010  44.985  41.483  12.072
52508W        W12011  19.638   5.901  13.326
52509W        W12012  14.677  30.940  13.405
52510W        W12013  15.160  11.828   3.251
52511W        W12014  33.493  27.566  14.776
52512W        W12015  23.231   6.865  12.938
52513W        W12016  30.048  31.097   3.289
52514W        W12017  34.906   7.330   9.961
52515W        W12018  30.915  34.041  11.917
52516W        W12019  25.666  24.086   1.841
52517W        W12020  22.638  25.544  11.394
52518W        W12021   5.312   6.912  13.546
52519W        W12022  31.406  12.817   3.655
52520W        W12023  23.570   9.684  14.866
52521W        W12024  24.715   6.221   1.406
52522W        W12025  18.115  13.233   3.853
52523W        W12026  28.513   2.455   1.761
52524W        W12027  16.709  38.836   1.769
52525W        W12028  20.658   0.765  14.307
52526W        W12029  42.818  39.323   1.773
52527W        W12030  28.516  22.638  14.816
52528W        W12031  22.998  39.446  10.557
52529W        W12032  17.754  27.648   0.856
52530W        W12033   4.944  38.053  14.381
52531W        W12034  43.328   5.883  12.919
52532W        W12035   6.316  13.287   1.771
52533W        W12036  23.728  35.602   1.901
52534W        W12037  21.662  22.031   1.215
52535W        W12038   3.849  10.764   4.653
52536W        W12039  12.231  24.160  11.561
52537W        W12040   8.759  43.018   3.340
52538W        W12041  25.683  26.164   3.744
52539W        W12042  31.464  13.295  14.904
52540W        W12043  32.585  41.870  13.962
52541W        W12044  16.640  39.335   0.293
52542W        W12045   0.405  44.951   0.917
52543W        W12046   4.796  18.207  12.509
52544W        W12047  19.227  36.491  10.586
52545W        W12048  22.058  22.126  13.444
52546W        W12049   8.852  12.130   1.761
52547W        W12050   0.794  20.253   9.578
52548W        W12051  13.699  39.473  11.020
52549W        W12052  21.243  31.935   0.860
52550W        W12053   7.883   1.864   3.742
52551W        W12054  28.617  23.651  11.450
52552W        W12055  19.072   8.274  13.863
52553W        W12056   9.757  17.194   0.743
52554W        W12057  16.676  24.206   3.833
52555W        W12058  35.476  33.481  14.860
52556W        W12059  19.714  25.677  13.406
52557W        W12060   5.267  10.268   3.732
52558W        W12061   8.864  43.493   2.242
52559W        W12062  22.091  25.055   1.229
52560W        W12063  29.068  10.349  14.305
52561W        W12064   5.811  22.234  12.012
52562W        W12065  42.427  32.983  12.979
52563W        W12066  28.958  15.786   2.807
52564W        W12067   8.395   9.677  12.448
52565W        W12068  32.074  17.726  13.439
52566W        W12069  16.274   6.223  13.974
52567W        W12070  38.340  27.137   2.338
52568W        W12071  18.109  11.174   0.323
52569W        W12072  34.385   3.238   0.774
52570W        W12073  12.149   9.338   2.223
52571W        W12074  30.937  24.169  13.816
52572W        W12075   5.881  16.268   1.741
52573W        W12076  35.363   3.418   2.791
52574W        W12077  33.961   0.261   1.295
52575W        W12078  43.935  27.566  11.907
52576W        W12079  16.219  10.262  13.452
52577W        W12080   0.933  11.161   3.810
52578W        W12081  41.489  33.547   4.240
52579W        W12082   7.391  44.852   0.821
52580W        W12083   6.284  26.467  11.499
52581W        W12084   6.388  24.715   2.739
52582W        W12085  21.092   0.378   1.924
52583W        W12086  32.409  42.798   4.831
52584W        W12087  28.494  39.811  10.983
52585W        W12088  36.401  12.702   3.815
52586W        W12089  15.612   0.462   1.863
52587W        W12090   0.403  27.959  12.580
52588W        W12091  25.475  26.610   0.388
52589W        W12092   6.819  16.180  10.599
52590W        W12093  32.587  22.692  13.548
52591W        W12094  37.857  29.621   2.238
52592W        W12095  39.059  21.212   5.131
52593W        W12096   3.414  41.846  10.407
52594W        W12097  40.353  34.556  14.955
52595W        W12098   3.905  12.700  11.511
52596W        W12099  28.943   5.199   0.809
52597W        W12100  26.655   7.392   1.858
52598W        W12101  44.267  33.566   0.825
52599W        W12102  18.578  37.423   4.319
52600W        W12103  12.758  20.260   1.870
52601W        W12104  32.546  36.446  13.957
52602W        W12105  30.133   4.416   0.389
52603W        W12106  22.635   6.201   3.633
52604W        W12107  10.744   5.198   3.721
52605W        W12108  18.725   7.216   3.369
52606W        W12109   9.292  43.339   3.787
52607W        W12110  23.575  26.459   3.695
52608W        W12111  14.103  19.619   3.285
52609W        W12112  13.728  26.606  10.516
52610W        W12113  43.386  30.469   2.715
52611W        W12114  10.692   9.375   3.310
52612W        W12115  29.071  14.305  14.320
52613W        W12116  15.739  26.672   5.196
52614W        W12117   8.744  11.213   3.248
52615W        W12118  24.625  16.136  11.071
52616W        W12119   2.290  19.066  10.553
52617W        W12120  24.619  37.014  10.617
52618W        W12121  11.208  11.842   4.603
52619W        W12122  14.224  35.007   1.898
52620W        W12123  21.028  36.526  13.528
52621W        W12124  30.964  40.329  12.580
52622W        W12125  40.899  44.296  14.328
52623W        W12126  43.297   8.184  10.415
52624W        W12127  33.098   9.359  10.442
52625W        W12128  32.543  43.863   4.206
52626W        W12129  35.515  37.522  11.015
52627W        W12130  41.516  19.747   0.928
52628W        W12131  37.947  33.541  11.869
52629W        W12132  20.612  32.522  14.870
52630W        W12133  27.087  27.995  13.370
52631W        W12134  27.552  39.847  11.093
52632W        W12135  13.622  16.699  12.067
52633W        W12136  43.797  10.765   0.432
52634W        W12137  29.139  16.597  12.504
52635W        W12138  36.888   7.295   2.335
52636W        W12139  13.134   3.380  14.900
52637W        W12140  36.068   5.380  11.977
52638W        W12141  37.901  23.575   2.183
52639W        W12142  33.528  28.144  13.450
52640W        W12143  33.065  26.485  13.448
52641W        W12144   2.273  42.807   2.413
52642W        W12145  42.806  44.966   1.867
52643W        W12146  42.838  12.765  14.993
52644W        W12147  30.978  36.989  14.514
52645W        W12148  13.677  17.171  10.582
52646W        W12149  12.186  11.278   1.745
52647W        W12150  10.173   3.370  11.553
52648W        W12151  30.543  12.792   1.330
52649W        W12152  21.111  39.949   2.735
52650W        W12153  42.456   0.459  12.024
52651W        W12154   1.368  17.167   4.267
52652W        W12155  43.287  41.298  13.905
52653W        W12156  43.516   6.833   0.774
52654W        W12157  28.602  20.714  12.866
52655W        W12158  35.449  39.467   0.376
52656W        W12159  36.017  30.965   3.811
52657W        W12160  43.777  10.822  12.992
52658W        W12161  38.545  26.103   1.855
52659W        W12162  26.980  33.907  14.876
52660W        W12163  41.379  22.213  12.499
52661W        W12164  36.434  12.647   2.401
52662W        W12165  24.228  37.346  13.546
52663W        W12166   5.424  36.896  13.410
52664W        W12167   6.898  34.418  10.622
52665W        W12168  28.527  42.947   3.370
52666W        W12169  33.432  23.057  10.949
52667W        W12170  35.032  31.079   4.156
52668W        W12171  38.917  17.090  10.145
52669W        W12172  27.569  11.827   4.753
52670W        W12173  39.507  32.067   1.236
52671W        W12174   2.854   3.394  12.087
52672W        W12175  10.343  41.043  12.035
52673W        W12176  22.724  16.730   0.423
52674W        W12177  25.647  34.588  12.939
52675W        W12178  24.995  17.269   2.770
52676W        W12179  27.482  35.569  10.909
52677W        W12180   1.304   5.918  12.022
52678W        W12181  23.625  20.713   3.181
52679W        W12182   0.457  23.601   4.812
52680W        W12183   6.804   1.903  10.625
52681W        W12184  21.512   1.361   5.191
52682W        W12185  10.738  44.889  12.342
52683W        W12186  32.029  26.140  14.479
52684W        W12187  27.133  24.606  14.007
52685W        W12188  20.707  44.491  12.474
52686W        W12189  11.713  11.637   1.328
52687W        W12190  41.801   8.400  14.803
52688W        W12191   9.312   8.225  11.993
52689W        W12192  31.601  36.965  10.513
52690W        W12193   4.272  10.287  13.402
52691W        W12194  36.096   0.329  13.061
52692W        W12195  21.659  28.171   3.192
52693W        W12196  27.585  42.990  11.920
52694W        W12197  35.910  14.818  10.560
52695W        W12198  19.214  22.096  12.836
52696W        W12199  22.647   5.243  11.883
52697W        W12200  22.627  23.150  13.464
52698W        W12201  35.471  23.190   0.829
52699W        W12202  39.437  10.723  14.017
52700W        W12203   5.887  38.456   1.418
52701W        W12204  21.580  18.225   3.254
52702W        W12205  25.684   0.442   4.709
52703W        W12206  20.756   3.322   1.279
52704W        W12207  32.025  23.104   3.639
52705W        W12208  19.701  19.734   1.410
52706W        W12209  18.050  28.087   0.407
52707W        W12210  35.501  39.485   2.276
52708W        W12211   4.905   3.247   1.400
52709W        W12212  39.465  15.670   5.268
52710W        W12213   8.391  32.005  10.052
52711W        W12214   3.294   7.762   2.800
52712W        W12215  35.931  42.989   4.707
52713W        W12216   5.772  40.048   4.626
52714W        W12217  34.031  24.174   4.341
52715W        W12218   0.775  18.702   2.263
52716W        W12219  25.604  31.524  13.922
52717W        W12220  38.351  11.326   4.343
52718W        W12221  37.933   4.875  14.781
52719W        W12222  21.253  31.620  12.511
52720W        W12223  44.470  27.547  11.969
52721W        W12224  20.041  42.360   4.800
52722W        W12225  28.936  37.431  13.458
52723W        W12226  15.144  36.389  10.979
52724W        W12227   0.855  34.490   2.192
52725W        W12228  36.046  32.132  10.906
52726W        W12229  40.326   8.738   2.358
52727W        W12230  32.960  16.146   3.831
52728W        W12231  43.472  15.283  11.967
52729W        W12232  38.340  34.974   0.345
52730W        W12233   8.866   8.736  11.891
52731W        W12234  19.756  35.575  10.460
52732W        W12235   6.716  13.319   2.677
52733W        W12236   9.381  38.032  11.951
52734W        W12237  27.940   8.164  10.616
52735W        W12238  30.454  41.808  14.844
52736W        W12239  13.618  25.213  13.026
52737W        W12240   6.305  21.563   4.149
52738W        W12241  41.828  29.577  13.961
52739W        W12242  43.441  28.962  11.413
52740W        W12243  22.511  21.592  14.780
52741W        W12244   1.907  38.346   0.964
52742W        W12245  39.480  34.923   4.688
52743W        W12246  29.927  12.651  13.910
52744W        W12247  13.144  32.446   0.837
52745W        W12248   6.421  27.612  12.957
52746W        W12249   8.860   9.724  13.909
52747W        W12250  31.074  13.319   2.764
52748W        W12251  32.931  33.508  12.365
52749W        W12252  10.258  39.382  11.439
52750W        W12253  25.028   2.759   0.285
52751W        W12254  29.002  38.525  14.482
52752W        W12255   2.868  31.136  14.949
52753W        W12256  26.579  14.756  11.384
52754W        W12257  15.651  15.812  13.026
52755W        W12258  44.433  43.889  12.352
52756W        W12259  23.588   7.344  11.493
52757W        W12260  23.595  15.214   4.819
52758W        W12261  31.437  18.751   0.408
52759W        W12262  22.073   8.765  13.035
52760W        W12263  13.746  19.732  11.929
52761W        W12264  34.462  35.399  12.875
52762W        W12265  39.973  42.502   3.331
52763W        W12266  39.031  43.912  12.941
52764W        W12267   7.807  41.905   4.695
52765W        W12268  32.425  20.722  13.339
52766W        W12269   1.431  44.300   4.836
52767W        W12270  11.664  29.487  14.855
52768W        W12271  19.258  15.657  11.124
52769W        W12272  27.181  11.636  13.817
52770W        W12273  38.915  37.083   1.930
52771W        W12274  17.209  34.941  11.100
52772W        W12275   8.273  25.543   4.151
52773W        W12276  25.585  12.315   2.335
52774W        W12277  31.150  19.534  11.962
52775W        W12278  40.370   2.431  13.892
52776W        W12279  27.190  43.012  13.821
52777W        W12280   4.339   5.203   3.772
52778W        W12281  17.727   5.328   2.347
52779W        W12282  13.242  39.404  11.089
52780W        W12283  30.973  25.708   3.302
52781W        W12284  35.048   1.360   3.868
52782W        W12285  41.295  12.267  11.514
52783W        W12286  41.503   7.828  12.055
52784W        W12287  33.406  44.457  14.768
52785W        W12288  14.720  39.427  13.018
52786W        W12289  25.683  37.574  13.381
52787W        W12290  35.443  42.875  12.409
52788W        W12291  17.241  25.200   2.728
52789W        W12292  28.126   2.938   4.758
52790W        W12293  18.285  21.677   0.375
52791W        W12294  19.181  32.411  14.961
52792W        W12295  36.009   5.302  14.434
52793W        W12296  12.236  43.514   2.288
52794W        W12297  11.787  42.807   9.956
52795W        W12298  18.777  42.020   0.738
52796W        W12299  31.952  12.284   2.357
52797W        W12300  14.128  34.461   1.372
52798W        W12301   3.435  21.108  10.915
52799W        W12302  13.125  30.111  13.368
52800W        W12303  40.923  10.742  12.506
52801W        W12304  41.507  43.796  14.432
52802W        W12305   4.422  21.054  12.957
52803W        W12306  43.447  18.200   3.366
52804W        W12307  32.056   1.292   1.332
52805W        W12308  10.683  34.059  13.423
52806W        W12309  24.607  42.883   4.788
52807W        W12310  27.132  30.975  14.813
52808W        W12311  31.528  44.356  10.597
52809W        W12312  20.180  24.600   0.338
52810W        W12313  27.055  35.002  14.418
52811W        W12314  21.709   1.816   2.385
52812W        W12315   7.811  15.174  12.864
52813W        W12316  40.883  44.905   4.310
52814W        W12317  17.777  19.183   2.374
52815W        W12318  30.477  10.772  10.942
52816W        W12319   6.687  42.004  10.485
52817W        W12320  24.228  16.756  10.056
52818W        W12321  16.779  29.575  11.904
52819W        W12322  11.786   8.738   4.707
52820W        W12323  20.658  21.104  12.426
52821W        W12324  30.629  32.470  14.929
52822W        W12325  20.097  43.782  11.913
52823W        W12326  10.333  24.193   2.401
52824W        W12327  37.492   5.237   4.240
52825W        W12328  23.137  34.606  14.818
52826W        W12329  21.646  21.230  12.833
52827W        W12330  40.434  16.615  11.037
52828W        W12331  37.965  20.664   0.896
52829W        W12332  38.982  32.133  14.959
52830W        W12333  39.392  39.376   1.396
52831W        W12334  10.346   2.843   4.145
52832W        W12335   4.349  14.618  14.316
52833W        W12336  35.433   8.840  11.978
52834W        W12337  20.738  41.016   0.400
52835W        W12338  37.499  16.112  12.564
52836W        W12339  20.544  11.734  12.977
52837W        W12340  31.496  29.639  11.499
52838W        W12341  15.167  35.938  11.999
52839W        W12342   3.902  41.467  13.432
52840W        W12343  35.971  27.049   3.867
52841W        W12344  43.809   3.427  10.958
52842W        W12345  27.993  35.524   2.242
52843W        W12346   2.378  36.933  14.978
52844W        W12347  41.339  40.354  11.048
52845W        W12348  32.564  13.282   1.315
52846W        W12349  36.567  12.659   5.188
52847W        W12350  24.672  29.625  12.438
52848W        W12351  21.237  42.924  12.510
52849W        W12352  34.002   0.949   3.711
52850W        W12353  32.967  36.969   0.371
52851W        W12354  14.101   7.397   2.734
52852W        W12355  30.934  29.932  13.054
52853W        W12356  11.192  12.332   3.863
52854W        W12357  23.588  34.557  10.515
52855W        W12358  12.736   3.403  10.469
52856W        W12359   3.730   6.896   2.791
52857W        W12360  18.560  32.132   5.091
52858W        W12361  28.585   8.672  11.102
52859W        W12362   0.319  40.467  14.366
52860W        W12363  40.377  39.394   1.901
52861W        W12364  21.149  36.364  12.924
52862W        W12365   0.364  40.838   4.797
52863W        W12366  35.417  11.623  13.851
52864W        W12367  40.968  12.330  10.472
52865W        W12368  31.093  24.171   1.281
52866W        W12369  27.683  37.074   3.652
52867W        W12370  16.750  17.677  13.378
52868W        W12371  21.259  34.392   5.290
52869W        W12372  31.412  19.183   1.738
52870W        W12373  22.218  20.538   2.715
52871W        W12374  33.489  21.705   0.840
52872W        W12375  21.204  43.010   3.820
52873W        W12376  16.705  20.565   4.701
52874W        W12377   9.320  17.304   2.864
52875W        W12378  30.578  12.119  12.008
52876W        W12379  23.540  13.808   0.785
52877W        W12380   8.788  34.415  11.550
52878W        W12381   3.230  27.556   9.622
52879W        W12382  33.494  33.028   1.748
52880W        W12383  33.481  28.678  14.375
52881W        W12384  16.621  15.119   4.350
52882W        W12385  38.850  21.542  11.489
52883W        W12386   2.817  18.235   4.191
52884W        W12387   8.696   9.321   2.798
52885W        W12388  39.010   6.296   3.386
52886W        W12389  36.558  28.013   2.770
52887W        W12390   6.765  35.056   2.330
52888W        W12391  38.457   8.690  14.001
52889W        W12392  16.690   1.879   2.313
52890W        W12393  14.313  22.637  14.758
52891W        W12394  36.842  33.528  14.793
52892W        W12395  15.772  40.329   3.653
52893W        W12396  41.005  21.720  12.442
52894W        W12397   4.888  38.936   3.696
52895W        W12398   2.424   5.886   4.216
52896W        W12399  23.065  12.656  11.865
52897W        W12400  23.637  31.032   2.745
52898W        W12401   0.882  26.456   1.310
52899W        W12402  26.029  27.104   3.665
52900W        W12403  27.986  20.563   2.763
52901W        W12404  12.136  12.170  12.970
52902W        W12405  13.265  31.099   3.263
52903W        W12406  33.059   1.817  11.459
52904W        W12407  14.262  35.043  13.448
52905W        W12408  32.472   5.894   3.870
52906W        W12409   7.199  17.770   0.909
52907W        W12410  36.914  28.556   4.251
52908W        W12411  35.535  13.659  14.500
52909W        W12412  15.144  10.782   2.834
52910W        W12413   5.860  21.692   2.858
52911W        W12414   9.201  23.193   1.428
52912W        W12415  35.066  15.799   2.661
52913W        W12416   2.870  39.917   2.681
52914W        W12417  23.706  38.000  10.555
52915W        W12418  38.886  30.950   0.842
52916W        W12419   1.284  11.816   1.340
52917W        W12420   1.898  37.426  12.891
52918W        W12421   2.314  10.768   2.798
52919W        W12422  14.334  31.951   3.673
52920W        W12423   1.252  36.939   2.399
52921W        W12424  25.047  14.206  12.825
52922W        W12425  11.673  18.215  14.340
52923W        W12426   4.342  31.597  11.984
52924W        W12427  35.101  43.443   3.781
52925W        W12428  38.326  44.998   3.850
52926W        W12429  11.830  35.913   2.252
52927W        W12430  36.929  12.183  12.452
52928W        W12431  36.491   8.193   1.369
52929W        W12432  30.447   7.879  13.414
52930W        W12433  30.619  18.106   3.338
52931W        W12434  21.567  13.790  11.573
52932W        W12435   5.855   4.210   3.357
52933W        W12436   7.209  22.644  13.339
52934W        W12437  29.947  21.515  11.967
52935W        W12438  24.540  35.575   4.166
52936W        W12439  17.781  17.284  11.440
52937W        W12440  17.626  42.425  12.579
52938W        W12441  43.909  38.976   3.743
52939W        W12442   3.339   0.818   5.092
52940W        W12443  42.910  27.961  12.997
52941W        W12444  33.919  21.578   3.362
52942W        W12445   0.488  16.229  14.808
52943W        W12446  16.288  26.681   4.696
52944W        W12447  27.613  13.677   4.135
52945W        W12448  29.994  23.103   3.362
52946W        W12449  15.302  21.215   3.739
52947W        W12450  16.165  39.018   0.941
52948W        W12451   7.336  12.165   0.780
52949W        W12452   2.418  11.304  12.518
52950W        W12453  26.539  33.530   5.113
52951W        W12454  13.177   0.955  13.047
52952W        W12455  17.125  28.030   3.803
52953W        W12456  31.599  16.280   4.246
52954W        W12457  22.510  43.769   1.316
52955W        W12458  26.054  35.039  12.830
52956W        W12459  20.128  21.041   5.266
52957W        W12460  15.198   6.428   2.743
52958W        W12461  31.617  34.046   4.242
52959W        W12462   7.182   1.804   0.469
52960W        W12463   3.261   4.701  11.955
52961W        W12464   9.702  17.165  11.894
52962W        W12465  32.948   2.739  12.067
52963W        W12466  16.624   4.305   0.745
52964W        W12467  27.057  19.575  11.858
52965W        W12468  14.310  32.589  11.468
52966W        W12469   7.780  43.493   4.265
52967W        W12470   3.733  35.033  11.475
52968W        W12471  42.982   0.384  10.898
52969W        W12472   3.289   6.361   1.316
52970W        W12473  18.060  41.879  13.808
52971W        W12474  20.632  18.685   2.396
52972W        W12475  16.647  19.272   0.896
52973W        W12476  31.121  33.987   3.198
52974W        W12477  26.023  26.518  13.038
52975W        W12478  41.810  38.374  10.447
52976W        W12479  42.884  29.003  14.355
52977W        W12480   0.810  21.744   2.271
52978W        W12481   8.373  30.628   3.688
52979W        W12482  19.658  39.438  12.495
52980W        W12483  44.305   6.798   4.279
52981W        W12484  11.316  42.973  11.901
52982W        W12485  13.752   8.743  13.984
52983W        W12486  11.776  29.974  12.045
52984W        W12487   8.257  44.801   1.706
52985W        W12488  28.018  35.956   1.725
52986W        W12489   4.392   4.341  11.080
52987W        W12490  17.729  42.915   4.294
52988W        W12491  41.420  17.172  10.489
52989W        W12492  14.204  23.060   4.291
52990W        W12493  13.296  40.822  11.981
52991W        W12494   5.254  28.061  12.395
52992W        W12495  31.130  33.545   1.389
52993W        W12496   0.956  20.636  12.393
52994W        W12497  15.298  36.965   4.636
52995W        W12498  33.518  25.999  13.863
52996W        W12499  25.208  36.879  12.993
52997W        W12500  38.935  14.192  14.334
52998W        W12501  17.718  29.050  13.329
52999W        W12502   3.896  21.087  14.348
53000W        W12503  35.051  17.220  10.900
53001W        W12504  20.237  25.474  11.585
53002W        W12505  14.648  21.055   4.700
53003W        W12506  23.539  37.961   0.902
53004W        W12507  23.202   1.395  14.396
53005W        W12508  32.038  36.391  13.322
53006W        W12509  26.052   6.913  12.894
53007W        W12510  27.086  18.085  13.535
53008W        W12511  40.384  10.768  10.509
53009W        W12512  29.031  12.824   5.149
53010W        W12513  29.448  42.007   0.795
53011W        W12514   0.250  17.150   3.834
53012W        W12515  12.854   9.356  12.458
53013W        W12516  24.632   5.345  12.394
53014W        W12517  44.299  34.957  10.995
53015W        W12518  42.983   6.307   5.247
53016W        W12519  26.065  32.134  14.402
53017W        W12520  25.196  42.947   0.800
53018W        W12521  17.063  38.401   4.175
53019W        W12522  10.170   3.316   9.960
53020W        W12523  21.568  36.479  11.059
53021W        W12524  16.746   8.724  14.795
53022W        W12525  13.266  17.752   0.302
53023W        W12526  26.120   4.789   2.669
53024W        W12527  11.343  11.269  10.981
53025W        W12528  30.111  25.689   1.210
53026W        W12529   5.275   2.966   0.294
53027W        W12530  11.802  41.459   1.850
53028W        W12531  30.124  10.144   2.848
53029W        W12532  11.206   1.354   3.653
53030W        W12533  33.987  44.332  11.597
53031W        W12534  43.963  10.780   1.895
53032W        W12535   7.795  10.866  12.397
53033W        W12536  29.606  40.886  11.492
53034W        W12537   9.310  29.003   1.900
53035W        W12538  35.974  27.549   0.856
53036W        W12539  12.307   1.911   4.231
53037W        W12540  37.889  27.072   0.734
53038W        W12541  41.876  12.817  14.813
53039W        W12542  23.070  34.959  11.924
53040W        W12543  42.917  37.372  12.997
53041W        W12544  28.663  29.151  14.013
53042W        W12545  32.999  18.789  11.415
53043W        W12546  18.055  20.593  11.901
53044W        W12547   1.269  32.007  12.834
53045W        W12548  39.036  18.081  10.008
53046W        W12549  17.292   0.254  12.906
53047W        W12550  11.829   8.191  14.334
53048W        W12551  12.300  20.230  11.118
53049W        W12552   0.751  23.647   2.888
53050W        W12553  13.161  43.019  10.011
53051W        W12554  13.105  26.485   5.104
53052W        W12555  39.325  27.025  14.423
53053W        W12556  38.005  31.559  12.082
53054W        W12557  10.225   0.471   2.729
53055W        W12558  10.878  15.287   0.799
53056W        W12559   8.796   0.393  13.450
53057W        W12560  41.953  38.054   3.192
53058W        W12561  42.909  37.420   4.674
53059W        W12562   3.287  25.608  14.767
53060W        W12563  25.648  43.363   4.237
53061W        W12564  37.380  18.674   0.965
53062W        W12565   8.795  44.481   2.382
53063W        W12566  44.981   4.242   0.323
53064W        W12567  33.911  34.041   3.301
53065W        W12568  33.928  44.350   1.906
53066W        W12569  32.515  16.675   5.640
53067W        W12570   2.465   7.859  14.457
53068W        W12571  23.050  11.797  14.288
53069W        W12572  17.202  11.273  10.541
53070W        W12573   6.401  25.708   1.839
53071W        W12574  29.528  32.926   0.896
53072W        W12575  28.010   4.843   1.923
53073W        W12576   2.252  25.471  11.118
53074W        W12577  44.950  24.177  14.504
53075W        W12578  23.526  27.187  11.124
53076W        W12579  33.481   2.457   0.936
53077W        W12580  34.057  42.928   1.321
53078W        W12581   2.450   0.867   4.691
53079W        W12582  32.543   6.239  14.911
53080W        W12583   0.849  21.246   3.804
53081W        W12584  22.522  27.124   3.312
53082W        W12585  39.008  29.079   3.742
53083W        W12586  39.334  17.255   3.747
53084W        W12587  34.946  25.660  11.508
53085W        W12588  34.442  42.879   2.664
53086W        W12589  31.040  40.809  10.951
53087W        W12590  40.005  24.228   3.165
53088W        W12591  37.566   9.198  14.501
53089W        W12592  34.552   4.249   1.266
53090W        W12593   6.390   1.325   3.868
53091W        W12594  16.786  42.939   3.364
53092W        W12595  25.205  19.550   3.231
53093W        W12596  38.899  19.544  12.367
53094W        W12597  32.549  44.491   2.799
53095W        W12598  32.095  20.688   4.245
53096W        W12599  23.068  15.685  10.005
53097W        W12600  28.536  30.414  12.522
53098W        W12601  25.627  19.606  14.844
53099W        W12602  21.543   9.852  10.933
53100W        W12603   5.274  35.091   1.307
53101W        W12604   4.314   3.378  11.425
53102W        W12605  22.502   7.263   4.326
53103W        W12606  24.680  29.998   4.716
53104W        W12607  22.153  33.020  14.497
53105W        W12608   7.295   8.734  13.336
53106W        W12609  15.129  28.945  12.824
53107W        W12610  43.904  32.912   4.239
53108W        W12611  23.693  29.668   3.706
53109W        W12612  33.485  30.989  12.375
53110W        W12613  31.070  18.138   3.632
53111W        W12614  34.068   8.390  14.451
53112W        W12615   5.898  37.494  12.347
53113W        W12616  18.739   4.804  14.928
53114W        W12617  17.770  24.534   1.724
53115W        W12618  34.109   6.755  12.848
53116W        W12619   1.263  36.577   4.705
53117W        W12620  13.109  32.584  12.396
53118W        W12621  34.421  20.257   0.950
53119W        W12622  34.371  38.846  12.863
53120W        W12623  22.129  22.687  13.969
53121W        W12624  39.558   3.838  13.874
53122W        W12625  16.614  26.677   2.778
53123W        W12626  35.890  35.991   0.406
53124W        W12627   2.304  12.688   3.265
53125W        W12628  42.433  41.357  14.275
53126W        W12629  44.763  42.492   3.216
53127W        W12630   8.758  40.305  11.927
53128W        W12631   9.194   2.789  10.443
53129W        W12632  32.972  16.225   5.786
53130W        W12633  20.643  16.300  13.841
53131W        W12634  37.448  12.815   4.209
53132W        W12635  42.990  41.824   0.844
53133W        W12636   0.363  36.427   1.920
53134W        W12637  10.679  31.939  13.041
53135W        W12638   5.878  34.022   1.232
53136W        W12639  38.359  26.001  11.970
53137W        W12640  43.950   4.450   4.634
53138W        W12641  44.979  11.270   1.927
53139W        W12642  40.836   5.212  14.794
53140W        W12643   1.350  37.534   0.284
53141W        W12644   8.199  17.612   2.212
53142W        W12645  23.025  12.664  13.335
53143W        W12646   1.747   0.789   2.242
53144W        W12647  18.211  20.620   2.358
53145W        W12648  22.521  36.909   4.140
53146W        W12649  40.323  44.456   0.950
53147W        W12650  27.105  33.060   1.284
53148W        W12651  38.511   1.828   2.900
53149W        W12652   0.913   0.772  14.787
53150W        W12653  17.272  17.100   1.922
53151W        W12654  31.077   4.812   5.172
53152W        W12655  14.806  25.067  14.483
53153W        W12656  41.392  37.457  10.587
53154W        W12657  44.884  28.985   1.374
53155W        W12658  40.416  43.413   4.668
53156W        W12659  26.190  17.121   2.882
53157W        W12660  15.149   9.713   2.836
53158W        W12661  41.839   7.334   0.276
53159W        W12662   0.830  10.340   5.173
53160W        W12663  29.037   2.873  12.093
53161W        W12664  36.573  33.073  10.554
53162W        W12665   1.921   2.902  12.561
53163W        W12666   4.732  40.834  14.839
53164W        W12667  32.595  20.208  10.464
53165W        W12668  10.231   3.367   0.426
53166W        W12669   3.740  40.885   2.234
53167W        W12670  16.235  24.174   4.324
53168W        W12671  13.324   7.175   4.124
53169W        W12672   5.744  36.057  14.815
53170W        W12673  29.105  10.275   2.371
53171W        W12674  29.448  24.973   2.283
53172W        W12675   2.892  24.186   2.331
53173W        W12676  41.435  28.492  13.796
53174W        W12677  11.306  35.557  14.030
53175W        W12678  20.559  43.793   4.329
53176W        W12679  40.935  13.622   4.260
53177W        W12680  12.773  11.700  11.943
53178W        W12681  17.117  30.544  12.944
53179W        W12682  34.520  33.525   3.291
53180W        W12683   4.302  31.411  13.312
53181W        W12684  27.131  44.845   4.262
53182W        W12685  44.334  11.750   3.691
53183W        W12686  34.901  44.494   4.302
53184W        W12687  27.499  33.909  10.614
53185W        W12688  40.040  23.621  11.588
53186W        W12689   6.274  40.838   3.700
53187W        W12690  26.609  18.061   2.415
53188W        W12691  11.198  33.991   2.408
53189W        W12692   7.200  18.068  11.435
53190W        W12693  26.080   4.845   2.406
53191W        W12694  36.065  17.205   2.688
53192W        W12695  14.614  15.288  10.618
53193W        W12696  29.459  12.641  14.834
53194W        W12697  14.613  20.226  12.027
53195W        W12698  11.804  41.806  10.438
53196W        W12699  10.714  36.589  13.013
53197W        W12700  10.795  22.127  13.454
53198W        W12701   4.259  24.118  14.832
53199W        W12702  38.975  36.393   3.268
53200W        W12703   6.189  28.660   1.444
53201W        W12704  18.165  13.269  12.901
53202W        W12705  39.337  10.641   2.811
53203W        W12706   5.398  24.010   3.276
53204W        W12707  23.040   5.316  10.496
53205W        W12708  33.482  29.112  11.952
53206W        W12709   7.323  33.126   0.798
53207W        W12710  37.884  22.196   0.380
53208W        W12711  24.225  11.217   2.672
53209W        W12712  28.032  13.112   9.611
53210W        W12713  31.545  23.229   2.773
53211W        W12714  26.607  26.689   0.437
53212W        W12715  40.433  22.095   1.739
53213W        W12716  13.685  17.780  13.411
53214W        W12717  34.528  14.238   3.360
53215W        W12718  30.987  39.006  13.484
53216W        W12719  38.477  40.915  10.959
53217W        W12720  23.078  38.931   1.366
53218W        W12721  42.441   8.338  14.304
53219W        W12722  12.624   3.880  13.939
53220W        W12723  38.905  20.081  12.850
53221W        W12724  22.045  12.758   1.401
53222W        W12725  14.694  25.524  11.499
53223W        W12726  11.850  29.509  11.890
53224W        W12727  23.110  34.544   3.708
53225W        W12728  42.527  21.145   4.227
53226W        W12729  24.560  42.946   1.836
53227W        W12730  42.929   4.373   4.622
53228W        W12731  16.692   2.810   1.856
53229W        W12732  21.236  23.212   1.238
53230W        W12733  19.631  18.294   3.832
53231W        W12734  15.311   2.412   3.664
53232W        W12735  27.596   3.869   1.880
53233W        W12736  18.242  21.064   1.875
53234W        W12737  17.164  37.944  11.479
53235W        W12738  18.252  11.305  12.852
53236W        W12739  23.121  13.188  12.396
53237W        W12740  23.564  30.039  13.851
53238W        W12741   4.248   5.746  10.607
53239W        W12742  40.495  24.694   2.671
53240W        W12743  38.981   9.824  12.416
53241W        W12744  40.868  29.641   1.355
53242W        W12745  30.538  20.059   3.729
53243W        W12746   4.427   1.307   0.752
53244W        W12747  26.072  18.586   3.862
53245W        W12748  19.080  44.463  12.340
53246W        W12749  19.679  26.504   5.317
53247W        W12750  15.750   1.802  10.560
53248W        W12751  23.091   6.921  13.540
53249W        W12752  15.247  29.031  10.611
53250W        W12753   5.291  41.797   4.660
53251W        W12754  41.015  32.016   4.752
53252W        W12755  39.981   0.302  14.817
53253W        W12756   0.253   5.899  11.883
53254W        W12757  42.936  11.181  14.030
53255W        W12758  28.453  31.107  13.966
53256W        W12759   4.938  29.124   0.442
53257W        W12760  19.124  39.537  14.423
53258W        W12761  37.881  39.977   0.370
53259W        W12762  10.695   2.358  11.565
53260W        W12763  12.679   9.795  10.463
53261W        W12764   0.347  20.743  13.534
53262W        W12765  25.063  42.992  11.979
53263W        W12766  41.972   3.301   2.261
53264W        W12767  26.615  22.096  13.495
53265W        W12768  33.611   9.150  13.532
53266W        W12769  32.427   5.795  10.469
53267W        W12770  34.925   1.326   0.356
53268W        W12771   4.905  38.957  13.017
53269W        W12772  11.667  14.645   0.376
53270W        W12773  41.856  30.574  12.427
53271W        W12774  39.891  23.241   0.747
53272W        W12775  32.126   5.360   2.199
53273W        W12776  12.728  42.356   4.730
53274W        W12777  30.555  39.433  11.871
53275W        W12778  40.497  29.594  10.922
53276W        W12779  25.636  41.304  14.877
53277W        W12780  27.154  26.131   2.772
53278W        W12781  19.167  26.971  13.987
53279W        W12782  27.563   5.888  13.400
53280W        W12783  15.165   3.814   2.683
53281W        W12784  36.038  18.095   2.667
53282W        W12785  44.351  11.361  14.946
53283W        W12786   3.860  35.854  11.423
53284W        W12787   9.306  14.217   3.375
53285W        W12788  41.858   8.901   1.822
53286W        W12789  35.371  27.010  13.449
53287W        W12790   1.349  26.565  13.468
53288W        W12791   4.829  37.451   2.811
53289W        W12792  24.054  22.228   0.766
53290W        W12793   4.433  25.607   1.303
53291W        W12794  34.937   0.844   4.166
53292W        W12795  22.077  28.475  13.975
53293W        W12796  20.179  15.647  11.573
53294W        W12797   1.749  41.856   4.732
53295W        W12798  33.074  41.455  11.016
53296W        W12799   3.342   9.252  11.981
53297W        W12800  43.845  29.611   4.139
53298W        W12801   1.949  23.541   1.714
53299W        W12802  18.682  33.626  10.503
53300W        W12803  32.913  44.402   1.868
53301W        W12804   4.943  12.263  13.839
53302W        W12805  30.520   7.285  11.056
53303W        W12806  35.854   1.378  11.559
53304W        W12807  22.234  39.967   1.813
53305W        W12808  15.602  31.643   4.339
53306W        W12809  38.851  41.837  13.946
53307W        W12810  11.695  38.884   4.747
53308W        W12811   0.929  32.053   5.185
53309W        W12812  34.417   5.305  13.473
53310W        W12813  12.117  26.033   1.810
53311W        W12814  21.119  11.233   0.764
53312W        W12815  39.472  11.781  12.937
53313W        W12816  42.402  39.952  14.015
53314W        W12817  26.131  19.229   4.662
53315W        W12818   7.805   9.274   0.420
53316W        W12819  25.553  33.393   2.756
53317W        W12820  27.552  39.853  10.633
53318W        W12821  39.456  16.276   0.929
53319W        W12822  41.514  29.161   2.761
53320W        W12823  15.196  40.339  13.882
53321W        W12824  33.404  16.214   0.866
53322W        W12825  41.352   8.292  13.518
53323W        W12826  32.571   0.468   3.339
53324W        W12827  40.528  24.631  13.829
53325W        W12828   1.424  34.098  14.824
53326W        W12829  16.700  27.651   3.644
53327W        W12830  22.659  13.107   1.784
53328W        W12831  35.990   5.261  10.983
53329W        W12832  23.130   6.765   1.747
53330W        W12833  10.849  11.291   4.626
53331W        W12834   1.875  34.906  11.110
53332W        W12835  39.058  26.512   1.932
53333W        W12836  13.132  33.467  12.899
53334W        W12837  42.394  17.164   0.805
53335W        W12838  29.481  39.526   2.250
53336W        W12839  20.142  13.142  14.279
53337W        W12840  10.248  26.028  10.487
53338W        W12841   0.920  28.447  13.534
53339W        W12842   0.983  41.436   1.891
53340W        W12843  28.647   5.203  11.986
53341W        W12844  25.489   4.867   1.227
53342W        W12845   6.895   5.932   4.317
53343W        W12846  20.529  17.147   1.718
53344W        W12847  22.133   0.861  11.914
53345W        W12848  30.026  32.132  12.885
53346W        W12849  42.289   7.245  12.844
53347W        W12850  16.574  17.127  12.446
53348W        W12851  20.733  14.777   4.162
53349W        W12852   9.691  36.852  11.591
53350W        W12853  38.071  11.671  10.439
53351W        W12854  40.997  26.545  10.965
53352W        W12855   3.917  13.235  10.456
53353W        W12856   8.672  33.878  11.389
53354W        W12857   9.381  40.947   3.747
53355W        W12858  11.839  38.512   4.773
53356W        W12859  23.004  32.581  13.371
53357W        W12860  38.435   8.273  13.936
53358W        W12861  13.191   0.828  11.475
53359W        W12862  34.431  23.069  10.438
53360W        W12863  17.172   3.729   4.348
53361W        W12864  19.186  40.006  13.434
53362W        W12865  31.581  32.541  11.610
53363W        W12866  40.513   6.730   2.345
53364W        W12867  21.750   0.929  11.955
53365W        W12868  13.234  43.820   2.384
53366W        W12869  27.683  37.541   4.712
53367W        W12870  29.600  41.347   3.695
53368W        W12871   9.868  44.357  13.389
53369W        W12872  44.942  44.432  13.849
53370W        W12873  39.915  21.629   2.298
53371W        W12874  14.758   2.952  12.429
53372W        W12875   0.898  10.225  10.519
53373W        W12876  42.869  33.478   3.268
53374W        W12877   8.833  44.877  13.885
53375W        W12878  41.902  42.864   4.621
53376W        W12879  22.130   0.822   9.445
53377W        W12880  17.142  41.900   3.377
53378W        W12881   9.164   0.415   2.834
53379W        W12882  44.363   9.821  11.005
53380W        W12883  13.628  31.428   5.236
53381W        W12884  14.103  31.624   3.371
53382W        W12885  14.723  26.040   4.210
53383W        W12886  33.924  39.503   1.927
53384W        W12887  26.619  33.497  11.515
53385W        W12888   4.335  12.650   3.290
53386W        W12889  34.049  35.479   0.445
53387W        W12890  20.764  31.512   1.806
53388W        W12891  27.985  42.449   4.819
53389W        W12892  37.078  39.887  11.419
53390W        W12893  38.023  20.222  12.847
53391W        W12894  20.564  27.985   4.828
53392W        W12895  31.573   2.823   0.445
53393W        W12896  12.168  34.613  11.506
53394W        W12897  19.572  31.407  11.971
53395W        W12898  19.121  15.251   3.822
53396W        W12899  41.365   2.801   0.290
53397W        W12900  22.212  34.591  12.548
53398W        W12901  37.870  10.651  11.929
53399W        W12902   5.333   9.376  14.305
53400W        W12903  32.006  29.592  14.947
53401W        W12904   5.761  25.095   2.265
53402W        W12905  41.820  26.182   3.640
53403W        W12906  31.129   5.932   4.177
53404W        W12907   5.315  39.465  10.628
53405W        W12908   4.435  39.441  12.340
53406W        W12909  21.679  41.480   4.793
53407W        W12910  12.332  33.482   2.804
53408W        W12911  19.052  35.492  10.429
53409W        W12912  30.134  21.585  14.805
53410W        W12913  19.557  44.863  12.554
53411W        W12914  27.075   7.900  11.056
53412W        W12915  13.794  17.596  14.009
53413W        W12916  14.137  37.854  14.923
53414W        W12917  25.170   8.354   3.846
53415W        W12918   5.809  10.337  10.547
53416W        W12919  26.127  27.110  10.920
53417W        W12920  34.982  30.996   3.212
53418W        W12921  39.360  15.728   2.856
53419W        W12922  35.090  11.843   1.748
53420W        W12923  44.955  42.298  11.087
53421W        W12924  34.380  15.608  13.829
53422W        W12925  32.482   3.808  14.983
53423W        W12926  26.481  21.669   4.755
53424W        W12927  28.981   7.304  10.934
53425W        W12928   0.396  34.527  13.334
53426W        W12929  28.631  18.569   3.766
53427W        W12930  38.878  26.982  12.374
53428W        W12931  16.724  35.852  14.335
53429W        W12932  24.974  16.132   3.278
53430W        W12933  34.925  42.934   2.417
53431W        W12934  20.091  29.941  11.496
53432W        W12935   2.773  41.294  11.552
53433W        W12936  37.019   0.322   1.838
53434W        W12937  39.389   5.738  12.357
53435W        W12938  21.022  38.020   2.233
53436W        W12939  37.520  39.968  12.065
53437W        W12940   7.803  18.626   4.810
53438W        W12941  27.962  33.888   3.834
53439W        W12942   3.330   2.836   5.147
53440W        W12943  24.568  11.331  11.453
53441W        W12944  27.958  17.783   2.394
53442W        W12945  34.059  26.121  12.539
53443W        W12946  17.220  41.490   3.641
53444W        W12947  37.065  28.122   0.301
53445W        W12948  30.069  18.727   4.184
53446W        W12949   7.747  25.215  12.851
53447W        W12950   9.736  18.592  13.928
53448W        W12951  12.761  30.545   4.750
53449W        W12952  39.550  14.658  13.907
53450W        W12953   8.819  14.189  11.526
53451W        W12954  24.599  12.148  11.878
53452W        W12955  17.151  21.550  10.612
53453W        W12956  11.779  18.256   4.305
53454W        W12957  41.367  35.039  11.962
53455W        W12958  37.020   1.356  11.982
53456W        W12959  34.029  30.578  11.425
53457W        W12960   2.815  38.945   0.872
53458W        W12961  10.655  20.258  11.396
53459W        W12962  37.398  35.100   4.250
53460W        W12963  33.471   9.203   3.835
53461W        W12964   0.446   3.773  11.045
53462W        W12965  24.099  30.048   2.242
53463W        W12966  21.591  12.747  13.840
53464W        W12967  35.366  34.543  14.322
53465W        W12968  23.020  39.486  11.855
53466W        W12969   9.359  35.426  14.321
53467W        W12970  21.086  35.473   2.722
53468W        W12971   9.359  29.110   1.326
53469W        W12972  15.622   4.238   9.991
53470W        W12973  13.122  26.590   1.816
53471W        W12974  40.449  12.624   1.922
53472W        W12975  28.138  14.829  12.866
53473W        W12976  15.799  31.957  14.988
53474W        W12977  39.486  27.511   0.412
53475W        W12978   8.787  35.447  10.979
53476W        W12979  21.138  17.593  14.433
53477W        W12980  29.559  13.272   2.745
53478W        W12981   2.305  23.724   1.305
53479W        W12982  36.023  18.787  13.903
53480W        W12983  37.564  39.533   2.397
53481W        W12984   1.365  30.416   2.684
53482W        W12985  15.194  19.636   1.796
53483W        W12986   7.399  19.204   4.113
53484W        W12987  33.442  22.585  14.848
53485W        W12988   5.887  29.035   4.681
53486W        W12989  23.233  44.503  11.870
53487W        W12990  39.972  43.510   2.242
53488W        W12991  19.190   4.298  11.889
53489W        W12992  35.544   1.311   4.343
53490W        W12993  30.501  15.310  11.473
53491W        W12994  16.656  10.205  13.972
53492W        W12995   6.333   9.374  12.908
53493W        W12996  26.108   8.223  11.453
53494W        W12997  19.242  40.824  14.499
53495W        W12998   2.892   0.799  12.544
53496W        W12999   5.313  39.008  13.846
53497W        W13000  44.276   5.734  14.881
53498W        W13001  25.991  18.281   1.261
53499W        W13002  39.329   8.867  13.360
53500W        W13003  12.327  27.538  10.972
53501W        W13004  36.919  30.912   2.252
53502W        W13005  31.648  23.129   0.841
53503W        W13006  30.527  41.317   2.769
53504W        W13007  26.997  17.568   0.397
53505W        W13008  18.122   2.862   1.309
53506W        W13009   3.953  24.487  10.944
53507W        W13010  31.640  36.497   3.274
53508W        W13011  14.201   9.875  12.449
53509W        W13012  34.956  19.165   3.150
53510W        W13013  31.618  40.365  13.851
53511W        W13014   4.247  27.992   5.275
53512W        W13015  16.201  41.410  14.826
53513W        W13016  13.242   1.922   4.206
53514W        W13017  26.136  22.049  11.427
53515W        W13018  26.194  23.996   4.155
53516W        W13019  26.017  21.065  11.898
53517W        W13020   5.267  43.287  13.793
53518W        W13021  36.551  22.089   2.667
53519W        W13022  39.887   6.260  11.453
53520W        W13023  35.548  36.037  13.360
53521W        W13024  39.525  43.433  14.275
53522W        W13025  18.102   0.804   4.197
53523W        W13026   0.956  25.497  14.462
53524W        W13027  44.970  19.775   0.302
53525W        W13028  42.960  16.205   0.880
53526W        W13029   7.189  26.129  10.888
53527W        W13030   5.358  19.042   1.775
53528W        W13031  35.083  23.584  10.063
53529W        W13032  32.948   5.222   0.378
53530W        W13033  22.214  31.514  13.004
53531W        W13034  24.534  11.677   4.207
53532W        W13035  32.391  10.700   1.795
53533W        W13036   8.401  32.440  14.991
53534W        W13037  35.380  22.036  14.931
53535W        W13038  30.973  13.150   3.652
53536W        W13039  13.744   2.373   3.801
53537W        W13040  42.907  29.585  12.522
53538W        W13041  26.654  17.731   5.265
53539W        W13042  15.189  19.770   0.376
53540W        W13043  24.531  28.050  10.901
53541W        W13044  15.691  15.594  12.411
53542W        W13045  16.080   8.329   1.925
53543W        W13046   8.827  40.025   2.388
53544W        W13047  17.758  10.801  12.091
53545W        W13048  27.501  41.466   3.351
53546W        W13049   7.675   4.286   4.743
53547W        W13050  34.009   9.779   1.763
53548W        W13051  36.029  17.216   0.436
53549W        W13052  44.858  12.708  14.350
53550W        W13053   5.723   4.821  14.761
53551W        W13054  35.919  20.246   4.269
53552W        W13055   8.302  15.701  14.286
53553W        W13056   0.383  26.186  13.454
53554W        W13057  14.794  36.460   0.458
53555W        W13058   3.951  40.485  13.993
53556W        W13059  43.959   4.314  14.471
53557W        W13060  26.147  36.973  14.470
53558W        W13061  40.991  38.851  11.421
53559W        W13062  22.737   0.964  13.439
53560W        W13063   1.472   1.907   4.134
53561W        W13064   5.256  38.369   3.262
53562W        W13065  26.657   6.343  10.495
53563W        W13066  34.930  44.758  13.036
53564W        W13067  44.330  17.570   3.866
53565W        W13068  24.593  35.561   2.301
53566W        W13069  28.573  25.185  14.498
53567W        W13070  15.637   0.414   0.304
53568W        W13071  28.180   7.172  14.019
53569W        W13072  28.478  37.381   0.246
53570W        W13073  36.067   2.945  10.920
53571W        W13074  38.407   1.271   2.811
53572W        W13075  27.112  31.138   0.283
53573W        W13076  20.740  25.052   0.763
53574W        W13077  14.137  29.641  12.538
53575W        W13078  11.693  25.197  12.920
53576W        W13079  15.646  33.065  13.960
53577W        W13080  12.772  35.073  14.843
53578W        W13081  15.257  44.812  11.382
53579W        W13082   8.381   7.683   2.242
53580W        W13083  12.682  39.511  11.523
53581W        W13084  39.840   3.298   4.301
53582W        W13085  11.714  41.383   0.265
53583W        W13086  40.380   3.379  11.552
53584W        W13087   2.359   0.776  13.983
53585W        W13088  40.417   3.255  14.478
53586W        W13089   8.349   3.925  12.020
53587W        W13090   4.909  37.978   4.291
53588W        W13091  12.211  28.506  11.462
53589W        W13092  36.556  26.576   4.171
53590W        W13093  30.154  20.655   0.394
53591W        W13094   5.889  35.412   0.416
53592W        W13095  31.140  34.917   9.532
53593W        W13096   5.727  17.555   2.184
53594W        W13097  20.683   6.377   0.921
53595W        W13098  28.550  30.073   4.697
53596W        W13099  32.024  19.708   4.249
53597W        W13100  11.187  15.771  13.975
53598W        W13101   6.747  42.948  14.327
53599W        W13102   0.339  38.932   0.349
53600W        W13103  10.696  16.798  14.910
53601W        W13104  42.447   8.825  13.804
53602W        W13105  36.073  26.690  12.854
53603W        W13106   9.208  18.110  13.367
53604W        W13107   2.464  18.085   0.967
53605W        W13108   5.911  22.524   3.796
53606W        W13109  42.344  16.119  13.845
53607W        W13110  33.484   4.901   2.891
53608W        W13111   5.788  24.990  10.529
53609W        W13112  31.523  12.854   0.470
53610W        W13113  11.772   3.814  13.062
53611W        W13114  20.604   6.274   1.848
53612W        W13115   0.955  40.479  13.849
53613W        W13116  23.116   5.783   2.400
53614W        W13117  21.182   7.691  12.068
53615W        W13118  44.455  34.920   5.149
53616W        W13119  32.433  11.133  12.385
53617W        W13120  42.328  41.492   0.740
53618W        W13121  42.848  27.047   5.210
53619W        W13122  36.430   0.470   0.791
53620W        W13123   4.784   1.377   1.349
53621W        W13124  14.737   7.723  14.315
53622W        W13125   7.336  35.505   2.384
53623W        W13126  22.584  15.775   1.771
53624W        W13127   7.864   2.453  14.493
53625W        W13128  13.809   0.390  13.064
53626W        W13129  22.674   7.906  10.900
53627W        W13130  15.322  27.970   2.808
53628W        W13131  38.526  21.105   1.762
53629W        W13132   5.250  30.084   0.908
53630W        W13133  33.619  14.703  12.889
53631W        W13134  10.860  10.721   0.389
53632W        W13135  14.610  39.021   0.276
53633W        W13136  44.842  18.073   3.307
53634W        W13137   0.765  34.427  11.880
53635W        W13138  42.799   4.383   3.690
53636W        W13139   6.808   8.162  13.391
53637W        W13140   3.935  14.695   2.369
53638W        W13141  43.941   7.701   1.890
53639W        W13142  29.505  41.294  14.895
53640W        W13143  38.044   1.438   0.307
53641W        W13144  41.476  17.756  13.947
53642W        W13145  26.980   4.298   0.432
53643W        W13146  37.852   9.739   0.263
53644W        W13147  34.370  17.093   3.331
53645W        W13148  20.267   3.877  11.469
53646W        W13149   5.916  23.545  14.901
53647W        W13150  24.713  39.476   4.650
53648W        W13151  10.267  42.863  10.572
53649W        W13152  35.506  42.361   1.826
53650W        W13153  34.491  28.643  10.558
53651W        W13154  17.604  44.405  11.904
53652W        W13155  36.861  23.539   4.278
53653W        W13156   5.924  44.494   0.846
53654W        W13157   4.726  18.277   3.791
53655W        W13158  34.430  27.458  13.928
53656W        W13159  36.513  41.978   1.805
53657W        W13160  40.004  18.663   4.204
53658W        W13161   3.424  13.130  12.087
53659W        W13162  20.688   9.805   1.370
53660W        W13163  43.287  35.921  10.972
53661W        W13164  14.246  37.438   5.295
53662W        W13165  22.723  15.257  10.483
53663W        W13166  32.087  13.723  12.373
53664W        W13167  11.310  39.056   4.165
53665W        W13168   1.789  28.991  10.982
53666W        W13169  32.937  34.451  11.408
53667W        W13170  26.970   4.713  11.055
53668W        W13171   4.208  15.289   2.769
53669W        W13172  41.490   7.307   5.113
53670W        W13173  18.633  41.524  12.826
53671W        W13174  25.546  31.021   4.120
53672W        W13175   0.834  33.593   2.677
53673W        W13176  14.283  33.082   2.377
53674W        W13177   4.942  19.166  10.059
53675W        W13178  26.652  44.864  11.377
53676W        W13179  17.743  19.546   2.227
53677W        W13180  41.869  44.485  14.850
53678W        W13181  12.809  33.555  10.016
53679W        W13182  36.948  42.941   3.790
53680W        W13183  19.194  28.964   4.290
53681W        W13184  42.280  11.633   2.388
53682W        W13185  38.843   9.742  10.601
53683W        W13186  15.146   5.710  14.907
53684W        W13187   8.176  19.077  10.577
53685W        W13188  32.453  20.133   4.783
53686W        W13189  18.635  30.502   2.262
53687W        W13190  23.016  15.658  11.543
53688W        W13191  13.273  18.757   5.268
53689W        W13192  42.505  42.788   0.737
53690W        W13193  17.715   7.876   3.201
53691W        W13194  34.488  32.429  11.022
53692W        W13195   3.366  31.910   1.434
53693W        W13196  32.479   8.678   0.411
53694W        W13197  38.531  10.687  11.958
53695W        W13198  25.588  36.586  14.291
53696W        W13199  25.565  39.812  13.062
53697W        W13200  13.286  37.878  10.543
53698W        W13201  20.242  26.072   3.772
53699W        W13202   3.240  19.242  11.109
53700W        W13203  14.745  32.477  14.848
53701W        W13204  26.953  17.634  12.565
53702W        W13205  24.064  11.822  14.894
53703W        W13206  44.333   4.346   5.134
53704W        W13207  32.976   9.812  10.473
53705W        W13208  11.370  41.466   0.448
53706W        W13209  44.428   9.749  10.544
53707W        W13210   4.378  42.451  12.940
53708W        W13211   3.288  19.535  13.346
53709W        W13212  30.436  29.009   5.180
53710W        W13213   8.769  31.137  14.395
53711W        W13214  21.178  26.618  10.609
53712W        W13215  23.125  23.649   2.303
53713W        W13216   0.864  41.371  14.507
53714W        W13217   2.848   4.232  13.926
53715W        W13218  24.717   8.799   4.225
53716W        W13219   1.352  26.056   4.644
53717W        W13220  21.532  28.129  10.909
53718W        W13221  10.171   0.917   2.866
53719W        W13222  27.135  44.948   3.227
53720W        W13223   8.682  34.559   4.245
53721W        W13224   6.293  19.271  14.424
53722W        W13225  22.663  14.652   0.393
53723W        W13226  31.636  32.437  14.275
53724W        W13227  33.414  16.716   2.827
53725W        W13228  16.107  27.065  13.344
53726W        W13229  24.098   3.321  14.971
53727W        W13230  36.526  37.984   4.788
53728W        W13231  20.702  35.490  12.418
53729W        W13232  12.359  30.000  11.974
53730W        W13233  13.204  10.705  11.994
53731W        W13234  22.204  15.782  13.485
53732W        W13235  11.220   3.420  10.090
53733W        W13236  27.022  30.537   2.723
53734W        W13237  13.779  23.640   2.374
53735W        W13238  22.154  28.618   3.366
53736W        W13239   9.691   7.666   0.933
53737W        W13240   7.345  33.892   2.832
53738W        W13241  10.781   7.225   4.221
53739W        W13242  32.432  34.937   0.952
53740W        W13243  40.323  22.176  11.429
53741W        W13244   4.278  25.521  11.034
53742W        W13245  14.240  24.531  14.848
53743W        W13246  41.325  40.005  10.488
53744W        W13247  41.937  24.121   2.287
53745W        W13248  34.555  32.966   0.779
53746W        W13249  14.737   2.815   3.312
53747W        W13250  32.135  11.824  12.966
53748W        W13251  20.258  41.483   1.247
53749W        W13252  19.214  32.484   1.389
53750W        W13253  31.980  40.952  14.451
53751W        W13254  30.537  10.215  12.961
53752W        W13255  36.088  32.022   0.349
53753W        W13256  19.540  37.372  10.631
53754W        W13257  33.428  42.438  13.537
53755W        W13258  30.005  18.549  11.872
53756W        W13259  19.575   2.745   0.793
53757W        W13260   9.211   1.976  10.939
53758W        W13261  18.639   9.251   4.736
53759W        W13262  15.164   4.448  12.862
53760W        W13263   5.905  17.560  12.471
53761W        W13264  41.901  28.095   1.212
53762W        W13265  12.765   0.387   4.217
53763W        W13266  39.949  19.182  11.081
53764W        W13267  36.045  36.511   4.355
53765W        W13268  36.532   1.379   3.724
53766W        W13269  32.065  42.776   3.806
53767W        W13270  26.992  17.069   1.834
53768W        W13271  19.562  40.995  11.390
53769W        W13272  24.690  34.550   3.171
53770W        W13273  11.645  37.865   2.219
53771W        W13274  21.547  12.226   1.362
53772W        W13275  21.232  42.015   3.209
53773W        W13276   4.407  11.151   1.757
53774W        W13277  17.204  11.840  12.893
53775W        W13278   0.466  31.940  10.931
53776W        W13279  11.348  16.114  12.837
53777W        W13280  24.640   6.701   4.153
53778W        W13281  11.861  31.457   1.918
53779W        W13282  17.221  13.159   5.226
53780W        W13283  30.918  27.464  14.329
53781W        W13284  39.448   2.826  13.899
53782W        W13285   7.801  34.964   2.831
53783W        W13286  16.595  38.017  13.493
53784W        W13287  20.644  25.208   0.345
53785W        W13288  29.593   8.286  11.549
53786W        W13289  40.970  15.262   2.664
53787W        W13290  33.030  25.185   5.157
53788W        W13291   9.687  11.755  14.512
53789W        W13292  23.163  16.170  10.502
53790W        W13293   5.271  10.190   3.314
53791W        W13294  41.968  15.735  11.949
53792W        W13295  26.961  18.290  10.416
53793W        W13296  34.582  13.771  14.334
53794W        W13297  17.707  35.452   4.353
53795W        W13298  29.158  36.946  10.081
53796W        W13299  25.992  38.843  11.055
53797W        W13300  43.370  36.501  13.973
53798W        W13301  40.841  38.047   4.306
53799W        W13302  33.896  10.738  12.835
53800W        W13303  36.958  11.132  12.452
53801W        W13304   0.810  10.257   3.283
53802W        W13305   2.437   7.701   2.312
53803W        W13306  21.756  37.442  14.855
53804W        W13307  39.048  18.744  12.904
53805W        W13308  39.482  32.950  14.946
53806W        W13309  28.112   5.263  12.964
53807W        W13310   5.832  33.442   2.865
53808W        W13311  19.090  15.610   3.768
53809W        W13312   7.668  40.431  12.057
53810W        W13313  35.915  30.972  13.469
53811W        W13314  32.615  12.123   3.181
53812W        W13315   1.414  17.270  11.108
53813W        W13316   5.880  16.104   0.780
53814W        W13317  41.432   5.201  13.992
53815W        W13318  42.909   3.924   4.352
53816W        W13319  31.897  18.651   4.328
53817W        W13320  39.359   1.365  14.391
53818W        W13321  38.922  24.589   1.700
53819W        W13322  11.812  30.427  11.453
53820W        W13323  12.301  19.188   0.360
53821W        W13324  41.803   1.301   1.396
53822W        W13325  33.622  30.931   0.769
53823W        W13326  38.513   0.864   3.240
53824W        W13327   1.842   3.238   2.405
53825W        W13328  34.393   7.394   1.796
53826W        W13329  40.902  36.455   4.837
53827W        W13330  43.792  44.891  11.400
53828W        W13331  44.460  23.682   3.367
53829W        W13332   4.416  32.982   4.619
53830W        W13333  29.612  39.395   9.649
53831W        W13334  42.379  36.571   0.909
53832W        W13335   3.456  21.539  12.512
53833W        W13336  21.113  35.426  11.609
53834W        W13337  20.670  23.146  11.891
53835W        W13338  38.481  30.067  14.375
53836W        W13339  40.933   8.255  14.015
53837W        W13340  32.518   7.314   1.394
53838W        W13341  42.500  37.952   1.422
53839W        W13342  31.127  14.668  12.454
53840W        W13343   3.719  21.633  13.965
53841W        W13344   2.755  17.724  13.530
53842W        W13345  44.269  25.710   2.863
53843W        W13346  43.362  42.839  13.506
53844W        W13347   9.218  19.594   1.325
53845W        W13348  29.985  40.461  12.517
53846W        W13349   5.388  15.792   3.241
53847W        W13350   6.787   0.873  13.464
53848W        W13351   1.967  39.373   3.743
53849W        W13352  26.193  41.508  14.930
53850W        W13353  44.354  30.511  13.527
53851W        W13354  43.786   8.186   2.238
53852W        W13355  18.639  31.413   0.912
53853W        W13356  36.575  23.638  12.931
53854W        W13357  40.422   2.894  11.088
53855W        W13358  34.002  22.723  14.370
53856W        W13359  29.518  32.535  13.349
53857W        W13360  30.972  35.462  14.967
53858W        W13361  23.240   5.768  10.514
53859W        W13362  12.128  14.677   0.858
53860W        W13363  11.302  17.229  12.838
53861W        W13364  43.829  35.593  13.027
53862W        W13365   0.395  20.736   2.181
53863W        W13366   9.224  43.392  14.027
53864W        W13367  42.937  23.002  11.125
53865W        W13368   7.881  38.852   1.224
53866W        W13369  40.861  23.020  10.984
53867W        W13370  16.234   3.913  12.919
53868W        W13371  41.338  33.965   2.244
53869W        W13372  15.308  10.259   1.241
53870W        W13373   1.967   0.294   4.147
53871W        W13374  23.099  15.592   4.824
53872W        W13375   1.240  36.858   3.781
53873W        W13376  19.285  18.294   1.339
53874W        W13377  36.415   6.350   0.727
53875W        W13378  34.029   4.835  12.893
53876W        W13379  42.022  13.128  13.908
53877W        W13380   0.338   2.782   1.739
53878W        W13381  38.412  41.430  12.926
53879W        W13382  11.159  28.006  12.462
53880W        W13383  19.060  17.756   3.724
53881W        W13384  42.357  24.581  11.973
53882W        W13385   3.290  39.559   4.694
53883W        W13386  27.002  11.633   3.187
53884W        W13387   6.859   5.823  14.798
53885W        W13388   9.167   6.213   0.886
53886W        W13389   4.706  16.681   5.082
53887W        W13390  34.956  29.928   3.217
53888W        W13391  20.729  25.082   2.817
53889W        W13392   6.816  32.931   1.743
53890W        W13393  44.905   8.254  12.998
53891W        W13394  17.800  16.139   3.293
53892W        W13395   2.311  36.430  12.454
53893W        W13396  26.151  37.414   5.135
53894W        W13397  16.684  10.279   2.222
53895W        W13398   7.693  11.330   1.449
53896W        W13399  40.416  37.417   1.312
53897W        W13400   5.772   7.372  14.770
53898W        W13401  15.646  34.500   3.845
53899W        W13402  37.062  37.954  11.465
53900W        W13403   6.401  30.062   4.296
53901W        W13404  12.815  24.540   3.206
53902W        W13405  16.073  40.457  11.960
53903W        W13406  32.900  24.595   5.125
53904W        W13407  34.529  24.228   4.249
53905W        W13408  37.446  32.550  10.993
53906W        W13409   9.653   7.211   2.683
53907W        W13410   8.676  40.906   3.851
53908W        W13411  30.508  22.728  10.503
53909W        W13412  35.954   1.439   2.683
53910W        W13413  32.517  12.260  13.975
53911W        W13414  40.811   6.221   0.792
53912W        W13415  13.256  35.981  14.032
53913W        W13416  38.059  43.820  10.428
53914W        W13417  37.399  11.792  14.450
53915W        W13418  24.975   6.836  11.111
53916W        W13419  26.106  22.720  11.876
53917W        W13420  43.935  31.458   3.356
53918W        W13421   0.494  16.623   9.472
53919W        W13422   2.752  39.998   2.327
53920W        W13423   6.709  16.755   2.816
53921W        W13424  38.011  19.694   5.203
53922W        W13425  30.649  16.705   2.783
53923W        W13426  23.541  20.170  10.463
53924W        W13427  26.569  19.225  13.381
53925W        W13428  21.534  31.974  13.450
53926W        W13429  19.756  34.559  11.930
53927W        W13430   6.906   8.369  10.438
53928W        W13431  14.165  17.236   3.183
53929W        W13432  22.011  39.892   0.308
53930W        W13433  36.585   3.262  13.932
53931W        W13434  20.238  20.713  14.444
53932W        W13435  33.528  42.899  12.382
53933W        W13436  39.970  37.457   2.836
53934W        W13437  34.867  24.566   2.808
53935W        W13438  13.823   9.730  12.032
53936W        W13439   3.298  27.097  14.762
53937W        W13440  26.609  39.388  12.509
53938W        W13441  39.893  16.163  11.484
53939W        W13442   9.681  33.445  10.450
53940W        W13443   8.186  36.432  10.617
53941W        W13444  33.084  41.958  11.448
53942W        W13445   5.263   1.297   5.099
53943W        W13446  39.861  44.848   3.740
53944W        W13447  19.080  25.616   3.732
53945W        W13448  41.320   0.274  14.347
53946W        W13449   9.766  44.488  14.358
53947W        W13450   5.855  11.775  12.384
53948W        W13451  39.828  38.511  11.963
53949W        W13452  22.039  18.065  14.842
53950W        W13453  21.532  13.107  13.534
53951W        W13454  19.281  29.933  10.639
53952W        W13455  26.539  20.582  12.370
53953W        W13456   5.822  44.820  10.564
53954W        W13457  40.382  16.720   3.155
53955W        W13458  17.683   1.944  13.832
53956W        W13459  11.681  18.149  10.991
53957W        W13460   7.341   4.785   1.330
53958W        W13461  20.076   1.881  12.095
53959W        W13462  40.834  25.109  12.490
53960W        W13463  35.010  21.713  13.923
53961W        W13464   6.713   4.736   4.182
53962W        W13465  27.073  16.623   2.187
53963W        W13466  28.593  27.000   2.764
53964W        W13467  32.579  21.216  10.039
53965W        W13468  23.236  40.814  12.894
53966W        W13469  35.087  41.003  11.387
53967W        W13470   8.405  28.087  10.961
53968W        W13471   7.783  21.215   1.725
53969W        W13472  14.163   4.854  12.480
53970W        W13473  43.341  28.173  13.364
53971W        W13474   2.429  44.425   3.322
53972W        W13475  33.093   7.740  12.917
53973W        W13476   5.230  14.292  13.052
53974W        W13477  29.943   5.712   2.858
53975W        W13478  13.601  34.938   2.396
53976W        W13479   0.475   5.227  12.006
53977W        W13480  38.886  30.630   3.781
53978W        W13481  31.926  36.002  14.423
53979W        W13482  13.300   4.801  12.986
53980W        W13483  36.041   8.338   3.751
53981W        W13484  16.181  33.913   5.289
53982W        W13485  41.858   6.308   3.675
53983W        W13486   4.303  10.270   3.247
53984W        W13487  18.206  14.226  10.904
53985W        W13488  17.638  13.636   1.392
53986W        W13489   6.255  24.057   3.377
53987W        W13490   3.264  21.253  13.885
53988W        W13491  27.465  42.454  12.475
53989W        W13492  20.615  36.075   1.223
53990W        W13493  40.016  42.388   4.233
53991W        W13494   0.307  16.746   2.338
53992W        W13495  17.623  11.206  14.985
53993W        W13496  16.720  13.145  13.425
53994W        W13497   5.815   7.802  10.508
53995W        W13498  27.197  42.457  12.048
53996W        W13499  20.269  40.449  11.497
53997W        W13500  28.624   6.341   4.795
53998W        W13501  16.638  37.016   2.310
53999W        W13502  28.635  16.790  12.443
54000W        W13503  18.568  30.095   1.850
54001W        W13504  44.885  23.547   3.648
54002W        W13505  31.640  19.127   0.411
54003W        W13506  30.914  24.052  10.573
54004W        W13507   3.713  26.520  10.949
54005W        W13508  16.637  41.298   1.821
54006W        W13509  32.138  42.968   4.837
54007W        W13510  28.983  36.538   0.762
54008W        W13511  43.898  37.339   1.703
54009W        W13512  31.998  33.529   4.177
54010W        W13513  43.824  19.207   3.761
54011W        W13514  41.838   5.300  12.899
54012W        W13515   4.700  18.620   3.851
54013W        W13516  29.479  17.676  10.898
54014W        W13517  35.457  32.493  14.898
54015W        W13518  41.948  14.191  14.358
54016W        W13519  17.104  28.515  12.094
54017W        W13520   6.689  35.394  11.054
54018W        W13521  20.620  13.201  11.041
54019W        W13522  11.258   6.688  11.120
54020W        W13523  18.293  23.104  14.978
54021W        W13524  43.828  42.436  10.527
54022W        W13525  14.777  12.172  12.902
54023W        W13526   6.786   2.264   1.348
54024W        W13527  22.501  11.743  10.425
54025W        W13528  35.104   2.876   3.656
54026W        W13529  34.890  30.420   3.179
54027W        W13530  27.079  21.647  10.448
54028W        W13531  11.292   2.820  13.507
54029W        W13532   4.744  28.070   4.625
54030W        W13533  34.427   2.941   1.370
54031W        W13534  13.834  16.251  11.598
54032W        W13535  42.005  18.272  13.487
54033W        W13536  34.551  17.560   2.270
54034W        W13537  36.984  37.517  11.974
54035W        W13538   4.893  20.234   0.307
54036W        W13539   6.412  24.502   0.801
54037W        W13540  34.491  24.647   2.778
54038W        W13541   0.279   8.830   1.918
54039W        W13542  33.602  40.004  14.345
54040W        W13543  17.646  32.136  10.504
54041W        W13544  42.317  28.440   1.848
54042W        W13545   6.428  21.207   3.727
54043W        W13546  24.511  35.030  10.544
54044W        W13547   3.290  40.845  10.525
54045W        W13548  14.687  42.812  11.512
54046W        W13549   9.880  43.799  11.594
54047W        W13550  21.587  29.161  13.310
54048W        W13551  19.551  41.869  10.557
54049W        W13552  41.838  16.298  11.520
54050W        W13553  36.850  17.279   3.294
54051W        W13554  27.634   0.863   1.873
54052W        W13555  38.825  39.967  13.833
54053W        W13556  38.443  32.404   4.150
54054W        W13557  40.367  21.644  10.895
54055W        W13558  17.237  41.314  11.028
54056W        W13559  23.524  18.690   4.295
54057W        W13560  39.556   0.318  14.426
54058W        W13561  42.805  35.586  12.943
54059W        W13562  33.403  12.811  10.592
54060W        W13563  12.673  35.595   1.352
54061W        W13564  22.743  19.751   4.773
54062W        W13565  23.012  43.836   9.545
54063W        W13566  14.644  19.269  13.991
54064W        W13567  12.283  18.257   1.367
54065W        W13568  14.812  10.380   0.866
54066W        W13569   6.903  17.576   0.879
54067W        W13570  26.508   7.256  10.001
54068W        W13571  17.637  12.631  13.896
54069W        W13572  43.425  44.766  14.897
54070W        W13573   4.205  31.010   2.208
54071W        W13574  40.379   7.361   4.786
54072W        W13575  17.305  22.210   2.218
54073W        W13576  24.536   0.749  13.031
54074W        W13577  16.648  12.816  11.422
54075W        W13578  23.530  32.534  14.281
54076W        W13579  36.573  29.106   2.362
54077W        W13580  33.564  39.962   2.297
54078W        W13581  36.938  33.117   2.354
54079W        W13582  29.585   4.339   4.819
54080W        W13583  28.567   6.907  10.632
54081W        W13584  18.065  15.610   0.950
54082W        W13585  38.010  15.213  11.861
54083W        W13586  33.450  18.579  12.571
54084W        W13587  38.465  27.564   0.936
54085W        W13588   1.946  19.178   0.836
54086W        W13589  19.763   6.719   1.392
54087W        W13590  40.538  39.961   0.959
54088W        W13591   2.908   3.297  11.043
54089W        W13592  19.240   3.728   0.817
54090W        W13593  12.785   1.475  10.565
54091W        W13594  16.634  10.766   1.864
54092W        W13595   1.476  33.930   1.793
54093W        W13596  32.625  42.885   1.439
54094W        W13597  30.014  31.122  12.383
54095W        W13598  16.249  28.071   3.656
54096W        W13599  12.295  43.337  12.858
54097W        W13600  17.202  36.982   1.273
54098W        W13601  40.442  41.401  14.905
54099W        W13602   7.880   3.939   2.708
54100W        W13603  18.631  15.643   1.318
54101W        W13604  23.188  11.739   0.856
54102W        W13605  32.635  10.748  11.377
54103W        W13606  36.023   4.284   0.298
54104W        W13607   6.374  43.855   4.801
54105W        W13608   2.774  39.809  12.092
54106W        W13609  20.644  41.350   2.884
54107W        W13610  33.928   6.909  11.531
54108W        W13611   9.677  15.736  12.436
54109W        W13612   5.696   9.886   3.243
54110W        W13613  35.541  12.612  14.476
54111W        W13614  15.124  20.762   3.767
54112W        W13615  22.597  11.659   0.966
54113W        W13616  11.369  43.376  12.398
54114W        W13617  43.850  12.242  14.397
54115W        W13618  12.696  19.554   3.175
54116W        W13619  15.221  25.486   3.210
54117W        W13620   3.299  13.609  11.877
54118W        W13621  32.612   4.756  11.865
54119W        W13622  15.750  30.155  11.459
54120W        W13623  19.710  34.424  11.545
54121W        W13624  33.032  22.187  11.577
54122W        W13625  39.425  24.071   1.260
54123W        W13626  43.914  29.615   3.259
54124W        W13627  21.141  22.517   1.839
54125W        W13628  20.610  33.998  12.491
54126W        W13629  37.863   4.895  11.593
54127W        W13630   0.869  33.442   5.143
54128W        W13631  15.741  24.132   4.333
54129W        W13632  17.123  17.603  11.129
54130W        W13633  30.937   0.899  13.357
54131W        W13634  23.086   9.876  13.846
54132W        W13635  27.644  18.085   3.280
54133W        W13636  17.260  39.409   3.288
54134W        W13637  11.742  10.835  11.900
54135W        W13638  20.185  29.088  12.496
54136W        W13639  41.314  27.145  12.425
54137W        W13640  12.824  38.057   3.681
54138W        W13641  14.151   1.788   2.725
54139W        W13642  25.023   0.326  12.342
54140W        W13643  43.417  35.501   2.804
54141W        W13644  30.032  19.166  14.282
54142W        W13645  11.706  41.325   2.398
54143W        W13646  38.488  13.312   3.366
54144W        W13647   7.256  38.853   0.469
54145W        W13648  18.260  18.236   4.186
54146W        W13649  10.138   6.382   5.304
54147W        W13650  43.994  23.169  14.480
54148W        W13651  18.677  39.878  13.327
54149W        W13652   9.691  28.572  12.034
54150W        W13653   5.322  11.150   0.945
54151W        W13654  26.508  16.169  14.957
54152W        W13655  24.140  31.586   3.179
54153W        W13656  33.545  11.859  13.383
54154W        W13657  29.462  42.300  11.893
54155W        W13658  14.737  12.722  12.936
54156W        W13659  27.578  10.637   0.244
54157W        W13660   8.358   5.723   2.303
54158W        W13661  39.836  20.220  14.298
54159W        W13662  30.442   8.860   2.687
54160W        W13663  17.617   1.956   1.912
54161W        W13664  33.619   0.909  13.955
54162W        W13665   6.794  28.059  12.457
54163W        W13666  25.643  36.083   3.729
54164W        W13667  40.033   9.869  11.432
54165W        W13668  41.451  18.207  14.280
54166W        W13669  42.777   0.763   3.188
54167W        W13670  27.981  27.114  14.368
54168W        W13671  27.055  16.289  14.759
54169W        W13672  18.193  42.816   4.269
54170W        W13673  39.065  41.369   1.284
54171W        W13674   1.796  12.844   0.461
54172W        W13675   4.245  15.715   4.322
54173W        W13676   6.909  32.451  14.494
54174W        W13677   7.682   3.871   0.262
54175W        W13678  20.211  26.017  11.451
54176W        W13679  21.065  40.980   0.249
54177W        W13680  14.336  40.909   0.481
54178W        W13681  35.865  31.136   1.908
54179W        W13682  35.513  36.019   3.216
54180W        W13683   3.712   1.442   5.738
54181W        W13684  31.615  43.342  14.024
54182W        W13685   9.830  33.893  13.906
54183W        W13686   5.282  10.385   1.810
54184W        W13687  29.543  37.439   3.689
54185W        W13688  38.957  35.511   2.771
54186W        W13689  42.516   9.272   2.816
54187W        W13690  38.009   4.238  12.976
54188W        W13691  14.825  27.054  13.973
54189W        W13692   3.344  39.336   1.365
54190W        W13693  14.213  36.414  10.941
54191W        W13694   8.670  42.316  10.539
54192W        W13695  35.365   5.919   0.967
54193W        W13696  25.087  19.076   4.271
54194W        W13697  14.276   0.907  11.101
54195W        W13698  29.989  44.987   0.244
54196W        W13699  18.141  40.394  13.983
54197W        W13700  37.414  28.957   1.253
54198W        W13701  26.619   3.868  10.478
54199W        W13702  38.016   6.360   2.390
54200W        W13703  28.980  37.515  12.078
54201W        W13704  12.201  40.472   9.962
54202W        W13705  11.149   6.875  13.012
54203W        W13706  11.756  26.486   1.295
54204W        W13707  16.084  36.985   2.741
54205W        W13708  32.417   2.287  13.462
54206W        W13709  28.159  31.416   2.871
54207W        W13710   0.786  33.511   1.406
54208W        W13711  18.070  30.558  10.473
54209W        W13712  28.109  38.074  11.594
54210W        W13713  32.568  17.252   0.878
54211W        W13714  29.520  36.480   0.905
54212W        W13715  40.844  43.995   2.814
54213W        W13716  42.383  22.133   3.683
54214W        W13717  10.802   6.349  13.399
54215W        W13718  21.656  19.217   0.256
54216W        W13719  32.939  37.453   0.457
54217W        W13720  14.181  36.029  12.397
54218W        W13721  13.141   8.657   1.744
54219W        W13722  40.537  10.723   2.192
54220W        W13723  38.931  23.221  12.409
54221W        W13724  41.965  20.620  13.409
54222W        W13725  42.421  22.549   2.265
54223W        W13726  36.427  41.937  14.966
54224W        W13727   6.706  40.896  14.774
54225W        W13728  26.694  14.697  13.799
54226W        W13729  14.158  11.821  13.863
54227W        W13730  27.494  36.467   0.862
54228W        W13731  32.040  28.065   0.312
54229W        W13732   9.776  29.919  12.484
54230W        W13733  44.884  20.216   3.206
54231W        W13734  29.110  10.750  12.086
54232W        W13735   2.924  35.478  10.455
54233W        W13736  34.435  36.043  13.940
54234W        W13737   6.914  30.108  12.528
54235W        W13738   8.347  44.837   3.804
54236W        W13739   2.384  36.400  10.510
54237W        W13740  23.139  20.248   1.841
54238W        W13741   9.649  44.981  14.295
54239W        W13742   7.225  37.446   4.716
54240W        W13743   0.448  34.929  13.524
54241W        W13744   7.820  23.099  10.466
54242W        W13745  12.705  26.689  13.945
54243W        W13746   7.880  44.397  12.523
54244W        W13747  15.770  31.505  14.350
54245W        W13748   4.377  22.131   3.289
54246W        W13749  18.278  25.214  14.020
54247W        W13750  35.980  27.146   0.935
54248W        W13751  37.833  20.561  12.826
54249W        W13752   4.703  13.286  14.898
54250W        W13753  23.521  33.100   1.327
54251W        W13754  18.665   3.458   1.879
54252W        W13755  39.544  12.170  11.429
54253W        W13756   7.262  27.605   3.721
54254W        W13757   6.314  30.609   1.286
54255W        W13758  38.906  27.180   1.297
54256W        W13759  21.587  38.450   4.122
54257W        W13760  11.183  14.223  13.365
54258W        W13761   9.154  32.422  11.527
54259W        W13762  36.524  12.642   4.699
54260W        W13763   3.818  27.983  12.928
54261W        W13764  30.950  20.648  14.017
54262W        W13765   2.826  16.282  13.912
54263W        W13766  11.212   7.782  12.956
54264W        W13767  40.448  30.642   4.156
54265W        W13768  22.506   1.858   2.218
54266W        W13769  38.966   3.451   0.392
54267W        W13770  28.933  42.357  14.839
54268W        W13771  44.806  44.297   0.372
54269W        W13772   5.818  25.475   3.165
54270W        W13773  12.673  44.337  11.461
54271W        W13774  37.476  20.233   0.899
54272W        W13775  23.662  43.391   1.769
54273W        W13776  32.054  16.791   4.644
54274W        W13777  38.549   7.714   0.764
54275W        W13778  35.037  31.517  12.006
54276W        W13779  40.864  28.658  13.453
54277W        W13780  10.261  34.437   4.307
54278W        W13781   2.281  17.777  14.337
54279W        W13782  41.413  16.180  11.931
54280W        W13783  32.394  18.591  11.090
54281W        W13784  26.051  39.852  13.890
54282W        W13785  44.481   7.687   4.347
54283W        W13786  26.635  44.872   2.739
54284W        W13787   7.739  42.003  13.420
54285W        W13788  19.704   0.491   0.891
54286W        W13789  18.296  41.318   2.806
54287W        W13790  15.751  35.901   3.677
54288W        W13791  35.507   3.261   0.459
54289W        W13792  39.519  33.118  13.321
54290W        W13793  39.943  21.088   1.352
54291W        W13794  38.972   4.353  12.419
54292W        W13795  22.546  43.019   5.135
54293W        W13796  36.001  16.689  13.427
54294W        W13797  22.108  26.094  11.000
54295W        W13798  19.042  31.075   3.381
54296W        W13799  22.503  20.048   0.340
54297W        W13800  34.560  12.769   0.404
54298W        W13801  42.394  35.964   1.885
54299W        W13802   4.440  18.780  13.848
54300W        W13803  18.753  34.874  12.823
54301W        W13804   9.336  11.750   1.334
54302W        W13805   3.365  44.949   5.655
54303W        W13806  34.935   8.849   5.163
54304W        W13807   7.889  20.640  11.481
54305W        W13808  25.618   4.834  14.371
54306W        W13809  16.656  40.797  14.856
54307W        W13810  24.648  43.293  10.480
54308W        W13811  19.756  39.899   1.823
54309W        W13812  41.851  12.613   1.835
54310W        W13813  39.954  12.660  10.944
54311W        W13814  41.291  11.209  13.382
54312W        W13815   6.839  16.286   0.313
54313W        W13816   4.293   6.792   0.848
54314W        W13817  13.825  21.107  12.427
54315W        W13818  28.460   7.816   4.140
54316W        W13819  18.173  10.204  11.499
54317W        W13820  36.007  32.497  10.955
54318W        W13821  16.169  29.123   2.894
54319W        W13822  22.629  20.717  11.904
54320W        W13823   0.348  20.660   1.407
54321W        W13824  13.607   2.733   1.297
54322W        W13825  22.203   4.412   0.451
54323W        W13826   2.446   2.905  12.936
54324W        W13827  41.003  27.457   3.254
54325W        W13828  27.182  37.061   3.358
54326W        W13829  37.841  15.128  14.861
54327W        W13830  12.641  19.187  12.451
54328W        W13831  23.185  40.834   4.729
54329W        W13832  36.524   1.951  13.327
54330W        W13833   6.203  20.695  12.957
54331W        W13834   4.281  19.535   1.865
54332W        W13835  20.064  29.484   0.475
54333W        W13836  19.733   8.288   3.774
54334W        W13837  35.049  41.795   5.129
54335W        W13838  22.213   5.693   0.865
54336W        W13839  16.701  33.534  13.828
54337W        W13840  11.646  26.526  13.951
54338W        W13841  39.891  26.696  12.379
54339W        W13842  42.028  24.502  11.004
54340W        W13843  10.205  29.430   1.772
54341W        W13844  37.874   7.743  14.436
54342W        W13845  36.347   6.410  14.334
54343W        W13846  19.251  27.607  11.493
54344W        W13847  12.678   0.484   0.948
54345W        W13848  24.108  38.054  12.067
54346W        W13849  19.733  37.016   2.212
54347W        W13850  24.038  22.041   1.795
54348W        W13851  17.724   8.683   1.775
54349W        W13852  44.307  28.541  11.996
54350W        W13853  32.611   8.872  13.991
54351W        W13854  11.632  36.579  10.460
54352W        W13855  34.869  27.095  14.846
54353W        W13856   7.777  15.131  10.899
54354W        W13857  35.361  34.377   4.167
54355W        W13858  39.896  33.473   3.808
54356W        W13859  25.629   1.299   3.188
54357W        W13860  20.172  25.492  10.422
54358W        W13861  15.769  38.366  11.611
54359W        W13862  30.939  15.739   1.848
54360W        W13863  20.750  40.827  14.860
54361W        W13864  43.785  43.489  12.933
54362W        W13865  18.188  34.399   4.819
54363W        W13866  38.824   0.248   4.214
54364W        W13867  14.786  29.485  12.435
54365W        W13868  19.145  27.000   2.804
54366W        W13869  28.086  26.068  11.548
54367W        W13870  33.034   3.435   5.236
54368W        W13871  24.691   8.654   3.829
54369W        W13872  42.786  44.351   9.964
54370W        W13873  20.073  32.567   3.743
54371W        W13874   9.757  21.578  14.348
54372W        W13875   6.717  36.538  13.498
54373W        W13876  37.394   3.327  13.806
54374W        W13877  44.476  37.898   3.354
54375W        W13878   1.944  36.447  11.115
54376W        W13879  32.426   0.349   1.821
54377W        W13880  37.487   9.370  11.373
54378W        W13881  34.912  14.144  14.988
54379W        W13882  19.060   0.391  13.371
54380W        W13883   4.374  19.740   1.306
54381W        W13884   5.738   9.217  11.514
54382W        W13885   4.400  40.467   0.727
54383W        W13886  29.590  40.520  12.093
54384W        W13887  36.054  27.086  10.637
54385W        W13888  28.528  27.477  14.276
54386W        W13889  29.459   0.444  12.841
54387W        W13890  29.096  22.510   0.267
54388W        W13891   4.357  20.265   0.797
54389W        W13892  28.459  22.679  11.007
54390W        W13893  33.051  15.731   3.866
54391W        W13894   9.239   0.943   1.795
54392W        W13895  41.494  23.997  11.516
54393W        W13896  21.256  44.790  12.916
54394W        W13897  37.067  38.961  14.883
54395W        W13898  37.571  28.477  12.059
54396W        W13899  12.130   5.850  14.893
54397W        W13900   6.381   0.950   1.852
54398W        W13901  21.744   9.170  11.917
54399W        W13902   1.917  41.952   1.365
54400W        W13903  12.180   8.183  13.056
54401W        W13904  43.005  34.448   3.258
54402W        W13905  26.661  15.316  12.879
54403W        W13906  26.456  39.016   4.218
54404W        W13907  28.442  25.093   4.639
54405W        W13908  11.692  13.150  13.315
54406W        W13909  12.304  13.803  12.062
54407W        W13910  36.058  12.717  10.638
54408W        W13911  24.510   8.306   2.284
54409W        W13912  37.413  27.088   0.387
54410W        W13913   7.277  19.177  11.951
54411W        W13914  21.231  34.526  12.078
54412W        W13915  22.694  19.229   4.612
54413W        W13916   9.369   9.663  11.012
54414W        W13917  39.027  26.512  14.469
54415W        W13918  33.398  28.493  11.541
54416W        W13919  27.013  14.828   1.343
54417W        W13920   7.174  43.323  12.939
54418W        W13921  38.899  43.317   3.385
54419W        W13922  43.943  19.276  14.387
54420W        W13923  33.037  23.207  12.433
54421W        W13924   2.307   8.211   2.202
54422W        W13925  12.628   3.815  13.545
54423W        W13926  26.469  44.408   4.309
54424W        W13927  32.407  16.236   1.699
54425W        W13928   6.258  10.786   3.382
54426W        W13929  31.988   0.829   3.216
54427W        W13930  18.180  28.045  10.973
54428W        W13931   1.889  29.489  12.884
54429W        W13932  27.608   7.346  14.951
54430W        W13933  28.090  34.106   3.237
54431W        W13934   6.343   2.280  10.643
54432W        W13935  13.654  20.186   3.221
54433W        W13936  33.430  40.894   2.182
54434W        W13937  13.194   9.254  13.919
54435W        W13938  12.217  11.329  14.896
54436W        W13939  10.316   5.738  13.543
54437W        W13940  35.968  38.522   0.926
54438W        W13941  15.304  24.517   0.733
54439W        W13942   4.864  39.940   0.842
54440W        W13943   0.831  39.873  12.575
54441W        W13944   7.732  36.001  13.954
54442W        W13945  44.929   5.706  14.445
54443W        W13946   2.253  20.659  11.399
54444W        W13947   9.240  15.672   1.914
54445W        W13948   0.920  26.151   4.205
54446W        W13949  16.267  38.930  12.953
54447W        W13950  39.316   4.440   1.772
54448W        W13951  24.212  42.282   0.933
54449W        W13952  42.800   6.899   1.430
54450W        W13953   3.382   7.259   3.317
54451W        W13954  39.507  14.588  14.343
54452W        W13955   5.870   6.285  11.018
54453W        W13956  26.595  15.585   2.320
54454W        W13957  21.175  23.004  13.346
54455W        W13958  14.644  32.091   1.886
54456W        W13959  10.849   5.791   0.281
54457W        W13960  43.489  21.736   3.696
54458W        W13961  44.922   9.277   2.314
54459W        W13962  12.614  36.559  11.612
54460W        W13963  17.729  44.446   1.844
54461W        W13964  35.061   7.782   0.908
54462W        W13965  28.473  10.735   4.697
54463W        W13966   3.315   7.329  13.311
54464W        W13967   3.845  10.316   2.765
54465W        W13968  38.873   7.352   3.266
54466W        W13969  35.463   7.761   3.362
54467W        W13970  22.722  27.076   2.409
54468W        W13971  44.759  39.484  14.783
54469W        W13972   9.255  40.962   2.748
54470W        W13973  23.216  41.875  13.039
54471W        W13974   0.336   5.860   4.715
54472W        W13975   2.392  21.559  14.381
54473W        W13976  28.952   7.685  14.920
54474W        W13977   1.761  28.644  11.479
54475W        W13978  13.146  10.654   1.799
54476W        W13979  31.412  29.987  12.577
54477W        W13980  32.432   2.333   2.419
54478W        W13981   5.272  34.523   5.297
54479W        W13982  25.074  34.095   2.886
54480W        W13983  10.648  25.471  11.126
54481W        W13984  27.114  37.908  14.815
54482W        W13985  42.979  15.730   3.226
54483W        W13986  44.860  25.594   2.790
54484W        W13987   8.722  37.079  14.797
54485W        W13988   0.886  36.974   2.275
54486W        W13989  28.623  17.781   4.637
54487W        W13990  21.675  35.999  12.868
54488W        W13991  23.679  35.509  10.575
54489W        W13992  29.043  30.994  12.557
54490W        W13993  37.541  35.078  12.473
54491W        W13994  14.747  43.486  14.413
54492W        W13995   4.383  24.572  11.531
54493W        W13996  44.408  34.589  13.898
54494W        W13997  21.549   4.855   0.378
54495W        W13998  14.732  41.824   2.728
54496W        W13999   2.429  42.927  13.959
54497W        W14000  36.586  25.216   3.200
54498W        W14001   2.961  37.564  12.871
54499W        W14002   4.773   4.841   2.418
54500W        W14003   3.255   3.432   0.324
54501W        W14004  23.575   1.246   1.358
54502W        W14005  39.962  32.588   3.790
54503W        W14006   6.212   9.224   0.820
54504W        W14007  24.229   2.232   2.301
54505W        W14008  29.021  22.555  10.994
54506W        W14009   5.255  35.420  12.835
54507W        W14010  44.494  27.193  12.974
54508W        W14011  20.196  38.940  10.018
54509W        W14012  16.239   3.223   2.287
54510W        W14013   5.198  17.736   1.833
54511W        W14014  43.482  18.094  14.976
54512W        W14015  43.485  23.638   5.227
54513W        W14016  26.971  15.084   3.245
54514W        W14017  19.680  28.011   4.776
54515W        W14018  33.925  19.681  12.981
54516W        W14019  39.990  10.139   4.241
54517W        W14020  44.917  37.898   4.264
54518W        W14021  37.834  38.372   3.285
54519W        W14022  27.963  27.139  12.551
54520W        W14023  31.074  41.307   3.211
54521W        W14024  13.818  18.236   2.291
54522W        W14025  30.580  20.087  12.070
54523W        W14026  14.211  27.155   3.722
54524W        W14027  25.023  22.702   4.226
54525W        W14028  22.026  17.231  14.806
54526W        W14029   8.865  35.052   4.713
54527W        W14030   6.741   4.395  11.424
54528W        W14031  14.789  28.538  12.524
54529W        W14032  22.564   9.826   1.812
54530W        W14033  33.384  33.881  13.856
54531W        W14034  12.780  16.274  11.548
54532W        W14035  43.986  20.648   0.257
54533W        W14036  27.504  40.364   4.157
54534W        W14037  23.659  26.990  14.503
54535W        W14038  38.934  25.208  13.018
54536W        W14039  11.171  29.042  11.440
54537W        W14040   3.764  36.581   3.648
54538W        W14041  28.185  38.410   1.220
54539W        W14042  21.184  22.698  12.832
54540W        W14043  13.250  39.317  14.940
54541W        W14044   6.395  16.086  12.058
54542W        W14045   9.706  38.988   4.654
54543W        W14046  31.904  23.205   3.341
54544W        W14047   0.364  17.654   4.316
54545W        W14048   1.978   5.785   2.245
54546W        W14049  34.934  23.574   1.395
54547W        W14050  31.923  29.919   2.780
54548W        W14051  16.104  23.231   0.246
54549W        W14052   2.277   2.884   0.317
54550W        W14053  34.020   9.170  12.524
54551W        W14054  29.978  11.193  11.579
54552W        W14055  40.492  10.330   1.810
54553W        W14056   1.385  44.954   3.720
54554W        W14057   3.350   0.250  14.781
54555W        W14058   5.690   4.450  12.956
54556W        W14059  41.480  29.556  13.059
54557W        W14060  11.797  39.848  13.981
54558W        W14061   1.758  29.516   4.630
54559W        W14062  35.008  36.026   1.867
54560W        W14063   1.267  25.581  11.060
54561W        W14064  41.429   2.747  14.770
54562W        W14065  28.066   4.321   2.744
54563W        W14066  16.230   8.710   0.348
54564W        W14067  37.835  15.320   4.785
54565W        W14068  10.732  36.880  11.457
54566W        W14069  38.059  40.374   3.647
54567W        W14070  43.387  26.572   2.680
54568W        W14071   4.785  16.234   1.926
54569W        W14072   1.782  24.534   2.285
54570W        W14073  39.434   0.974   0.283
54571W        W14074   2.364  23.663  13.380
54572W        W14075   9.391   4.699   4.691
54573W        W14076   0.411  26.533   1.881
54574W        W14077  37.921  12.762   0.844
54575W        W14078  35.099  29.476  12.091
54576W        W14079  25.663  37.459  10.545
54577W        W14080  21.079  39.842  10.048
54578W        W14081  41.025  25.639   1.225
54579W        W14082   1.425  16.597   3.189
54580W        W14083  44.946  43.873   0.804
54581W        W14084  29.168  36.446  13.935
54582W        W14085   8.333  33.953  11.478
54583W        W14086  39.955   4.904   3.692
54584W        W14087  40.515   0.764  13.885
54585W        W14088  34.031  14.332   3.230
54586W        W14089  42.321  38.527   2.358
54587W        W14090  14.667  27.558  13.457
54588W        W14091  41.959  21.128   0.247
54589W        W14092   4.224  23.139  10.944
54590W        W14093   5.207  43.773   2.405
54591W        W14094  16.310  10.744  11.473
54592W        W14095   6.886  42.790  13.049
54593W        W14096  14.327  23.540  11.406
54594W        W14097  26.179  33.090   1.299
54595W        W14098  11.278  14.126   3.200
54596W        W14099  31.902  10.176  14.342
54597W        W14100  42.408  17.579  10.927
54598W        W14101  30.162  22.098  13.543
54599W        W14102  12.657  11.679  14.774
54600W        W14103   6.716  44.287  14.989
54601W        W14104  13.670   2.722  11.049
54602W        W14105  16.702  14.736  10.574
54603W        W14106  38.950  16.592  10.500
54604W        W14107  37.514  16.154   2.273
54605W        W14108  39.959   3.856  11.033
54606W        W14109  23.172  13.280  13.923
54607W        W14110  37.405   0.453  11.406
54608W        W14111  19.089  41.450   1.261
54609W        W14112  37.417  36.012   4.312
54610W        W14113  32.948  21.258  11.006
54611W        W14114  41.908  34.096  13.987
54612W        W14115  21.573  10.794   2.384
54613W        W14116  36.484  25.588   0.863
54614W        W14117  41.011  17.555  12.512
54615W        W14118  20.647  38.021  13.053
54616W        W14119  17.070  29.143   0.280
54617W        W14120  10.288  10.245  12.977
54618W        W14121   0.325   7.845   0.852
54619W        W14122  28.656   6.739  14.311
54620W        W14123  43.998  37.037  14.973
54621W        W14124  17.623  25.482   2.358
54622W        W14125  15.167  24.567  11.860
54623W        W14126  21.585   6.696   4.656
54624W        W14127  24.518   0.845   0.452
54625W        W14128   8.232  25.650  12.927
54626W        W14129  40.998  20.087   2.248
54627W        W14130  36.921  13.634  10.925
54628W        W14131  25.151   2.363   0.895
54629W        W14132  24.000  40.397   4.126
54630W        W14133  37.398   6.857  14.314
54631W        W14134  17.126  43.975   2.794
54632W        W14135  21.693  41.509  11.587
54633W        W14136  22.555   4.813  10.980
54634W        W14137  10.636   2.258  14.898
54635W        W14138  12.786   0.841  13.374
54636W        W14139  31.978   8.210   1.449
54637W        W14140  35.055  41.486  11.466
54638W        W14141  35.359  26.506  14.784
54639W        W14142  26.496  28.155  14.326
54640W        W14143   3.370  18.550  13.353
54641W        W14144  21.597  13.771  13.058
54642W        W14145  21.255  33.495  14.309
54643W        W14146  18.678  19.707  10.510
54644W        W14147  28.477  14.148   2.755
54645W        W14148  13.841   2.230   3.290
54646W        W14149  26.122  15.712  11.486
54647W        W14150  41.941  42.938   4.314
54648W        W14151  32.991  34.588  13.939
54649W        W14152  31.127  12.321  13.442
54650W        W14153  37.936  31.557  13.365
54651W        W14154   9.245  21.701   2.788
54652W        W14155  31.053  25.568  10.905
54653W        W14156  35.499  36.082   0.358
54654W        W14157  17.706  26.565   5.267
54655W        W14158  44.327  13.293  13.997
54656W        W14159  20.227  12.304   3.671
54657W        W14160  37.877  30.944  10.462
54658W        W14161  19.159   4.881   3.824
54659W        W14162   4.234  26.658  10.109
54660W        W14163  32.087  40.543   0.751
54661W        W14164  36.566  36.089  13.948
54662W        W14165  17.095   2.467   2.720
54663W        W14166  10.653  14.819  13.982
54664W        W14167  24.040  38.473  12.372
54665W        W14168  20.077  37.890  11.002
54666W        W14169  30.472  42.455   1.797
54667W        W14170  33.129  41.492   0.406
54668W        W14171  12.670   2.465  14.011
54669W        W14172   0.916  30.601   5.222
54670W        W14173   5.911  41.980   3.743
54671W        W14174  41.399  22.138   4.814
54672W        W14175  41.802  27.465  10.520
54673W        W14176  12.661  23.512   4.161
54674W        W14177   6.766  23.192   4.681
54675W        W14178  37.876  35.076  14.450
54676W        W14179  13.685  14.725  10.998
54677W        W14180  24.598   1.781   0.850
54678W        W14181  31.028  18.675   1.444
54679W        W14182  16.722  26.470  11.537
54680W        W14183  43.510  14.656  12.413
54681W        W14184  17.285  19.075   2.385
54682W        W14185  15.084  22.131  12.347
54683W        W14186  29.479  38.360  10.890
54684W        W14187  21.257  19.546  11.912
54685W        W14188  21.641  27.634  13.332
54686W        W14189  39.008  31.154   2.259
54687W        W14190  22.023  22.220   0.945
54688W        W14191  38.499  39.516  12.996
54689W        W14192   0.356   4.401  12.504
54690W        W14193  31.634   5.386  13.486
54691W        W14194  23.123  12.821  14.834
54692W        W14195  16.567  16.774   4.214
54693W        W14196  22.630  25.184   3.186
54694W        W14197   0.414  11.271   0.782
54695W        W14198  20.704  19.712   2.854
54696W        W14199  34.478  20.563   1.236
54697W        W14200   9.781  32.562   2.893
54698W        W14201  30.574   7.220  12.555
54699W        W14202   1.360  19.105  14.022
54700W        W14203  22.083  44.261   4.267
54701W        W14204  24.487   3.238  11.505
54702W        W14205  19.150  34.553   3.179
54703W        W14206  19.071  12.295   1.216
54704W        W14207  10.231  25.539  10.112
54705W        W14208  24.097   4.774   0.384
54706W        W14209  13.229   6.740   0.744
54707W        W14210  33.449  32.444  12.081
54708W        W14211   7.742  31.048  14.424
54709W        W14212  13.199  16.127   0.462
54710W        W14213   0.978  41.881  14.369
54711W        W14214  24.614   3.730   3.256
54712W        W14215  15.279  31.919   3.301
54713W        W14216  29.430  22.591   5.323
54714W        W14217  14.730  41.313  10.060
54715W        W14218  36.361  13.661  12.826
54716W        W14219  13.827  25.124  13.521
54717W        W14220  16.243  43.413  13.324
54718W        W14221  33.415  31.960  12.074
54719W        W14222  36.552  16.217  14.947
54720W        W14223  14.590  15.579   0.756
54721W        W14224  33.912  19.253   1.320
54722W        W14225  13.808  33.598   2.180
54723W        W14226  14.241  34.402   3.279
54724W        W14227  10.243   7.253   3.156
54725W        W14228   1.238  33.038  10.591
54726W        W14229  10.195   4.704   1.308
54727W        W14230   5.315   3.293  14.865
54728W        W14231  32.477   5.814  12.482
54729W        W14232   6.706  25.533   4.173
54730W        W14233  40.845  27.089  14.889
54731W        W14234  34.050  26.106   0.893
54732W        W14235   7.697  17.140  13.309
54733W        W14236  41.800  17.630   3.347
54734W        W14237   6.829  24.506  10.951
54735W        W14238  34.503  34.382  12.091
54736W        W14239  14.252  35.366  12.441
54737W        W14240  44.761   8.745   2.372
54738W        W14241  31.948  43.317  11.537
54739W        W14242  43.817  27.057   9.444
54740W        W14243   5.214   4.276  13.372
54741W        W14244  11.714  12.176   1.266
54742W        W14245   8.212  42.853  13.439
54743W        W14246   6.853  38.538   0.956
54744W        W14247  32.102  33.071  14.873
54745W        W14248  40.496  19.700   2.724
54746W        W14249   1.841   8.874  14.856
54747W        W14250   7.390   7.830   4.656
54748W        W14251  39.837  42.501  14.395
54749W        W14252  11.265   3.398  12.486
54750W        W14253  23.075  11.242   1.226
54751W        W14254  33.424   4.901   1.381
54752W        W14255  13.251  14.129  10.464
54753W        W14256  18.547  43.316   0.953
54754W        W14257  43.897   3.739   0.303
54755W        W14258   6.184  35.546   2.723
54756W        W14259  21.685  34.558  11.063
54757W        W14260   8.313  14.786   4.757
54758W        W14261  25.498  34.611  11.459
54759W        W14262   6.698   9.245   4.793
54760W        W14263  40.490  30.533  12.084
54761W        W14264   5.846  37.491   2.373
54762W        W14265  16.231  16.715  10.516
54763W        W14266   4.208  22.513  11.387
54764W        W14267   3.449  25.988   4.652
54765W        W14268  28.549  32.448  11.875
54766W        W14269   4.340   1.237   3.861
54767W        W14270  12.742  10.663  11.994
54768W        W14271   5.366  40.531   4.811
54769W        W14272  43.004  27.488   1.279
54770W        W14273  38.398   8.311  12.840
54771W        W14274  40.351  43.833   0.350
54772W        W14275  16.637  32.007   1.725
54773W        W14276  14.668  39.455   3.287
54774W        W14277   1.483  25.563  10.550
54775W        W14278  18.288   2.785  11.981
54776W        W14279  13.825   0.792   1.704
54777W        W14280  19.653  11.268  13.968
54778W        W14281  11.741  14.317  10.428
54779W        W14282  15.768   0.798  12.399
54780W        W14283  11.759   2.839  12.543
54781W        W14284   7.378   1.302   2.732
54782W        W14285   7.771  25.686  14.847
54783W        W14286  14.324   6.317  12.954
54784W        W14287   2.843  35.520   2.272
54785W        W14288  43.411  16.574   0.280
54786W        W14289  38.932   1.760   3.640
54787W        W14290   8.335   5.334  10.414
54788W        W14291  16.305  42.007   0.473
54789W        W14292   8.799  28.606   2.300
54790W        W14293  17.697   4.826  12.576
54791W        W14294  18.112  22.704   0.372
54792W        W14295  40.845  12.741   2.824
54793W        W14296  32.958  31.076  11.564
54794W        W14297  17.172  30.513   1.281
54795W        W14298   6.916  18.549  14.945
54796W        W14299  12.818  32.626   0.819
54797W        W14300  37.424  21.590   1.701
54798W        W14301  25.468  39.058  13.000
54799W        W14302  21.234  15.685   1.270
54800W        W14303  27.510  16.123   3.163
54801W        W14304  20.536  23.129  10.632
54802W        W14305  34.543  33.583  10.917
54803W        W14306  17.586  11.825  12.430
54804W        W14307   1.309   4.213   4.806
54805W        W14308   1.483  21.063   2.734
54806W        W14309   8.686  34.947   1.726
54807W        W14310  22.019  40.388  12.081
54808W        W14311   8.730  32.475   3.308
54809W        W14312  38.436  26.123   0.461
54810W        W14313  39.489   1.391   3.166
54811W        W14314   6.876  25.509  12.056
54812W        W14315  28.460  28.661  14.841
54813W        W14316  18.677  15.796  12.482
54814W        W14317  19.560  34.466  10.551
54815W        W14318  30.500  30.633  10.970
54816W        W14319  28.139  19.535   2.261
54817W        W14320   4.415  12.323  11.465
54818W        W14321  34.474  23.584  11.994
54819W        W14322  20.655  23.513  13.452
54820W        W14323  29.033  11.327   0.900
54821W        W14324  38.395  29.998   3.646
54822W        W14325   0.908  14.235   4.277
54823W        W14326  26.175  40.897  13.908
54824W        W14327  19.643   3.735  13.338
54825W        W14328   3.460  24.189  13.904
54826W        W14329   0.460  24.700  12.920
54827W        W14330  42.330   9.661   4.291
54828W        W14331   8.320  31.022   2.400
54829W        W14332  44.830  16.186   2.360
54830W        W14333   0.941  30.160  11.924
54831W        W14334  17.763  22.647  11.532
54832W        W14335  30.471   2.377  14.393
54833W        W14336   7.381  37.054   4.241
54834W        W14337   8.163  29.045   4.691
54835W        W14338  42.848  43.985  14.823
54836W        W14339  26.023   8.732   2.291
54837W        W14340  43.909  13.213  13.859
54838W        W14341  28.077  37.440  14.977
54839W        W14342  19.079   5.891   2.810
54840W        W14343  30.028  43.482  12.472
54841W        W14344  12.778  12.635   3.266
54842W        W14345   3.347  13.151  14.442
54843W        W14346  31.615   7.877  12.571
54844W        W14347  29.030  29.132  12.070
54845W        W14348  41.438  25.503   2.828
54846W        W14349   1.390  26.673   1.808
54847W        W14350  41.955   4.342   1.719
54848W        W14351  19.155   2.416  13.476
54849W        W14352   7.733  44.856   1.714
54850W        W14353   5.308  37.024   4.333
54851W        W14354  11.671  30.019   2.385
54852W        W14355  25.983  25.172  14.292
54853W        W14356   4.833  36.380   1.341
54854W        W14357  29.004  12.123  13.938
54855W        W14358  25.077  14.137   0.863
54856W        W14359  32.581  40.810  14.807
54857W        W14360  19.566  16.117  13.843
54858W        W14361   7.791  32.995  12.364
54859W        W14362  18.221  19.702   4.773
54860W        W14363  16.151  36.350  10.962
54861W        W14364  11.287  42.414   2.192
54862W        W14365  29.468   0.951  13.973
54863W        W14366  33.444   3.381  14.793
54864W        W14367  38.936  18.056  12.048
54865W        W14368  33.044  29.025  13.044
54866W        W14369   3.294  10.836  13.962
54867W        W14370  35.900  42.392   0.283
54868W        W14371  41.303  22.683  12.903
54869W        W14372   7.175  17.160  12.416
54870W        W14373  30.013  24.077   3.299
54871W        W14374  38.932   1.841  14.387
54872W        W14375  27.648  25.586  13.467
54873W        W14376  21.733  25.174   3.172
54874W        W14377   5.727  34.535   1.855
54875W        W14378   8.787  42.875  10.028
54876W        W14379  11.201  39.028   3.771
54877W        W14380   7.674  25.139   5.232
54878W        W14381  34.918  39.377  10.071
54879W        W14382  44.440  24.040   1.233
54880W        W14383  26.169  35.963   4.636
54881W        W14384   4.254   9.221   4.664
54882W        W14385   1.839  12.729  11.983
54883W        W14386  23.525  23.129  12.974
54884W        W14387  31.421  29.942  12.912
54885W        W14388  34.983   0.252  11.862
54886W        W14389   2.731   8.194  13.377
54887W        W14390  16.126  32.085  12.449
54888W        W14391  27.570  41.463  14.955
54889W        W14392  24.710  31.083  13.424
54890W        W14393  13.113   8.764   9.982
54891W        W14394  43.781  17.777  13.406
54892W        W14395  17.223  41.358  12.530
54893W        W14396  21.560  37.391  13.440
54894W        W14397  13.676  38.988  12.455
54895W        W14398   4.232  27.458   1.307
54896W        W14399  41.498  37.969  13.331
54897W        W14400  41.467  44.841   4.132
54898W        W14401  11.644  12.686  14.344
54899W        W14402  16.629  32.106  14.421
54900W        W14403  39.839  33.096  13.411
54901W        W14404  43.844  32.602  14.509
54902W        W14405  16.620   5.401   4.683
54903W        W14406  15.179  13.146   2.194
54904W        W14407   2.270  34.962  10.614
54905W        W14408  16.798  12.633  13.807
54906W        W14409   3.947  23.156  10.900
54907W        W14410  23.047   5.280  11.417
54908W        W14411   7.884  12.764   4.115
54909W        W14412  44.771  12.169  11.937
54910W        W14413  38.896  31.561  10.443
54911W        W14414  16.672   1.822   3.732
54912W        W14415  37.518   0.296   0.288
54913W        W14416  32.413   5.392   2.840
54914W        W14417  29.491  32.100   9.996
54915W        W14418   5.351  38.992   0.784
54916W        W14419  12.800   4.842   2.351
54917W        W14420  21.228  40.483   3.738
54918W        W14421   5.903   0.368   1.863
54919W        W14422  39.482  42.925  12.985
54920W        W14423  32.619  40.047   2.696
54921W        W14424  14.673   3.336  13.348
54922W        W14425  25.197   7.815  14.844
54923W        W14426   1.893  37.857  11.980
54924W        W14427  34.561  40.829  14.499
54925W        W14428  30.156   8.695   1.731
54926W        W14429  36.568  19.257  13.400
54927W        W14430  21.108   7.907  12.824
54928W        W14431  20.530  20.221   1.339
54929W        W14432  25.130  15.627  11.036
54930W        W14433  38.007  19.586   0.923
54931W        W14434  37.925  38.456  13.367
54932W        W14435  40.361  43.936  11.089
54933W        W14436  10.290  38.570  11.953
54934W        W14437  23.622  38.868   4.283
54935W        W14438  34.420  22.132  10.609
54936W        W14439  11.721  16.744   0.952
54937W        W14440   6.235  20.700   4.729
54938W        W14441   7.409  35.037   0.841
54939W        W14442  27.948  40.903   1.376
54940W        W14443  30.598  12.344  13.478
54941W        W14444  39.843  33.016   0.840
54942W        W14445  14.717  16.173   3.252
54943W        W14446  42.006  19.251  10.488
54944W        W14447  17.179   1.476   2.729
54945W        W14448  16.126  28.512   4.346
54946W        W14449  36.865  17.161   0.268
54947W        W14450   0.486  18.634  12.972
54948W        W14451   3.908  13.626  11.490
54949W        W14452  21.054  29.441   2.759
54950W        W14453   2.868  19.129  14.961
54951W        W14454  26.125  16.101  10.954
54952W        W14455  43.966   4.437   2.236
54953W        W14456  30.480  12.180  14.803
54954W        W14457  26.130  36.857   0.400
54955W        W14458  32.459  34.611   1.810
54956W        W14459  28.015   3.247  13.799
54957W        W14460  30.645  36.878   3.173
54958W        W14461  25.996   8.399   4.126
54959W        W14462  21.058   4.428   0.830
54960W        W14463  26.006  37.558   9.970
54961W        W14464  19.705  30.497   1.907
54962W        W14465  38.367   4.436  12.427
54963W        W14466  39.334  42.485   3.250
54964W        W14467  10.714   4.445   4.826
54965W        W14468  29.111  16.259   5.235
54966W        W14469  19.073  35.539  13.009
54967W        W14470  35.011  17.789   1.717
54968W        W14471   2.341  44.272  11.992
54969W        W14472  30.433  31.991  12.861
54970W        W14473   1.451  40.025   4.165
54971W        W14474   4.302  32.045  11.951
54972W        W14475  34.917  20.592  13.951
54973W        W14476  21.584  23.720   0.255
54974W        W14477   9.215  11.340  12.017
54975W        W14478  43.361  25.034  12.346
54976W        W14479  43.323  24.039   3.365
54977W        W14480  24.215  12.767   1.701
54978W        W14481  22.538   9.185   3.842
54979W        W14482  42.030   3.893  13.373
54980W        W14483  19.546  21.660  13.337
54981W        W14484  24.518  19.043   0.861
54982W        W14485  34.065  13.790  12.421
54983W        W14486  37.336   5.355  11.067
54984W        W14487  43.981  15.095   1.787
54985W        W14488  32.053  26.983  12.357
54986W        W14489  39.830   5.329  11.513
54987W        W14490  37.983  26.126   3.799
54988W        W14491  41.025   4.306   1.731
54989W        W14492   2.425  37.441   3.355
54990W        W14493  22.533  31.557   3.816
54991W        W14494   4.213  32.134   2.869
54992W        W14495  28.116  36.096   2.290
54993W        W14496  28.948  12.833   1.876
54994W        W14497  29.926  22.595   3.272
54995W        W14498  20.755  41.501  11.103
54996W        W14499  17.623  30.604   4.818
54997W        W14500  30.635  41.488   3.800
54998W        W14501  34.036   1.363   4.610
54999W        W14502   6.829   5.714  11.941
55000W        W14503   4.711   2.743  11.964
55001W        W14504  44.369  19.727   2.292
55002W        W14505  16.727  29.160  11.004
55003W        W14506   6.238  38.353  11.874
55004W        W14507  20.752  23.238  14.993
55005W        W14508   1.891  30.638   0.882
55006W        W14509  32.991  40.042   1.929
55007W        W14510  16.080  27.636  13.326
55008W        W14511  38.034  15.295  11.051
55009W        W14512   7.760   4.326   3.327
55010W        W14513   4.932   2.932   4.615
55011W        W14514  16.185  35.560  11.573
55012W        W14515   2.780  33.971  14.306
55013W        W14516   3.215  28.031   3.158
55014W        W14517  12.636  26.656  12.033
55015W        W14518  33.401   8.712  14.031
55016W        W14519   2.781  20.621  13.939
55017W        W14520   7.181  29.456  11.092
55018W        W14521  15.179  38.362  14.506
55019W        W14522  10.202  41.409  13.427
55020W        W14523  14.271   2.840  12.505
55021W        W14524   2.373  12.171  12.943
55022W        W14525  29.550  25.214   1.918
55023W        W14526   2.289  34.997  14.381
55024W        W14527   4.325   0.437   3.822
55025W        W14528   3.793   5.821   0.303
55026W        W14529   5.716  21.064  11.470
55027W        W14530  24.183  40.012   2.689
55028W        W14531  33.880   2.763  14.393
55029W        W14532  10.255  28.527   2.732
55030W        W14533  15.169  38.830  13.940
55031W        W14534  36.507  42.447  11.410
55032W        W14535  25.665  33.392  14.872
55033W        W14536  43.936  13.747   4.299
55034W        W14537  11.763  28.614   0.246
55035W        W14538  12.140  43.844  11.507
55036W        W14539  12.235  34.985  11.860
55037W        W14540  33.992  34.469  14.763
55038W        W14541  27.993   5.841   3.235
55039W        W14542  17.724  43.831  11.522
55040W        W14543   4.863  35.568  14.495
55041W        W14544  41.008   6.704  10.959
55042W        W14545   0.758  30.017  10.915
55043W        W14546  23.084  18.763   1.851
55044W        W14547  37.381  32.495   2.704
55045W        W14548  20.247  31.447   1.827
55046W        W14549   4.283   9.842  12.962
55047W        W14550  26.130  15.269   3.212
55048W        W14551   4.775   4.849  13.951
55049W        W14552   7.252   0.871   4.131
55050W        W14553  36.055  17.736   1.897
55051W        W14554   7.868  39.474  10.930
55052W        W14555  34.938  23.218   0.250
55053W        W14556  29.477  16.812   1.387
55054W        W14557  29.535  36.083  14.847
55055W        W14558  31.979  18.791  10.993
55056W        W14559  18.557  16.686  12.049
55057W        W14560  35.042   3.887   0.440
55058W        W14561  44.460   4.769  13.536
55059W        W14562  11.683  15.294  14.822
55060W        W14563   2.288  10.158   4.116
55061W        W14564  28.575   7.280   2.293
55062W        W14565  11.732  39.957  13.311
55063W        W14566   0.488  40.028   4.268
55064W        W14567  42.517  24.143  14.480
55065W        W14568  35.556   7.808  13.053
55066W        W14569  43.818  15.246  12.496
55067W        W14570  43.782  18.632   0.966
55068W        W14571  36.378   0.808   1.304
55069W        W14572  40.967  38.524  10.507
55070W        W14573   7.247  30.087  14.466
55071W        W14574  41.957  31.112  12.406
55072W        W14575  31.466   3.842  14.869
55073W        W14576   8.271  31.937  13.912
55074W        W14577  27.689  24.584   0.370
55075W        W14578  35.059  33.563   1.221
55076W        W14579  29.021  39.002   1.813
55077W        W14580  28.537  35.400  11.933
55078W        W14581  20.614   9.828   2.305
55079W        W14582  38.492  29.960  11.422
55080W        W14583  14.691  31.432  12.019
55081W        W14584   2.948  37.540  14.321
55082W        W14585  35.595  11.747  14.891
55083W        W14586   4.764  30.036   1.769
55084W        W14587  39.405  21.156   3.181
55085W        W14588   5.202   7.783  12.941
55086W        W14589  34.979  44.946  13.912
55087W        W14590  26.532  25.609  14.880
55088W        W14591  38.484  19.666  14.360
55089W        W14592  35.444  43.971  14.760
55090W        W14593  42.515  18.781   0.399
55091W        W14594  34.477  41.465  12.829
55092W        W14595   0.812   3.735  14.394
55093W        W14596  33.997  31.592   2.803
55094W        W14597  43.841  21.045   0.826
55095W        W14598  42.522  23.707  13.020
55096W        W14599  40.835  13.716   1.430
55097W        W14600  42.795  39.410  13.503
55098W        W14601  11.243  44.989   1.743
55099W        W14602  40.402  32.598   2.203
55100W        W14603  18.113   3.946   0.771
55101W        W14604  44.469  29.669   3.261
55102W        W14605  43.370  22.515   4.703
55103W        W14606  36.053   6.201   1.929
55104W        W14607  13.147  42.978   5.183
55105W        W14608  17.264  40.526  13.815
55106W        W14609  23.040  39.050   0.967
55107W        W14610  43.505  34.076  14.485
55108W        W14611  29.071   4.222   2.318
55109W        W14612  33.393  12.809   0.294
55110W        W14613  11.832   8.212   4.643
55111W        W14614   5.924  20.601  12.358
55112W        W14615   4.818  25.012  12.025
55113W        W14616  42.030  23.164  11.979
55114W        W14617   0.828  36.478   0.792
55115W        W14618  33.007  24.562  11.083
55116W        W14619  29.429  12.775   9.656
55117W        W14620  37.444  14.779  11.040
55118W        W14621  29.540  16.680   3.783
55119W        W14622  11.362  24.001   1.862
55120W        W14623  23.213   9.288   2.663
55121W        W14624  34.082  20.032  13.976
55122W        W14625  25.083  42.367   4.657
55123W        W14626  27.080  34.388  14.948
55124W        W14627   1.370  44.894   1.343
55125W        W14628  20.745  14.802  13.373
55126W        W14629  17.079  21.652   0.311
55127W        W14630  39.380  34.489   2.207
55128W        W14631  11.818   9.268   0.740
55129W        W14632   7.364   0.460   4.781
55130W        W14633  13.284  29.579  11.485
55131W        W14634  10.210  33.558   0.964
55132W        W14635   3.312  18.290   3.867
55133W        W14636  24.692   5.913  13.450
55134W        W14637  37.377  34.037  12.874
55135W        W14638  42.396   7.887  12.531
55136W        W14639   1.739  27.955  14.031
55137W        W14640  37.444  26.165  14.011
55138W        W14641  10.345  44.392   5.203
55139W        W14642   5.903  33.057   1.440
55140W        W14643  22.101  38.405  12.056
55141W        W14644  33.003   4.713   4.829
55142W        W14645  44.496  13.688  12.020
55143W        W14646  12.842  43.988   4.818
55144W        W14647  40.923  42.519   0.736
55145W        W14648  18.122  41.469  12.020
55146W        W14649  14.116  21.037   0.923
55147W        W14650  20.638   1.798   1.782
55148W        W14651  40.349  24.651  12.368
55149W        W14652   7.722  25.553   1.933
55150W        W14653   1.811   5.932  11.022
55151W        W14654   0.854  20.132  14.414
55152W        W14655   6.777  26.512  12.405
55153W        W14656   4.430  15.674   0.407
55154W        W14657  21.567   5.809   3.383
55155W        W14658  19.139   0.338  13.846
55156W        W14659  20.689  21.652   4.613
55157W        W14660   1.793  39.921   2.735
55158W        W14661  26.052  29.452  12.476
55159W        W14662  38.072  28.516  13.798
55160W        W14663  29.651  39.834   3.169
55161W        W14664  15.646   4.704   4.702
55162W        W14665   2.352  40.824  14.854
55163W        W14666  40.500  44.476  10.044
55164W        W14667  44.874  11.698   4.133
55165W        W14668   3.823   2.313  11.078
55166W        W14669  27.998  16.713   0.807
55167W        W14670  15.806  27.942  14.275
55168W        W14671  35.976  22.120  11.927
55169W        W14672  34.405   1.238  13.792
55170W        W14673  29.023  12.850   9.928
55171W        W14674  15.168  16.145  13.041
55172W        W14675  22.707  25.158  14.988
55173W        W14676  38.879   5.760  14.970
55174W        W14677  44.419  10.722  11.582
55175W        W14678   9.833  18.152  13.409
55176W        W14679  12.286  39.954   4.790
55177W        W14680  32.575  10.678  10.531
55178W        W14681  29.442  32.943  12.962
55179W        W14682  15.118   2.957   1.822
55180W        W14683  35.957  19.252  14.822
55181W        W14684  18.246  11.265   2.830
55182W        W14685  14.793  37.033   0.869
55183W        W14686  27.567  23.557  14.805
55184W        W14687  31.970  22.126   1.868
55185W        W14688   1.408  34.472  13.827
55186W        W14689  19.706  20.262  12.880
55187W        W14690  26.468  14.792   2.866
55188W        W14691  42.950  15.256   4.352
55189W        W14692  27.464  23.580   3.251
55190W        W14693   7.289  19.177   3.860
55191W        W14694  21.185  42.519   1.739
55192W        W14695  28.093  39.997   4.157
55193W        W14696   0.452   7.377   3.852
55194W        W14697  35.882  35.383  10.572
55195W        W14698   8.186  19.265   3.222
55196W        W14699  41.874   9.689   4.725
55197W        W14700  36.458  26.683  14.030
55198W        W14701  25.160  17.762  14.316
55199W        W14702  24.709  24.613  12.530
55200W        W14703  12.349   5.297   3.856
55201W        W14704  20.644  16.217  13.404
55202W        W14705  37.016  20.692  11.008
55203W        W14706  44.989  16.629   5.143
55204W        W14707   3.344  28.949  14.980
55205W        W14708  42.374  10.701  13.008
55206W        W14709  15.814  22.032   2.416
55207W        W14710   7.858  11.274   4.803
55208W        W14711  31.541  15.177   3.740
55209W        W14712  25.527   1.336  12.088
55210W        W14713  24.167  33.421  13.427
55211W        W14714   2.766  43.785   3.287
55212W        W14715  20.108  43.781  14.885
55213W        W14716   2.829  44.769   5.649
55214W        W14717  40.998  36.392  12.058
55215W        W14718  32.537  10.667   1.339
55216W        W14719  30.557  34.009  10.012
55217W        W14720  43.852  28.439  12.049
55218W        W14721  12.768  28.456  12.033
55219W        W14722  32.917  28.023   5.096
55220W        W14723  16.804  26.159  12.558
55221W        W14724  10.828   3.335  12.885
55222W        W14725  26.657  40.355   5.299
55223W        W14726   0.478  25.706   1.333
55224W        W14727  30.127  11.664   2.200
55225W        W14728   3.353   1.950   4.624
55226W        W14729  20.110  36.856   3.687
55227W        W14730  35.014  13.720   3.634
55228W        W14731  32.417  17.077  13.918
55229W        W14732  44.366  18.262   0.304
55230W        W14733   2.316  21.228   3.839
55231W        W14734  41.861  17.557   1.697
55232W        W14735  15.703  20.526   0.269
55233W        W14736  12.636   4.789  12.358
55234W        W14737  38.452  17.788   3.382
55235W        W14738  36.463  39.898  10.528
55236W        W14739  16.669  18.275  10.471
55237W        W14740  19.544   9.748  12.981
55238W        W14741   2.857  20.123   1.784
55239W        W14742  25.167  14.642  11.919
55240W        W14743  21.614   1.380   1.761
55241W        W14744   4.904   3.293  11.970
55242W        W14745  28.935  43.316   3.763
55243W        W14746  34.535  19.097   4.808
55244W        W14747  20.102  31.465  11.962
55245W        W14748   1.277  21.562   2.712
55246W        W14749   4.221   4.936  14.369
55247W        W14750  43.942  17.296   5.223
55248W        W14751  27.992   0.756  13.345
55249W        W14752  36.967  44.821  14.876
55250W        W14753  27.590  40.011  13.369
55251W        W14754  25.537  23.012   1.728
55252W        W14755  42.884  27.511   2.190
55253W        W14756  28.583  23.659  14.995
55254W        W14757  21.756  40.851  11.126
55255W        W14758  44.481  25.658  10.520
55256W        W14759  13.699  18.214   2.793
55257W        W14760  35.570  24.148   2.794
55258W        W14761  44.010  18.734   5.746
55259W        W14762   7.274  11.789  14.968
55260W        W14763  19.729   2.455  13.941
55261W        W14764  31.083  19.176   4.303
55262W        W14765  12.783  15.178  10.981
55263W        W14766  18.249  33.072  10.965
55264W        W14767  18.562   8.793  13.970
55265W        W14768  11.328   4.414   3.725
55266W        W14769   1.748  18.607  14.778
55267W        W14770   0.319  14.781   4.295
55268W        W14771  25.588  34.452   5.159
55269W        W14772   5.908  23.565   1.367
55270W        W14773  10.638  13.310   2.275
55271W        W14774  43.830  11.235  14.342
55272W        W14775  33.943  17.706  14.864
55273W        W14776  44.435   5.735  10.620
55274W        W14777  16.098  18.749  14.882
55275W        W14778  19.610  29.452  14.794
55276W        W14779  19.743  14.160  14.402
55277W        W14780  28.551  40.997   2.333
55278W        W14781   0.795  17.172   0.364
55279W        W14782  21.245   3.832  10.505
55280W        W14783   7.249   1.835  10.615
55281W        W14784  35.028   9.735  11.915
55282W        W14785  28.609  31.446  14.951
55283W        W14786   1.748  15.188  10.498
55284W        W14787  24.986  12.199   3.844
55285W        W14788  31.417   4.831   1.283
55286W        W14789  15.258  43.966   3.758
55287W        W14790  28.107  28.103   1.818
55288W        W14791  11.262  23.101   1.920
55289W        W14792  44.443  37.025  13.971
55290W        W14793   3.891  27.524   5.215
55291W        W14794  12.718  35.032   3.844
55292W        W14795  42.516  44.882  13.791
55293W        W14796   9.337  33.588  13.989
55294W        W14797   1.738  25.636   0.337
55295W        W14798   0.471  23.236   9.983
55296W        W14799  28.971  19.149   4.714
55297W        W14800  36.497  21.098   1.903
55298W        W14801  39.925  19.217   1.230
55299W        W14802  31.572  40.965   2.865
55300W        W14803  44.982  10.370  14.399
55301W        W14804  18.273  39.034  13.883
55302W        W14805  17.703  41.894   0.967
55303W        W14806  21.140  43.998   4.737
55304W        W14807   1.931  14.807   2.413
55305W        W14808  18.061  20.181   2.852
55306W        W14809  23.497  31.521  14.358
55307W        W14810  37.830  28.939   3.282
55308W        W14811  34.115  21.161   3.386
55309W        W14812   4.889  19.187  13.414
55310W        W14813  40.380   0.354   3.796
55311W        W14814  25.604   2.340  14.819
55312W        W14815  28.108  19.077  12.479
55313W        W14816  44.425  37.520   3.376
55314W        W14817  40.341  39.520  12.941
55315W        W14818  29.963  16.095   1.765
55316W        W14819  10.756   5.432   2.343
55317W        W14820  21.081   4.404   4.252
55318W        W14821  44.011  21.628   5.139
55319W        W14822   9.761  33.043  12.826
55320W        W14823  44.782  42.497   0.364
55321W        W14824  10.755  15.087   0.420
55322W        W14825   7.414  32.897  13.940
55323W        W14826   6.369  44.834  13.338
55324W        W14827  38.928  29.958   1.749
55325W        W14828  31.646  31.089   5.789
55326W        W14829   0.326  16.796  10.627
55327W        W14830  10.176  20.745   5.227
55328W        W14831  43.963  32.604  12.464
55329W        W14832  16.280   0.750   4.200
55330W        W14833   3.714  38.970   4.140
55331W        W14834   2.388  30.922  12.854
55332W        W14835   2.266  40.971   4.615
55333W        W14836  16.752  42.403   2.224
55334W        W14837  19.147  35.586  11.971
55335W        W14838   1.421  41.530  11.466
55336W        W14839  30.436  26.542   1.864
55337W        W14840  21.603  39.470   3.191
55338W        W14841  37.436  21.685  10.478
55339W        W14842  33.074   3.919  13.873
55340W        W14843  16.201  34.915   3.845
55341W        W14844  24.657  18.667  12.844
55342W        W14845  39.329  18.558  11.396
55343W        W14846  10.710  43.975  11.399
55344W        W14847   6.798   8.181   3.811
55345W        W14848  32.014  18.734  13.965
55346W        W14849   8.860  24.706  11.896
55347W        W14850  37.542   7.279   0.344
55348W        W14851  13.721   0.330   0.398
55349W        W14852   8.882  30.930   1.710
55350W        W14853  14.248  31.977   1.829
55351W        W14854   9.717   4.895   4.336
55352W        W14855  13.764   3.934  13.521
55353W        W14856  25.491  11.758   2.709
55354W        W14857  10.721  34.910  14.384
55355W        W14858  44.359  23.711  10.419
55356W        W14859  20.754  10.656  12.876
55357W        W14860  44.839  24.611  14.440
55358W        W14861  19.045   7.253  11.478
55359W        W14862   1.831  44.871   2.244
55360W        W14863   5.712  28.942  10.414
55361W        W14864  15.788  27.549  10.016
55362W        W14865   4.273  19.769   2.669
55363W        W14866  12.672   3.262  13.813
55364W        W14867   2.260  32.928   4.300
55365W        W14868  37.002  26.640  12.387
55366W        W14869  31.574  31.580   3.795
55367W        W14870  29.663  29.586  13.812
55368W        W14871  12.831  35.378   0.317
55369W        W14872   0.802  31.542   3.660
55370W        W14873   1.817  10.325   2.250
55371W        W14874  26.153  10.691   3.224
55372W        W14875  34.444   8.681   4.336
55373W        W14876  19.746  18.087  10.598
55374W        W14877   1.775  10.847  11.514
55375W        W14878  11.342  22.575   1.886
55376W        W14879  28.045   8.777   2.750
55377W        W14880  33.919  19.236  13.514
55378W        W14881  22.201  21.748  13.956
55379W        W14882  21.517  38.070  11.068
55380W        W14883   0.802   0.353   0.380
55381W        W14884   9.748  29.920   4.659
55382W        W14885   1.393  12.826  12.855
55383W        W14886  15.123  22.709  11.416
55384W        W14887  11.676  32.596   3.664
55385W        W14888  10.190  28.958  14.952
55386W        W14889  28.604  17.095  10.035
55387W        W14890  24.613  27.148  10.602
55388W        W14891  14.274   1.240   3.854
55389W        W14892   3.339  11.131   2.685
55390W        W14893  43.778  28.035  11.046
55391W        W14894  20.609  28.953   0.344
55392W        W14895  25.214  15.286  13.845
55393W        W14896   2.250  43.829   1.882
55394W        W14897  38.034   0.781  12.432
55395W        W14898  42.890  15.798  12.023
55396W        W14899  20.152  11.626   9.980
55397W        W14900  31.529   7.220   4.684
55398W        W14901  23.237  27.162   4.306
55399W        W14902  39.516  13.779  11.606
55400W        W14903  25.558  25.511  12.355
55401W        W14904  28.599  16.649  11.428
55402W        W14905   4.815  38.909   2.403
55403W        W14906  29.954  11.342   2.320
55404W        W14907  31.504  21.656   0.780
55405W        W14908   3.363  13.300  12.438
55406W        W14909  44.406  11.230  11.030
55407W        W14910  35.518  37.342  13.331
55408W        W14911  27.168  38.462   4.795
55409W        W14912  21.165  39.442  13.921
55410W        W14913  16.781  26.598   4.668
55411W        W14914  33.620  22.226   4.778
55412W        W14915  23.031  31.924  11.392
55413W        W14916  16.605   8.685  11.579
55414W        W14917  44.984  35.499   0.885
55415W        W14918  33.972  11.295   2.867
55416W        W14919  19.637  13.706  10.455
55417W        W14920   8.853  10.757   4.808
55418W        W14921  21.673   9.357   1.864
55419W        W14922   3.258   7.778   1.366
55420W        W14923  39.896  25.593   1.327
55421W        W14924  28.154  23.154   3.800
55422W        W14925   9.380  39.548  14.327
55423W        W14926  20.725  38.474   3.180
55424W        W14927   9.730  36.857  12.034
55425W        W14928  15.155   8.302   2.233
55426W        W14929  42.446  34.883  13.462
55427W        W14930  20.176  28.491   1.916
55428W        W14931   4.316  34.079  14.425
55429W        W14932  44.433  18.653   4.291
55430W        W14933  27.571  42.001   1.273
55431W        W14934  26.006  31.078   4.613
55432W        W14935   2.928  34.972  11.119
55433W        W14936  22.056   1.304   0.435
55434W        W14937   3.854  32.906   1.745
55435W        W14938  18.643  29.985  11.884
55436W        W14939   2.344  12.856   3.737
55437W        W14940  12.360  26.146  12.354
55438W        W14941  23.505  19.756  13.373
55439W        W14942  31.100  32.051  10.975
55440W        W14943  25.570  13.231   3.207
55441W        W14944   9.761  25.507   4.597
55442W        W14945  36.462  31.104  12.014
55443W        W14946  13.337  32.137   0.917
55444W        W14947   5.852  40.361  12.854
55445W        W14948  39.465  35.020   3.146
55446W        W14949  23.722  17.178   1.897
55447W        W14950   6.814  37.928  13.797
55448W        W14951  32.978  36.573  14.877
55449W        W14952  15.278   5.260   1.875
55450W        W14953  17.589  18.707  14.856
55451W        W14954  14.656  29.586   3.319
55452W        W14955  31.976  39.501   5.099
55453W        W14956   5.820  29.081  14.387
55454W        W14957  42.020  37.889  12.835
55455W        W14958  19.189  27.040  12.352
55456W        W14959   7.373  20.190   3.223
55457W        W14960  22.018  25.133   4.751
55458W        W14961  19.064  36.912   4.753
55459W        W14962  34.885  33.108   4.613
55460W        W14963   4.907  38.975  14.812
55461W        W14964  39.949   9.697  11.038
55462W        W14965  21.107  23.510  11.435
55463W        W14966  22.664   8.316   2.756
55464W        W14967  44.441  15.645  11.474
55465W        W14968  43.485  44.855  11.038
55466W        W14969  42.841  40.827   2.356
55467W        W14970  40.054  44.383   3.269
55468W        W14971  35.869  41.343   0.899
55469W        W14972  12.184  43.423   2.733
55470W        W14973  26.986  41.955   3.224
55471W        W14974  22.124   1.930   0.934
55472W        W14975  18.658  39.555  11.039
55473W        W14976  42.363  25.643   1.425
55474W        W14977  23.194  12.138   2.267
55475W        W14978  37.372  30.136   3.762
55476W        W14979   1.836  16.673  14.910
55477W        W14980  41.893   0.413  11.052
55478W        W14981  28.090  12.262  14.823
55479W        W14982  19.535  38.531   3.383
55480W        W14983  13.123  40.486  14.908
55481W        W14984  39.827  23.178   4.234
55482W        W14985   8.901   8.354   3.230
55483W        W14986  16.739  31.417  13.498
55484W        W14987  11.249  43.948   0.739
55485W        W14988  39.900  23.556   3.167
55486W        W14989   1.973  23.667  12.565
55487W        W14990  24.628  34.953   0.321
55488W        W14991  12.219  23.032   3.213
55489W        W14992  24.499   7.768  13.324
55490W        W14993  27.549  35.985   0.835
55491W        W14994  16.108  39.968   2.236
55492W        W14995  36.969  12.641  10.575
55493W        W14996  27.084  28.568   9.481
55494W        W14997  41.894  32.396   0.877
55495W        W14998  21.103   7.319  11.124
55496W        W14999  32.085  44.351   3.676
55497W        W15000  17.616  26.047   0.283
55498W        W15001  23.169  42.383   9.614
55499W        W15002  14.096   3.286  10.499
55500W        W15003   7.218  14.793   3.210
55501W        W15004  35.434  14.231   2.263
55502W        W15005  22.124  30.559   4.157
55503W        W15006  17.604  26.483  13.063
55504W        W15007   7.196  12.852  10.540
55505W        W15008  44.972  20.653   5.728
55506W        W15009  33.053  23.102  13.318
55507W        W15010  26.502  36.897   1.867
55508W        W15011  29.431  33.106   4.160
55509W        W15012  10.750   6.401  10.435
55510W        W15013  35.423  32.513  14.340
55511W        W15014  16.766   2.805  10.496
55512W        W15015  29.047  36.889  14.298
55513W        W15016  24.693  41.293   4.621
55514W        W15017  31.510  11.193  14.343
55515W        W15018  12.786  40.871  13.485
55516W        W15019  37.339   2.228  13.376
55517W        W15020  24.505  20.653   3.686
55518W        W15021   5.896  37.040   4.269
55519W        W15022   2.737  34.389  10.983
55520W        W15023  35.065   0.280   1.347
55521W        W15024  42.952   1.394  11.865
55522W        W15025  16.199  16.177  14.887
55523W        W15026  35.513  18.655   2.808
55524W        W15027  44.303  17.582  10.481
55525W        W15028  23.052  23.571  12.537
55526W        W15029  32.036  17.225   9.935
55527W        W15030  11.205  18.168  12.436
55528W        W15031   1.350  24.572  13.042
55529W        W15032  16.653   6.813  13.433
55530W        W15033  44.801  13.328  14.364
55531W        W15034  12.648  26.700  11.065
55532W        W15035  13.339  16.696  12.021
55533W        W15036  13.131  20.099  10.457
55534W        W15037  11.134  19.168   0.420
55535W        W15038  35.007   0.905   2.737
55536W        W15039  13.841   8.748   3.284
55537W        W15040  31.923  15.580   0.470
55538W        W15041  14.273  28.109  14.294
55539W        W15042  35.951  30.572   3.167
55540W        W15043  22.618   9.782  10.590
55541W        W15044  41.464  28.539   4.225
55542W        W15045  11.274  24.982  13.831
55543W        W15046  22.135  38.434   4.165
55544W        W15047  28.134   2.722   3.725
55545W        W15048  15.803  37.017   4.331
55546W        W15049   1.483   2.266  10.502
55547W        W15050   3.822  26.626   4.122
55548W        W15051  10.264  14.294  12.931
55549W        W15052  30.029   4.837  13.963
55550W        W15053  38.373  36.924  10.564
55551W        W15054  19.623  10.233   5.223
55552W        W15055  18.664  19.665  14.851
55553W        W15056  19.734  36.849  12.551
55554W        W15057   8.732  43.515  14.310
55555W        W15058  44.805  35.371  13.437
55556W        W15059  24.082  16.768   1.702
55557W        W15060   8.872   7.808  10.577
55558W        W15061  44.334  31.451  13.326
55559W        W15062  42.857  15.720   5.239
55560W        W15063  26.658   0.379  10.097
55561W        W15064  23.601  36.995   0.478
55562W        W15065  18.630   7.710   0.282
55563W        W15066  30.142  23.656   1.253
55564W        W15067  15.591   8.324   4.664
55565W        W15068  25.047  17.608   0.327
55566W        W15069  12.172  36.985   1.834
55567W        W15070   1.850   3.252  14.967
55568W        W15071  23.641   7.260   2.770
55569W        W15072  21.022  10.222  12.406
55570W        W15073  24.110  22.637   4.612
55571W        W15074  38.002  15.110   4.183
55572W        W15075   0.445  39.982  10.414
55573W        W15076   3.400  28.102   2.808
55574W        W15077  43.442  41.327   4.346
55575W        W15078  38.937  29.152  14.013
55576W        W15079  13.610  27.018   1.784
55577W        W15080  24.676  38.411   2.844
55578W        W15081  24.716   7.812   0.467
55579W        W15082   9.654   8.245   0.464
55580W        W15083  40.813  44.459  11.980
55581W        W15084  40.520   5.726  13.964
55582W        W15085  19.221  20.101   2.777
55583W        W15086   0.981  20.209  12.503
55584W        W15087   3.797  32.912  12.090
55585W        W15088  31.993  13.223   2.673
55586W        W15089  21.196   2.302   0.814
55587W        W15090  30.643  40.326  12.000
55588W        W15091  26.464  26.631   3.646
55589W        W15092  34.515  29.471   0.748
55590W        W15093  38.456  44.281   3.237
55591W        W15094  15.720   9.673   3.283
55592W        W15095  30.505  36.491  12.043
55593W        W15096   3.877   8.245   0.816
55594W        W15097  17.595  22.652   2.323
55595W        W15098  32.419  22.632  10.540
55596W        W15099  40.463  11.818   3.155
55597W        W15100  40.338   6.904   0.358
55598W        W15101  30.040  17.283   1.745
55599W        W15102  34.409   6.688   0.943
55600W        W15103  40.476  38.967  11.975
55601W        W15104   0.964  29.430   2.756
55602W        W15105  19.606  43.505   2.287
55603W        W15106  33.537  19.226   2.864
55604W        W15107  30.074   0.860   1.830
55605W        W15108  41.298   6.812   9.958
55606W        W15109  15.220  18.126  10.494
55607W        W15110  12.246  33.491   1.828
55608W        W15111  44.353   1.382  13.448
55609W        W15112  38.917  32.101   0.748
55610W        W15113  25.152  15.741  14.788
55611W        W15114  35.980   2.431   3.638
55612W        W15115  32.957  33.567   2.182
55613W        W15116  21.056  27.508  12.890
55614W        W15117  13.811  31.443   0.814
55615W        W15118   9.855   7.283   4.297
55616W        W15119  17.228  27.577   2.189
55617W        W15120  39.965  29.586   2.296
55618W        W15121  18.064   0.428  10.570
55619W        W15122  24.013  30.118  11.900
55620W        W15123  25.586  11.859  13.879
55621W        W15124  40.826   4.711  11.964
55622W        W15125  42.784   8.348   4.626
55623W        W15126   3.917  28.060   0.254
55624W        W15127  25.018  41.844   5.252
55625W        W15128  31.529  29.140   4.177
55626W        W15129   8.331  27.150  10.887
55627W        W15130   0.457  11.855  14.417
55628W        W15131  30.507   3.800   0.262
55629W        W15132  24.592  15.319   1.752
55630W        W15133  13.770  22.016  10.975
55631W        W15134  41.482  14.748  15.000
55632W        W15135  13.202   4.834  13.490
55633W        W15136  39.850  25.082   1.723
55634W        W15137  41.978  21.686  10.436
55635W        W15138  34.974  40.541  12.064
55636W        W15139  28.144  13.329   3.167
55637W        W15140   1.356  31.565   1.760
55638W        W15141  36.571  31.130  13.412
55639W        W15142  42.971  36.990   2.895
55640W        W15143   1.300  14.142  12.888
55641W        W15144  30.915  14.262  10.610
55642W        W15145  10.860   8.292  11.381
55643W        W15146  19.254   3.415   2.754
55644W        W15147   9.758  19.237   2.765
55645W        W15148  20.111  33.087   2.284
55646W        W15149  22.699  10.245   2.903
55647W        W15150  20.552  11.224  12.430
55648W        W15151   9.871  23.217  13.869
55649W        W15152  41.870  36.577  13.810
55650W        W15153   7.316   5.813   0.901
55651W        W15154  44.317   3.730   2.267
55652W        W15155   0.898  17.073  12.010
55653W        W15156  22.034  31.133  12.855
55654W        W15157   5.301  39.903   1.356
55655W        W15158  24.976  38.328  12.350
55656W        W15159  24.495  31.099   2.407
55657W        W15160  27.559  42.023   1.911
55658W        W15161  25.606  26.504   4.657
55659W        W15162  25.680  30.535  10.568
55660W        W15163   0.444  27.477   1.367
55661W        W15164  14.781  18.250   2.879
55662W        W15165  28.446   2.441   0.961
55663W        W15166   8.193  16.772  13.363
55664W        W15167  24.134  31.995  10.940
55665W        W15168  19.268   4.706   4.803
55666W        W15169  37.920   5.849  12.913
55667W        W15170  10.165  25.065   4.303
55668W        W15171   7.183   4.929  10.553
55669W        W15172  43.918  15.633   3.179
55670W        W15173  28.503  23.135   1.851
55671W        W15174  21.560  30.120   3.163
55672W        W15175   8.166  42.497  14.457
55673W        W15176   9.303  44.399  14.829
55674W        W15177   4.765  38.917  13.327
55675W        W15178  30.967  11.630   5.102
55676W        W15179   2.280   5.719  14.316
55677W        W15180  35.415  23.729  14.769
55678W        W15181  23.560   6.778   1.223
55679W        W15182  13.644  18.215  12.494
55680W        W15183   6.197  38.493  13.381
55681W        W15184  30.427   9.389  11.080
55682W        W15185  44.364  10.206  12.505
55683W        W15186  14.634   6.276   5.150
55684W        W15187  32.086  42.961  10.430
55685W        W15188  30.157  15.177   4.214
55686W        W15189  39.543   8.396  13.048
55687W        W15190  28.615  10.161  13.062
55688W        W15191  13.632  25.652  14.947
55689W        W15192  27.667  10.380  13.332
55690W        W15193  23.610  12.137  11.590
55691W        W15194   1.769  37.011   1.794
55692W        W15195  30.128   0.274   2.319
55693W        W15196  25.200  21.144   2.290
55694W        W15197  31.498  24.515  11.536
55695W        W15198   5.259  36.075   0.821
55696W        W15199  32.583   1.443   1.785
55697W        W15200  43.349  16.196  13.451
55698W        W15201  12.149  17.240   3.266
55699W        W15202  36.901  32.423   0.469
55700W        W15203  13.752  16.148  14.875
55701W        W15204  18.699  32.613  11.447
55702W        W15205  16.705   9.288   1.823
55703W        W15206  27.954  39.982   2.717
55704W        W15207   0.921   9.326  14.899
55705W        W15208  12.646  33.443  14.869
55706W        W15209  19.584   5.776   0.484
55707W        W15210  28.955  24.558  10.481
55708W        W15211  29.922  42.821   2.670
55709W        W15212  14.162  11.829  14.399
55710W        W15213   1.942  11.275   0.728
55711W        W15214  30.093  20.117   2.842
55712W        W15215  17.696   8.311   3.335
55713W        W15216  38.350   2.864  10.954
55714W        W15217  11.163  25.496  13.403
55715W        W15218   8.330   0.872   3.667
55716W        W15219   4.916  21.150  12.058
55717W        W15220   8.235  28.009  11.985
55718W        W15221  40.825  19.128  14.497
55719W        W15222   6.343   8.399   2.405
55720W        W15223  36.007  15.679   1.714
55721W        W15224  24.604  11.269   2.337
55722W        W15225  34.431   7.255  13.350
55723W        W15226  21.678  12.274  11.986
55724W        W15227  26.168  19.698   2.883
55725W        W15228   9.302   2.917  11.960
55726W        W15229  27.682  42.395  10.902
55727W        W15230  10.195  21.667  11.959
55728W        W15231  11.359   9.703   0.348
55729W        W15232  31.569   4.295  13.376
55730W        W15233  30.027  36.482   1.412
55731W        W15234  42.433   8.381  11.411
55732W        W15235  40.430  44.403  14.296
55733W        W15236  34.418  40.314  13.322
55734W        W15237  17.298  38.990   3.755
55735W        W15238  16.614  35.358   0.477
55736W        W15239  20.187  34.036   1.828
55737W        W15240   8.739   4.212   4.271
55738W        W15241  12.271  25.042   3.813
55739W        W15242   3.289  41.041  11.455
55740W        W15243  38.028  14.595  13.471
55741W        W15244  25.165  35.025  13.799
55742W        W15245  13.746  27.006   3.683
55743W        W15246  38.379  29.554  10.534
55744W        W15247  26.201   8.367  14.443
55745W        W15248  29.557  30.056  12.429
55746W        W15249  36.417  38.535   3.183
55747W        W15250   0.968   0.258   2.209
55748W        W15251  19.628  40.453   2.228
55749W        W15252  17.796   9.241  12.865
55750W        W15253  10.146  17.736  14.281
55751W        W15254  20.207   5.230  13.041
55752W        W15255   8.707  13.721   9.943
55753W        W15256   5.734   1.854  11.016
55754W        W15257  29.611  33.468   0.815
55755W        W15258  22.642  14.310   1.844
55756W        W15259  35.494   9.776   0.934
55757W        W15260   7.301  36.955  12.379
55758W        W15261  13.689  10.733   4.729
55759W        W15262  22.630  25.210   2.863
55760W        W15263  13.108  36.003   2.686
55761W        W15264  39.324  36.937  14.380
55762W        W15265   4.777  41.925  12.884
55763W        W15266  24.481  38.432   4.634
55764W        W15267  32.917   4.307  11.528
55765W        W15268  33.017  14.592   1.223
55766W        W15269  29.556   9.732  12.997
55767W        W15270  23.160   0.353  12.996
55768W        W15271  40.946   8.341   0.401
55769W        W15272  34.950   6.691   2.672
55770W        W15273   0.428  30.598   1.433
55771W        W15274   0.264  32.995   3.352
55772W        W15275   2.917  21.692  13.050
55773W        W15276  17.796  13.247   2.306
55774W        W15277  26.957   9.673  10.582
55775W        W15278  20.523  19.688   4.733
55776W        W15279  16.315   8.687   2.289
55777W        W15280  22.155  31.537   2.760
55778W        W15281  36.459  27.977   9.932
55779W        W15282  25.569  39.820   4.692
55780W        W15283  42.470  12.116   3.828
55781W        W15284  17.296  22.734   4.748
55782W        W15285  35.937  24.012   3.275
55783W        W15286   0.469  10.140   2.824
55784W        W15287  41.368   2.841   4.633
55785W        W15288  37.552  32.524   3.286
55786W        W15289  15.205  36.461   1.237
55787W        W15290  39.830  44.367  11.914
55788W        W15291  34.421   4.262   3.383
55789W        W15292  43.946  27.623  11.555
55790W        W15293  33.385  27.557   4.704
55791W        W15294  38.989   8.252   3.677
55792W        W15295  16.164  40.426   4.186
55793W        W15296  23.071  24.724  10.561
55794W        W15297  41.820  22.504   1.830
55795W        W15298  10.807  44.402   0.790
55796W        W15299  40.854  30.451  11.437
55797W        W15300  16.118   6.221  11.485
55798W        W15301  44.505   3.865   0.462
55799W        W15302   3.863  41.028  10.516
55800W        W15303  29.486   8.817   3.272
55801W        W15304   2.298  38.941   4.671
55802W        W15305  16.093   5.695   2.259
55803W        W15306  44.986  21.753  13.045
55804W        W15307   6.317  35.478   0.890
55805W        W15308  29.075  34.094  12.040
55806W        W15309  40.304  25.091  11.905
55807W        W15310   2.815  11.799   2.384
55808W        W15311   3.712  13.652   3.241
55809W        W15312   0.813  39.415   2.409
55810W        W15313  39.874   8.819  12.569
55811W        W15314  33.895  31.402   2.391
55812W        W15315  27.070  19.692  11.103
55813W        W15316  17.115  43.946  11.932
55814W        W15317  38.836  33.448   1.729
55815W        W15318  44.357   8.363  14.456
55816W        W15319   9.742  21.085   1.818
55817W        W15320   6.757  20.257   4.692
55818W        W15321  28.074  33.085   2.811
55819W        W15322  13.627  42.508   1.447
55820W        W15323  20.758  41.013   4.743
55821W        W15324  19.663  44.973  14.289
55822W        W15325  18.582  12.278  13.797
55823W        W15326   3.743  37.873   3.343
55824W        W15327   6.376  35.391   4.249
55825W        W15328  41.450   5.922  12.093
55826W        W15329  12.313  19.666   4.706
55827W        W15330  27.177  22.622   4.348
55828W        W15331  19.221  39.939  12.074
55829W        W15332  24.531   7.185   3.685
55830W        W15333  33.071   7.736  11.121
55831W        W15334  23.113  35.082   3.839
55832W        W15335   8.810  38.513   1.388
55833W        W15336  12.749  11.248   0.386
55834W        W15337  37.990  24.712   2.402
55835W        W15338  10.184   1.469  10.428
55836W        W15339  17.642  27.162  14.977
55837W        W15340  43.500  42.839   0.964
55838W        W15341  13.232  31.440  10.005
55839W        W15342  16.259  17.708   3.185
55840W        W15343  34.113   8.302   2.179
55841W        W15344  23.641  21.151  13.344
55842W        W15345  16.119  17.670  13.461
55843W        W15346  15.768  30.163  11.953
55844W        W15347   0.868  20.055   0.839
55845W        W15348  41.523  15.649  12.463
55846W        W15349  21.076  38.435  14.939
55847W        W15350  29.045  33.016  14.792
55848W        W15351   1.432   8.672  14.477
55849W        W15352   4.427   8.238  14.031
55850W        W15353  25.690  12.738   0.333
55851W        W15354   6.833  40.369   3.819
55852W        W15355  21.145  27.054  14.763
55853W        W15356   6.688  16.171   4.742
55854W        W15357  27.963  17.133   3.164
55855W        W15358  44.502  37.430  12.049
55856W        W15359  28.000  38.829   1.224
55857W        W15360  30.442  16.110   1.427
55858W        W15361  43.481  36.951  10.453
55859W        W15362  33.519   5.806   2.401
55860W        W15363  18.135  18.153   3.241
55861W        W15364  24.666  12.329   4.144
55862W        W15365  24.659  42.512  12.835
55863W        W15366   0.850  13.310   4.344
55864W        W15367  37.841  25.633   3.177
55865W        W15368  19.712   3.762   0.338
55866W        W15369  23.665  27.964   3.794
55867W        W15370  28.524  33.568  13.371
55868W        W15371  15.191  14.164   2.333
55869W        W15372  36.954  40.381   1.848
55870W        W15373   4.752   0.290  11.517
55871W        W15374  21.137  32.601  11.570
55872W        W15375   8.199  32.956  11.456
55873W        W15376  39.840  40.931  13.480
55874W        W15377  38.038  30.528  13.869
55875W        W15378   4.339  16.771  13.451
55876W        W15379  15.757  14.819  12.467
55877W        W15380   2.747  24.574   3.350
55878W        W15381  32.458   5.411   4.180
55879W        W15382   0.786   3.771   1.351
55880W        W15383  27.490  12.769   5.221
55881W        W15384  22.578  19.141  13.939
55882W        W15385  17.151  24.632  11.439
55883W        W15386  19.275   6.295   3.214
55884W        W15387  28.138  29.502   3.690
55885W        W15388   9.662  19.212  10.589
55886W        W15389  27.110   0.838  10.439
55887W        W15390  26.049  28.164   1.389
55888W        W15391  17.232   8.267   4.295
55889W        W15392  20.690  10.286  10.931
55890W        W15393  32.935  21.735  12.468
55891W        W15394  20.159  25.567  13.857
55892W        W15395   4.871  31.402   3.151
55893W        W15396  30.951  21.718   3.221
55894W        W15397   9.690  33.920   5.199
55895W        W15398  33.951  40.887  13.324
55896W        W15399   0.807   3.219  14.824
55897W        W15400   3.773   1.375   4.253
55898W        W15401  44.760   8.869   3.817
55899W        W15402  41.800  14.596   3.687
55900W        W15403   0.363  12.820  11.433
55901W        W15404  39.001  23.104   1.386
55902W        W15405  28.027  29.480   1.746
55903W        W15406  41.350  42.795  14.406
55904W        W15407   6.913   7.197   4.279
55905W        W15408   7.346  35.514   4.228
55906W        W15409  10.236  43.985  14.812
55907W        W15410  16.272  30.649  12.909
55908W        W15411  15.696  29.564  14.466
55909W        W15412   2.922  42.469   0.436
55910W        W15413  21.042  38.928  10.420
55911W        W15414  23.599  19.597  11.609
55912W        W15415  35.585  43.329  14.800
55913W        W15416  39.017  43.319   2.877
55914W        W15417  14.178   1.313  14.928
55915W        W15418  28.118  27.606  12.480
55916W        W15419  15.241   9.884   3.222
55917W        W15420  40.473  27.553  12.355
55918W        W15421  24.197  34.884  10.540
55919W        W15422  43.908  18.153   9.975
55920W        W15423  34.013  18.715   3.838
55921W        W15424   8.796  16.583   5.308
55922W        W15425  35.422  31.445  14.451
55923W        W15426  34.994  33.047  12.464
55924W        W15427   6.391  31.461  12.525
55925W        W15428  32.065   8.683   2.870
55926W        W15429   6.415  34.050  14.290
55927W        W15430   6.410  19.172   0.475
55928W        W15431   8.889   8.841  13.333
55929W        W15432  14.324  10.339   4.682
55930W        W15433  13.135  33.979   1.717
55931W        W15434  21.531  23.002  13.542
55932W        W15435   0.822  21.207   1.354
55933W        W15436  22.220  41.863  10.513
55934W        W15437  25.119  14.196   2.388
55935W        W15438  15.725  14.237  10.596
55936W        W15439  41.927  34.578  10.968
55937W        W15440  21.095  26.540   2.838
55938W        W15441  19.610  14.737   1.451
55939W        W15442  38.826  28.509   2.248
55940W        W15443   6.728   2.934   1.300
55941W        W15444  33.573  37.506   0.364
55942W        W15445  42.409   3.779  12.514
55943W        W15446  13.141  28.165  13.499
55944W        W15447  11.238  30.992   5.211
55945W        W15448   2.235  30.980   3.242
55946W        W15449   5.223  19.057   2.205
55947W        W15450  35.364  18.139   4.255
55948W        W15451  12.801  20.643  12.962
55949W        W15452   6.251  27.096  14.432
55950W        W15453  13.791  35.920   3.821
55951W        W15454  35.001  29.111  11.085
55952W        W15455  39.539   1.296   1.729
55953W        W15456   3.768  26.168   2.824
55954W        W15457   9.860  16.264  13.805
55955W        W15458  12.277  30.943   0.806
55956W        W15459   8.268  38.953   4.125
55957W        W15460   5.368   8.878   3.659
55958W        W15461  15.316  26.616   4.637
55959W        W15462  39.982  30.055   4.684
55960W        W15463  23.501  26.001   4.796
55961W        W15464  30.022  16.753  13.835
55962W        W15465  35.099   6.728   2.257
55963W        W15466  44.927   2.412   0.934
55964W        W15467   3.397  39.019  11.905
55965W        W15468   0.871  44.988  11.406
55966W        W15469  11.178  16.086  14.795
55967W        W15470   8.820  17.278   2.872
55968W        W15471  32.927  23.148   4.157
55969W        W15472  35.875  27.457   2.245
55970W        W15473   8.735  30.489  14.290
55971W        W15474  37.457  22.694  10.955
55972W        W15475  19.724  11.861   4.772
55973W        W15476  42.397   2.424   4.613
55974W        W15477  22.592  24.590  14.945
55975W        W15478  31.013  43.833   4.703
55976W        W15479   0.450  28.566   2.900
55977W        W15480  20.113  42.383  14.306
55978W        W15481  35.420  36.017   1.441
55979W        W15482  34.013   3.283  11.479
55980W        W15483  26.098  19.282   1.833
55981W        W15484  27.638  18.085   0.386
55982W        W15485  21.697  14.145   1.748
55983W        W15486  34.039  42.812   4.766
55984W        W15487  11.132  37.451  11.933
55985W        W15488   3.862  43.294   2.215
55986W        W15489   2.382  32.067   4.135
55987W        W15490  42.512  27.959   1.716
55988W        W15491  19.119  26.486  14.999
55989W        W15492   9.324  40.875  14.968
55990W        W15493  20.070   7.339  12.565
55991W        W15494  44.798  19.244  12.536
55992W        W15495  38.901  10.770   3.633
55993W        W15496  16.141  34.452   0.843
55994W        W15497  35.980  33.492  13.041
55995W        W15498  38.395  11.182   2.302
55996W        W15499  19.761  20.641  11.001
55997W        W15500   1.295  42.025  12.518
55998W        W15501  39.430  22.139   4.617
55999W        W15502  12.789  12.678   4.785
56000W        W15503  14.114  25.207  10.622
56001W        W15504  32.109  35.430   1.373
56002W        W15505  36.027  14.138   0.471
56003W        W15506   5.368  16.301  13.489
56004W        W15507  33.435   2.376  13.530
56005W        W15508  15.696  29.660  12.849
56006W        W15509  14.144  40.519  11.538
56007W        W15510  17.726  23.217   1.830
56008W        W15511  20.655  27.571  11.522
56009W        W15512  28.957  28.053  12.892
56010W        W15513   2.284  44.281  12.460
56011W        W15514  29.001  39.830  10.986
56012W        W15515  38.402  28.163   2.852
56013W        W15516  14.203  40.322   0.413
56014W        W15517  10.221   1.922  10.147
56015W        W15518  44.426   3.401   5.160
56016W        W15519  12.349  38.435   1.440
56017W        W15520  30.430  30.162  14.849
56018W        W15521  39.016  33.055  10.640
56019W        W15522  18.112  31.502   2.848
56020W        W15523  24.178   0.382   2.724
56021W        W15524  41.948  24.606   1.758
56022W        W15525  24.073  32.008  13.974
56023W        W15526  27.670  16.185   2.671
56024W        W15527  44.316  13.192   2.208
56025W        W15528  39.391  16.656  14.382
56026W        W15529  35.060  20.081  11.995
56027W        W15530  43.783  18.645  11.116
56028W        W15531   0.838   9.287   4.640
56029W        W15532  13.689   4.246  11.556
56030W        W15533  22.032  38.403  13.994
56031W        W15534  18.158  44.876  12.578
56032W        W15535  31.605  35.005   3.343
56033W        W15536   0.978  32.542  10.896
56034W        W15537  36.405  40.926  11.047
56035W        W15538  27.010   8.739   2.767
56036W        W15539  14.233  10.668  10.986
56037W        W15540  18.151  35.014   3.832
56038W        W15541  32.973   3.404   4.120
56039W        W15542  32.015  38.431   0.441
56040W        W15543  24.162  32.458   2.216
56041W        W15544   4.701  11.168   0.948
56042W        W15545  25.473  13.263   3.809
56043W        W15546  25.986   5.416   1.352
56044W        W15547  35.368   5.275   3.179
56045W        W15548  43.896  24.021   0.350
56046W        W15549  12.323  22.571  10.486
56047W        W15550   4.306   5.358  11.885
56048W        W15551  35.501  34.599   1.851
56049W        W15552  22.047   3.950  11.085
56050W        W15553   4.413   7.815  10.542
56051W        W15554  17.572  22.014  14.404
56052W        W15555  20.155  34.916  10.919
56053W        W15556  27.945  14.135   3.341
56054W        W15557   6.246  40.528  14.938
56055W        W15558  43.314  14.125  11.056
56056W        W15559   9.837  10.679  14.456
56057W        W15560   2.455  21.110  12.837
56058W        W15561  11.328  11.747   0.795
56059W        W15562  19.610  19.618   4.787
56060W        W15563  17.696  18.273   2.365
56061W        W15564   3.414  18.143  12.361
56062W        W15565  26.172  26.991   4.306
56063W        W15566  19.578  30.915  14.486
56064W        W15567  36.426  25.047   0.451
56065W        W15568  25.972  38.949  13.026
56066W        W15569  37.349  26.650  10.021
56067W        W15570  30.577   5.877  10.897
56068W        W15571  17.718  24.504  13.325
56069W        W15572  29.450  31.511  10.436
56070W        W15573  35.079  12.673   1.305
56071W        W15574  42.380  29.162  10.911
56072W        W15575  31.073   5.314  12.404
56073W        W15576  19.207   3.303   1.353
56074W        W15577  21.127  29.515  10.951
56075W        W15578  11.669  36.050   1.750
56076W        W15579  15.765   9.186   3.309
56077W        W15580  42.436  19.046   2.900
56078W        W15581  42.021  35.064  14.822
56079W        W15582  12.190   3.948  12.073
56080W        W15583  30.527  26.956   1.263
56081W        W15584  39.058  26.017  13.837
56082W        W15585  10.224  40.303   0.865
56083W        W15586  34.079  40.053   1.380
56084W        W15587  42.388  26.531   2.216
56085W        W15588  33.481  44.462   4.833
56086W        W15589  12.311   4.940  14.468
56087W        W15590  43.311   1.372   4.793
56088W        W15591  28.143  10.839  12.927
56089W        W15592  19.086  18.665   3.178
56090W        W15593  37.568  27.028   4.756
56091W        W15594  40.895  35.929  14.435
56092W        W15595  27.494  14.292   4.714
56093W        W15596  39.434   8.270  12.038
56094W        W15597  30.569  43.795  13.901
56095W        W15598  31.941  15.725   4.124
56096W        W15599   5.859  16.599   0.913
56097W        W15600   9.731  18.268   0.915
56098W        W15601  12.214  43.839   0.869
56099W        W15602  32.126  34.476  11.580
56100W        W15603  18.116  22.571   4.684
56101W        W15604   2.451   4.338  12.015
56102W        W15605  25.514  44.862   3.186
56103W        W15606  14.611  24.212  14.968
56104W        W15607  35.420  23.090  11.980
56105W        W15608   9.728  30.482   4.306
56106W        W15609   8.680  29.639   0.968
56107W        W15610  34.461  36.970  12.940
56108W        W15611   8.687  42.027  11.566
56109W        W15612  38.478  39.850  13.451
56110W        W15613  25.619  33.025  14.280
56111W        W15614  34.425   1.833  10.924
56112W        W15615  34.064  30.944   2.354
56113W        W15616  17.596  19.599   3.285
56114W        W15617  21.529   4.228   1.700
56115W        W15618   5.775  40.478   2.809
56116W        W15619  41.955  12.842   5.148
56117W        W15620   3.260  42.319   3.252
56118W        W15621   5.281  26.621   3.663
56119W        W15622  31.029  37.835   5.169
56120W        W15623  31.456  35.862  11.425
56121W        W15624  33.576  33.384  11.940
56122W        W15625   5.805  14.662   1.337
56123W        W15626  29.072  11.308  11.590
56124W        W15627   9.651  40.364   1.712
56125W        W15628  17.760  30.979  10.599
56126W        W15629  13.288  30.947  13.464
56127W        W15630   6.202   0.451   5.282
56128W        W15631   6.831  44.809  14.032
56129W        W15632  37.978  35.017  12.939
56130W        W15633  30.021  21.134  11.488
56131W        W15634   2.919   1.924  11.603
56132W        W15635  19.576  22.010  13.397
56133W        W15636  38.444   3.902  11.960
56134W        W15637   0.790   5.400  10.481
56135W        W15638  38.901  32.121  10.161
56136W        W15639  40.539  24.133   3.816
56137W        W15640   0.493  43.345  12.501
56138W        W15641   0.324   4.932   2.799
56139W        W15642  39.015  17.644   3.355
56140W        W15643  25.147  39.454  11.959
56141W        W15644  31.509  15.301   4.634
56142W        W15645  26.483  38.868   0.904
56143W        W15646  10.214  20.102   1.404
56144W        W15647  35.486   3.426  11.407
56145W        W15648  19.127  21.042  10.641
56146W        W15649   2.870  13.774  10.535
56147W        W15650   4.801  37.533  14.393
56148W        W15651  17.651  21.088  11.102
56149W        W15652  34.874  30.103  14.764
56150W        W15653   1.902  34.904   1.394
56151W        W15654  38.838  25.514   4.280
56152W        W15655  31.605  10.366  11.457
56153W        W15656  24.194   8.204  14.819
56154W        W15657  27.542  25.076  12.413
56155W        W15658   9.792  11.167  13.060
56156W        W15659  37.941  36.947  13.318
56157W        W15660  21.671   8.869  12.854
56158W        W15661  12.770  38.023  11.587
56159W        W15662  15.195   3.869   3.854
56160W        W15663  13.659  43.304   3.863
56161W        W15664  44.492  11.802   0.949
56162W        W15665   3.446  13.712  13.863
56163W        W15666   4.790  16.214  14.366
56164W        W15667  22.590  27.484  14.790
56165W        W15668  23.566  28.504  13.498
56166W        W15669  12.157  17.574   0.455
56167W        W15670  20.635  37.525  13.059
56168W        W15671   7.219  35.951   3.301
56169W        W15672  21.525  37.842  12.902
56170W        W15673  16.617   6.398   4.651
56171W        W15674  25.163  39.335  11.419
56172W        W15675  28.450  36.082  13.465
56173W        W15676   8.864  32.067  14.012
56174W        W15677  10.767  42.466  11.091
56175W        W15678  21.667  16.216  10.566
56176W        W15679   3.426  28.670   3.192
56177W        W15680  43.513  25.177  11.912
56178W        W15681  29.094  30.621  13.521
56179W        W15682  10.692  23.704   1.702
56180W        W15683   6.323  14.667   4.724
56181W        W15684  35.364  37.056  13.921
56182W        W15685  38.389  22.230  14.003
56183W        W15686   3.887  43.799  14.787
56184W        W15687  32.142  29.089   2.690
56185W        W15688   9.743  43.407   2.383
56186W        W15689  13.782  17.081   3.323
56187W        W15690  11.267  39.340   2.797
56188W        W15691  32.946  10.245  13.456
56189W        W15692   0.796  44.271   2.349
56190W        W15693  14.811  37.570   2.860
56191W        W15694  23.116  36.498  13.390
56192W        W15695  32.891  33.622   1.845
56193W        W15696  14.267  32.464  12.441
56194W        W15697  24.537  16.146   4.194
56195W        W15698  15.097   4.401   4.319
56196W        W15699  20.713   0.986  13.544
56197W        W15700   2.313  42.465  13.967
56198W        W15701  12.289  26.146  14.897
56199W        W15702  19.106  17.744  12.043
56200W        W15703  18.619  14.127  14.001
56201W        W15704  24.073  20.627   0.411
56202W        W15705  25.576  13.622  14.415
56203W        W15706  32.943   6.756  13.323
56204W        W15707  31.408  31.635  12.014
56205W        W15708  40.480   0.913  11.082
56206W        W15709  32.591  11.186   1.864
56207W        W15710  29.629  39.964  10.904
56208W        W15711  11.651  12.808  14.939
56209W        W15712  27.965  24.229  12.503
56210W        W15713  34.998   2.242  10.987
56211W        W15714  39.424  13.629  12.085
56212W        W15715  29.026  30.458   0.845
56213W        W15716  23.682  30.556   1.425
56214W        W15717  13.112  19.140  13.357
56215W        W15718   8.856  19.562  13.833
56216W        W15719  16.187   8.206  10.890
56217W        W15720  37.055  35.017  11.421
56218W        W15721  20.149  10.219   4.348
56219W        W15722  15.702  38.946   1.791
56220W        W15723   2.285  21.610   0.276
56221W        W15724   8.356  34.001  14.950
56222W        W15725   6.335  29.645  12.497
56223W        W15726   4.797  13.663   3.817
56224W        W15727  23.037   7.339  13.018
56225W        W15728  31.635   3.314   0.473
56226W        W15729   7.816  24.514  11.886
56227W        W15730  34.911  26.030  12.064
56228W        W15731  12.729  23.558  14.453
56229W        W15732   3.231  14.269  11.896
56230W        W15733  24.142   7.289   2.216
56231W        W15734  38.444   2.311  14.866
56232W        W15735  14.195  39.934  13.803
56233W        W15736  23.514  25.997  11.935
56234W        W15737  20.028  32.465   3.197
56235W        W15738  30.007   3.727   0.960
56236W        W15739  42.424  31.493   4.269
56237W        W15740  41.403  28.941   0.295
56238W        W15741  27.616  27.505  12.545
56239W        W15742  18.204  17.636   0.727
56240W        W15743  27.053   0.371  14.926
56241W        W15744  31.005  30.958  14.890
56242W        W15745  32.059  36.864  10.930
56243W        W15746  43.946  42.946   5.178
56244W        W15747  19.202   5.928   4.742
56245W        W15748   5.233  24.545  14.478
56246W        W15749  28.184  15.206  11.523
56247W        W15750  10.217   5.314  12.922
56248W        W15751  35.430  22.697   4.247
56249W        W15752   3.848  26.562   5.252
56250W        W15753  40.994  24.025   3.640
56251W        W15754  13.149  12.204   3.214
56252W        W15755  43.905  33.046  12.005
56253W        W15756   3.387  26.994  12.944
56254W        W15757   3.400  24.230  11.124
56255W        W15758   6.827  39.950  14.963
56256W        W15759  19.743  14.149  12.903
56257W        W15760  35.476  25.503  11.443
56258W        W15761  16.261  20.217   2.823
56259W        W15762   2.762  22.006  13.518
56260W        W15763  34.543  25.157   4.745
56261W        W15764  36.910  10.308  14.420
56262W        W15765  26.114  28.573  11.940
56263W        W15766   2.260   1.329  10.977
56264W        W15767  18.138  34.882  13.361
56265W        W15768  40.863  37.833   0.354
56266W        W15769  15.628  18.087   2.267
56267W        W15770  20.655  14.662   1.442
56268W        W15771  26.184  39.428   0.331
56269W        W15772  37.084  20.747   2.322
56270W        W15773  39.509  35.020   2.797
56271W        W15774  23.596  19.224  14.944
56272W        W15775  28.042  23.673  10.604
56273W        W15776  35.096  21.129  14.443
56274W        W15777  40.979   2.822   2.178
56275W        W15778   4.936   2.391  11.596
56276W        W15779  43.293  19.742   1.448
56277W        W15780  18.724  13.337  12.878
56278W        W15781  26.466   1.819  13.986
56279W        W15782  32.635  24.485  14.784
56280W        W15783  42.782  27.042   0.271
56281W        W15784  26.039   1.243  13.357
56282W        W15785   1.875  42.011  12.369
56283W        W15786  43.860  25.537  14.861
56284W        W15787  40.410   3.927   3.649
56285W        W15788  21.150  10.682   2.783
56286W        W15789  16.245   4.870  10.919
56287W        W15790  42.352  10.787  13.891
56288W        W15791  22.144  20.621   1.291
56289W        W15792  31.418  43.791   0.477
56290W        W15793  40.803  43.796   1.440
56291W        W15794  44.388  24.023   2.263
56292W        W15795  32.529   4.213  12.361
56293W        W15796  42.907  25.545   0.820
56294W        W15797  26.053  38.558  12.857
56295W        W15798  16.793  36.006  10.962
56296W        W15799  42.511  14.133  14.412
56297W        W15800   5.280  33.424  11.045
56298W        W15801  21.554   5.270   2.718
56299W        W15802  13.844  22.506  10.603
56300W        W15803  28.001  32.448   1.792
56301W        W15804  10.873   2.798   4.282
56302W        W15805  34.529  17.785  13.460
56303W        W15806  12.231  28.611   2.744
56304W        W15807  12.845  39.524  14.923
56305W        W15808  17.769  25.167  14.782
56306W        W15809  13.663  10.758   4.210
56307W        W15810  17.072  16.803   2.855
56308W        W15811  15.210  14.700  13.904
56309W        W15812  25.069   4.217  10.591
56310W        W15813  13.798  42.848  11.050
56311W        W15814  12.275   7.902  10.907
56312W        W15815  23.018  19.052   1.306
56313W        W15816  20.146  11.162  13.368
56314W        W15817  25.653  20.545  10.905
56315W        W15818  42.019  27.554  10.969
56316W        W15819  11.315  36.049   2.681
56317W        W15820  39.515  34.437   0.841
56318W        W15821  17.233  44.292  12.074
56319W        W15822   8.330  31.464  12.506
56320W        W15823  30.416  31.479  13.881
56321W        W15824  11.650  16.695   1.382
56322W        W15825  28.599   5.730  10.414
56323W        W15826  42.291   5.269   9.651
56324W        W15827  17.176  19.180  14.864
56325W        W15828  35.938  29.969  12.867
56326W        W15829  18.598  33.433   5.129
56327W        W15830  39.838  24.609   2.275
56328W        W15831  41.507   8.201  11.386
56329W        W15832  15.724  20.097  12.485
56330W        W15833  38.061  42.826  13.326
56331W        W15834  36.412  31.541  12.004
56332W        W15835  44.370  42.338   2.316
56333W        W15836  28.542  13.675  12.514
56334W        W15837  30.975  10.158  10.988
56335W        W15838   3.370  25.634  13.966
56336W        W15839  35.517   8.320   1.765
56337W        W15840  18.690   5.224  13.529
56338W        W15841  36.046  32.563   4.138
56339W        W15842   5.862  16.190  12.004
56340W        W15843   3.228  12.808  11.865
56341W        W15844  29.056  24.546  12.366
56342W        W15845  32.077  18.610  13.535
56343W        W15846  17.700  34.391   4.153
56344W        W15847  21.522  20.201   1.871
56345W        W15848   0.457  28.044   0.370
56346W        W15849   6.776  15.150  11.933
56347W        W15850   4.833  20.186  12.397
56348W        W15851  29.173   5.333   3.723
56349W        W15852  24.011  41.992  10.571
56350W        W15853  17.213  26.486   3.749
56351W        W15854   7.417  20.610  14.002
56352W        W15855  40.418  33.107  12.529
56353W        W15856  28.987  31.550   1.774
56354W        W15857  41.383  27.555   4.318
56355W        W15858  31.421  39.946   9.954
56356W        W15859  32.605   7.409  10.996
56357W        W15860  16.201   0.372  12.410
56358W        W15861  12.807  15.106  13.854
56359W        W15862   9.349  28.600  10.942
56360W        W15863   0.454  40.990  14.966
56361W        W15864  26.068  23.540  10.992
56362W        W15865   8.744  15.199   1.874
56363W        W15866   0.361  33.425  10.434
56364W        W15867  13.162   9.219   3.788
56365W        W15868  27.188   5.195  13.322
56366W        W15869  32.992  44.995   1.746
56367W        W15870  35.535  17.294   1.842
56368W        W15871  17.074  19.065   0.315
56369W        W15872  27.169  25.975   4.351
56370W        W15873  21.215  41.400  14.934
56371W        W15874   2.450  36.016   4.742
56372W        W15875  30.959  17.181  12.546
56373W        W15876  36.498  25.981  13.792
56374W        W15877  19.737  29.664  13.022
56375W        W15878  37.081   4.707   0.443
56376W        W15879  12.173  15.685  11.958
56377W        W15880  36.082  25.000  10.566
56378W        W15881  10.203  15.160   0.765
56379W        W15882  31.914  32.398   4.273
56380W        W15883  25.555  10.180  14.969
56381W        W15884  31.545  23.681  14.963
56382W        W15885  39.389  36.359  14.469
56383W        W15886  20.040  44.906  12.389
56384W        W15887  34.438  42.947   0.461
56385W        W15888  42.398  32.454   4.734
56386W        W15889  13.279   0.815   4.808
56387W        W15890  38.847  40.341   5.290
56388W        W15891  22.173  26.525   2.761
56389W        W15892  14.618  38.884  12.885
56390W        W15893  31.476  22.143   2.185
56391W        W15894  42.318  43.296  11.027
56392W        W15895  24.721   4.789   1.868
56393W        W15896   4.206  39.848  11.460
56394W        W15897   1.438  36.528  14.284
56395W        W15898  37.500  35.394   1.350
56396W        W15899   5.843  22.625   1.369
56397W        W15900  42.350  31.908   4.770
56398W        W15901  43.286  31.632  10.996
56399W        W15902  10.863  23.579  11.906
56400W        W15903  39.361  11.770  12.374
56401W        W15904  30.923  28.501   2.273
56402W        W15905   4.871  10.326   4.309
56403W        W15906  16.784  38.564  13.489
56404W        W15907  43.945  40.986  13.052
56405W        W15908  30.030  28.013  12.356
56406W        W15909  43.293  13.262  14.288
56407W        W15910  36.098   2.432   1.273
56408W        W15911   0.769  43.911  14.773
56409W        W15912  22.125   3.740  12.019
56410W        W15913  17.789  24.647   0.967
56411W        W15914  37.069  10.351   0.930
56412W        W15915  28.573   2.453   1.344
56413W        W15916   6.913  11.196   3.204
56414W        W15917  37.882  20.749   3.871
56415W        W15918  39.361  13.824  14.450
56416W        W15919  30.946   5.703   1.806
56417W        W15920   5.787  15.175   5.580
56418W        W15921  13.809  23.060  12.008
56419W        W15922  18.184  16.812   0.287
56420W        W15923  31.956   2.287  13.022
56421W        W15924  29.141   5.368  12.388
56422W        W15925  22.201  41.358   3.651
56423W        W15926  26.499  23.638  11.876
56424W        W15927  29.630   1.759  13.428
56425W        W15928  43.474  30.133   0.374
56426W        W15929   3.287  43.882  14.480
56427W        W15930  38.537  43.896  14.339
56428W        W15931  21.065  38.525   1.243
56429W        W15932  35.370  32.114   3.269
56430W        W15933   9.776  13.312   1.415
56431W        W15934   7.326  17.131   0.803
56432W        W15935  44.447   6.390  14.766
56433W        W15936  37.072   8.278   1.802
56434W        W15937  31.091  33.023  11.997
56435W        W15938  41.435   8.805  12.901
56436W        W15939   0.849  23.173   3.798
56437W        W15940  32.519  12.770  10.139
56438W        W15941  29.043   8.193  13.448
56439W        W15942  42.435  14.646   4.656
56440W        W15943  40.947  27.183   4.612
56441W        W15944   0.261  35.422  11.894
56442W        W15945  41.974  41.951  14.508
56443W        W15946  12.765   3.859   0.843
56444W        W15947  25.991  35.382   0.266
56445W        W15948  15.084  42.396  12.092
56446W        W15949  28.026   3.286   5.152
56447W        W15950   8.824  36.354   1.378
56448W        W15951  40.467   3.870  12.930
56449W        W15952   1.862  36.033  12.461
56450W        W15953  10.324   2.232   1.306
56451W        W15954   5.323  20.050   0.447
56452W        W15955   3.443  38.988  12.913
56453W        W15956  33.573  38.513   4.734
56454W        W15957  16.106  23.588  14.488
56455W        W15958  26.956   3.423   1.695
56456W        W15959  43.781  33.572  13.888
56457W        W15960  41.338   7.815  10.918
56458W        W15961  17.207  26.685  10.939
56459W        W15962   2.378  17.115   0.847
56460W        W15963  15.255  36.049   2.820
56461W        W15964  32.001  40.855   4.337
56462W        W15965  39.866  39.387  14.400
56463W        W15966  21.075  39.019  13.330
56464W        W15967   1.879  41.479   0.321
56465W        W15968  35.084  35.909  12.348
56466W        W15969  27.192   6.383  14.871
56467W        W15970  27.689  23.601   1.803
56468W        W15971  33.622  27.046   3.868
56469W        W15972  18.623   0.782   4.681
56470W        W15973   6.832  27.560  14.471
56471W        W15974  13.134   4.349  11.401
56472W        W15975  32.120  39.519   4.193
56473W        W15976  33.032  22.174   2.383
56474W        W15977  44.478  37.475  13.451
56475W        W15978  35.062   3.256  10.092
56476W        W15979  17.701   0.488   1.877
56477W        W15980   3.917   9.237   1.277
56478W        W15981  35.075  15.132  10.423
56479W        W15982  42.903  36.095   0.398
56480W        W15983   0.957   9.200  10.983
56481W        W15984  10.848  34.950  13.879
56482W        W15985  12.157  25.677   3.806
56483W        W15986   9.201   6.708  12.043
56484W        W15987   6.314  43.344  12.579
56485W        W15988  12.855  33.566  11.068
56486W        W15989  35.438  26.658  12.937
56487W        W15990  26.953  42.012  12.465
56488W        W15991  32.950  29.133  11.439
56489W        W15992  16.576  21.565   3.324
56490W        W15993   9.692  18.217   3.192
56491W        W15994  39.897  32.129   4.307
56492W        W15995  11.641  13.696   0.441
56493W        W15996  21.585  30.918   0.293
56494W        W15997   2.303  30.105   3.847
56495W        W15998  10.760  42.795  11.476
56496W        W15999  43.921  35.985   2.186
56497W        W16000   4.264  17.084   4.282
56498W        W16001   7.795  41.323  11.532
56499W        W16002  10.323   0.743  10.461
56500W        W16003  41.929  25.557   1.722
56501W        W16004  25.523  44.298  11.407
56502W        W16005  21.628  27.502  14.994
56503W        W16006   4.831  28.614   4.620
56504W        W16007  10.197  36.562  14.974
56505W        W16008   7.221  13.838  14.973
56506W        W16009  28.051  13.112   2.857
56507W        W16010  42.827  35.521   3.824
56508W        W16011   4.430  38.033   1.748
56509W        W16012  23.145  36.409  12.065
56510W        W16013  27.600  37.830  13.532
56511W        W16014  19.601  33.602   4.313
56512W        W16015  28.492  28.448   3.357
56513W        W16016   3.771  34.455   2.360
56514W        W16017  20.660  29.555  14.834
56515W        W16018  39.318  23.190  10.407
56516W        W16019  21.599  13.747  13.802
56517W        W16020  39.407   6.903   5.648
56518W        W16021   8.688  36.071   0.347
56519W        W16022   3.793  20.039  14.512
56520W        W16023  42.302  32.621   0.407
56521W        W16024  14.316  12.343   3.312
56522W        W16025  44.908  19.622  13.485
56523W        W16026   2.384  11.226  11.900
56524W        W16027  22.501   8.399  13.875
56525W        W16028  39.899  35.055  13.340
56526W        W16029  21.245  13.201  13.534
56527W        W16030  23.133   7.213   3.803
56528W        W16031  28.679  15.304  13.504
56529W        W16032   8.346  17.750   1.813
56530W        W16033  26.013   4.826  14.500
56531W        W16034   3.797   8.809  14.890
56532W        W16035  43.457  11.145  12.569
56533W        W16036  15.813  40.528  11.517
56534W        W16037   3.332  19.045  12.384
56535W        W16038  21.129   6.335   1.796
56536W        W16039  21.607   3.811   4.648
56537W        W16040   4.260  10.674   1.449
56538W        W16041   1.395   3.215   1.792
56539W        W16042  15.085  10.234   2.206
56540W        W16043  35.434  35.368   3.639
56541W        W16044  32.536  43.347  10.950
56542W        W16045  26.488   2.863  14.506
56543W        W16046  19.264  13.305  12.007
56544W        W16047  38.948  25.626   2.390
56545W        W16048  32.404   0.318   1.337
56546W        W16049  38.465  23.196  11.966
56547W        W16050  41.809  24.146  10.549
56548W        W16051  22.603  42.410  12.529
56549W        W16052   0.770  20.259   5.715
56550W        W16053  29.474  37.858   2.704
56551W        W16054  31.526  32.978   4.132
56552W        W16055   2.845   1.924  10.619
56553W        W16056  11.219  25.078   4.322
56554W        W16057  33.893  27.027   4.624
56555W        W16058  17.102   7.196   0.413
56556W        W16059  17.756  19.699  12.427
56557W        W16060  31.474   3.892   1.922
56558W        W16061  38.516  23.120  13.497
56559W        W16062  13.315  26.088  11.117
56560W        W16063   5.276   2.920   4.623
56561W        W16064  31.975  23.995   0.285
56562W        W16065  23.988  29.625  12.939
56563W        W16066   4.932   7.299  11.484
56564W        W16067  26.966  38.388   3.736
56565W        W16068  25.622  22.618   3.858
56566W        W16069  38.933   0.477   0.425
56567W        W16070  20.106  37.086  11.986
56568W        W16071   3.896  13.319  11.062
56569W        W16072  35.471  33.098   3.863
56570W        W16073  43.393  17.708   2.409
56571W        W16074  44.472  38.385  12.497
56572W        W16075  25.097  10.821   4.663
56573W        W16076  25.122   8.785  10.427
56574W        W16077   4.229  19.110   1.280
56575W        W16078  27.944  13.803  10.445
56576W        W16079  18.570  20.180   0.962
56577W        W16080   1.826  41.866  10.962
56578W        W16081  26.604  10.763  10.547
56579W        W16082   1.275  41.941   4.815
56580W        W16083   7.300  33.976   4.646
56581W        W16084  21.536  20.571   3.805
56582W        W16085  33.127  30.441  13.963
56583W        W16086  42.438  27.510  10.473
56584W        W16087  16.676  39.970  12.417
56585W        W16088   7.380  11.308  13.060
56586W        W16089  33.580  23.563  11.520
56587W        W16090  28.141  37.371  13.419
56588W        W16091   9.758   6.368  12.882
56589W        W16092   1.735   7.306   4.204
56590W        W16093  39.552  19.678   4.218
56591W        W16094  17.267  39.323   4.299
56592W        W16095  29.149  31.934  13.422
56593W        W16096  39.554  31.597   2.845
56594W        W16097  11.824  11.644   5.134
56595W        W16098  13.210  16.077   3.281
56596W        W16099  42.005   2.800   2.368
56597W        W16100  11.213  11.286   2.336
56598W        W16101  14.311  10.158   0.439
56599W        W16102   3.896  25.530  14.347
56600W        W16103  19.738  30.492   0.784
56601W        W16104  38.413  36.013  12.567
56602W        W16105  28.496  30.928  11.539
56603W        W16106   2.890  32.121   2.223
56604W        W16107   3.365  21.692   0.799
56605W        W16108  41.841  18.124   4.349
56606W        W16109  11.645  35.009   2.788
56607W        W16110  20.107  44.352  11.082
56608W        W16111  28.577  17.567   2.301
56609W        W16112   1.428   5.295   1.225
56610W        W16113  38.512  20.618  12.570
56611W        W16114  31.525  43.388  14.882
56612W        W16115  10.355  19.600  13.421
56613W        W16116  14.246   5.903  14.934
56614W        W16117   7.796  17.713   3.219
56615W        W16118  28.011  42.828   5.082
56616W        W16119  13.781  41.505  12.070
56617W        W16120  14.616  25.575   0.389
56618W        W16121  42.969  35.968   1.386
56619W        W16122  22.607  38.480   1.246
56620W        W16123   9.180  42.810   1.416
56621W        W16124  23.067  29.628   0.298
56622W        W16125  26.953  37.928  13.516
56623W        W16126  35.493  35.430   2.312
56624W        W16127   0.782  16.136   1.248
56625W        W16128  22.537   8.807   3.763
56626W        W16129   2.354  32.554   2.706
56627W        W16130  22.657   1.242   1.712
56628W        W16131  31.985  22.155   3.818
56629W        W16132  25.066  35.053  13.396
56630W        W16133   0.979   6.698  11.959
56631W        W16134  12.664  36.913   1.348
56632W        W16135  25.116  33.004  12.936
56633W        W16136  18.770  44.297   4.191
56634W        W16137   1.804  21.576   1.843
56635W        W16138   4.438  15.776   4.674
56636W        W16139  30.539  13.309  14.455
56637W        W16140   3.374  21.652   1.719
56638W        W16141  28.033  26.663   5.252
56639W        W16142   4.284   7.701   3.192
56640W        W16143   4.741   5.365  10.527
56641W        W16144   1.774  26.554   4.233
56642W        W16145  31.137  33.510   4.277
56643W        W16146   4.776   0.358  13.938
56644W        W16147  18.194  13.620  14.358
56645W        W16148   2.328  18.552  14.980
56646W        W16149  19.075   9.363  13.909
56647W        W16150   2.306  39.386   4.253
56648W        W16151  27.512   9.313  12.945
56649W        W16152  27.069  22.509  11.937
56650W        W16153  17.158  10.260   1.446
56651W        W16154  23.603  28.112   4.614
56652W        W16155   7.811  30.990   1.927
56653W        W16156   3.222  13.135   1.846
56654W        W16157  43.309  36.961  11.095
56655W        W16158  43.775  41.324   0.912
56656W        W16159  10.202  29.538  13.857
56657W        W16160  28.997   0.327  12.039
56658W        W16161   9.155  32.098   3.185
56659W        W16162  20.730  35.063   2.875
56660W        W16163  44.279  32.938  11.578
56661W        W16164  17.167  10.348  13.425
56662W        W16165  21.651   4.309  11.535
56663W        W16166  12.806  17.579  13.902
56664W        W16167   6.219  32.885   4.819
56665W        W16168  21.032  28.618  10.531
56666W        W16169   2.899   2.768  12.490
56667W        W16170  16.704  39.508  13.884
56668W        W16171  27.082   5.255  10.964
56669W        W16172  23.692  21.555  14.515
56670W        W16173  42.386   0.948   2.213
56671W        W16174  42.338  15.129   2.414
56672W        W16175  24.644   4.912   3.804
56673W        W16176   4.859  21.521   4.756
56674W        W16177   7.762   5.320   1.744
56675W        W16178  23.994  30.417   2.180
56676W        W16179  42.032  12.673   3.711
56677W        W16180   5.845   5.747  13.920
56678W        W16181  41.831  35.540  14.933
56679W        W16182   3.788  44.423   0.736
56680W        W16183  38.961  24.141   1.249
56681W        W16184   8.675  39.956   3.351
56682W        W16185   8.196  29.033  14.433
56683W        W16186  30.053  20.641   0.728
56684W        W16187  40.851  32.393   0.904
56685W        W16188   3.826  37.983  12.966
56686W        W16189   9.334  44.392   2.768
56687W        W16190  30.630  11.302  12.089
56688W        W16191   7.769  13.139  11.588
56689W        W16192  33.524  17.286  10.504
56690W        W16193  22.047  44.396   3.858
56691W        W16194  44.299  31.066   2.815
56692W        W16195  36.844  23.647   1.287
56693W        W16196  21.644  34.537   1.872
56694W        W16197  29.582   4.911  13.421
56695W        W16198  15.303  11.165   0.882
56696W        W16199  13.761  29.530  11.963
56697W        W16200  31.905  14.289  10.475
56698W        W16201  16.162  41.994   3.159
56699W        W16202   0.285  42.390   2.265
56700W        W16203  35.512  19.690   2.385
56701W        W16204  42.900   1.733  12.879
56702W        W16205  22.212  14.604   0.939
56703W        W16206   6.832   8.357  13.868
56704W        W16207  39.990   9.292  12.065
56705W        W16208   7.356  25.038   0.328
56706W        W16209  31.986  15.086   4.344
56707W        W16210  11.294  42.443   3.276
56708W        W16211  36.381  11.652   4.224
56709W        W16212  41.791  25.024  14.370
56710W        W16213  29.112   3.766  14.398
56711W        W16214  27.544  24.675   2.317
56712W        W16215  44.946   3.224   0.860
56713W        W16216  15.140  23.638  12.010
56714W        W16217  12.721  16.264  14.332
56715W        W16218  44.299  19.686  11.026
56716W        W16219  18.055  27.998  12.402
56717W        W16220  22.074  33.076   4.217
56718W        W16221  44.881  32.568   1.700
56719W        W16222  29.951  24.122   1.297
56720W        W16223  29.041  23.101  13.829
56721W        W16224  16.299  25.167   1.829
56722W        W16225   6.408  38.494  13.986
56723W        W16226  35.368  28.650   3.799
56724W        W16227   2.759  11.777   4.290
56725W        W16228  36.903   5.409  11.428
56726W        W16229  41.897  10.655  13.434
56727W        W16230  38.846   4.782   0.326
56728W        W16231  20.734  26.201   0.316
56729W        W16232  33.596  24.156  14.411
56730W        W16233  34.387   9.234  11.097
56731W        W16234  11.786   3.924   4.221
56732W        W16235  34.896  33.481  14.357
56733W        W16236   3.923  10.221  11.029
56734W        W16237   5.329  18.159   1.874
56735W        W16238  17.172  38.437   1.249
56736W        W16239  18.200  12.687   0.294
56737W        W16240  26.187  41.306   4.649
56738W        W16241  43.845   9.382   4.202
56739W        W16242  24.705  11.752  14.852
56740W        W16243   1.461  29.138   0.430
56741W        W16244  35.592  23.241  10.551
56742W        W16245  11.292  30.040   9.534
56743W        W16246  39.364  40.851  12.570
56744W        W16247   7.826  11.659   3.315
56745W        W16248  11.799  34.023  10.465
56746W        W16249  10.697  12.194   4.295
56747W        W16250   5.891  44.372   3.779
56748W        W16251  43.406  18.259  12.457
56749W        W16252   6.899  25.196  12.057
56750W        W16253  10.855   1.294   0.409
56751W        W16254  28.605  32.098  11.053
56752W        W16255  20.707  38.441   2.821
56753W        W16256  43.297  24.644   2.383
56754W        W16257  17.578  41.344  11.927
56755W        W16258  44.278   2.804   4.809
56756W        W16259  31.647  26.070   0.864
56757W        W16260  12.739   3.403  13.315
56758W        W16261  34.536   0.904   2.846
56759W        W16262  25.706  18.671   2.749
56760W        W16263  31.620  26.098  14.780
56761W        W16264  36.439   8.371  13.339
56762W        W16265  11.277  38.492  14.899
56763W        W16266   9.340  30.141  12.493
56764W        W16267  11.775  11.142   1.403
56765W        W16268  12.611  17.571  13.434
56766W        W16269  42.352  31.039  14.984
56767W        W16270  26.962  29.168   2.699
56768W        W16271  35.369   9.840   3.314
56769W        W16272  17.195  10.770  14.031
56770W        W16273  40.975  10.850   0.293
56771W        W16274  17.274   1.396  11.981
56772W        W16275  35.928   6.268  10.119
56773W        W16276  29.613  44.417   3.847
56774W        W16277   3.812  38.438  12.004
56775W        W16278   9.341   8.715   1.248
56776W        W16279  28.048  32.590  11.032
56777W        W16280  26.502   7.863  11.515
56778W        W16281  33.031   9.850  12.955
56779W        W16282   9.843  23.040   4.809
56780W        W16283  39.511  14.214  11.399
56781W        W16284  11.332  12.842  12.922
56782W        W16285  10.190  10.758   0.906
56783W        W16286  15.673  22.740  12.446
56784W        W16287  39.318   8.335   3.167
56785W        W16288  26.066  22.551  12.835
56786W        W16289  16.133  21.065  11.908
56787W        W16290   0.314  33.951  12.049
56788W        W16291  44.372  11.318   3.779
56789W        W16292  31.559   0.324  10.571
56790W        W16293  37.391   6.418   2.224
56791W        W16294  23.153  14.177   1.807
56792W        W16295  11.226  24.025   4.251
56793W        W16296  31.422  42.841  11.966
56794W        W16297  25.138  26.124   1.861
56795W        W16298  30.427  44.453   4.117
56796W        W16299  18.729  42.503   1.244
56797W        W16300   7.869  44.000  11.071
56798W        W16301   8.732   8.289   3.678
56799W        W16302  14.684  29.602  10.456
56800W        W16303  11.194  15.703   1.310
56801W        W16304   0.798  26.182   1.443
56802W        W16305  17.788  38.899   4.607
56803W        W16306  32.947  29.508   4.302
56804W        W16307  30.471  12.690  12.823
56805W        W16308  24.553  23.003  10.426
56806W        W16309  31.896   6.263  11.497
56807W        W16310   6.696  12.694  13.904
56808W        W16311  31.560  40.860  12.926
56809W        W16312  26.057  34.586  11.095
56810W        W16313  31.452  28.075   2.819
56811W        W16314  26.606  38.883  12.942
56812W        W16315  16.207  43.435   2.189
56813W        W16316  29.021   9.367   3.763
56814W        W16317  27.170  15.322  13.802
56815W        W16318  25.670  10.365   3.385
56816W        W16319   9.201  26.511  10.506
56817W        W16320   4.354  34.594  10.928
56818W        W16321  21.084  14.280   1.860
56819W        W16322  16.103  20.070   2.417
56820W        W16323  38.472  29.445  11.881
56821W        W16324   5.885  20.083   2.418
56822W        W16325  39.823  22.701   2.696
56823W        W16326  39.003  28.587  14.831
56824W        W16327  39.399   3.815  10.449
56825W        W16328  15.614  10.148  13.889
56826W        W16329  14.205  28.115   2.209
56827W        W16330  25.703   3.759  14.900
56828W        W16331  35.374   2.765  11.541
56829W        W16332  22.239  35.060   2.189
56830W        W16333  35.560  34.411  11.045
56831W        W16334  21.645  30.557   5.279
56832W        W16335  13.827  14.163  12.840
56833W        W16336  27.463  20.189  13.050
56834W        W16337  43.958  31.026  11.875
56835W        W16338  23.236  23.116  14.435
56836W        W16339  14.722  42.871   4.720
56837W        W16340  34.537  19.086   1.312
56838W        W16341   0.951  22.027   0.787
56839W        W16342  33.042  21.598   2.821
56840W        W16343  22.243  44.937  11.388
56841W        W16344  40.352  35.965  11.960
56842W        W16345  27.501  11.820   4.204
56843W        W16346  26.019  22.641  12.501
56844W        W16347  43.988  34.587   2.722
56845W        W16348   7.371  19.668  13.791
56846W        W16349  25.683   7.300   1.257
56847W        W16350  40.045  35.533   3.275
56848W        W16351  20.713  18.258   4.205
56849W        W16352  37.395  32.444   4.732
56850W        W16353  40.342   6.693   0.904
56851W        W16354  35.392  16.100  10.448
56852W        W16355   6.248  36.044   2.357
56853W        W16356  10.780  21.240   3.304
56854W        W16357  34.453  42.472  13.408
56855W        W16358  24.510   9.318  11.086
56856W        W16359  32.611  15.658  13.984
56857W        W16360   1.942   1.951  10.987
56858W        W16361  23.025   1.764  12.019
56859W        W16362  38.984  16.160  13.854
56860W        W16363  18.259  26.088  12.895
56861W        W16364   2.296  24.011   3.751
56862W        W16365  28.435  27.949   0.314
56863W        W16366   7.698  28.049   2.736
56864W        W16367  28.458  21.713  13.816
56865W        W16368  22.718  38.976   0.773
56866W        W16369  42.845  17.558  11.486
56867W        W16370  20.265   7.683   1.875
56868W        W16371  32.093   1.852  13.460
56869W        W16372  17.791  36.960  13.860
56870W        W16373  39.946  24.616  13.467
56871W        W16374  18.181   8.657   2.374
56872W        W16375  32.985  21.134   0.793
56873W        W16376   2.421  32.477  11.868
56874W        W16377  27.535  19.192   0.778
56875W        W16378  39.847   1.941  14.942
56876W        W16379  24.654  31.597   0.384
56877W        W16380  11.831  38.332   3.710
56878W        W16381  42.403  14.665   3.749
56879W        W16382  12.245  17.702  10.484
56880W        W16383  10.352  19.071   0.810
56881W        W16384  22.549  40.947   2.376
56882W        W16385  31.993  34.557  14.341
56883W        W16386  23.234  37.877  12.344
56884W        W16387  24.115  12.160  11.971
56885W        W16388  38.330  20.193   0.767
56886W        W16389   9.702   9.712  11.901
56887W        W16390  16.233  12.765   0.276
56888W        W16391  42.425  29.477  12.077
56889W        W16392   1.348  37.410  14.787
56890W        W16393  28.032   5.915  12.359
56891W        W16394  19.266  33.926   1.427
56892W        W16395  12.323  15.106   0.477
56893W        W16396  26.627  13.676  12.959
56894W        W16397   8.364  27.682   0.903
56895W        W16398  30.458   8.778  12.944
56896W        W16399  13.843  39.839   3.729
56897W        W16400  10.376  23.227  13.821
56898W        W16401  20.255  36.495   2.224
56899W        W16402  23.122  26.575  12.832
56900W        W16403   3.742  19.278   0.244
56901W        W16404  14.748  34.529   1.755
56902W        W16405  13.218  23.054  12.043
56903W        W16406   1.237  13.160   4.148
56904W        W16407  11.767   4.336   1.750
56905W        W16408   8.825  23.689  14.814
56906W        W16409  28.468  39.851   0.325
56907W        W16410  42.985  18.074  14.297
56908W        W16411  25.609   4.778   2.273
56909W        W16412  31.635  14.597   3.858
56910W        W16413  33.625  13.316  12.499
56911W        W16414  18.671  24.121   4.218
56912W        W16415  32.112  25.539   0.746
56913W        W16416  17.303  20.105   1.363
56914W        W16417   3.788  35.518  14.349
56915W        W16418  18.111  42.863   0.362
56916W        W16419  44.842  22.249  10.040
56917W        W16420   8.832  28.058  10.610
56918W        W16421  37.063  29.613  10.627
56919W        W16422  39.557  41.944   3.309
56920W        W16423  23.130  12.338  11.613
56921W        W16424  40.519  22.119  14.857
56922W        W16425  15.750  26.685  13.061
56923W        W16426  36.094   1.248   0.265
56924W        W16427  27.662  29.043   4.736
56925W        W16428  35.967   3.295  13.040
56926W        W16429  20.219  26.613  13.029
56927W        W16430  13.248  44.945   3.357
56928W        W16431   1.751  23.523  13.829
56929W        W16432   5.370  27.542  11.571
56930W        W16433  35.898  11.667   1.794
56931W        W16434  22.601  36.480   1.250
56932W        W16435  23.522  26.487  13.312
56933W        W16436   1.847   3.920   4.742
56934W        W16437  25.033  12.633   4.322
56935W        W16438  17.233   9.681  11.076
56936W        W16439  31.454  15.736  11.513
56937W        W16440  44.456  32.450   4.662
56938W        W16441   3.824  34.077   0.397
56939W        W16442  35.917  31.900  13.945
56940W        W16443   9.307  34.546  11.530
56941W        W16444  35.990  43.333  13.342
56942W        W16445   4.358  32.934  12.976
56943W        W16446  13.637  15.100   2.404
56944W        W16447  36.452  31.461   4.180
56945W        W16448  28.128  10.199   2.205
56946W        W16449   3.729  31.905  12.478
56947W        W16450  12.212   5.435  14.325
56948W        W16451  41.499  36.010   0.427
56949W        W16452   8.188  20.597   3.809
56950W        W16453   9.177  25.534  13.001
56951W        W16454  39.394  31.609   4.269
56952W        W16455  25.138  37.540  14.300
56953W        W16456  25.195  39.955  11.480
56954W        W16457  10.683  21.125  13.970
56955W        W16458  38.830  44.854  13.883
56956W        W16459  11.749  26.072   1.825
56957W        W16460  24.040  43.961  10.995
56958W        W16461  27.181  25.469  12.061
56959W        W16462   7.351  41.471  11.982
56960W        W16463  23.608  30.974  12.836
56961W        W16464  18.663  25.989  13.359
56962W        W16465   2.797   5.345   2.811
56963W        W16466  31.477  38.466   4.168
56964W        W16467  17.301  30.564  11.954
56965W        W16468   2.800  31.987  12.565
56966W        W16469  16.074  35.999  14.883
56967W        W16470  39.060  28.113   0.310
56968W        W16471   2.392   9.319   3.212
56969W        W16472  36.985  31.933  13.031
56970W        W16473  26.188  41.337   1.277
56971W        W16474  24.640   9.330   1.789
56972W        W16475  43.340  28.981  12.543
56973W        W16476  33.558  15.686   0.310
56974W        W16477  35.079  17.695  14.857
56975W        W16478  19.559  38.826  11.072
56976W        W16479  28.002  33.059   4.787
56977W        W16480  30.579  13.220   3.340
56978W        W16481  18.790  44.461   1.256
56979W        W16482   8.170  31.989  12.889
56980W        W16483  33.093  44.499   1.439
56981W        W16484  13.640  12.699   3.283
56982W        W16485  43.881  26.671  13.968
56983W        W16486   7.350  36.386  11.961
56984W        W16487  11.798  20.132   1.744
56985W        W16488  43.469  16.092  11.459
56986W        W16489  41.022  43.785  13.798
56987W        W16490   7.717  26.489  10.910
56988W        W16491  33.105  33.971   1.294
56989W        W16492   1.380   0.748   0.902
56990W        W16493  15.130  17.641  14.821
56991W        W16494   9.681   2.726  12.548
56992W        W16495  33.486  28.559  11.983
56993W        W16496  36.083  40.950   0.810
56994W        W16497  26.512  27.609   1.248
56995W        W16498   8.309   9.228   1.443
56996W        W16499  13.816  14.252   4.818
56997W        W16500  41.411   3.250   4.207
56998W        W16501  35.402  10.164   0.479
56999W        W16502  27.024  25.610   3.717
57000W        W16503  38.410  32.467  14.928
57001W        W16504   8.658  37.459   2.777
57002W        W16505   4.791  31.551  12.458
57003W        W16506   5.217  23.217  14.974
57004W        W16507  31.625   3.300   2.805
57005W        W16508  22.185  25.649   4.743
57006W        W16509  33.445  37.350  14.288
57007W        W16510  30.582   4.743  14.292
57008W        W16511  25.116   7.665  12.548
57009W        W16512  24.002  44.894  10.470
57010W        W16513  22.539  39.460  11.387
57011W        W16514  14.811  24.687  12.831
57012W        W16515  24.176  15.781   0.753
57013W        W16516   2.380  33.922   4.692
57014W        W16517  22.218  32.598   4.718
57015W        W16518  15.607  44.505   3.285
57016W        W16519  13.180  38.833   3.740
57017W        W16520   8.248  42.942   3.748
57018W        W16521  29.055  40.333   9.998
57019W        W16522  32.919  20.576  14.909
57020W        W16523  34.067  28.561  14.824
57021W        W16524  27.475  28.518  13.414
57022W        W16525  44.336  27.074  11.420
57023W        W16526   7.199  18.199   1.340
57024W        W16527  14.314  40.983   3.691
57025W        W16528  44.769  44.883  10.638
57026W        W16529  21.626  41.922  11.432
57027W        W16530  12.255   1.317  11.468
57028W        W16531   3.807   9.235  12.869
57029W        W16532  21.738  35.106  12.092
57030W        W16533  36.569  44.897  11.532
57031W        W16534  41.346  36.955  12.990
57032W        W16535  10.204   1.912  12.472
57033W        W16536  28.597  38.336   0.355
57034W        W16537  16.573  31.967   0.862
57035W        W16538  10.683  19.553   5.094
57036W        W16539  35.933  16.254  14.305
57037W        W16540  44.497  39.819  14.831
57038W        W16541  33.396  38.536   1.861
57039W        W16542   8.685  27.563   2.698
57040W        W16543   1.373   8.894   0.291
57041W        W16544  44.367  25.651   1.815
57042W        W16545  25.676  36.495   2.305
57043W        W16546  14.764   6.854  13.449
57044W        W16547  34.890  39.424   9.517
57045W        W16548  11.737  37.379  13.524
57046W        W16549  25.140  20.594   1.420
57047W        W16550  31.097  37.997  10.003
57048W        W16551  14.625  19.133   2.212
57049W        W16552   4.716   0.360   4.316
57050W        W16553  43.363  44.997  13.307
57051W        W16554   3.281   5.927   1.349
57052W        W16555   7.696   0.469   1.364
57053W        W16556   9.823  18.098  14.367
57054W        W16557  42.959  40.305   4.295
57055W        W16558   4.394  32.570   1.337
57056W        W16559  23.517  19.067  10.979
57057W        W16560   6.744   5.332   2.831
57058W        W16561  19.649  13.221  12.426
57059W        W16562   6.845   3.332  10.140
57060W        W16563  21.623  12.631  10.953
57061W        W16564  30.940  30.092  10.514
57062W        W16565  34.990   3.286  14.910
57063W        W16566  41.361  27.943  13.952
57064W        W16567  28.483  33.018  13.830
57065W        W16568  39.030  11.775   3.719
57066W        W16569  34.873   5.435   0.839
57067W        W16570  44.854   6.312  11.573
57068W        W16571  26.650   7.316  11.873
57069W        W16572  12.302  39.889  13.036
57070W        W16573  44.962   4.346   0.903
57071W        W16574   3.949  39.856  12.875
57072W        W16575  25.105  11.718  13.459
57073W        W16576  19.698  29.081  12.926
57074W        W16577  43.302  33.579  12.966
57075W        W16578  29.109  20.554  12.504
57076W        W16579  18.596   9.345  10.579
57077W        W16580   9.858   3.717   1.843
57078W        W16581  37.937  32.003   3.711
57079W        W16582   9.172  17.701   4.764
57080W        W16583  34.612  36.590  13.033
57081W        W16584  15.182  18.701  11.114
57082W        W16585   3.414  25.627   1.219
57083W        W16586  13.113  10.294   4.805
57084W        W16587  23.146   0.957  14.842
57085W        W16588  11.668  16.096  13.811
57086W        W16589  44.897  24.169   1.811
57087W        W16590   4.436  21.260  11.961
57088W        W16591  34.114  23.161  12.402
57089W        W16592  26.156  42.343   4.673
57090W        W16593  18.080   6.308  14.903
57091W        W16594  43.021  19.120  13.416
57092W        W16595   4.711   1.902  12.929
57093W        W16596   5.198  37.868   4.225
57094W        W16597  11.761   8.376   1.381
57095W        W16598  32.116  27.148   1.724
57096W        W16599   0.415  20.057  12.015
57097W        W16600  39.000  25.175   1.700
57098W        W16601  39.061  34.048   1.722
57099W        W16602  27.576  28.465   4.626
57100W        W16603  29.992  12.213  10.974
57101W        W16604  31.927  34.501  12.044
57102W        W16605   2.316  36.460   2.890
57103W        W16606  44.825  24.099  10.951
57104W        W16607  41.438  30.541  10.531
57105W        W16608   9.175  30.933   3.714
57106W        W16609  32.083  26.681   3.218
57107W        W16610  28.100   7.702   1.758
57108W        W16611  12.637  11.137   0.855
57109W        W16612  19.535  33.545   4.768
57110W        W16613   8.255  37.887  10.891
57111W        W16614  37.549  42.338  13.489
57112W        W16615  15.702  30.012   3.171
57113W        W16616  17.105  13.250  12.083
57114W        W16617  42.949  25.131   3.859
57115W        W16618   3.249  32.611   2.390
57116W        W16619  40.907  20.527  12.929
57117W        W16620  44.879   1.823  14.867
57118W        W16621  12.293   7.314   0.271
57119W        W16622  29.426  23.664   3.213
57120W        W16623  22.625   4.725  12.841
57121W        W16624   1.750  10.311   0.473
57122W        W16625   8.831  26.957  10.444
57123W        W16626  38.427   4.283  13.339
57124W        W16627  18.570  18.264  13.934
57125W        W16628  28.009  28.442  11.961
57126W        W16629  10.847  18.260   2.244
57127W        W16630  36.478  31.980  14.462
57128W        W16631  39.990  36.419   2.754
57129W        W16632  43.880   0.844   4.655
57130W        W16633  32.617  43.281  13.914
57131W        W16634  38.516  13.294   4.787
57132W        W16635  12.787  29.469  11.397
57133W        W16636   5.230  30.016  14.385
57134W        W16637  34.609  40.986   2.270
57135W        W16638   2.819  28.038   1.223
57136W        W16639  16.570  25.170   3.865
57137W        W16640  36.873  30.094   3.168
57138W        W16641  20.062   8.768  11.536
57139W        W16642  30.007  30.071   0.743
57140W        W16643  31.107  26.163   2.275
57141W        W16644   2.441   4.708   4.205
57142W        W16645   4.777  40.873   3.652
57143W        W16646  14.246  19.092   3.729
57144W        W16647  10.776  34.944  12.348
57145W        W16648  17.559   2.756  11.520
57146W        W16649  24.499  41.480   1.222
57147W        W16650  41.357  35.404  11.448
57148W        W16651  42.000   8.212   0.815
57149W        W16652  38.928  14.699  11.550
57150W        W16653  19.709  10.289   4.677
57151W        W16654  13.311  26.699   2.246
57152W        W16655  13.669   4.809  14.846
57153W        W16656  31.052  37.454   2.365
57154W        W16657  25.650  35.461   4.645
57155W        W16658  10.670  39.381  13.941
57156W        W16659  29.137  24.181   4.644
57157W        W16660   6.899   5.258   1.336
57158W        W16661  37.046  24.489   1.281
57159W        W16662  22.604  27.019   3.686
57160W        W16663  43.371  44.978   2.267
57161W        W16664  21.675  42.948  11.968
57162W        W16665  21.545  34.869  12.900
57163W        W16666  15.150  23.506  10.943
57164W        W16667   4.910  32.620  13.478
57165W        W16668  29.924  32.474   3.648
57166W        W16669  21.025   1.255  13.469
57167W        W16670  35.092  25.157  13.500
57168W        W16671   6.272  31.622  10.897
57169W        W16672  23.658   8.812   0.797
57170W        W16673  29.490  31.452  13.307
57171W        W16674  13.628  31.079   0.429
57172W        W16675  35.038   5.332   3.743
57173W        W16676  42.416   5.695  13.064
57174W        W16677  24.107  39.822   4.226
57175W        W16678  38.898   8.796   2.276
57176W        W16679  14.817  25.488  14.989
57177W        W16680  40.469   5.203   3.154
57178W        W16681  25.162  40.821  13.499
57179W        W16682  28.599   5.813   4.308
57180W        W16683  26.966  40.935   2.762
57181W        W16684  14.102  22.014   4.703
57182W        W16685   3.419  17.236  12.489
57183W        W16686   4.888   3.230  14.893
57184W        W16687  10.338  27.476   2.691
57185W        W16688  28.573  43.365  14.783
57186W        W16689   5.228  12.720  12.949
57187W        W16690  10.187  43.470  13.373
57188W        W16691  15.145   8.676  10.985
57189W        W16692  40.468  35.596   1.379
57190W        W16693  15.641  27.141  14.023
57191W        W16694  34.081  13.824  13.886
57192W        W16695  21.654  20.096   2.297
57193W        W16696  10.206  28.545   0.429
57194W        W16697  26.042  34.402   3.276
57195W        W16698  35.374   3.942   2.739
57196W        W16699   0.810  44.397   0.245
57197W        W16700  43.934   0.317  11.900
57198W        W16701  12.668  31.628  14.385
57199W        W16702  27.456   8.302   4.227
57200W        W16703  40.406   9.711   9.975
57201W        W16704  27.962  28.435   5.270
57202W        W16705  39.987   8.794  13.378
57203W        W16706  25.512  44.881  11.068
57204W        W16707  11.234  44.474   2.699
57205W        W16708   9.374   2.275  12.484
57206W        W16709  44.320   9.350   1.885
57207W        W16710  30.616  27.951   0.941
57208W        W16711   5.800  13.740  11.583
57209W        W16712   0.813  25.538  13.541
57210W        W16713  26.658   1.259  12.340
57211W        W16714  37.435  42.315  12.036
57212W        W16715  42.507   6.237  12.067
57213W        W16716  25.193  14.195  10.585
57214W        W16717  29.048  43.839   3.631
57215W        W16718   0.912   8.383  13.056
57216W        W16719  22.719  20.246   0.852
57217W        W16720   1.387  33.072  13.529
57218W        W16721  36.517  22.136  14.004
57219W        W16722  13.844   3.457  14.330
57220W        W16723  27.473  13.261  12.860
57221W        W16724  34.963  29.155  12.839
57222W        W16725   6.293   2.279   4.774
57223W        W16726  36.347  39.473  11.375
57224W        W16727  17.595  38.460  12.933
57225W        W16728  37.458  30.031  13.412
57226W        W16729  22.621  38.925  13.919
57227W        W16730  30.007  10.834   2.283
57228W        W16731   2.423  11.790   4.333
57229W        W16732  30.969   5.318  11.034
57230W        W16733  40.023   7.406  11.610
57231W        W16734   4.442  32.092  14.426
57232W        W16735   6.374  21.706  13.943
57233W        W16736  26.540  19.740   2.256
57234W        W16737  36.055  20.581  11.609
57235W        W16738  16.290  14.210  14.804
57236W        W16739   6.807  43.346   0.303
57237W        W16740  14.262  24.183   4.156
57238W        W16741  24.513   9.761  11.472
57239W        W16742  11.208  16.670  11.459
57240W        W16743  27.691  25.712  10.982
57241W        W16744  43.427   4.402   0.324
57242W        W16745  33.594  14.827   2.832
57243W        W16746  27.690  39.850   4.212
57244W        W16747  30.025  14.668   1.239
57245W        W16748  13.750  19.570  13.024
57246W        W16749  28.088  31.437  12.466
57247W        W16750  21.263  28.522   3.282
57248W        W16751  40.919  11.836   2.740
57249W        W16752  36.442   1.350  11.374
57250W        W16753  41.377  24.581   2.361
57251W        W16754  41.487  15.774  12.858
57252W        W16755   9.644   1.850  11.117
57253W        W16756   3.886  16.630  13.477
57254W        W16757  38.857  39.056   4.168
57255W        W16758  29.620  14.273   2.404
57256W        W16759  35.480  37.978   1.777
57257W        W16760  14.318  37.981   4.211
57258W        W16761   9.226  31.914   4.815
57259W        W16762  32.407  17.126  12.995
57260W        W16763  10.709  24.132  10.892
57261W        W16764  13.233  10.288   5.224
57262W        W16765   2.420   3.751   2.900
57263W        W16766  39.336   7.252  13.441
57264W        W16767   0.812   7.376  11.884
57265W        W16768  41.002  34.976   2.223
57266W        W16769   3.431  33.876   1.705
57267W        W16770  14.750  35.492  11.974
57268W        W16771  37.035  12.289  10.621
57269W        W16772  39.445   0.908  13.058
57270W        W16773  26.487   1.911  12.036
57271W        W16774  40.913   2.759  12.962
57272W        W16775   0.900  19.583   0.483
57273W        W16776   8.265  10.725   4.271
57274W        W16777   4.758  30.022  13.962
57275W        W16778  17.758  29.592  14.981
57276W        W16779  37.867  42.902   3.856
57277W        W16780  35.426  23.043  11.416
57278W        W16781  29.560   2.790   3.805
57279W        W16782   8.898   8.171   0.756
57280W        W16783   0.316   7.671  12.435
57281W        W16784   0.911  12.187   3.297
57282W        W16785  20.206  40.041  11.427
57283W        W16786   1.388   7.834   2.782
57284W        W16787  26.995   5.232   1.214
57285W        W16788  35.970   3.889  12.484
57286W        W16789  40.331  33.384   9.942
57287W        W16790  14.260   8.327   3.302
57288W        W16791  17.763   8.699   3.173
57289W        W16792  33.446  36.572  12.879
57290W        W16793  35.075  17.627  14.401
57291W        W16794  13.316   5.230  11.083
57292W        W16795  13.106   6.224   0.451
57293W        W16796  42.283  14.663   1.358
57294W        W16797  19.643   6.703   2.849
57295W        W16798  38.511   3.227  13.861
57296W        W16799  27.523  23.720   0.914
57297W        W16800  42.908  13.118   0.957
57298W        W16801   3.762  39.965   2.814
57299W        W16802  14.235   9.792   4.250
57300W        W16803  16.579  27.500  12.984
57301W        W16804  12.661  16.800  13.791
57302W        W16805  41.833  41.919  11.406
57303W        W16806  14.729   0.896  13.361
57304W        W16807   3.714  36.384   1.892
57305W        W16808  23.005  37.471  13.467
57306W        W16809  18.184  23.992  14.868
57307W        W16810  27.458  28.058   2.314
57308W        W16811  22.043  39.881  13.997
57309W        W16812  10.668  12.821  11.513
57310W        W16813   2.365  11.712  14.939
57311W        W16814  43.277  38.479  11.118
57312W        W16815  12.728   6.306   3.169
57313W        W16816  21.648  38.438   0.775
57314W        W16817  35.506  36.417   0.788
57315W        W16818   3.913  15.666  11.987
57316W        W16819  17.277  11.314   4.835
57317W        W16820  29.953  18.116  14.774
57318W        W16821  11.297  21.575  13.370
57319W        W16822  37.528  32.041   2.745
57320W        W16823   9.772  42.790   2.727
57321W        W16824  15.611   7.324   3.814
57322W        W16825  16.626  21.556  14.979
57323W        W16826  41.791  27.150   3.314
57324W        W16827  15.276  10.151  12.055
57325W        W16828  25.517  33.938   1.841
57326W        W16829  12.754  18.207  11.597
57327W        W16830  13.313  42.877  13.336
57328W        W16831   7.886  35.982   1.765
57329W        W16832  33.513  34.554  12.419
57330W        W16833  26.471  24.065  14.427
57331W        W16834  14.766  25.152  14.943
57332W        W16835  38.845  19.178  13.358
57333W        W16836  35.854   4.447   0.748
57334W        W16837  42.407  31.611   1.422
57335W        W16838  22.741  21.263  12.345
57336W        W16839  17.778   1.243  10.555
57337W        W16840   0.347   6.286   1.772
57338W        W16841  16.743  12.311  12.386
57339W        W16842  37.479  40.535  12.892
57340W        W16843  23.616  44.938   5.170
57341W        W16844   2.810  43.434  12.465
57342W        W16845  37.990  14.793   4.771
57343W        W16846  43.853   1.880  12.879
57344W        W16847  32.612  17.716  10.546
57345W        W16848  13.649  37.898  13.908
57346W        W16849  23.099  37.949   4.649
57347W        W16850   5.219  32.951  12.888
57348W        W16851   1.321  22.208  12.388
57349W        W16852  29.132  37.888   2.816
57350W        W16853   2.426  26.499   0.894
57351W        W16854   3.299   1.371  10.590
57352W        W16855   7.213  13.317  10.974
57353W        W16856  25.596  37.873  13.445
57354W        W16857   0.284  22.541   4.751
57355W        W16858  20.189  31.442  13.371
57356W        W16859  32.400  14.640  12.473
57357W        W16860   4.875  14.181   1.403
57358W        W16861  40.517  36.952  14.316
57359W        W16862   4.704  25.629  11.868
57360W        W16863  33.106  42.787  14.882
57361W        W16864  36.564   4.851   2.820
57362W        W16865  36.847  36.086   0.936
57363W        W16866  32.484  25.471  11.553
57364W        W16867  31.953   7.878   0.420
57365W        W16868  44.803   7.236  14.798
57366W        W16869  33.000  26.016  14.405
57367W        W16870  17.768   4.368   2.407
57368W        W16871  13.791  34.553   0.855
57369W        W16872   6.814  43.490  12.902
57370W        W16873  44.359  17.208   3.291
57371W        W16874  36.541  38.417  12.871
57372W        W16875  13.298  29.624   5.094
57373W        W16876  16.157  38.433  12.060
57374W        W16877  44.958   2.771  10.514
57375W        W16878  12.685   0.864   2.361
57376W        W16879   6.182   0.263  10.064
57377W        W16880  15.616  30.035  14.866
57378W        W16881  32.979  18.553   1.416
57379W        W16882  32.476  27.014  13.412
57380W        W16883  39.060  30.076   1.376
57381W        W16884  44.855  43.378  11.022
57382W        W16885   8.209   8.672   0.901
57383W        W16886  14.335   9.313   0.349
57384W        W16887  42.475   5.818  10.993
57385W        W16888  23.570  31.504   4.600
57386W        W16889  24.655  44.440   1.908
57387W        W16890  26.979  20.701  10.524
57388W        W16891  32.060  16.215   0.938
57389W        W16892  41.535  41.990  14.965
57390W        W16893  32.099  25.114  11.970
57391W        W16894  40.020  42.845  14.462
57392W        W16895  36.915  28.107   3.846
57393W        W16896  35.562  37.349  14.778
57394W        W16897  10.194  42.292  11.490
57395W        W16898  38.027  18.056   4.131
57396W        W16899  29.156  43.397   1.722
57397W        W16900  25.706  22.077  10.513
57398W        W16901   9.311   4.420   1.212
57399W        W16902   2.958   2.274   0.458
57400W        W16903  14.281   1.859  12.507
57401W        W16904  25.062  32.487  12.016
57402W        W16905   4.378  26.148  12.367
57403W        W16906  20.138   3.304  10.936
57404W        W16907  20.070  41.475  11.601
57405W        W16908  34.594  42.457  11.897
57406W        W16909  29.089  26.985   1.839
57407W        W16910  38.832  14.596   0.393
57408W        W16911  25.576  35.059   0.405
57409W        W16912  37.079   2.794   1.432
57410W        W16913  30.004  12.194  10.055
57411W        W16914  16.768   1.961  11.105
57412W        W16915  33.939  26.131   5.097
57413W        W16916   7.369  34.439  13.898
57414W        W16917  24.606   3.909   1.388
57415W        W16918  34.510  25.028  14.804
57416W        W16919  27.577  25.017   0.789
57417W        W16920  35.399  25.019   1.413
57418W        W16921  37.447   4.935  14.873
57419W        W16922  24.500   3.808  12.520
57420W        W16923  15.312  29.665   1.298
57421W        W16924   4.945   5.206   2.783
57422W        W16925  20.693  15.681   0.792
57423W        W16926  30.136  44.504  10.986
57424W        W16927  43.299  44.497  11.420
57425W        W16928  12.660  13.149  12.395
57426W        W16929  39.388  29.138   4.810
57427W        W16930   2.859  26.985   0.345
57428W        W16931  25.168  11.349  10.414
57429W        W16932  37.910  40.927  13.502
57430W        W16933   3.945  34.119   4.700
57431W        W16934  20.528  25.105  14.314
57432W        W16935  19.704  14.112  11.939
57433W        W16936   0.475   1.330  13.003
57434W        W16937  39.468  20.644  11.011
57435W        W16938  25.605  42.458   3.203
57436W        W16939  19.671  18.222   4.646
57437W        W16940  16.264   4.836   9.946
57438W        W16941  38.386   2.249   4.770
57439W        W16942   6.383  39.504   1.799
57440W        W16943  17.686   0.898   2.775
57441W        W16944  40.347  40.028  14.398
57442W        W16945   2.845  41.038  10.437
57443W        W16946   5.276  35.582   2.795
57444W        W16947   3.818  25.101  11.423
57445W        W16948  18.735  20.756  14.322
57446W        W16949  22.694  10.668  12.566
57447W        W16950  35.463  19.098  10.577
57448W        W16951   8.705  31.605  11.601
57449W        W16952  43.421  23.628  12.471
57450W        W16953   2.735  18.684   3.172
57451W        W16954   3.924  29.095   3.776
57452W        W16955  40.391  34.445   2.712
57453W        W16956   7.284  25.599  12.095
57454W        W16957  34.925  35.542   2.773
57455W        W16958  32.092  31.559   0.391
57456W        W16959  15.644  11.808   1.280
57457W        W16960  34.586  35.857   1.313
57458W        W16961  10.258  43.866   3.663
57459W        W16962  13.777  31.528  14.405
57460W        W16963   8.833  16.136   5.624
57461W        W16964   7.780  12.813  14.424
57462W        W16965  16.684  26.664   5.119
57463W        W16966  41.882  28.144   4.158
57464W        W16967  18.689  32.133  11.014
57465W        W16968  26.642   6.918   4.158
57466W        W16969  17.275   1.454  14.016
57467W        W16970  37.462   2.314  12.842
57468W        W16971  21.145  29.932  12.919
57469W        W16972  34.375  24.138   4.727
57470W        W16973  28.180   3.254   1.913
57471W        W16974  11.645  32.411  12.823
57472W        W16975  30.515  10.363   1.217
57473W        W16976  25.178  20.041  12.068
57474W        W16977  13.138  44.916   0.443
57475W        W16978  14.780  30.439  14.868
57476W        W16979   4.927  42.923   4.715
57477W        W16980   2.791  23.678   3.374
57478W        W16981  26.457  14.115  14.806
57479W        W16982  42.296  44.946   1.330
57480W        W16983  32.523  34.394  14.842
57481W        W16984   7.336  36.501  12.555
57482W        W16985   6.239  31.960  13.519
57483W        W16986  40.846  16.165  10.460
57484W        W16987  24.205  17.243   2.184
57485W        W16988  43.445  30.585  14.479
57486W        W16989  31.017  32.887   3.244
57487W        W16990   1.310  28.961  14.397
57488W        W16991   7.825   0.754   1.338
57489W        W16992  27.111  27.128   1.782
57490W        W16993  25.519  39.382   2.807
57491W        W16994   3.919  38.863   2.220
57492W        W16995  24.189  35.932   3.267
57493W        W16996   5.295  11.835  13.485
57494W        W16997  15.739   0.828   3.715
57495W        W16998  34.975  43.790  12.006
57496W        W16999  35.484  32.417  12.964
57497W        W17000  23.197  38.506  10.562
57498W        W17001   6.777  43.868   2.254
57499W        W17002  24.701   2.235  13.444
57500W        W17003  18.550  13.154  12.072
57501W        W17004  12.340  14.680   4.135
57502W        W17005  43.814  25.563   0.781
57503W        W17006  41.868  43.433  11.029
57504W        W17007   6.237  38.561  14.382
57505W        W17008  15.589  32.132  13.985
57506W        W17009  19.173  42.408  11.467
57507W        W17010  38.963  30.448   0.821
57508W        W17011   9.198  26.158   3.191
57509W        W17012  39.033  12.697   2.720
57510W        W17013  24.640  13.148  11.056
57511W        W17014  12.808  13.156  11.016
57512W        W17015  39.942   0.444   3.818
57513W        W17016  37.899  42.000  10.551
57514W        W17017   3.444  30.557   2.202
57515W        W17018   6.810  14.721  14.943
57516W        W17019   6.816  12.824   0.923
57517W        W17020  40.521  36.007   2.704
57518W        W17021  32.142   2.369   4.677
57519W        W17022   3.422   9.800   4.683
57520W        W17023  19.674  16.178  11.863
57521W        W17024  21.752  14.814   1.301
57522W        W17025   5.864  34.076  14.759
57523W        W17026   1.364  15.125   2.278
57524W        W17027  31.014  21.163  10.616
57525W        W17028  12.189   0.394   2.699
57526W        W17029   1.941  16.311  13.897
57527W        W17030   6.902  21.228   0.726
57528W        W17031  16.143  18.230   1.825
57529W        W17032   7.240  33.059   4.603
57530W        W17033  15.705  26.636   0.920
57531W        W17034  11.270  13.322  10.630
57532W        W17035  20.646   5.908   1.772
57533W        W17036  42.864  12.698   2.268
57534W        W17037   2.737   4.776   1.345
57535W        W17038  42.922  19.149   1.353
57536W        W17039  25.693  12.218   2.764
57537W        W17040  25.203  33.917   1.451
57538W        W17041  13.303  35.058   0.962
57539W        W17042  16.201  40.996   4.306
57540W        W17043   5.407  25.154  12.085
57541W        W17044  42.792   8.175  12.004
57542W        W17045  10.380  25.678  14.506
57543W        W17046  17.069  24.177   4.597
57544W        W17047  16.240  25.469  13.462
57545W        W17048   4.409  24.646   0.258
57546W        W17049   5.690  12.679  13.872
57547W        W17050   8.754   4.877  11.386
57548W        W17051  23.142   9.859  10.533
57549W        W17052  29.124   2.391  11.467
57550W        W17053  36.585  26.049  11.486
57551W        W17054  20.096   8.758  12.944
57552W        W17055  43.998  16.278  12.892
57553W        W17056  31.523  29.615  11.974
57554W        W17057  32.129   9.855  11.509
57555W        W17058  17.643   1.465   3.225
57556W        W17059  14.755   7.779   0.362
57557W        W17060   5.768  21.186  14.834
57558W        W17061  23.542   5.298   3.289
57559W        W17062  39.813  23.573   3.634
57560W        W17063   4.789  15.272  12.989
57561W        W17064  12.163  27.131   2.245
57562W        W17065  29.988  28.017  12.085
57563W        W17066  28.083   6.918  11.594
57564W        W17067   2.905  19.276  10.995
57565W        W17068  43.827  40.000  12.353
57566W        W17069  28.162  26.195  11.902
57567W        W17070  11.706   8.886  12.997
57568W        W17071  38.881  22.655  12.982
57569W        W17072  43.790  21.511  10.059
57570W        W17073  34.596  11.303   2.268
57571W        W17074  32.607   0.382  13.044
57572W        W17075  28.460   7.183  12.073
57573W        W17076  24.215  29.920   1.322
57574W        W17077   3.263  33.021  13.489
57575W        W17078  17.187  25.663   3.169
57576W        W17079  30.032  44.487   0.263
57577W        W17080  23.585  21.175   2.328
57578W        W17081   4.362  28.967   4.753
57579W        W17082  44.867   9.701   0.801
57580W        W17083  38.902  10.732  12.088
57581W        W17084   6.257  25.676   0.879
57582W        W17085   0.469  26.033  14.344
57583W        W17086  14.183  33.993  12.463
57584W        W17087   9.197  28.173  10.890
57585W        W17088  34.056  12.344  13.430
57586W        W17089   6.329  13.805  14.378
57587W        W17090  24.204  38.836   0.357
57588W        W17091  24.973  18.062   4.693
57589W        W17092  40.814   1.366  12.065
57590W        W17093  16.083  15.129  12.454
57591W        W17094  22.083  35.401   2.418
57592W        W17095  39.341  11.774   0.857
57593W        W17096  30.468  18.719  12.508
57594W        W17097  13.700  27.595  13.037
57595W        W17098  20.079  11.216  12.949
57596W        W17099  33.484  30.922   2.785
57597W        W17100  16.194  43.338   3.252
57598W        W17101  10.340  25.151  12.553
57599W        W17102  42.338   6.293   2.340
57600W        W17103  24.557  22.536   3.774
57601W        W17104  40.511  39.485  11.512
57602W        W17105  23.518  32.930   2.228
57603W        W17106  34.424  41.311   2.771
57604W        W17107  13.606  13.268  11.433
57605W        W17108  16.159  24.174   3.652
57606W        W17109  35.383  41.869   1.744
57607W        W17110  14.663  28.973  11.437
57608W        W17111  43.280   1.400   1.906
57609W        W17112  32.032  40.337  13.966
57610W        W17113  14.129  28.146  12.984
57611W        W17114   5.720  38.973   1.370
57612W        W17115  30.472  35.081   0.875
57613W        W17116   6.344  44.005  12.833
57614W        W17117   1.892  39.463   1.886
57615W        W17118   6.221  38.863   2.727
57616W        W17119  17.152   5.377  10.992
57617W        W17120   6.423  10.269  11.039
57618W        W17121  43.871   4.904  11.935
57619W        W17122   8.378  25.671  10.901
57620W        W17123  39.925   2.930  11.126
57621W        W17124  17.304   7.393   1.447
57622W        W17125  43.313  29.940  12.908
57623W        W17126   3.788  11.634  14.020
57624W        W17127  19.218   1.291  11.401
57625W        W17128  34.528  24.990  11.513
57626W        W17129  27.179  34.575  13.349
57627W        W17130  30.536  17.154   1.743
57628W        W17131  21.027  11.689  12.927
57629W        W17132   7.863  20.559   1.753
57630W        W17133  13.797  15.707  13.530
57631W        W17134  10.843  19.079   2.318
57632W        W17135  13.679  35.878   2.343
57633W        W17136  33.383  37.445  13.931
57634W        W17137  43.408  28.963   2.196
57635W        W17138  19.283  44.880   1.380
57636W        W17139  40.893  35.357  12.054
57637W        W17140  34.453  34.579   2.405
57638W        W17141  30.562  13.764  12.036
57639W        W17142  32.885   5.834   3.169
57640W        W17143  38.448  31.136   4.305
57641W        W17144   6.887   2.854  11.376
57642W        W17145  37.990  24.674   1.928
57643W        W17146  32.421  34.408   2.849
57644W        W17147   1.352   9.170  10.587
57645W        W17148  38.373  26.541   3.644
57646W        W17149  42.521  19.134  13.445
57647W        W17150  17.306  18.733  14.787
57648W        W17151  15.149  25.007  11.939
57649W        W17152   7.880  13.314   0.807
57650W        W17153  43.899  39.423  14.436
57651W        W17154  24.974  22.505  11.932
57652W        W17155  42.519  14.769  13.898
57653W        W17156  23.045  26.632  11.506
57654W        W17157   5.292  20.653  13.323
57655W        W17158  12.660  15.721  12.365
57656W        W17159  39.836  12.830   1.798
57657W        W17160  29.477  13.186   0.273
57658W        W17161  43.881  15.149  14.963
57659W        W17162  19.180  28.184  10.570
57660W        W17163  38.992  10.785  11.529
57661W        W17164  18.054  18.777  10.554
57662W        W17165  26.023  42.975  13.361
57663W        W17166  26.580  16.081   1.246
57664W        W17167   5.261  26.996   1.727
57665W        W17168  10.738  30.473  11.385
57666W        W17169  29.505  30.926  14.292
57667W        W17170  43.271  30.585  11.582
57668W        W17171  24.612  42.492  10.414
57669W        W17172  22.542   7.221  11.374
57670W        W17173  22.501   8.654   1.270
57671W        W17174   3.271  16.648   4.124
57672W        W17175  26.546  34.033  10.411
57673W        W17176  18.727   0.392  14.827
57674W        W17177  12.812  21.735   3.213
57675W        W17178  33.454  18.643  13.907
57676W        W17179  23.133  40.028   0.425
57677W        W17180  43.332  41.322  11.461
57678W        W17181  42.821  28.587  12.524
57679W        W17182  34.052  41.299   2.879
57680W        W17183  36.961   7.847  14.453
57681W        W17184  26.098  11.758  12.050
57682W        W17185   2.792  10.766  11.421
57683W        W17186  25.992   6.903  11.597
57684W        W17187   2.413  25.634   4.828
57685W        W17188   1.851  37.439   1.262
57686W        W17189  22.629   3.257  13.960
57687W        W17190  35.970   7.835  11.085
57688W        W17191  17.082   3.950   2.250
57689W        W17192  11.179  23.163   0.446
57690W        W17193  14.674  34.077   4.337
57691W        W17194   2.808  10.633  12.023
57692W        W17195   3.402   2.966  11.118
57693W        W17196  42.956   9.387  11.978
57694W        W17197   0.414  11.152   4.306
57695W        W17198  35.855  22.200  12.992
57696W        W17199  25.491  33.025  14.819
57697W        W17200  38.869  32.886   9.951
57698W        W17201  28.140  29.538   2.784
57699W        W17202  44.386  32.449   0.773
57700W        W17203  15.618  16.238   1.365
57701W        W17204  28.104  41.028  14.359
57702W        W17205   4.207  10.682  11.931
57703W        W17206  18.657   8.668   4.134
57704W        W17207  43.973  23.619  13.931
57705W        W17208  35.110  13.733  11.031
57706W        W17209  25.604  38.470  10.628
57707W        W17210   1.864  36.076   3.847
57708W        W17211  29.528  39.473   1.907
57709W        W17212  15.213  10.699  13.918
57710W        W17213  11.739   7.834  14.928
57711W        W17214  16.208  18.630   4.696
57712W        W17215  33.483  10.228   1.873
57713W        W17216  38.034  37.987  13.312
57714W        W17217  32.017  24.683  12.880
57715W        W17218  20.112  36.537   4.823
57716W        W17219  17.159  19.605  11.010
57717W        W17220  14.105  29.577   4.644
57718W        W17221   0.426  10.694  11.020
57719W        W17222  26.023  14.321  12.904
57720W        W17223  31.485  43.841  12.851
57721W        W17224  43.957  22.653   3.383
57722W        W17225  31.938  33.566   4.758
57723W        W17226  33.062  23.532   3.235
57724W        W17227   5.692   1.779  10.462
57725W        W17228  18.720   0.364   3.370
57726W        W17229  35.894   3.234   0.810
57727W        W17230  41.044  12.255   4.175
57728W        W17231   8.236  24.181  14.813
57729W        W17232   8.402  36.004   2.346
57730W        W17233  43.415  38.429  12.937
57731W        W17234   1.869   2.331  13.507
57732W        W17235  38.850  11.631   9.982
57733W        W17236  25.003  25.089  11.573
57734W        W17237  20.034   7.317  13.001
57735W        W17238   2.920  32.962   2.203
57736W        W17239   1.284   7.211   3.796
57737W        W17240  19.059  10.205   4.670
57738W        W17241  25.048  35.373  11.557
57739W        W17242  22.067   1.257  14.959
57740W        W17243   2.303  35.041   0.877
57741W        W17244  26.976  21.702   0.815
57742W        W17245   8.711  30.992  10.544
57743W        W17246  21.173  32.604  13.842
57744W        W17247  35.376  37.009   4.151
57745W        W17248  20.720  27.447   0.373
57746W        W17249   4.296  43.384   3.794
57747W        W17250  39.009  29.111  14.899
57748W        W17251  34.966  32.557   3.232
57749W        W17252   7.233  38.511   0.903
57750W        W17253  14.198  10.711  14.456
57751W        W17254  35.088  21.251   0.905
57752W        W17255  42.884  20.259  13.471
57753W        W17256  41.450  12.726  11.461
57754W        W17257  26.958   5.257   1.719
57755W        W17258  14.156  31.477   1.720
57756W        W17259  34.073   6.810  10.492
57757W        W17260   0.359  16.302   1.885
57758W        W17261  35.373  37.365  11.586
57759W        W17262  12.286  10.822   0.246
57760W        W17263  43.379  44.783   3.358
57761W        W17264   0.768  30.156  14.327
57762W        W17265   4.335  29.918  10.118
57763W        W17266  39.502  44.961   4.624
57764W        W17267  25.056   4.404   4.135
57765W        W17268  24.637  16.647  10.570
57766W        W17269  20.660   3.890  13.933
57767W        W17270   0.906  36.868  14.843
57768W        W17271  33.032   4.744   3.160
57769W        W17272  13.709  15.679   4.329
57770W        W17273  26.165  22.104   4.703
57771W        W17274  41.895   7.818   3.811
57772W        W17275  43.889  29.122   2.731
57773W        W17276  17.582  40.513  12.985
57774W        W17277  33.113  10.682  14.837
57775W        W17278  35.103  24.069  14.974
57776W        W17279  35.543  13.322  11.005
57777W        W17280  11.221   0.788   1.791
57778W        W17281   7.727  31.121  11.408
57779W        W17282  42.297  16.189   0.816
57780W        W17283  36.401  23.065   0.842
57781W        W17284  42.333   0.422   1.732
57782W        W17285  28.577  32.453  10.950
57783W        W17286   3.404  26.013   3.192
57784W        W17287   9.785  39.471  14.315
57785W        W17288  15.794  18.206   1.338
57786W        W17289  32.586  27.009  11.998
57787W        W17290  18.703   1.335  13.455
57788W        W17291  10.260  16.732   4.659
57789W        W17292  16.251  10.227   0.837
57790W        W17293  16.096  17.717   1.775
57791W        W17294  41.400  44.388   1.743
57792W        W17295  36.875  42.781   1.841
57793W        W17296  37.560  37.076  13.311
57794W        W17297  31.009   2.842   3.245
57795W        W17298  35.363  43.305  13.807
57796W        W17299  40.345  17.798  13.381
57797W        W17300  21.600  31.437   1.835
57798W        W17301  33.981  30.418  14.967
57799W        W17302  21.036   0.972  12.055
57800W        W17303   9.838   5.321  11.521
57801W        W17304  24.648  34.094   1.897
57802W        W17305   4.713  31.545  11.866
57803W        W17306   3.324  24.589  13.451
57804W        W17307  26.197  30.611   3.741
57805W        W17308  12.348  43.354  14.403
57806W        W17309  41.357  39.017   2.744
57807W        W17310  14.724  26.549  14.972
57808W        W17311   5.196  13.820   4.637
57809W        W17312  32.122  35.515   4.126
57810W        W17313  16.665  43.500   4.284
57811W        W17314  14.692  28.107  11.943
57812W        W17315  40.431  40.407   9.985
57813W        W17316  15.656  39.327  13.449
57814W        W17317   7.401  12.190   3.245
57815W        W17318  28.132  41.937   3.648
57816W        W17319  34.004  16.744  11.031
57817W        W17320  14.227  22.012  14.307
57818W        W17321   7.269  26.003  13.858
57819W        W17322  12.734  37.023  14.916
57820W        W17323  39.389   1.959   0.728
57821W        W17324  28.985   9.862   2.780
57822W        W17325  40.982  44.769   2.378
57823W        W17326  13.800  29.659   2.346
57824W        W17327   7.692  11.864   2.202
57825W        W17328  34.382  12.255   1.861
57826W        W17329  21.755  10.755  10.447
57827W        W17330  17.296  42.810   0.258
57828W        W17331  28.030  16.085   3.761
57829W        W17332  32.496  10.774   2.319
57830W        W17333   6.389   1.264  12.918
57831W        W17334  37.463  19.756   0.454
57832W        W17335  33.508  21.757   1.281
57833W        W17336  16.118  13.208  13.885
57834W        W17337  43.854   6.727  13.965
57835W        W17338  27.686   4.340   2.216
57836W        W17339  15.771  12.321  12.577
57837W        W17340   4.359   7.257   4.116
57838W        W17341  36.917  12.291  11.007
57839W        W17342  29.548  40.832   3.332
57840W        W17343  18.589   3.763  13.399
57841W        W17344  12.123  33.890  14.940
57842W        W17345  41.366  20.177   1.322
57843W        W17346   0.939  21.097  14.824
57844W        W17347  26.597  35.040  13.365
57845W        W17348   1.274   4.248   3.157
57846W        W17349  22.708  20.213  14.280
57847W        W17350  32.497  37.015   0.393
57848W        W17351  40.887   0.936  11.937
57849W        W17352  24.155   3.717   0.473
57850W        W17353  20.207  30.115   3.744
57851W        W17354  33.032  24.651   3.842
57852W        W17355  34.531   0.448  12.468
57853W        W17356  42.319  25.219   0.411
57854W        W17357  30.484  29.152   1.875
57855W        W17358  19.052  44.836  10.576
57856W        W17359  25.178  38.359   2.665
57857W        W17360  11.675  26.570   2.848
57858W        W17361  38.550  18.067  13.356
57859W        W17362  15.763  36.506  11.409
57860W        W17363  32.451  17.633  10.048
57861W        W17364  16.275  16.702  11.064
57862W        W17365  30.461   7.855   4.172
57863W        W17366  35.362  18.663  12.847
57864W        W17367  31.070  21.219  11.057
57865W        W17368  28.599  40.528  13.339
57866W        W17369  17.776  32.082   3.730
57867W        W17370  15.270  35.571  14.289
57868W        W17371  35.106   2.857  14.503
57869W        W17372  10.862   7.767   3.863
57870W        W17373  23.689  28.065  14.761
57871W        W17374  42.520  26.621   2.763
57872W        W17375   6.348  32.925   2.230
57873W        W17376  23.543  28.581   1.709
57874W        W17377  36.931  33.380  13.861
57875W        W17378  18.168  29.101  13.865
57876W        W17379  21.264   9.156  10.423
57877W        W17380   7.230   8.659  14.479
57878W        W17381   1.845   1.752   3.377
57879W        W17382   8.713  10.322   0.878
57880W        W17383   4.399  43.301  12.977
57881W        W17384  29.995  28.154   1.784
57882W        W17385  39.023  14.799  11.895
57883W        W17386  43.500  32.090   0.736
57884W        W17387   8.684  34.028   0.907
57885W        W17388  23.645   0.843   0.303
57886W        W17389  31.037  20.090  10.593
57887W        W17390   7.709  44.918   1.281
57888W        W17391  10.201  28.532  11.075
57889W        W17392  43.372  15.579  10.644
57890W        W17393  14.147  20.658  13.331
57891W        W17394   8.286  14.818  13.810
57892W        W17395  18.148  39.476   2.245
57893W        W17396  11.739  37.084  13.063
57894W        W17397   6.715  15.193   0.794
57895W        W17398  44.880  11.803   0.261
57896W        W17399  38.328  21.137   2.374
57897W        W17400  21.635   4.449   0.872
57898W        W17401   8.685   6.190   5.227
57899W        W17402  37.003   6.312  12.910
57900W        W17403   9.354   3.812  10.947
57901W        W17404  10.737   3.746   0.777
57902W        W17405  44.944  41.952   1.904
57903W        W17406  32.979  10.376  11.566
57904W        W17407  24.085  18.287  11.459
57905W        W17408  33.464  16.224   3.236
57906W        W17409  42.814  24.973   3.253
57907W        W17410  24.058  42.928   0.249
57908W        W17411  31.945  18.062   0.334
57909W        W17412  24.674  38.067  10.928
57910W        W17413  15.246   9.224   2.228
57911W        W17414  11.716  42.292  11.509
57912W        W17415  35.390  43.969  13.840
57913W        W17416  13.120  18.076  11.472
57914W        W17417   3.400  37.568   5.144
57915W        W17418  13.845   5.318   2.736
57916W        W17419  40.529   3.903  10.590
57917W        W17420  33.434  40.996  12.958
57918W        W17421   9.698  34.013   0.396
57919W        W17422  33.582  44.370   2.233
57920W        W17423   6.242  41.893  12.972
57921W        W17424   5.746  11.795   4.768
57922W        W17425  30.932  23.572   4.642
57923W        W17426   4.902  24.221  12.844
57924W        W17427  20.178  34.934   1.218
57925W        W17428  23.013  31.475   0.869
57926W        W17429  26.631  43.881   1.857
57927W        W17430  16.566  25.022  13.309
57928W        W17431   7.871  35.948   2.327
57929W        W17432   0.959  36.418  13.451
57930W        W17433  27.545  40.466  12.442
57931W        W17434  41.437  31.009  11.415
57932W        W17435  13.669  41.004  12.063
57933W        W17436  36.537  20.204   0.337
57934W        W17437  29.039   7.863   4.770
57935W        W17438   3.941   3.253  12.576
57936W        W17439  44.283  19.536  10.413
57937W        W17440  32.401   6.262   3.338
57938W        W17441   6.186  11.221   0.248
57939W        W17442  18.161  38.878   3.731
57940W        W17443  27.599   3.334  11.506
57941W        W17444  16.246  38.466   4.212
57942W        W17445  21.059  42.470  11.898
57943W        W17446  20.680  37.529  10.507
57944W        W17447  25.152  20.736   3.630
57945W        W17448  24.093  14.740  13.316
57946W        W17449  12.146   2.368   1.219
57947W        W17450  39.359   4.396   3.716
57948W        W17451  13.818   3.908  12.038
57949W        W17452   3.832  11.665   2.195
57950W        W17453   6.809   5.286  13.031
57951W        W17454  16.808   8.190  12.448
57952W        W17455  35.058  44.763  10.588
57953W        W17456   0.291  12.289   2.242
57954W        W17457  40.457  26.478  12.038
57955W        W17458  38.561   3.233  11.048
57956W        W17459  14.216  13.637  13.468
57957W        W17460  18.198   1.288  11.543
57958W        W17461   5.271  26.102   0.312
57959W        W17462   6.792  38.483  13.915
57960W        W17463  13.207  29.491  10.575
57961W        W17464  30.658   5.930  13.027
57962W        W17465   3.320  37.437  12.063
57963W        W17466  35.428  16.711  12.520
57964W        W17467  30.634   2.247   1.820
57965W        W17468  42.913  22.700   2.883
57966W        W17469  23.708  19.138   4.239
57967W        W17470  28.561  26.047  10.019
57968W        W17471  29.083   4.426   3.693
57969W        W17472   0.885  11.686   3.303
57970W        W17473  20.740  24.701   0.422
57971W        W17474  11.753  43.965   9.940
57972W        W17475   2.892  43.424  11.014
57973W        W17476   5.824  30.011  11.509
57974W        W17477  25.187   1.848  12.021
57975W        W17478  43.931  26.637  11.436
57976W        W17479  29.055   6.234  10.413
57977W        W17480  15.595  31.064  14.784
57978W        W17481  11.669  21.708   3.159
57979W        W17482  31.484  28.053  13.865
57980W        W17483  14.588  30.527  10.915
57981W        W17484  20.703  16.114  11.051
57982W        W17485  10.218  43.765   2.776
57983W        W17486  37.897   7.831   4.683
57984W        W17487  43.417  31.999  13.036
57985W        W17488  26.976  23.008  10.505
57986W        W17489  35.558  10.299  11.432
57987W        W17490  20.740  39.542  10.637
57988W        W17491  20.685  24.226   3.381
57989W        W17492  39.928   8.391   0.330
57990W        W17493  10.295  12.162   2.742
57991W        W17494  44.428  18.233   3.316
57992W        W17495  24.054  36.060  11.093
57993W        W17496  42.466  25.536  12.469
57994W        W17497  27.542  19.160  13.499
57995W        W17498  34.015  35.930  12.039
57996W        W17499  20.275   7.710   0.814
57997W        W17500  23.188  19.182   3.663
57998W        W17501  30.062   5.901   3.752
57999W        W17502   9.825   1.239   2.412
58000W        W17503  32.112  29.041   3.801
58001W        W17504  31.982  41.312   4.781
58002W        W17505  14.154  27.966  10.980
58003W        W17506  36.540  37.421  14.948
58004W        W17507  28.163   2.317  13.020
58005W        W17508  23.616  24.993  14.402
58006W        W17509  14.145  11.178   1.871
58007W        W17510   3.249  31.640  14.916
58008W        W17511  12.255  30.657  10.927
58009W        W17512   6.225  11.673   0.442
58010W        W17513  41.494  41.475  11.452
58011W        W17514   9.867  32.413   2.223
58012W        W17515   0.259   8.253   2.216
58013W        W17516   2.750  39.933  10.574
58014W        W17517   9.209  25.600   2.226
58015W        W17518  35.001   5.887  14.280
58016W        W17519  37.921  44.333   4.274
58017W        W17520  15.135  19.659  13.381
58018W        W17521  17.561  20.589  12.570
58019W        W17522  27.583  21.726   1.827
58020W        W17523  30.925  22.528  10.520
58021W        W17524  10.348  42.378   0.854
58022W        W17525  26.681  42.864   3.201
58023W        W17526  17.592  18.733   2.697
58024W        W17527  31.899  19.087  14.449
58025W        W17528   5.286  28.968   0.921
58026W        W17529   0.852  34.887  11.946
58027W        W17530  42.381  35.987  13.520
58028W        W17531  35.520  40.917  12.390
58029W        W17532  18.140  22.573  12.372
58030W        W17533  11.646  21.550  14.860
58031W        W17534  16.117  12.619   4.354
58032W        W17535  37.872   1.974   3.214
58033W        W17536  37.866  37.380   4.283
58034W        W17537   2.437  20.158   2.287
58035W        W17538  31.978   9.260  10.473
58036W        W17539  11.672  19.149  12.528
58037W        W17540  34.408  25.506   2.757
58038W        W17541  11.689  24.508   3.230
58039W        W17542  18.203   1.282   3.284
58040W        W17543  32.139  19.768  14.880
58041W        W17544  13.831  33.591  14.826
58042W        W17545  11.621   8.380   2.269
58043W        W17546  32.463  31.464  11.118
58044W        W17547  15.653   7.207   4.338
58045W        W17548  30.420  23.222   1.864
58046W        W17549  31.488  18.188   3.257
58047W        W17550  24.651  26.104  13.540
58048W        W17551  29.021   5.409   2.740
58049W        W17552  29.982  13.150  12.436
58050W        W17553  39.551  43.911  12.995
58051W        W17554  13.158   1.476  12.556
58052W        W17555  14.776  13.703  14.328
58053W        W17556  31.101  18.123  12.508
58054W        W17557  33.017  23.206   1.701
58055W        W17558   9.156   7.269   1.706
58056W        W17559  18.678  35.067  10.893
58057W        W17560  24.709  30.625  12.443
58058W        W17561  40.493   4.208  11.914
58059W        W17562   3.447  30.058   0.948
58060W        W17563  26.546  20.530  10.456
58061W        W17564  41.402  27.547  12.072
58062W        W17565  14.636  42.812  12.970
58063W        W17566  39.340  42.488  13.310
58064W        W17567  18.224   7.804   0.265
58065W        W17568   3.441  29.594  13.865
58066W        W17569  17.192  14.825  12.417
58067W        W17570  21.224  21.246   3.379
58068W        W17571  34.046  12.272  10.943
58069W        W17572  36.431   0.970  14.859
58070W        W17573   6.820  26.507   4.712
58071W        W17574   9.202  42.381  10.571
58072W        W17575  43.834  22.225   5.607
58073W        W17576  43.021  39.449   4.723
58074W        W17577  17.212  27.040   0.754
58075W        W17578  11.209  44.448  12.053
58076W        W17579   6.826   0.889   0.807
58077W        W17580  43.369  39.482   0.847
58078W        W17581  12.238  33.106   5.102
58079W        W17582  36.978  17.788   3.769
58080W        W17583  23.528  33.418  12.954
58081W        W17584  42.452   9.222   0.828
58082W        W17585   7.328  34.600  11.425
58083W        W17586  23.564  23.657  12.976
58084W        W17587  35.906   4.777   1.240
58085W        W17588  34.924  12.186   1.263
58086W        W17589  26.467  43.892  11.413
58087W        W17590  19.259  26.498   3.780
58088W        W17591  27.955  21.173   3.673
58089W        W17592  29.150  32.420  12.907
58090W        W17593   1.888  25.586   4.628
58091W        W17594  15.779   1.294  10.536
58092W        W17595  40.470   9.218   5.134
58093W        W17596  18.688   9.852   3.184
58094W        W17597  40.848  23.590  13.839
58095W        W17598  30.460  24.184  13.347
58096W        W17599  16.263  38.875   2.862
58097W        W17600  44.003  24.102   3.323
58098W        W17601  14.130  25.687   4.710
58099W        W17602  22.517  43.846  14.760
58100W        W17603   2.449  14.143  13.542
58101W        W17604  20.575  30.421  12.071
58102W        W17605  10.660  35.017   2.328
58103W        W17606  21.180  40.008  13.043
58104W        W17607  32.946  35.367  11.397
58105W        W17608  15.729  43.309  11.559
58106W        W17609   3.774  43.826  11.447
58107W        W17610   5.891   5.196  14.788
58108W        W17611  15.187   5.699  13.822
58109W        W17612  44.403   8.214  14.849
58110W        W17613  10.849   7.364  11.930
58111W        W17614   2.386  11.155   0.938
58112W        W17615  38.824   3.916  13.428
58113W        W17616   2.436  39.843  12.430
58114W        W17617   7.171  15.276   1.388
58115W        W17618  34.099  11.165   1.219
58116W        W17619   8.369  27.486   4.613
58117W        W17620   2.796  14.298  13.473
58118W        W17621   0.770   7.299   1.815
58119W        W17622  14.253  41.388   3.690
58120W        W17623   1.380   4.875   0.247
58121W        W17624  17.280   0.925   0.761
58122W        W17625  34.081  20.261   3.793
58123W        W17626  41.510  41.456  13.407
58124W        W17627  32.541   7.814   3.377
58125W        W17628  25.530   5.417  12.548
58126W        W17629  37.533  35.109  11.865
58127W        W17630  13.778  22.171  11.995
58128W        W17631  30.964  32.605   1.704
58129W        W17632  32.979  10.310   0.803
58130W        W17633   9.316  34.014  11.024
58131W        W17634  25.651  21.557   4.781
58132W        W17635   3.247  33.616   3.737
58133W        W17636  10.318  23.623  11.530
58134W        W17637  10.874  42.832  12.835
58135W        W17638  27.025   9.158  13.018
58136W        W17639   3.772  34.923   3.191
58137W        W17640  28.064  33.118   1.396
58138W        W17641  14.823  23.089   1.729
58139W        W17642  38.012   3.234  14.417
58140W        W17643  19.778   2.328  12.518
58141W        W17644  38.428   0.253  13.813
58142W        W17645   2.405  10.180   1.856
58143W        W17646  10.233  44.951   2.356
58144W        W17647  31.473  14.760   1.786
58145W        W17648  36.508  19.726  12.951
58146W        W17649  31.450  13.738   3.298
58147W        W17650  27.057   3.243   2.251
58148W        W17651  24.693  38.035  13.987
58149W        W17652  39.950  26.617  11.515
58150W        W17653  13.281  36.409  14.465
58151W        W17654   6.821  27.568   4.271
58152W        W17655   2.801   8.210   0.868
58153W        W17656  33.955  39.971  13.456
58154W        W17657  13.277  33.523   1.374
58155W        W17658  19.751  36.947  14.389
58156W        W17659  34.578   2.736   3.801
58157W        W17660  30.004   5.875  12.479
58158W        W17661  29.467  14.698   1.285
58159W        W17662  12.639  42.990   4.598
58160W        W17663  15.097  34.377  13.363
58161W        W17664  22.122  22.194   2.862
58162W        W17665   6.888  41.534   3.665
58163W        W17666  14.109   6.322   1.889
58164W        W17667  21.523  34.076   4.231
58165W        W17668  41.026  37.053  12.825
58166W        W17669  43.934   0.299   2.355
58167W        W17670  28.107  43.829   2.697
58168W        W17671  15.683  43.001  14.913
58169W        W17672  11.842  43.929   2.205
58170W        W17673  20.246   0.301  12.876
58171W        W17674  30.502  19.117   4.633
58172W        W17675  26.198  21.122   0.330
58173W        W17676  22.190  26.116  12.864
58174W        W17677  43.961   6.721  11.553
58175W        W17678   4.816  10.745  12.011
58176W        W17679  23.021  17.650   3.847
58177W        W17680  39.452  20.606  10.578
58178W        W17681   3.797   0.279  11.858
58179W        W17682  36.991  25.585   2.666
58180W        W17683  42.362  15.671   0.938
58181W        W17684  37.078   8.381  13.791
58182W        W17685   5.319   5.824  12.509
58183W        W17686  20.671  11.175   1.281
58184W        W17687  10.372  41.978   1.885
58185W        W17688  15.763  20.715  14.026
58186W        W17689   4.707  34.929   2.330
58187W        W17690  16.201  32.548  12.888
58188W        W17691  29.974  37.866  11.544
58189W        W17692  29.488  29.015  13.974
58190W        W17693  19.260  28.633   1.246
58191W        W17694  22.675  44.941   1.390
58192W        W17695  34.090  43.428   0.315
58193W        W17696  31.496   4.229   1.907
58194W        W17697  36.556   6.680   0.300
58195W        W17698  41.435  11.147  14.769
58196W        W17699  11.792  35.532   2.415
58197W        W17700  36.467  44.359   2.290
58198W        W17701   9.661  16.670  11.977
58199W        W17702   8.850  32.555   4.772
58200W        W17703  25.015  31.952  13.054
58201W        W17704  42.029  30.988  14.477
58202W        W17705  25.663   4.388  13.897
58203W        W17706   2.339  19.610   1.852
58204W        W17707  20.755  12.206   2.672
58205W        W17708  24.034  38.903   1.286
58206W        W17709  37.432  28.616   4.319
58207W        W17710   5.262  33.547   4.606
58208W        W17711  16.647  14.216   1.306
58209W        W17712  42.457  27.180  13.021
58210W        W17713  43.912   4.834   2.831
58211W        W17714   6.284  38.909  12.556
58212W        W17715   5.830  37.478  12.932
58213W        W17716  33.078  17.218  11.388
58214W        W17717  18.703   2.755   4.679
58215W        W17718  44.967  17.296  11.482
58216W        W17719  44.457  40.309   0.941
58217W        W17720  21.648  42.316   1.904
58218W        W17721   2.389   1.928   3.187
58219W        W17722   3.735  31.964  13.883
58220W        W17723  41.313   3.769   1.927
58221W        W17724  15.615  30.128  13.887
58222W        W17725  35.442   6.867   3.784
58223W        W17726  16.577  21.026   2.197
58224W        W17727  33.942   7.802   1.760
58225W        W17728  22.179  43.287  12.079
58226W        W17729  17.102  31.969   3.255
58227W        W17730  24.713   5.694  11.109
58228W        W17731   5.862  35.537   0.929
58229W        W17732  25.495  15.165  11.394
58230W        W17733  22.665  30.953  14.926
58231W        W17734  11.207  32.483   3.247
58232W        W17735  37.954  24.684  12.549
58233W        W17736  38.501   5.908   2.865
58234W        W17737  22.169  27.949   1.886
58235W        W17738  18.174  32.558  11.938
58236W        W17739  43.367  43.828   3.352
58237W        W17740  26.650  30.484   1.694
58238W        W17741   0.287   8.325   1.372
58239W        W17742  13.169  29.130  13.519
58240W        W17743   8.764   9.210  14.805
58241W        W17744   2.305  25.515   1.873
58242W        W17745  26.490  29.002   2.332
58243W        W17746  20.563  18.544  14.439
58244W        W17747  34.605  19.051  14.278
58245W        W17748  20.552  24.684   4.326
58246W        W17749  42.900  27.668  10.098
58247W        W17750   6.381   4.414  11.080
58248W        W17751  10.823   1.763   2.835
58249W        W17752  16.176   9.836  13.390
58250W        W17753   5.297  22.080   1.726
58251W        W17754  25.585   4.774  13.307
58252W        W17755  10.707  35.949  11.548
58253W        W17756  39.437  29.049  12.419
58254W        W17757  38.969  21.641  11.005
58255W        W17758  21.072  27.584   4.730
58256W        W17759  36.930  39.338   4.119
58257W        W17760  39.862   0.933   2.712
58258W        W17761  17.657  17.702  10.639
58259W        W17762  43.287  34.460  13.329
58260W        W17763  39.316  22.524  12.380
58261W        W17764  39.438  44.352  10.989
58262W        W17765  11.776   3.817  12.563
58263W        W17766  26.546  34.559   0.286
58264W        W17767  30.630  28.132  13.452
58265W        W17768  41.493  29.946   2.888
58266W        W17769  40.850  28.456   3.783
58267W        W17770  41.039  39.467   4.316
58268W        W17771   7.706  23.164   1.311
58269W        W17772  27.084   4.825  10.609
58270W        W17773  22.118  26.072   4.642
58271W        W17774  40.353  32.903  14.453
58272W        W17775   7.190  31.416  10.458
58273W        W17776  42.433  32.019   0.800
58274W        W17777   4.734  29.176  10.623
58275W        W17778  28.436   8.797   2.376
58276W        W17779  36.035  25.570  14.508
58277W        W17780   0.910   7.815  14.888
58278W        W17781  30.116   7.409   1.918
58279W        W17782   8.372  17.283  12.347
58280W        W17783  43.904   6.910  12.427
58281W        W17784  17.584  34.989  13.510
58282W        W17785  11.784   1.942  10.929
58283W        W17786  16.276  26.615  10.426
58284W        W17787  20.716  36.906   3.161
58285W        W17788  16.249   1.935  14.805
58286W        W17789  24.146  16.083  13.050
58287W        W17790  18.674  12.188   4.650
58288W        W17791  26.191  31.917   2.866
58289W        W17792  20.624   2.936   5.698
58290W        W17793  35.091  23.519   0.315
58291W        W17794  18.662  10.714   1.750
58292W        W17795  23.622  35.040   3.251
58293W        W17796   1.965   1.380  11.514
58294W        W17797   8.403  15.777   0.456
58295W        W17798  40.872  13.297  11.895
58296W        W17799  37.071  22.198  14.020
58297W        W17800   6.785  23.521   0.773
58298W        W17801  23.075  37.513   3.147
58299W        W17802  43.819  19.078  13.842
58300W        W17803  24.122  12.622  10.890
58301W        W17804   6.416   1.477  13.955
58302W        W17805  28.073  12.345   2.803
58303W        W17806  20.655  44.931  11.421
58304W        W17807  42.946  10.764   4.305
58305W        W17808  28.028  39.834  10.015
58306W        W17809   6.869  16.213   2.366
58307W        W17810  35.415  35.889   0.875
58308W        W17811  16.710  26.009  11.056
58309W        W17812   6.686  11.819  11.407
58310W        W17813  18.237  34.511   4.166
58311W        W17814  31.561  35.452  11.489
58312W        W17815  43.840  32.444  13.051
58313W        W17816   8.761   3.435   2.262
58314W        W17817   5.296  23.081   1.390
58315W        W17818  10.288  26.005   4.612
58316W        W17819  23.545   2.314  12.340
58317W        W17820  41.490   7.902   0.772
58318W        W17821  29.076  32.892   1.787
58319W        W17822  24.049  21.161   2.675
58320W        W17823  29.068   5.803   3.293
58321W        W17824  23.180  36.966  12.850
58322W        W17825  16.156   2.448  13.386
58323W        W17826   0.366  23.174   3.299
58324W        W17827  40.855  11.298   0.460
58325W        W17828  37.879   9.271   4.247
58326W        W17829  32.535  38.332   4.722
58327W        W17830  21.588  30.560  10.414
58328W        W17831  24.994  12.822  11.603
58329W        W17832  17.221  37.865   2.892
58330W        W17833  37.917  15.687   1.373
58331W        W17834   8.801  28.442   1.854
58332W        W17835  25.497   3.280  14.474
58333W        W17836  41.469  25.686   3.847
58334W        W17837  40.370   7.724   0.404
58335W        W17838  12.788   2.835  12.550
58336W        W17839  25.080  21.753   1.878
58337W        W17840  42.798  30.003  11.962
58338W        W17841  22.700  24.619  12.473
58339W        W17842  18.246  15.089   3.760
58340W        W17843  43.347  35.377  11.009
58341W        W17844  30.487  26.967  10.893
58342W        W17845  27.050  24.644   2.844
58343W        W17846   7.242  28.488  11.568
58344W        W17847  26.017   9.194   0.332
58345W        W17848   1.341  39.875   4.773
58346W        W17849  11.628  17.741  10.444
58347W        W17850  18.221   1.776  11.980
58348W        W17851  20.562  14.245   5.277
58349W        W17852   5.422  37.852   4.768
58350W        W17853  31.638  17.063   1.271
58351W        W17854  18.692   1.738  10.491
58352W        W17855   1.385  12.842  10.958
58353W        W17856  31.046  18.547  13.363
58354W        W17857  26.561  11.148   3.262
58355W        W17858  24.010  35.360  14.359
58356W        W17859  13.225   9.762  14.975
58357W        W17860   7.749   1.475  14.839
58358W        W17861   1.865  11.266   0.471
58359W        W17862  24.514  33.987  12.514
58360W        W17863  41.418  36.987  11.042
58361W        W17864  18.171   6.869   1.250
58362W        W17865  36.090  17.297  12.868
58363W        W17866  14.224   9.691   2.792
58364W        W17867  32.016  40.939  13.900
58365W        W17868  25.659   9.731  12.034
58366W        W17869  10.358   3.263   5.299
58367W        W17870   5.929   7.818  14.365
58368W        W17871  29.138  41.386  13.823
58369W        W17872  28.124   9.758   1.866
58370W        W17873   6.352  36.906   2.881
58371W        W17874   3.334   9.204   1.698
58372W        W17875  44.909  32.597  14.937
58373W        W17876   0.891   5.414  12.928
58374W        W17877  21.215  36.961  12.981
58375W        W17878  11.797  20.745  11.085
58376W        W17879  10.330  14.167   4.755
58377W        W17880  30.572  24.616  12.876
58378W        W17881  40.909  18.085  14.861
58379W        W17882  19.272  28.142   4.176
58380W        W17883  37.471  33.917   0.478
58381W        W17884  21.206  14.740   1.305
58382W        W17885  31.524   4.884  11.568
58383W        W17886   1.879   4.809  11.865
58384W        W17887  14.634  15.156   3.730
58385W        W17888  33.581  17.607   3.217
58386W        W17889  31.021  29.501  13.446
58387W        W17890  20.136  17.676  13.393
58388W        W17891  38.842  24.053   3.184
58389W        W17892  23.541  10.853  14.822
58390W        W17893  37.035   1.853   1.291
58391W        W17894  31.426   8.692  12.069
58392W        W17895  12.704  35.861  13.465
58393W        W17896  37.910  34.019  10.568
58394W        W17897  18.164   6.360   1.422
58395W        W17898  14.125  41.002   2.783
58396W        W17899  31.145  15.757  12.983
58397W        W17900  18.752  12.768   2.877
58398W        W17901   5.291  21.664  10.525
58399W        W17902   8.201  11.673  14.901
58400W        W17903  17.145  34.886  14.350
58401W        W17904  25.544  22.699   1.855
58402W        W17905  29.172  11.229  13.536
58403W        W17906   7.344   4.742  14.904
58404W        W17907  30.912   8.302  13.397
58405W        W17908   9.335   3.265   5.278
58406W        W17909   7.847  21.574  10.610
58407W        W17910  39.866   9.767   1.794
58408W        W17911  11.223   1.789   2.188
58409W        W17912   8.370  21.167   1.830
58410W        W17913  27.515  20.187   0.299
58411W        W17914  40.351  35.108  11.891
58412W        W17915  32.904  44.336   3.839
58413W        W17916  31.112   0.974   2.894
58414W        W17917  42.877  23.662  12.370
58415W        W17918  12.783   8.199   0.792
58416W        W17919  13.733  34.399  11.404
58417W        W17920  19.644  40.842  11.964
58418W        W17921  11.302  21.072  14.494
58419W        W17922   8.343  18.268  10.629
58420W        W17923   8.281  23.734  12.088
58421W        W17924  43.880  17.219   3.733
58422W        W17925   5.905  34.422   1.240
58423W        W17926   7.285  40.869   3.318
58424W        W17927   7.415  30.427  12.017
58425W        W17928  12.340  30.920  12.563
58426W        W17929  16.804  26.089  12.842
58427W        W17930  30.458  26.643   1.232
58428W        W17931  10.810   2.466   3.795
58429W        W17932  26.522  41.535   1.281
58430W        W17933  31.071   6.350  11.868
58431W        W17934  41.933  37.506   0.832
58432W        W17935  44.375   4.306   0.888
58433W        W17936  38.460  18.758  14.935
58434W        W17937  35.554  34.057   0.372
58435W        W17938  41.403  27.092  14.818
58436W        W17939  11.342  42.871   3.161
58437W        W17940  40.437   4.406  11.424
58438W        W17941  19.670   8.272   4.818
58439W        W17942   1.380  25.136  12.489
58440W        W17943  11.656  13.160   4.180
58441W        W17944  17.099  11.225   3.755
58442W        W17945  33.101  28.978   3.822
58443W        W17946  37.844   4.204  14.417
58444W        W17947  28.497  21.540  14.346
58445W        W17948  44.942   4.297  13.359
58446W        W17949   8.376  35.442  14.482
58447W        W17950  32.485   8.244   4.608
58448W        W17951  17.305  42.803  14.990
58449W        W17952  33.080  28.098  14.409
58450W        W17953  40.877  42.994  11.600
58451W        W17954  12.329  32.091   2.662
58452W        W17955   9.183   6.200  12.824
58453W        W17956  24.679  30.930  14.860
58454W        W17957  34.391  21.624  14.823
58455W        W17958   3.772  20.599   4.172
58456W        W17959  36.466  16.136  11.857
58457W        W17960  10.635  19.152  10.605
58458W        W17961  17.245  35.904   2.840
58459W        W17962  44.000  28.085  10.078
58460W        W17963  29.163   5.205  12.893
58461W        W17964  14.601  24.517   0.924
58462W        W17965  10.156   4.284  11.387
58463W        W17966  24.006  28.035   3.821
58464W        W17967  44.819   3.837   1.780
58465W        W17968  24.558  18.157   0.476
58466W        W17969   6.407   7.385  10.557
58467W        W17970  44.456  41.357   0.829
58468W        W17971  42.377  44.827  12.568
58469W        W17972   6.393   7.186   4.828
58470W        W17973  13.615  32.616   0.897
58471W        W17974  31.409  16.570   3.310
58472W        W17975  43.415  12.194   0.373
58473W        W17976  20.665  21.210  12.991
58474W        W17977  22.017   9.879   1.257
58475W        W17978  13.254  34.881  13.433
58476W        W17979  20.157  39.960   0.945
58477W        W17980  35.953  38.340   4.237
58478W        W17981  20.084  35.042  12.440
58479W        W17982  15.654  14.779  10.923
58480W        W17983  19.195  35.558   4.160
58481W        W17984  10.234  36.352  14.475
58482W        W17985  25.207  25.505   1.792
58483W        W17986  10.261   1.376   1.236
58484W        W17987  29.455  14.332   1.710
58485W        W17988  32.140  10.857   2.839
58486W        W17989  26.465   4.898  10.979
58487W        W17990   2.878  16.197   4.685
58488W        W17991  42.849  11.692   4.202
58489W        W17992  32.578  30.964   2.870
58490W        W17993  37.501   5.822  11.972
58491W        W17994  10.145  29.068  12.424
58492W        W17995  13.322  24.205   3.303
58493W        W17996   8.900  31.498   1.760
58494W        W17997  24.003   8.746  12.481
58495W        W17998  39.428  20.698  14.917
58496W        W17999  16.195  37.860  11.868
58497W        W18000   5.425  14.304   1.922
58498W        W18001   4.894  18.292  10.414
58499W        W18002   6.832  22.170   0.931
58500W        W18003   0.987  19.256  14.516
58501W        W18004  37.505  29.077   4.133
58502W        W18005  44.994  16.790   3.870
58503W        W18006  13.777  20.158  12.915
58504W        W18007  28.637   2.825   0.465
58505W        W18008  42.438   6.696  10.604
58506W        W18009  37.428   5.798   1.781
58507W        W18010  13.154  14.625   0.244
58508W        W18011  27.550   2.463   0.862
58509W        W18012  34.569  11.139  14.011
58510W        W18013  17.563  25.526   4.215
58511W        W18014   5.198  15.171   5.729
58512W        W18015  30.135  28.637   1.342
58513W        W18016  18.196  25.215  11.537
58514W        W18017   1.424  29.067  14.812
58515W        W18018  43.899  40.823  12.045
58516W        W18019  17.686  13.140  13.035
58517W        W18020   1.807  31.607  12.519
58518W        W18021  20.730  39.012   3.359
58519W        W18022  41.403   6.373  14.438
58520W        W18023  41.915  40.468   2.882
58521W        W18024   4.907   9.807   0.396
58522W        W18025   6.333  26.548   2.241
58523W        W18026  34.486  39.970  10.572
58524W        W18027  23.500  40.939   4.756
58525W        W18028   6.245  23.988  13.459
58526W        W18029   2.262  33.106   2.363
58527W        W18030   6.187   1.455   4.296
58528W        W18031  33.557  15.210  14.002
58529W        W18032  38.366  26.121   4.607
58530W        W18033  36.585   3.272   2.793
58531W        W18034  37.911  15.197  12.988
58532W        W18035   9.155  22.586  13.880
58533W        W18036   0.945  43.402   5.653
58534W        W18037  18.155  28.576   2.748
58535W        W18038  21.089   3.826  12.495
58536W        W18039  26.008   0.482  10.079
58537W        W18040  24.187  30.564   4.206
58538W        W18041  42.808  20.560   2.242
58539W        W18042  39.977  30.557   3.233
58540W        W18043  28.636  22.549   0.311
58541W        W18044  34.889  15.746   0.789
58542W        W18045   2.360  12.855  13.984
58543W        W18046   7.814  28.447  13.005
58544W        W18047  12.226  20.264  13.832
58545W        W18048   1.443   8.657  12.388
58546W        W18049  18.108  28.495   0.482
58547W        W18050  26.097  21.241  13.427
58548W        W18051  39.516   4.869  10.514
58549W        W18052   7.374  23.507   0.307
58550W        W18053  43.922  39.401   2.807
58551W        W18054   7.731  42.471  14.308
58552W        W18055  39.969   5.294   1.430
58553W        W18056  44.269  22.633  12.984
58554W        W18057   2.372  33.541  11.856
58555W        W18058  19.604  28.081  10.892
58556W        W18059  15.609  42.940  12.503
58557W        W18060  20.725   7.740  11.415
58558W        W18061  26.965  20.116  10.901
58559W        W18062  41.842  33.941   3.719
58560W        W18063  14.627  26.160  11.122
58561W        W18064  17.670  39.047  13.883
58562W        W18065  39.377   2.952   3.792
58563W        W18066   3.353  10.245  12.961
58564W        W18067  41.825  38.485   4.663
58565W        W18068  10.781  32.018   3.261
58566W        W18069   3.948  26.562  13.377
58567W        W18070   9.786  12.612  12.519
58568W        W18071  41.447   0.752   3.307
58569W        W18072  23.727  39.340   3.163
58570W        W18073  42.463   6.878   4.685
58571W        W18074   7.350  37.836   3.871
58572W        W18075  16.279  34.028   1.875
58573W        W18076  35.580  29.614   1.752
58574W        W18077  25.649  33.426   3.338
58575W        W18078   4.344  36.442  14.892
58576W        W18079  34.407  26.489   3.659
58577W        W18080   6.343  14.314  14.782
58578W        W18081   9.731  40.814   1.403
58579W        W18082   1.384   4.300   4.345
58580W        W18083   0.425  23.677   2.669
58581W        W18084  38.540  23.201   2.708
58582W        W18085  13.308  28.010  12.473
58583W        W18086  28.680   8.655   2.883
58584W        W18087  18.144  28.055  11.528
58585W        W18088   7.764  27.165   1.422
58586W        W18089  18.107  31.512   3.638
58587W        W18090  21.737  23.526   3.206
58588W        W18091   4.755  24.724  14.319
58589W        W18092  30.647  25.119   3.854
58590W        W18093  29.591  43.951   2.311
58591W        W18094  15.787   6.750  10.599
58592W        W18095  42.526  10.250   2.880
58593W        W18096  33.556  11.850  11.468
58594W        W18097  28.510  25.118  14.809
58595W        W18098  25.160  13.695  10.908
58596W        W18099  31.010  31.074  11.509
58597W        W18100  43.971   3.848   0.875
58598W        W18101  40.528  29.088   4.775
58599W        W18102  41.302  11.362   2.404
58600W        W18103  20.127  21.023   0.818
58601W        W18104  21.198  43.386   0.797
58602W        W18105  10.768  20.207  10.898
58603W        W18106  25.985  37.491   1.871
58604W        W18107  16.076  44.872   0.829
58605W        W18108  32.602   2.243   2.712
58606W        W18109  19.192  40.473   2.230
58607W        W18110  40.951   4.420  12.055
58608W        W18111  20.577  42.974   5.281
58609W        W18112   4.301   9.284  13.811
58610W        W18113  15.316  36.999   1.728
58611W        W18114  24.172  44.958  10.940
58612W        W18115  17.228  12.618   4.347
58613W        W18116   5.875  22.719   0.931
58614W        W18117  35.377   0.822   2.206
58615W        W18118   4.374  28.464   1.223
58616W        W18119  44.461  43.360  10.408
58617W        W18120  17.077  34.907  12.897
58618W        W18121   4.701   2.892  14.424
58619W        W18122  31.451  41.484   3.314
58620W        W18123  40.373   3.418   4.716
58621W        W18124   1.926  22.740  13.792
58622W        W18125  32.535   5.206  11.047
58623W        W18126  29.922  42.827   1.759
58624W        W18127  38.872   3.216   2.178
58625W        W18128  31.088   0.267   2.295
58626W        W18129   8.842  29.493   5.107
58627W        W18130  20.267  26.005  12.393
58628W        W18131  26.136  36.491   2.390
58629W        W18132  22.577  32.414   3.719
58630W        W18133   3.264  31.092   4.694
58631W        W18134   6.690   3.861  13.805
58632W        W18135  28.660  13.237  11.572
58633W        W18136  20.145  28.133  10.127
58634W        W18137  18.279  24.661  14.784
58635W        W18138   9.857  15.742  14.337
58636W        W18139  44.007   1.821  10.903
58637W        W18140  30.155   0.365   1.363
58638W        W18141  11.163  20.758   4.618
58639W        W18142  24.039  18.253  13.839
58640W        W18143  42.806  30.162  12.839
58641W        W18144  11.284  13.733  14.376
58642W        W18145  41.356  19.774  12.996
58643W        W18146   6.309  13.149   2.388
58644W        W18147  22.181  33.052  11.539
58645W        W18148  28.057  36.888  10.948
58646W        W18149  11.832  23.240  10.893
58647W        W18150  17.608  17.160  12.974
58648W        W18151   8.764   5.341  10.938
58649W        W18152  18.653  43.389   0.334
58650W        W18153  18.062  29.028  10.585
58651W        W18154   2.290   8.747  14.828
58652W        W18155   1.816  14.719   0.393
58653W        W18156   8.345  15.787   1.249
58654W        W18157  13.635   7.399   3.181
58655W        W18158  15.300  34.086   3.851
58656W        W18159  21.163  30.412   2.273
58657W        W18160  37.868  36.508   2.777
58658W        W18161  15.643  29.965   2.265
58659W        W18162  20.649  20.603   0.817
58660W        W18163   1.251   5.349  11.919
58661W        W18164  28.555  19.121   4.114
58662W        W18165  32.432   2.274   4.715
58663W        W18166  29.084  35.907   0.735
58664W        W18167  23.591  28.492   2.714
58665W        W18168  38.943  37.427   0.935
58666W        W18169  19.748  40.303  10.929
58667W        W18170   6.251  17.261   3.654
58668W        W18171  22.692  11.263   1.392
58669W        W18172  33.524  44.968  11.911
58670W        W18173  10.174  10.309  11.445
58671W        W18174  16.719   0.337   2.344
58672W        W18175  27.667  30.648   2.348
58673W        W18176  23.502  43.990   1.842
58674W        W18177  42.466  28.128   4.824
58675W        W18178   2.960  39.942  14.418
58676W        W18179  10.224  26.037   1.732
58677W        W18180  18.063  20.655  10.487
58678W        W18181   9.174   9.272  11.019
58679W        W18182  35.523   9.168   0.369
58680W        W18183  26.975  13.122  13.318
58681W        W18184  24.162  27.654   3.663
58682W        W18185  43.889  26.045   1.302
58683W        W18186  36.961  16.770   4.277
58684W        W18187  27.476  38.551  11.099
58685W        W18188  38.003  14.106  10.079
58686W        W18189  21.031  25.036  10.978
58687W        W18190  12.254  28.041  11.084
58688W        W18191   7.814   5.920   0.273
58689W        W18192  10.711  43.485  14.301
58690W        W18193  43.289   7.881  14.285
58691W        W18194  15.158  29.175   4.677
58692W        W18195  14.714   2.262   0.751
58693W        W18196  37.448  34.024  11.888
58694W        W18197  11.287  25.516  10.953
58695W        W18198  26.096  35.476   4.250
58696W        W18199  41.966  33.541  13.482
58697W        W18200  26.008  11.299  14.381
58698W        W18201  37.022  23.017   4.334
58699W        W18202   9.156  37.496  13.477
58700W        W18203  18.608  34.407   3.349
58701W        W18204   5.367  24.644   1.830
58702W        W18205  33.936  11.805   3.702
58703W        W18206  17.286   8.294  12.022
58704W        W18207   4.713  38.536   3.161
58705W        W18208  17.593   1.838   2.814
58706W        W18209   1.376  14.761   0.472
58707W        W18210  27.036  34.027   0.905
58708W        W18211  17.106  18.082  11.123
58709W        W18212  27.467  29.431   0.277
58710W        W18213  13.142   9.780  11.460
58711W        W18214  11.220  36.410   1.230
58712W        W18215  22.524  39.449   1.372
58713W        W18216  19.229  25.018  14.295
58714W        W18217  23.117  44.389   2.283
58715W        W18218  32.477   4.386   2.368
58716W        W18219  23.540   2.962  11.379
58717W        W18220  11.798  11.267   4.316
58718W        W18221  25.048   6.903   0.421
58719W        W18222  19.212  10.664   3.713
58720W        W18223  13.221  26.157   3.737
58721W        W18224  15.202   6.376  12.908
58722W        W18225   5.307  23.697  13.853
58723W        W18226  39.000  15.155   1.903
58724W        W18227  34.448  34.103  12.910
58725W        W18228   7.813  16.248   9.958
58726W        W18229  26.020  42.475  12.883
58727W        W18230  12.676   6.351  14.347
58728W        W18231  43.369  20.712  14.848
58729W        W18232  36.391  36.511   2.241
58730W        W18233  30.073  17.305   2.798
58731W        W18234  20.030  22.168   1.287
58732W        W18235  36.527  37.990  11.068
58733W        W18236  33.407  27.108   1.370
58734W        W18237  33.572  26.516  11.129
58735W        W18238  37.501  30.568   4.266
58736W        W18239   4.312   1.297  11.109
58737W        W18240  18.760  35.564   4.255
58738W        W18241  17.639  31.540  11.978
58739W        W18242  23.589  14.739  12.892
58740W        W18243   1.842  17.739   3.321
58741W        W18244  37.891  28.077  10.502
58742W        W18245  28.461  28.102  13.900
58743W        W18246  40.862  21.582  12.028
58744W        W18247  36.861  23.526  14.359
58745W        W18248   9.744  38.981  10.953
58746W        W18249   3.440  35.430   2.280
58747W        W18250  11.358   0.838   0.475
58748W        W18251  30.048  35.532  12.490
58749W        W18252  31.142  21.615  11.469
58750W        W18253  37.927   5.697   2.391
58751W        W18254  36.866  43.813   4.200
58752W        W18255  14.678   6.878   2.400
58753W        W18256  42.930  21.096   3.642
58754W        W18257  14.634  19.688   3.199
58755W        W18258  25.206   1.311   0.773
58756W        W18259  33.129   8.244   4.685
58757W        W18260  24.699  24.224  14.919
58758W        W18261  27.556  42.846   4.671
58759W        W18262  15.596   1.932   2.816
58760W        W18263   1.280  24.086  14.368
58761W        W18264  10.663  25.631  13.388
58762W        W18265  19.118  34.987  13.317
58763W        W18266  43.775  30.918   2.772
58764W        W18267  41.846   5.347  13.416
58765W        W18268  10.733   9.738  10.966
58766W        W18269  37.560  26.466  11.600
58767W        W18270  37.549  41.427  12.348
58768W        W18271  21.192  17.585  14.985
58769W        W18272  34.029   8.176  11.046
58770W        W18273  42.940  27.023  13.426
58771W        W18274   8.391  10.139  10.512
58772W        W18275  24.214  26.618  13.335
58773W        W18276   9.234   9.222  12.046
58774W        W18277  24.018  14.104   4.655
58775W        W18278  41.308  38.474   4.666
58776W        W18279  34.612   2.939  13.936
58777W        W18280  36.579   1.356  12.382
58778W        W18281  29.166   9.820   2.271
58779W        W18282   8.748  39.954  14.996
58780W        W18283   6.344   5.877  13.370
58781W        W18284   6.796  22.200   1.400
58782W        W18285  22.021  32.435  10.922
58783W        W18286  25.622  39.387   0.784
58784W        W18287  21.239  36.469  10.448
58785W        W18288  16.735  44.381  14.355
58786W        W18289   8.754  32.030   2.299
58787W        W18290  33.995  42.414  12.967
58788W        W18291   9.283  22.709   3.664
58789W        W18292  39.836   5.284   2.400
58790W        W18293  31.130  15.742   1.324
58791W        W18294  37.915  40.336   1.727
58792W        W18295  21.218  31.950  10.924
58793W        W18296  10.820   4.281  14.986
58794W        W18297  26.987   7.834  14.397
58795W        W18298  13.639   9.662   4.784
58796W        W18299  40.985  11.765   1.928
58797W        W18300   7.322  23.015   3.841
58798W        W18301  43.354  22.237   0.762
58799W        W18302  24.707  20.172   3.168
58800W        W18303   3.365  10.861  11.570
58801W        W18304   2.375  18.647   3.660
58802W        W18305   4.377  19.711   0.444
58803W        W18306  41.421   2.771   2.744
58804W        W18307  41.015   1.266  12.924
58805W        W18308  15.809  44.764   2.206
58806W        W18309  29.135   5.886   1.323
58807W        W18310  25.529  15.147   3.175
58808W        W18311  18.056  20.611   3.170
58809W        W18312   9.843  21.172  13.505
58810W        W18313  21.051  14.098   0.789
58811W        W18314  26.044  31.033   2.821
58812W        W18315   9.336   5.722   2.750
58813W        W18316  20.223  27.982  13.009
58814W        W18317  11.728  41.412   9.932
58815W        W18318   3.394  23.061  12.339
58816W        W18319  29.053   4.272  12.084
58817W        W18320   0.800  29.037   1.903
58818W        W18321   1.908  23.621  14.415
58819W        W18322   0.427  10.322  13.379
58820W        W18323  14.185   1.776  12.013
58821W        W18324  24.174  22.560   0.845
58822W        W18325  10.653   5.299  14.883
58823W        W18326   6.882  12.662   1.222
58824W        W18327  15.636  16.747   1.772
58825W        W18328  14.738  12.646  12.573
58826W        W18329  13.200   2.299   1.865
58827W        W18330   6.753  39.004  12.374
58828W        W18331  10.801  18.611   3.638
58829W        W18332  13.629  31.507  14.793
58830W        W18333  34.962  24.556  12.427
58831W        W18334  11.626  24.638   4.620
58832W        W18335   6.396   9.786   4.781
58833W        W18336   8.372   7.721  13.828
58834W        W18337  34.969  38.001  10.022
58835W        W18338  27.172  17.567  13.026
58836W        W18339  15.761   5.824   3.300
58837W        W18340  24.026   4.735  11.052
58838W        W18341  12.795  44.949   4.193
58839W        W18342  18.163  42.372  11.524
58840W        W18343   6.290  15.822   1.424
58841W        W18344   0.899  36.511  11.057
58842W        W18345   0.252   3.281   3.769
58843W        W18346  41.315  39.538   4.132
58844W        W18347  17.090   2.778   4.204
58845W        W18348   7.308  24.479  14.848
58846W        W18349   3.330   1.252   0.778
58847W        W18350  11.821  15.096  13.905
58848W        W18351   4.755   3.936  11.375
58849W        W18352  20.689  25.093   2.346
58850W        W18353  12.144  34.609   0.326
58851W        W18354   3.867  37.510  12.371
58852W        W18355  30.014  32.634  11.422
58853W        W18356  13.777   5.325  12.446
58854W        W18357  19.092   9.843  13.804
58855W        W18358  25.970  39.042   4.291
58856W        W18359   8.779   4.331  11.998
58857W        W18360   4.378  23.554   3.374
58858W        W18361   1.387   7.706   3.831
58859W        W18362  21.214  44.465   2.741
58860W        W18363  12.751  21.039   4.718
58861W        W18364  36.006  22.113  13.866
58862W        W18365  33.401  24.204  11.418
58863W        W18366  34.441  31.561  13.451
58864W        W18367  33.122   6.226   2.779
58865W        W18368  39.492  13.691   3.214
58866W        W18369   5.330  25.077   2.667
58867W        W18370  33.528   6.823  12.990
58868W        W18371  37.422   6.788  12.441
58869W        W18372  12.209  25.604   0.914
58870W        W18373  16.622  10.195  14.841
58871W        W18374  30.107  10.646   5.659
58872W        W18375   7.884  29.559   3.167
58873W        W18376   1.297  32.105  11.945
58874W        W18377   6.678  40.802   2.186
58875W        W18378  28.049  19.676  13.326
58876W        W18379  15.267  16.227   3.284
58877W        W18380  14.608  33.076  12.026
58878W        W18381  10.200  18.101   2.884
58879W        W18382  38.402  10.650  11.585
58880W        W18383   7.762  17.624   3.712
58881W        W18384  20.270  31.442  10.561
58882W        W18385  32.958  43.916  10.442
58883W        W18386   0.846  16.757   5.175
58884W        W18387  12.644   7.387   0.813
58885W        W18388   5.436  34.022  10.972
58886W        W18389  20.757  23.672   4.311
58887W        W18390  31.074  15.656   0.905
58888W        W18391  40.856  18.747  11.009
58889W        W18392   9.310  40.043  14.364
58890W        W18393  10.862  43.511   0.889
58891W        W18394  12.728   0.854  14.276
58892W        W18395  15.146  32.506  10.050
58893W        W18396  15.801  38.535  14.381
58894W        W18397  39.897  31.989   2.226
58895W        W18398  18.617  38.958   0.941
58896W        W18399  13.621  28.557   4.830
58897W        W18400  41.386  36.505   3.243
58898W        W18401  26.985  17.181   4.836
58899W        W18402  24.081   6.410  13.975
58900W        W18403  36.509   5.271   4.601
58901W        W18404  32.109   6.408   4.170
58902W        W18405  30.137  33.466   4.780
58903W        W18406  30.935  41.408  13.933
58904W        W18407   6.685  14.195   2.256
58905W        W18408  24.479  41.502   3.294
58906W        W18409  16.134  22.552   4.266
58907W        W18410  10.175  23.081  13.522
58908W        W18411  25.692  41.845   1.835
58909W        W18412  35.378  16.583   1.840
58910W        W18413  18.763  28.140   2.408
58911W        W18414  22.591   0.490  14.382
58912W        W18415   5.748  26.113   2.781
58913W        W18416  36.376   6.296  12.029
58914W        W18417   1.301  28.500   3.661
58915W        W18418  19.115  21.514  10.977
58916W        W18419  42.517  44.805   1.703
58917W        W18420  25.976  27.454   2.762
58918W        W18421  14.128  25.595  11.936
58919W        W18422  36.092  31.640   3.363
58920W        W18423  43.985  25.553  11.522
58921W        W18424   4.769  15.590  14.943
58922W        W18425  31.953  22.218  10.417
58923W        W18426  42.792  12.773   3.787
58924W        W18427  44.945  33.547  11.606
58925W        W18428  39.849  24.633   1.910
58926W        W18429  23.230  18.295   2.246
58927W        W18430  22.172  41.469  14.823
58928W        W18431   7.287   4.787   2.347
58929W        W18432  36.054  10.250  13.980
58930W        W18433  14.831  44.453  14.336
58931W        W18434  14.619   0.254   2.360
58932W        W18435  27.041  19.221  13.016
58933W        W18436  35.988   0.440  11.518
58934W        W18437   7.383  15.630   1.445
58935W        W18438  35.598  38.901  10.002
58936W        W18439  24.003  37.428  10.581
58937W        W18440  11.229  44.308  13.851
58938W        W18441  43.993  34.475  11.490
58939W        W18442  18.590   4.389  11.505
58940W        W18443  11.186  28.096   1.774
58941W        W18444   0.847  29.073   0.323
58942W        W18445  34.468  30.464  10.488
58943W        W18446  32.126   1.921  13.853
58944W        W18447  32.541  20.229   2.866
58945W        W18448  41.915  31.982   2.251
58946W        W18449  31.490  21.651   1.830
58947W        W18450   2.834  20.631   2.779
58948W        W18451  29.586  13.707   2.673
58949W        W18452  37.061   0.303   0.742
58950W        W18453  13.764  11.665   3.816
58951W        W18454   8.278  10.649  13.343
58952W        W18455   3.222  29.972   0.352
58953W        W18456   4.223  26.050   1.440
58954W        W18457   5.823  43.314  10.076
58955W        W18458   4.236  19.275   2.804
58956W        W18459   4.435  29.000   0.906
58957W        W18460  23.684  20.699   2.875
58958W        W18461  15.169  30.036  14.949
58959W        W18462  21.661  19.626   2.753
58960W        W18463  18.623  17.766  13.895
58961W        W18464   6.891   0.964  14.804
58962W        W18465  39.952  39.974  14.907
58963W        W18466  22.234  42.008   2.262
58964W        W18467  26.680  14.332  10.011
58965W        W18468  40.912  24.027   0.323
58966W        W18469  38.875  43.845  12.506
58967W        W18470  36.849  42.929   2.731
58968W        W18471  24.009  14.760  10.515
58969W        W18472  15.105  14.186   3.381
58970W        W18473  17.779  29.457  12.421
58971W        W18474  17.161  14.809  14.281
58972W        W18475  17.138  13.828  12.419
58973W        W18476  19.174  16.680  12.571
58974W        W18477  10.649  18.739   1.829
58975W        W18478  36.055  31.505   0.302
58976W        W18479  42.308   6.796   2.257
58977W        W18480   1.757  23.511   5.223
58978W        W18481  31.641  42.909   3.174
58979W        W18482  26.576  43.843   4.773
58980W        W18483  23.063  42.505   4.330
58981W        W18484  28.675  34.019   3.161
58982W        W18485  15.594  10.648   3.379
58983W        W18486  40.389  38.469   2.785
58984W        W18487  15.801   1.250   1.710
58985W        W18488   4.410  12.792  11.601
58986W        W18489  43.903  24.978   2.308
58987W        W18490  16.166  42.808   2.414
58988W        W18491  21.706  15.731   3.223
58989W        W18492  38.833  38.366  11.920
58990W        W18493  26.965  22.537   4.783
58991W        W18494   7.171  26.179  11.537
58992W        W18495  38.409  19.564   1.919
58993W        W18496   6.384  21.173   4.724
58994W        W18497  38.849   6.676  14.488
58995W        W18498  41.841  42.328  11.991
58996W        W18499   0.362  38.454  13.360
58997W        W18500  37.520  26.173  12.945
58998W        W18501  38.821  29.035   4.814
58999W        W18502  43.919   1.962   4.703
59000W        W18503  44.835  21.514  13.469
59001W        W18504  27.984  14.096  14.453
59002W        W18505   2.816   5.403   0.375
59003W        W18506  11.843  12.196  14.933
59004W        W18507  26.086  44.819  13.380
59005W        W18508  16.226  30.538  11.515
59006W        W18509   6.887  39.395   1.261
59007W        W18510  40.868   4.278   2.345
59008W        W18511  24.130  37.831   3.285
59009W        W18512  16.090  18.595   2.677
59010W        W18513  15.308  22.564   0.775
59011W        W18514  13.133   6.676   0.270
59012W        W18515   0.330  20.535   0.269
59013W        W18516  36.499  38.059   4.294
59014W        W18517  40.352  19.187   2.308
59015W        W18518  11.630   9.193   2.772
59016W        W18519  23.108  35.566   4.649
59017W        W18520  10.740   4.921  11.069
59018W        W18521   6.352  17.620  11.411
59019W        W18522  40.858   1.295   3.324
59020W        W18523   7.385  12.317  12.561
59021W        W18524  30.998   1.248   0.943
59022W        W18525  35.596  22.634   0.339
59023W        W18526   8.898  37.528   3.686
59024W        W18527  35.866   5.435  14.822
59025W        W18528  21.576  44.479  13.416
59026W        W18529  13.786  13.778   4.190
59027W        W18530  22.625  25.609   3.321
59028W        W18531  16.180  40.488   1.347
59029W        W18532  10.371  20.100   4.686
59030W        W18533  34.090  34.548  10.048
59031W        W18534  40.820   8.323  14.444
59032W        W18535  10.154  28.614  13.044
59033W        W18536  18.185  28.081  10.527
59034W        W18537  40.036  15.162   1.308
59035W        W18538   0.437  28.673   0.889
59036W        W18539  30.980  42.030   1.339
59037W        W18540  30.951  10.758  14.907
59038W        W18541  16.100  43.964  10.451
59039W        W18542   2.838   9.379  14.787
59040W        W18543  42.865  27.681  14.789
59041W        W18544  40.025   6.820   1.408
59042W        W18545   6.722   3.441   0.816
59043W        W18546  16.194  40.800  11.442
59044W        W18547   2.275   7.341   1.307
59045W        W18548  21.606   8.715  14.356
59046W        W18549  30.578  41.913   1.447
59047W        W18550  41.945  18.128  10.930
59048W        W18551  12.355  40.481   2.204
59049W        W18552   3.793  10.814  14.986
59050W        W18553   4.743  33.929  13.052
59051W        W18554  10.290  30.481   1.717
59052W        W18555  17.647  35.037   3.834
59053W        W18556  25.166  30.018  12.880
59054W        W18557   0.917   4.303  12.991
59055W        W18558  29.480  42.369   3.256
59056W        W18559   9.270  38.919  13.430
59057W        W18560   9.275  19.272  14.487
59058W        W18561   6.298   3.276  11.964
59059W        W18562  18.292  13.351   2.684
59060W        W18563  27.454  10.357  14.864
59061W        W18564  26.635  14.801   0.385
59062W        W18565  20.249   2.770  11.876
59063W        W18566  40.537   8.281  10.469
59064W        W18567  44.009  25.699   2.725
59065W        W18568  28.092  42.463   0.738
59066W        W18569  24.194  42.913   4.758
59067W        W18570  28.535   9.838   1.394
59068W        W18571  37.410   0.858  11.897
59069W        W18572  33.125  38.821  14.436
59070W        W18573  33.463   4.777  11.613
59071W        W18574  41.897  40.412   4.822
59072W        W18575  14.635  28.628  11.573
59073W        W18576  35.427  37.428   4.352
59074W        W18577   5.725   7.400   0.851
59075W        W18578  41.457  36.084  13.424
59076W        W18579  27.058  36.540   0.393
59077W        W18580   4.209  12.794  14.848
59078W        W18581   0.467   3.876  14.469
59079W        W18582  13.620  29.137  10.446
59080W        W18583   8.683  37.514   1.763
59081W        W18584  28.144   3.794  14.913
59082W        W18585  14.752  31.915   9.651
59083W        W18586  26.146   5.354   3.160
59084W        W18587  23.188  13.622   4.805
59085W        W18588  10.649   9.312   1.297
59086W        W18589  10.159  10.262   2.363
59087W        W18590  29.089  44.484  14.408
59088W        W18591  39.399  15.710   1.359
59089W        W18592  25.604  39.511   1.756
59090W        W18593  32.561  18.547  12.926
59091W        W18594  30.423   0.297   1.746
59092W        W18595  22.051   6.809   3.262
59093W        W18596   8.194   0.945  13.431
59094W        W18597  36.878   3.339  12.397
59095W        W18598   7.801  35.518   0.960
59096W        W18599  24.166  37.563  12.951
59097W        W18600  23.613  44.493   2.703
59098W        W18601  38.493  25.468   3.685
59099W        W18602  12.634  15.651   1.904
59100W        W18603   4.206  39.984  11.071
59101W        W18604  27.520  36.479   4.712
59102W        W18605  23.055  33.458   4.305
59103W        W18606  25.151  19.665   4.640
59104W        W18607  38.558  37.885  14.444
59105W        W18608  28.155  42.957   1.354
59106W        W18609  39.472  15.636   3.832
59107W        W18610  18.182  32.086  11.409
59108W        W18611   8.718   7.815   0.857
59109W        W18612  21.688  20.092  14.507
59110W        W18613   6.364  19.714   1.753
59111W        W18614  11.842  41.890  13.540
59112W        W18615  35.930   5.774  12.522
59113W        W18616   8.227  12.755  14.834
59114W        W18617  24.576  35.517  13.340
59115W        W18618  10.311  31.591  12.579
59116W        W18619   0.286  25.608  14.760
59117W        W18620  15.324  23.059  10.559
59118W        W18621   9.176   7.217   4.639
59119W        W18622  34.091  24.597   2.339
59120W        W18623  29.522  35.363  13.988
59121W        W18624  21.700  34.564   0.420
59122W        W18625  24.596  28.650  11.901
59123W        W18626   6.279   2.733   1.245
59124W        W18627  26.491  39.824  12.008
59125W        W18628   7.742   8.814   1.214
59126W        W18629   3.370  34.951  13.804
59127W        W18630   9.151  40.368   9.978
59128W        W18631  14.800  11.750  11.382
59129W        W18632  30.548  26.140  11.505
59130W        W18633  19.233  15.591   0.949
59131W        W18634  14.793  15.727  14.834
59132W        W18635  30.460  39.486   1.856
59133W        W18636  20.546  43.414  12.927
59134W        W18637  29.014  12.280  11.497
59135W        W18638   9.883  13.304   0.476
59136W        W18639  37.930  26.622   2.854
59137W        W18640  35.525  27.958  13.400
59138W        W18641  41.494   8.270   2.752
59139W        W18642  34.489  19.558   4.683
59140W        W18643  24.178   9.716  11.099
59141W        W18644  25.544   8.793  10.559
59142W        W18645  43.003   2.357  11.431
59143W        W18646  29.549  14.230  10.122
59144W        W18647   5.206   4.784  11.023
59145W        W18648  31.592  36.510  10.405
59146W        W18649   6.815   9.690   4.701
59147W        W18650  19.074  21.596  10.422
59148W        W18651   3.902  37.034  13.982
59149W        W18652  16.237  24.481   4.804
59150W        W18653  19.634  12.312  10.437
59151W        W18654   6.693   2.915   3.263
59152W        W18655  42.882  10.746   3.338
59153W        W18656  33.949  17.074  12.457
59154W        W18657  24.677   1.453  12.406
59155W        W18658  35.858  30.489  11.437
59156W        W18659  20.743  21.546  12.853
59157W        W18660  24.653   2.350  12.402
59158W        W18661   4.912  10.816  10.607
59159W        W18662  41.810  18.103   0.398
59160W        W18663  39.558  33.567  11.606
59161W        W18664  38.329  14.676  10.449
59162W        W18665   7.786  10.719   4.784
59163W        W18666  22.674  28.984   3.639
59164W        W18667  25.641  28.640  14.335
59165W        W18668  14.701   1.764   1.719
59166W        W18669  15.769  30.483   1.929
59167W        W18670  28.480   6.362  11.082
59168W        W18671   8.405  39.396   0.372
59169W        W18672  42.906  20.255   2.183
59170W        W18673  34.438  42.791   1.904
59171W        W18674  21.060   8.233  12.909
59172W        W18675  23.141  24.981   2.862
59173W        W18676  14.801  23.716  12.354
59174W        W18677  18.051   4.311  13.367
59175W        W18678  18.125  12.261  14.394
59176W        W18679  24.501  37.444  10.578
59177W        W18680  28.449  39.475  11.467
59178W        W18681  33.384  27.667  13.027
59179W        W18682  32.506  32.951   1.427
59180W        W18683  18.202  14.258   1.254
59181W        W18684  14.790   1.250  10.444
59182W        W18685   4.436  25.527  11.923
59183W        W18686  42.869  26.681  14.818
59184W        W18687  10.673  34.947  11.075
59185W        W18688  32.590  31.580   0.383
59186W        W18689  28.992  16.146   4.165
59187W        W18690  24.081   6.275   2.407
59188W        W18691  11.300  31.439   0.384
59189W        W18692   3.423  17.282  14.982
59190W        W18693  15.643  29.622  11.010
59191W        W18694  20.527   0.371   0.795
59192W        W18695   6.365  14.762   0.882
59193W        W18696  33.562  19.727   4.321
59194W        W18697  22.144  43.329  14.373
59195W        W18698   5.787  20.130  11.527
59196W        W18699  10.704  10.703   3.747
59197W        W18700  13.159  29.641   0.899
59198W        W18701  16.088  13.749  11.078
59199W        W18702  27.579  22.043  13.814
59200W        W18703  37.969  22.562   9.962
59201W        W18704  33.568  24.565   4.346
59202W        W18705  15.672   8.889  12.403
59203W        W18706  22.683   8.752  12.557
59204W        W18707   2.385  43.313  13.019
59205W        W18708  11.683  14.312   1.803
59206W        W18709  11.371  30.907  14.359
59207W        W18710  25.209  22.035   1.283
59208W        W18711  23.576  32.494   1.385
59209W        W18712   6.902  11.630   1.894
59210W        W18713  14.615  32.457   9.468
59211W        W18714  35.100  30.656  13.061
59212W        W18715  18.738  29.572  13.901
59213W        W18716  36.868  27.044  12.579
59214W        W18717   9.375  22.688  11.979
59215W        W18718  30.460  20.705  11.609
59216W        W18719  34.954   5.377   4.611
59217W        W18720  22.602  26.518  14.440
59218W        W18721  21.736   0.300   2.764
59219W        W18722   0.302   5.401  12.480
59220W        W18723  39.540   5.716  13.404
59221W        W18724  31.117   4.397   4.703
59222W        W18725  25.161  29.960  13.329
59223W        W18726  36.017  27.573  14.357
59224W        W18727   7.844  37.478  10.128
59225W        W18728   7.830   4.925   2.765
59226W        W18729  31.605  30.571  13.053
59227W        W18730  32.459  32.631   4.142
59228W        W18731  42.322  37.535   1.737
59229W        W18732   7.233   8.768   4.302
59230W        W18733  36.030  21.655  10.622
59231W        W18734  16.800  28.171   2.291
59232W        W18735  43.774  17.641  12.369
59233W        W18736  36.035  27.107  14.029
59234W        W18737  31.515  36.548  13.064
59235W        W18738  14.685   3.882  13.032
59236W        W18739  14.697  19.074  12.458
59237W        W18740  44.969  33.507   1.210
59238W        W18741  13.820  15.276   3.726
59239W        W18742  31.906  24.070  14.968
59240W        W18743  36.926  26.011  10.997
59241W        W18744  38.927  28.047   1.361
59242W        W18745  44.892  27.114   0.895
59243W        W18746  36.013  40.808  11.544
59244W        W18747  34.551   0.868  11.976
59245W        W18748  31.606  14.215   0.439
59246W        W18749  17.295  32.002   4.789
59247W        W18750  22.139  26.673   3.860
59248W        W18751  39.053  31.058   0.328
59249W        W18752  18.788  34.975   2.379
59250W        W18753  36.424   5.817   9.522
59251W        W18754   6.713  14.204  13.433
59252W        W18755  23.139  31.939  13.379
59253W        W18756   7.236  30.560  13.372
59254W        W18757  21.689  42.854  12.579
59255W        W18758  29.596  40.054  14.805
59256W        W18759  40.892  40.409   4.272
59257W        W18760  41.401  36.881   1.242
59258W        W18761   1.931  39.413   0.376
59259W        W18762  43.346   2.431  11.522
59260W        W18763  34.918   6.833  11.035
59261W        W18764   8.773  35.933  11.116
59262W        W18765  33.094  39.398   1.223
59263W        W18766  32.562  12.159   9.991
59264W        W18767   6.829  28.595   3.157
59265W        W18768  39.836  20.085  11.887
59266W        W18769  26.978  22.570  12.953
59267W        W18770  10.836  34.947  11.572
59268W        W18771   4.284  42.815   0.482
59269W        W18772  22.084   0.300   4.144
59270W        W18773   3.786  11.185  14.495
59271W        W18774  19.739  29.055  11.973
59272W        W18775  44.275   4.401   3.633
59273W        W18776  37.014  44.341   0.363
59274W        W18777  34.027  39.858  14.413
59275W        W18778  27.034  10.271   0.907
59276W        W18779  12.795  41.798   2.354
59277W        W18780  34.421  34.041  11.927
59278W        W18781  43.016   5.733   3.219
59279W        W18782   4.714  41.399  13.845
59280W        W18783  33.018  42.404   0.339
59281W        W18784  28.929  43.933  12.374
59282W        W18785   4.418  33.406   2.401
59283W        W18786  12.282  28.159   4.221
59284W        W18787  30.062  26.066   3.382
59285W        W18788  11.129   8.815  10.432
59286W        W18789   8.347   6.201   1.817
59287W        W18790   4.384  25.190  13.872
59288W        W18791  11.155  26.607   3.330
59289W        W18792  12.330  18.681   1.450
59290W        W18793  33.960  18.263   3.209
59291W        W18794  41.502  19.687  11.040
59292W        W18795  34.370  28.162   4.301
59293W        W18796  16.743  29.448   3.811
59294W        W18797  38.331  18.704   3.201
59295W        W18798   0.839  21.560   0.867
59296W        W18799  39.860  25.636  10.469
59297W        W18800   0.289  20.143   1.289
59298W        W18801  41.385   0.939   1.810
59299W        W18802  41.443  13.274   2.404
59300W        W18803  40.480  35.375   2.811
59301W        W18804  30.935   4.286   1.327
59302W        W18805  33.024  17.088   2.772
59303W        W18806  30.100  35.480  11.918
59304W        W18807  20.534   2.273   3.864
59305W        W18808  29.953  32.566   1.871
59306W        W18809  24.983  34.476   3.314
59307W        W18810  22.068  18.203   0.824
59308W        W18811  26.657   4.336   0.893
59309W        W18812  31.425  26.081  11.515
59310W        W18813  23.140  29.591   1.891
59311W        W18814   5.276  20.066   4.801
59312W        W18815  31.075   1.292   2.341
59313W        W18816  24.703  11.717   3.288
59314W        W18817  35.377  11.814   4.307
59315W        W18818  16.218  15.717   4.126
59316W        W18819  41.850   0.410  14.511
59317W        W18820   7.792  39.366   3.762
59318W        W18821   0.753  37.842  12.421
59319W        W18822  27.688  17.609   4.352
59320W        W18823  41.935  18.774  13.506
59321W        W18824   0.744  14.832   4.652
59322W        W18825  11.313  38.364   1.882
59323W        W18826  26.661  19.747   0.423
59324W        W18827  34.864  44.277  11.045
59325W        W18828  25.515  33.626   0.280
59326W        W18829  25.107   6.692   0.755
59327W        W18830  35.020  38.401  13.926
59328W        W18831  29.576   1.301   2.197
59329W        W18832   0.791  39.504   3.785
59330W        W18833  30.038  19.266  13.379
59331W        W18834  13.187  34.482   4.652
59332W        W18835  30.535   0.942   1.334
59333W        W18836   1.280   8.300   0.412
59334W        W18837  25.982  24.180  13.857
59335W        W18838   2.933   9.643  10.641
59336W        W18839  15.123  28.084  10.488
59337W        W18840  10.718  11.178   4.276
59338W        W18841  32.473  12.229  11.867
59339W        W18842  18.155  36.996   1.817
59340W        W18843   0.344  18.229   0.280
59341W        W18844  34.565   9.860  12.454
59342W        W18845   3.848  12.190  11.566
59343W        W18846  16.765  19.757  14.866
59344W        W18847   6.688  43.859  13.498
59345W        W18848   6.267  22.034   1.718
59346W        W18849  22.518   5.358   1.715
59347W        W18850   7.361  27.490  11.890
59348W        W18851   0.777  15.311  13.449
59349W        W18852   3.325   8.328  11.387
59350W        W18853  14.114   3.255   1.436
59351W        W18854  35.102   9.358   4.646
59352W        W18855  21.135   6.865  10.995
59353W        W18856  28.457  22.188  12.925
59354W        W18857  14.266  39.323  14.488
59355W        W18858  10.670  15.611   1.415
59356W        W18859  13.747  34.003  11.865
59357W        W18860  39.979  25.986   3.312
59358W        W18861  42.497  20.186  11.964
59359W        W18862  44.433  14.595   3.261
59360W        W18863  13.723  29.004  14.898
59361W        W18864   9.762  36.374  10.505
59362W        W18865   1.785  23.028   4.617
59363W        W18866  44.343  35.363  12.993
59364W        W18867   7.177  21.753   0.900
59365W        W18868  17.734  34.086   2.770
59366W        W18869  40.386   2.885   9.971
59367W        W18870  32.613  38.893   2.686
59368W        W18871  21.542  15.328   0.468
59369W        W18872  27.191  30.470  12.038
59370W        W18873  13.660  23.022   2.899
59371W        W18874  16.570  17.712   2.777
59372W        W18875  14.657  14.776   1.906
59373W        W18876   3.420  40.990  12.386
59374W        W18877  16.605   1.362   4.126
59375W        W18878   8.857  27.078   0.857
59376W        W18879  26.006  40.340  11.389
59377W        W18880  42.028  26.952  11.915
59378W        W18881  15.180  34.567   4.786
59379W        W18882   1.366  42.961   2.181
59380W        W18883  41.805  36.967   4.827
59381W        W18884  17.076   6.734   2.396
59382W        W18885   6.412  25.219  14.487
59383W        W18886  29.114  41.840   1.409
59384W        W18887  11.158  23.995  13.499
59385W        W18888   8.884  13.341  14.512
59386W        W18889  37.579  19.601  14.021
59387W        W18890  41.345  44.938  10.511
59388W        W18891  41.856  35.856   4.602
59389W        W18892  40.989  41.017   1.794
59390W        W18893  43.428  42.469   3.322
59391W        W18894  36.908  28.570   3.147
59392W        W18895  26.202   2.825   1.816
59393W        W18896  16.086   9.648   4.164
59394W        W18897   9.803  19.125   1.794
59395W        W18898   7.267  17.297   3.276
59396W        W18899  29.604  24.082  12.501
59397W        W18900  38.819   7.847   0.878
59398W        W18901  25.142  29.957   4.814
59399W        W18902   1.737   7.805  12.408
59400W        W18903  34.574   4.306  14.497
59401W        W18904  31.506  10.675  13.475
59402W        W18905  11.226  16.227  13.963
59403W        W18906  24.519  44.325   5.150
59404W        W18907  26.688  39.013   0.347
59405W        W18908  41.443  42.488   0.858
59406W        W18909   3.792  42.831  14.897
59407W        W18910  31.918   9.831   4.775
59408W        W18911  44.439   2.921  12.004
59409W        W18912  22.689  22.087   0.875
59410W        W18913   4.711  32.960  14.397
59411W        W18914   7.295  36.067  14.895
59412W        W18915  37.555   9.661  12.882
59413W        W18916   5.926   4.248   2.760
59414W        W18917  30.081  18.580   2.837
59415W        W18918  44.919  40.042  11.396
59416W        W18919  27.632  39.457   4.274
59417W        W18920  27.461  42.525  13.308
59418W        W18921  42.522  40.822  10.924
59419W        W18922  28.473  41.791  12.850
59420W        W18923  12.315  23.031  14.318
59421W        W18924   4.256   5.408   0.336
59422W        W18925  37.451  38.451   3.765
59423W        W18926  22.078  44.764   0.472
59424W        W18927  16.148  13.818   1.885
59425W        W18928  22.095  18.741   1.916
59426W        W18929   9.192  39.945  13.036
59427W        W18930   9.197  35.946  14.898
59428W        W18931  36.908   9.679   0.320
59429W        W18932  19.250  42.889   1.925
59430W        W18933  25.973  43.296   1.413
59431W        W18934  18.117   3.444  12.443
59432W        W18935   8.363   7.415   3.376
59433W        W18936  11.669   3.812   3.658
59434W        W18937  16.625  27.661   3.157
59435W        W18938  17.177  21.248   4.313
59436W        W18939  24.575  13.702  14.909
59437W        W18940  10.820  28.065  12.573
59438W        W18941  30.044   3.285   0.355
59439W        W18942  36.560  14.241   0.866
59440W        W18943  28.133  10.141   3.192
59441W        W18944  42.511   5.771   4.242
59442W        W18945  18.783  30.533   3.776
59443W        W18946   2.424   4.246  10.905
59444W        W18947  24.582  21.173   2.318
59445W        W18948   3.891   2.470  10.418
59446W        W18949  16.611   8.232  10.925
59447W        W18950  10.863  43.865   4.742
59448W        W18951   7.240   9.782   0.473
59449W        W18952   2.821   6.344  13.501
59450W        W18953  25.047  14.288  12.495
59451W        W18954  41.354  16.653  11.439
59452W        W18955   5.836  35.975  11.571
59453W        W18956  33.433  32.486   3.213
59454W        W18957  21.728  42.475  13.018
59455W        W18958  39.525  23.677   3.752
59456W        W18959  23.639  10.720  13.373
59457W        W18960   1.269  15.187  14.362
59458W        W18961  12.272  39.039  10.049
59459W        W18962  18.686   1.238   1.448
59460W        W18963   2.914  10.334   3.735
59461W        W18964  24.491  18.126  12.984
59462W        W18965   3.881  13.602  14.802
59463W        W18966  17.191  27.480   2.726
59464W        W18967   9.649  44.367   3.380
59465W        W18968   0.762  22.568  11.976
59466W        W18969  26.128  32.111  11.037
59467W        W18970   7.293  23.735  12.351
59468W        W18971  16.610  43.447   2.417
59469W        W18972  37.343  14.736   4.627
59470W        W18973  22.049  26.081  12.490
59471W        W18974  23.199   0.413   0.447
59472W        W18975  39.539  33.891  10.964
59473W        W18976  13.279  27.602  11.472
59474W        W18977  19.571  39.481   2.407
59475W        W18978  44.428  33.032   4.345
59476W        W18979   1.282  44.000  13.953
59477W        W18980  23.529  25.166  14.927
59478W        W18981  25.106  40.022   0.784
59479W        W18982  13.174   3.929  11.433
59480W        W18983  34.898  22.123   3.650
59481W        W18984  40.324   0.747  10.007
59482W        W18985  28.534  18.587  11.568
59483W        W18986   9.740  24.013   1.397
59484W        W18987  31.496  15.299   5.196
59485W        W18988  13.225  23.142   4.719
59486W        W18989  14.624  24.533   3.844
59487W        W18990  11.727  23.056  11.564
59488W        W18991   8.238  38.488   2.238
59489W        W18992  22.225  29.943   1.740
59490W        W18993  40.986   4.913   1.934
59491W        W18994  10.699  13.338  10.925
59492W        W18995  35.038   2.408  13.815
59493W        W18996  30.085   8.755   0.936
59494W        W18997  13.194  42.320  13.962
59495W        W18998  14.810  38.877   3.357
59496W        W18999  22.552  16.283   2.251
59497W        W19000  16.692  40.991   2.362
59498W        W19001   3.748   3.713  14.875
59499W        W19002  12.151  14.835   1.229
59500W        W19003  10.348  38.532   4.304
59501W        W19004  24.165  12.773  10.551
59502W        W19005  30.658   8.867   0.386
59503W        W19006  28.965  18.746   4.701
59504W        W19007  22.184  23.997  12.958
59505W        W19008  11.657  39.965   1.386
59506W        W19009  10.295   5.416   1.702
59507W        W19010  38.472  31.959  14.968
59508W        W19011  13.702  37.472  10.493
59509W        W19012  31.453  35.521  11.905
59510W        W19013  23.637   3.268   4.731
59511W        W19014  41.405  31.433  13.520
59512W        W19015  23.495  15.129   3.768
59513W        W19016   8.257   7.706   0.923
59514W        W19017  39.319  24.987   4.820
59515W        W19018  39.531  42.414   3.667
59516W        W19019  27.122   8.861   1.839
59517W        W19020  19.078  12.178  10.465
59518W        W19021   3.714  26.992  12.845
59519W        W19022  11.711  43.857  13.793
59520W        W19023  36.476  32.963  12.508
59521W        W19024   3.460   1.458   2.350
59522W        W19025  19.235  32.485  13.360
59523W        W19026   0.409  41.323  10.579
59524W        W19027  28.654  30.471  12.052
59525W        W19028   7.269  27.448   2.181
59526W        W19029  11.305  34.961  12.525
59527W        W19030  31.907  42.475  12.421
59528W        W19031  31.070  27.480  11.868
59529W        W19032  26.615  34.958   3.713
59530W        W19033  12.352   5.744  11.002
59531W        W19034  10.198  21.114  14.515
59532W        W19035   5.915   6.397  11.605
59533W        W19036   5.418   0.387  13.423
59534W        W19037   2.782  19.168   3.779
59535W        W19038   7.304  29.166   2.744
59536W        W19039  18.621  29.575  11.881
59537W        W19040  24.150  30.975  14.386
59538W        W19041  19.629  17.587  14.020
59539W        W19042  23.730  14.641   2.281
59540W        W19043   7.843  15.651  13.346
59541W        W19044   3.728  38.004  11.037
59542W        W19045   7.768  43.369   3.840
59543W        W19046  44.495  38.426  10.115
59544W        W19047  38.506   7.701   2.231
59545W        W19048  32.962  37.879  14.839
59546W        W19049  43.390  38.502  13.840
59547W        W19050  18.566  36.880   3.740
59548W        W19051  35.477  21.181  13.495
59549W        W19052   8.728  38.406  14.354
59550W        W19053  34.097  43.505   1.354
59551W        W19054  39.344  36.970  12.857
59552W        W19055  10.637  24.009   3.314
59553W        W19056  11.196   0.423   3.251
59554W        W19057  33.615  41.378   2.321
59555W        W19058  43.457  36.409   0.260
59556W        W19059  26.197   9.173   4.704
59557W        W19060  33.041  15.714  14.814
59558W        W19061   5.295  24.183   2.280
59559W        W19062   9.364  37.550   2.218
59560W        W19063  42.848  44.473   0.950
59561W        W19064   2.421  27.559   3.197
59562W        W19065  44.814  29.574   2.878
59563W        W19066  16.228  27.044  10.989
59564W        W19067  14.741  11.234  13.398
59565W        W19068  15.610  22.616   1.700
59566W        W19069  26.956   8.767  13.530
59567W        W19070  27.191  18.115   2.678
59568W        W19071   5.334  29.024   1.881
59569W        W19072  22.176  37.835   0.786
59570W        W19073   7.679  37.565  11.454
59571W        W19074  11.258  28.668  14.363
59572W        W19075  14.243   0.340   2.672
59573W        W19076  41.314  40.004   4.176
59574W        W19077  16.141   1.909  13.433
59575W        W19078  40.408  20.203   3.365
59576W        W19079  20.167  43.984  10.598
59577W        W19080  43.424  44.971  13.954
59578W        W19081  12.234   2.882   3.845
59579W        W19082  17.157  22.603   1.751
59580W        W19083  25.194  17.110   1.431
59581W        W19084   5.319  27.641   1.297
59582W        W19085  10.857  33.050   2.190
59583W        W19086  11.352   6.378   0.808
59584W        W19087  12.331  29.105  10.482
59585W        W19088  43.296  14.266  10.589
59586W        W19089  32.466   2.313   0.821
59587W        W19090  22.524  28.030   3.666
59588W        W19091   1.754  38.883  14.384
59589W        W19092  25.012  37.999  14.887
59590W        W19093   5.331  20.148  13.542
59591W        W19094  12.341  23.619  11.050
59592W        W19095   3.871  12.291  11.960
59593W        W19096  28.591  11.690   3.152
59594W        W19097  41.813  19.083   9.475
59595W        W19098  38.833  19.140   4.159
59596W        W19099   2.765  32.442  12.935
59597W        W19100  35.928  39.373  13.021
59598W        W19101  19.697  38.829  14.395
59599W        W19102  22.567  26.635   9.927
59600W        W19103   3.917  13.257   3.819
59601W        W19104  10.302  12.668  14.331
59602W        W19105  22.574   6.403   1.230
59603W        W19106  20.683  14.772   2.343
59604W        W19107  23.048  15.771   0.893
59605W        W19108   8.790   7.262   1.820
59606W        W19109   7.773  12.850  13.984
59607W        W19110  32.604  44.964   3.193
59608W        W19111  39.530  10.764  13.379
59609W        W19112  31.077  27.617   9.650
59610W        W19113  10.793   5.921   0.958
59611W        W19114  44.395  30.460   0.302
59612W        W19115  37.012  24.068  11.479
59613W        W19116  44.939  18.625  11.417
59614W        W19117  29.143  14.242  12.845
59615W        W19118   4.865  12.611  11.882
59616W        W19119  13.159  40.839   0.810
59617W        W19120  31.510  30.605   2.835
59618W        W19121  39.048  19.602  14.905
59619W        W19122  18.208  39.499   4.807
59620W        W19123  11.855  17.186   9.513
59621W        W19124  40.423   6.326   3.711
59622W        W19125  25.138   5.372   1.278
59623W        W19126  22.696  12.772   4.240
59624W        W19127  44.307  11.656  11.522
59625W        W19128  40.331  32.044   3.845
59626W        W19129   5.733  40.366   4.257
59627W        W19130  33.380   0.837   2.682
59628W        W19131  44.450  24.109  11.084
59629W        W19132  19.590  13.738   2.878
59630W        W19133  32.936   2.457  12.845
59631W        W19134  18.791  26.595  12.857
59632W        W19135  40.322  35.990  11.087
59633W        W19136  14.664  22.138   2.668
59634W        W19137   6.321   6.376   4.731
59635W        W19138  10.166  38.389   1.358
59636W        W19139  23.584  28.955   0.324
59637W        W19140  20.578  26.512   2.190
59638W        W19141  44.277  11.801  13.824
59639W        W19142   2.786   2.342  11.444
59640W        W19143  29.563   2.449   1.253
59641W        W19144  28.451  22.619  10.058
59642W        W19145   9.826   5.225  12.360
59643W        W19146   1.885  35.109  11.980
59644W        W19147  10.297  26.184   2.353
59645W        W19148  43.306  22.704   5.290
59646W        W19149  32.448  39.986  10.575
59647W        W19150  17.695  13.191   1.316
59648W        W19151  39.921  38.872  13.506
59649W        W19152  39.354  21.069  12.542
59650W        W19153  27.117  36.990   0.765
59651W        W19154   5.849   5.428  11.960
59652W        W19155   0.790   6.734  14.988
59653W        W19156  37.018   3.250   3.711
59654W        W19157  26.966  21.563  10.946
59655W        W19158  44.493  14.688  12.039
59656W        W19159  10.806  31.501   4.311
59657W        W19160  14.180  23.648  11.041
59658W        W19161   3.351  35.949  14.371
59659W        W19162  34.447  42.509  12.531
59660W        W19163   1.955  40.404   1.347
59661W        W19164   8.403   9.658  13.994
59662W        W19165   9.326  21.666  11.441
59663W        W19166  16.097  39.317  10.623
59664W        W19167  27.116   0.365   2.188
59665W        W19168  13.769  37.012   2.327
59666W        W19169  25.967  30.986   0.805
59667W        W19170   2.427  37.916  13.435
59668W        W19171  14.128  14.732   3.291
59669W        W19172  20.208   5.379   1.776
59670W        W19173  13.610  18.143   4.143
59671W        W19174  11.741  25.177   4.269
59672W        W19175  21.083   8.193  14.275
59673W        W19176  42.810  15.277  13.338
59674W        W19177  20.628   6.846  10.517
59675W        W19178  39.853  40.922   2.345
59676W        W19179   9.294   0.926   4.269
59677W        W19180  44.782  44.887   4.269
59678W        W19181  32.919   0.337   2.403
59679W        W19182   2.356   5.905   3.291
59680W        W19183  22.148  19.239   1.365
59681W        W19184  18.743  21.214  11.513
59682W        W19185  15.123   8.327  14.828
59683W        W19186  37.520   4.812   3.769
59684W        W19187  11.333   7.760   2.808
59685W        W19188  35.918  35.436  11.935
59686W        W19189  13.320  34.434   1.442
59687W        W19190  30.617  44.390  11.967
59688W        W19191  24.084  28.504   2.750
59689W        W19192  41.891  13.268  13.346
59690W        W19193   9.800  28.510  13.909
59691W        W19194  31.926  23.120  12.537
59692W        W19195   0.845  26.582   0.251
59693W        W19196  21.692   1.902   1.873
59694W        W19197  40.845  24.172  14.395
59695W        W19198  38.469  29.569  14.836
59696W        W19199   4.440  36.412   0.273
59697W        W19200  20.226  41.437  14.363
59698W        W19201  14.264  25.110  11.561
59699W        W19202   7.725  19.711   1.933
59700W        W19203  22.106  20.616  14.478
59701W        W19204  24.536   0.263  13.471
59702W        W19205  18.261  39.943  14.990
59703W        W19206  20.183  29.631   1.889
59704W        W19207  10.730  38.455  12.424
59705W        W19208  31.622  33.060   4.807
59706W        W19209  12.658   9.388  11.612
59707W        W19210  26.690  26.541  10.533
59708W        W19211   4.382  20.101  12.063
59709W        W19212   1.888  16.717   4.291
59710W        W19213  22.671  36.545   0.794
59711W        W19214   9.286  19.565   4.694
59712W        W19215  32.461   6.780  12.543
59713W        W19216  26.050  18.583  13.834
59714W        W19217   4.238  25.051  10.034
59715W        W19218   2.724   0.464  11.052
59716W        W19219   5.780   4.741  13.373
59717W        W19220  43.377  40.395   3.718
59718W        W19221  25.535  37.948   0.755
59719W        W19222   5.309  11.137  10.501
59720W        W19223  13.785   3.789   1.392
59721W        W19224  37.946  44.307   4.751
59722W        W19225   2.828   0.299   1.822
59723W        W19226  41.348  25.649   4.171
59724W        W19227  29.512  14.229  14.404
59725W        W19228   9.171   7.200  14.959
59726W        W19229   6.894  32.969  10.961
59727W        W19230  27.129  25.714   2.200
59728W        W19231  26.170   8.264   2.754
59729W        W19232  35.975  21.685  13.344
59730W        W19233  18.208  38.949  14.945
59731W        W19234  37.050   5.344  12.402
59732W        W19235  14.761  15.687  10.622
59733W        W19236   5.851   9.782   1.847
59734W        W19237   9.182  33.895   0.458
59735W        W19238   9.389  29.563  14.897
59736W        W19239  14.797  41.408  11.524
59737W        W19240  42.902  38.507   2.402
59738W        W19241  16.680  17.150   4.320
59739W        W19242  23.104   2.835  14.959
59740W        W19243  32.588  28.075  10.490
59741W        W19244   3.838  37.942  13.366
59742W        W19245  44.799  31.103  11.535
59743W        W19246  18.613   7.408  13.535
59744W        W19247   9.332  14.777   1.828
59745W        W19248  33.407  39.349  14.842
59746W        W19249  28.566  24.549   4.287
59747W        W19250  24.142  32.999   0.265
59748W        W19251  10.289  10.329   0.453
59749W        W19252  16.278  30.586  11.081
59750W        W19253  11.820  43.435   1.891
59751W        W19254  10.748  38.394  10.507
59752W        W19255  43.793  15.132   2.743
59753W        W19256   0.462  42.485  12.573
59754W        W19257  10.260  21.665   3.851
59755W        W19258  39.976  30.514  14.937
59756W        W19259   5.688  38.034  11.488
59757W        W19260  34.036   7.672  11.861
59758W        W19261   1.808  40.397   4.785
59759W        W19262  13.111  25.479  10.519
59760W        W19263  20.695   1.867  10.963
59761W        W19264  31.620  13.748  14.420
59762W        W19265   2.939  27.491  12.411
59763W        W19266  23.562   3.406   5.692
59764W        W19267  43.327   6.826   0.252
59765W        W19268  18.655   4.377  12.428
59766W        W19269  16.175  32.986  11.414
59767W        W19270  41.839   5.779   0.748
59768W        W19271  42.946  31.084  10.994
59769W        W19272   8.681  29.426  12.428
59770W        W19273  42.985  21.600   2.771
59771W        W19274   1.374  15.283   3.774
59772W        W19275  34.578  17.140   1.367
59773W        W19276  14.110   2.794   0.362
59774W        W19277  13.294  29.080   2.685
59775W        W19278   0.295  40.401  13.040
59776W        W19279  27.172   1.941  12.027
59777W        W19280  40.351  42.906   4.647
59778W        W19281   5.351  31.628  12.014
59779W        W19282  39.950  16.201  13.919
59780W        W19283  20.140   0.829   2.702
59781W        W19284  41.403  44.445   0.450
59782W        W19285   8.803  19.748   3.757
59783W        W19286  11.154  14.752   0.915
59784W        W19287   9.720  29.648  11.928
59785W        W19288  33.599   0.785  10.619
59786W        W19289   5.281  27.102   4.629
59787W        W19290  28.436  27.558   0.334
59788W        W19291  39.960  32.565  13.802
59789W        W19292  32.105   8.853  10.494
59790W        W19293  24.516   5.726  14.953
59791W        W19294  23.998  33.462   4.352
59792W        W19295  28.139  36.469   0.464
59793W        W19296  32.028  31.473   1.855
59794W        W19297  20.150  30.018   2.853
59795W        W19298  28.511  23.590  12.434
59796W        W19299  23.571  19.619   3.780
59797W        W19300  27.525  23.691  12.061
59798W        W19301  42.397  37.068   2.775
59799W        W19302  29.947   0.479  14.924
59800W        W19303  30.063  40.861  10.614
59801W        W19304  39.443  35.506  10.973
59802W        W19305  44.456  13.231   4.318
59803W        W19306  23.629  26.099   2.185
59804W        W19307  31.033  21.218  13.901
59805W        W19308  40.920  12.614   3.290
59806W        W19309  39.001   2.966   3.781
59807W        W19310  16.693  37.839   0.421
59808W        W19311  23.069   3.778   4.152
59809W        W19312  26.565  25.603   3.315
59810W        W19313  43.959  25.490   3.727
59811W        W19314  35.429  29.929   2.418
59812W        W19315  22.524  38.992  11.896
59813W        W19316   6.843   7.872   4.674
59814W        W19317  34.516  38.570   0.829
59815W        W19318  20.619  22.216   3.805
59816W        W19319   3.373  26.464   0.450
59817W        W19320  19.053  24.488   3.360
59818W        W19321  34.575  13.172   9.638
59819W        W19322  37.873  38.035   4.279
59820W        W19323  24.066  27.506  12.551
59821W        W19324   7.873  22.019  13.534
59822W        W19325  31.496  33.069   0.928
59823W        W19326  28.569  39.961   4.734
59824W        W19327  33.495  24.187   2.391
59825W        W19328  24.131  17.075   1.297
59826W        W19329  13.292  24.973  14.395
59827W        W19330  27.138  40.522   9.931
59828W        W19331  27.079   4.907   0.921
59829W        W19332  19.604   1.246  12.842
59830W        W19333   5.309  43.510   2.730
59831W        W19334   3.797  42.879  13.361
59832W        W19335  44.435   9.316  10.569
59833W        W19336   0.887  27.479   3.170
59834W        W19337   3.241  24.600  12.073
59835W        W19338  42.872  42.016   3.212
59836W        W19339  24.224  29.582  10.895
59837W        W19340  29.435  22.688  12.399
59838W        W19341  18.699  18.089  12.078
59839W        W19342  13.611   0.365  12.399
59840W        W19343  30.081  22.521   4.753
59841W        W19344  28.126  13.337   0.911
59842W        W19345  22.635  13.728  12.080
59843W        W19346  37.477  36.012  14.275
59844W        W19347   7.201  30.538   2.787
59845W        W19348  24.079  14.824  11.871
59846W        W19349   6.392  41.510   0.837
59847W        W19350  19.058  24.123  11.427
59848W        W19351  38.956  12.242   0.728
59849W        W19352  44.263  36.368   4.250
59850W        W19353  14.178  14.603   1.336
59851W        W19354   1.376  28.961  11.607
59852W        W19355  34.993  18.181   4.738
59853W        W19356   1.481   1.801   2.798
59854W        W19357  15.220  26.183   1.765
59855W        W19358  26.468   1.470  12.906
59856W        W19359  24.662   2.939  14.789
59857W        W19360  32.470  26.569   4.135
59858W        W19361   8.816  22.547   1.773
59859W        W19362  26.477  10.814  14.001
59860W        W19363   7.752  44.385   3.837
59861W        W19364   9.212   8.807  10.959
59862W        W19365   9.152  37.508   3.682
59863W        W19366  26.660   2.278   4.829
59864W        W19367  13.724  25.133  11.989
59865W        W19368  12.760  24.211  12.972
59866W        W19369  40.326   0.976   4.741
59867W        W19370  20.080  38.863  13.422
59868W        W19371  20.601   7.338  13.942
59869W        W19372   9.760  34.515  14.489
59870W        W19373  20.144  16.662   4.634
59871W        W19374  11.238  13.602  11.960
59872W        W19375  18.563  14.115  12.882
59873W        W19376  20.061  22.618  11.600
59874W        W19377  22.583  38.070   0.398
59875W        W19378   2.854   9.757  14.358
59876W        W19379  25.592   1.890   0.809
59877W        W19380   6.883  18.057   2.270
59878W        W19381  35.943   2.907   3.791
59879W        W19382  15.271   2.754  11.113
59880W        W19383  42.489  42.011   4.608
59881W        W19384  27.484  18.611   4.299
59882W        W19385  26.552  10.170  12.892
59883W        W19386  40.535   6.262  12.891
59884W        W19387  30.489  26.176   9.993
59885W        W19388  16.072  40.387  12.535
59886W        W19389  14.642  17.727   2.794
59887W        W19390  29.118  14.630   3.308
59888W        W19391  39.487  39.530  14.017
59889W        W19392  25.006   8.167  11.469
59890W        W19393   4.339  15.263   4.735
59891W        W19394  28.096  23.573  14.888
59892W        W19395  19.230  30.608  10.890
59893W        W19396   6.272  16.669   3.196
59894W        W19397   2.249  31.964  12.852
59895W        W19398   9.878  11.830  11.914
59896W        W19399  36.042   7.378   3.697
59897W        W19400  36.091   5.355   0.798
59898W        W19401   5.340   0.281  10.926
59899W        W19402  22.520  20.226  13.995
59900W        W19403   4.415  35.969  11.537
59901W        W19404  22.727  14.268  12.369
59902W        W19405  12.287  12.618   0.734
59903W        W19406   3.285  16.285  12.019
59904W        W19407  40.476  23.067   2.225
59905W        W19408  24.100  41.983   4.117
59906W        W19409   9.760  13.798  13.800
59907W        W19410  39.969  15.665  13.900
59908W        W19411  19.123  36.506   2.786
59909W        W19412  13.264  30.002   1.833
59910W        W19413  14.139  16.150   2.389
59911W        W19414  36.414  23.174  12.903
59912W        W19415  25.069  24.226   1.800
59913W        W19416  38.957  40.880   3.258
59914W        W19417  13.322  11.210  13.819
59915W        W19418  32.624  35.854  13.322
59916W        W19419   4.443  16.102   0.943
59917W        W19420   4.768   2.285  13.528
59918W        W19421  13.264   6.253  11.870
59919W        W19422  13.284  22.186   4.790
59920W        W19423   0.853  26.020   3.823
59921W        W19424  11.768  21.756  13.950
59922W        W19425  23.129  36.944   1.400
59923W        W19426  33.086  20.249   4.712
59924W        W19427  19.052  43.886  12.038
59925W        W19428   8.682  33.553   2.663
59926W        W19429  21.524  32.523  10.416
59927W        W19430   3.822  10.165   0.363
59928W        W19431  34.391  19.720  10.408
59929W        W19432  13.745  19.657   2.243
59930W        W19433  31.896  35.072  10.457
59931W        W19434  39.376  41.024   4.793
59932W        W19435   5.330  30.920  10.442
59933W        W19436  32.465   1.936   3.792
59934W        W19437  18.746  35.876  11.122
59935W        W19438  41.414   9.830   1.358
59936W        W19439  37.374  41.504  11.888
59937W        W19440  43.333  38.448   1.879
59938W        W19441   6.284  11.247   4.722
59939W        W19442  35.025  37.063  13.809
59940W        W19443  31.029   8.730   1.737
59941W        W19444  24.508  24.155  13.974
59942W        W19445  42.368   0.932   4.135
59943W        W19446  42.973   3.392   0.873
59944W        W19447  40.383   7.382   2.866
59945W        W19448  35.397  43.956   1.365
59946W        W19449  21.086  15.318   1.797
59947W        W19450  40.824  26.025   1.309
59948W        W19451  37.462   6.895  13.894
59949W        W19452  21.017  29.937   1.305
59950W        W19453  43.397   6.728  13.027
59951W        W19454   7.747  20.734  10.516
59952W        W19455  41.874  37.943  11.948
59953W        W19456  25.989  10.651  14.829
59954W        W19457   5.774  42.478   4.327
59955W        W19458  17.179  44.835   2.352
59956W        W19459  12.287  42.847  13.867
59957W        W19460  37.462  21.585   3.302
59958W        W19461  22.718  42.841   0.872
59959W        W19462  10.148  19.765  14.391
59960W        W19463  41.954  18.769   1.322
59961W        W19464  35.404  35.583   0.314
59962W        W19465  39.554   3.216  12.406
59963W        W19466   2.265  25.710  14.413
59964W        W19467   0.263   0.901   9.506
59965W        W19468  15.265  12.638   0.420
59966W        W19469   3.884  37.581  14.462
59967W        W19470  40.473  29.066   3.324
59968W        W19471  14.330  40.883  13.854
59969W        W19472  20.207  37.989   4.630
59970W        W19473  11.161   4.829   2.403
59971W        W19474  27.189  36.381   3.685
59972W        W19475  41.428  23.522   0.381
59973W        W19476  43.459  27.147   2.799
59974W        W19477   1.299  41.450   0.397
59975W        W19478   8.273  41.951  13.920
59976W        W19479  24.201  28.017   0.376
59977W        W19480  44.422   8.267   3.868
59978W        W19481   9.643  23.706   4.657
59979W        W19482   6.251   9.847   3.645
59980W        W19483  40.007  32.446   3.191
59981W        W19484  17.088  16.138   1.262
59982W        W19485  40.998  14.226   4.215
59983W        W19486  37.542  39.968   3.211
59984W        W19487  16.695  36.380   2.385
59985W        W19488  44.798  22.735   3.320
59986W        W19489  22.641   4.372  14.796
59987W        W19490   8.168  17.617  12.041
59988W        W19491   3.782  22.668  13.383
59989W        W19492  29.999  35.492  11.514
59990W        W19493  24.545  18.555   4.805
59991W        W19494  13.146  23.197   1.718
59992W        W19495  11.270   3.350  13.502
59993W        W19496  30.572   6.867  14.879
59994W        W19497   1.847  11.326  13.859
59995W        W19498  17.093  14.127   3.829
59996W        W19499  29.659   1.378   3.265
59997W        W19500  31.426  33.933   4.800
59998W        W19501  33.066  36.089   5.229
59999W        W19502  16.154  28.033   0.267
60000W        W19503   2.460  37.901  10.500
60001W        W19504  34.931   9.864   1.903
60002W        W19505  10.172  13.693   3.193
60003W        W19506  28.152  43.479  13.049
60004W        W19507  42.353  14.173   3.766
60005W        W19508  12.633  38.434   1.782
60006W        W19509  26.468  39.473   0.287
60007W        W19510  32.428   1.825   2.346
60008W        W19511  35.484  42.974   1.268
60009W        W19512  37.523  21.551  14.438
60010W        W19513  22.552   9.210  13.871
60011W        W19514  31.491  10.380  14.795
60012W        W19515  11.857  26.989   4.833
60013W        W19516  18.242  18.248  10.964
60014W        W19517  35.961  18.658   4.693
60015W        W19518  19.592  20.683   0.815
60016W        W19519  22.737  42.812   2.712
60017W        W19520  26.592  22.691  12.069
60018W        W19521  13.174  30.620   1.409
60019W        W19522  43.768   3.430  12.921
60020W        W19523  43.799  40.848  13.877
60021W        W19524   9.859   0.334   0.873
60022W        W19525  23.715  34.569  14.836
60023W        W19526  27.480  10.359   1.701
60024W        W19527  11.220  13.758   4.225
60025W        W19528   1.932  27.016   2.687
60026W        W19529   7.185  20.028  11.473
60027W        W19530  14.598  23.644  13.036
60028W        W19531  21.138  24.996   1.779
60029W        W19532  37.502   0.832  12.548
60030W        W19533  14.725  35.050  11.567
60031W        W19534   2.967  38.489  11.952
60032W        W19535  40.545  27.607   3.805
60033W        W19536  31.530  36.866   2.361
60034W        W19537  26.109  10.864  11.560
60035W        W19538  37.985  16.268   0.896
60036W        W19539  19.641  26.107  10.104
60037W        W19540  29.174  20.729  11.992
60038W        W19541  37.938  26.186  10.626
60039W        W19542  39.544  27.047   1.899
60040W        W19543   0.420  25.214   9.602
60041W        W19544  11.740  27.610  11.059
60042W        W19545  21.612  31.150  14.785
60043W        W19546   8.666  26.047   0.870
60044W        W19547  39.830  36.870   4.831
60045W        W19548  16.306  38.511   3.200
60046W        W19549   0.266  33.948  11.537
60047W        W19550  12.678  43.813  10.449
60048W        W19551  26.617  31.609  13.351
60049W        W19552   5.719  17.791   0.271
60050W        W19553  44.336   9.875  11.421
60051W        W19554  17.162  24.164  14.866
60052W        W19555   3.430  10.371   3.759
60053W        W19556  24.519  12.842   3.322
60054W        W19557  42.834  36.416   0.471
60055W        W19558   0.838  15.140  10.616
60056W        W19559   0.317  12.157  11.980
60057W        W19560  15.586  37.358   4.176
60058W        W19561  23.620  13.157  11.911
60059W        W19562  29.523   9.692   2.769
60060W        W19563   9.830  28.029   2.716
60061W        W19564  34.949  23.140  13.977
60062W        W19565   8.688   6.807   1.325
60063W        W19566   7.833  12.211  14.999
60064W        W19567  27.482  15.151   5.233
60065W        W19568  33.891  22.683  13.953
60066W        W19569   1.936   4.938   4.160
60067W        W19570   9.769  25.120   0.773
60068W        W19571  13.712  32.496   1.914
60069W        W19572  42.011  25.163   2.251
60070W        W19573  19.537   1.352  14.452
60071W        W19574   1.896  38.073   1.348
60072W        W19575   2.409  30.632  14.364
60073W        W19576  11.239  28.059  11.098
60074W        W19577  18.111  36.053  13.450
60075W        W19578  38.906   2.738  13.857
60076W        W19579  26.105   8.302  12.980
60077W        W19580  37.446  31.422  11.469
60078W        W19581  21.036  34.991  11.597
60079W        W19582   9.878  23.682   3.688
60080W        W19583   4.708  32.044   0.325
60081W        W19584   4.816   2.233   2.351
60082W        W19585   4.888   3.351   2.845
60083W        W19586   4.302  10.150  11.007
60084W        W19587  14.733  17.107  10.118
60085W        W19588  13.317  25.473   3.853
60086W        W19589  32.983   6.856   3.670
60087W        W19590   4.436  31.112  10.893
60088W        W19591  29.448  27.669  14.482
60089W        W19592  44.005  34.892   2.267
60090W        W19593  34.895  37.054  11.022
60091W        W19594  11.684  39.994   0.787
60092W        W19595  17.701  33.552   0.311
60093W        W19596   5.886  33.605  14.792
60094W        W19597  39.437  24.991   1.803
60095W        W19598  31.436   4.702  12.356
60096W        W19599  21.593  44.443   4.626
60097W        W19600   3.934  23.044   1.356
60098W        W19601  20.261  10.770   4.237
60099W        W19602  36.887  18.778   2.372
60100W        W19603  22.035  37.385   4.179
60101W        W19604   8.875  15.668   3.147
60102W        W19605  11.192  23.235  13.993
60103W        W19606  38.039  23.509  14.809
60104W        W19607  11.192  43.420   1.793
60105W        W19608   2.434  10.267  14.816
60106W        W19609   5.713  32.943   3.359
60107W        W19610  38.546  33.966   2.792
60108W        W19611  27.562  31.139   4.791
60109W        W19612  32.580  21.595  12.389
60110W        W19613  15.642  25.494   2.304
60111W        W19614  14.232  42.872  12.962
60112W        W19615  34.898  41.384  11.884
60113W        W19616  37.898  39.403  13.384
60114W        W19617  11.740  41.000   4.671
60115W        W19618  40.882   6.700   2.341
60116W        W19619  14.705   5.223   3.189
60117W        W19620  38.849  40.427  12.523
60118W        W19621  23.235   8.334  13.018
60119W        W19622  43.960  14.295  14.899
60120W        W19623   3.740  39.946   4.645
60121W        W19624  39.528  12.649   4.329
60122W        W19625   2.779  29.963   3.345
60123W        W19626   2.938  33.890   1.355
60124W        W19627   8.766   1.838   3.235
60125W        W19628  24.539  13.824   1.264
60126W        W19629  37.021   0.459  10.536
60127W        W19630  36.907  21.551  14.940
60128W        W19631  38.388  43.849   3.870
60129W        W19632  12.259  35.584   2.240
60130W        W19633  26.198   9.734   2.363
60131W        W19634  12.855  43.434  13.958
60132W        W19635  27.162  27.971   3.634
60133W        W19636  31.508  30.960   1.418
60134W        W19637   0.825  38.074  14.825
60135W        W19638  30.150   2.437   0.746
60136W        W19639   5.818  21.055   1.772
60137W        W19640  38.843  44.317   0.456
60138W        W19641  28.010  17.066   0.409
60139W        W19642  35.509  42.407  13.839
60140W        W19643   1.408  17.249   2.775
60141W        W19644  25.627   7.848  14.363
60142W        W19645  37.079  29.558   3.706
60143W        W19646  20.174  30.563  11.006
60144W        W19647   3.947  18.293  14.010
60145W        W19648  20.540   2.241   3.357
60146W        W19649  34.605   4.234  10.631
60147W        W19650  18.234  11.246  13.838
60148W        W19651  18.084   1.309  14.925
60149W        W19652  43.870  36.567   3.206
60150W        W19653   9.759  22.009  11.875
60151W        W19654   9.691  14.098   0.460
60152W        W19655   0.789  42.445   5.279
60153W        W19656   2.393  38.928   9.921
60154W        W19657   4.210  41.815   0.360
60155W        W19658   8.888  37.536   0.806
60156W        W19659  23.204  32.595  11.494
60157W        W19660  25.071   9.255   2.870
60158W        W19661   7.794  26.983  14.845
60159W        W19662   6.729  30.958  11.921
60160W        W19663  29.606  17.120  10.614
60161W        W19664  36.579  19.257   0.406
60162W        W19665  11.801   5.823   2.707
60163W        W19666  28.970  15.104  11.557
60164W        W19667   9.866   9.673   4.821
60165W        W19668  22.153  24.224  11.935
60166W        W19669  22.616   6.848   1.824
60167W        W19670  10.169  31.538   0.435
60168W        W19671  25.149  41.900   3.746
60169W        W19672  16.244   8.295   0.419
60170W        W19673  33.490  43.012  13.970
60171W        W19674  39.842  28.968  10.404
60172W        W19675   5.258  24.584  12.536
60173W        W19676   4.290   8.814   2.901
60174W        W19677  34.939   4.432   4.233
60175W        W19678   8.742  30.427   1.314
60176W        W19679  29.164  29.447   1.252
60177W        W19680  23.517  38.552  11.998
60178W        W19681  10.731  22.525  13.875
60179W        W19682  38.529  14.182   3.659
60180W        W19683  30.135  20.751  12.847
60181W        W19684  23.216   2.767   2.703
60182W        W19685  12.824   3.301  14.849
60183W        W19686  35.029  40.548   4.153
60184W        W19687   8.330  44.503  14.393
60185W        W19688  20.744   5.687   3.770
60186W        W19689  24.609  42.019  13.812
60187W        W19690  36.890   8.663   0.906
60188W        W19691  12.122  28.002   3.217
60189W        W19692  44.441  27.986  14.896
60190W        W19693  34.546  11.142  12.346
60191W        W19694  24.514  19.765  10.943
60192W        W19695  28.115  15.691  14.026
60193W        W19696  22.190   7.674   4.277
60194W        W19697  44.424  19.151   2.786
60195W        W19698  38.821  18.232   4.642
60196W        W19699   2.443  11.676  13.850
60197W        W19700  18.747  12.150   4.290
60198W        W19701  44.348  35.870  11.373
60199W        W19702  23.032  15.217   3.374
60200W        W19703  17.638  32.125  12.439
60201W        W19704  32.404  38.445   5.159
60202W        W19705  20.265  15.196  13.044
60203W        W19706   4.444  43.945   3.736
60204W        W19707  34.014  14.124   5.199
60205W        W19708  39.547  19.179  14.925
60206W        W19709  32.525   5.252   0.814
60207W        W19710  41.473  13.624  14.988
60208W        W19711  42.395  33.883   3.700
60209W        W19712  28.087   7.841  14.943
60210W        W19713   8.739   8.901   1.704
60211W        W19714  15.279  42.907  11.379
60212W        W19715   1.864  37.068  14.890
60213W        W19716   4.348  14.609   9.519
60214W        W19717  17.678  15.733  12.470
60215W        W19718   6.339  35.912   3.369
60216W        W19719  43.402   6.306   2.401
60217W        W19720  43.370  27.555  11.881
60218W        W19721  24.669  37.424  10.888
60219W        W19722   1.433  43.909  12.901
60220W        W19723  11.845  37.020   1.254
60221W        W19724  30.952  38.946  14.848
60222W        W19725  31.050   3.865  11.891
60223W        W19726  20.081  15.162   3.292
60224W        W19727  30.160   6.834   1.801
60225W        W19728  28.954  36.424   3.715
60226W        W19729  41.362  12.763   3.688
60227W        W19730   4.275  10.380   2.267
60228W        W19731   7.764  15.226   1.352
60229W        W19732  12.220   0.973  11.892
60230W        W19733  26.694  16.693   2.318
60231W        W19734   2.931  28.652  11.952
60232W        W19735  25.107  22.527   2.404
60233W        W19736  40.947  33.488   1.379
60234W        W19737   4.921   9.873   0.880
60235W        W19738   3.404  33.510  12.573
60236W        W19739  32.906  40.868  10.999
60237W        W19740  39.406  36.411   2.805
60238W        W19741  15.266  17.270   3.630
60239W        W19742  25.098   5.742   4.800
60240W        W19743  41.042  15.648   0.833
60241W        W19744  34.481   1.418   0.750
60242W        W19745   4.263   9.375   2.386
60243W        W19746  33.080  30.966   1.878
60244W        W19747  41.305  31.624   3.376
60245W        W19748  14.685  10.207   4.820
60246W        W19749  27.556   2.313   1.213
60247W        W19750  25.090  12.323   4.305
60248W        W19751  18.251  38.364  13.886
60249W        W19752  13.736  43.299   1.832
60250W        W19753  42.417   0.383   0.315
60251W        W19754  28.133  25.049   3.822
60252W        W19755  15.600  25.044  10.052
60253W        W19756  26.677  20.048   1.753
60254W        W19757  42.898  40.833  12.568
60255W        W19758  43.304   8.234   9.642
60256W        W19759  32.631   8.235   4.207
60257W        W19760  14.246  25.636   1.389
60258W        W19761  42.890  17.786   4.764
60259W        W19762  42.519   2.879   1.314
60260W        W19763   2.350  39.410  13.334
60261W        W19764   2.904  36.583   1.361
60262W        W19765  42.506  12.250  12.074
60263W        W19766  28.127  35.109  12.463
60264W        W19767  24.219  14.232  12.394
60265W        W19768   1.776  24.097   2.693
60266W        W19769  18.611  38.838  13.425
60267W        W19770  21.214  36.518   4.249
60268W        W19771   1.353  10.288   0.944
60269W        W19772  21.701  30.055  10.597
60270W        W19773  30.126  15.618   4.276
60271W        W19774  43.841  27.181  12.065
60272W        W19775  37.859  44.325   9.972
60273W        W19776  20.208  24.187  12.927
60274W        W19777   2.377  31.548  14.291
60275W        W19778  43.278  39.814  11.886
60276W        W19779   5.197  20.160   0.861
60277W        W19780   2.387  14.628   2.847
60278W        W19781  43.478  39.508  13.497
60279W        W19782   0.315  24.026   9.497
60280W        W19783  41.938   2.943  12.961
60281W        W19784  26.469   8.874  14.915
60282W        W19785  10.861  30.016   4.638
60283W        W19786  11.340  40.413  14.294
60284W        W19787  30.414  13.604   3.269
60285W        W19788  38.443  24.624   1.799
60286W        W19789  18.671  19.600   5.259
60287W        W19790  13.785  17.158   0.811
60288W        W19791  27.621   1.905  10.640
60289W        W19792  29.662   3.877   1.886
60290W        W19793  25.515  22.554   1.421
60291W        W19794   6.816  19.123   2.674
60292W        W19795  10.850  10.732  13.336
60293W        W19796  44.310  38.966   9.984
60294W        W19797   2.837   7.756   0.730
60295W        W19798  20.674  26.529  14.833
60296W        W19799  31.611  28.954  14.792
60297W        W19800  27.524   5.240  10.567
60298W        W19801  32.422  41.393  13.944
60299W        W19802  15.686   5.357  14.375
60300W        W19803  14.721  25.473  10.456
60301W        W19804  38.458  23.642   2.665
60302W        W19805   2.821  32.053  14.765
60303W        W19806  27.985  13.651  11.086
60304W        W19807  34.610  11.747   1.717
60305W        W19808  39.348  11.713   1.885
60306W        W19809  39.330   2.863  12.565
60307W        W19810  18.256  31.564   0.316
60308W        W19811   7.382  13.664   4.815
60309W        W19812   3.375  13.701   1.867
60310W        W19813  27.998  39.888  13.489
60311W        W19814  23.166  13.608   2.219
60312W        W19815  43.889  31.618  11.065
60313W        W19816  30.148  38.394   1.906
60314W        W19817  23.189   3.235   3.859
60315W        W19818  30.907  25.035   5.787
60316W        W19819  12.625  13.680   4.275
60317W        W19820   5.198  26.956   3.285
60318W        W19821  15.230  26.053   2.403
60319W        W19822  41.398  34.879  11.593
60320W        W19823  12.336  13.702   2.664
60321W        W19824  26.611   7.682   3.367
60322W        W19825   9.726   6.273   1.852
60323W        W19826  38.959  22.703  14.997
60324W        W19827  26.956  29.063  11.045
60325W        W19828  17.111  25.499   2.229
60326W        W19829  36.919   9.288  10.505
60327W        W19830  35.097  20.033   1.266
60328W        W19831  17.150  19.604   2.402
60329W        W19832   5.383  12.158  14.974
60330W        W19833  27.632   3.382  10.054
60331W        W19834   7.844  23.079   1.837
60332W        W19835  24.674   6.843   1.770
60333W        W19836  18.120   5.709   4.821
60334W        W19837   7.816  41.314  12.870
60335W        W19838  22.507  29.497  12.010
60336W        W19839  25.981  30.475   3.313
60337W        W19840   3.859  43.827   1.694
60338W        W19841  41.470  26.008   0.784
60339W        W19842  41.987   3.748  13.989
60340W        W19843   5.399  11.748  14.946
60341W        W19844  16.659   1.804  14.999
60342W        W19845  23.722  10.762  14.510
60343W        W19846   8.891  22.107   4.679
60344W        W19847  14.637  32.527  12.892
60345W        W19848  16.759   7.354   1.699
60346W        W19849   0.331  10.764  13.861
60347W        W19850  15.786   7.783   2.230
60348W        W19851  36.872   3.348  11.941
60349W        W19852  20.269   6.691  11.057
60350W        W19853  32.505   6.810  13.898
60351W        W19854  14.300  32.977  13.939
60352W        W19855  20.067  16.708  12.345
60353W        W19856  44.458  29.103   0.456
60354W        W19857  38.837  11.154  12.842
60355W        W19858   0.338  35.571   3.682
60356W        W19859  25.113  16.625  12.558
60357W        W19860  11.759  18.760   3.261
60358W        W19861  38.435  42.284   3.325
60359W        W19862  25.202   2.799   4.161
60360W        W19863  36.039  29.551  11.482
60361W        W19864  31.421  37.975   1.904
60362W        W19865  10.646  32.001  12.439
60363W        W19866  36.385   6.682   2.286
60364W        W19867   1.903  26.541  14.954
60365W        W19868   1.297  18.574  10.409
60366W        W19869  23.639  12.662  13.528
60367W        W19870  26.204  13.190  14.503
60368W        W19871  25.495   7.397   1.935
60369W        W19872  20.623   2.428   1.323
60370W        W19873  13.206  27.949   0.744
60371W        W19874  27.009  26.098  14.913
60372W        W19875  43.422  41.858  11.114
60373W        W19876  40.824  22.220   0.907
60374W        W19877  40.534  32.628  13.995
60375W        W19878  35.422  32.599  14.009
60376W        W19879  17.255  38.921  12.015
60377W        W19880  31.016  28.570  12.451
60378W        W19881  39.849  14.245  12.003
60379W        W19882  26.587   5.824   3.275
60380W        W19883  19.700  27.094  11.433
60381W        W19884  44.949  34.612   1.265
60382W        W19885   6.376   1.856  14.489
60383W        W19886  30.012  10.222   9.550
60384W        W19887  28.622  36.992   1.777
60385W        W19888   2.398  30.002   9.939
60386W        W19889  42.428  25.074  14.996
60387W        W19890  16.161  16.174  14.386
60388W        W19891  44.439  12.638  10.953
60389W        W19892   2.355  42.521   9.962
60390W        W19893  32.090  22.563  10.574
60391W        W19894   6.428  20.171   2.345
60392W        W19895   5.307  39.823  14.362
60393W        W19896  21.255  18.117   1.778
60394W        W19897  20.187  15.295   1.697
60395W        W19898  29.993  32.593  12.475
60396W        W19899  22.074  12.131  11.543
60397W        W19900  13.177  26.196   1.867
60398W        W19901  16.788  26.614  11.889
60399W        W19902  40.928  44.967  13.963
60400W        W19903  14.607  34.522  14.899
60401W        W19904   5.255  20.754   4.753
60402W        W19905  31.011  10.868  13.518
60403W        W19906  27.969  44.915  12.010
60404W        W19907  10.775  22.662  14.316
60405W        W19908  25.169   3.329   2.295
60406W        W19909  18.729   3.321  11.129
60407W        W19910  26.170  26.533   4.677
60408W        W19911  35.024  44.311  13.878
60409W        W19912   4.330  35.033  10.644
60410W        W19913  17.627  24.711  10.480
60411W        W19914  13.666  28.547  14.764
60412W        W19915  34.540  20.255  14.476
60413W        W19916   7.828   4.942   3.318
60414W        W19917  11.326  10.748  12.383
60415W        W19918  28.951   7.329  13.797
60416W        W19919  11.343  21.750  10.986
60417W        W19920   7.209  32.939  14.798
60418W        W19921  44.343  16.159  12.447
60419W        W19922  23.986  22.511  11.432
60420W        W19923  14.688  33.915  13.526
60421W        W19924  43.482  20.618   2.711
60422W        W19925  25.628  44.426  14.020
60423W        W19926  27.186  39.046   1.236
60424W        W19927  34.446  33.528  12.522
60425W        W19928  40.500  14.131  10.456
60426W        W19929  26.533  17.665  13.826
60427W        W19930  17.718   1.403   0.325
60428W        W19931  33.572  21.636  10.070
60429W        W19932  19.541   9.186  12.372
60430W        W19933   9.250  18.681  10.073
60431W        W19934  38.428   1.366  12.866
60432W        W19935  37.576  30.016   0.751
60433W        W19936  18.112  12.847  10.605
60434W        W19937  22.045  26.055   0.736
60435W        W19938  19.536   0.794   5.230
60436W        W19939  30.614  18.056  13.495
60437W        W19940  38.043  43.335  13.347
60438W        W19941  15.588  10.302  10.459
60439W        W19942  39.346  32.506  11.049
60440W        W19943  21.621  32.893   1.875
60441W        W19944   3.865  11.220   0.954
60442W        W19945  32.982  21.134  12.446
60443W        W19946  27.011  34.392  10.089
60444W        W19947  12.310   9.197   1.756
60445W        W19948  38.066   0.339  11.499
60446W        W19949  21.588  41.353   3.200
60447W        W19950   9.251  11.294  12.460
60448W        W19951  44.886  17.724   2.874
60449W        W19952   4.332  23.700  12.830
60450W        W19953  10.221  35.562   4.306
60451W        W19954  38.987  26.587  10.409
60452W        W19955  35.566   3.247   3.162
60453W        W19956  44.862  20.269  14.816
60454W        W19957  39.930   8.356  12.966
60455W        W19958   8.707  25.629  12.031
60456W        W19959  29.147  39.912  10.616
60457W        W19960  21.708   3.737   3.799
60458W        W19961  37.430  10.706   1.333
60459W        W19962  19.775   6.700   3.277
60460W        W19963   1.871  26.037   3.210
60461W        W19964  22.044   7.885   1.739
60462W        W19965  25.137  22.035  14.931
60463W        W19966  29.503  10.856   2.736
60464W        W19967  26.548  22.520  10.970
60465W        W19968  16.657  24.028   0.870
60466W        W19969  35.445  19.109   1.284
60467W        W19970  31.010  19.544   1.354
60468W        W19971  39.992   2.459   3.271
60469W        W19972  28.605  39.049   3.778
60470W        W19973  44.762  32.464  14.297
60471W        W19974  40.440   2.919  11.381
60472W        W19975   8.827  39.512   3.869
60473W        W19976   7.844  23.541   2.691
60474W        W19977   4.278  20.170   1.799
60475W        W19978  18.182  31.537   3.259
60476W        W19979  25.490  16.210   2.309
60477W        W19980  44.968  43.971   5.095
60478W        W19981  36.400  42.945  12.855
60479W        W19982   8.830  11.370   2.882
60480W        W19983   2.365   2.461  11.409
60481W        W19984  28.126  26.490   2.264
60482W        W19985  25.212  26.953   0.727
60483W        W19986   9.348  36.435   4.251
60484W        W19987  30.575  11.660   2.899
60485W        W19988  19.133  44.381   4.598
60486W        W19989   9.221  41.935  13.395
60487W        W19990  34.918  27.977  12.044
60488W        W19991  22.203  26.108  14.823
60489W        W19992  17.706  36.443   0.736
60490W        W19993  42.991  36.540  11.897
60491W        W19994  25.674   7.904   1.386
60492W        W19995  32.056   9.741   1.373
60493W        W19996  10.697  20.618   4.182
60494W        W19997  14.804  42.351  12.408
60495W        W19998  41.861  29.991   3.304
60496W        W19999   1.731  38.995  14.894
60497W        W20000  40.015  16.791   2.833
60498W        W20001  17.166  16.568  11.112
60499W        W20002   8.270  33.474   1.707
60500W        W20003  37.358  25.049   2.357
60501W        W20004  14.684  38.028  11.862
60502W        W20005   3.271  40.427  14.916
60503W        W20006  29.010   6.828   0.272
60504W        W20007  33.516  14.605   0.450
60505W        W20008  22.623  14.665  14.008
60506W        W20009  26.576  28.101   2.766
60507W        W20010   0.777  20.275   2.771
60508W        W20011  11.720   4.248  11.401
60509W        W20012  30.628  15.591   1.780
60510W        W20013   2.888  10.824  10.526
60511W        W20014  25.177  34.484  10.457
60512W        W20015  34.519   2.379  12.475
60513W        W20016  34.079  27.020  10.573
60514W        W20017  42.941   1.435  12.444
60515W        W20018  37.394   4.708  12.520
60516W        W20019  44.956   4.704   1.826
60517W        W20020   1.840   9.207  14.420
60518W        W20021  32.120  39.351  10.926
60519W        W20022  25.682  32.910   1.422
60520W        W20023  26.485  18.659   2.393
60521W        W20024  44.345   1.276  14.017
60522W        W20025  32.003  44.398   5.276
60523W        W20026  29.544  23.493  14.400
60524W        W20027  22.219  16.739  14.927
60525W        W20028  24.499  43.511  12.391
60526W        W20029  16.232   0.929  11.610
60527W        W20030  10.709  38.541   4.331
60528W        W20031  27.588  11.341  14.368
60529W        W20032  19.708   3.315   1.228
60530W        W20033  27.961  25.603   2.900
60531W        W20034  40.014  43.944   4.734
60532W        W20035  43.375  21.191  13.957
60533W        W20036  27.989  21.568   3.253
60534W        W20037  13.759  38.027  11.901
60535W        W20038  31.006   5.346   0.749
60536W        W20039  13.642  21.050   3.741
60537W        W20040  42.430   0.398  12.950
60538W        W20041  40.888  44.836   3.236
60539W        W20042   8.272  37.884  14.909
60540W        W20043   7.890  39.895   4.142
60541W        W20044  41.396  22.040  13.994
60542W        W20045  36.011  43.488  14.508
60543W        W20046   7.871  40.536  14.358
60544W        W20047  11.211  30.016  13.941
60545W        W20048   8.243  37.418  12.066
60546W        W20049  23.233  40.416   1.729
60547W        W20050   8.317  23.090   3.374
60548W        W20051   4.417  37.419  11.470
60549W        W20052  39.852  41.838  14.284
60550W        W20053  42.019   4.282   0.461
60551W        W20054  41.797   9.672   2.722
60552W        W20055  15.681   8.899  10.600
60553W        W20056  11.318  29.976  11.867
60554W        W20057  32.484  38.988  12.455
60555W        W20058  30.501  31.466  12.066
60556W        W20059  16.131   8.380  13.934
60557W        W20060  39.436  10.165   5.215
60558W        W20061  43.776  26.545  12.002
60559W        W20062  42.522  44.873   2.216
60560W        W20063  12.814  31.570   1.851
60561W        W20064  24.565  29.168  11.116
60562W        W20065  33.586  31.505   4.646
60563W        W20066  11.740  35.864  10.593
60564W        W20067   7.786  35.424  11.536
60565W        W20068  35.396  22.675  10.933
60566W        W20069   2.238  44.878   4.258
60567W        W20070  32.913  30.510   0.816
60568W        W20071  39.330  39.059  11.060
60569W        W20072  10.329  29.519  12.545
60570W        W20073   7.302  26.207  14.980
60571W        W20074  34.414  20.526   3.350
60572W        W20075  33.068  34.887   0.835
60573W        W20076   8.387  24.169  11.432
60574W        W20077  17.667  26.517  10.620
60575W        W20078  19.692  22.248   0.310
60576W        W20079   7.704  16.694   3.757
60577W        W20080   7.806  43.979   2.787
60578W        W20081  11.316  12.234   2.678
60579W        W20082  25.091  11.144  11.415
60580W        W20083  33.544  13.158  11.899
60581W        W20084  34.971  14.287   4.278
60582W        W20085  40.824   9.199   1.253
60583W        W20086  13.160  35.886  10.466
60584W        W20087  37.041   4.274   2.416
60585W        W20088   5.331  16.317   2.181
60586W        W20089  44.338  15.706   3.319
60587W        W20090   4.346  39.976   0.879
60588W        W20091  40.469  40.460  14.278
60589W        W20092  22.745  32.998   4.668
60590W        W20093   4.231  33.951  13.355
60591W        W20094  13.210   3.746   4.292
60592W        W20095  37.430  34.927   5.152
60593W        W20096   1.326  28.026   1.927
60594W        W20097   3.247   6.772  10.607
60595W        W20098   1.908  44.771  13.542
60596W        W20099  44.977   4.945  12.561
60597W        W20100  35.569  15.236   2.400
60598W        W20101  35.967   2.799   2.766
60599W        W20102  41.867   6.257  13.846
60600W        W20103   4.418  20.106  13.062
60601W        W20104  36.980  41.433  14.291
60602W        W20105  11.257  39.400  14.898
60603W        W20106  26.503   3.865   4.704
60604W        W20107  43.871  11.742  14.845
60605W        W20108  30.504  37.467  12.020
60606W        W20109  23.159  10.845   3.178
60607W        W20110  41.888  23.178   4.823
60608W        W20111  28.662   2.463  11.046
60609W        W20112  17.677  38.877  14.876
60610W        W20113  33.909  32.143  11.526
60611W        W20114   4.768  16.769   0.320
60612W        W20115  24.023   9.664   3.351
60613W        W20116  20.664  22.507   1.319
60614W        W20117  42.926   9.361   5.316
60615W        W20118   4.369  19.589   4.732
60616W        W20119  40.880   7.274  12.067
60617W        W20120  42.950  29.598   4.731
60618W        W20121  34.419  13.255   3.792
60619W        W20122   5.851   2.304   1.430
60620W        W20123  11.830   2.899   1.893
60621W        W20124  34.077  21.202  11.440
60622W        W20125  30.494  37.014   1.852
60623W        W20126   1.930  34.567   3.752
60624W        W20127  10.809  20.223  14.500
60625W        W20128  32.088  18.674   1.335
60626W        W20129  42.452  11.738   2.751
60627W        W20130  40.987  18.067   4.301
60628W        W20131  28.015  43.768  12.452
60629W        W20132  39.016  17.261   3.779
60630W        W20133  26.956   0.798  11.484
60631W        W20134  35.852  34.961   4.626
60632W        W20135  43.376  19.555   0.373
60633W        W20136  34.605  22.659   1.827
60634W        W20137  18.068  35.922   4.144
60635W        W20138  18.613  25.992  13.821
60636W        W20139  15.121  24.018   0.286
60637W        W20140  25.033   4.203  10.914
60638W        W20141  16.711  13.303  14.937
60639W        W20142  33.513  17.094   5.301
60640W        W20143  27.657  32.973   3.675
60641W        W20144   9.164  35.466  12.943
60642W        W20145   1.732  25.979  11.954
60643W        W20146  33.462  32.982  12.509
60644W        W20147  33.913  34.370   3.197
60645W        W20148  28.536  30.041   0.866
60646W        W20149  44.869  30.015   3.653
60647W        W20150  41.432  17.603  14.435
60648W        W20151  21.041   5.899   0.897
60649W        W20152   8.820   1.434  14.495
60650W        W20153  27.574  37.447  14.772
60651W        W20154  35.045  12.348   2.376
60652W        W20155  35.986   7.278  12.860
60653W        W20156  12.632  29.477  12.498
60654W        W20157  24.977  34.879  10.441
60655W        W20158  30.547  43.297   3.716
60656W        W20159  12.714  25.086   0.356
60657W        W20160   1.748  13.228   2.806
60658W        W20161   5.274   9.795  12.906
60659W        W20162  43.781  44.452  11.061
60660W        W20163  17.567  42.504   0.879
60661W        W20164  31.102   9.278   3.775
60662W        W20165  20.201  36.569   3.673
60663W        W20166  27.679  36.084  14.848
60664W        W20167  36.906  16.635  13.313
60665W        W20168  24.205  13.316  12.570
60666W        W20169  13.695  20.196   2.722
60667W        W20170  15.308  10.291  13.963
60668W        W20171  37.072  17.068   4.826
60669W        W20172  28.182  16.158  14.391
60670W        W20173  16.707  25.631   4.722
60671W        W20174  18.562  43.942  13.486
60672W        W20175   8.163   8.263   3.214
60673W        W20176  26.615   2.814   2.414
60674W        W20177  35.040  15.126  14.821
60675W        W20178  20.032  18.177  11.010
60676W        W20179  24.149  29.979  12.844
60677W        W20180  15.738  15.167   4.703
60678W        W20181  18.699  43.460  12.826
60679W        W20182  32.481  21.608  13.334
60680W        W20183  27.032  35.365   0.781
60681W        W20184  41.479  12.156   1.236
60682W        W20185   7.179   3.350  12.943
60683W        W20186  44.876  29.085  11.122
60684W        W20187  38.978  24.091  11.876
60685W        W20188  14.746  44.343  14.820
60686W        W20189   3.775   5.717  10.480
60687W        W20190   5.717  34.983   2.265
60688W        W20191  12.649  44.917  12.506
60689W        W20192  35.029   2.410   4.224
60690W        W20193  27.007  24.639   0.826
60691W        W20194  41.471   6.837   3.679
60692W        W20195  17.252  35.868   5.100
60693W        W20196   8.400  21.094  14.891
60694W        W20197  19.687  16.279   1.718
60695W        W20198   4.253  10.228   4.784
60696W        W20199  44.417  26.559  12.538
60697W        W20200  30.985  27.565   3.677
60698W        W20201  15.748   9.837   2.323
60699W        W20202  27.688  25.984   3.351
60700W        W20203  25.619   8.213   1.802
60701W        W20204  36.948  13.748  12.062
60702W        W20205  41.819  14.201   4.208
60703W        W20206  44.382  14.758   1.238
60704W        W20207  23.172  31.031   1.313
60705W        W20208  33.561  44.814   1.407
60706W        W20209  10.679  37.082   2.335
60707W        W20210  37.894  30.467  14.418
60708W        W20211  39.445  38.888   1.440
60709W        W20212  12.745   8.740  12.033
60710W        W20213   5.902  42.883  12.946
60711W        W20214  40.968  41.499  14.850
60712W        W20215  15.823  20.599  10.922
60713W        W20216   7.376  21.655  12.072
60714W        W20217  17.659  21.140   4.771
60715W        W20218   6.215  20.726   2.207
60716W        W20219   1.422  39.515  11.069
60717W        W20220  11.344  19.681  12.844
60718W        W20221   2.333  39.898   2.847
60719W        W20222  10.239  44.878  10.566
60720W        W20223  28.951  32.936  10.462
60721W        W20224  15.098  41.379  14.959
60722W        W20225  21.525  42.973   4.682
60723W        W20226  44.849  16.292   3.288
60724W        W20227  10.667   9.285   1.738
60725W        W20228  41.364  16.291   1.813
60726W        W20229  21.093  20.243  13.899
60727W        W20230  10.872   4.731   2.746
60728W        W20231  37.355  23.679  12.848
60729W        W20232  31.025   2.931   2.351
60730W        W20233   5.399  21.543   0.315
60731W        W20234  32.495  29.015  14.776
60732W        W20235  36.366  39.553   0.744
60733W        W20236   5.252  26.485   0.399
60734W        W20237   6.867   4.707   1.243
60735W        W20238  18.295  31.014   1.375
60736W        W20239  32.136  35.996  12.063
60737W        W20240  27.526  15.107   1.219
60738W        W20241  43.803  16.123   9.955
60739W        W20242   5.717  13.316  10.588
60740W        W20243   6.388   0.745   9.957
60741W        W20244   9.777  26.955   2.194
60742W        W20245  40.998  17.750  11.065
60743W        W20246  39.897  31.499   4.646
60744W        W20247   5.257  22.236  10.924
60745W        W20248  40.507  42.479  11.071
60746W        W20249   5.428  29.172  13.003
60747W        W20250   0.972   2.459   0.745
60748W        W20251   1.308  22.745   1.925
60749W        W20252  33.095  31.479   2.902
60750W        W20253  25.688  44.305  13.415
60751W        W20254  29.963  26.004  11.584
60752W        W20255  40.404  41.918   0.391
60753W        W20256  16.134  28.955   4.813
60754W        W20257  33.549  39.962  13.806
60755W        W20258  38.514   2.792  11.595
60756W        W20259  25.027   6.348  12.454
60757W        W20260   5.817   8.250  10.923
60758W        W20261   7.172   0.313  10.979
60759W        W20262   4.889  30.155   3.633
60760W        W20263  13.767  24.633  13.056
60761W        W20264   1.773  20.605   4.608
60762W        W20265  29.459   7.354   2.405
60763W        W20266  33.948  44.993   2.735
60764W        W20267  16.200   1.823   3.200
60765W        W20268  13.804  24.975   3.293
60766W        W20269  34.530  12.283  12.493
60767W        W20270  30.099   4.413  13.329
60768W        W20271  31.462  18.732  13.968
60769W        W20272   2.406  34.416   1.446
60770W        W20273  13.825  41.797  10.560
60771W        W20274  38.063  20.705  10.607
60772W        W20275   0.908   6.400   1.302
60773W        W20276  30.605  33.010  14.830
60774W        W20277  30.470  29.590   5.284
60775W        W20278  15.171  28.499   3.268
60776W        W20279  42.832  43.003   0.408
60777W        W20280  41.811  10.320  14.484
60778W        W20281  10.168  41.811  11.923
60779W        W20282  14.818  18.061   0.893
60780W        W20283  41.976   9.287  11.120
60781W        W20284   3.322  16.709   3.300
60782W        W20285  37.914  12.271   0.857
60783W        W20286  42.957  15.304   4.707
60784W        W20287  15.231  35.555  11.907
60785W        W20288  33.968  18.227   1.844
60786W        W20289  28.961  16.169  14.951
60787W        W20290  11.300  24.568   1.707
60788W        W20291  32.068  15.146  13.932
60789W        W20292  22.593  11.714  14.423
60790W        W20293   3.459  19.585   4.715
60791W        W20294  28.987  12.844   4.768
60792W        W20295  29.447   7.690  12.887
60793W        W20296   2.802  21.091  11.418
60794W        W20297  32.430  31.647   2.678
60795W        W20298   1.934   6.842   0.782
60796W        W20299  25.584  28.064  12.039
60797W        W20300  25.964  25.972   1.868
60798W        W20301  25.056   3.331  10.908
60799W        W20302  36.893  28.097  10.976
60800W        W20303  28.644  31.639  12.856
60801W        W20304  24.975  14.260   3.224
60802W        W20305  15.141  37.881   4.604
60803W        W20306  22.600  25.597   1.736
60804W        W20307  17.673  44.486   1.320
60805W        W20308  27.571  21.028   2.253
60806W        W20309   4.752  11.771   3.632
60807W        W20310  26.020  42.437  14.409
60808W        W20311  15.583  44.830  12.913
60809W        W20312   6.825  30.919  11.470
60810W        W20313   5.809   6.711  13.843
60811W        W20314   6.757   9.368  13.900
60812W        W20315   6.737  10.831  12.451
60813W        W20316  38.569  29.434  11.034
60814W        W20317  19.187   8.346   1.870
60815W        W20318  23.582  17.137  11.509
60816W        W20319  37.920  37.420   0.834
60817W        W20320  27.070  35.390   3.735
60818W        W20321  32.464  36.571  12.345
60819W        W20322   7.847  23.073   2.236
60820W        W20323  23.150  27.940   2.214
60821W        W20324  32.497  38.887  11.904
60822W        W20325  42.486  22.119  13.504
60823W        W20326   3.269  35.913  11.012
60824W        W20327   8.303  32.034  14.820
60825W        W20328  33.534  33.003   2.729
60826W        W20329  20.227   6.253   3.813
60827W        W20330  38.564  23.203  10.589
60828W        W20331  20.544  43.414   1.696
60829W        W20332  33.062  40.986   2.348
60830W        W20333  30.597  15.111  14.995
60831W        W20334  30.525  41.885  12.437
60832W        W20335  23.009  14.110   4.143
60833W        W20336  21.115  12.206   1.331
60834W        W20337  39.371  34.074  12.078
60835W        W20338  25.619  27.945   4.742
60836W        W20339   3.932  33.607   4.118
60837W        W20340  30.470  23.517   4.337
60838W        W20341  41.520   8.175   3.851
60839W        W20342   1.802  21.541  13.027
60840W        W20343   5.829   6.382  14.962
60841W        W20344  11.629  20.542   4.832
60842W        W20345  17.173  14.335   3.349
60843W        W20346  38.823  17.711   1.764
60844W        W20347  24.179  34.393  13.484
60845W        W20348  11.782  11.857  12.352
60846W        W20349  26.502  35.588  10.592
60847W        W20350  26.071   1.810   4.691
60848W        W20351  12.249  22.562   2.827
60849W        W20352  29.099  34.916   3.654
60850W        W20353  19.575  15.263  11.473
60851W        W20354  19.248  24.224  13.924
60852W        W20355  24.685  22.014   4.794
60853W        W20356  34.014  36.455   3.854
60854W        W20357   5.695   6.272   1.326
60855W        W20358  42.930   0.485   0.375
60856W        W20359   4.400   7.292  11.894
60857W        W20360  31.034  15.153   2.292
60858W        W20361  13.692  15.733  12.550
60859W        W20362  43.372  18.126  14.509
60860W        W20363  35.085   5.329  10.643
60861W        W20364   0.479  21.568  14.445
60862W        W20365  42.942  26.561  12.514
60863W        W20366  32.963  32.435   4.713
60864W        W20367  17.264  13.158   1.818
60865W        W20368  34.569  20.198  12.918
60866W        W20369   1.896   1.252   0.813
60867W        W20370  38.000  34.470  14.357
60868W        W20371   1.968  16.780  12.526
60869W        W20372   3.325   0.343  12.841
60870W        W20373  17.733   6.898   2.806
60871W        W20374   8.850  35.087  12.413
60872W        W20375  10.799  21.536  14.942
60873W        W20376  35.948  11.769  12.928
60874W        W20377  27.965  43.464  13.403
60875W        W20378  29.995  41.447  10.890
60876W        W20379  42.927  16.260   1.747
60877W        W20380  18.661  11.766   2.301
60878W        W20381  34.942   1.327   1.724
60879W        W20382  20.201   6.710  13.957
60880W        W20383   8.799  21.755   2.690
60881W        W20384  15.281  43.847  14.936
60882W        W20385  16.806  19.167   2.187
60883W        W20386  37.472  41.466   0.732
60884W        W20387  21.592  24.163  14.331
60885W        W20388   8.785   4.240  12.885
60886W        W20389  35.433  12.228  11.551
60887W        W20390   4.871  33.410  11.440
60888W        W20391  37.088  14.158   2.248
60889W        W20392  34.019   7.213   1.277
60890W        W20393  18.598  29.020   3.353
60891W        W20394  32.635  38.475  14.798
60892W        W20395   4.859  21.521  12.859
60893W        W20396  28.575  22.029  12.032
60894W        W20397  28.026  12.275   4.671
60895W        W20398  30.479  17.211  14.486
60896W        W20399  41.892  32.456  13.455
60897W        W20400  20.106  34.494   3.200
60898W        W20401  33.067   2.745   2.388
60899W        W20402  27.446  25.977   2.777
60900W        W20403  41.424   1.944  11.051
60901W        W20404  24.105  43.827   2.799
60902W        W20405  19.724  12.130  13.817
60903W        W20406  33.596  33.540   4.675
60904W        W20407  42.928   5.413   5.177
60905W        W20408  16.104  13.214   1.711
60906W        W20409  14.249  13.759   1.864
60907W        W20410  35.365  14.692   3.850
60908W        W20411  26.476  14.164   2.830
60909W        W20412  28.023   6.695  12.894
60910W        W20413  28.956   9.363   1.900
60911W        W20414   6.920  16.710   1.767
60912W        W20415   4.906  23.662  11.505
60913W        W20416   1.434  23.203  12.087
60914W        W20417  32.525  41.496  11.527
60915W        W20418   4.754  43.503   9.572
60916W        W20419   1.434   9.376  11.462
60917W        W20420  23.596  24.043  13.541
60918W        W20421  19.239   1.375  11.046
60919W        W20422  44.457  14.261  10.638
60920W        W20423  36.537  10.658  12.091
60921W        W20424  20.565  31.066   3.240
60922W        W20425  28.645  44.943  11.007
60923W        W20426  12.303  27.516   0.334
60924W        W20427  41.913  20.755   4.250
60925W        W20428  17.083  34.028   9.944
60926W        W20429  18.642  28.068  10.564
60927W        W20430  23.700  26.615   2.236
60928W        W20431  18.259   0.952  12.447
60929W        W20432   3.305  10.645   0.390
60930W        W20433  23.706  10.859   0.317
60931W        W20434  44.391  24.540   0.359
60932W        W20435  12.810   9.158   3.224
60933W        W20436  12.240  31.039  12.875
60934W        W20437  44.470  12.305   0.778
60935W        W20438  42.971  41.368  10.040
60936W        W20439  37.036  40.960  14.993
60937W        W20440   5.742  34.571   0.747
60938W        W20441  20.163  40.389   3.362
60939W        W20442  25.645   1.420  11.554
60940W        W20443  33.441  24.672   1.227
60941W        W20444  34.063  16.095  12.473
60942W        W20445  21.624  12.775   0.740
60943W        W20446  27.092  34.535  11.123
60944W        W20447  38.351  37.559  13.819
60945W        W20448  31.987  43.514   1.213
60946W        W20449  40.503  23.686  10.101
60947W        W20450  18.053  36.880  11.563
60948W        W20451  31.451   6.185   0.834
60949W        W20452   1.414  22.015   1.292
60950W        W20453  15.714  26.038   4.226
60951W        W20454  15.606   5.871  11.535
60952W        W20455  18.656  38.360  13.444
60953W        W20456  17.761   0.431  14.811
60954W        W20457  35.357  16.276   4.224
60955W        W20458   3.725   5.371  13.036
60956W        W20459   3.859   1.460   1.219
60957W        W20460  10.785  37.876  12.009
60958W        W20461  39.882  21.611   1.828
60959W        W20462  35.040  27.564   1.277
60960W        W20463   2.767  21.199  14.849
60961W        W20464   6.781  17.597  13.912
60962W        W20465  25.983   4.398   2.689
60963W        W20466   9.789  35.468   1.288
60964W        W20467  39.880  22.091  11.018
60965W        W20468   4.907  27.136  14.818
60966W        W20469  28.561  19.566   2.386
60967W        W20470  43.353   1.397   4.216
60968W        W20471  29.607  19.567   9.995
60969W        W20472  11.328   0.494   1.440
60970W        W20473  33.459  11.220  10.605
60971W        W20474  23.061  19.628   0.767
60972W        W20475  12.253  20.567  12.003
60973W        W20476  34.570  37.059  11.058
60974W        W20477  34.004   5.902  14.770
60975W        W20478   0.301  28.571   3.331
60976W        W20479  29.577  10.205  14.026
60977W        W20480   3.459   4.880   1.226
60978W        W20481  32.632   9.829  10.907
60979W        W20482  32.635  38.405   0.456
60980W        W20483   2.886  15.210  13.387
60981W        W20484  33.393  35.393   3.714
60982W        W20485  27.473  36.567  10.904
60983W        W20486  10.838  11.688   1.857
60984W        W20487  44.299  42.026   1.348
60985W        W20488  30.148  12.191   3.856
60986W        W20489  42.413  23.135  13.347
60987W        W20490  18.264  25.528  12.881
60988W        W20491  35.377  17.799  12.976
60989W        W20492   2.439  30.637  12.478
60990W        W20493   8.777  17.224  11.584
60991W        W20494  38.055  17.724   3.243
60992W        W20495  29.160   3.750   3.311
60993W        W20496  14.164  39.514  13.434
60994W        W20497  13.117  19.212  13.930
60995W        W20498  22.094  19.114  14.995
60996W        W20499  40.021  11.660   4.772
60997W        W20500  17.083   8.223   2.809
60998W        W20501  44.379  27.479  14.032
60999W        W20502   7.280  39.513   3.220
61000W        W20503  30.438   3.875   4.805
61001W        W20504  27.967  29.172   1.268
61002W        W20505  15.144   6.280   4.772
61003W        W20506  30.645  34.906   1.331
61004W        W20507  28.998  29.055   1.709
61005W        W20508  19.533  36.466  10.991
61006W        W20509   6.264  30.162  14.030
61007W        W20510  28.618  34.486  13.444
61008W        W20511  30.550   3.458   3.737
61009W        W20512   8.661  13.315   3.159
61010W        W20513  38.887  37.831   2.241
61011W        W20514  40.989  17.707   2.678
61012W        W20515   5.377  38.353  10.558
61013W        W20516   1.892   0.307   1.822
61014W        W20517  36.394  33.584   1.843
61015W        W20518  40.314  34.449   5.183
61016W        W20519  22.583   2.296  11.980
61017W        W20520  41.333  14.132   1.921
61018W        W20521  27.130  27.524  14.992
61019W        W20522  14.336  44.860  11.568
61020W        W20523  40.496   8.832   4.120
61021W        W20524  40.986   5.393   2.325
61022W        W20525  19.616  16.211   4.729
61023W        W20526   9.178  31.988  11.394
61024W        W20527   6.843  28.038  13.831
61025W        W20528  20.029  34.115   2.803
61026W        W20529  33.020  42.030   4.811
61027W        W20530  15.627  18.181   3.738
61028W        W20531  18.222  40.804   1.228
61029W        W20532  25.027  36.384  13.487
61030W        W20533  17.706  31.577  12.346
61031W        W20534  19.278  44.299   0.780
61032W        W20535  17.065  36.927   3.767
61033W        W20536  38.548  29.058   4.264
61034W        W20537  35.088  44.971  11.389
61035W        W20538  20.623  33.471   2.784
61036W        W20539  18.544  32.961  14.309
61037W        W20540  44.421   6.252   4.351
61038W        W20541  28.669  19.736  14.769
61039W        W20542  35.927  38.921  13.511
61040W        W20543   5.913  22.188  14.966
61041W        W20544  38.489  37.051   2.224
61042W        W20545  24.573  16.187   2.285
61043W        W20546  11.193  29.610   2.251
61044W        W20547  33.084   4.860  14.909
61045W        W20548   8.318  40.548   2.681
61046W        W20549  21.623  29.024   1.908
61047W        W20550   2.772  30.641   5.182
61048W        W20551  26.623  33.544  12.341
61049W        W20552  34.032  33.902   4.758
61050W        W20553  41.829  32.032  10.890
61051W        W20554  31.557  40.877  10.461
61052W        W20555  31.569  21.258  10.498
61053W        W20556   6.812  32.589  11.444
61054W        W20557   8.878  21.243   2.690
61055W        W20558  41.496  21.128  11.472
61056W        W20559  39.404  42.962   2.762
61057W        W20560   6.727  40.938   2.778
61058W        W20561  43.930   2.424  12.924
61059W        W20562  13.690  18.720   1.895
61060W        W20563  20.073  25.081  13.896
61061W        W20564   3.348  27.042   1.265
61062W        W20565  22.732  42.877  11.527
61063W        W20566  35.483  35.956   2.799
61064W        W20567  17.586  15.184  13.014
61065W        W20568  23.222  42.331   9.957
61066W        W20569  11.798  39.390   2.340
61067W        W20570  21.715   1.434  13.342
61068W        W20571  38.952  42.479   3.760
61069W        W20572  39.876  29.648  14.332
61070W        W20573  43.439  33.569  11.567
61071W        W20574  30.579  35.418  12.974
61072W        W20575  30.541  41.469  10.906
61073W        W20576   2.847   7.727  10.565
61074W        W20577  41.416   9.197  10.589
61075W        W20578  39.535  31.978   4.818
61076W        W20579  31.404   2.918  12.902
61077W        W20580   4.864  18.598  12.967
61078W        W20581  28.122  14.682   1.372
61079W        W20582  41.365  38.414  12.928
61080W        W20583   9.290  28.101   2.714
61081W        W20584  33.054  41.379  11.421
61082W        W20585  12.848   9.252  11.924
61083W        W20586  19.648   7.321  13.350
61084W        W20587  14.646  39.316  13.317
61085W        W20588  12.169  28.584   1.855
61086W        W20589   0.353  24.029   4.768
61087W        W20590  22.585   0.269   0.424
61088W        W20591   9.352  32.558   5.321
61089W        W20592  25.137  14.155   2.719
61090W        W20593  35.514  15.214   1.265
61091W        W20594  24.104   4.738   1.899
61092W        W20595   2.319  15.812   2.821
61093W        W20596   1.880   9.712   2.778
61094W        W20597  40.487   5.196   0.962
61095W        W20598   5.296   6.233  13.399
61096W        W20599   5.228  42.951  12.955
61097W        W20600  36.501  33.930   4.328
61098W        W20601  32.494  18.734   1.873
61099W        W20602  26.586  16.239   2.259
61100W        W20603   7.222   7.800   0.730
61101W        W20604  28.591  28.148   1.434
61102W        W20605   9.191  34.994   0.836
61103W        W20606   1.293  17.095  14.465
61104W        W20607  23.202  17.789   2.340
61105W        W20608  14.808  20.535  11.031
61106W        W20609  30.483   0.782  11.510
61107W        W20610  36.027  30.632  10.480
61108W        W20611  33.476   1.260   2.717
61109W        W20612  24.001  11.807   3.768
61110W        W20613   9.264  18.278  10.510
61111W        W20614   3.739  34.433  12.097
61112W        W20615   9.259   4.269   2.729
61113W        W20616  17.594  28.111   3.661
61114W        W20617   7.726   8.164   1.887
61115W        W20618  34.869  17.191  12.059
61116W        W20619  30.057  43.491   0.760
61117W        W20620   5.342   5.225  13.545
61118W        W20621  24.646  18.766   0.901
61119W        W20622  28.436  44.998  12.497
61120W        W20623  15.129  19.205   0.421
61121W        W20624  32.588  16.712   9.594
61122W        W20625  10.699   6.391  14.487
61123W        W20626  26.061  42.934  12.561
61124W        W20627  39.975  20.752   1.444
61125W        W20628  28.995  16.740   3.707
61126W        W20629  19.656   5.250   2.385
61127W        W20630  21.129  18.591  13.490
61128W        W20631  14.302   1.407  10.584
61129W        W20632  28.963  36.410   0.387
61130W        W20633  36.552  43.311  14.438
61131W        W20634  22.699  20.236   3.713
61132W        W20635  43.511  39.976   0.951
61133W        W20636  10.319  25.551   2.786
61134W        W20637  28.656  43.948  10.609
61135W        W20638   7.769   0.295  12.527
61136W        W20639   4.405  12.132   4.318
61137W        W20640   2.267  40.471   4.652
61138W        W20641   7.779  36.091  10.959
61139W        W20642  22.677  20.714   2.299
61140W        W20643  40.394  13.201  14.497
61141W        W20644  19.118  10.329   1.419
61142W        W20645  24.576  44.989  10.461
61143W        W20646  27.476   0.847   5.123
61144W        W20647  20.629  34.474   4.183
61145W        W20648  16.252  22.697  14.992
61146W        W20649  39.377  12.175  12.489
61147W        W20650   2.874  26.656   0.298
61148W        W20651   3.761  25.151   2.798
61149W        W20652  11.695  21.082   4.834
61150W        W20653  24.160  28.509  13.373
61151W        W20654  30.150  23.667   2.798
61152W        W20655  22.087  35.879   3.376
61153W        W20656  16.287  19.577  14.893
61154W        W20657  42.984  29.583   0.419
61155W        W20658   9.316  12.152  11.879
61156W        W20659  43.418  25.069   4.756
61157W        W20660   4.813  32.596  11.537
61158W        W20661   6.325  44.455   1.225
61159W        W20662  10.198  44.388  12.558
61160W        W20663  14.797  29.115   3.272
61161W        W20664  13.696  17.566   3.701
61162W        W20665  23.692  32.446   0.411
61163W        W20666  39.019   9.751   3.182
61164W        W20667  19.646  44.436  11.491
61165W        W20668  18.585   0.916   1.333
61166W        W20669  29.161  30.584   3.205
61167W        W20670  21.039  11.860   2.194
61168W        W20671  38.540  25.213  14.424
61169W        W20672  43.001   9.649   0.832
61170W        W20673   3.871  33.519  14.297
61171W        W20674  12.197  21.550  13.932
61172W        W20675  19.696  32.622   2.882
61173W        W20676  30.014   2.778   2.690
61174W        W20677   1.434  11.825  13.366
61175W        W20678  10.333  34.502  14.999
61176W        W20679  44.988  43.331  13.362
61177W        W20680   0.263   1.900   4.755
61178W        W20681  40.894   1.957  12.950
61179W        W20682   1.404  11.833   3.168
61180W        W20683  24.132  14.103   5.262
61181W        W20684   6.280  12.701   1.418
61182W        W20685   9.244   3.258  12.033
61183W        W20686  34.009  44.909   2.224
61184W        W20687   9.715  21.728   0.760
61185W        W20688  44.395  40.312  13.025
61186W        W20689  37.926  38.534   2.313
61187W        W20690   0.915  17.562   1.314
61188W        W20691  27.568  19.159   2.903
61189W        W20692  19.094  24.182   1.868
61190W        W20693  21.068   1.850   5.214
61191W        W20694  24.061  30.068  11.477
61192W        W20695   3.391   4.810  12.864
61193W        W20696  10.363  43.311   2.265
61194W        W20697  19.182  34.548   1.392
61195W        W20698  38.337  28.456   1.759
61196W        W20699  16.628  31.592   0.462
61197W        W20700   1.458   9.748  13.414
61198W        W20701  12.350  40.468   3.206
61199W        W20702  39.850   0.780   1.777
61200W        W20703  37.074  23.557   1.780
61201W        W20704  31.984  18.124  14.878
61202W        W20705  12.230  10.743   4.665
61203W        W20706  15.124  43.803   4.140
61204W        W20707  13.159  24.020  13.393
61205W        W20708  40.995  19.694   3.670
61206W        W20709  35.531  10.172  14.992
61207W        W20710  40.540  29.664  13.993
61208W        W20711  39.551  14.638  13.394
61209W        W20712  43.273  43.774  10.538
61210W        W20713  39.543  25.202  14.966
61211W        W20714  10.222  22.556   2.682
61212W        W20715  43.339  36.498   3.855
61213W        W20716  38.388  14.208  13.890
61214W        W20717   2.233  17.777   0.767
61215W        W20718  14.149  38.031  14.385
61216W        W20719  40.503  35.548  11.385
61217W        W20720  15.126   7.713   2.339
61218W        W20721   7.747  13.622  11.408
61219W        W20722   4.279  11.654   0.833
61220W        W20723  15.306  32.620  11.522
61221W        W20724  43.386  30.096   1.421
61222W        W20725  14.236   0.856   1.874
61223W        W20726  32.026   8.884   3.683
61224W        W20727  30.046   6.708  11.970
61225W        W20728  19.694  37.895  12.544
61226W        W20729  38.034  43.319   3.154
61227W        W20730  30.544   2.328  12.887
61228W        W20731   6.748  32.493   4.227
61229W        W20732  11.335  32.985   3.686
61230W        W20733  19.683  30.098   3.152
61231W        W20734  18.604   8.770  11.579
61232W        W20735  41.439  13.729   0.955
61233W        W20736  44.890  17.679  12.920
61234W        W20737  30.975   4.878   0.789
61235W        W20738  14.623  31.975  10.999
61236W        W20739  40.824   6.863  11.974
61237W        W20740  11.779  29.626  12.890
61238W        W20741  22.715  24.090   4.160
61239W        W20742   9.815  29.664  11.064
61240W        W20743  44.756  23.593  11.954
61241W        W20744  24.703  38.435  13.316
61242W        W20745  12.748  43.324  14.930
61243W        W20746   1.800  33.011  13.025
61244W        W20747  14.792  10.182   3.843
61245W        W20748  12.356  26.144  10.413
61246W        W20749   9.371  17.573   5.674
61247W        W20750   3.313  11.820   4.668
61248W        W20751  22.666  20.577  13.844
61249W        W20752  31.542  36.024   0.418
61250W        W20753  39.983   2.798   9.552
61251W        W20754  35.979  25.654   4.273
61252W        W20755  22.111   4.424  13.006
61253W        W20756   9.153   9.826   4.188
61254W        W20757  28.095   4.296  11.593
61255W        W20758  12.694  30.471   2.695
61256W        W20759  42.395   4.400   0.765
61257W        W20760  16.629   1.816  10.484
61258W        W20761  16.622  17.561  14.301
61259W        W20762   9.271  18.112   5.274
61260W        W20763  16.703  31.609   0.824
61261W        W20764   1.757  22.140   1.774
61262W        W20765  11.625  17.259   1.226
61263W        W20766   4.329   3.261   2.799
61264W        W20767  43.409  26.646  10.063
61265W        W20768  31.422  39.894  14.316
61266W        W20769  26.632  21.626  12.902
61267W        W20770  30.588  13.190  12.453
61268W        W20771  30.121  13.802  14.864
61269W        W20772  16.246   1.379  14.870
61270W        W20773  17.220  21.582  14.408
61271W        W20774  27.611   3.293  13.964
61272W        W20775   7.785  22.601   4.354
61273W        W20776   0.826   9.749  14.965
61274W        W20777  41.490  38.060   4.683
61275W        W20778   6.297  21.249  13.500
61276W        W20779   8.381   8.764  11.891
61277W        W20780   4.248  43.971   3.199
61278W        W20781  21.054   0.850   3.653
61279W        W20782  41.921   1.480   2.845
61280W        W20783  42.777   0.252  14.858
61281W        W20784  14.159  35.449   2.753
61282W        W20785  30.158  31.486   0.292
61283W        W20786   5.750  33.063  12.081
61284W        W20787   6.303  24.042   0.478
61285W        W20788  18.222  17.133   3.840
61286W        W20789  24.723   7.280   4.775
61287W        W20790   0.441  40.853  12.572
61288W        W20791  31.416   8.406  12.840
61289W        W20792  18.178   6.713   2.855
61290W        W20793   7.905   2.324  12.071
61291W        W20794   9.824  14.619  12.457
61292W        W20795   4.699  23.151   0.292
61293W        W20796  44.377  16.706   2.753
61294W        W20797  31.516  28.063   1.933
61295W        W20798  40.829  40.829   4.752
61296W        W20799  38.907  43.020   1.450
61297W        W20800   5.261  29.995   4.119
61298W        W20801  16.812  13.259   2.284
61299W        W20802   2.930  11.300   4.250
61300W        W20803  43.386  14.728  11.859
61301W        W20804  14.169  11.751   1.885
61302W        W20805   0.395  15.711   4.612
61303W        W20806  43.926   9.194   3.325
61304W        W20807  37.065  30.442   1.312
61305W        W20808  21.029   3.717   2.715
61306W        W20809   3.793  40.855   2.824
61307W        W20810  14.602  26.575  10.994
61308W        W20811  40.343  32.917  14.905
61309W        W20812  18.565  44.807   4.128
61310W        W20813  16.236   0.899   0.958
61311W        W20814  12.224  35.392  11.415
61312W        W20815  40.490  16.111   1.829
61313W        W20816  32.973  39.402   0.278
61314W        W20817  10.384  32.475   0.776
61315W        W20818  40.911  14.738  13.886
61316W        W20819  24.633  18.060  11.453
61317W        W20820   0.878  34.993  11.475
61318W        W20821  25.176  25.136   3.769
61319W        W20822  29.468   6.205  11.442
61320W        W20823   9.838  36.986   1.352
61321W        W20824  42.962  35.958   3.179
61322W        W20825  42.412   9.888   2.385
61323W        W20826  28.180  43.373   4.831
61324W        W20827  18.632  27.149   2.748
61325W        W20828   9.839  36.425  11.082
61326W        W20829  35.400  32.985  12.415
61327W        W20830  35.468   7.269   0.243
61328W        W20831  17.687  43.948   0.731
61329W        W20832  17.229  21.024   2.798
61330W        W20833  20.123  33.922  13.353
61331W        W20834  27.097  27.968  10.129
61332W        W20835   5.318  24.591  14.790
61333W        W20836  35.589   9.776  11.432
61334W        W20837  12.688  17.061  12.491
61335W        W20838  28.564  10.718   2.270
61336W        W20839  19.761  18.716   4.209
61337W        W20840  34.375  44.987  11.027
61338W        W20841  17.775  32.419  12.919
61339W        W20842   9.713  14.157  10.014
61340W        W20843  35.961  23.043   3.289
61341W        W20844  27.540  21.743   0.428
61342W        W20845  22.093  42.949  13.975
61343W        W20846  10.722  25.113  10.580
61344W        W20847  15.614  25.712   0.444
61345W        W20848  21.617  16.617  11.490
61346W        W20849  34.516   5.924   4.331
61347W        W20850  11.349   1.950  14.344
61348W        W20851  35.949  16.587   2.730
61349W        W20852   3.805  26.165  10.921
61350W        W20853  39.828   2.741  14.879
61351W        W20854  43.295  24.705  12.990
61352W        W20855  17.785   4.256   1.425
61353W        W20856  24.228  28.942   0.896
61354W        W20857  38.847  26.994   1.867
61355W        W20858  39.358  35.045  11.388
61356W        W20859  27.663  28.166   0.910
61357W        W20860  19.725   0.805  12.558
61358W        W20861  37.863   9.873   3.222
61359W        W20862  13.248  23.002  11.087
61360W        W20863  35.037  33.616   2.856
61361W        W20864  22.214   8.874   5.131
61362W        W20865  26.595  27.456  14.409
61363W        W20866  12.186  29.130   4.830
61364W        W20867  37.890  12.249   4.229
61365W        W20868   8.342  31.016   2.857
61366W        W20869  34.551  41.798  14.794
61367W        W20870   1.972  14.231  13.540
61368W        W20871  13.261  29.110  14.857
61369W        W20872  38.513   6.794   1.247
61370W        W20873  36.554  33.430  12.837
61371W        W20874  36.070  22.660   4.212
61372W        W20875  10.335   0.983   3.861
61373W        W20876  31.547  11.248  14.844
61374W        W20877  40.800  35.484  13.431
61375W        W20878  17.797  12.672  12.975
61376W        W20879  19.282  26.606   4.723
61377W        W20880  19.119   0.326  12.884
61378W        W20881  13.664  44.417  11.605
61379W        W20882  41.460   5.383   3.292
61380W        W20883  17.777  36.552  12.396
61381W        W20884  31.993  41.382  14.871
61382W        W20885   3.278  31.902  10.506
61383W        W20886  24.116  38.508  14.505
61384W        W20887   2.806  40.019   1.818
61385W        W20888   4.765  22.530  12.417
61386W        W20889  40.470  41.407  14.029
61387W        W20890   1.259  34.988   0.752
61388W        W20891  12.228  23.119  13.488
61389W        W20892  30.497  21.143  11.888
61390W        W20893   5.283  27.511   1.931
61391W        W20894  12.643  30.575   0.895
61392W        W20895  20.243  19.126   3.385
61393W        W20896   1.384  39.540  10.545
61394W        W20897  32.128  10.708   4.637
61395W        W20898  14.225  26.143   2.266
61396W        W20899  40.817  14.105   4.617
61397W        W20900  13.767  24.118  14.450
61398W        W20901  41.878   4.304   1.220
61399W        W20902  23.663  24.062   3.781
61400W        W20903  15.149   0.928  11.888
61401W        W20904   0.898  18.761   1.250
61402W        W20905  25.177  40.542   2.367
61403W        W20906  11.240  22.578  13.036
61404W        W20907   8.776  35.373  11.456
61405W        W20908  26.138  29.567  10.581
61406W        W20909  13.626  32.526  14.880
61407W        W20910  41.294  34.546   2.790
61408W        W20911  25.191  25.615   2.857
61409W        W20912   4.885  27.618   3.337
61410W        W20913  21.708  43.901   3.376
61411W        W20914  32.943  23.118  10.998
61412W        W20915  18.711  44.926  10.947
61413W        W20916  31.592  34.609  13.037
61414W        W20917  21.600  35.439   0.286
61415W        W20918   9.866  41.506   3.669
61416W        W20919  34.094  32.134  14.988
61417W        W20920  44.790  31.496   4.624
61418W        W20921  13.767   1.909  12.512
61419W        W20922  42.507  40.894  11.875
61420W        W20923  40.893  41.426  12.478
61421W        W20924  10.179   3.461  12.367
61422W        W20925  11.316  33.886  12.866
61423W        W20926  33.416  36.481   4.299
61424W        W20927   8.187  35.422   3.363
61425W        W20928  39.959  39.315   4.790
61426W        W20929  12.664  19.611  11.908
61427W        W20930  35.905  16.134  11.581
61428W        W20931   2.369  22.504   4.700
61429W        W20932  24.182  25.701  13.061
61430W        W20933   7.665  10.232   0.293
61431W        W20934  23.023   9.700  12.500
61432W        W20935  37.991  16.077   2.808
61433W        W20936  26.098   4.811   0.849
61434W        W20937  37.523  20.642   4.828
61435W        W20938   3.377   5.742  10.141
61436W        W20939  13.606  12.623   1.722
61437W        W20940  41.976  27.626  14.292
61438W        W20941  44.378  12.230  14.837
61439W        W20942  23.127   8.162  10.437
61440W        W20943   8.309  38.482  13.817
61441W        W20944  17.062  23.621  13.016
61442W        W20945  44.434  17.758  10.081
61443W        W20946  14.339   5.929   0.479
61444W        W20947  40.049  43.420  14.438
61445W        W20948   7.833   5.195  13.358
61446W        W20949  42.860  23.008  13.344
61447W        W20950   0.261  36.551  14.004
61448W        W20951  15.693  26.003   3.639
61449W        W20952   9.839  15.688  11.604
61450W        W20953  30.554  25.601   3.214
61451W        W20954   7.416  33.996  13.956
61452W        W20955  16.314  22.726   3.288
61453W        W20956  16.077  21.699   2.771
61454W        W20957  27.020  16.097   3.246
61455W        W20958  21.633  19.121  12.994
61456W        W20959  16.606  27.656   4.649
61457W        W20960  16.637   0.399  11.503
61458W        W20961  10.702  31.586  13.944
61459W        W20962  28.067  42.858  12.499
61460W        W20963  20.250  12.835  11.563
61461W        W20964  11.228  13.679   3.208
61462W        W20965   8.285  13.629   4.832
61463W        W20966   4.317   3.956   4.680
61464W        W20967  31.402   5.724   3.641
61465W        W20968  43.419   9.231  12.936
61466W        W20969  42.951  32.439   2.704
61467W        W20970  23.184  38.975   0.413
61468W        W20971  10.653  24.216   1.336
61469W        W20972  44.278  33.882  14.882
61470W        W20973  25.030   5.880  12.917
61471W        W20974  14.810  34.548  10.977
61472W        W20975  28.439  25.214   1.257
61473W        W20976  14.770  36.490  13.881
61474W        W20977  25.513  39.501   3.153
61475W        W20978  44.282  41.899  14.430
61476W        W20979  18.143  44.949   1.860
61477W        W20980  21.096  17.250   5.198
61478W        W20981  10.866  24.101   4.283
61479W        W20982  30.163  14.268  13.349
61480W        W20983  17.663   7.683  11.540
61481W        W20984  30.486  16.724  12.956
61482W        W20985  31.143  44.829   0.734
61483W        W20986   4.389  43.512   1.701
61484W        W20987  17.771  36.366   3.666
61485W        W20988  11.369  11.152  13.041
61486W        W20989   4.391  18.245  12.937
61487W        W20990  22.140  34.519   0.379
61488W        W20991  14.675  22.652   0.472
61489W        W20992  38.036  16.285   1.863
61490W        W20993  35.940  32.451  14.498
61491W        W20994  22.586  17.798   0.263
61492W        W20995  19.281  25.481   4.661
61493W        W20996  40.377  38.825  14.360
61494W        W20997   7.348  29.535  10.554
61495W        W20998  14.770   0.413   0.466
61496W        W20999  27.119   0.309   1.335
61497W        W21000   0.819  24.122  14.793
61498W        W21001  11.662  44.456   3.837
61499W        W21002  23.136  32.938  10.984
61500W        W21003  29.464  40.023   2.195
61501W        W21004  43.327   0.928  12.928
61502W        W21005  19.041  28.600   0.880
61503W        W21006  33.396   2.850  12.875
61504W        W21007  26.640  19.553  10.069
61505W        W21008  43.328  10.736  14.468
61506W        W21009   8.399   9.883   4.728
61507W        W21010  29.936  43.929   3.292
61508W        W21011  43.303  25.110   4.167
61509W        W21012  23.190  27.563  11.470
61510W        W21013  19.758  33.626  13.330
61511W        W21014  24.145  29.946   0.419
61512W        W21015  16.301  10.138  10.406
61513W        W21016  36.873  37.384   0.248
61514W        W21017  39.931  37.562   2.288
61515W        W21018  26.500  38.028  11.612
61516W        W21019  39.317   7.317  12.514
61517W        W21020   0.987   4.411   3.153
61518W        W21021  41.383  38.001   2.241
61519W        W21022  43.327  29.645   9.983
61520W        W21023  15.591   3.361  12.438
61521W        W21024   5.872  29.566  13.876
61522W        W21025   5.792  29.499   0.778
61523W        W21026  20.035  14.610  10.950
61524W        W21027  14.306  20.226  10.913
61525W        W21028  24.115   5.802   1.786
61526W        W21029  33.898  37.356   0.818
61527W        W21030   5.329   9.182   3.168
61528W        W21031   7.706  19.077  11.373
61529W        W21032  36.578  28.611  12.503
61530W        W21033  30.614  28.483   4.321
61531W        W21034  15.725  11.800   2.694
61532W        W21035  18.736  39.917  11.375
61533W        W21036  37.001  30.052  10.949
61534W        W21037  16.218  37.396   1.769
61535W        W21038   2.775   0.951  13.531
61536W        W21039  34.526  35.001  14.343
61537W        W21040   0.980  39.993  14.384
61538W        W21041   2.244  35.543  13.392
61539W        W21042  36.949  27.962   2.308
61540W        W21043  12.853  21.257   4.333
61541W        W21044  18.142   4.343   1.361
61542W        W21045  39.964  22.553  14.002
61543W        W21046  14.627  29.165   2.318
61544W        W21047   3.953  18.774   4.733
61545W        W21048  11.678  38.476   1.698
61546W        W21049  37.077  22.741  10.971
61547W        W21050  24.002   7.810   4.691
61548W        W21051  39.445  44.398  14.310
61549W        W21052   4.394   4.809  14.775
61550W        W21053  27.597  39.473  11.102
61551W        W21054  27.484  17.672  12.455
61552W        W21055  42.340  28.456  14.388
61553W        W21056   0.954   5.276   0.345
61554W        W21057  23.643  44.977  10.451
61555W        W21058  16.240  42.030   2.209
61556W        W21059  36.451  36.846   0.319
61557W        W21060  25.485   7.741  11.600
61558W        W21061  16.253  10.823  12.877
61559W        W21062  20.153  39.493   4.199
61560W        W21063  36.540  31.966   4.253
61561W        W21064   5.907  37.835  10.601
61562W        W21065  21.571  34.529  13.888
61563W        W21066  32.136  43.807  10.419
61564W        W21067  31.921  24.024   5.203
61565W        W21068  41.798  40.506  10.591
61566W        W21069  22.559  14.757   2.687
61567W        W21070  18.645  40.357   4.173
61568W        W21071  24.648  14.109  10.490
61569W        W21072  38.880   8.893   1.449
61570W        W21073  40.004  38.512   2.350
61571W        W21074  28.576  33.561  13.920
61572W        W21075  24.055  16.081  11.077
61573W        W21076  37.018   2.951  10.955
61574W        W21077  37.460  19.093  14.852
61575W        W21078  26.008  35.935  14.928
61576W        W21079  34.376  40.910  11.540
61577W        W21080  23.017  15.327   4.809
61578W        W21081  25.557   7.714  11.074
61579W        W21082   2.260  42.834   1.301
61580W        W21083   0.904   8.203   0.404
61581W        W21084  14.809  31.109   4.787
61582W        W21085  10.823  16.211   3.645
61583W        W21086  34.990  32.483   2.776
61584W        W21087  17.070  43.386   1.263
61585W        W21088  15.276  37.084  12.432
61586W        W21089   6.891  24.994  12.540
61587W        W21090  36.881  18.630  13.998
61588W        W21091   5.386  23.500   0.746
61589W        W21092  13.226  27.549  12.461
61590W        W21093  33.615  41.953  13.007
61591W        W21094  17.129  40.353   3.146
61592W        W21095  34.944  16.790   4.181
61593W        W21096  18.768  41.831   2.664
61594W        W21097   9.331  33.576  11.443
61595W        W21098  10.802  33.386   4.830
61596W        W21099  17.078  12.192  14.942
61597W        W21100   3.295   9.334   2.773
61598W        W21101  30.119  16.595   4.297
61599W        W21102  34.896  12.801  10.046
61600W        W21103  41.457  27.130   2.718
61601W        W21104  23.117  27.972   1.392
61602W        W21105  17.072  40.868   4.745
61603W        W21106  35.099  41.339   2.870
61604W        W21107   4.432  17.801   1.819
61605W        W21108   7.706  35.462  14.452
61606W        W21109  28.505   8.821  14.322
61607W        W21110  17.726  29.150   1.736
61608W        W21111  11.730   6.718   0.963
61609W        W21112  25.624   6.731  14.785
61610W        W21113  41.014  21.665   4.169
61611W        W21114  23.083  44.780   1.752
61612W        W21115  11.721  15.296  11.443
61613W        W21116  33.896   0.834   3.243
61614W        W21117  26.993  19.115   3.166
61615W        W21118  30.658  18.565  13.056
61616W        W21119  31.148  17.619   1.283
61617W        W21120  20.612  17.673   2.677
61618W        W21121   1.763  26.191   4.214
61619W        W21122  31.032  11.843   2.264
61620W        W21123  37.451  25.679   3.670
61621W        W21124  41.351   4.833  12.511
61622W        W21125  14.273   5.918  12.385
61623W        W21126  38.824   1.961  10.459
61624W        W21127   8.376  36.408  14.813
61625W        W21128  21.710  37.407   1.346
61626W        W21129  33.982   2.768  11.458
61627W        W21130  14.616  30.612  12.424
61628W        W21131  34.059   0.358   2.865
61629W        W21132  40.395  41.864   2.368
61630W        W21133  42.308  30.433  13.536
61631W        W21134   5.240  25.173  14.933
61632W        W21135  20.747  26.676   0.888
61633W        W21136   0.802  17.164  14.383
61634W        W21137  33.889   6.800   0.730
61635W        W21138  30.947  26.528   3.862
61636W        W21139  13.621  27.679   3.775
61637W        W21140   5.367  33.006   3.266
61638W        W21141  38.043  38.938   3.825
61639W        W21142   0.797   4.725  14.299
61640W        W21143  16.193  34.375  13.461
61641W        W21144  26.128  42.331  12.005
61642W        W21145  30.120  25.688   0.439
61643W        W21146  40.380  24.492  14.978
61644W        W21147  24.998  44.975   3.739
61645W        W21148  15.276  27.618  14.319
61646W        W21149  40.428   9.861   1.878
61647W        W21150  20.666  36.902  11.609
61648W        W21151  33.615  25.601   2.683
61649W        W21152  40.824  19.745  10.477
61650W        W21153  25.560  18.679   2.224
61651W        W21154  25.044  30.623   0.877
61652W        W21155  39.832  38.989  14.423
61653W        W21156  19.750  37.448  10.917
61654W        W21157  41.032  35.386  10.937
61655W        W21158  38.023  35.510   4.209
61656W        W21159  15.681  31.435   3.362
61657W        W21160  23.559   3.396   3.271
61658W        W21161  24.527  20.047  14.506
61659W        W21162  23.177  42.998   5.630
61660W        W21163  25.195  40.398  11.501
61661W        W21164  17.668  17.558   1.236
61662W        W21165  16.275   4.254  12.911
61663W        W21166  24.530  26.515   1.908
61664W        W21167  33.395  42.000   4.732
61665W        W21168  18.669  31.616  12.499
61666W        W21169   4.416   2.441  12.924
61667W        W21170  43.391   3.919   1.269
61668W        W21171  16.235  27.542   3.717
61669W        W21172  44.898  35.397  11.499
61670W        W21173  10.273  19.061   4.701
61671W        W21174  44.380  13.765   4.118
61672W        W21175  36.460  24.130   0.328
61673W        W21176  38.823   1.842   1.823
61674W        W21177  33.122  44.812  13.007
61675W        W21178   0.745  23.616  11.951
61676W        W21179  36.364  27.167  13.413
61677W        W21180  29.494   4.241   3.374
61678W        W21181  30.442  44.814  11.476
61679W        W21182   8.872  38.038  13.863
61680W        W21183  26.600  16.208  14.018
61681W        W21184  16.161  43.396  10.956
61682W        W21185  42.321  34.589  12.927
61683W        W21186  14.302  29.479   5.131
61684W        W21187  36.013  43.480  12.522
61685W        W21188  37.885  36.354  10.438
61686W        W21189  14.752   2.749  10.599
61687W        W21190  41.827  27.482   1.803
61688W        W21191  38.972  40.024   1.934
61689W        W21192   4.903  43.817  14.885
61690W        W21193  36.414   6.712   0.950
61691W        W21194  35.392   6.317  10.966
61692W        W21195  41.331  30.562   3.775
61693W        W21196  36.866  28.655  14.779
61694W        W21197  43.971  33.610   4.247
61695W        W21198  14.132  25.511  14.022
61696W        W21199  44.355   1.471   4.291
61697W        W21200  37.035  27.599  12.373
61698W        W21201  43.492   3.339  14.957
61699W        W21202  16.186  23.583   5.182
61700W        W21203  28.082  12.211  10.520
61701W        W21204  43.017  32.107  13.903
61702W        W21205  28.598  34.543   1.397
61703W        W21206  15.787  44.398  13.049
61704W        W21207   8.282  17.598  10.030
61705W        W21208   1.352   1.343  13.888
61706W        W21209  38.978   2.734  12.580
61707W        W21210  35.434  40.371   1.242
61708W        W21211  24.226  23.528   1.808
61709W        W21212  44.857   3.846  13.060
61710W        W21213  29.981  26.128   2.836
61711W        W21214   3.733  15.086  14.486
61712W        W21215  28.556  35.553  13.985
61713W        W21216  21.244  21.637   2.776
61714W        W21217   7.733  35.590   2.762
61715W        W21218   5.859  39.902  11.991
61716W        W21219  36.560  40.495  10.938
61717W        W21220  44.764   7.267   2.295
61718W        W21221  40.994  33.954   1.785
61719W        W21222   4.369  42.343  13.372
61720W        W21223  41.358  43.481   2.394
61721W        W21224  29.638  38.879   1.362
61722W        W21225  25.105  28.572   0.297
61723W        W21226  22.668  40.455  11.395
61724W        W21227   8.237  38.871  13.485
61725W        W21228  18.764  13.173  11.480
61726W        W21229  20.754  11.845   3.246
61727W        W21230  19.263  34.377   4.804
61728W        W21231  15.680  24.545  11.006
61729W        W21232  11.642   6.266   4.235
61730W        W21233  44.803  40.369   3.708
61731W        W21234  13.164  14.831  12.431
61732W        W21235  18.635   1.799  12.896
61733W        W21236   5.809   6.424  13.980
61734W        W21237   4.881  13.620   3.286
61735W        W21238  19.097   4.408  11.440
61736W        W21239  23.038  13.729  12.003
61737W        W21240   2.733  16.212   2.731
61738W        W21241  31.149  24.198   0.387
61739W        W21242  43.835  22.698   4.709
61740W        W21243   5.891   1.343   0.964
61741W        W21244   2.466   6.319  11.019
61742W        W21245   8.170  27.141  12.960
61743W        W21246  44.485  44.422   2.693
61744W        W21247  24.019   1.956   3.226
61745W        W21248  25.072  17.699   0.902
61746W        W21249   9.249   5.867   1.717
61747W        W21250  13.663  40.417  12.937
61748W        W21251  17.596   4.941   1.757
61749W        W21252  30.036  23.064   1.696
61750W        W21253   5.823   2.449   4.204
61751W        W21254  23.579  18.207   3.807
61752W        W21255   2.784  15.705   4.218
61753W        W21256  21.708  19.208   2.390
61754W        W21257  37.834  34.481   2.704
61755W        W21258  25.692  22.173  11.385
61756W        W21259   5.209  37.544  13.032
61757W        W21260  18.067  26.020  10.458
61758W        W21261  12.211  18.261   3.245
61759W        W21262  23.233  43.329   5.320
61760W        W21263  40.891   5.890  13.052
61761W        W21264   1.438  34.442   3.834
61762W        W21265  10.276  33.591   2.827
61763W        W21266   1.820  27.643   4.173
61764W        W21267  31.944  38.984   0.900
61765W        W21268  15.144  20.053   1.366
61766W        W21269  34.031   2.447  14.504
61767W        W21270  24.076  11.823  11.551
61768W        W21271  39.060  39.048  13.883
61769W        W21272  37.560  27.084  12.474
61770W        W21273  39.057   0.763  14.851
61771W        W21274  41.519  34.927  14.354
61772W        W21275  34.931  26.596   1.298
61773W        W21276  24.997  33.985  14.326
61774W        W21277  44.499   4.322  14.864
61775W        W21278   8.185  29.003  10.563
61776W        W21279   7.365  10.268   0.891
61777W        W21280   1.319  41.522  14.968
61778W        W21281   5.842   7.781   1.226
61779W        W21282   4.332   0.320   4.189
61780W        W21283   7.400  29.606   3.762
61781W        W21284  14.232  21.514  14.418
61782W        W21285  26.986  33.556  10.915
61783W        W21286  18.685  10.815   3.657
61784W        W21287  18.095  24.569  14.301
61785W        W21288  17.286  23.711  10.960
61786W        W21289   5.759   2.301  14.923
61787W        W21290  42.434  22.506  14.907
61788W        W21291  12.170   6.322   2.867
61789W        W21292  13.626  36.526  14.762
61790W        W21293  23.573  35.532   2.390
61791W        W21294   9.214  26.684   2.318
61792W        W21295  37.421  44.269   3.298
61793W        W21296  21.726  41.948   1.352
61794W        W21297   3.259  42.352   2.215
61795W        W21298  34.027   3.391  14.338
61796W        W21299   8.746  36.354   2.743
61797W        W21300  20.114  20.695  13.888
61798W        W21301  32.951  10.350  12.348
61799W        W21302   1.344  14.758   2.369
61800W        W21303  21.625  39.512   1.757
61801W        W21304  14.242  18.673   3.274
61802W        W21305   4.779   9.865  13.519
61803W        W21306  43.383  28.672   4.291
61804W        W21307  37.073  32.132   4.216
61805W        W21308  44.810   5.894  13.000
61806W        W21309   6.722  38.533  12.881
61807W        W21310   0.846   0.335  13.461
61808W        W21311   2.825  19.204  10.425
61809W        W21312  27.093  23.091  12.950
61810W        W21313  30.084   8.709  10.427
61811W        W21314  12.619   4.811   1.408
61812W        W21315  18.661  40.520   0.758
61813W        W21316  23.216   2.909   3.368
61814W        W21317  15.241  11.672  10.894
61815W        W21318  12.625  37.504   4.666
61816W        W21319   9.326  43.867  10.489
61817W        W21320   6.791  16.771  14.407
61818W        W21321  10.841  33.541   0.350
61819W        W21322  20.261   5.866  14.930
61820W        W21323  35.587   0.262  11.052
61821W        W21324  10.685   3.286  11.394
61822W        W21325   9.326  37.405   5.172
61823W        W21326   4.863  33.598   5.222
61824W        W21327  35.417  43.456  14.514
61825W        W21328  44.301  15.786   0.769
61826W        W21329  17.109  32.963  11.471
61827W        W21330  15.631   0.418  10.095
61828W        W21331  13.219  22.559   4.206
61829W        W21332  31.497  44.281   0.756
61830W        W21333  29.957  36.895  14.997
61831W        W21334  36.388  23.088  14.926
61832W        W21335   6.326  15.157   1.913
61833W        W21336  24.230   4.346   4.256
61834W        W21337  20.206  10.280  13.930
61835W        W21338  13.252   5.699  13.346
61836W        W21339  11.169  22.622  11.438
61837W        W21340   0.326  40.005  13.329
61838W        W21341  39.338   0.843   4.234
61839W        W21342  28.089  37.975   1.341
61840W        W21343  25.147  39.413   2.854
61841W        W21344  30.953  39.557  11.885
61842W        W21345  16.265  18.220  11.461
61843W        W21346   2.948  21.613   4.703
61844W        W21347   3.737  40.383  10.552
61845W        W21348  13.758   8.821   3.843
61846W        W21349   1.736  38.402   0.479
61847W        W21350  35.985  28.573  14.461
61848W        W21351  31.933  30.651  13.887
61849W        W21352  28.559  35.502   3.196
61850W        W21353  35.937  41.835   3.376
61851W        W21354  15.748   7.182  13.545
61852W        W21355  32.589   5.870  12.977
61853W        W21356  36.505  29.514  12.511
61854W        W21357  14.651   6.273   4.330
61855W        W21358  26.645  41.470  13.524
61856W        W21359  39.850  37.970   3.368
61857W        W21360   9.255   1.804  13.860
61858W        W21361  35.071   4.776  10.924
61859W        W21362  13.710  41.017   4.777
61860W        W21363  40.353  22.167  12.370
61861W        W21364  35.918  40.355   4.201
61862W        W21365  31.518  27.549   0.255
61863W        W21366  29.550   0.818   0.807
61864W        W21367  15.165  23.112   1.220
61865W        W21368  39.808  11.143   3.252
61866W        W21369  11.758  25.133   0.280
61867W        W21370  15.326   0.892  11.580
61868W        W21371  39.335  19.604   1.913
61869W        W21372  12.679   5.871   1.925
61870W        W21373   0.427  33.111   4.601
61871W        W21374  12.637   6.859   4.230
61872W        W21375  21.215  37.448   3.727
61873W        W21376  31.626   3.225  11.402
61874W        W21377  16.089  15.326   1.212
61875W        W21378  24.186  41.924  14.901
61876W        W21379  42.006  34.902  13.013
61877W        W21380  33.407  26.149  11.118
61878W        W21381   5.412  19.228  11.066
61879W        W21382  26.062  28.976   3.224
61880W        W21383  11.328  13.634  11.021
61881W        W21384  23.683   6.271   2.777
61882W        W21385  26.501  32.565   4.767
61883W        W21386  23.562  35.566   0.804
61884W        W21387  31.047  18.738  12.893
61885W        W21388  40.411  34.096   0.307
61886W        W21389  40.514  24.119   2.774
61887W        W21390  11.171  28.133  14.300
61888W        W21391   9.320  16.747   1.749
61889W        W21392   7.375  36.365  14.488
61890W        W21393  30.085  43.901  12.536
61891W        W21394  22.148  23.134   1.332
61892W        W21395  35.567  15.689   4.219
61893W        W21396  33.607  42.990  12.043
61894W        W21397  39.891   6.395   2.801
61895W        W21398  42.352  32.017   1.430
61896W        W21399  21.026  26.151   1.221
61897W        W21400  14.739  20.730  13.921
61898W        W21401  21.017  44.380   4.129
61899W        W21402   5.376  26.200  13.454
61900W        W21403  37.411  25.037  10.119
61901W        W21404  16.157  12.784  12.850
61902W        W21405  10.823  16.716  13.961
61903W        W21406  26.173  32.038   0.300
61904W        W21407  22.504  31.601  10.949
61905W        W21408  28.953  39.379   3.812
61906W        W21409  21.602  37.440   0.440
61907W        W21410  29.460   3.796  11.067
61908W        W21411  18.597   5.219   2.350
61909W        W21412   7.254  14.161  10.062
61910W        W21413  12.291  37.500   1.872
61911W        W21414  17.167  25.021  13.905
61912W        W21415  28.551  34.571  13.005
61913W        W21416  17.227   6.781   1.448
61914W        W21417  35.023  22.630  11.484
61915W        W21418  23.652  36.422  12.062
61916W        W21419  11.372  22.578   0.293
61917W        W21420  36.421  26.605  10.958
61918W        W21421   6.387  19.580  11.956
61919W        W21422  33.026  19.735   0.424
61920W        W21423  22.106  42.946   4.172
61921W        W21424  16.624  29.521   2.813
61922W        W21425  20.769  38.417   4.647
61923W        W21426  43.309  25.194   3.852
61924W        W21427  30.073   1.922  12.059
61925W        W21428  38.857  35.096  13.481
61926W        W21429  35.095  24.015   2.701
61927W        W21430  23.638  29.659  12.443
61928W        W21431  42.983  44.326   1.401
61929W        W21432  28.604   0.933   3.310
61930W        W21433  33.425  25.481  10.634
61931W        W21434  11.245  37.841   0.450
61932W        W21435  18.703   4.418  14.888
61933W        W21436  19.534  42.386  14.310
61934W        W21437  39.016  24.642  14.853
61935W        W21438  30.597  43.916  11.056
61936W        W21439  11.263   8.725   4.247
61937W        W21440  26.959   5.390   0.326
61938W        W21441  10.851  22.192   2.261
61939W        W21442  38.000   1.739  12.846
61940W        W21443   4.922  36.577  12.065
61941W        W21444   9.862  32.512  11.476
61942W        W21445  19.617  13.275   3.153
61943W        W21446  23.030   7.245   2.395
61944W        W21447  36.593  18.546   1.832
61945W        W21448  35.038  40.963  12.892
61946W        W21449   3.443  18.766   3.376
61947W        W21450  17.279  12.205   0.882
61948W        W21451  35.055  28.132   4.602
61949W        W21452  24.149  29.576  13.498
61950W        W21453  19.135  28.073  10.992
61951W        W21454   7.209   9.765  11.515
61952W        W21455  18.777  33.560  13.879
61953W        W21456   6.743  20.607  12.543
61954W        W21457   3.851  18.552   1.435
61955W        W21458  30.657  12.241  10.632
61956W        W21459   2.269  16.208   3.150
61957W        W21460  12.699  42.441   2.384
61958W        W21461  38.502   9.845  10.423
61959W        W21462  27.486  21.698   2.748
61960W        W21463  28.548  28.966  13.436
61961W        W21464  40.822   6.682  14.953
61962W        W21465  22.065  13.688   4.714
61963W        W21466  37.081  15.271   1.299
61964W        W21467  44.979  36.559   0.292
61965W        W21468  37.370  25.530   4.219
61966W        W21469  13.601  33.028   2.677
61967W        W21470   1.410  41.885  11.043
61968W        W21471  42.396  38.395   3.845
61969W        W21472   8.202  43.373  14.863
61970W        W21473   8.300  38.453  14.505
61971W        W21474  23.998  42.802  14.301
61972W        W21475  16.166  32.543   0.443
61973W        W21476  15.152  34.614  12.421
61974W        W21477   8.767  33.505   1.415
61975W        W21478   3.759  25.538   3.750
61976W        W21479   3.383   7.786   5.314
61977W        W21480  40.997  33.533  11.088
61978W        W21481   1.777  29.475   4.346
61979W        W21482   2.922  43.447  14.862
61980W        W21483  36.948  17.604  12.010
61981W        W21484  16.694   5.390   2.386
61982W        W21485  15.142  44.288  12.867
61983W        W21486   1.462  32.501   0.933
61984W        W21487   8.197  29.552  13.873
61985W        W21488  22.090  14.708  12.869
61986W        W21489  34.527   4.325   0.457
61987W        W21490   2.365  42.295   4.174
61988W        W21491  30.559  22.129   3.243
61989W        W21492   1.393  41.448   1.237
61990W        W21493   3.849   8.376  10.603
61991W        W21494  29.046  41.457   3.234
61992W        W21495  37.980  11.349   1.399
61993W        W21496  38.394   2.933   0.781
61994W        W21497  12.192  39.432  10.514
61995W        W21498   3.459  12.122  13.045
61996W        W21499  44.863   1.483   3.761
61997W        W21500  23.554  39.941   4.193
61998W        W21501  41.951  29.988   0.907
61999W        W21502   7.318  12.818   3.348
62000W        W21503  29.933  11.730  11.119
62001W        W21504   2.865  10.278   0.445
62002W        W21505  21.128  33.555   4.243
62003W        W21506  18.580  25.106  11.883
62004W        W21507   0.826  34.601  13.472
62005W        W21508   9.318   1.934   2.272
62006W        W21509  44.277  31.552   1.773
62007W        W21510  15.794  37.873  11.939
62008W        W21511  35.533   2.294  13.011
62009W        W21512   0.462  11.204   3.323
62010W        W21513  16.295  27.646   4.627
62011W        W21514   9.686  32.555  12.948
62012W        W21515   1.976  34.924   2.712
62013W        W21516   5.765  33.064   3.824
62014W        W21517  15.716  32.897   4.773
62015W        W21518  24.700  15.091   0.254
62016W        W21519  26.182  17.128   1.392
62017W        W21520  43.869   8.378   1.763
62018W        W21521   6.276  14.213   0.269
62019W        W21522  24.000  38.901  12.560
62020W        W21523   5.199  11.744  13.980
62021W        W21524  37.525  20.565  11.934
62022W        W21525  29.091  17.271  11.992
62023W        W21526  15.747  10.756   2.378
62024W        W21527  35.946  21.082   2.409
62025W        W21528   6.277   7.207   1.853
62026W        W21529   4.829  44.865  12.838
62027W        W21530   0.354  10.318  10.955
62028W        W21531  33.879  15.701   1.735
62029W        W21532  14.792  12.271   1.869
62030W        W21533  38.552  42.281   0.825
62031W        W21534  35.063  13.314   0.457
62032W        W21535   2.233  18.264   2.389
62033W        W21536  36.978  11.201   4.836
62034W        W21537   9.355  19.729  13.361
62035W        W21538   5.865  41.918   2.202
62036W        W21539  23.986  31.592  14.934
62037W        W21540  10.232  21.594  14.310
62038W        W21541  12.635   9.217   4.651
62039W        W21542  14.326  31.440   3.680
62040W        W21543  41.804  33.531  10.061
62041W        W21544  12.280  13.695  10.622
62042W        W21545  11.864  11.251  14.424
62043W        W21546  36.369  15.141  12.489
62044W        W21547  10.724  41.459   2.341
62045W        W21548  43.513  37.865   4.659
62046W        W21549  27.053  12.722  14.956
62047W        W21550  15.253  20.078  14.330
62048W        W21551  32.422  40.880   0.960
62049W        W21552  40.027   8.673   1.420
62050W        W21553  11.847   6.285   0.880
62051W        W21554  40.367  27.557   1.414
62052W        W21555  23.603  15.598   0.436
62053W        W21556   8.308  37.993  10.615
62054W        W21557  32.457  23.577   2.411
62055W        W21558  44.312  20.215   4.351
62056W        W21559  31.119  44.876  10.990
62057W        W21560  32.941  33.578  13.011
62058W        W21561   2.928  11.667  12.517
62059W        W21562   6.732  12.759  12.827
62060W        W21563  26.660  37.345  12.039
62061W        W21564   4.715  30.569  14.383
62062W        W21565  39.514  24.606   1.714
62063W        W21566  21.542  38.925  12.455
62064W        W21567  30.132  15.168   0.761
62065W        W21568  29.054  41.934   0.905
62066W        W21569  32.417  34.111   4.243
62067W        W21570  17.750  20.578  11.582
62068W        W21571  32.069  43.393   2.868
62069W        W21572  31.506  39.019  10.121
62070W        W21573  20.581  41.476  14.282
62071W        W21574   1.945  20.073   4.350
62072W        W21575  34.087  11.852  13.898
62073W        W21576   8.688  43.810  12.847
62074W        W21577  35.384  32.512  10.496
62075W        W21578  26.523   5.425   2.231
62076W        W21579  32.503  38.004  12.017
62077W        W21580   2.391   4.296   2.201
62078W        W21581  37.412   4.739   2.399
62079W        W21582  18.077  41.398   4.229
62080W        W21583  38.961   3.401   1.436
62081W        W21584   3.353  34.062   0.261
62082W        W21585   0.433   9.828   4.757
62083W        W21586  36.885  18.188  12.440
62084W        W21587   5.774  32.623   1.930
62085W        W21588  30.563  26.615  13.418
62086W        W21589  17.793  20.032  12.510
62087W        W21590  40.802  37.881  13.433
62088W        W21591  23.227   5.233   0.874
62089W        W21592  43.873  10.673   4.641
62090W        W21593  10.719  32.028   1.780
62091W        W21594  14.731   5.925   0.901
62092W        W21595   9.725  43.924   4.612
62093W        W21596  19.216  15.150   2.848
62094W        W21597  36.087  24.026  14.443
62095W        W21598  17.730   2.452   3.662
62096W        W21599   1.273   2.850  10.952
62097W        W21600  32.495  26.603  11.094
62098W        W21601  21.095  13.821  11.458
62099W        W21602  13.313  34.973  12.416
62100W        W21603  21.592   2.967   1.375
62101W        W21604  23.043  11.629   2.231
62102W        W21605  35.930   3.949  11.396
62103W        W21606   7.286  42.826  13.062
62104W        W21607  30.633  25.576  13.796
62105W        W21608   4.240   9.829  10.910
62106W        W21609   8.373   4.715  11.559
62107W        W21610  15.631   1.469   0.838
62108W        W21611  23.121  29.024  11.931
62109W        W21612  13.259  13.183   3.734
62110W        W21613  40.051   4.909   4.638
62111W        W21614  32.095  28.131  14.355
62112W        W21615  14.189  21.681  13.000
62113W        W21616  20.593  21.628   2.262
62114W        W21617  20.668  20.618  13.872
62115W        W21618  41.806   0.813   9.939
62116W        W21619  33.948  11.167  13.917
62117W        W21620  14.244  31.454  12.073
62118W        W21621  33.930  41.477   1.218
62119W        W21622  10.802  30.114  12.861
62120W        W21623   9.305  25.565   1.254
62121W        W21624  43.767   0.391  13.994
62122W        W21625  16.188  10.691  14.503
62123W        W21626  36.548  22.027   4.271
62124W        W21627  32.964  25.146   3.783
62125W        W21628  20.674  12.764   4.194
62126W        W21629  11.677  37.492   2.187
62127W        W21630  21.630  43.919   4.762
62128W        W21631  13.346  28.572   2.897
62129W        W21632   9.782  35.470  11.021
62130W        W21633  23.007  10.358  11.999
62131W        W21634   7.866   5.427  14.378
62132W        W21635  11.713  33.040  14.917
62133W        W21636  16.171  17.271   2.384
62134W        W21637  12.176  32.412   4.266
62135W        W21638  11.756  44.865   4.815
62136W        W21639  24.199  28.661  11.882
62137W        W21640  37.893  39.920  10.057
62138W        W21641  16.304  44.966   2.763
62139W        W21642  23.700  28.952  13.396
62140W        W21643  22.701  15.123  12.920
62141W        W21644  34.079  11.732  10.587
62142W        W21645   2.337  31.570  11.433
62143W        W21646  10.774  39.887   1.295
62144W        W21647   4.798  26.515  13.828
62145W        W21648  17.255  35.984  13.472
62146W        W21649  40.470  18.773  10.640
62147W        W21650   0.947  10.180  14.780
62148W        W21651  44.348   1.778  11.857
62149W        W21652   7.815   3.279   5.089
62150W        W21653  19.584   2.763  14.340
62151W        W21654  27.452  42.478  14.433
62152W        W21655  21.596  18.273  11.500
62153W        W21656  44.409  39.026  13.864
62154W        W21657  15.139  20.697   0.916
62155W        W21658  41.792  21.023   0.962
62156W        W21659  14.268   5.362   4.322
62157W        W21660  21.181  23.525  12.562
62158W        W21661  18.289  37.545  10.546
62159W        W21662   9.849  21.113   1.253
62160W        W21663  25.124  36.391  10.959
62161W        W21664  16.188  30.054  11.034
62162W        W21665  29.014  23.680   1.885
62163W        W21666  29.625   8.168  10.547
62164W        W21667   0.438  32.966  10.897
62165W        W21668  36.885  23.116  13.901
62166W        W21669   2.369  29.966   1.777
62167W        W21670  28.081  26.648  13.963
62168W        W21671  21.582  21.619  11.022
62169W        W21672  29.108  24.485   1.306
62170W        W21673   5.903  42.863  11.929
62171W        W21674   4.353   0.419   3.270
62172W        W21675  18.572  26.679  13.972
62173W        W21676   4.818  11.694   5.144
62174W        W21677   4.886  38.387   4.182
62175W        W21678  43.497  28.951  13.058
62176W        W21679  12.297  40.340  11.474
62177W        W21680  39.903  40.839   3.675
62178W        W21681  21.089   3.216   3.831
62179W        W21682  22.613  12.635   0.760
62180W        W21683  29.963  19.601  12.862
62181W        W21684  18.754  27.527  14.325
62182W        W21685  25.170  40.025   3.221
62183W        W21686  25.565  33.500  14.316
62184W        W21687  20.764  10.672   2.678
62185W        W21688  15.238  39.940   1.236
62186W        W21689  17.117  12.351   3.854
62187W        W21690  44.761  42.930   0.379
62188W        W21691  41.945  34.605   0.863
62189W        W21692  13.131  35.544  12.438
62190W        W21693  42.314  43.012   3.154
62191W        W21694   6.267  38.327   3.650
62192W        W21695  44.427   6.350   2.852
62193W        W21696  24.121  39.493   1.887
62194W        W21697  22.061  33.906   3.169
62195W        W21698  31.553  18.787  10.529
62196W        W21699  15.722  15.703   4.692
62197W        W21700  42.800   0.919  12.863
62198W        W21701  23.088  42.344  14.795
62199W        W21702  42.858  15.604   1.777
62200W        W21703  16.677  23.010   2.807
62201W        W21704  11.294  37.082   1.249
62202W        W21705  11.134  41.980  14.925
62203W        W21706  11.254   1.841  14.876
62204W        W21707  24.211  26.464  10.063
62205W        W21708  18.079  30.518   1.438
62206W        W21709  40.977  38.507   1.443
62207W        W21710   2.313  30.543  10.426
62208W        W21711  20.040  25.649  12.019
62209W        W21712  21.593   8.303   0.950
62210W        W21713  28.636  14.829  14.439
62211W        W21714  29.981  43.497   0.287
62212W        W21715  36.882  11.818   4.133
62213W        W21716  20.643  18.690  10.575
62214W        W21717   1.385   1.952  14.446
62215W        W21718  27.121  19.244   3.632
62216W        W21719  26.068  24.095  10.568
62217W        W21720  33.576  29.493   4.117
62218W        W21721   8.312  29.153  13.936
62219W        W21722   4.812  16.274   0.321
62220W        W21723  11.643   4.397  14.482
62221W        W21724  33.014   8.376  11.006
62222W        W21725  10.825  29.629   0.457
62223W        W21726  41.043  24.687  11.564
62224W        W21727  15.736  25.020   3.733
62225W        W21728  17.590  14.226  14.836
62226W        W21729  25.138  20.767  12.900
62227W        W21730  33.038  25.590  11.396
62228W        W21731  28.615  23.678  11.128
62229W        W21732  41.855  33.545  14.758
62230W        W21733   5.699  25.963  13.989
62231W        W21734  17.119  12.125  14.397
62232W        W21735   1.731  14.099  11.037
62233W        W21736   9.325  40.921   4.314
62234W        W21737   1.977  31.576   4.217
62235W        W21738  34.039  31.010   3.775
62236W        W21739  35.029  34.881   2.871
62237W        W21740  23.564  12.842  14.957
62238W        W21741  38.521   1.477   2.385
62239W        W21742  43.785   0.846   3.869
62240W        W21743  13.201  29.105   1.912
62241W        W21744  42.440  37.897  11.941
62242W        W21745   9.150   7.723  13.961
62243W        W21746  44.382  18.161  12.976
62244W        W21747  25.205  25.474   4.784
62245W        W21748  25.505   2.457  12.416
62246W        W21749  44.919  13.130   3.268
62247W        W21750   0.480  32.065  13.957
62248W        W21751  17.160   9.374  10.640
62249W        W21752  30.937  24.542  13.906
62250W        W21753  28.171  20.551   0.458
62251W        W21754  18.193  30.460   1.896
62252W        W21755  42.012  14.264   0.265
62253W        W21756  29.614   7.668  12.455
62254W        W21757  16.780  39.888   2.312
62255W        W21758   0.321  11.659  12.080
62256W        W21759   9.229  41.332  12.076
62257W        W21760  11.696  37.067   5.098
62258W        W21761  10.252  27.464   0.474
62259W        W21762  42.521   7.220  11.604
62260W        W21763  21.019  35.944  13.819
62261W        W21764   5.737  11.826  10.511
62262W        W21765  17.212  34.994  10.543
62263W        W21766  25.152   9.275  14.991
62264W        W21767  36.879  15.797   0.289
62265W        W21768  20.043  29.975   0.390
62266W        W21769  36.026  10.692  11.438
62267W        W21770   5.394  40.855  10.478
62268W        W21771  40.475  41.800  14.812
62269W        W21772  28.940  29.447  12.015
62270W        W21773  28.481  12.233  13.311
62271W        W21774  43.949  22.065   9.977
62272W        W21775   0.911  22.709  14.814
62273W        W21776  43.497  34.522  11.970
62274W        W21777  15.694  38.541   3.212
62275W        W21778  32.967  27.178   0.831
62276W        W21779  22.043  35.019  12.921
62277W        W21780  28.486  27.979   2.673
62278W        W21781  40.501  26.656  11.015
62279W        W21782  27.459  33.382  12.497
62280W        W21783   8.173   6.862  14.846
62281W        W21784  43.515  13.741   2.759
62282W        W21785  26.517  21.579  12.347
62283W        W21786   6.847  23.059   1.719
62284W        W21787  28.668  21.575   2.273
62285W        W21788  31.965  22.112  13.824
62286W        W21789   8.725   3.409   5.120
62287W        W21790  25.572   2.333   2.819
62288W        W21791  34.421  33.001   1.884
62289W        W21792   4.277  30.935  10.549
62290W        W21793  42.474   8.319  12.367
62291W        W21794  16.646  36.543  13.452
62292W        W21795  33.109  12.821   1.212
62293W        W21796  27.941  37.525   3.858
62294W        W21797   4.850  35.553  12.415
62295W        W21798  23.015  25.698   4.794
62296W        W21799  39.909  21.022   0.898
62297W        W21800  32.053  34.472  13.473
62298W        W21801  39.928  41.298   1.360
62299W        W21802  15.707  14.112  14.951
62300W        W21803   8.344   1.954  12.402
62301W        W21804   4.441   8.764  13.333
62302W        W21805  20.607  13.273  14.461
62303W        W21806   9.875  16.255  13.397
62304W        W21807  35.096   0.763   3.373
62305W        W21808  44.844  25.215   4.225
62306W        W21809  11.639   4.916   1.740
62307W        W21810  15.306   9.701  13.544
62308W        W21811  34.586   5.400   4.343
62309W        W21812   4.738   9.182  12.468
62310W        W21813  33.626  33.613   1.707
62311W        W21814  24.673  26.973   4.838
62312W        W21815  36.979  16.163   1.299
62313W        W21816  36.381  37.907   0.961
62314W        W21817   1.356  11.333  12.505
62315W        W21818  33.116  24.646  12.424
62316W        W21819  38.479   3.351  14.887
62317W        W21820  25.700  34.421  13.435
62318W        W21821   9.664  44.318  11.025
62319W        W21822   9.187   5.370  12.918
62320W        W21823  40.810  36.851  14.939
62321W        W21824  22.227  34.453   2.825
62322W        W21825  44.858  34.492  13.369
62323W        W21826  11.714  34.903  14.966
62324W        W21827  25.636  16.760   3.705
62325W        W21828  12.323  33.508  14.491
62326W        W21829   2.260  37.546  13.062
62327W        W21830  43.429  32.893  13.485
62328W        W21831   9.724  25.214  11.499
62329W        W21832  40.005   9.306   1.280
62330W        W21833  27.537  28.510  13.059
62331W        W21834  32.890   0.409   1.708
62332W        W21835   4.707  11.291  10.571
62333W        W21836   0.437  16.579  11.414
62334W        W21837   4.296  28.124  14.004
62335W        W21838  36.591   9.347  11.007
62336W        W21839   1.407  22.065  12.913
62337W        W21840  32.571  22.046   2.258
62338W        W21841  27.562  41.861  13.982
62339W        W21842  22.109  38.000  10.507
62340W        W21843  33.550  26.542   0.361
62341W        W21844  29.425   2.429   2.712
62342W        W21845  28.444  13.738  14.906
62343W        W21846  36.003  18.081   3.372
62344W        W21847   6.923  25.065  10.623
62345W        W21848  44.952  35.370   4.260
62346W        W21849  34.006   2.936   4.272
62347W        W21850  40.483   0.378  14.428
62348W        W21851  36.078  12.618   0.822
62349W        W21852  10.365  44.956  14.368
62350W        W21853  21.200  24.041  13.403
62351W        W21854  39.958  44.394  14.300
62352W        W21855   6.846   9.840   3.645
62353W        W21856   3.239  28.550   2.393
62354W        W21857  25.194  37.460  12.485
62355W        W21858  30.934  44.354   4.269
62356W        W21859  32.436   6.761   2.416
62357W        W21860   7.235   2.946   1.340
62358W        W21861   0.969  42.523  11.605
62359W        W21862  38.396  14.319   4.710
62360W        W21863  38.892  17.287   0.335
62361W        W21864  42.403  44.756   3.334
62362W        W21865  21.191  23.708  10.100
62363W        W21866  26.074  11.141   3.292
62364W        W21867  39.822  19.657   0.465
62365W        W21868  23.703   0.977   1.357
62366W        W21869  26.562  36.353   3.165
62367W        W21870  36.569  39.016   0.846
62368W        W21871  16.575  13.323   1.393
62369W        W21872  31.522  17.738  13.875
62370W        W21873  44.860  17.631   1.751
62371W        W21874  29.074  19.573  14.465
62372W        W21875   9.790  20.584   2.301
62373W        W21876  32.495  21.706  10.492
62374W        W21877  43.401  27.518   4.222
62375W        W21878  37.862  39.374   4.253
62376W        W21879   8.392  26.005   3.660
62377W        W21880   6.798  11.780   4.119
62378W        W21881  20.755  15.802  12.963
62379W        W21882  21.520  28.450  13.964
62380W        W21883  44.828  17.145  14.290
62381W        W21884  33.597   5.779  10.436
62382W        W21885  35.968   7.877   4.179
62383W        W21886  37.895  27.142   1.382
62384W        W21887  15.653   0.423   2.281
62385W        W21888  28.968   4.352  14.759
62386W        W21889  21.162   8.732  11.006
62387W        W21890  22.123   6.214  12.052
62388W        W21891   9.314  20.230  10.411
62389W        W21892  25.990  12.182   1.286
62390W        W21893  24.503  11.307  12.495
62391W        W21894   9.305  23.567  10.607
62392W        W21895  16.241  13.244  14.332
62393W        W21896  29.980  31.903   1.393
62394W        W21897  36.581  26.523  12.060
62395W        W21898   4.705   9.177  11.088
62396W        W21899  21.734  30.562  12.470
62397W        W21900  27.591  19.562  11.858
62398W        W21901  31.421  31.959   0.913
62399W        W21902   6.694  18.620  11.032
62400W        W21903  38.553  20.747  10.930
62401W        W21904  33.886   8.849   4.259
62402W        W21905  32.098  38.437   1.801
62403W        W21906  26.460  11.739   2.297
62404W        W21907  12.806  16.252   0.342
62405W        W21908  23.662  19.224  12.976
62406W        W21909  29.044   9.875  11.430
62407W        W21910  13.200  38.923  12.483
62408W        W21911  10.177   7.888  12.474
62409W        W21912  23.120  23.105  11.530
62410W        W21913  20.144   9.742  12.846
62411W        W21914  23.676  34.615   1.865
62412W        W21915   6.287  28.650  14.472
62413W        W21916  24.041  10.804   2.703
62414W        W21917  18.113  33.447   2.822
62415W        W21918  27.951  30.501   0.314
62416W        W21919   4.908   2.281   5.143
62417W        W21920  11.800  29.958   1.268
62418W        W21921  26.535   4.854  12.539
62419W        W21922  42.839  42.351  10.488
62420W        W21923  43.017  42.799  10.427
62421W        W21924  13.259  38.487   2.309
62422W        W21925  17.139  38.829  11.492
62423W        W21926   0.829  16.610   1.928
62424W        W21927  11.282   3.713  13.379
62425W        W21928  20.696  20.057   3.839
62426W        W21929  41.850   2.786  13.495
62427W        W21930  25.133  21.112   1.279
62428W        W21931  39.065  27.659   2.198
62429W        W21932  41.883   7.722  12.863
62430W        W21933  36.489  33.532   2.767
62431W        W21934  15.192  32.492  10.583
62432W        W21935  41.793   0.319   2.361
62433W        W21936  32.979  38.951  14.910
62434W        W21937   4.935   1.248  11.886
62435W        W21938  39.537  42.909  13.850
62436W        W21939  35.549   3.747   0.734
62437W        W21940  37.577  33.529  13.059
62438W        W21941   6.679  20.086  11.973
62439W        W21942  34.598  25.587  10.982
62440W        W21943  25.148  39.521  14.024
62441W        W21944  26.678  36.400  14.452
62442W        W21945  27.150  31.578   1.905
62443W        W21946  31.613   5.745  10.921
62444W        W21947  12.136  25.560  12.529
62445W        W21948  40.303  20.173   3.832
62446W        W21949  28.468  16.730  10.638
62447W        W21950  26.069  11.146  11.552
62448W        W21951  39.940   9.757   1.336
62449W        W21952  26.078  34.057  13.344
62450W        W21953  15.595  11.337   1.362
62451W        W21954   4.915  23.600   1.722
62452W        W21955  18.211  34.412  11.429
62453W        W21956  20.160  13.796   1.338
62454W        W21957  23.152  30.025   1.368
62455W        W21958  32.043  32.105  10.005
62456W        W21959  12.855  22.501  12.487
62457W        W21960  23.191  16.290  11.386
62458W        W21961  31.468  22.146  12.951
62459W        W21962   9.231   4.253   4.709
62460W        W21963  12.764  16.658  11.414
62461W        W21964  19.672  33.404  10.610
62462W        W21965  37.019  33.073  13.876
62463W        W21966  30.580  21.639   2.262
62464W        W21967  37.419  32.437   1.768
62465W        W21968   3.786   0.346   0.802
62466W        W21969  26.128   4.206   3.214
62467W        W21970   0.334  27.487  14.440
62468W        W21971  10.369  27.554  13.009
62469W        W21972  36.098  21.529   3.784
62470W        W21973  29.171  35.918  12.059
62471W        W21974  27.588  14.185  13.346
62472W        W21975  35.581  20.036  13.034
62473W        W21976  32.611   2.740  10.999
62474W        W21977   9.886  28.982   1.345
62475W        W21978  26.658  33.028   4.724
62476W        W21979  40.028  17.582  12.052
62477W        W21980  38.415  16.592  11.408
62478W        W21981  37.859  21.573  14.418
62479W        W21982   1.809  26.111   9.991
62480W        W21983   2.821  30.628  10.599
62481W        W21984  20.074  10.809   4.766
62482W        W21985  42.356  23.697  14.773
62483W        W21986  43.833  27.586  11.037
62484W        W21987  41.439  37.997  13.994
62485W        W21988  30.947  17.714  12.393
62486W        W21989  20.263  32.633  13.991
62487W        W21990  20.708   8.872   2.298
62488W        W21991  36.393  35.559  12.389
62489W        W21992  26.591  36.453  12.992
62490W        W21993  35.053  29.116  14.955
62491W        W21994   6.312  17.123  10.909
62492W        W21995   8.268  29.157  12.513
62493W        W21996   4.882  33.004   1.821
62494W        W21997  24.659  24.127   3.329
62495W        W21998  16.658  11.188  12.077
62496W        W21999  17.263   2.885  13.350
62497W        W22000  30.543  39.022   0.247
62498W        W22001  21.677  34.884   2.812
62499W        W22002  31.631  36.913   1.714
62500W        W22003  21.629  25.150   4.812
62501W        W22004  35.359  19.170   3.659
62502W        W22005  39.053  44.823  13.366
62503W        W22006  36.090  17.307   0.778
62504W        W22007  20.209  16.239   1.830
62505W        W22008  43.811  18.585  10.605
62506W        W22009  19.076  23.027  12.552
62507W        W22010  42.923  11.629   2.663
62508W        W22011  22.061   8.729   1.419
62509W        W22012  35.414  32.094  11.118
62510W        W22013  44.497   1.475  14.491
62511W        W22014  34.591  17.124  11.901
62512W        W22015  23.558  21.250  14.005
62513W        W22016   6.426  35.891  10.558
62514W        W22017  29.510  26.088   5.275
62515W        W22018  20.526   2.251   4.219
62516W        W22019  30.477  40.538   3.315
62517W        W22020  20.575  24.166   4.768
62518W        W22021  10.823  34.373  13.360
62519W        W22022  21.143  31.024   1.223
62520W        W22023  36.937  38.434  12.366
62521W        W22024   1.341   4.261   0.786
62522W        W22025  12.293   1.791   1.933
62523W        W22026   5.241   4.258   3.830
62524W        W22027   9.202  12.775   1.313
62525W        W22028  38.515  44.791  11.379
62526W        W22029  17.740   7.831  14.838
62527W        W22030   9.376   5.281  10.474
62528W        W22031   7.802  38.968   0.819
62529W        W22032  14.116  43.857  12.526
62530W        W22033   0.371  28.643   1.328
62531W        W22034  44.421  18.599  11.006
62532W        W22035  16.765  27.501  14.843
62533W        W22036  36.585   6.699  14.032
62534W        W22037  17.761  14.818  11.943
62535W        W22038  41.500   0.435  14.006
62536W        W22039   8.708  41.858  12.511
62537W        W22040   3.858  40.396  14.824
62538W        W22041  39.540  25.500   0.939
62539W        W22042  24.051  25.625   0.856
62540W        W22043  25.484   6.677   0.844
62541W        W22044  15.233   0.287   2.362
62542W        W22045  38.553  35.523   1.805
62543W        W22046   4.724   6.381   1.858
62544W        W22047  16.124  41.803  13.854
62545W        W22048  30.960  12.838  10.022
62546W        W22049  28.091   8.344  12.471
62547W        W22050  29.066  18.152   2.764
62548W        W22051  23.234  33.975   0.325
62549W        W22052  38.509  44.783   0.793
62550W        W22053  42.496  30.922   0.362
62551W        W22054  16.283  10.250   3.347
62552W        W22055  20.045   4.833  11.954
62553W        W22056  42.459  37.980   4.723
62554W        W22057  15.671  23.121  10.628
62555W        W22058  40.970  28.007   3.157
62556W        W22059  27.610  44.866  12.051
62557W        W22060  15.642  30.438   2.343
62558W        W22061  34.454  33.480  10.497
62559W        W22062  40.392   5.219   2.665
62560W        W22063  19.732  38.841  11.596
62561W        W22064  31.042  16.783   3.196
62562W        W22065  18.282  23.696   0.775
62563W        W22066   0.313  25.519  13.380
62564W        W22067  27.140  26.495   1.240
62565W        W22068   4.423  44.263   0.435
62566W        W22069  37.886  20.051  13.814
62567W        W22070  40.858   5.346   3.297
62568W        W22071   7.776  27.179   2.661
62569W        W22072  39.025  43.766   1.289
62570W        W22073  20.236  44.902  13.961
62571W        W22074  27.040  11.785   1.413
62572W        W22075  37.859  12.690  14.314
62573W        W22076  30.030  21.664   3.797
62574W        W22077   1.736   4.222   2.773
62575W        W22078   1.262   6.413   1.210
62576W        W22079  29.614  13.349  13.002
62577W        W22080  38.525  37.896   2.760
62578W        W22081  41.961  11.851   3.751
62579W        W22082   5.782  11.656  12.900
62580W        W22083  18.572  12.662   4.175
62581W        W22084   1.927  32.536  14.908
62582W        W22085   4.847  21.557   4.298
62583W        W22086  32.482  15.264   0.735
62584W        W22087  32.921  17.248  13.851
62585W        W22088  18.579  38.887  10.964
62586W        W22089  34.416   5.878  10.465
62587W        W22090  25.696  18.601   3.343
62588W        W22091  17.662   4.216  14.424
62589W        W22092  34.021  19.535   2.719
62590W        W22093  22.522  35.904  12.942
62591W        W22094  10.361  39.992  12.392
62592W        W22095  32.401  33.882  12.909
62593W        W22096  32.127  10.278   9.953
62594W        W22097  37.004  14.304   4.273
62595W        W22098   8.191  16.076  12.948
62596W        W22099  21.174   1.871   2.793
62597W        W22100  41.827  40.498   3.321
62598W        W22101  35.961  21.708   2.790
62599W        W22102  15.759  11.198   4.762
62600W        W22103  16.236   5.331  12.972
62601W        W22104  33.086  28.100  14.905
62602W        W22105   7.903  30.091   4.705
62603W        W22106  10.875   4.343   3.337
62604W        W22107  30.623  17.178   0.824
62605W        W22108  39.845  20.094   1.373
62606W        W22109   7.386  24.105  12.045
62607W        W22110  19.106  31.420  12.057
62608W        W22111   7.171  14.293  14.940
62609W        W22112  35.406  16.728  11.509
62610W        W22113  38.031   7.197   0.437
62611W        W22114  37.972  17.716  12.947
62612W        W22115  41.459   6.827  11.098
62613W        W22116  17.604  39.921  10.425
62614W        W22117   2.802  20.654   9.491
62615W        W22118  12.711   0.422   2.843
62616W        W22119  40.884  11.139  13.453
62617W        W22120  15.628   7.874  12.381
62618W        W22121  10.260  31.934  14.820
62619W        W22122  33.965  33.549  13.821
62620W        W22123  36.501  37.467  11.566
62621W        W22124  25.999  44.291   1.703
62622W        W22125  17.686  28.125  14.793
62623W        W22126   5.804   9.350  13.921
62624W        W22127  31.580   8.390  13.876
62625W        W22128   7.236  25.510   4.655
62626W        W22129   7.769  32.629   2.348
62627W        W22130  42.002  41.999   3.720
62628W        W22131   0.977  24.511   0.266
62629W        W22132  39.354  38.368  13.535
62630W        W22133   4.837  20.143  11.560
62631W        W22134   6.896   5.915   3.716
62632W        W22135  44.948  38.415  12.024
62633W        W22136  23.021   9.336   2.270
62634W        W22137  28.550  12.176  12.002
62635W        W22138  24.655  26.015   2.889
62636W        W22139  15.227  10.855   1.776
62637W        W22140  22.161  10.141  12.984
62638W        W22141  34.523  36.002   3.839
62639W        W22142  22.544  25.087  12.410
62640W        W22143  27.176  30.937  13.004
62641W        W22144   8.842  10.324  12.543
62642W        W22145  19.130  22.069   4.172
62643W        W22146  36.437  36.582   1.372
62644W        W22147  43.789  27.991   0.907
62645W        W22148   2.442   1.451   2.277
62646W        W22149  23.199  10.144   4.350
62647W        W22150  29.522  28.585   1.771
62648W        W22151   9.881  15.790   2.666
62649W        W22152  13.273  40.388   0.963
62650W        W22153  26.463  43.421   4.152
62651W        W22154  29.624  12.253  14.340
62652W        W22155  30.547   5.754  14.972
62653W        W22156  14.340  24.060  11.064
62654W        W22157   6.735  25.526  11.478
62655W        W22158  10.285  27.572  14.912
62656W        W22159   1.743   4.805  14.385
62657W        W22160   6.385  26.166  13.466
62658W        W22161  31.095  15.806  14.906
62659W        W22162   1.481  29.620   0.956
62660W        W22163   3.712   2.391  11.974
62661W        W22164  21.722  36.841   4.252
62662W        W22165  10.256  35.979   1.441
62663W        W22166  24.652  27.450   4.763
62664W        W22167  16.154  38.335   3.639
62665W        W22168  18.562  30.003  14.460
62666W        W22169  20.615   6.775  11.589
62667W        W22170  44.782  44.363   4.329
62668W        W22171  27.646   8.818   3.275
62669W        W22172  34.430  44.918   1.224
62670W        W22173  29.156  33.900   2.753
62671W        W22174  11.341  10.218   4.203
62672W        W22175   5.900  14.136  12.915
62673W        W22176  40.367  24.512   3.177
62674W        W22177  42.784  27.945   2.310
62675W        W22178  16.296  26.108   4.612
62676W        W22179  23.599  24.152  14.335
62677W        W22180  19.261  12.645  14.315
62678W        W22181  44.804  16.758  10.482
62679W        W22182  34.996  27.546  12.915
62680W        W22183  44.840  43.934  14.324
62681W        W22184  37.395  16.104   0.337
62682W        W22185  40.911  43.924   4.613
62683W        W22186   3.721   4.724  12.365
62684W        W22187  18.768   2.804   4.124
62685W        W22188   2.233   7.701  14.880
62686W        W22189  43.335   9.660  13.522
62687W        W22190  25.692  14.616   3.270
62688W        W22191  13.178   0.808   4.347
62689W        W22192   2.954   0.904  14.008
62690W        W22193  11.809  35.427   3.285
62691W        W22194  27.449  37.447   2.284
62692W        W22195   2.966  30.438   5.742
62693W        W22196  11.822  26.014   3.730
62694W        W22197  26.179  37.905  11.916
62695W        W22198  31.521  40.342   2.309
62696W        W22199  11.174  31.453   3.642
62697W        W22200  20.696  13.749   2.693
62698W        W22201  17.580  24.009  14.313
62699W        W22202  44.787   8.825  13.802
62700W        W22203  36.451  39.894   0.914
62701W        W22204  37.361   0.434   2.730
62702W        W22205  39.015  30.913   3.734
62703W        W22206  41.413  12.700  10.432
62704W        W22207  19.769  24.554   2.314
62705W        W22208  26.615  19.182  12.894
62706W        W22209  30.080  38.960   3.271
62707W        W22210   5.732  14.293  12.369
62708W        W22211   3.840  34.863  14.423
62709W        W22212  19.668   7.788   4.603
62710W        W22213   3.376   5.869  14.276
62711W        W22214  41.309  17.269   4.281
62712W        W22215  16.149  40.954  14.842
62713W        W22216  33.933   0.799   0.393
62714W        W22217  26.998  25.141  13.470
62715W        W22218  44.979  44.861  11.568
62716W        W22219  26.605   9.698  11.544
62717W        W22220   0.754   6.336  11.372
62718W        W22221  18.585  35.573   1.289
62719W        W22222  11.253  44.948   3.153
62720W        W22223  32.980  13.822   5.741
62721W        W22224  33.903  39.894   2.339
62722W        W22225  19.056   7.745  13.541
62723W        W22226  44.367  20.641   1.226
62724W        W22227   8.698   7.709  14.308
62725W        W22228  39.448  40.532   3.788
62726W        W22229  17.620  43.821   1.312
62727W        W22230  34.900  31.489  10.983
62728W        W22231  10.336  21.120   3.673
62729W        W22232  16.700  21.542  10.905
62730W        W22233  36.404  31.066  11.036
62731W        W22234  13.659  28.515   0.845
62732W        W22235  41.850  23.101   3.288
62733W        W22236  43.776  30.979  13.322
62734W        W22237  27.184  17.239   1.324
62735W        W22238  15.142   1.901  14.774
62736W        W22239   2.324  42.958   1.767
62737W        W22240  43.393   6.882  14.481
62738W        W22241  22.147  14.612   2.280
62739W        W22242  15.301  34.499  14.445
62740W        W22243   4.420  22.056  11.477
62741W        W22244  33.052  16.271   2.841
62742W        W22245  43.368  36.023  10.473
62743W        W22246  43.434  21.259  12.346
62744W        W22247  42.463  38.457  13.822
62745W        W22248  26.613  16.189   3.219
62746W        W22249  31.515  17.137   4.241
62747W        W22250  41.304  18.750   4.237
62748W        W22251  23.555   4.300  13.332
62749W        W22252   3.911   5.871   4.290
62750W        W22253  13.151  26.047  10.606
62751W        W22254  38.851   7.258   1.891
62752W        W22255  40.394  18.748   1.269
62753W        W22256   4.208   3.310   4.198
62754W        W22257  42.016  33.411   3.277
62755W        W22258  15.718   6.273   3.787
62756W        W22259  23.013  16.623  12.878
62757W        W22260  27.606   2.369   9.947
62758W        W22261   7.745  41.956  11.999
62759W        W22262   6.730  10.147  11.898
62760W        W22263  25.054   0.305  11.890
62761W        W22264  26.074  27.509  12.880
62762W        W22265  37.427   4.221  13.972
62763W        W22266  44.343  14.139  13.872
62764W        W22267  23.662  13.268   4.824
62765W        W22268  26.970  42.978   1.715
62766W        W22269   0.269  24.165  10.610
62767W        W22270  38.856  38.434  11.057
62768W        W22271  22.550  44.974   3.798
62769W        W22272   7.201   4.210  12.845
62770W        W22273  23.722  16.733   4.196
62771W        W22274   6.795  23.143   1.332
62772W        W22275  18.597   0.853  14.798
62773W        W22276  10.743  40.471   4.166
62774W        W22277   4.827  14.751   2.352
62775W        W22278   3.225  44.816   3.839
62776W        W22279  10.144   2.862  10.501
62777W        W22280   2.900  20.729   1.248
62778W        W22281  30.444  12.137   3.203
62779W        W22282   1.780  37.904   3.788
62780W        W22283  32.474   5.322   1.818
62781W        W22284   1.965   2.905   1.368
62782W        W22285  39.528   3.814   3.220
62783W        W22286  11.639  40.851  14.923
62784W        W22287  38.016  17.767  11.551
62785W        W22288  39.332  26.134  13.508
62786W        W22289  14.593   1.348  14.939
62787W        W22290  31.900  15.259   1.226
62788W        W22291  23.561  36.485   4.166
62789W        W22292  33.030  22.608  10.426
62790W        W22293  27.115  32.493   2.203
62791W        W22294  30.455  40.807   3.810
62792W        W22295  44.321   5.747   4.696
62793W        W22296  41.966  40.524  13.934
62794W        W22297  25.134  43.422   2.685
62795W        W22298  44.923   5.805   1.782
62796W        W22299  29.979  36.860  14.429
62797W        W22300  26.077  15.286   1.220
62798W        W22301  38.925  12.721  13.497
62799W        W22302  37.417  24.063   4.660
62800W        W22303  40.806  27.974  12.531
62801W        W22304  26.556  19.254  14.776
62802W        W22305  24.141  37.388  12.345
62803W        W22306  38.533  37.546   0.255
62804W        W22307  11.168  31.573   4.280
62805W        W22308  13.243  41.895  12.922
62806W        W22309   5.799  29.545   1.699
62807W        W22310  43.004  43.365  13.356
62808W        W22311  18.753   8.800   0.871
62809W        W22312   5.324   5.386  12.578
62810W        W22313  21.078  39.971   1.780
62811W        W22314   2.799   6.302  11.089
62812W        W22315  37.341  17.683  10.405
62813W        W22316  19.201  37.409  11.008
62814W        W22317  23.662  26.061   3.676
62815W        W22318  15.668  32.133  10.603
62816W        W22319  23.113  20.178  12.974
62817W        W22320  37.388   2.949   0.246
62818W        W22321  34.525  39.399  10.440
62819W        W22322  36.522  15.746  10.583
62820W        W22323  28.656  34.033  13.364
62821W        W22324  13.676  28.118  11.481
62822W        W22325  39.988  28.085  14.368
62823W        W22326  11.669  21.573   2.290
62824W        W22327  42.864  15.087   2.802
62825W        W22328  16.145  37.960  13.967
62826W        W22329  21.220  16.089   4.315
62827W        W22330  26.666   1.869   3.729
62828W        W22331  26.516  38.463   0.291
62829W        W22332  23.565  12.642   4.152
62830W        W22333   3.930   4.702   2.835
62831W        W22334  32.133  24.014  12.399
62832W        W22335  33.531  12.240   0.272
62833W        W22336  15.642  24.520   3.249
62834W        W22337  35.029  43.980  13.338
62835W        W22338  19.544  15.785   0.375
62836W        W22339  33.404   7.725  11.980
62837W        W22340  35.379   8.706  14.392
62838W        W22341  42.433   0.288  13.341
62839W        W22342  37.499  44.904  11.466
62840W        W22343  34.955  37.916  13.958
62841W        W22344  31.997  19.123  10.457
62842W        W22345  20.164  35.966  10.629
62843W        W22346  39.427  22.182  11.916
62844W        W22347   1.741   5.783  14.485
62845W        W22348  13.834   7.836  10.510
62846W        W22349  33.497  18.277  11.880
62847W        W22350   3.831  20.253   3.860
62848W        W22351  33.926  42.505  10.531
62849W        W22352  29.089   9.260   4.697
62850W        W22353  22.144  12.322  13.879
62851W        W22354  44.929   4.883   0.901
62852W        W22355   8.730  44.904   2.276
62853W        W22356  23.493  44.804   5.714
62854W        W22357   3.716  42.792  11.884
62855W        W22358  33.571  23.716  13.394
62856W        W22359  22.174  19.593   1.806
62857W        W22360  22.201   6.331   2.664
62858W        W22361  25.160  42.362  13.051
62859W        W22362  40.549   4.726   0.745
62860W        W22363  38.859  40.363   4.649
62861W        W22364  29.468  15.625  12.010
62862W        W22365  13.775  35.594  11.006
62863W        W22366   2.290  13.349   0.767
62864W        W22367   6.344  32.004   4.177
62865W        W22368  22.169  31.996   4.139
62866W        W22369  28.136  12.184   1.231
62867W        W22370  28.665   8.346  11.449
62868W        W22371  44.335  24.610  13.427
62869W        W22372  44.758  30.074  13.810
62870W        W22373  41.293  13.613   4.730
62871W        W22374  18.163  34.881   4.189
62872W        W22375  31.487   9.367   3.687
62873W        W22376  10.734  14.617  10.995
62874W        W22377  43.922  40.976   0.761
62875W        W22378  15.708  26.144  10.631
62876W        W22379  25.096  17.799   2.239
62877W        W22380  14.657  37.470  11.122
62878W        W22381  37.053   5.839   1.791
62879W        W22382  10.169  29.564   3.266
62880W        W22383  10.799  24.603  14.952
62881W        W22384  40.023   1.842   4.248
62882W        W22385  11.816  39.548  10.551
62883W        W22386  43.504  34.578   1.217
62884W        W22387   5.881  43.800  14.490
62885W        W22388  27.472  44.429   2.385
62886W        W22389  22.636  14.188   2.207
62887W        W22390  23.221  12.185   4.279
62888W        W22391  21.238  21.127  10.426
62889W        W22392   1.307   4.916   1.734
62890W        W22393  27.471  26.142   1.404
62891W        W22394  35.923   7.224   1.329
62892W        W22395  11.835  22.175  12.920
62893W        W22396  43.019  23.653  14.397
62894W        W22397  11.749  30.992   0.322
62895W        W22398   3.745   4.875   0.477
62896W        W22399   4.802   5.240  12.569
62897W        W22400  33.890  16.687  11.870
62898W        W22401  41.468  21.230   4.675
62899W        W22402  28.147  41.396   9.926
62900W        W22403  37.017  39.506   0.818
62901W        W22404  32.611  33.548  12.404
62902W        W22405  24.706  29.520   3.852
62903W        W22406  21.528  36.095  11.471
62904W        W22407  11.136   5.223   2.320
62905W        W22408  15.245  35.483  11.381
62906W        W22409   6.355  39.042  13.310
62907W        W22410   3.459  43.816  10.918
62908W        W22411  13.214  22.101  11.407
62909W        W22412  35.596  11.367  12.901
62910W        W22413  15.692  35.601   1.856
62911W        W22414  29.589  20.138   1.240
62912W        W22415   1.466  26.000  11.096
62913W        W22416  43.452  44.406  14.942
62914W        W22417  32.932   0.801  10.922
62915W        W22418   8.166  34.896   1.908
62916W        W22419   8.658   1.949   1.729
62917W        W22420  21.232  13.275  13.834
62918W        W22421  24.223  30.556  10.556
62919W        W22422   6.767  43.824  10.416
62920W        W22423  31.437  14.658  11.381
62921W        W22424  35.871   3.315  10.421
62922W        W22425   7.742  43.844  13.368
62923W        W22426   3.955  36.974   4.599
62924W        W22427  16.566  15.610   1.794
62925W        W22428  18.215   2.351   4.127
62926W        W22429  32.891   6.319  11.958
62927W        W22430  31.570  21.080   1.285
62928W        W22431  11.301  38.337   4.618
62929W        W22432  33.101  14.761  14.346
62930W        W22433  23.566  25.971  12.859
62931W        W22434   3.934  19.768   4.260
62932W        W22435  10.312  20.111  14.473
62933W        W22436  44.827  43.984   3.226
62934W        W22437  32.128  43.015  14.290
62935W        W22438  32.589  35.481   1.324
62936W        W22439  16.721  13.163  10.904
62937W        W22440  12.686  20.213   0.387
62938W        W22441  16.108  28.146  10.405
62939W        W22442  15.758  16.725  13.915
62940W        W22443  39.858  40.399   4.793
62941W        W22444   0.760  31.424   0.938
62942W        W22445  33.929  33.465  11.056
62943W        W22446  12.176   9.239   0.744
62944W        W22447  16.686  15.727   2.748
62945W        W22448  40.914   5.840  13.503
62946W        W22449  24.991  17.065  11.000
62947W        W22450  10.291  17.187  14.385
62948W        W22451  44.875  31.905   4.653
62949W        W22452  28.986  12.268  14.758
62950W        W22453  20.109  38.398   4.121
62951W        W22454   0.443  30.964  11.064
62952W        W22455  30.475  41.007  13.889
62953W        W22456  41.819  15.702   5.206
62954W        W22457   5.211  36.502   0.467
62955W        W22458  28.572  18.692  13.338
62956W        W22459  29.603  37.539  13.059
62957W        W22460  32.613  41.302   3.193
62958W        W22461  35.359  22.178  11.441
62959W        W22462  17.670  15.735   0.893
62960W        W22463  26.689  44.863   1.392
62961W        W22464  29.970  44.777   3.813
62962W        W22465  37.373   3.870   4.332
62963W        W22466  33.878  10.801  11.566
62964W        W22467  29.158  36.896   5.241
62965W        W22468   4.417  27.534   3.859
62966W        W22469   5.352  30.929   2.701
62967W        W22470  44.448  22.681   3.758
62968W        W22471  42.976  29.125   1.865
62969W        W22472  37.878  26.953  10.997
62970W        W22473  30.948  11.728  10.461
62971W        W22474   3.866   2.405   1.270
62972W        W22475   1.968  21.059  13.054
62973W        W22476  36.872  37.902   1.714
62974W        W22477  26.023  33.610   2.418
62975W        W22478   0.409  14.631  13.847
62976W        W22479  17.653  30.603  13.799
62977W        W22480  35.870  20.672   2.776
62978W        W22481   0.923  28.953   3.797
62979W        W22482  25.592   6.719   3.778
62980W        W22483  40.801   7.705  12.432
62981W        W22484  17.077  44.801  14.444
62982W        W22485  29.551  43.469  14.497
62983W        W22486  33.464  30.483   3.232
62984W        W22487  34.963   1.841  14.469
62985W        W22488  31.898   9.723   4.195
62986W        W22489   1.357  10.795   1.379
62987W        W22490  19.573  14.152   4.682
62988W        W22491   3.780  15.113   4.130
62989W        W22492   0.966  23.121  12.061
62990W        W22493  29.428  33.550  12.071
62991W        W22494   2.347   2.349   0.444
62992W        W22495  13.121  42.367   2.414
62993W        W22496  18.651  36.543   2.298
62994W        W22497   4.881  27.044   3.288
62995W        W22498  37.933   0.854   1.826
62996W        W22499  16.101  15.769  10.625
62997W        W22500  13.218  37.535  14.421
62998W        W22501  22.168   6.228   2.226
62999W        W22502  20.698  13.126  13.879
63000W        W22503  32.421  27.534   0.385
63001W        W22504  29.109  16.124  10.100
63002W        W22505  26.584   1.765   4.116
63003W        W22506  10.289  16.646   2.243
63004W        W22507  35.976   0.490   2.193
63005W        W22508  32.945  35.424   0.381
63006W        W22509  29.098  13.702  14.300
63007W        W22510  24.092  20.190  10.527
63008W        W22511   6.761   8.223   3.178
63009W        W22512   8.898  23.237   2.374
63010W        W22513  13.632   7.810   3.674
63011W        W22514  16.290  11.289  13.382
63012W        W22515  15.714  10.700  11.890
63013W        W22516   4.217  12.347   0.260
63014W        W22517  19.662  27.511  13.483
63015W        W22518  42.032  38.341  12.034
63016W        W22519   2.429   6.787   0.389
63017W        W22520  10.311  31.104  12.374
63018W        W22521  12.308  19.155  14.345
63019W        W22522  16.587  41.880  10.915
63020W        W22523  18.235  27.514   0.865
63021W        W22524   0.383  26.697  13.808
63022W        W22525   1.303  19.618   3.185
63023W        W22526  16.648  15.658  14.860
63024W        W22527  23.678  27.459   0.411
63025W        W22528  36.370  37.354  13.501
63026W        W22529  34.492   6.324  11.013
63027W        W22530  22.125  38.411  12.942
63028W        W22531  10.665  16.258   2.359
63029W        W22532  18.763   5.430   4.795
63030W        W22533  10.184   0.977  13.850
63031W        W22534  40.866  30.947  12.419
63032W        W22535  17.578  25.040  13.365
63033W        W22536  31.486  10.275   4.211
63034W        W22537   9.663   6.771  10.979
63035W        W22538   9.263  36.494   3.240
63036W        W22539  30.051  25.545   3.708
63037W        W22540  31.969  20.616   1.806
63038W        W22541  41.379  18.167  10.893
63039W        W22542  44.934   6.809   2.227
63040W        W22543  34.000  10.202  12.089
63041W        W22544  39.904  15.685   0.360
63042W        W22545  25.589  10.241  13.007
63043W        W22546  34.934  18.664  13.409
63044W        W22547  37.021   8.783   3.172
63045W        W22548  33.036  25.670   1.410
63046W        W22549  12.308  31.527   4.792
63047W        W22550  11.281   9.258   0.269
63048W        W22551  14.226   4.770  14.443
63049W        W22552  15.678   5.693  13.330
63050W        W22553  17.766  18.111  13.346
63051W        W22554  11.343  34.065  12.005
63052W        W22555  11.829   4.733  14.357
63053W        W22556  43.987  33.960  12.863
63054W        W22557  38.827  43.959  14.426
63055W        W22558  18.723  26.205  10.429
63056W        W22559   9.312  17.176   4.630
63057W        W22560  41.441  19.124   9.477
63058W        W22561   4.257  10.655   3.648
63059W        W22562  30.076  12.129   1.868
63060W        W22563  10.726  42.460   3.634
63061W        W22564  25.049   0.966   2.855
63062W        W22565   3.902  30.527   2.664
63063W        W22566  22.535  36.925   3.653
63064W        W22567   8.306  20.034  10.935
63065W        W22568  42.955   4.933   2.780
63066W        W22569  34.550  17.123  13.534
63067W        W22570  37.902  23.201  10.518
63068W        W22571  18.619  18.167  13.519
63069W        W22572   9.220  42.503   2.791
63070W        W22573  43.315  32.587   1.246
63071W        W22574   7.364  38.492   2.674
63072W        W22575   7.898  35.887   4.617
63073W        W22576   3.392  25.112   0.922
63074W        W22577  22.083  18.707   4.719
63075W        W22578  24.655  23.628  12.551
63076W        W22579  21.589  41.487   0.861
63077W        W22580  15.681   2.792   1.431
63078W        W22581  16.659  34.904  12.545
63079W        W22582  42.511  25.696   4.315
63080W        W22583  44.280  33.602  14.830
63081W        W22584  10.732  21.067  12.523
63082W        W22585  38.850  16.278  13.448
63083W        W22586  41.955  29.014   2.707
63084W        W22587  13.317  39.038  10.122
63085W        W22588   5.219  14.712  10.105
63086W        W22589  22.653  15.783   3.263
63087W        W22590   8.747   3.326   3.762
63088W        W22591   8.733   0.845  10.913
63089W        W22592  21.079  28.154  10.529
63090W        W22593   2.255  38.015  14.763
63091W        W22594  27.113  44.335  11.530
63092W        W22595  41.891  15.715  12.890
63093W        W22596  28.557   3.265   2.403
63094W        W22597  35.539  35.427  14.934
63095W        W22598  12.258  22.624  12.882
63096W        W22599  32.437  27.569   5.685
63097W        W22600  35.505   4.449   0.360
63098W        W22601  32.438  41.503  10.538
63099W        W22602   6.189  14.659   5.199
63100W        W22603  28.111  36.551   4.148
63101W        W22604  32.556  39.872   9.967
63102W        W22605  22.532  23.004   2.406
63103W        W22606  12.642   4.872  13.897
63104W        W22607  33.446  39.959   1.825
63105W        W22608  30.937   4.906  13.433
63106W        W22609  16.140  43.005  13.903
63107W        W22610  25.024  10.338   4.125
63108W        W22611  21.216  17.698   3.255
63109W        W22612   5.918  21.589   4.694
63110W        W22613   1.287   3.220  13.531
63111W        W22614  42.444  26.700  13.333
63112W        W22615  40.009  39.895   4.800
63113W        W22616  28.445  31.138  12.828
63114W        W22617   5.194  36.561  13.835
63115W        W22618  29.979  39.921   3.780
63116W        W22619  13.198  41.511  11.076
63117W        W22620  12.140   6.838   0.390
63118W        W22621  34.072  24.176  12.539
63119W        W22622  16.126  36.385  10.498
63120W        W22623   6.373  34.473  14.922
63121W        W22624  33.551  12.846  10.044
63122W        W22625  42.283  21.229   3.290
63123W        W22626   1.259   1.869  10.467
63124W        W22627  31.066   4.444  11.961
63125W        W22628   8.867   4.815  11.892
63126W        W22629  27.946  25.152  11.126
63127W        W22630  31.007  22.527  10.916
63128W        W22631  10.684  14.795   0.248
63129W        W22632  27.535  10.163   0.284
63130W        W22633  32.029  41.814   2.815
63131W        W22634  41.826  21.570   0.874
63132W        W22635  20.172  41.521  12.502
63133W        W22636  33.035  22.584   2.307
63134W        W22637   3.332  31.551   4.144
63135W        W22638   2.865  34.551  12.911
63136W        W22639  14.197  19.089   2.810
63137W        W22640  10.792   0.338  10.515
63138W        W22641  35.558  14.691  13.893
63139W        W22642  37.945  19.559   2.402
63140W        W22643  28.137  35.366  13.429
63141W        W22644   0.931   4.931   4.624
63142W        W22645  38.478  13.786  12.357
63143W        W22646   1.345   9.847   3.238
63144W        W22647  11.174  33.420  14.369
63145W        W22648   7.381   0.838  13.356
63146W        W22649  23.575  21.692  12.912
63147W        W22650   0.789  24.016   3.747
63148W        W22651  32.934  12.799  13.982
63149W        W22652  42.420   5.770   1.713
63150W        W22653  37.388  30.913  14.276
63151W        W22654  33.446  35.944   3.289
63152W        W22655   7.836  14.287  14.843
63153W        W22656  21.674  42.499   0.776
63154W        W22657  18.699  18.125   2.833
63155W        W22658   7.365  44.788   4.210
63156W        W22659  22.618   9.178  14.305
63157W        W22660   5.391  40.949  12.558
63158W        W22661  22.018  40.323   4.306
63159W        W22662  20.065  22.502   3.350
63160W        W22663  45.000  30.999  14.026
63161W        W22664  26.978  41.882   0.359
63162W        W22665  22.148  20.634   0.870
63163W        W22666   9.767  21.084   4.263
63164W        W22667  31.025  10.209  12.917
63165W        W22668   8.873  35.873   4.636
63166W        W22669   2.291   4.299  13.813
63167W        W22670   8.664   9.797  14.331
63168W        W22671   7.875  42.874  12.553
63169W        W22672  27.064   0.830   2.757
63170W        W22673   7.171  43.933   0.916
63171W        W22674  26.587  37.509  14.996
63172W        W22675  33.028  34.992   4.161
63173W        W22676  19.681   3.299  11.592
63174W        W22677   2.888   8.723   5.321
63175W        W22678  34.893  34.087  12.824
63176W        W22679  33.383  10.315   4.342
63177W        W22680  34.100  31.504   0.271
63178W        W22681  18.766  30.628   3.299
63179W        W22682  28.545  38.951   0.254
63180W        W22683  26.599   3.443   2.735
63181W        W22684  22.717   4.882   3.726
63182W        W22685  19.235  30.551   2.377
63183W        W22686  20.098   4.869  13.984
63184W        W22687  42.941  10.287   2.419
63185W        W22688  24.479  10.285   0.893
63186W        W22689  10.780  41.884  13.399
63187W        W22690   8.271   4.909  10.637
63188W        W22691  20.678  10.685   1.316
63189W        W22692   1.435  27.496  11.535
63190W        W22693  17.232  17.634  13.971
63191W        W22694   0.971  29.034  11.919
63192W        W22695  16.769  36.479   3.708
63193W        W22696  15.669  36.487   5.321
63194W        W22697  23.080  44.435  10.157
63195W        W22698  13.791  39.038  11.118
63196W        W22699  14.643   4.915   3.238
63197W        W22700  31.131  41.867   3.703
63198W        W22701   9.376  10.291  14.406
63199W        W22702  42.892  13.795  14.780
63200W        W22703  41.461  44.501   3.709
63201W        W22704   6.313   8.675   0.321
63202W        W22705  34.952  34.110  14.012
63203W        W22706   0.792   9.344   3.848
63204W        W22707  38.015   1.471   4.277
63205W        W22708   0.492  18.703   5.768
63206W        W22709  33.467  32.593   4.657
63207W        W22710   7.222  31.903  12.917
63208W        W22711  28.649  39.395   3.636
63209W        W22712  24.600  31.587   3.279
63210W        W22713  31.116  35.053   1.232
63211W        W22714  17.215   2.275  12.931
63212W        W22715  28.968   0.841  10.952
63213W        W22716  38.068  17.248  12.413
63214W        W22717   9.380  21.212   2.709
63215W        W22718  40.319  11.719  12.091
63216W        W22719  29.132  39.924   4.670
63217W        W22720  37.353  26.688   3.866
63218W        W22721  15.231  23.068  12.892
63219W        W22722  38.869   2.329  11.067
63220W        W22723  12.350  32.543  13.382
63221W        W22724  21.736   4.706  12.490
63222W        W22725   9.672  28.956  11.888
63223W        W22726   3.443  13.186  12.916
63224W        W22727  26.106  41.928  13.951
63225W        W22728   7.219  32.111  12.481
63226W        W22729  10.649  40.019  14.996
63227W        W22730  38.560  33.439   0.455
63228W        W22731  23.167  21.250  14.379
63229W        W22732  20.562  26.179  10.621
63230W        W22733  24.015  18.206  12.827
63231W        W22734   3.837  43.372  13.960
63232W        W22735  18.084  15.230   0.772
63233W        W22736  41.008  35.370   2.253
63234W        W22737  26.066  11.747   1.861
63235W        W22738  32.587  35.880  12.525
63236W        W22739  36.014  31.557  12.944
63237W        W22740   8.221  40.316   0.949
63238W        W22741  43.456   0.298   3.257
63239W        W22742   9.196  26.087   4.816
63240W        W22743  41.486   1.737   3.728
63241W        W22744  25.671  20.566  12.850
63242W        W22745   6.854  12.672  11.915
63243W        W22746   0.747  19.276   1.406
63244W        W22747  35.597  36.420   2.357
63245W        W22748  37.878  11.318   1.891
63246W        W22749  43.397  35.894   5.249
63247W        W22750  36.556  36.860  11.044
63248W        W22751   9.227   7.909   0.799
63249W        W22752  37.432  33.971  13.896
63250W        W22753  15.604  43.371   0.956
63251W        W22754  28.109  24.567   0.297
63252W        W22755  23.003  12.231  10.438
63253W        W22756  34.524  26.070   3.201
63254W        W22757  12.272  21.534   0.361
63255W        W22758  44.276  36.571  11.912
63256W        W22759  24.590  10.315  10.520
63257W        W22760  29.990   8.700  12.852
63258W        W22761  26.113   0.806   3.652
63259W        W22762  30.571  16.705   1.725
63260W        W22763  41.905   1.839  14.474
63261W        W22764  17.106  34.000  14.401
63262W        W22765  10.179   0.784   1.220
63263W        W22766  41.448  43.850   2.739
63264W        W22767  40.797  43.827  11.551
63265W        W22768  24.108  18.052   4.353
63266W        W22769  19.714  20.194   3.847
63267W        W22770   0.361   6.893   3.657
63268W        W22771  15.283  38.880  11.595
63269W        W22772  12.234  43.830  12.029
63270W        W22773   1.423   6.719   3.860
63271W        W22774  22.677  11.713   3.319
63272W        W22775  43.278  42.487  14.025
63273W        W22776   3.380  40.830   4.279
63274W        W22777  30.996  32.581  14.917
63275W        W22778  20.177  19.070  10.553
63276W        W22779   5.865   6.857  12.086
63277W        W22780  42.850  12.719  11.412
63278W        W22781   6.793   6.734  11.069
63279W        W22782  37.923  38.048  13.953
63280W        W22783  19.661  16.258  12.866
63281W        W22784  35.979   3.220  11.925
63282W        W22785  14.241  37.549   2.758
63283W        W22786   4.379  14.128  10.069
63284W        W22787  19.767  18.133   1.386
63285W        W22788  27.082  33.015   4.676
63286W        W22789  44.478   6.692   0.830
63287W        W22790  43.842  13.615   3.792
63288W        W22791  44.755  23.006  10.102
63289W        W22792  34.951  10.853  14.471
63290W        W22793  15.189  22.702   1.759
63291W        W22794   8.349  18.168  14.494
63292W        W22795  20.727  35.892  11.495
63293W        W22796  10.172  15.809   2.685
63294W        W22797  14.603   5.316  11.406
63295W        W22798  34.534   3.875   2.737
63296W        W22799  26.595  41.803   0.837
63297W        W22800  25.493   5.899  13.483
63298W        W22801  14.206  27.542   3.322
63299W        W22802  29.518  13.805  11.486
63300W        W22803  41.346  42.291   2.203
63301W        W22804  18.686  15.648   1.757
63302W        W22805  25.106  27.462   1.778
63303W        W22806  35.402  24.189  13.328
63304W        W22807   9.727   3.343  13.844
63305W        W22808  37.982  40.907   1.779
63306W        W22809   4.711  25.513  12.988
63307W        W22810  19.649   6.329   4.228
63308W        W22811  16.577  33.569   4.239
63309W        W22812  37.399  24.122  12.844
63310W        W22813  41.527  44.827   0.389
63311W        W22814  33.442  39.463   3.249
63312W        W22815  41.429  30.515   2.777
63313W        W22816   1.962  18.058  13.062
63314W        W22817  19.539  42.476   3.783
63315W        W22818  12.689  18.114   1.863
63316W        W22819   5.904  25.536  13.936
63317W        W22820  15.290  38.478  11.992
63318W        W22821  31.636  23.542   3.715
63319W        W22822   9.365  34.513   4.791
63320W        W22823  21.069  26.645  12.403
63321W        W22824   4.284  17.179   4.799
63322W        W22825  36.489  40.549   1.445
63323W        W22826  40.380  37.915   2.281
63324W        W22827  34.029  22.591  11.489
63325W        W22828  42.474   7.697  14.906
63326W        W22829   8.856  34.369   1.854
63327W        W22830  26.053  26.595   4.311
63328W        W22831  19.081  40.538  13.312
63329W        W22832  33.391  13.804  13.482
63330W        W22833   1.321  23.595  14.879
63331W        W22834  14.689  17.624  11.978
63332W        W22835  13.668  35.979  10.971
63333W        W22836   7.335  30.654  10.568
63334W        W22837  31.941   9.858   0.415
63335W        W22838  27.972   5.755  11.113
63336W        W22839  10.763  11.632   3.782
63337W        W22840  32.599   1.890   2.865
63338W        W22841  33.082  16.287  13.410
63339W        W22842  13.117   9.298  11.860
63340W        W22843  16.178   8.848  14.301
63341W        W22844  35.968   2.341   4.819
63342W        W22845   8.366  11.206  10.471
63343W        W22846  42.491   2.723  14.505
63344W        W22847  26.505  26.489   4.295
63345W        W22848  44.915   1.413   3.362
63346W        W22849  36.956  31.076  11.065
63347W        W22850  30.560  42.295   2.738
63348W        W22851   7.186  18.712   3.746
63349W        W22852  13.171  18.095   1.783
63350W        W22853  30.079  24.016   5.231
63351W        W22854   3.738   3.827  11.502
63352W        W22855  29.438  41.338  14.371
63353W        W22856  16.606  36.885  11.453
63354W        W22857  20.741  39.946  12.573
63355W        W22858  10.727  39.810  13.467
63356W        W22859   4.256  17.261  14.892
63357W        W22860  17.297   1.333   3.855
63358W        W22861  16.178  20.204   4.211
63359W        W22862   8.712  34.391  12.989
63360W        W22863  27.546  34.580   1.329
63361W        W22864  21.253  14.141  11.902
63362W        W22865  43.429   6.791  10.898
63363W        W22866   1.371   8.364  12.350
63364W        W22867  42.451  35.535   1.410
63365W        W22868   5.749  43.977   4.211
63366W        W22869  42.853  30.583   3.675
63367W        W22870  11.669   1.378  13.039
63368W        W22871  32.012  36.573  12.969
63369W        W22872   2.381  32.560  13.984
63370W        W22873  25.625  21.119  12.902
63371W        W22874  24.580  42.311   4.235
63372W        W22875  15.589   0.748  10.491
63373W        W22876  14.637  41.348   4.773
63374W        W22877  24.505  18.544   0.283
63375W        W22878   3.449  42.907  13.914
63376W        W22879   4.900  36.355   5.183
63377W        W22880  33.051  33.015  11.480
63378W        W22881  20.637  42.525  14.996
63379W        W22882  42.854  34.592  11.077
63380W        W22883   7.897  12.325   1.214
63381W        W22884  36.031  20.098  14.287
63382W        W22885  20.625   0.408   0.351
63383W        W22886  39.347   2.396  10.540
63384W        W22887   0.832  26.654  11.928
63385W        W22888   4.723  20.073  11.858
63386W        W22889   0.248  16.139  13.509
63387W        W22890   0.479  32.491   0.947
63388W        W22891  24.051   6.225  11.102
63389W        W22892   6.921  28.135   2.333
63390W        W22893  34.103  21.233  10.122
63391W        W22894   2.337  42.012   3.851
63392W        W22895   3.887   0.330   4.636
63393W        W22896  33.008   7.219  11.449
63394W        W22897  15.318   1.312   2.351
63395W        W22898  10.266   6.870  12.982
63396W        W22899  26.470  42.497   2.396
63397W        W22900  30.414   9.323  10.638
63398W        W22901  23.095  23.064  11.045
63399W        W22902   6.922  31.117  12.478
63400W        W22903  43.774   7.233   4.324
63401W        W22904   2.335   5.694  12.562
63402W        W22905  19.167  33.529  14.341
63403W        W22906   0.277  24.521   4.744
63404W        W22907  33.909   4.284  10.549
63405W        W22908  32.975   0.923  11.574
63406W        W22909  33.898  43.839  14.944
63407W        W22910  34.969  13.197   3.794
63408W        W22911  30.456  34.945  12.052
63409W        W22912  37.925   9.177   3.755
63410W        W22913   1.313  39.341  13.996
63411W        W22914  42.423  18.107  13.328
63412W        W22915  25.156  38.952   0.927
63413W        W22916  28.981  18.552  10.418
63414W        W22917  27.087  29.136   2.242
63415W        W22918  37.003   2.936   2.682
63416W        W22919  31.468  34.525   2.787
63417W        W22920  18.571  28.610  13.881
63418W        W22921   1.793  31.528   1.229
63419W        W22922  24.622  41.874   1.922
63420W        W22923  20.245  36.920   2.271
63421W        W22924  11.757  12.324   1.805
63422W        W22925  44.299   5.724   3.761
63423W        W22926   8.820  32.611   9.672
63424W        W22927  43.396  33.986  13.501
63425W        W22928  16.650   8.174  13.816
63426W        W22929   3.943  25.582  10.516
63427W        W22930  23.645  34.899   4.302
63428W        W22931  38.428  37.474   3.269
63429W        W22932  14.610  18.245   3.284
63430W        W22933   5.321  42.836   1.277
63431W        W22934  19.637  36.498   3.226
63432W        W22935   6.351  37.860   3.813
63433W        W22936  21.636  17.069   0.786
63434W        W22937  43.789   3.454  14.932
63435W        W22938  15.181  38.469   4.180
63436W        W22939  29.500  19.695  12.420
63437W        W22940  40.949  21.567   2.750
63438W        W22941  31.558  23.221  12.380
63439W        W22942  36.506  24.508  12.367
63440W        W22943  28.483   7.703   1.760
63441W        W22944   9.827   3.234  12.462
63442W        W22945  41.523  18.055   4.348
63443W        W22946  26.490  43.358   4.613
63444W        W22947   9.153   3.329  10.994
63445W        W22948  39.369  14.112   4.603
63446W        W22949  33.575  24.147   3.865
63447W        W22950  42.911  13.609  12.900
63448W        W22951  41.473  30.503   4.170
63449W        W22952  16.262  24.152   2.781
63450W        W22953  31.471  13.712  14.759
63451W        W22954  43.450   0.840   2.241
63452W        W22955   1.271  18.585  12.077
63453W        W22956  44.345   3.829  12.078
63454W        W22957  21.193  15.768   5.127
63455W        W22958   0.806  18.295  14.807
63456W        W22959  23.993  36.074   4.193
63457W        W22960  21.238  10.844  11.120
63458W        W22961   0.407  29.005   1.784
63459W        W22962  27.668  39.998   2.370
63460W        W22963  12.303   1.931  10.604
63461W        W22964   2.375  37.968   2.780
63462W        W22965  16.806  32.011   1.406
63463W        W22966  22.232  41.356  10.459
63464W        W22967  21.101  39.360  13.422
63465W        W22968  18.590  27.081   4.169
63466W        W22969  34.990  29.024   1.405
63467W        W22970  21.117   5.917  11.492
63468W        W22971   6.405  18.630   5.082
63469W        W22972  42.933  30.917  14.768
63470W        W22973  33.934  36.952   3.658
63471W        W22974  13.209  40.324   5.192
63472W        W22975  16.576   4.391   3.745
63473W        W22976  34.876  34.875   0.939
63474W        W22977  32.392  33.945  11.514
63475W        W22978   9.671  13.319  10.920
63476W        W22979  25.656  18.290  11.479
63477W        W22980  41.523  12.719  14.891
63478W        W22981  25.617  29.976   3.224
63479W        W22982  19.780  38.334  11.877
63480W        W22983  21.618  18.763  14.513
63481W        W22984   7.408   1.453  11.047
63482W        W22985   8.256  25.648   1.236
63483W        W22986   3.243  34.435   4.838
63484W        W22987  15.114   8.896  11.865
63485W        W22988  35.395  37.014  14.463
63486W        W22989  30.096  31.104   3.869
63487W        W22990  23.735  40.491  13.376
63488W        W22991  39.347  11.358  11.881
63489W        W22992  37.376   9.368   5.157
63490W        W22993  43.972  27.011  13.943
63491W        W22994  18.767   9.874  13.800
63492W        W22995  31.548  29.433   4.244
63493W        W22996  33.920   6.348  12.400
63494W        W22997  38.933  27.095   4.768
63495W        W22998  35.433  34.523  11.863
63496W        W22999   8.748  23.688  13.790
63497W        W23000  12.669  10.768  13.842
63498W        W23001  34.879   0.387  14.361
63499W        W23002  22.200  44.968   3.305
63500W        W23003  32.483   3.918   4.733
63501W        W23004   0.924  11.690   4.645
63502W        W23005  26.631  18.053  10.592
63503W        W23006  38.994  29.649  12.082
63504W        W23007  18.768   6.864   0.959
63505W        W23008   2.293   3.453  11.563
63506W        W23009   5.874  33.544  13.923
63507W        W23010  36.871  39.509   0.408
63508W        W23011  28.982  23.492  13.858
63509W        W23012  13.825  11.647   1.315
63510W        W23013  30.595   1.397  13.428
63511W        W23014  19.673  23.634   2.205
63512W        W23015  21.199  35.881   1.315
63513W        W23016  35.865   0.397  12.427
63514W        W23017  15.185  11.367  13.495
63515W        W23018  25.217  29.059  14.943
63516W        W23019  37.017   5.404  13.840
63517W        W23020  36.543  14.832   0.797
63518W        W23021  43.932  13.141   1.350
63519W        W23022  39.850  42.983   0.802
63520W        W23023  41.428  38.867  12.854
63521W        W23024  23.495  11.651  12.920
63522W        W23025  19.098  29.568   1.374
63523W        W23026  41.483  32.574   4.759
63524W        W23027  32.901  40.537  14.992
63525W        W23028  21.049  39.009   0.469
63526W        W23029  28.496  29.482  10.473
63527W        W23030  24.048  34.452   1.367
63528W        W23031  42.411  25.692  10.477
63529W        W23032   5.919   1.443   2.323
63530W        W23033  10.805  42.351  13.971
63531W        W23034  13.720  20.627   3.370
63532W        W23035  26.201  30.447  12.085
63533W        W23036  13.829   6.410   3.253
63534W        W23037  37.941  30.632   2.365
63535W        W23038  18.727  10.801   0.285
63536W        W23039   8.813  37.927   1.888
63537W        W23040  21.536  23.010  13.997
63538W        W23041  17.613  39.464   0.905
63539W        W23042   4.264  36.564  14.384
63540W        W23043   2.245  35.360   1.326
63541W        W23044  35.550   7.672   4.148
63542W        W23045  38.338   1.376   3.183
63543W        W23046   7.789   2.452   1.404
63544W        W23047  10.750  32.569  13.849
63545W        W23048  13.745  32.921   1.749
63546W        W23049  34.969  25.151   3.844
63547W        W23050  32.110  42.895  11.905
63548W        W23051  24.204  34.603  14.951
63549W        W23052  30.572  17.661   3.315
63550W        W23053  44.483  31.482   2.710
63551W        W23054   4.856   2.403  14.870
63552W        W23055  30.138  42.351  12.846
63553W        W23056   2.912   3.333   4.130
63554W        W23057  17.747  37.521   1.880
63555W        W23058   9.774  11.188   4.275
63556W        W23059  14.694  35.986  13.928
63557W        W23060  12.224  16.764   5.098
63558W        W23061  26.589  37.973   3.376
63559W        W23062  12.638  29.659  13.365
63560W        W23063  44.459  16.571  10.470
63561W        W23064  27.672  43.897  14.878
63562W        W23065  30.454  24.218   0.322
63563W        W23066  11.851   5.723   1.821
63564W        W23067  27.109  37.854   1.242
63565W        W23068  37.083  33.618   2.306
63566W        W23069  22.143   8.687  12.079
63567W        W23070  25.565  36.046   0.939
63568W        W23071   7.314  39.383   2.292
63569W        W23072  26.167  18.546  11.604
63570W        W23073  16.308  18.671  12.970
63571W        W23074  23.999   6.272  14.860
63572W        W23075  41.292  34.611   0.748
63573W        W23076  28.185  18.768   0.448
63574W        W23077   4.876  16.211  13.320
63575W        W23078  32.050   2.797   4.836
63576W        W23079  21.675  17.189   3.218
63577W        W23080  31.099  12.135   0.902
63578W        W23081  15.770  31.133  14.411
63579W        W23082  36.878  11.801   2.774
63580W        W23083  20.150  43.835   0.242
63581W        W23084   7.198  13.832  10.096
63582W        W23085  14.197   2.294   0.965
63583W        W23086  14.141  36.096  14.852
63584W        W23087  43.476  40.027  13.799
63585W        W23088  12.182  29.970   4.836
63586W        W23089  29.655  29.543   3.344
63587W        W23090   0.814  36.954   0.857
63588W        W23091  17.249  44.788  13.035
63589W        W23092  30.114  17.713   0.456
63590W        W23093  30.431  17.156   3.680
63591W        W23094   8.305  26.519   3.218
63592W        W23095  10.853  24.576   1.387
63593W        W23096  28.635  23.225  14.011
63594W        W23097  10.180  12.719   3.196
63595W        W23098  16.601  21.535   4.782
63596W        W23099   0.871   6.312   0.243
63597W        W23100  20.169  37.473   1.397
63598W        W23101  42.286   3.798  11.923
63599W        W23102   9.824  35.496   4.640
63600W        W23103  16.247  17.743  11.567
63601W        W23104  11.296  13.264   1.872
63602W        W23105   8.295  39.322   2.286
63603W        W23106  28.545   5.919  13.326
63604W        W23107  36.590   4.939  12.976
63605W        W23108   3.221   5.760  10.896
63606W        W23109  12.265  15.699   1.274
63607W        W23110  19.629  36.467  12.093
63608W        W23111  15.720   8.279   1.705
63609W        W23112  18.601  40.987  13.051
63610W        W23113  27.623  40.925   2.775
63611W        W23114   7.895  27.492   4.171
63612W        W23115   1.877  32.457   0.287
63613W        W23116  32.459  41.512   4.203
63614W        W23117  36.059  15.794   2.263
63615W        W23118   8.832   3.779  14.933
63616W        W23119  18.152  44.352  11.601
63617W        W23120  20.650   8.225  13.390
63618W        W23121  16.299  29.928   2.711
63619W        W23122  13.762  19.725   4.615
63620W        W23123  16.173  25.677   2.757
63621W        W23124  43.442  39.939   1.218
63622W        W23125  31.499   5.709   3.330
63623W        W23126  16.097  40.030   3.851
63624W        W23127  37.433  11.635   3.326
63625W        W23128  32.529  31.070   2.245
63626W        W23129  34.977  30.573   1.266
63627W        W23130  39.936  28.558  12.934
63628W        W23131   9.786  17.151   0.450
63629W        W23132  12.145  22.591  11.979
63630W        W23133  31.604  19.626   0.273
63631W        W23134  31.562  15.658  12.922
63632W        W23135   6.917  14.307   2.688
63633W        W23136  26.680   0.340   4.810
63634W        W23137  14.599   8.688   9.987
63635W        W23138  27.654  10.746   4.312
63636W        W23139  14.782  28.946  11.972
63637W        W23140  21.517  13.186   0.437
63638W        W23141   1.330  16.319   2.196
63639W        W23142  42.952  42.874   2.271
63640W        W23143  14.176  37.457  11.373
63641W        W23144  34.974  16.074  11.112
63642W        W23145  43.954  20.738  10.983
63643W        W23146  12.725  32.917   2.267
63644W        W23147  23.083  32.058   1.865
63645W        W23148  12.303   5.299   2.853
63646W        W23149   6.290  28.143   1.278
63647W        W23150  41.432  12.227  10.957
63648W        W23151  24.191  21.163  14.354
63649W        W23152  33.123  21.056   1.257
63650W        W23153  21.724  11.154   1.349
63651W        W23154   1.748  38.482  11.518
63652W        W23155  38.537   7.721  14.509
63653W        W23156  24.612   9.156   4.680
63654W        W23157   4.364  36.382   2.410
63655W        W23158  28.558   9.338  12.561
63656W        W23159   5.414  36.565  11.940
63657W        W23160  44.366  31.492   0.337
63658W        W23161   7.415  43.418  10.611
63659W        W23162  28.532  10.213   4.353
63660W        W23163   9.830  39.352  12.959
63661W        W23164  14.144  32.035   4.672
63662W        W23165  11.847  28.142   4.598
63663W        W23166  24.086  26.670  11.518
63664W        W23167  21.675  41.413  10.904
63665W        W23168  14.173  15.764  12.383
63666W        W23169  31.903  30.605   0.298
63667W        W23170  39.847  32.447  10.414
63668W        W23171  39.038  44.002  13.397
63669W        W23172   8.330  19.211   0.907
63670W        W23173  19.589   6.381   3.269
63671W        W23174  38.008  22.541   1.427
63672W        W23175  12.315   7.386   2.796
63673W        W23176  43.362  22.016   2.181
63674W        W23177  24.506  33.379  11.951
63675W        W23178  31.103  17.688   4.717
63676W        W23179  29.620  23.559   4.735
63677W        W23180   0.360  18.607   4.675
63678W        W23181  21.539  16.127  12.931
63679W        W23182  10.212   6.305  13.545
63680W        W23183  23.196   7.821  11.029
63681W        W23184  41.945  35.865  10.449
63682W        W23185  12.739   8.813  12.442
63683W        W23186   6.187  28.439  14.808
63684W        W23187  44.836  16.254   1.772
63685W        W23188  24.046  10.718  13.344
63686W        W23189   9.769  43.988  11.898
63687W        W23190  11.793   6.194   1.889
63688W        W23191  31.471  44.482  12.536
63689W        W23192  24.036  24.126   4.277
63690W        W23193  41.411  14.659  13.344
63691W        W23194  29.981   0.466   1.744
63692W        W23195  24.186   8.177  13.911
63693W        W23196   9.744   5.401   4.744
63694W        W23197  36.028   2.310  12.855
63695W        W23198  44.889  25.504   1.213
63696W        W23199  28.078  40.466   4.720
63697W        W23200   1.899   2.410  13.797
63698W        W23201   0.982  34.077   2.385
63699W        W23202   4.444  19.730   4.157
63700W        W23203  14.106   2.470   3.199
63701W        W23204  33.408  29.986  10.550
63702W        W23205  11.638   7.728  10.550
63703W        W23206  28.565  32.583   4.324
63704W        W23207  28.517  24.149   0.909
63705W        W23208  27.485  41.819  14.448
63706W        W23209  43.928  23.114  11.076
63707W        W23210  34.074  37.866   1.393
63708W        W23211  34.105   8.857   4.823
63709W        W23212   6.346  22.718  10.097
63710W        W23213  26.128  37.961  11.530
63711W        W23214  19.101  19.093  10.988
63712W        W23215  11.237  26.054  10.958
63713W        W23216   6.727  34.608  12.938
63714W        W23217   6.383   6.758   3.727
63715W        W23218   5.374  31.944   3.861
63716W        W23219   4.270  25.087   1.330
63717W        W23220  35.897  38.564   1.731
63718W        W23221  36.968  11.857  10.618
63719W        W23222  20.177  20.551   0.825
63720W        W23223  39.918  21.642   0.962
63721W        W23224  16.175  40.025  13.515
63722W        W23225  23.663   7.213   1.219
63723W        W23226  13.306  35.444   0.260
63724W        W23227   5.396  15.674  13.374
63725W        W23228  36.951  10.215   4.672
63726W        W23229  13.783  38.361  13.369
63727W        W23230  23.602   2.767  11.910
63728W        W23231  29.628  18.273  13.372
63729W        W23232  29.946  38.880  13.905
63730W        W23233  43.020   2.454   4.249
63731W        W23234  23.992  33.473   0.741
63732W        W23235  21.125  37.975  12.088
63733W        W23236  28.645  39.858   2.880
63734W        W23237  42.980   8.824   2.666
63735W        W23238  17.191   5.810  11.505
63736W        W23239  11.648  35.450  14.397
63737W        W23240  29.661  12.712   1.831
63738W        W23241  10.184  11.785  10.607
63739W        W23242  14.755   9.702  14.309
63740W        W23243  43.307  32.967  14.440
63741W        W23244   6.896  43.359  10.585
63742W        W23245  17.797  40.320   4.232
63743W        W23246   1.906  28.543   0.375
63744W        W23247   6.303  40.347  13.414
63745W        W23248  27.996  14.095   2.185
63746W        W23249   8.892  35.494   0.757
63747W        W23250   9.161  37.943  13.466
63748W        W23251   1.748  41.356   1.279
63749W        W23252  44.502  38.540   4.738
63750W        W23253  18.655  26.068  12.856
63751W        W23254  32.606  26.973   1.423
63752W        W23255  22.174  32.977  13.480
63753W        W23256  31.532  19.535   3.827
63754W        W23257  28.992  36.914  11.439
63755W        W23258  28.532   9.299   1.434
63756W        W23259  34.910  36.384  10.473
63757W        W23260   6.422  44.441  10.967
63758W        W23261  24.121  33.922  13.393
63759W        W23262  31.478  24.181   2.376
63760W        W23263  27.972  32.603   0.901
63761W        W23264   0.785  34.584   1.900
63762W        W23265  12.652   9.193   1.303
63763W        W23266  43.881  43.362  14.483
63764W        W23267   3.876  34.487  11.538
63765W        W23268  17.666   5.759   2.771
63766W        W23269  42.954   2.864   1.846
63767W        W23270  41.924  13.254   1.286
63768W        W23271  33.427  38.395   3.866
63769W        W23272  17.649   7.387   0.472
63770W        W23273   3.899  40.972   0.861
63771W        W23274   6.778  18.671  14.515
63772W        W23275  20.579  35.493  13.990
63773W        W23276  33.493  21.633  13.519
63774W        W23277  34.026  18.596   4.747
63775W        W23278   9.679   4.830   3.151
63776W        W23279  39.822   9.226   2.829
63777W        W23280  27.641   3.778  13.013
63778W        W23281  28.072   8.862   1.695
63779W        W23282  19.048   1.482  12.476
63780W        W23283  18.122  35.481  11.479
63781W        W23284  42.982  16.092  14.799
63782W        W23285   2.867  37.959  10.977
63783W        W23286   7.798  21.573  14.313
63784W        W23287  17.189  28.183   4.344
63785W        W23288  11.798  23.515  11.072
63786W        W23289  41.357  29.654   0.761
63787W        W23290  25.975  30.479   1.724
63788W        W23291   5.332  15.210  10.633
63789W        W23292  28.955  21.113  12.070
63790W        W23293  11.634  10.672  11.608
63791W        W23294  44.321  21.093   0.254
63792W        W23295  26.069   1.365   5.081
63793W        W23296   6.421   4.924   4.134
63794W        W23297  38.979  11.793   3.276
63795W        W23298  30.436  33.999   2.839
63796W        W23299   2.304  12.650   9.986
63797W        W23300  33.574   9.701  14.451
63798W        W23301   1.794  15.800   3.207
63799W        W23302  23.724   3.413  14.957
63800W        W23303  22.706  41.007   3.845
63801W        W23304  40.021   9.295  12.825
63802W        W23305  35.465  34.466   1.360
63803W        W23306   9.158  42.871   3.164
63804W        W23307  15.673  38.959  14.463
63805W        W23308  15.607   3.811   4.760
63806W        W23309  30.645   5.927   0.446
63807W        W23310  19.665  35.574   3.256
63808W        W23311   4.811  43.954   1.425
63809W        W23312  36.480   5.710   3.670
63810W        W23313  38.430  21.182   2.773
63811W        W23314   4.812   2.841  12.945
63812W        W23315   4.800  16.610   9.978
63813W        W23316   5.911   4.368   0.899
63814W        W23317  10.656  33.906   4.623
63815W        W23318  30.932  41.465   4.603
63816W        W23319  30.574  30.518   9.940
63817W        W23320  31.143  29.659  14.296
63818W        W23321   1.346  41.979   0.449
63819W        W23322   3.724   2.458  14.480
63820W        W23323  30.454  15.737  11.855
63821W        W23324  15.670  35.506  14.355
63822W        W23325  20.069  18.768  11.052
63823W        W23326   5.346  28.590  14.923
63824W        W23327  33.921  14.664  14.411
63825W        W23328  32.951   6.378   3.823
63826W        W23329  23.996  32.060   0.347
63827W        W23330  19.687  43.781   2.759
63828W        W23331  13.617  17.210   4.749
63829W        W23332  11.359  40.978   3.766
63830W        W23333  42.862  33.484   1.716
63831W        W23334  25.997   4.359  11.980
63832W        W23335  43.486  14.182  14.921
63833W        W23336  39.415  10.688  10.633
63834W        W23337  20.030  26.005   1.377
63835W        W23338  38.455  35.365   3.682
63836W        W23339  13.768  44.925   0.272
63837W        W23340  41.935   3.761  10.552
63838W        W23341   8.850   8.858   0.353
63839W        W23342  21.065  20.523  13.472
63840W        W23343   4.261  44.295   2.293
63841W        W23344  24.647  42.795   1.446
63842W        W23345  32.585  31.928   1.428
63843W        W23346  19.570   0.255  11.943
63844W        W23347  31.073  25.012  11.605
63845W        W23348  30.060  24.093  12.908
63846W        W23349  34.987  22.618   2.829
63847W        W23350  25.637  32.134  13.361
63848W        W23351   3.866   9.336   3.688
63849W        W23352  38.326  10.214   0.428
63850W        W23353  19.753  34.559   2.833
63851W        W23354   8.888  38.560   4.749
63852W        W23355  18.180   4.413   2.827
63853W        W23356  14.310  19.743  11.425
63854W        W23357  41.988  27.483  13.399
63855W        W23358  36.547  15.614  11.608
63856W        W23359  18.594  42.441   4.307
63857W        W23360  24.644  15.654   0.329
63858W        W23361  11.777  23.590   0.265
63859W        W23362  23.242  30.103   4.277
63860W        W23363  20.645  42.778   2.223
63861W        W23364  20.707   8.219  11.002
63862W        W23365  24.159  28.026   1.763
63863W        W23366  27.447   1.897   3.326
63864W        W23367   0.449  20.561   0.858
63865W        W23368  14.612  36.912   3.231
63866W        W23369  39.007  29.951   3.732
63867W        W23370  14.793  40.977   1.764
63868W        W23371  15.818  16.209  14.827
63869W        W23372  12.122   8.900   2.314
63870W        W23373  23.720  22.048  13.307
63871W        W23374  40.472  38.563  11.107
63872W        W23375  10.256  18.182   1.730
63873W        W23376  14.255  30.069  14.486
63874W        W23377  31.541  18.636  14.869
63875W        W23378   6.712  28.998   1.803
63876W        W23379  22.698  38.981   0.324
63877W        W23380  27.464  32.063   4.156
63878W        W23381  27.546   9.226  13.446
63879W        W23382  16.633  15.669  11.512
63880W        W23383   6.765  19.085   4.608
63881W        W23384  25.176   5.419  11.937
63882W        W23385  30.950  23.149   1.330
63883W        W23386  35.402  12.286   0.249
63884W        W23387   1.750  23.565   4.762
63885W        W23388   2.364   3.315  12.965
63886W        W23389   4.302  32.002   1.234
63887W        W23390  37.872  11.146   2.742
63888W        W23391  25.201  37.359   0.314
63889W        W23392  17.115  16.138  13.898
63890W        W23393   9.771  38.358  13.050
63891W        W23394  39.405  43.359   3.651
63892W        W23395  22.525   3.887   3.205
63893W        W23396  37.950  15.168   2.197
63894W        W23397  33.555  10.324   0.452
63895W        W23398  43.293  29.664  11.998
63896W        W23399  35.435  20.083  12.394
63897W        W23400  18.650  44.265  10.999
63898W        W23401  42.390   6.278  11.450
63899W        W23402   8.848   6.836   0.802
63900W        W23403  29.575  42.835   3.634
63901W        W23404  17.173  44.837   4.324
63902W        W23405  33.066  11.757   1.399
63903W        W23406  29.428   1.429  14.971
63904W        W23407  37.489  33.079  12.551
63905W        W23408  21.027  16.271  14.399
63906W        W23409  32.002  27.473  14.842
63907W        W23410  42.848  13.703   4.636
63908W        W23411  25.191  14.796  13.438
63909W        W23412   8.339  13.279   4.634
63910W        W23413  36.893  34.077  14.994
63911W        W23414  39.952  15.802  12.976
63912W        W23415  20.196  18.089  14.875
63913W        W23416  26.170  24.636  14.449
63914W        W23417  17.629  25.189   3.767
63915W        W23418  37.572  37.920  14.468
63916W        W23419   3.868  26.670  11.597
63917W        W23420   6.796  35.564  12.354
63918W        W23421  42.847  16.083  13.306
63919W        W23422   0.945  32.526  11.539
63920W        W23423  40.038  15.624   4.224
63921W        W23424  15.314  41.806   2.835
63922W        W23425  22.084   2.376  10.450
63923W        W23426   9.190   2.813   1.267
63924W        W23427  40.934  20.097   3.794
63925W        W23428  40.394  28.181  10.938
63926W        W23429  16.211  14.793   2.300
63927W        W23430  41.522  42.431  14.860
63928W        W23431   0.847  17.686  13.427
63929W        W23432  22.731  10.351  11.512
63930W        W23433  39.504  20.250  13.357
63931W        W23434  34.542  43.838  14.973
63932W        W23435  12.840  13.133   1.223
63933W        W23436  41.918  13.660  13.931
63934W        W23437  39.847  16.732   0.789
63935W        W23438  24.638  43.429  14.763
63936W        W23439  39.402  11.344  14.332
63937W        W23440  27.964  43.923   4.307
63938W        W23441  42.810  10.342  11.592
63939W        W23442  13.790  23.512  12.830
63940W        W23443  14.642  10.707  13.988
63941W        W23444  37.491  25.034  11.996
63942W        W23445  29.025   1.826  14.488
63943W        W23446  37.517   8.831  13.448
63944W        W23447  41.470  22.594  11.100
63945W        W23448  12.155  19.778   1.894
63946W        W23449  37.932   8.823   3.694
63947W        W23450   7.312  43.280  12.356
63948W        W23451   4.775  36.528  13.859
63949W        W23452  22.707  34.110  12.006
63950W        W23453  27.558  13.695  13.812
63951W        W23454  13.313  44.496  10.965
63952W        W23455  19.725  14.234  10.506
63953W        W23456  18.256  15.663   1.380
63954W        W23457  33.481  29.066  12.885
63955W        W23458  32.521  34.539  12.496
63956W        W23459  41.800  43.987   2.334
63957W        W23460  43.500   5.199  11.487
63958W        W23461  25.617  19.702   1.839
63959W        W23462  13.617   6.822  10.439
63960W        W23463  29.948  38.490   2.789
63961W        W23464  15.824  31.956  12.392
63962W        W23465  16.097  21.256  11.496
63963W        W23466  23.112  15.661   4.239
63964W        W23467  29.114  30.021   0.368
63965W        W23468  23.563  31.033  13.357
63966W        W23469  30.572  25.118   5.610
63967W        W23470  40.876  19.062  13.947
63968W        W23471  12.697   1.761   1.404
63969W        W23472   6.211  41.978  10.942
63970W        W23473  36.979  16.582   0.335
63971W        W23474  14.607  19.120  11.594
63972W        W23475  28.556  35.007  14.897
63973W        W23476  27.461  42.332  12.084
63974W        W23477   3.448  17.219  11.058
63975W        W23478  16.800  35.552  13.488
63976W        W23479  23.992   5.313  10.004
63977W        W23480   8.848  35.557   3.252
63978W        W23481  24.179  32.038  14.287
63979W        W23482  42.991   1.433   3.645
63980W        W23483  12.744   2.926  14.930
63981W        W23484  33.412   2.733  11.861
63982W        W23485   8.885  44.914  11.866
63983W        W23486  41.913   5.407  10.127
63984W        W23487   5.418  28.451  10.909
63985W        W23488   1.837  13.266  14.988
63986W        W23489  29.038   1.446   2.242
63987W        W23490  13.845  10.381  13.546
63988W        W23491  38.912   1.899  10.005
63989W        W23492  33.585  26.105   4.799
63990W        W23493  26.111   0.884   0.382
63991W        W23494  27.597  29.970  12.882
63992W        W23495   9.390  29.099   2.747
63993W        W23496   6.413  43.903  14.791
63994W        W23497  38.871   7.801  12.904
63995W        W23498  36.400  40.474  14.475
63996W        W23499  37.890  12.245  11.102
63997W        W23500   6.264  27.174  11.547
63998W        W23501  42.342   3.938   1.791
63999W        W23502  41.464  28.646   1.773
64000W        W23503  12.848  27.961   1.329
64001W        W23504  28.134   2.959   9.924
64002W        W23505   9.647   5.287   0.292
64003W        W23506  33.097   6.911  11.453
64004W        W23507  33.003  32.112  12.018
64005W        W23508   8.361   1.792  10.499
64006W        W23509  34.460   6.390   1.430
64007W        W23510  42.426  38.046  13.423
64008W        W23511   0.493  20.565   9.925
64009W        W23512  30.933   3.216  10.148
64010W        W23513  43.001  39.871  12.993
64011W        W23514  12.843  41.470  11.444
64012W        W23515  32.437   9.833  11.547
64013W        W23516  38.919  22.132   3.665
64014W        W23517  34.993   0.335   3.283
64015W        W23518  10.865  38.889   1.363
64016W        W23519  27.626  36.482  12.851
64017W        W23520  29.543  41.321  13.485
64018W        W23521  33.874  15.650   2.218
64019W        W23522  12.703  21.158  14.916
64020W        W23523   9.177   0.338  11.877
64021W        W23524  17.763   4.346   4.229
64022W        W23525  27.166  44.432  12.905
64023W        W23526  20.101  39.922   4.769
64024W        W23527  41.387   5.729  14.306
64025W        W23528  29.604  41.398   9.984
64026W        W23529  20.528  27.533   1.766
64027W        W23530  41.340   1.915   1.371
64028W        W23531  15.772  38.955  12.408
64029W        W23532  31.642   0.320   2.304
64030W        W23533  34.047  39.399  14.397
64031W        W23534  30.921  15.197  10.550
64032W        W23535   4.327  38.034   3.780
64033W        W23536   2.902  18.194  11.460
64034W        W23537   8.669  11.197   1.926
64035W        W23538  22.644  34.398  11.567
64036W        W23539  31.998  19.228  12.094
64037W        W23540   9.280  10.150   3.238
64038W        W23541  29.942  23.563  14.353
64039W        W23542   4.423  33.573  11.998
64040W        W23543  31.000  24.509   2.368
64041W        W23544   4.855  17.750  13.376
64042W        W23545   7.292  41.322   4.173
64043W        W23546  20.251  13.132   1.395
64044W        W23547  22.056   9.163   1.425
64045W        W23548   3.339   8.192  13.506
64046W        W23549   6.254  32.030  14.322
64047W        W23550  17.668  30.162  12.941
64048W        W23551   0.987  32.529  10.441
64049W        W23552   6.205  16.119   1.909
64050W        W23553   2.787  37.557  12.549
64051W        W23554  44.493  35.521   3.722
64052W        W23555   9.819   5.779  11.489
64053W        W23556   8.286  34.442   3.330
64054W        W23557  32.586  37.024   2.708
64055W        W23558  35.487  20.269   0.416
64056W        W23559   6.787  41.880  14.906
64057W        W23560  27.001  28.009  13.835
64058W        W23561  27.575  40.906   1.811
64059W        W23562  36.099   0.309  14.860
64060W        W23563  17.800  10.382   1.852
64061W        W23564  13.172  29.601   1.784
64062W        W23565   5.286  33.411   1.327
64063W        W23566  44.478  12.815   2.797
64064W        W23567  21.262  22.194   0.935
64065W        W23568  37.000  25.039  10.444
64066W        W23569   3.927  23.606  11.879
64067W        W23570  14.305   6.802  12.964
64068W        W23571  10.654  10.710   3.254
64069W        W23572  27.541  15.241   5.596
64070W        W23573   1.440  40.043  13.317
64071W        W23574  20.560  31.024  10.930
64072W        W23575  17.208  14.213  10.049
64073W        W23576  17.277  44.979  13.498
64074W        W23577  19.156  38.943  12.527
64075W        W23578  18.264  37.445   1.269
64076W        W23579  44.258  11.716   3.352
64077W        W23580  27.518   1.244  12.380
64078W        W23581   6.370  41.440   4.750
64079W        W23582  28.457  35.020  12.062
64080W        W23583  20.178  26.078   0.920
64081W        W23584  44.499  22.181  13.841
64082W        W23585  21.186  20.755   3.689
64083W        W23586   7.272  10.356  13.893
64084W        W23587  14.120  21.594  11.603
64085W        W23588   3.861  27.564   3.669
64086W        W23589  41.365  20.202  13.844
64087W        W23590  12.714  26.120  11.110
64088W        W23591   0.404  44.935   1.298
64089W        W23592  16.083  40.507  14.465
64090W        W23593   4.264  23.078   1.901
64091W        W23594   7.886  21.246   2.817
64092W        W23595  26.481  39.316   4.720
64093W        W23596  17.181  32.549   9.984
64094W        W23597  37.921  11.188   0.922
64095W        W23598  29.468   4.873   1.308
64096W        W23599  32.924  16.609  10.527
64097W        W23600  31.509  25.491  14.788
64098W        W23601  12.230  37.873   4.789
64099W        W23602  26.484  35.523  13.324
64100W        W23603   7.293   5.841   1.275
64101W        W23604   9.722   3.765   0.843
64102W        W23605  29.456  13.325   2.331
64103W        W23606  43.949  22.113  11.372
64104W        W23607  19.140  40.920  13.034
64105W        W23608  40.915  43.936   2.182
64106W        W23609  42.896  26.608  11.991
64107W        W23610  38.935  13.786   4.304
64108W        W23611  12.132  40.986  13.358
64109W        W23612  30.542   1.795   4.742
64110W        W23613  28.587  15.701  10.970
64111W        W23614  41.336  40.019  10.986
64112W        W23615  33.130   2.865  13.884
64113W        W23616   1.353  21.257  14.489
64114W        W23617  41.407   2.245   4.824
64115W        W23618  14.327   4.782  10.908
64116W        W23619  39.011   2.918   1.826
64117W        W23620  37.398  24.608  12.512
64118W        W23621  40.941   6.223   2.790
64119W        W23622   0.940  32.995  13.370
64120W        W23623   5.877  37.517   2.858
64121W        W23624  35.393  12.270   3.250
64122W        W23625  44.890  29.109   3.263
64123W        W23626  18.249  17.122  11.873
64124W        W23627  23.537  35.425  13.049
64125W        W23628  34.893   8.401  10.410
64126W        W23629  19.086  33.576   4.784
64127W        W23630  33.600  19.254  10.998
64128W        W23631  40.812  41.404   4.187
64129W        W23632  15.250  30.075  10.598
64130W        W23633  25.055  25.591   3.661
64131W        W23634  33.119  22.576   0.298
64132W        W23635  31.481  13.205  12.553
64133W        W23636  14.710  42.951  14.821
64134W        W23637   2.723   9.760  11.089
64135W        W23638   0.877  31.454  14.863
64136W        W23639  15.612  22.253  14.906
64137W        W23640   7.731  12.173   9.960
64138W        W23641  19.613   4.339   3.378
64139W        W23642  43.400  24.575   2.883
64140W        W23643  13.349  15.634   9.969
64141W        W23644  35.949  17.626   3.698
64142W        W23645   8.791  26.026  11.572
64143W        W23646  27.027  11.625  14.418
64144W        W23647  36.360   5.863   0.364
64145W        W23648  33.130  25.990  11.125
64146W        W23649  37.925  20.759   4.796
64147W        W23650  24.991  19.076   3.253
64148W        W23651  27.182  20.768  12.071
64149W        W23652  37.069  44.290   2.778
64150W        W23653  44.271   1.749   1.872
64151W        W23654  35.394   5.795   3.284
64152W        W23655  19.722   4.707  12.008
64153W        W23656   0.932   1.421  14.351
64154W        W23657  16.766  37.481   4.689
64155W        W23658  11.175   2.470  14.882
64156W        W23659   2.394  43.419   3.809
64157W        W23660  44.304  13.188  10.989
64158W        W23661  13.790  17.163   0.246
64159W        W23662  32.975  14.704   1.866
64160W        W23663   1.333  10.854  12.866
64161W        W23664  21.613  11.328  13.015
64162W        W23665  10.748  23.192   0.789
64163W        W23666  39.424  41.303   3.191
64164W        W23667  43.914   7.219   2.385
64165W        W23668  35.420  18.697   1.222
64166W        W23669  43.400  43.931   1.851
64167W        W23670  44.857   8.685  14.814
64168W        W23671   8.265   4.304  14.776
64169W        W23672  17.578  30.423  11.971
64170W        W23673   3.721  25.186   4.827
64171W        W23674   4.778  43.829  14.484
64172W        W23675   7.789  33.468   5.106
64173W        W23676  14.098  25.629   3.810
64174W        W23677  42.415  11.734   4.285
64175W        W23678  15.823  33.020  12.021
64176W        W23679  25.037  24.152   1.374
64177W        W23680  29.016  19.716   2.322
64178W        W23681  36.504  30.516  13.811
64179W        W23682  33.623  11.717   1.742
64180W        W23683   9.266  12.182  12.557
64181W        W23684  44.379  24.621  14.460
64182W        W23685  30.532   9.722  14.971
64183W        W23686  19.139  16.728   3.153
64184W        W23687   6.226  23.717   0.827
64185W        W23688   2.741  36.483  12.547
64186W        W23689  12.628  17.114   3.154
64187W        W23690   5.906  35.042   3.731
64188W        W23691  23.231  41.826  12.515
64189W        W23692  23.650   6.861  12.366
64190W        W23693   8.820   8.209   2.889
64191W        W23694  15.284  10.223  14.400
64192W        W23695  12.314  11.721  10.427
64193W        W23696  24.133  12.136  14.780
64194W        W23697   5.310  32.057   0.740
64195W        W23698  31.623   0.296  13.400
64196W        W23699  40.017  23.641  12.396
64197W        W23700  43.335  12.699   1.711
64198W        W23701  13.800  26.541  14.486
64199W        W23702  28.988   3.811   4.115
64200W        W23703  22.629   1.448  12.087
64201W        W23704   6.722  19.189  13.397
64202W        W23705  41.005   0.333  13.022
64203W        W23706   4.934  30.504  11.587
64204W        W23707  44.982  41.460   4.286
64205W        W23708   5.234  41.411  10.581
64206W        W23709  34.120  39.388   4.789
64207W        W23710   0.312  11.337   2.257
64208W        W23711  27.177  44.920  10.429
64209W        W23712  38.331   2.768   2.778
64210W        W23713  19.780  26.550   4.784
64211W        W23714   3.287  16.608  10.097
64212W        W23715  31.465  29.077  13.984
64213W        W23716  18.790  11.314  12.929
64214W        W23717   1.970  31.031  10.476
64215W        W23718  17.731  28.607   0.750
64216W        W23719  12.756  31.150   4.621
64217W        W23720  28.616  20.748   1.866
64218W        W23721   1.293  28.656   9.991
64219W        W23722  24.600  44.265  12.389
64220W        W23723  40.380  33.908   4.302
64221W        W23724  24.085  38.845  11.897
64222W        W23725  20.699   5.315   2.669
64223W        W23726   9.393  23.609   4.759
64224W        W23727  42.486   5.224  11.905
64225W        W23728  43.003  31.530  11.945
64226W        W23729  44.760  22.074  10.587
64227W        W23730  29.431  22.057  11.939
64228W        W23731  33.073   5.746   0.374
64229W        W23732  29.013  24.120  14.026
64230W        W23733  27.152  37.502  12.351
64231W        W23734  42.934   8.379   0.766
64232W        W23735   1.471   1.350   1.712
64233W        W23736   5.906  28.988  11.452
64234W        W23737  15.803   1.302   3.643
64235W        W23738  25.134  25.577  14.029
64236W        W23739   9.240   6.256  14.814
64237W        W23740  35.417  26.207   2.211
64238W        W23741   6.270  35.933   1.723
64239W        W23742   2.426  40.055   2.285
64240W        W23743   0.480  13.228   3.645
64241W        W23744  38.569   0.819   0.344
64242W        W23745   8.169   5.388  12.024
64243W        W23746  13.667  18.134  11.888
64244W        W23747  14.321  38.883  14.780
64245W        W23748   5.292  30.570   0.813
64246W        W23749  14.181   6.273  11.925
64247W        W23750   1.356  32.634   4.242
64248W        W23751  16.682  43.443   0.866
64249W        W23752  41.381  11.290  11.388
64250W        W23753  36.468   4.846  14.759
64251W        W23754  34.089  18.681  14.917
64252W        W23755  44.920   2.935   2.300
64253W        W23756  30.034  35.869  10.018
64254W        W23757  27.606  15.245   2.211
64255W        W23758  32.582   6.296  10.941
64256W        W23759  31.574  14.328   3.184
64257W        W23760  42.990  34.879   1.841
64258W        W23761  17.181  38.907   2.756
64259W        W23762  33.036   8.227   0.744
64260W        W23763   0.435   5.329  13.061
64261W        W23764  17.716  24.166  10.504
64262W        W23765  18.544  41.442   3.771
64263W        W23766   8.162  15.685  12.574
64264W        W23767  14.184  19.604   0.786
64265W        W23768  14.129   7.677  14.512
64266W        W23769  14.720  33.605  14.925
64267W        W23770  24.225  17.248  13.375
64268W        W23771  24.988  25.060  14.516
64269W        W23772   0.433   6.285  11.862
64270W        W23773  28.629  20.089  10.530
64271W        W23774  10.821   8.390   1.215
64272W        W23775  32.454  33.442  13.453
64273W        W23776  36.024   9.210   3.221
64274W        W23777  10.752  12.244   4.692
64275W        W23778  18.638   8.280  14.985
64276W        W23779  12.254  41.037  13.942
64277W        W23780  21.049  30.598  14.808
64278W        W23781  38.499  27.185  12.079
64279W        W23782  27.028  22.058   4.730
64280W        W23783   5.912   6.779   4.257
64281W        W23784   3.926  13.719   4.216
64282W        W23785  33.448  19.279   1.274
64283W        W23786  11.753  39.932  11.997
64284W        W23787   2.851   1.470   2.669
64285W        W23788  20.191  15.210   0.367
64286W        W23789  21.182   7.674  14.942
64287W        W23790   6.882   7.378   2.849
64288W        W23791  42.808   0.837  12.034
64289W        W23792  11.165  26.590  12.521
64290W        W23793  44.423  27.089  12.339
64291W        W23794  23.164  28.482  11.094
64292W        W23795   1.820  36.457   0.391
64293W        W23796  35.521   5.313  12.036
64294W        W23797   4.719  19.257  13.814
64295W        W23798  29.171   2.846  12.524
64296W        W23799  21.029   8.756  14.404
64297W        W23800  32.041   8.856  12.854
64298W        W23801   1.342  18.242   3.828
64299W        W23802   1.443  26.518   1.310
64300W        W23803  19.192  21.585  12.066
64301W        W23804  18.711  27.650  11.924
64302W        W23805   2.261  32.988  12.009
64303W        W23806  29.129   9.848  11.000
64304W        W23807   7.880  12.781   1.439
64305W        W23808  21.697  34.984  11.413
64306W        W23809  13.639  30.455  11.397
64307W        W23810   2.344  10.328   4.718
64308W        W23811  28.566  16.755  13.460
64309W        W23812  25.043  32.101  12.351
64310W        W23813  39.482  12.654   4.788
64311W        W23814  22.199   9.679  11.573
64312W        W23815  39.028  33.605   3.819
64313W        W23816  22.135  13.666  12.082
64314W        W23817  14.605  17.603  11.603
64315W        W23818  19.638  32.935  11.891
64316W        W23819  19.623  44.491  14.371
64317W        W23820   7.682  33.061   0.438
64318W        W23821  36.487  42.293  12.516
64319W        W23822   9.296  37.567  11.413
64320W        W23823  27.067  28.993  10.480
64321W        W23824  40.540   7.750   4.645
64322W        W23825  32.397  18.224  12.501
64323W        W23826  18.112  35.550   1.737
64324W        W23827  39.871  24.692  12.506
64325W        W23828  40.417  39.339   2.801
64326W        W23829  38.861  13.271   2.689
64327W        W23830  43.271  40.823  12.897
64328W        W23831  40.347  19.722  13.041
64329W        W23832  43.019  26.090  11.457
64330W        W23833   8.766   2.806   0.432
64331W        W23834  41.430  13.601  11.572
64332W        W23835  19.652  19.678   0.835
64333W        W23836   5.747  10.725  13.811
64334W        W23837  27.527   1.926  12.523
64335W        W23838  32.530  26.979  12.376
64336W        W23839  31.425  38.550   1.895
64337W        W23840  38.031  42.367  11.069
64338W        W23841  25.698  29.955   4.240
64339W        W23842   8.658  34.903  10.468
64340W        W23843  21.220  11.856   0.369
64341W        W23844   8.752  20.675  14.967
64342W        W23845   9.177  37.992   0.463
64343W        W23846  18.134  19.764   4.220
64344W        W23847  18.647  23.601   0.374
64345W        W23848  37.574  35.571   3.713
64346W        W23849  43.383  35.895  10.064
64347W        W23850  13.339  31.968  14.315
64348W        W23851  44.324  17.297   3.844
64349W        W23852   2.373   4.776   0.807
64350W        W23853   5.234  39.435  12.398
64351W        W23854  30.587  21.065  13.063
64352W        W23855   1.800  20.083   4.604
64353W        W23856  20.198  22.222   4.685
64354W        W23857  12.171  31.423   1.758
64355W        W23858  31.152  14.303  13.797
64356W        W23859  10.816   6.321   0.834
64357W        W23860  16.130  37.517  13.441
64358W        W23861  14.652   3.373   2.273
64359W        W23862  31.432  42.891   2.772
64360W        W23863  38.439   6.258  13.873
64361W        W23864  33.013  11.734  11.120
64362W        W23865   2.772  39.342   3.206
64363W        W23866  33.391  26.701   4.193
64364W        W23867  43.333  20.266   0.761
64365W        W23868  22.738   2.306  13.378
64366W        W23869  15.697  41.347  12.049
64367W        W23870  26.569  32.444  14.354
64368W        W23871  33.438  17.801   0.471
64369W        W23872  33.023  20.683   2.371
64370W        W23873   8.712  34.074  12.481
64371W        W23874  16.258  35.881   1.932
64372W        W23875  22.083  31.124  13.356
64373W        W23876  35.052  23.165   4.299
64374W        W23877   4.740  36.483   2.833
64375W        W23878  10.764  19.600   2.383
64376W        W23879  17.111  37.478   0.918
64377W        W23880  20.719   8.779   4.131
64378W        W23881  40.897   3.803  14.447
64379W        W23882  41.318   4.801  13.058
64380W        W23883  21.018  20.188  10.890
64381W        W23884  21.162  11.185  14.010
64382W        W23885  44.870  43.435  10.640
64383W        W23886  27.058   6.682  13.479
64384W        W23887  21.077  20.569  11.977
64385W        W23888  32.552   1.874  13.959
64386W        W23889  36.943  32.971   4.275
64387W        W23890  10.250   1.845   4.641
64388W        W23891  44.833  17.253  13.931
64389W        W23892   5.259  32.031   4.657
64390W        W23893  17.244  14.230  10.931
64391W        W23894  37.433  14.094   2.313
64392W        W23895  42.799  12.280  11.522
64393W        W23896  26.549  21.573  13.312
64394W        W23897   4.380   3.306   4.758
64395W        W23898  27.945   9.716  10.475
64396W        W23899   1.953  33.959   4.348
64397W        W23900   7.399   6.386  13.366
64398W        W23901  19.278   3.805   2.338
64399W        W23902  36.964  28.066  14.436
64400W        W23903   9.336  15.578   0.914
64401W        W23904  44.882  42.819  10.629
64402W        W23905  44.383  29.433   0.931
64403W        W23906  25.189  26.464  11.523
64404W        W23907   8.870  15.322   0.923
64405W        W23908   6.808  37.363   4.819
64406W        W23909   1.824  25.623   1.720
64407W        W23910   6.367   6.682  13.028
64408W        W23911   0.354  41.475  12.936
64409W        W23912  41.517   3.461   2.183
64410W        W23913  21.251   1.350   0.414
64411W        W23914  35.939  10.731   1.725
64412W        W23915  34.018  18.764  12.974
64413W        W23916  25.669   6.337  10.622
64414W        W23917  17.712  34.510  10.412
64415W        W23918   0.366  36.358  12.396
64416W        W23919  14.791   4.221   0.480
64417W        W23920   3.442  24.584  12.996
64418W        W23921  33.999  15.090  12.009
64419W        W23922  17.163   7.907  12.865
64420W        W23923   9.772   6.349   4.266
64421W        W23924  15.691  26.157  14.975
64422W        W23925  29.460  30.004   3.829
64423W        W23926  43.341  31.487  10.441
64424W        W23927  25.990   9.766   4.279
64425W        W23928   1.371  32.554   2.729
64426W        W23929  40.482  16.164  11.388
64427W        W23930  16.786  17.232  14.895
64428W        W23931  38.027  23.561   1.391
64429W        W23932  28.170   2.360  10.476
64430W        W23933  30.632  34.110  11.061
64431W        W23934  36.904  24.486  13.942
64432W        W23935  26.498  25.149   1.909
64433W        W23936  42.498  28.956  11.968
64434W        W23937   9.770  16.739  10.918
64435W        W23938  41.472   7.213   0.322
64436W        W23939  40.819  39.439   4.723
64437W        W23940   4.295  42.973  14.436
64438W        W23941  28.480  25.020   3.743
64439W        W23942  31.089   9.695  11.419
64440W        W23943  38.895   2.465   3.638
64441W        W23944   5.748  27.472  13.955
64442W        W23945  36.390  34.580  12.063
64443W        W23946  40.804   8.252  10.928
64444W        W23947  38.529  44.371  13.368
64445W        W23948  40.395   3.341   4.227
64446W        W23949  39.861   3.915   3.152
64447W        W23950   7.336  30.000  12.002
64448W        W23951  12.828   7.285  13.805
64449W        W23952  31.541  41.327   3.726
64450W        W23953   0.362  14.697  14.812
64451W        W23954   9.169  23.122   4.686
64452W        W23955   9.724   6.847   4.207
64453W        W23956  15.234  11.686  14.007
64454W        W23957  22.668   4.203   1.913
64455W        W23958  39.519  14.285   0.312
64456W        W23959  34.545   8.677  13.436
64457W        W23960  31.066  28.523   3.841
64458W        W23961  39.444   1.891  10.625
64459W        W23962  30.517  18.131   1.734
64460W        W23963  39.911  33.404  13.792
64461W        W23964  31.087  13.745   4.251
64462W        W23965  10.277   8.775   2.686
64463W        W23966  19.551  44.821   4.730
64464W        W23967  15.716  40.545   3.171
64465W        W23968  20.218  42.307  13.493
64466W        W23969  33.521   0.429  11.542
64467W        W23970   3.852   7.290   0.776
64468W        W23971  14.652  25.133   2.382
64469W        W23972  31.934  42.805  14.862
64470W        W23973  11.674  18.226  13.817
64471W        W23974  11.825  38.521  14.492
64472W        W23975   2.727  25.644  13.374
64473W        W23976  13.177   9.324  13.496
64474W        W23977  40.000  42.884  13.354
64475W        W23978   3.325  27.516  14.395
64476W        W23979  38.368  17.198   3.700
64477W        W23980   1.937  24.128  14.952
64478W        W23981   8.860  26.048   4.264
64479W        W23982  42.450   6.256   3.635
64480W        W23983  27.187   1.312  12.553
64481W        W23984   5.690  25.578  11.425
64482W        W23985   8.656  20.081  14.410
64483W        W23986  39.445  11.676  14.459
64484W        W23987  24.091  38.386   2.689
64485W        W23988  15.680  12.674  13.530
64486W        W23989   3.391  32.432  11.939
64487W        W23990  16.596  29.932  14.921
64488W        W23991  13.263  31.124  11.881
64489W        W23992  26.005  41.940  14.778
64490W        W23993  23.606   2.950   3.308
64491W        W23994  37.370   7.779  11.471
64492W        W23995   6.913   5.338  11.371
64493W        W23996  12.628   2.364  11.102
64494W        W23997  38.875  17.218   2.383
64495W        W23998  36.947   8.369  11.477
64496W        W23999  43.886  29.036  14.843
64497W        W24000  13.220   5.703   3.245
64498W        W24001   8.863  13.182  14.826
64499W        W24002  24.557  44.288  11.979
64500W        W24003  30.046  17.601   2.374
64501W        W24004  34.942   9.289   2.730
64502W        W24005   8.830  22.145  10.526
64503W        W24006  42.459   6.703  13.819
64504W        W24007   4.277  30.616  14.943
64505W        W24008  43.488  27.594   1.427
64506W        W24009  23.037  16.649   1.746
64507W        W24010  24.581   8.372   3.275
64508W        W24011  25.518  22.701  13.921
64509W        W24012  18.084  16.642   4.656
64510W        W24013  28.120  10.842   4.274
64511W        W24014   0.943   2.778  11.432
64512W        W24015  42.888  22.548   1.760
64513W        W24016  35.899  12.230  11.126
64514W        W24017   4.801  26.519   2.749
64515W        W24018   4.229  37.989  12.922
64516W        W24019  29.513  23.093   2.724
64517W        W24020  44.913  37.522  11.458
64518W        W24021   0.263   4.290   1.238
64519W        W24022  32.504  41.921  12.870
64520W        W24023  15.284  35.525   3.671
64521W        W24024  20.617  10.703  11.904
64522W        W24025   4.425   1.429   3.190
64523W        W24026  17.070  24.040   0.870
64524W        W24027  15.131  19.705  11.124
64525W        W24028  36.568  16.162   2.834
64526W        W24029  43.504  30.630   1.914
64527W        W24030  41.986  30.588   0.947
64528W        W24031  24.040  29.923   3.297
64529W        W24032  24.169  43.903  11.574
64530W        W24033   1.954   1.239   2.722
64531W        W24034  44.291  32.045   1.407
64532W        W24035   1.925   4.434   0.874
64533W        W24036  42.329  37.568   0.421
64534W        W24037  20.272  34.414  11.569
64535W        W24038  25.989  10.346   2.834
64536W        W24039   1.862  39.962  13.348
64537W        W24040   6.784  12.178   2.209
64538W        W24041  15.187  27.538  12.847
64539W        W24042  26.530  18.261  12.386
64540W        W24043  14.314  35.857  14.464
64541W        W24044  29.986  22.047  11.128
64542W        W24045   8.390  24.602   3.341
64543W        W24046  33.924   5.849   3.168
64544W        W24047  26.196  37.961   0.731
64545W        W24048  41.042  30.446   2.378
64546W        W24049   6.246  23.567  12.362
64547W        W24050  12.326   6.327  14.437
64548W        W24051  16.196  29.530   1.907
64549W        W24052   6.777  18.196  14.929
64550W        W24053  17.695  44.310   3.304
64551W        W24054  44.754   3.942  10.456
64552W        W24055  42.384   9.275  13.441
64553W        W24056  32.941  11.190  13.358
64554W        W24057  11.333  24.087   0.830
64555W        W24058  43.946  16.595  14.978
64556W        W24059   9.340  22.077   4.116
64557W        W24060  40.047  27.552   1.836
64558W        W24061  38.514   7.291   1.723
64559W        W24062   3.259  39.871   4.633
64560W        W24063  44.805   3.299   4.813
64561W        W24064  36.502  39.054   4.210
64562W        W24065  25.147  43.329   1.768
64563W        W24066  43.884  23.643   4.343
64564W        W24067   5.393  32.450  12.915
64565W        W24068  20.575  44.388  11.489
64566W        W24069  25.599  35.866  13.856
64567W        W24070  33.113  43.866  11.497
64568W        W24071   8.888  28.015   3.633
64569W        W24072  39.516  40.027   3.378
64570W        W24073  22.242   9.822  10.515
64571W        W24074   2.755   5.908  11.378
64572W        W24075  16.247  39.470   3.183
64573W        W24076  11.660   9.288  10.540
64574W        W24077  10.865  27.163   2.256
64575W        W24078  15.241   6.813   1.220
64576W        W24079  35.466  12.210  14.931
64577W        W24080  22.244  19.577  13.479
64578W        W24081  14.325  25.966  13.995
64579W        W24082  39.982  41.333   3.221
64580W        W24083  19.664   4.300  14.852
64581W        W24084   9.701  40.048  13.990
64582W        W24085  36.012  43.007   4.211
64583W        W24086  10.650  16.267  12.574
64584W        W24087  43.891  35.600  13.437
64585W        W24088  10.322  24.066  13.357
64586W        W24089  29.480  41.505   3.323
64587W        W24090  10.780   4.335  10.633
64588W        W24091  34.901  22.663   1.917
64589W        W24092  30.562  11.694  14.959
64590W        W24093  14.115   6.736  11.003
64591W        W24094  10.862   3.400  14.427
64592W        W24095  33.058   8.883   4.730
64593W        W24096  15.713  23.697   0.866
64594W        W24097  21.019   1.744  13.409
64595W        W24098  40.352   4.277   0.296
64596W        W24099  41.511  42.021   3.630
64597W        W24100  37.873  21.567  10.495
64598W        W24101   0.413   7.374   4.781
64599W        W24102  10.277  30.432   4.146
64600W        W24103  16.319  34.887   1.441
64601W        W24104   0.829  11.256  13.406
64602W        W24105  30.148   5.893   0.437
64603W        W24106  37.553   8.870  12.016
64604W        W24107  23.680   6.700  13.419
64605W        W24108  28.980  13.157   9.475
64606W        W24109   2.318  35.038  14.790
64607W        W24110  10.347  33.009   1.901
64608W        W24111  25.197  19.236   3.754
64609W        W24112  11.644  43.329   3.695
64610W        W24113   1.955  27.470   3.735
64611W        W24114  10.375  25.509   3.724
64612W        W24115   6.920  20.716   4.304
64613W        W24116  24.715  35.856   2.226
64614W        W24117  28.170  31.593   1.795
64615W        W24118  14.757  35.929   3.299
64616W        W24119  37.411  24.977   1.816
64617W        W24120  11.286   7.176   1.273
64618W        W24121  33.626  12.683  12.070
64619W        W24122  31.995  40.468  12.058
64620W        W24123  42.898  22.684   4.187
64621W        W24124   3.328  38.435   3.715
64622W        W24125   5.343  25.557  13.987
64623W        W24126   2.756  42.029   1.856
64624W        W24127   7.805   4.780   3.754
64625W        W24128   6.732  11.171  14.405
64626W        W24129  39.398  16.146   2.674
64627W        W24130   3.315  10.832  12.451
64628W        W24131  39.840  41.466  12.948
64629W        W24132   1.258  44.312   0.412
64630W        W24133   8.255  32.518   2.760
64631W        W24134   0.477  20.545  12.524
64632W        W24135  23.595   2.422  12.085
64633W        W24136   8.169   8.325  14.353
64634W        W24137  24.985  36.968  11.105
64635W        W24138  27.582   5.783   3.791
64636W        W24139  40.473  29.066  14.370
64637W        W24140  14.117  35.036   0.374
64638W        W24141  32.130  34.017  13.430
64639W        W24142  22.199  33.942   1.720
64640W        W24143  33.915   7.781   2.887
64641W        W24144  38.994  21.735   2.399
64642W        W24145  32.596  25.016  13.020
64643W        W24146  33.584   6.244   2.779
64644W        W24147  13.228   3.291   0.419
64645W        W24148  38.461   3.749  13.344
64646W        W24149  23.093  13.328  11.575
64647W        W24150  10.860  24.139  11.500
64648W        W24151  19.100  34.013  11.886
64649W        W24152  42.492  24.018  13.542
64650W        W24153  42.822  32.981  14.939
64651W        W24154  24.027  26.694   2.809
64652W        W24155  30.982  44.325  13.908
64653W        W24156  11.224  15.731  11.999
64654W        W24157  17.151  34.900   0.764
64655W        W24158  33.968  42.397  14.373
64656W        W24159  36.881  31.140  13.978
64657W        W24160  38.977  18.756   1.917
64658W        W24161  25.650  24.505  13.977
64659W        W24162  39.371  29.648  10.474
64660W        W24163  10.810  33.095  14.348
64661W        W24164  35.460  27.018   1.774
64662W        W24165  27.100   5.927   3.867
64663W        W24166  43.384  13.666   4.230
64664W        W24167   5.209  12.680   0.933
64665W        W24168   6.192   3.267   3.353
64666W        W24169  42.324   0.277   3.374
64667W        W24170   1.452  28.176   0.756
64668W        W24171   1.463   7.897   0.430
64669W        W24172  14.268  19.691   4.267
64670W        W24173  21.219  35.505  13.833
64671W        W24174  22.113  21.218  10.404
64672W        W24175  26.487  29.499  10.635
64673W        W24176  42.816  26.033   3.373
64674W        W24177  18.722  15.617   4.838
64675W        W24178  39.927  18.699   0.408
64676W        W24179   0.389  26.580   5.784
64677W        W24180  29.016  19.625   1.423
64678W        W24181  34.962  24.078  11.539
64679W        W24182  13.140  41.835  12.372
64680W        W24183  27.178  25.163   4.123
64681W        W24184   2.359  40.954   2.750
64682W        W24185  13.785  38.940  12.903
64683W        W24186  35.921   0.272   3.846
64684W        W24187   0.258  14.258   0.794
64685W        W24188  26.521  11.819  13.988
64686W        W24189  35.098  24.602   3.189
64687W        W24190  31.090  32.537   3.734
64688W        W24191   8.880   7.415   4.708
64689W        W24192  12.767  11.719   1.228
64690W        W24193  40.311  18.103   3.674
64691W        W24194  39.315  23.646   2.739
64692W        W24195  18.617   4.763  13.515
64693W        W24196  16.256  33.105  12.068
64694W        W24197  31.442  38.892  14.832
64695W        W24198   0.491   0.424   2.882
64696W        W24199  24.522   0.777   1.316
64697W        W24200   3.315  22.652   4.301
64698W        W24201  43.438  17.714   3.700
64699W        W24202  39.056  14.693   3.347
64700W        W24203  26.524  40.499  14.891
64701W        W24204  32.575  22.088  14.840
64702W        W24205  22.018  28.589  14.945
64703W        W24206  42.864  20.739   9.972
64704W        W24207  25.586  35.359   1.916
64705W        W24208  42.402  18.552  12.539
64706W        W24209  38.558  41.349   1.795
64707W        W24210   2.820  12.613  13.399
64708W        W24211  29.496   5.411   3.375
64709W        W24212  34.435  30.157   3.662
64710W        W24213  37.066  43.377  13.346
64711W        W24214  34.950  16.257  11.600
64712W        W24215   7.198  37.540  10.982
64713W        W24216  20.064  10.768  14.389
64714W        W24217   4.772  40.514  10.618
64715W        W24218  14.244  29.626  13.544
64716W        W24219  11.272   9.847   0.841
64717W        W24220  11.700  33.498   2.751
64718W        W24221  39.529  21.103   0.908
64719W        W24222  14.662  33.591  10.916
64720W        W24223  39.394  37.574  14.382
64721W        W24224  36.082  32.050   4.223
64722W        W24225   9.676  14.731   2.203
64723W        W24226  39.986  30.504   2.312
64724W        W24227  35.520   9.672  11.932
64725W        W24228   4.226  35.549  10.632
64726W        W24229  33.050  18.132  13.918
64727W        W24230   6.803  15.798   2.673
64728W        W24231  12.131  28.107   1.776
64729W        W24232  25.095  17.100  12.972
64730W        W24233  15.712  43.994  12.832
64731W        W24234  41.863  36.544   4.778
64732W        W24235  10.342  34.460  12.895
64733W        W24236  44.332  11.732   2.823
64734W        W24237  10.737  11.730   3.221
64735W        W24238   7.687  14.125  11.591
64736W        W24239   1.819  27.044   4.238
64737W        W24240  19.234  38.396   0.326
64738W        W24241  35.358   3.878   3.170
64739W        W24242  42.803  40.449  13.528
64740W        W24243   4.828  12.228   1.786
64741W        W24244  44.786   0.439   2.712
64742W        W24245  28.579  34.513   3.319
64743W        W24246  35.579   1.870   2.319
64744W        W24247  13.111  31.434  11.595
64745W        W24248  13.340  38.408   1.409
64746W        W24249   1.375  42.410   3.679
64747W        W24250  28.445   0.375   4.237
64748W        W24251   0.941  44.495  11.438
64749W        W24252   2.765  33.030  11.403
64750W        W24253  18.781  28.025  12.964
64751W        W24254  23.075   8.246   4.117
64752W        W24255   0.277  12.184   4.601
64753W        W24256   8.365  40.906   2.863
64754W        W24257   4.384  20.234   4.338
64755W        W24258  19.160  16.662  11.972
64756W        W24259  40.864  10.663  14.334
64757W        W24260  13.695  13.723   3.633
64758W        W24261  20.539   8.765   3.171
64759W        W24262  41.335  32.992   3.851
64760W        W24263  23.533  23.644  11.021
64761W        W24264  34.002  12.662  13.970
64762W        W24265   2.815  41.527  14.867
64763W        W24266  17.720  21.738   0.366
64764W        W24267   8.305   0.393  12.847
64765W        W24268  24.986   4.758  10.600
64766W        W24269  19.652  37.954   5.134
64767W        W24270   2.915  28.027   2.227
64768W        W24271  28.469  30.524  12.863
64769W        W24272   4.299  14.262  13.958
64770W        W24273  13.287  37.913   1.864
64771W        W24274  44.891  37.841   3.683
64772W        W24275  25.071  37.515   1.697
64773W        W24276   8.170  19.672  11.435
64774W        W24277  19.708  17.754   2.792
64775W        W24278  27.034  27.652  13.793
64776W        W24279  26.170  22.201   0.431
64777W        W24280  38.939  39.020   0.752
64778W        W24281  44.439  17.277   1.868
64779W        W24282  17.751  13.768   0.265
64780W        W24283  31.997   3.373  12.832
64781W        W24284  28.950  18.597  11.008
64782W        W24285  16.306   4.719  11.420
64783W        W24286  17.745  35.977  13.348
64784W        W24287  36.568  22.189  14.422
64785W        W24288  18.166  32.887   0.905
64786W        W24289  42.457  37.439  10.499
64787W        W24290  37.446  43.331   4.253
64788W        W24291   6.875  25.026  14.378
64789W        W24292   3.905  36.842  11.009
64790W        W24293   7.829   7.800  13.424
64791W        W24294  38.024  10.266  11.883
64792W        W24295  26.102  24.504  12.904
64793W        W24296  29.461  17.206   3.189
64794W        W24297  20.537   7.891   4.603
64795W        W24298  23.680  37.391   4.262
64796W        W24299  18.210  37.548  11.956
64797W        W24300  34.022  39.921  10.915
64798W        W24301  23.222   9.341   4.308
64799W        W24302  23.574  23.564  13.356
64800W        W24303   8.246   3.373  13.037
64801W        W24304  43.270  12.318  11.437
64802W        W24305  29.426   5.723  10.439
64803W        W24306  22.213   2.338  12.513
64804W        W24307   5.405  27.527  13.003
64805W        W24308  11.663  42.475  10.116
64806W        W24309  36.479  38.359   2.271
64807W        W24310  19.203   7.757   3.293
64808W        W24311  10.160  28.043   0.278
64809W        W24312  10.248  34.440   3.808
64810W        W24313   7.714   2.870  12.414
64811W        W24314   0.474  22.575  13.866
64812W        W24315  41.495  20.668   1.430
64813W        W24316  33.406  39.814  11.389
64814W        W24317  14.747  35.921  13.473
64815W        W24318  30.561  20.686  14.314
64816W        W24319  31.132  19.180   1.929
64817W        W24320  13.705  42.976  14.912
64818W        W24321  10.234  22.138   0.938
64819W        W24322  14.653   1.346   0.342
64820W        W24323   0.946  17.613   0.870
64821W        W24324   7.893  17.693  10.978
64822W        W24325  43.799  17.101  13.464
64823W        W24326  17.261  24.112  13.416
64824W        W24327   2.954  35.961  11.605
64825W        W24328   7.334  36.080   4.321
64826W        W24329  37.849  36.017   3.682
64827W        W24330  41.948  28.168  12.959
64828W        W24331  25.165  26.980   3.288
64829W        W24332  17.594  27.449   3.637
64830W        W24333   9.844  25.052  13.321
64831W        W24334  33.916  37.855   0.810
64832W        W24335   1.944   3.342  14.504
64833W        W24336  37.398  18.633   4.702
64834W        W24337  38.927  40.812   1.303
64835W        W24338  39.920  11.673  12.551
64836W        W24339  13.682  36.559   3.722
64837W        W24340  34.567  32.131  11.018
64838W        W24341  40.503  22.085   0.795
64839W        W24342  41.881   4.856   3.255
64840W        W24343   8.353  38.429  12.365
64841W        W24344  19.063  19.093   1.224
64842W        W24345   1.973  25.591  14.946
64843W        W24346  13.744  44.336  13.030
64844W        W24347  10.153  42.404   3.805
64845W        W24348  42.778  33.589  12.482
64846W        W24349   6.761   3.248  14.299
64847W        W24350  35.401  30.473  12.567
64848W        W24351  40.306  31.955   3.264
64849W        W24352  30.560  39.903  12.036
64850W        W24353  25.617   7.342  11.943
64851W        W24354  31.089   7.315   1.381
64852W        W24355  27.996  33.540  10.008
64853W        W24356  43.494  31.412  12.013
64854W        W24357  25.593  43.304   2.722
64855W        W24358  12.174  24.176  13.900
64856W        W24359  20.252   5.425   4.761
64857W        W24360  19.198  30.075  12.091
64858W        W24361  40.849  38.877  12.506
64859W        W24362   5.849  28.066   2.711
64860W        W24363   2.294  10.228   0.831
64861W        W24364  33.118  23.094   4.616
64862W        W24365  26.020  38.480   4.726
64863W        W24366  35.569   8.744   3.235
64864W        W24367  44.898  18.200   0.249
64865W        W24368  25.569   5.234  13.390
64866W        W24369   8.708   4.798   0.457
64867W        W24370  34.894  42.306   2.402
64868W        W24371  23.731  28.594   0.742
64869W        W24372   6.256   8.842  14.917
64870W        W24373  27.953  14.201  11.953
64871W        W24374  28.449  14.258  12.873
64872W        W24375   9.830  11.320  11.531
64873W        W24376   1.391  14.281  14.333
64874W        W24377  24.640  40.389  13.527
64875W        W24378   9.776  30.599   3.147
64876W        W24379   1.367  15.729  12.545
64877W        W24380   4.378  27.110   4.827
64878W        W24381  13.601  27.468  11.118
64879W        W24382  12.690   5.248  13.387
64880W        W24383  41.880  24.101   0.899
64881W        W24384  28.990  43.317  11.865
64882W        W24385  29.610  29.971   3.294
64883W        W24386  30.583  41.867   2.412
64884W        W24387  28.576  20.525   0.959
64885W        W24388  28.107   7.694  12.067
64886W        W24389   8.397  28.929  12.906
64887W        W24390  11.667  44.903  13.912
64888W        W24391  37.852  11.747   4.133
64889W        W24392  14.255  11.676  11.383
64890W        W24393   6.877  33.439   0.269
64891W        W24394  41.810  17.117  11.030
64892W        W24395  20.270  22.706  12.456
64893W        W24396   1.915  34.901  10.415
64894W        W24397  16.159  29.130   2.194
64895W        W24398   6.305   6.690  14.834
64896W        W24399  22.716  14.213  13.026
64897W        W24400  40.412  29.445   3.812
64898W        W24401  27.977  41.368   1.781
64899W        W24402  13.702  13.756  11.046
64900W        W24403  32.074  15.704   9.965
64901W        W24404  28.980  14.177  11.857
64902W        W24405  44.362   9.727   3.292
64903W        W24406  22.164  10.830   1.760
64904W        W24407  33.564  22.617   4.337
64905W        W24408  20.719  24.056   2.222
64906W        W24409  41.517  42.866   4.777
64907W        W24410  17.068   5.290  14.003
64908W        W24411  13.793  28.007  14.303
64909W        W24412  21.124   8.887   1.446
64910W        W24413   2.933  36.412  11.487
64911W        W24414   7.371  39.951  13.847
64912W        W24415   3.426  11.699   0.445
64913W        W24416  43.491  23.184   2.339
64914W        W24417   6.263  18.694   2.711
64915W        W24418  31.001  40.358   1.323
64916W        W24419   5.241   6.395  13.899
64917W        W24420  22.644  14.155   0.346
64918W        W24421  41.384  29.949   3.713
64919W        W24422  13.642  22.590  13.898
64920W        W24423  30.919  10.764  13.873
64921W        W24424  42.022  33.529   4.611
64922W        W24425  35.601  39.003   2.721
64923W        W24426  11.628  20.105  13.468
64924W        W24427  31.896   9.327   4.654
64925W        W24428  22.741  19.769   5.183
64926W        W24429  23.640  29.546   3.340
64927W        W24430  18.094  15.610   2.855
64928W        W24431   1.287  31.582  12.854
64929W        W24432  10.175  18.633  14.514
64930W        W24433  13.794  35.377   0.926
64931W        W24434   9.253  38.023   3.180
64932W        W24435  28.598  21.741  12.926
64933W        W24436  39.377  22.717  11.611
64934W        W24437  24.725  41.810  10.506
64935W        W24438   3.796  19.114   2.380
64936W        W24439  36.415  10.154  13.016
64937W        W24440  26.591  41.031   0.362
64938W        W24441  37.345  37.386   4.314
64939W        W24442   4.360  17.596   3.758
64940W        W24443  23.070  17.773   0.480
64941W        W24444  17.757   1.380   4.757
64942W        W24445  10.139  14.668   0.784
64943W        W24446  28.595  34.596  13.809
64944W        W24447  37.534  36.429  12.380
64945W        W24448  17.752  32.891  13.021
64946W        W24449  26.155  33.609   3.208
64947W        W24450  15.288  15.202  14.346
64948W        W24451   3.917  29.094   4.721
64949W        W24452  26.052  27.546  10.487
64950W        W24453   0.752  32.472   3.813
64951W        W24454  41.032   4.399  14.456
64952W        W24455  29.108  36.962   2.231
64953W        W24456  31.634  39.982   0.438
64954W        W24457  26.585  35.468  14.835
64955W        W24458  25.140   9.160   3.352
64956W        W24459  13.169  27.671  14.463
64957W        W24460  14.684  11.787  12.377
64958W        W24461  43.933  15.681   3.831
64959W        W24462  25.170   5.840  12.361
64960W        W24463  22.511  15.083  13.401
64961W        W24464  19.737  12.192   3.776
64962W        W24465  10.155   1.293  12.007
64963W        W24466  34.392  11.285   3.189
64964W        W24467   1.913  40.980  13.815
64965W        W24468  29.034   1.939  11.861
64966W        W24469   0.800  41.524   2.299
64967W        W24470   5.282  32.402   0.782
64968W        W24471  25.538  13.295   2.251
64969W        W24472   2.859  21.041   4.179
64970W        W24473   6.850  34.408   0.323
64971W        W24474  11.215  36.384   2.199
64972W        W24475  35.500  38.928  10.965
64973W        W24476  27.484   2.283  12.446
64974W        W24477   8.272  23.537   3.273
64975W        W24478   1.271  19.211  10.575
64976W        W24479  40.475  39.482   2.208
64977W        W24480  38.387   3.947   2.797
64978W        W24481  39.879  22.030   2.682
64979W        W24482  16.147  44.325   3.631
64980W        W24483  42.383  43.496   1.305
64981W        W24484   3.405  10.750  12.897
64982W        W24485   7.206  44.349  10.959
64983W        W24486  37.845  29.054  13.494
64984W        W24487  27.025   4.327   1.723
64985W        W24488  19.551  42.002  12.406
64986W        W24489  23.175   6.268  10.068
64987W        W24490  24.174  14.755  14.389
64988W        W24491  33.060  10.367   2.249
64989W        W24492  18.711   6.182   3.644
64990W        W24493  38.371  19.693   5.114
64991W        W24494  20.175  18.687   1.301
64992W        W24495  35.410  19.578  10.615
64993W        W24496   0.490  28.636  13.343
64994W        W24497  20.092   2.932   4.764
64995W        W24498  44.764   8.785   0.439
64996W        W24499  17.567  22.504  12.076
64997W        W24500  38.527  13.244  10.587
64998W        W24501  37.540  18.715   3.158
64999W        W24502  35.917  32.133   4.683
65000W        W24503  35.949  25.200  10.910
65001W        W24504   4.436  22.123  14.315
65002W        W24505   6.743  21.698  14.381
65003W        W24506  34.437  32.046   2.389
65004W        W24507  40.813   3.364   4.703
65005W        W24508  21.185   9.714   3.787
65006W        W24509  43.385  34.025   4.216
65007W        W24510  21.610   5.356  12.046
65008W        W24511  40.977  11.857  13.877
65009W        W24512  20.594   3.268  12.899
65010W        W24513  44.905  44.823  13.015
65011W        W24514  15.302  36.385   4.116
65012W        W24515  13.136  39.440   4.683
65013W        W24516  23.019  35.600  13.805
65014W        W24517  29.050  11.687   3.639
65015W        W24518  14.221   5.217   3.651
65016W        W24519   2.763  26.525   9.962
65017W        W24520  30.069  30.591   3.805
65018W        W24521  36.400  19.129   2.345
65019W        W24522  20.676  31.544   0.376
65020W        W24523  17.123  37.422  10.462
65021W        W24524   5.392  25.573   1.279
65022W        W24525  21.668   7.704  14.928
65023W        W24526  21.520   8.864  14.888
65024W        W24527  19.071  40.960   4.670
65025W        W24528  41.483  42.501   0.390
65026W        W24529   4.881   2.292   4.333
65027W        W24530   6.407  25.539  13.900
65028W        W24531  22.079  33.107   3.822
65029W        W24532  14.218   7.792  11.973
65030W        W24533   7.384  26.535  10.428
65031W        W24534   8.383  34.399   0.326
65032W        W24535  31.072   8.901   0.453
65033W        W24536   2.790  29.505  11.590
65034W        W24537  16.188  40.448   2.218
65035W        W24538  41.986  26.552  13.540
65036W        W24539  41.439   4.845   2.386
65037W        W24540  27.127  33.407   9.920
65038W        W24541  11.184  35.485  14.878
65039W        W24542  14.185  39.434  11.992
65040W        W24543  41.992  42.306  12.365
65041W        W24544  30.585  25.102   5.275
65042W        W24545  37.914  37.544  11.065
65043W        W24546  13.335   6.249  10.953
65044W        W24547  44.279  18.102   2.363
65045W        W24548  11.847   9.201   0.357
65046W        W24549  29.104  20.121  12.074
65047W        W24550  39.442  12.355  14.331
65048W        W24551  16.151  32.600  10.515
65049W        W24552  25.580  34.468  10.013
65050W        W24553  33.414  34.951  11.017
65051W        W24554   7.385  28.154   3.273
65052W        W24555   4.327  43.946  12.510
65053W        W24556  12.833  44.319   0.758
65054W        W24557  28.596  22.544  12.452
65055W        W24558  29.503  27.078   3.289
65056W        W24559  38.548  19.280   3.804
65057W        W24560   8.672  22.592   4.147
65058W        W24561   7.727  25.549   4.217
65059W        W24562   5.226  38.889   4.666
65060W        W24563   9.856   5.802   4.265
65061W        W24564   0.900  11.683   3.803
65062W        W24565  18.676  40.995   2.213
65063W        W24566  31.152   3.362  12.516
65064W        W24567   2.869  29.108  12.507
65065W        W24568   2.471  20.257  12.947
65066W        W24569  15.630  10.773  13.957
65067W        W24570  25.093  34.451   0.338
65068W        W24571  28.678  42.291   1.309
65069W        W24572  39.850  40.451  11.124
65070W        W24573  14.286  34.393   4.141
65071W        W24574  19.282  13.651   0.949
65072W        W24575  15.202  34.589   1.881
65073W        W24576   3.429  29.621   3.286
65074W        W24577  21.751  17.166  11.433
65075W        W24578  41.331  41.838  11.952
65076W        W24579  33.129  11.188   3.701
65077W        W24580  13.610  27.555  13.485
65078W        W24581   3.295   1.314   1.929
65079W        W24582  29.083  19.779  12.972
65080W        W24583  32.962  16.693  14.921
65081W        W24584  25.625  33.401   4.734
65082W        W24585  41.296  34.505  10.470
65083W        W24586  16.230   1.386   2.355
65084W        W24587  16.154  15.251  13.949
65085W        W24588  19.745   4.742   2.206
65086W        W24589  12.774  40.985   0.435
65087W        W24590  39.886  14.609   3.857
65088W        W24591  14.151  13.218   5.303
65089W        W24592  15.286  27.042   3.654
65090W        W24593  31.542  38.986  11.991
65091W        W24594  24.974  11.196   1.864
65092W        W24595  36.938  15.175   4.240
65093W        W24596  23.551  35.520   0.272
65094W        W24597  16.263  10.331   0.264
65095W        W24598  43.923  40.454   3.240
65096W        W24599  27.550   6.852   1.387
65097W        W24600  38.021  21.117   4.719
65098W        W24601  24.661  40.813  11.560
65099W        W24602   4.349   6.193  10.510
65100W        W24603  14.112  18.118  14.787
65101W        W24604   3.784   6.393   0.758
65102W        W24605  39.476  19.755  12.008
65103W        W24606   7.193   8.276   4.347
65104W        W24607  21.250   0.836   9.477
65105W        W24608  25.046  38.932   1.858
65106W        W24609   4.916  16.111  11.438
65107W        W24610  26.489  44.900   0.466
65108W        W24611  36.583  24.041  11.571
65109W        W24612  32.064  13.228  13.917
65110W        W24613  27.640  38.928  11.082
65111W        W24614  43.313  37.392   0.297
65112W        W24615   2.933  32.936   3.293
65113W        W24616  34.975  17.772   4.223
65114W        W24617  29.505   5.831  14.336
65115W        W24618  16.308  42.290  14.874
65116W        W24619  22.016  11.279  11.922
65117W        W24620  18.269  27.619  11.096
65118W        W24621  36.524   6.740  10.910
65119W        W24622  25.103  41.467   3.674
65120W        W24623   5.913  36.444   4.345
65121W        W24624   3.228   6.833   3.342
65122W        W24625  38.869  23.110  13.060
65123W        W24626  13.347   9.224  11.020
65124W        W24627  36.455   5.830  13.952
65125W        W24628  13.809  19.192   0.452
65126W        W24629  11.805  36.990  10.975
65127W        W24630  17.624  25.668  12.524
65128W        W24631  21.228  40.926  11.403
65129W        W24632  18.141   9.198  13.799
65130W        W24633  34.023  22.611   4.139
65131W        W24634  18.703  37.398   0.266
65132W        W24635  31.414  21.132  11.451
65133W        W24636  25.974  37.066   3.194
65134W        W24637  39.021  27.459  10.599
65135W        W24638   9.804  19.780  14.441
65136W        W24639  24.519  14.113  11.955
65137W        W24640  30.070  33.098  13.916
65138W        W24641  24.117  23.607   4.310
65139W        W24642   2.390  22.588  10.004
65140W        W24643  16.800   4.698   2.861
65141W        W24644   5.751  23.537  11.535
65142W        W24645  34.971  43.929   4.169
65143W        W24646  11.204  18.638   0.874
65144W        W24647  40.306   7.846  14.405
65145W        W24648   9.364   2.734   1.819
65146W        W24649  11.245  10.240  13.307
65147W        W24650  12.834  14.337  10.494
65148W        W24651  39.904  11.273  13.535
65149W        W24652  43.819  38.885  13.027
65150W        W24653  44.000  14.615  11.486
65151W        W24654  13.790  21.020   2.822
65152W        W24655  17.269  34.506  11.106
65153W        W24656   5.845  33.006   2.799
65154W        W24657  14.239  35.096  13.935
65155W        W24658  38.456   9.779   1.344
65156W        W24659  26.479  16.795  14.899
65157W        W24660  26.540   5.908  14.784
65158W        W24661   8.695  28.681  10.938
65159W        W24662  22.180  37.399   1.419
65160W        W24663  35.053  31.424  13.928
65161W        W24664  35.584  35.074  13.955
65162W        W24665  17.065  37.886  13.810
65163W        W24666  22.101   3.264   2.382
65164W        W24667  22.173  26.547  10.487
65165W        W24668  30.659   9.343  11.956
65166W        W24669   7.338  19.730   4.776
65167W        W24670   5.402  19.214   1.357
65168W        W24671  35.063   6.853  12.983
65169W        W24672  29.667  13.311   1.329
65170W        W24673  38.458  41.988  12.832
65171W        W24674   2.904  41.536  10.407
65172W        W24675  34.044  35.491   3.305
65173W        W24676  42.460  41.013   2.362
65174W        W24677  14.126  13.680   3.753
65175W        W24678  23.635   6.250   3.755
65176W        W24679  40.908  22.228   2.823
65177W        W24680  29.978  34.589   2.771
65178W        W24681  36.553  30.915  14.025
65179W        W24682  33.560  36.096   3.782
65180W        W24683  32.130  43.770   2.280
65181W        W24684  38.995   9.304  13.461
65182W        W24685  18.688  12.745  14.348
65183W        W24686   8.736  28.983  10.470
65184W        W24687  20.173  41.446   3.745
65185W        W24688  10.351  25.121   5.249
65186W        W24689   5.341  13.624  10.502
65187W        W24690  15.611  10.877   4.598
65188W        W24691  23.213  28.583   4.769
65189W        W24692  44.322  37.489  14.343
65190W        W24693  35.989  23.697   4.687
65191W        W24694   4.890  11.352  13.928
65192W        W24695   9.746  32.021   3.152
65193W        W24696  25.195  37.489  14.877
65194W        W24697   7.193  32.954  11.571
65195W        W24698  17.220  17.233  13.818
65196W        W24699  27.952   0.411   1.820
65197W        W24700  18.209  11.838   3.231
65198W        W24701   5.289  19.111  14.985
65199W        W24702   3.893  24.508   3.229
65200W        W24703  40.890  42.961   2.857
65201W        W24704  22.182  26.182   0.297
65202W        W24705  10.258  40.310   0.325
65203W        W24706  19.140  24.212   0.296
65204W        W24707   3.283  26.661   4.675
65205W        W24708  34.877  44.929  10.956
65206W        W24709  39.509  10.165  11.072
65207W        W24710  18.573  28.664  10.938
65208W        W24711  14.609  28.112   0.287
65209W        W24712  32.592  22.596   0.478
65210W        W24713  11.632  35.403  12.436
65211W        W24714  25.129  21.601   2.379
65212W        W24715  17.061   5.306   4.838
65213W        W24716  33.610  35.509   1.420
65214W        W24717  39.847  23.641  10.927
65215W        W24718   3.865  23.735  11.475
65216W        W24719  14.661   5.223   1.308
65217W        W24720  29.557  21.721  12.035
65218W        W24721  34.459   1.426  13.528
65219W        W24722  32.555  14.321   1.807
65220W        W24723  32.472  34.100   0.862
65221W        W24724  19.280  20.604   1.443
65222W        W24725  19.140   9.833  12.828
65223W        W24726  44.376  30.916  11.048
65224W        W24727   4.726  38.384  11.027
65225W        W24728   8.901  11.193   4.615
65226W        W24729  24.527  36.462  12.956
65227W        W24730  17.701  32.470   3.320
65228W        W24731  40.871  40.517  14.806
65229W        W24732  15.235  44.996   2.257
65230W        W24733  10.335   8.863  14.849
65231W        W24734  19.750  32.591  13.335
65232W        W24735  31.038  17.206  12.948
65233W        W24736   0.789   2.904  12.456
65234W        W24737  29.033  12.681  14.918
65235W        W24738   2.892  22.109  14.300
65236W        W24739  22.742   8.801  11.583
65237W        W24740  33.528  36.040  11.043
65238W        W24741  17.190   7.225  14.913
65239W        W24742  23.990  29.081   4.189
65240W        W24743   4.334  11.636   1.917
65241W        W24744  26.514  35.914   2.843
65242W        W24745  18.753  10.284  11.948
65243W        W24746   7.179  24.657  11.484
65244W        W24747  11.206  24.055  14.836
65245W        W24748  39.037  19.625   1.411
65246W        W24749  36.052  44.417   3.837
65247W        W24750   5.917  21.582   4.252
65248W        W24751  38.352  42.422   1.291
65249W        W24752  32.122  18.752   5.108
65250W        W24753  28.479  18.090   4.123
65251W        W24754  38.479  22.528  14.346
65252W        W24755  42.861  33.612  14.361
65253W        W24756  36.473   5.269   0.366
65254W        W24757  34.409  36.081  12.848
65255W        W24758  36.922  27.481   4.299
65256W        W24759  10.193  19.555   4.238
65257W        W24760  14.138  10.746   2.410
65258W        W24761   3.430  24.985  11.481
65259W        W24762  29.989  19.120   0.265
65260W        W24763  31.433  20.752   3.729
65261W        W24764  33.477   5.794  11.445
65262W        W24765   4.412  12.674  13.797
65263W        W24766  15.217  35.585   2.355
65264W        W24767  30.071  34.908  12.931
65265W        W24768  22.645  20.049   4.667
65266W        W24769  19.236  38.461  10.449
65267W        W24770  29.569  33.892   0.264
65268W        W24771  28.052   1.255   1.888
65269W        W24772  11.682   3.319  11.867
65270W        W24773  20.100  38.939   0.376
65271W        W24774   5.199  10.698  14.962
65272W        W24775  35.432   4.811   3.219
65273W        W24776  11.636  23.605   3.330
65274W        W24777  22.591  13.274   3.294
65275W        W24778  29.551  36.086   0.913
65276W        W24779  40.989  17.164  10.566
65277W        W24780  17.249   3.382  13.930
65278W        W24781  43.346  26.547  14.419
65279W        W24782  39.392   3.736  12.348
65280W        W24783   2.956  29.468  10.887
65281W        W24784  37.353  14.612   2.794
65282W        W24785   7.278  33.052   2.899
65283W        W24786   5.319  30.633   1.812
65284W        W24787  21.619   4.860  14.377
65285W        W24788  15.193   0.478   4.146
65286W        W24789  15.239  33.588   1.263
65287W        W24790   0.338   1.239  14.912
65288W        W24791  12.118  24.620   3.712
65289W        W24792  24.614   2.777  13.461
65290W        W24793   7.852  27.601   0.925
65291W        W24794   7.712  19.769  11.396
65292W        W24795   7.889  33.562   3.853
65293W        W24796  20.273   3.249  11.373
65294W        W24797   8.271  40.490  13.343
65295W        W24798  17.138  33.540  14.030
65296W        W24799   6.866  11.799  13.041
65297W        W24800  24.559  38.342   4.245
65298W        W24801   2.745   0.881   1.451
65299W        W24802  18.178  36.580   2.774
65300W        W24803  27.519  29.481   0.739
65301W        W24804  40.843  41.903   4.622
65302W        W24805  26.033   4.437  13.907
65303W        W24806  14.701  22.996  10.406
65304W        W24807   7.867  22.529   1.802
65305W        W24808  27.611  44.952  11.577
65306W        W24809  26.654  43.860  13.426
65307W        W24810  43.768  30.992  10.527
65308W        W24811  28.537   9.659   2.381
65309W        W24812  35.568  31.498   3.797
65310W        W24813  15.731  22.119  10.611
65311W        W24814   2.943  35.859  11.935
65312W        W24815  42.473  31.918   4.224
65313W        W24816  17.734   8.238  11.463
65314W        W24817  22.138  16.610   3.860
65315W        W24818  22.539  16.712  10.102
65316W        W24819   4.831  15.749   0.840
65317W        W24820   9.342   7.365   2.865
65318W        W24821  27.126   1.300   3.365
65319W        W24822   9.192  28.459   0.243
65320W        W24823  18.252  35.447   4.233
65321W        W24824   6.314  35.105   0.413
65322W        W24825  16.703   6.375  13.854
65323W        W24826  20.164  30.970   1.916
65324W        W24827  43.321   3.736  12.883
65325W        W24828  19.107  40.798   1.733
65326W        W24829  33.967  30.039   2.813
65327W        W24830  11.652   1.844  14.893
65328W        W24831   6.344  15.143   9.597
65329W        W24832  20.693  39.544  12.023
65330W        W24833  17.252  14.274  10.569
65331W        W24834  31.145   8.398   2.250
65332W        W24835  31.589  37.007  14.781
65333W        W24836   2.324  32.924   0.414
65334W        W24837  33.897  23.154  11.885
65335W        W24838  23.166   7.347   1.325
65336W        W24839  43.361   3.410   3.682
65337W        W24840   2.841  11.271  12.454
65338W        W24841  15.092  20.702  13.003
65339W        W24842  43.381   9.707  12.479
65340W        W24843  23.677  21.058   3.714
65341W        W24844   7.307  25.689  14.786
65342W        W24845   7.805  15.772   1.907
65343W        W24846  27.136  41.309  12.502
65344W        W24847  25.653  15.215  11.006
65345W        W24848  32.566  36.905  14.341
65346W        W24849  14.661  23.022   0.887
65347W        W24850  28.566   5.879   2.868
65348W        W24851  25.011  44.973  12.395
65349W        W24852  29.572  33.381   4.340
65350W        W24853  17.191  13.275  11.491
65351W        W24854  39.367  30.107  10.957
65352W        W24855  18.568  24.997   2.777
65353W        W24856  25.582   5.225   4.340
65354W        W24857   5.218   1.940  14.918
65355W        W24858  19.053   6.760   0.391
65356W        W24859  33.487  36.531  13.939
65357W        W24860  27.057  22.527  10.455
65358W        W24861  17.693  17.212  14.306
65359W        W24862  30.441   7.689   2.758
65360W        W24863   1.373  25.199   0.754
65361W        W24864  44.854  32.973   2.731
65362W        W24865  36.042   7.892   4.801
65363W        W24866  44.951  33.474   1.851
65364W        W24867  24.227  27.505  13.923
65365W        W24868  12.824  20.261  11.429
65366W        W24869  19.693   6.397  14.986
65367W        W24870  21.249   3.919  11.906
65368W        W24871  33.560   9.664  13.959
65369W        W24872  28.609  35.358   4.247
65370W        W24873  28.043  37.341  11.051
65371W        W24874  40.385  25.541   4.223
65372W        W24875   4.736   9.253  11.479
65373W        W24876   9.794  11.136   4.732
65374W        W24877  11.144  26.127  12.921
65375W        W24878  34.461  32.934  11.486
65376W        W24879  38.950  12.631  14.027
65377W        W24880   7.223  33.919  13.331
65378W        W24881   6.296  35.381  12.523
65379W        W24882  28.657  12.658  11.946
65380W        W24883  16.694  20.755  11.434
65381W        W24884  16.117   3.902  10.480
65382W        W24885  41.890  26.522  14.472
65383W        W24886   4.824  14.117  14.340
65384W        W24887  36.472  35.921  11.025
65385W        W24888  43.809  37.958  11.462
65386W        W24889  38.864  15.279  10.958
65387W        W24890  12.129  11.246  14.489
65388W        W24891  44.781  23.519  11.598
65389W        W24892   3.902  24.678  14.458
65390W        W24893  18.064  27.032   0.792
65391W        W24894  39.484   3.423   2.732
65392W        W24895  42.951  32.422  14.988
65393W        W24896  12.285  11.837   2.705
65394W        W24897  34.994   6.251  14.949
65395W        W24898   9.254  21.719  12.519
65396W        W24899  17.270  13.630   2.302
65397W        W24900  31.641  15.178  14.448
65398W        W24901  30.574  30.988  13.887
65399W        W24902  23.102  22.166   0.476
65400W        W24903  32.600  43.275  14.767
65401W        W24904  36.561  22.060   1.214
65402W        W24905  33.905  21.551  12.480
65403W        W24906   0.280  17.131   4.302
65404W        W24907  30.575   3.217   2.400
65405W        W24908  15.220  10.856  13.040
65406W        W24909  38.031  40.878   1.343
65407W        W24910  36.919   8.707   4.121
65408W        W24911  37.945  20.537  13.386
65409W        W24912  37.431  32.606  11.500
65410W        W24913  19.764   2.840   3.827
65411W        W24914   7.211   6.815   3.183
65412W        W24915   5.304   9.716   2.739
65413W        W24916  22.533  39.927  13.522
65414W        W24917  43.402  11.303  10.545
65415W        W24918   6.422  12.675   0.252
65416W        W24919  43.794  17.745  10.964
65417W        W24920  10.798   3.426  10.492
65418W        W24921   9.687  21.620   4.625
65419W        W24922  39.898  35.467   4.743
65420W        W24923   7.764  40.517   5.143
65421W        W24924  24.149  14.186   4.297
65422W        W24925  13.349  11.764  11.447
65423W        W24926  29.966  14.714   9.935
65424W        W24927   6.832  34.378   1.713
65425W        W24928  24.205   5.199   3.841
65426W        W24929  26.639   4.830   4.734
65427W        W24930   0.872  36.592   1.281
65428W        W24931  39.442  10.869  14.316
65429W        W24932   9.175  24.095  14.927
65430W        W24933   6.713  35.571   0.384
65431W        W24934  18.136   8.297  10.574
65432W        W24935  33.994  12.753  10.956
65433W        W24936  14.185  17.576  13.006
65434W        W24937  28.117  12.668  11.968
65435W        W24938   7.769  27.100   3.247
65436W        W24939  17.755   4.851   2.671
65437W        W24940   0.894  22.725   2.303
65438W        W24941   9.153  35.396  10.159
65439W        W24942   6.305   9.339   4.626
65440W        W24943   1.278  34.606  13.015
65441W        W24944   1.311  24.095   4.221
65442W        W24945  20.147  41.466   2.281
65443W        W24946  10.212  26.596   4.774
65444W        W24947   9.257  18.773  14.759
65445W        W24948  14.178  16.675  10.582
65446W        W24949  24.171  19.712  10.914
65447W        W24950  14.609  14.249  14.959
65448W        W24951  38.341  44.812   4.602
65449W        W24952  33.875  28.485   9.546
65450W        W24953   4.361  18.244  11.127
65451W        W24954  44.454  21.126   2.222
65452W        W24955  31.145  19.580  12.579
65453W        W24956  32.564  42.307  12.932
65454W        W24957   4.797  13.279  12.568
65455W        W24958  40.353  23.500   1.256
65456W        W24959  31.633  34.939   2.720
65457W        W24960  26.460  10.683  13.548
65458W        W24961  19.750  12.156  13.506
65459W        W24962  21.070   8.733  14.963
65460W        W24963   7.317   6.356  13.048
65461W        W24964   0.341  29.048  14.964
65462W        W24965   9.750  36.542   3.222
65463W        W24966   5.803  15.632   5.232
65464W        W24967   1.382  32.572  12.578
65465W        W24968  41.960  29.539   5.186
65466W        W24969  14.149  24.027   1.760
65467W        W24970   2.886  26.472  14.396
65468W        W24971  20.708  12.119   4.826
65469W        W24972  30.916  12.809  13.831
65470W        W24973  10.781  42.312   1.703
65471W        W24974  38.999  40.363  12.988
65472W        W24975  26.675  25.488   0.343
65473W        W24976   5.841   8.723   3.850
65474W        W24977  19.540  11.304   2.283
65475W        W24978  19.204  18.183  11.877
65476W        W24979  12.117  16.177  11.541
65477W        W24980  30.451   3.281   4.153
65478W        W24981   5.881  44.359  14.312
65479W        W24982  12.213  15.292   3.637
65480W        W24983  31.152   6.293  10.421
65481W        W24984  41.882  40.977   0.297
65482W        W24985  26.097   7.184   4.338
65483W        W24986  15.656  36.582   2.769
65484W        W24987  31.114  31.131  10.567
65485W        W24988   5.414  25.595  11.961
65486W        W24989  37.536  23.596  12.492
65487W        W24990  27.042  17.596  14.971
65488W        W24991  42.467  14.717   2.272
65489W        W24992   5.828  15.111   3.793
65490W        W24993  33.012  42.903  14.332
65491W        W24994  19.139  43.794  11.586
65492W        W24995  31.636  22.555  14.976
65493W        W24996  17.072  22.509   2.218
65494W        W24997  14.144  43.331  11.034
65495W        W24998  44.462  23.557   4.196
65496W        W24999  21.075  39.420  13.059
65497W        W25000   8.742   4.331   1.764
65498W        W25001   5.210  16.785  10.617
65499W        W25002  20.727  34.480  10.511
65500W        W25003  12.175  15.624   2.318
65501W        W25004  15.648   5.846   0.912
65502W        W25005  21.600  22.706  13.972
65503W        W25006  31.036  20.232  12.415
65504W        W25007  13.211   5.296  14.786
65505W        W25008   8.278  41.425   2.887
65506W        W25009  21.022  43.310  11.963
65507W        W25010  11.351  12.703   3.185
65508W        W25011   4.407  36.098   1.908
65509W        W25012  34.396  16.600   3.196
65510W        W25013  11.278  39.938  10.913
65511W        W25014  30.982   2.809  12.080
65512W        W25015  20.644  43.357   1.363
65513W        W25016  25.107  15.612  13.919
65514W        W25017  36.872  28.061  11.584
65515W        W25018  20.586   6.188  10.942
65516W        W25019  30.105  16.091  14.990
65517W        W25020  38.363  44.882   1.379
65518W        W25021  14.127  35.497  13.414
65519W        W25022  42.408   4.402   4.653
65520W        W25023  33.111  44.465   0.380
65521W        W25024  34.878  32.602  10.487
65522W        W25025   6.280   3.898   3.158
65523W        W25026   6.847  41.921  11.084
65524W        W25027  40.454   5.911   0.456
65525W        W25028  22.109  20.568   4.722
65526W        W25029  33.610  19.197   4.700
65527W        W25030  22.542   7.689   1.891
65528W        W25031   6.817   9.218  13.308
65529W        W25032  33.027  29.927   1.213
65530W        W25033  16.807  11.860  14.350
65531W        W25034  29.025  23.206  12.894
65532W        W25035  21.607   6.381   3.666
65533W        W25036  34.509  20.243   4.742
65534W        W25037  38.489   5.347  13.988
65535W        W25038   4.889  17.087  14.336
65536W        W25039   3.808  33.935   1.823
65537W        W25040  15.192  25.470  13.417
65538W        W25041  33.977  13.226   1.921
65539W        W25042  27.565  27.520  11.005
65540W        W25043  19.613  26.001  14.851
65541W        W25044  40.543  10.365   0.382
65542W        W25045  27.062  25.490   2.714
65543W        W25046  44.471  36.914  13.466
65544W        W25047   3.718  10.863  10.992
65545W        W25048  28.581  13.174   3.670
65546W        W25049   5.397  28.636   2.264
65547W        W25050  43.310   1.779   2.384
65548W        W25051  40.495  33.623   3.755
65549W        W25052  39.459  20.172   4.213
65550W        W25053  36.093  15.660   1.371
65551W        W25054  28.994  12.735  11.537
65552W        W25055  38.353   3.918   0.404
65553W        W25056  26.570   7.825  13.906
65554W        W25057  44.806  26.617   1.726
65555W        W25058  37.952  23.035  13.883
65556W        W25059  34.501  18.679   4.308
65557W        W25060  37.873  16.621   0.281
65558W        W25061  24.679  44.963  12.965
65559W        W25062  32.951   4.271  14.820
65560W        W25063  44.003  36.581   1.807
65561W        W25064  44.950  43.348  14.762
65562W        W25065  39.013  36.068  13.846
65563W        W25066  27.497  17.071  13.846
65564W        W25067   2.929  29.979   5.168
65565W        W25068   7.815   2.937  10.480
65566W        W25069   7.348  14.282  11.501
65567W        W25070  13.761  39.368   4.670
65568W        W25071  30.142   7.848  13.863
65569W        W25072  39.926   2.307   2.224
65570W        W25073  11.758  41.358  11.524
65571W        W25074  42.930  38.907   3.163
65572W        W25075  16.774  19.776   4.633
65573W        W25076  20.531  35.576   0.931
65574W        W25077   4.908  34.033  14.392
65575W        W25078  17.659  14.783   1.867
65576W        W25079  18.131  25.687   2.264
65577W        W25080   1.834  14.293  12.502
65578W        W25081   9.869  32.541  12.384
65579W        W25082  43.012  39.044  14.972
65580W        W25083  22.596   8.312   3.208
65581W        W25084   2.318  23.593  12.398
65582W        W25085  23.215  16.299   2.348
65583W        W25086  15.633  41.356   3.684
65584W        W25087  33.987  37.944   4.746
65585W        W25088  26.984   9.250  10.949
65586W        W25089  15.206  38.015   4.284
65587W        W25090  41.341  42.463  13.048
65588W        W25091  13.791  20.626   4.130
65589W        W25092  13.610  37.421   3.719
65590W        W25093   5.198   5.853  11.910
65591W        W25094  41.789  39.887  11.441
65592W        W25095   3.235  17.244   0.911
65593W        W25096  40.970  22.093  12.028
65594W        W25097  37.952  44.973   4.318
65595W        W25098   4.356  36.064  11.954
65596W        W25099  24.578  35.527  14.890
65597W        W25100   4.353   9.338  10.936
65598W        W25101  41.003   4.822   2.899
65599W        W25102  18.711  28.652  14.925
65600W        W25103  21.246  28.944   2.678
65601W        W25104  33.442  12.357   2.834
65602W        W25105  13.121  10.830   0.741
65603W        W25106  42.982  10.321  14.379
65604W        W25107  16.631  26.981  14.447
65605W        W25108  36.439   4.791   0.848
65606W        W25109  40.891  25.047   3.729
65607W        W25110   6.875  32.483   1.344
65608W        W25111   2.951  11.290   2.882
65609W        W25112  30.927  36.412   2.319
65610W        W25113  16.243   2.875   0.857
65611W        W25114   1.821   7.725  10.437
65612W        W25115  20.541   5.770  14.456
65613W        W25116  37.503  15.821  14.816
65614W        W25117   4.300   2.894   4.837
65615W        W25118   2.740   7.787  10.975
65616W        W25119  39.902   9.369  11.512
65617W        W25120  44.453  18.720  11.591
65618W        W25121  31.430   9.823  14.321
65619W        W25122  31.026  34.903   0.766
65620W        W25123  31.918  29.606  11.467
65621W        W25124   6.263  36.364   2.246
65622W        W25125  26.483   4.804  13.866
65623W        W25126   7.409  31.955   0.479
65624W        W25127  23.657  20.594   0.381
65625W        W25128  27.102   0.922  12.077
65626W        W25129  30.984   1.917  11.474
65627W        W25130  42.929  15.099   1.395
65628W        W25131  11.283   2.265   0.450
65629W        W25132   2.257  41.910  14.294
65630W        W25133   6.827  36.536  11.526
65631W        W25134  35.031  20.176  10.902
65632W        W25135  30.447  37.032   2.799
65633W        W25136   3.901   8.185   3.196
65634W        W25137  27.664  33.049  14.441
65635W        W25138  38.829  29.590  13.330
65636W        W25139  29.551   0.842  11.103
65637W        W25140  39.877  44.956  14.384
65638W        W25141  15.807  40.998   1.796
65639W        W25142  33.434  29.478   1.694
65640W        W25143  29.131   2.777  10.470
65641W        W25144  30.994  21.044   2.411
65642W        W25145  44.861  21.653  11.885
65643W        W25146  28.104  13.839   2.687
65644W        W25147   6.185  11.133   3.296
65645W        W25148  19.580  39.878   3.378
65646W        W25149  33.507  21.750  14.840
65647W        W25150   7.753  19.708   2.344
65648W        W25151  20.611   1.457   1.750
65649W        W25152  14.745  33.424   5.126
65650W        W25153  12.717   1.321  13.402
65651W        W25154  34.011  24.697  11.887
65652W        W25155  41.917   6.257   5.319
65653W        W25156  25.010  44.838  10.982
65654W        W25157   6.386  25.021  11.610
65655W        W25158   7.347  26.691   0.808
65656W        W25159  34.584   6.781  10.612
65657W        W25160  29.920   0.313   4.194
65658W        W25161  19.691   9.370  10.473
65659W        W25162  43.826   4.359   1.223
65660W        W25163  40.012  38.889   4.219
65661W        W25164  38.883  31.977   2.762
65662W        W25165  15.164  31.001   1.233
65663W        W25166  44.343  38.827  12.070
65664W        W25167  35.885  31.009   0.729
65665W        W25168  10.344  23.211  12.478
65666W        W25169  13.659  34.442   2.254
65667W        W25170   0.329   2.776  14.847
65668W        W25171   8.228  18.544   3.311
65669W        W25172  25.128  20.033  13.938
65670W        W25173  24.071  41.326  12.071
65671W        W25174   0.876  21.127  10.940
65672W        W25175  27.511  26.670   1.884
65673W        W25176  39.374  21.260   2.843
65674W        W25177  31.901  39.515   1.330
65675W        W25178  42.989   1.857   0.337
65676W        W25179  15.604   9.250  11.596
65677W        W25180  17.115  28.953   0.954
65678W        W25181   4.411  21.152   3.303
65679W        W25182  40.463  33.591  11.387
65680W        W25183  21.206  38.347  13.441
65681W        W25184   3.841  37.543  11.107
65682W        W25185   6.782  43.918   0.278
65683W        W25186  21.030  11.174   4.667
65684W        W25187   4.277  21.177   3.651
65685W        W25188   3.261   3.869   0.416
65686W        W25189  31.909  21.088   3.667
65687W        W25190  32.127  29.588   3.633
65688W        W25191  42.936   4.438  12.557
65689W        W25192   7.691  22.142   0.286
65690W        W25193  23.568  15.768   4.208
65691W        W25194  13.133  19.257  12.095
65692W        W25195  32.058  20.051   0.898
65693W        W25196   3.867   0.437  11.540
65694W        W25197  43.279  24.708  14.868
65695W        W25198  23.087  28.672   0.853
65696W        W25199  37.415  25.211  11.030
65697W        W25200  12.724  25.085  14.447
65698W        W25201  32.635  21.146  12.533
65699W        W25202   2.469  13.667  14.345
65700W        W25203   9.718  12.328   3.791
65701W        W25204   1.872  36.006  12.867
65702W        W25205  37.432  20.044  11.459
65703W        W25206  39.066  41.372  10.944
65704W        W25207  43.425  38.366   3.691
65705W        W25208  13.215  18.151  13.957
65706W        W25209  38.542  27.456   2.771
65707W        W25210  36.454  22.604  13.997
65708W        W25211  44.407  28.451  11.515
65709W        W25212  19.684  13.770   0.946
65710W        W25213  11.132  19.232   3.323
65711W        W25214  25.082  25.066   4.253
65712W        W25215  10.157  39.450  11.923
65713W        W25216  31.506   6.364  12.050
65714W        W25217  38.520   9.649   1.824
65715W        W25218  12.172  26.067  13.987
65716W        W25219   0.457  31.944   4.833
65717W        W25220  44.480  26.489   2.837
65718W        W25221  18.236  36.519  13.450
65719W        W25222  42.996   7.744   0.798
65720W        W25223  19.674  40.014   1.300
65721W        W25224  13.339  39.892   4.295
65722W        W25225  22.584  33.024   3.791
65723W        W25226  29.509  38.332   0.813
65724W        W25227  44.870  23.201  14.310
65725W        W25228  14.163  25.994  11.557
65726W        W25229  22.041  43.488  13.062
65727W        W25230  21.123   3.770  10.967
65728W        W25231  39.545  10.182   4.198
65729W        W25232  24.018  19.706  13.804
65730W        W25233  34.012  41.031  12.562
65731W        W25234  23.616  12.703  12.825
65732W        W25235   2.744  43.796   1.758
65733W        W25236  33.403  40.314  11.046
65734W        W25237  15.734  25.481   4.779
65735W        W25238  18.164  33.991  14.008
65736W        W25239  35.561  38.451  10.905
65737W        W25240  30.541  18.193   4.690
65738W        W25241   7.212  32.011  10.095
65739W        W25242  34.411  23.075  13.326
65740W        W25243  10.785  30.520  13.024
65741W        W25244  20.271  18.253   1.258
65742W        W25245   8.762   4.317   1.401
65743W        W25246  13.180   4.370   0.422
65744W        W25247  29.599  31.488  13.813
65745W        W25248  37.016  10.165   0.360
65746W        W25249  13.796  19.672  11.428
65747W        W25250   4.748  38.933  12.351
65748W        W25251  19.110  28.947   1.863
65749W        W25252   4.739  33.101  13.973
65750W        W25253  21.749  27.942  13.477
65751W        W25254  13.315  44.380   4.261
65752W        W25255  36.029  12.635   1.824
65753W        W25256  38.940  28.065  11.949
65754W        W25257  36.463   5.362  13.825
65755W        W25258  42.858  35.891  10.480
65756W        W25259  41.792  21.238  14.968
65757W        W25260  20.545  18.089   3.213
65758W        W25261   7.304  23.593  11.384
65759W        W25262  39.021  22.224   0.757
65760W        W25263  38.915   1.922  12.951
65761W        W25264  14.205   4.381  12.949
65762W        W25265  14.794  23.665  10.033
65763W        W25266  40.441  15.246   0.428
65764W        W25267  36.477   8.304  11.446
65765W        W25268  41.947  17.777  11.000
65766W        W25269  44.978  11.321   0.483
65767W        W25270  37.841   8.247  11.502
65768W        W25271  17.165  40.825   1.249
65769W        W25272  32.025   7.810  13.539
65770W        W25273  33.603  27.495   2.386
65771W        W25274  16.724  24.617  11.111
65772W        W25275  37.048  11.306  13.466
65773W        W25276  44.408  27.949  12.539
65774W        W25277   9.843   0.453   0.302
65775W        W25278  14.118  25.096  14.889
65776W        W25279  27.148  23.676   2.867
65777W        W25280  43.446  35.954   0.866
65778W        W25281  23.623   4.704   3.860
65779W        W25282  34.536  30.443  14.462
65780W        W25283  11.278  39.994  14.366
65781W        W25284   2.459   1.357  13.521
65782W        W25285  19.060  30.923  13.486
65783W        W25286  42.468   3.776  10.973
65784W        W25287  27.173  29.011   3.740
65785W        W25288  11.658  26.564   3.317
65786W        W25289   8.336   9.353   2.291
65787W        W25290   6.361  44.349   1.916
65788W        W25291  13.209  23.101  12.557
65789W        W25292   3.385  41.939  11.968
65790W        W25293  26.147  14.322  13.331
65791W        W25294  25.500   1.295   3.774
65792W        W25295  39.902  31.492   0.378
65793W        W25296   8.684  24.660   1.391
65794W        W25297   7.273  12.318   0.267
65795W        W25298  36.910  13.769   1.431
65796W        W25299  27.044  25.987  11.007
65797W        W25300  22.253  43.497  14.963
65798W        W25301  37.893  30.053  10.956
65799W        W25302  25.195  31.541   1.394
65800W        W25303  37.582   6.395   3.153
65801W        W25304  43.277   2.958   2.690
65802W        W25305  28.167  24.227  11.489
65803W        W25306   4.802  43.269  11.868
65804W        W25307  30.939  31.942   1.740
65805W        W25308  14.112  27.983  10.441
65806W        W25309   2.954   8.371  12.967
65807W        W25310  43.005  19.137  14.802
65808W        W25311  20.535   1.932   4.168
65809W        W25312  15.301  13.794   1.819
65810W        W25313   0.889  22.679   5.752
65811W        W25314  23.498  35.507   3.165
65812W        W25315  36.068   0.903  14.493
65813W        W25316  28.599   9.881   2.666
65814W        W25317  38.422   6.237  12.979
65815W        W25318  38.462  20.083  10.617
65816W        W25319   7.314   3.875   0.325
65817W        W25320  22.730  36.977  14.862
65818W        W25321  13.787  11.789  12.043
65819W        W25322  36.535   4.315  12.421
65820W        W25323  20.696  40.814  10.639
65821W        W25324   2.275  32.456   3.800
65822W        W25325  15.206  18.569  11.525
65823W        W25326  20.651  29.596   2.260
65824W        W25327  33.405  29.105  10.572
65825W        W25328  31.986  34.923  11.552
65826W        W25329  43.290  26.658  11.099
65827W        W25330  22.137  32.979  10.461
65828W        W25331  40.925  14.814  14.328
65829W        W25332  23.627   0.797   3.218
65830W        W25333  42.784  33.124   2.740
65831W        W25334   5.862  27.051  12.413
65832W        W25335  37.068  15.189   1.934
65833W        W25336  10.697   5.233  11.923
65834W        W25337  22.086  29.938  11.378
65835W        W25338  26.678   7.776   4.774
65836W        W25339  26.179   3.356  14.783
65837W        W25340  43.352  26.544   4.797
65838W        W25341  22.733  23.009   4.661
65839W        W25342   2.778  33.021  13.045
65840W        W25343   5.871  40.535  11.009
65841W        W25344   8.688  11.203  12.530
65842W        W25345  21.217   1.765   2.282
65843W        W25346  34.056  13.322  11.529
65844W        W25347  10.165  11.733   5.106
65845W        W25348  10.356  41.374   4.319
65846W        W25349  16.667   5.353   2.824
65847W        W25350   7.726   7.737   0.381
65848W        W25351   9.216   4.282   2.224
65849W        W25352  25.182  39.560   3.750
65850W        W25353  24.581  44.325   4.262
65851W        W25354  21.717  19.162  10.911
65852W        W25355   9.392  35.947   1.265
65853W        W25356  32.449  17.096   4.627
65854W        W25357  37.961   7.823  12.021
65855W        W25358  34.904  27.675  12.055
65856W        W25359  13.830  14.701   0.930
65857W        W25360  26.474   5.217   4.186
65858W        W25361  22.532  17.203   2.687
65859W        W25362  17.733  35.907   4.194
65860W        W25363   9.245  36.855  12.537
65861W        W25364  29.483  11.226   2.217
65862W        W25365  19.623  37.417  12.374
65863W        W25366  41.457  29.973  13.358
65864W        W25367  40.962  33.895  13.421
65865W        W25368  16.167  38.353  14.496
65866W        W25369  32.079  22.117   9.998
65867W        W25370  17.704  31.047   0.447
65868W        W25371  12.815   2.738  13.912
65869W        W25372  30.001   2.900  11.545
65870W        W25373  44.430  38.425  11.942
65871W        W25374   3.902  13.711   4.625
65872W        W25375  10.316  20.146   4.137
65873W        W25376   7.276   6.195   4.597
65874W        W25377  34.398  42.884  14.817
65875W        W25378   2.449  13.737   2.867
65876W        W25379  34.470  28.029  13.845
65877W        W25380  32.630  38.412  12.457
65878W        W25381  32.073   9.710   2.302
65879W        W25382  17.209   0.398   1.783
65880W        W25383  31.123  19.264   3.358
65881W        W25384   5.411  21.177   0.876
65882W        W25385  41.307  23.185   3.708
65883W        W25386  32.475  28.974   0.853
65884W        W25387  13.740  30.924   3.290
65885W        W25388  36.496  33.009   4.280
65886W        W25389  22.145  33.402   2.673
65887W        W25390  37.901  40.805  11.914
65888W        W25391  37.473  36.032  12.343
65889W        W25392   2.463  26.192   1.398
65890W        W25393  44.465  18.217  14.886
65891W        W25394  23.235  39.532   4.185
65892W        W25395  38.020  11.304   3.271
65893W        W25396  28.144  25.048   1.859
65894W        W25397  29.140  18.678  12.381
65895W        W25398  35.972   3.888   3.297
65896W        W25399  35.078  12.714  13.452
65897W        W25400   5.857  26.062   1.445
65898W        W25401  37.915   9.651   1.256
65899W        W25402  19.664  31.457   4.609
65900W        W25403  11.780  40.402  13.428
65901W        W25404  19.179  11.621  13.943
65902W        W25405  42.900  24.610   4.283
65903W        W25406  30.539  22.666   4.314
65904W        W25407  29.564   5.804   4.229
65905W        W25408   7.299   1.947  13.792
65906W        W25409   6.242  18.742  11.441
65907W        W25410  19.183  29.090  14.497
65908W        W25411  22.536  18.287  13.346
65909W        W25412  35.451  16.720   0.457
65910W        W25413  41.875  42.819  13.818
65911W        W25414  25.989  31.036   1.827
65912W        W25415  11.756  21.204  11.598
65913W        W25416  20.199  23.510  13.308
65914W        W25417  29.019   4.734   3.263
65915W        W25418  34.512  41.999  11.447
65916W        W25419  44.498   0.849   0.891
65917W        W25420  42.463  34.549  11.092
65918W        W25421  14.815  11.128   2.331
65919W        W25422  38.361  41.389  12.016
65920W        W25423   5.813  26.469   0.254
65921W        W25424  18.210  32.927   0.433
65922W        W25425  17.800  36.026   3.853
65923W        W25426   6.782   2.403   0.392
65924W        W25427  18.079  44.296  14.993
65925W        W25428   9.745  32.051   4.657
65926W        W25429   8.759  11.728   4.772
65927W        W25430   0.874  22.104  12.008
65928W        W25431  30.917  37.951  11.978
65929W        W25432  15.303  20.599   1.733
65930W        W25433  22.620  29.085  12.390
65931W        W25434  18.726  34.498   4.792
65932W        W25435   3.384   4.316  10.974
65933W        W25436   3.921  32.637   4.214
65934W        W25437  14.274  16.090   4.799
65935W        W25438  41.975  42.517   3.831
65936W        W25439  43.308  44.846   3.706
65937W        W25440  21.637  28.588   1.386
65938W        W25441  21.519   2.892  13.372
65939W        W25442  18.741   3.402   1.371
65940W        W25443  13.760   4.252   4.272
65941W        W25444  15.609  15.643   3.193
65942W        W25445  34.100  24.144   3.774
65943W        W25446   5.289  26.515   3.378
65944W        W25447  34.076  35.012  10.407
65945W        W25448  44.964  28.129  13.915
65946W        W25449   6.311  35.036   4.827
65947W        W25450  31.902  16.769  13.021
65948W        W25451  15.624  10.179  14.940
65949W        W25452  26.180  10.257  12.483
65950W        W25453   5.744  36.844  13.954
65951W        W25454  36.070  12.284   0.764
65952W        W25455  33.912  17.568   1.333
65953W        W25456  25.012   8.343  11.051
65954W        W25457   3.326  41.985  13.852
65955W        W25458  23.529  27.077  11.995
65956W        W25459  20.738  27.580   3.313
65957W        W25460   7.306  40.351   3.678
65958W        W25461  11.672   6.307  12.363
65959W        W25462  15.638   8.384   0.432
65960W        W25463   5.843   2.746  13.018
65961W        W25464  33.933  24.500   1.830
65962W        W25465  38.540  31.546  13.893
65963W        W25466  21.533  38.412  11.067
65964W        W25467  37.020  14.310   1.352
65965W        W25468   9.784  16.722   3.384
65966W        W25469   4.238   6.265   0.896
65967W        W25470  38.839   2.955  12.084
65968W        W25471  35.012  18.545   4.314
65969W        W25472  38.884  12.751  12.034
65970W        W25473  23.549  42.978  11.933
65971W        W25474  37.985  17.141   0.336
65972W        W25475  25.213  36.983  12.057
65973W        W25476  34.502  38.995   3.317
65974W        W25477   3.815  30.031   1.750
65975W        W25478  35.090  35.105   4.218
65976W        W25479   0.471  40.466   2.715
65977W        W25480  31.503   8.212   0.324
65978W        W25481  31.573   3.247  14.416
65979W        W25482  11.701  37.394  12.471
65980W        W25483   3.781  29.521   4.299
65981W        W25484  11.678  23.692   2.888
65982W        W25485   7.180  17.590  13.051
65983W        W25486  37.945  44.436  11.444
65984W        W25487  36.968  38.325   4.200
65985W        W25488  30.962  44.963  14.900
65986W        W25489   6.310  12.331  11.547
65987W        W25490  23.057  11.308   3.865
65988W        W25491  43.838  18.129  11.021
65989W        W25492  40.384  32.964  13.541
65990W        W25493  14.173  39.853  11.413
65991W        W25494  20.642   8.319  12.508
65992W        W25495  44.285  15.139   4.762
65993W        W25496   9.170  17.080   0.420
65994W        W25497  42.410  23.142  14.903
65995W        W25498  27.489  20.541  12.363
65996W        W25499   2.386  32.036   0.885
65997W        W25500  14.115  23.730   2.317
65998W        W25501  42.493   8.167  11.034
65999W        W25502  20.142  30.068  14.480
66000W        W25503  41.508  44.992  12.046
66001W        W25504   8.298  37.541   3.700
66002W        W25505  38.025  38.344   2.759
66003W        W25506   9.244  38.928   3.309
66004W        W25507  33.553  43.984  13.539
66005W        W25508   0.943  40.995  11.885
66006W        W25509  44.894  16.797   9.476
66007W        W25510  17.608   8.681   4.762
66008W        W25511  21.539   3.844  11.097
66009W        W25512  31.603  27.554   1.753
66010W        W25513   9.212   0.944   1.355
66011W        W25514  29.951  20.059  10.481
66012W        W25515  38.016  21.725  11.969
66013W        W25516  31.610  37.051   4.697
66014W        W25517  27.691  26.169   4.714
66015W        W25518  12.312  43.898  13.966
66016W        W25519  20.762  22.641  11.609
66017W        W25520   4.934  15.707  11.390
66018W        W25521  42.367  31.520   4.748
66019W        W25522   3.939  19.107   4.708
66020W        W25523  12.317   7.797   2.277
66021W        W25524   4.877  28.577  14.304
66022W        W25525  38.449  27.463  10.473
66023W        W25526  16.318  27.131  11.413
66024W        W25527  16.122  21.162  13.005
66025W        W25528  43.960  21.099  13.901
66026W        W25529  10.793  10.254  10.143
66027W        W25530  21.663  21.103   3.795
66028W        W25531  38.858  23.691   1.872
66029W        W25532   2.739   4.411   3.788
66030W        W25533  22.212   3.460   3.767
66031W        W25534  21.117   3.936   3.220
66032W        W25535   5.784  27.046  13.376
66033W        W25536  28.068  43.999   3.675
66034W        W25537  27.042  34.010   4.740
66035W        W25538  41.923   2.819  12.573
66036W        W25539   7.793  26.158   3.681
66037W        W25540  34.888   4.378   1.271
66038W        W25541  18.228  27.961   3.274
66039W        W25542  15.632  16.216  10.906
66040W        W25543  28.477   2.371   2.687
66041W        W25544  25.602  15.630   0.939
66042W        W25545  17.751  39.831   3.302
66043W        W25546  16.199  37.961  10.984
66044W        W25547  34.494  33.922  11.126
66045W        W25548  11.259   5.893  14.942
66046W        W25549   5.863   5.340   2.268
66047W        W25550  39.835  27.067  13.360
66048W        W25551  37.837  15.584  13.020
66049W        W25552  41.380  36.956   0.396
66050W        W25553   3.905   4.934   1.905
66051W        W25554   1.898  13.827  14.957
66052W        W25555  32.395  19.714  13.420
66053W        W25556  22.560  39.036  12.418
66054W        W25557   4.754  22.163  12.043
66055W        W25558  29.620  20.197  14.005
66056W        W25559  27.068   5.328  13.006
66057W        W25560   3.828  37.055   1.428
66058W        W25561  27.646  27.658   1.257
66059W        W25562  27.018  32.510   0.281
66060W        W25563  15.246  12.246   0.967
66061W        W25564  23.571  38.361   1.240
66062W        W25565  42.375  29.426  13.495
66063W        W25566  25.574  24.178  11.508
66064W        W25567  10.821   2.761   0.743
66065W        W25568  10.712  17.650   4.215
66066W        W25569   7.259  39.053  11.539
66067W        W25570  22.154  24.557  10.426
66068W        W25571   9.735   0.936  12.423
66069W        W25572  24.128  36.429   2.397
66070W        W25573  21.637   9.835   0.821
66071W        W25574  15.602  12.767  14.499
66072W        W25575  33.934  25.198   1.242
66073W        W25576  29.496  31.050   2.239
66074W        W25577  22.046  36.889  10.600
66075W        W25578  30.007  42.298  10.911
66076W        W25579  26.609  33.383   1.327
66077W        W25580  31.482  17.131  13.860
66078W        W25581   8.834  14.336   3.652
66079W        W25582  11.332   4.812   1.408
66080W        W25583  31.906   3.281   1.362
66081W        W25584  25.698  22.557  12.380
66082W        W25585  33.083  28.681  14.020
66083W        W25586  25.680  10.852   2.819
66084W        W25587   0.455   8.242  11.431
66085W        W25588  19.148  30.633  13.051
66086W        W25589  29.603  32.142   5.154
66087W        W25590  20.582   4.945  11.982
66088W        W25591   0.309   3.225   3.305
66089W        W25592  25.057  36.090   0.415
66090W        W25593  17.735  11.837  11.547
66091W        W25594  13.152  38.502   1.779
66092W        W25595  14.597   9.300   2.278
66093W        W25596   7.672  17.094  14.327
66094W        W25597   8.727  38.570   2.203
66095W        W25598  34.474   7.713   0.442
66096W        W25599   2.296  10.694  11.470
66097W        W25600  11.243   7.742  10.581
66098W        W25601   7.811  28.005   0.919
66099W        W25602   1.868  39.820  12.387
66100W        W25603  36.400  20.638   3.159
66101W        W25604   7.226  22.587  12.035
66102W        W25605   7.750  23.088  13.356
66103W        W25606   2.935   9.176  13.477
66104W        W25607  25.609  16.302   1.243
66105W        W25608  18.098   0.365   0.777
66106W        W25609   0.331  40.383   4.666
66107W        W25610   0.760  10.230  13.316
66108W        W25611   7.394  41.887  14.457
66109W        W25612  26.972  15.133  11.372
66110W        W25613  41.980  25.019   3.705
66111W        W25614  11.322  29.668  10.014
66112W        W25615  37.521  33.029   0.374
66113W        W25616  22.230  19.737   0.895
66114W        W25617  13.763  32.087   4.307
66115W        W25618  43.764  26.584  10.056
66116W        W25619  44.982  39.525  12.894
66117W        W25620   7.724  44.841   0.458
66118W        W25621  42.946   2.430   1.817
66119W        W25622  18.162  26.162  11.394
66120W        W25623  41.958   4.450  13.391
66121W        W25624  39.942  34.994   4.312
66122W        W25625   1.252  10.290  14.785
66123W        W25626  14.666  25.966   2.226
66124W        W25627  23.521  26.968   1.233
66125W        W25628  29.004   6.797  10.452
66126W        W25629  17.271   5.225  10.583
66127W        W25630  11.860  21.085   2.751
66128W        W25631  20.575  44.979   2.703
66129W        W25632   6.845  25.170   0.425
66130W        W25633  13.660  39.878   2.858
66131W        W25634  37.567   0.412  13.477
66132W        W25635  39.336  12.737   0.948
66133W        W25636  16.205  11.184  11.121
66134W        W25637   5.806  26.565  10.631
66135W        W25638  40.054   0.286   2.828
66136W        W25639  11.865  36.053  12.355
66137W        W25640  14.142   8.729  10.415
66138W        W25641  44.937  21.215   4.310
66139W        W25642  24.136  25.532   3.724
66140W        W25643  12.215  29.961   0.738
66141W        W25644  19.083  24.089  11.962
66142W        W25645  32.093  35.087  14.864
66143W        W25646   3.283   6.288  11.599
66144W        W25647  35.906  26.627  11.485
66145W        W25648   9.364  11.808  11.548
66146W        W25649   9.253  35.903   0.751
66147W        W25650  25.487   9.336   4.837
66148W        W25651  26.170  42.855   5.131
66149W        W25652  23.596  15.790   3.810
66150W        W25653  12.836  36.983   3.178
66151W        W25654  34.402  28.972   1.740
66152W        W25655  33.985  10.377   4.762
66153W        W25656  39.906  35.510  10.931
66154W        W25657  39.892  38.337  14.006
66155W        W25658  38.056  36.489  14.825
66156W        W25659  22.125  32.589   0.326
66157W        W25660  29.153   8.768  12.539
66158W        W25661  43.488  22.577  13.356
66159W        W25662  37.009  28.503   1.837
66160W        W25663  26.616  39.982   3.817
66161W        W25664   4.248  38.446  14.885
66162W        W25665  34.004  39.886   2.835
66163W        W25666  32.581  10.754   0.479
66164W        W25667   6.312   7.736   2.896
66165W        W25668  15.813   1.903  11.375
66166W        W25669   6.272  43.908  13.524
66167W        W25670  29.141  13.800  10.014
66168W        W25671  42.911  37.518   4.150
66169W        W25672  33.462   8.690  13.029
66170W        W25673  17.631  26.082   1.373
66171W        W25674  11.705   5.375  11.566
66172W        W25675  12.753  35.549  12.888
66173W        W25676  37.895  30.602   5.097
66174W        W25677  27.000  24.194  13.813
66175W        W25678  21.518   6.314  14.792
66176W        W25679   9.882  43.408   0.786
66177W        W25680   5.833  42.864   2.308
66178W        W25681  27.071  44.804   1.397
66179W        W25682  26.124  17.739   2.812
66180W        W25683   2.336   9.876   1.235
66181W        W25684  13.167  38.938   2.670
66182W        W25685  27.941  35.928   0.949
66183W        W25686  13.294   5.778   1.795
66184W        W25687  44.802  44.889   2.779
66185W        W25688  27.944  39.038  10.099
66186W        W25689   5.310  43.005   5.291
66187W        W25690   8.670  19.777  14.971
66188W        W25691  25.114  43.895  11.575
66189W        W25692  24.196  43.905  14.006
66190W        W25693   2.949  33.898   3.711
66191W        W25694  36.463  20.144  14.306
66192W        W25695  31.527  44.989  12.054
66193W        W25696  24.672   0.805  13.968
66194W        W25697  36.887  20.742  11.964
66195W        W25698  17.177  25.711  13.362
66196W        W25699   4.270  26.619  13.845
66197W        W25700  41.801  23.031  13.512
66198W        W25701  11.326  32.635  13.825
66199W        W25702   3.322   4.699   3.336
66200W        W25703  11.655  29.162   4.755
66201W        W25704  28.088  10.843   3.214
66202W        W25705  10.211  22.700  14.383
66203W        W25706  25.213  37.958   2.903
66204W        W25707  26.051   3.240  11.385
66205W        W25708  15.228  23.031  13.874
66206W        W25709  25.162  12.218   1.701
66207W        W25710   9.757  21.714  12.864
66208W        W25711  17.569  40.340  13.857
66209W        W25712  42.828  44.949  12.961
66210W        W25713  19.101   7.674   0.934
66211W        W25714   0.351  35.567  12.907
66212W        W25715  27.958   3.250   3.837
66213W        W25716  12.123  22.504  14.947
66214W        W25717   0.800   7.761   0.304
66215W        W25718  44.763  32.086   1.759
66216W        W25719  31.524  37.543  13.425
66217W        W25720   7.267  41.961   2.740
66218W        W25721   1.390  39.395  14.374
66219W        W25722   5.833  26.077   4.234
66220W        W25723  33.391  17.160  13.542
66221W        W25724  14.609  41.535   2.711
66222W        W25725  26.555  19.758   1.707
66223W        W25726   6.904  34.538  14.870
66224W        W25727  34.065  33.126   0.832
66225W        W25728  16.144  39.841  13.969
66226W        W25729  25.081  37.573   4.127
66227W        W25730   3.814  26.999   3.145
66228W        W25731  33.904  41.888  10.926
66229W        W25732  25.090  38.997  14.817
66230W        W25733  43.430  33.460   1.294
66231W        W25734  40.384  25.627  14.299
66232W        W25735  43.815   5.748   2.230
66233W        W25736   8.859  37.484   4.151
66234W        W25737  31.604  14.619   4.136
66235W        W25738   2.823  15.132  11.936
66236W        W25739   1.843  40.483  10.633
66237W        W25740   5.306  36.377   2.859
66238W        W25741  34.378  40.053  14.466
66239W        W25742  29.943  30.159  14.970
66240W        W25743   2.910   0.914   2.348
66241W        W25744  34.864   8.234  12.897
66242W        W25745  22.114  28.066  11.611
66243W        W25746  18.671  15.186   3.177
66244W        W25747  16.737  17.125   0.851
66245W        W25748   6.306   2.838   0.345
66246W        W25749  33.413  12.667   5.712
66247W        W25750   1.892  38.819   4.231
66248W        W25751   5.856  31.930   0.352
66249W        W25752  26.605  10.653  11.522
66250W        W25753  19.748  25.113   4.669
66251W        W25754  32.082  35.096   3.224
66252W        W25755  21.711  22.639  12.461
66253W        W25756  10.692  41.933  11.032
66254W        W25757  10.837  11.170   0.744
66255W        W25758  25.182  38.511  11.434
66256W        W25759  42.830  17.241   3.650
66257W        W25760  41.846  29.636  14.428
66258W        W25761  40.831   6.744  13.917
66259W        W25762   2.348   2.290  10.925
66260W        W25763  35.900   0.853  12.404
66261W        W25764  26.559  43.814  11.110
66262W        W25765  23.504  38.989  13.391
66263W        W25766  10.199  39.970   3.681
66264W        W25767  36.501  42.343  14.284
66265W        W25768  40.317  19.059  12.963
66266W        W25769  27.063   5.319   3.163
66267W        W25770   1.869  15.796   4.223
66268W        W25771  14.201  39.009   1.441
66269W        W25772  26.159  30.495  13.965
66270W        W25773   3.214  33.093  10.546
66271W        W25774  18.194  23.102  12.512
66272W        W25775  26.115   8.315  12.440
66273W        W25776  12.814  43.960   1.710
66274W        W25777  12.258  43.948   1.305
66275W        W25778  37.832  42.896  14.422
66276W        W25779  32.606  20.135   1.713
66277W        W25780   2.758  18.237   2.281
66278W        W25781  30.097  39.900  11.936
66279W        W25782  21.690   3.332  12.000
66280W        W25783  18.257   1.305  13.968
66281W        W25784  18.649  14.679   0.270
66282W        W25785  41.010  42.471   3.734
66283W        W25786  18.768   6.894  12.498
66284W        W25787  31.023  27.018  10.945
66285W        W25788  28.959  19.051  10.930
66286W        W25789  15.612  35.042   1.711
66287W        W25790  32.451  40.802  10.005
66288W        W25791  15.609   2.891   2.200
66289W        W25792  38.897  13.124   4.788
66290W        W25793   6.850  25.990  14.960
66291W        W25794  40.846   0.365  12.501
66292W        W25795  42.841  41.423   3.335
66293W        W25796  42.385  10.224   0.869
66294W        W25797  34.040  12.819  13.391
66295W        W25798   9.816   5.766   1.774
66296W        W25799  24.655  36.448  11.450
66297W        W25800  26.961  32.517   3.752
66298W        W25801  11.789   9.250  11.383
66299W        W25802  28.125  20.127  13.844
66300W        W25803  10.773  18.633   2.202
66301W        W25804  32.530  40.947   3.694
66302W        W25805  29.554  23.710   1.880
66303W        W25806   9.367  43.497   4.653
66304W        W25807   2.347   3.832   4.767
66305W        W25808  28.186  31.609   3.748
66306W        W25809  23.735  22.578  11.592
66307W        W25810  15.200  26.981  14.834
66308W        W25811  22.554  32.511   4.637
66309W        W25812  21.102  18.745   2.763
66310W        W25813  10.813  29.450  11.521
66311W        W25814  41.995  43.911   1.766
66312W        W25815  36.409  27.668   1.347
66313W        W25816  33.513  36.535   0.919
66314W        W25817  15.191  26.148   3.830
66315W        W25818  24.203   6.211   4.715
66316W        W25819  10.254  42.909  13.912
66317W        W25820  38.040  38.900  12.364
66318W        W25821  32.988  16.616   3.384
66319W        W25822  23.117  14.212  11.554
66320W        W25823  20.162  18.729   4.279
66321W        W25824  41.302  24.599   0.922
66322W        W25825  30.090  31.048  10.484
66323W        W25826  13.772   1.945   4.239
66324W        W25827   3.221  37.908   4.287
66325W        W25828   7.296  41.506   0.348
66326W        W25829  28.445  41.843  14.356
66327W        W25830  13.718  38.948  11.949
66328W        W25831  33.991  42.848  12.404
66329W        W25832  35.449  25.654   0.290
66330W        W25833  15.220  37.548   2.710
66331W        W25834  38.474  40.811  10.526
66332W        W25835   7.806   0.852  12.361
66333W        W25836  16.121   4.915  10.441
66334W        W25837  38.870  17.598  10.995
66335W        W25838  29.103  27.542   1.370
66336W        W25839  15.261  22.229  11.056
66337W        W25840   6.910  39.494  11.430
66338W        W25841  34.388   0.929   1.701
66339W        W25842  10.294  19.054   3.386
66340W        W25843  21.581  31.608  13.926
66341W        W25844  43.999  11.738   1.777
66342W        W25845  41.028  26.158  11.936
66343W        W25846  40.900   0.777   2.889
66344W        W25847   9.311  37.888  12.470
66345W        W25848  13.116  22.740   2.881
66346W        W25849  12.127  26.022  12.018
66347W        W25850   6.687  32.107   0.449
66348W        W25851   5.201  17.794   9.598
66349W        W25852  42.852   8.319  14.406
66350W        W25853  14.285  16.691   4.334
66351W        W25854  23.164  12.842   2.377
66352W        W25855   2.811  37.477  13.440
66353W        W25856  19.244  34.030  13.438
66354W        W25857  10.784  19.091   1.227
66355W        W25858   8.306  27.661  12.068
66356W        W25859  17.750  15.217   1.217
66357W        W25860  20.718  35.519   0.475
66358W        W25861  20.255  22.646   0.374
66359W        W25862  38.906  28.104   1.698
66360W        W25863  24.589   5.308   5.703
66361W        W25864  27.464  27.062   5.266
66362W        W25865  42.380   3.821  11.486
66363W        W25866   3.427  31.614   4.748
66364W        W25867  20.192   2.778   9.526
66365W        W25868   7.754  27.459   1.730
66366W        W25869  31.146  32.566  11.612
66367W        W25870  26.476  28.675  11.062
66368W        W25871  35.931  12.137  12.006
66369W        W25872  24.225  24.027   2.203
66370W        W25873  31.479   7.259  10.925
66371W        W25874  13.663  20.660   4.795
66372W        W25875   0.443  32.539   4.714
66373W        W25876  36.374  16.298   3.275
66374W        W25877  36.374  23.651   1.728
66375W        W25878  13.801  24.099  12.949
66376W        W25879  29.660  31.926   3.673
66377W        W25880  17.197  44.969   1.223
66378W        W25881  42.507   6.312   4.300
66379W        W25882   1.837  42.453   1.301
66380W        W25883   4.912   8.252  14.471
66381W        W25884  13.332  35.496  14.450
66382W        W25885  41.335  43.883   1.380
66383W        W25886  42.480  43.486  13.923
66384W        W25887  11.653  28.460  14.307
66385W        W25888  19.138   6.235  13.042
66386W        W25889  11.326   5.851   1.764
66387W        W25890  16.209  12.744  14.987
66388W        W25891  36.982   0.780  12.427
66389W        W25892  40.814  35.894   0.774
66390W        W25893   3.377  44.386   1.228
66391W        W25894  28.621   7.872   2.716
66392W        W25895  32.610  21.643   3.297
66393W        W25896   1.266  34.094   0.445
66394W        W25897  21.713  35.592  12.055
66395W        W25898  16.194  14.290   2.789
66396W        W25899  32.484  39.884   1.365
66397W        W25900  22.047  29.531  12.866
66398W        W25901  15.806  22.204  11.496
66399W        W25902  11.752   1.902  11.585
66400W        W25903  18.175   5.913   3.196
66401W        W25904  30.007  36.415  10.530
66402W        W25905  15.611   7.213   2.294
66403W        W25906  39.515  13.783   4.814
66404W        W25907   4.302  41.416  11.936
66405W        W25908  44.335  11.753   5.098
66406W        W25909  18.562  22.542   0.314
66407W        W25910   0.390  19.048  13.479
66408W        W25911  16.135  19.079  10.550
66409W        W25912   7.819  29.544   0.967
66410W        W25913  23.518   7.749   3.343
66411W        W25914  18.171  44.795   2.274
66412W        W25915  35.387   9.751   1.786
66413W        W25916  14.285  38.560   4.633
66414W        W25917   0.783   3.905   2.896
66415W        W25918  12.616   7.768  14.375
66416W        W25919  15.805  40.956   4.602
66417W        W25920  12.200   5.351   1.445
66418W        W25921  36.893  13.749   4.195
66419W        W25922   3.904  39.315  11.568
66420W        W25923  19.629  28.436  13.841
66421W        W25924  19.634   5.728   1.269
66422W        W25925   4.941  11.366   2.406
66423W        W25926  27.180  40.497  11.055
66424W        W25927  17.295   1.306  11.481
66425W        W25928   8.261   6.685  11.563
66426W        W25929   8.325  26.002  10.990
66427W        W25930  12.180  30.620  12.353
66428W        W25931   9.746  28.068  14.365
66429W        W25932  28.166  18.596  10.950
66430W        W25933   6.365  44.922  11.442
66431W        W25934   6.312  29.628  14.481
66432W        W25935  17.760  22.742   1.849
66433W        W25936  33.458  15.594   2.701
66434W        W25937  40.895  16.318  11.982
66435W        W25938  44.343  35.369   3.315
66436W        W25939  22.584  18.607  11.867
66437W        W25940  19.200   5.784  14.783
66438W        W25941  34.918  26.662  13.322
66439W        W25942  21.555  17.253  10.906
66440W        W25943  30.086  42.963  12.991
66441W        W25944  17.691   6.187  14.311
66442W        W25945  16.218  34.881  13.835
66443W        W25946  32.925  40.317   2.764
66444W        W25947  16.200  43.332   1.874
66445W        W25948   1.737  26.604  12.829
66446W        W25949  17.274  28.509   1.735
66447W        W25950  23.219  42.783   4.755
66448W        W25951  34.987   3.366   0.770
66449W        W25952  30.654   7.866  11.940
66450W        W25953  20.051  22.571   3.858
66451W        W25954   3.311  28.458  12.440
66452W        W25955  28.980   6.213   3.744
66453W        W25956  38.534  29.987  10.470
66454W        W25957  36.917   4.418  11.444
66455W        W25958  44.904  12.700   0.924
66456W        W25959  42.920   6.806  14.425
66457W        W25960  36.500  18.224  10.019
66458W        W25961  41.949   8.747   1.352
66459W        W25962   1.798  21.518  11.596
66460W        W25963  15.167  19.254   2.329
66461W        W25964  33.926   3.787  14.939
66462W        W25965  23.990  32.626   0.355
66463W        W25966  14.194   0.954   5.232
66464W        W25967   2.269  32.399   4.319
66465W        W25968   5.211  41.337   3.696
66466W        W25969  22.102  17.561   4.834
66467W        W25970   3.284  26.694  13.025
66468W        W25971   0.950  13.729   0.945
66469W        W25972  24.543  26.165  13.921
66470W        W25973  18.176  29.643   0.388
66471W        W25974  33.085  37.006  13.325
66472W        W25975  13.813   4.212   1.702
66473W        W25976  15.139  10.174  10.945
66474W        W25977   0.457  23.703   2.224
66475W        W25978  37.576  40.929   1.774
66476W        W25979  42.918  37.531  13.316
66477W        W25980   8.734  21.643  13.942
66478W        W25981  12.690   6.276   1.212
66479W        W25982  42.496   4.823   3.367
66480W        W25983  15.589  43.853   1.426
66481W        W25984   8.370   6.335  14.345
66482W        W25985  11.136  18.088   4.273
66483W        W25986  12.212   9.226   3.354
66484W        W25987  10.765  13.651   2.798
66485W        W25988  18.629  23.560  13.024
66486W        W25989  41.377  10.253  14.498
66487W        W25990  44.276  43.985   1.703
66488W        W25991   5.823  10.780   1.421
66489W        W25992  26.639   6.402   3.701
66490W        W25993  37.007  29.482  14.286
66491W        W25994  35.074  38.007   0.292
66492W        W25995  19.586  35.369   4.131
66493W        W25996   3.778   1.380  12.862
66494W        W25997  19.178   5.429  13.004
66495W        W25998  18.768  26.660  11.030
66496W        W25999  32.444  14.299  12.878
66497W        W26000   6.402   9.854  11.980
66498W        W26001  34.051   5.281   0.249
66499W        W26002  17.093  12.234  11.462
66500W        W26003  35.048  10.373   3.658
66501W        W26004  22.563  18.102  12.024
66502W        W26005  28.496  43.434  14.001
66503W        W26006  15.603  14.306   1.445
66504W        W26007   0.313   2.232   0.298
66505W        W26008   2.849  18.584   0.927
66506W        W26009   6.884  10.714   2.249
66507W        W26010  22.219  11.154  10.504
66508W        W26011  43.855  31.067  13.818
66509W        W26012  20.620  35.434  11.074
66510W        W26013   2.911  21.590   4.326
66511W        W26014  15.278  26.660  12.056
66512W        W26015  16.083  17.124  11.492
66513W        W26016  38.428  33.914   0.450
66514W        W26017   3.805  24.089   0.311
66515W        W26018  41.335   9.341  12.363
66516W        W26019  18.149  38.894   2.822
66517W        W26020  29.037  40.377   0.869
66518W        W26021  43.407   9.312  13.447
66519W        W26022  11.223   7.354   4.603
66520W        W26023  36.567  21.753   1.879
66521W        W26024  18.719  20.272   4.646
66522W        W26025  26.184  43.474   0.868
66523W        W26026  16.635  19.050   3.147
66524W        W26027   3.293  31.121   3.805
66525W        W26028  38.049  16.106  11.892
66526W        W26029  20.690  38.363   1.882
66527W        W26030  31.450  31.589   1.447
66528W        W26031  30.420  32.598   3.789
66529W        W26032  26.612  18.657  12.077
66530W        W26033  14.323  13.667  11.908
66531W        W26034  32.027   2.885   0.293
66532W        W26035   3.950  23.632  14.812
66533W        W26036  13.817   5.230   1.733
66534W        W26037   2.936  40.917   0.886
66535W        W26038  27.096  19.082  14.376
66536W        W26039  25.069  17.685  13.398
66537W        W26040  39.962  10.668   1.787
66538W        W26041  38.835  19.544  13.997
66539W        W26042   2.787  17.706  14.487
66540W        W26043  40.320   4.797   2.789
66541W        W26044   0.454  10.218   1.402
66542W        W26045   2.413  26.062  10.436
66543W        W26046  39.369  24.580  10.897
66544W        W26047  38.014  20.568  12.525
66545W        W26048  21.056   4.224  10.079
66546W        W26049  26.101  25.467   2.245
66547W        W26050  30.050   4.308  14.280
66548W        W26051  20.620  18.579   3.657
66549W        W26052  15.748  43.903  11.420
66550W        W26053  40.893  33.927   3.781
66551W        W26054  44.772  22.048   2.779
66552W        W26055  23.618  39.440  13.952
66553W        W26056  24.612  32.634   4.651
66554W        W26057   3.860  42.829   2.256
66555W        W26058  41.042  39.004  10.643
66556W        W26059  32.393  24.217   1.832
66557W        W26060   4.938  23.002   2.662
66558W        W26061   7.337  16.718   2.852
66559W        W26062   2.812  24.617  14.017
66560W        W26063   6.874  35.958   4.694
66561W        W26064  38.404  17.203  14.823
66562W        W26065  19.681  14.817   0.456
66563W        W26066  32.004  28.535   4.782
66564W        W26067  10.301  24.994  12.009
66565W        W26068  44.947   0.910   2.340
66566W        W26069  39.930  15.697  11.936
66567W        W26070  42.420  18.725   3.739
66568W        W26071  42.790  35.981  11.871
66569W        W26072   2.348  19.188   5.790
66570W        W26073   2.811   4.915   2.705
66571W        W26074  32.134  32.415   2.885
66572W        W26075   9.845   8.231   2.396
66573W        W26076  13.802  39.556  12.887
66574W        W26077  11.787   6.916   1.308
66575W        W26078   0.299   0.898   4.600
66576W        W26079   7.755  27.974   2.240
66577W        W26080  25.544  37.340  12.855
66578W        W26081  27.191   8.363  10.473
66579W        W26082  44.984  17.555  10.435
66580W        W26083  30.526  28.672  14.793
66581W        W26084  28.991  43.764   2.240
66582W        W26085  20.703  21.079   3.849
66583W        W26086  16.787  11.222  10.571
66584W        W26087  26.569  15.294   1.312
66585W        W26088   3.891  13.229  12.549
66586W        W26089  34.089  42.936  14.275
66587W        W26090   7.365  22.577   1.913
66588W        W26091  44.900   9.707   2.281
66589W        W26092  40.435  15.670  13.922
66590W        W26093  39.947   8.303   2.323
66591W        W26094  11.274  37.049   4.699
66592W        W26095  12.775  35.540   1.856
66593W        W26096  24.113  29.527   5.187
66594W        W26097  12.188  35.535   4.793
66595W        W26098  21.153  28.953  13.421
66596W        W26099  39.502   5.928   0.479
66597W        W26100  10.770  41.917  14.802
66598W        W26101  39.327  42.914   3.744
66599W        W26102  36.451  27.612  12.537
66600W        W26103  44.963  36.971  13.844
66601W        W26104  17.145  17.198  13.447
66602W        W26105  14.619  32.568   1.916
66603W        W26106  16.307  33.059   2.233
66604W        W26107  15.283  29.041  14.512
66605W        W26108  43.017  22.052   2.238
66606W        W26109   3.376  34.885  12.366
66607W        W26110  13.750  18.651  14.776
66608W        W26111  35.599  41.392   2.226
66609W        W26112  28.942  38.500  11.450
66610W        W26113  18.100  10.714  12.030
66611W        W26114   9.842  39.316   4.237
66612W        W26115  18.609  42.282   0.770
66613W        W26116  23.578  42.471   1.843
66614W        W26117   1.800  43.849  11.880
66615W        W26118  42.006  20.041  11.869
66616W        W26119  27.616  38.824   0.301
66617W        W26120  40.968  29.445   4.755
66618W        W26121   4.209  12.346  14.301
66619W        W26122  21.091  36.922  13.372
66620W        W26123  24.004  21.756   1.791
66621W        W26124  42.831  30.923   4.835
66622W        W26125  26.025  36.868   2.201
66623W        W26126  26.587  26.980  14.428
66624W        W26127  22.201   4.237   1.745
66625W        W26128  37.866  35.080   3.176
66626W        W26129  33.479   1.900   0.281
66627W        W26130  29.658   2.226  12.356
66628W        W26131  39.908  41.858  11.934
66629W        W26132  22.574   5.429   3.635
66630W        W26133  12.694  25.146   4.753
66631W        W26134  18.668  28.932  11.544
66632W        W26135  43.993  24.056   1.892
66633W        W26136  18.088  27.652   1.280
66634W        W26137   4.229   0.466   1.884
66635W        W26138   2.926  10.176   2.672
66636W        W26139   1.417  39.526   3.214
66637W        W26140  21.738  17.604   0.767
66638W        W26141  40.325   9.302  12.024
66639W        W26142  20.078  37.453   3.309
66640W        W26143   0.281  37.025  13.990
66641W        W26144  39.924   0.337   3.232
66642W        W26145  44.477  19.695  12.897
66643W        W26146  19.703  11.175   4.827
66644W        W26147  30.147  21.711   2.737
66645W        W26148  32.403  16.706   5.208
66646W        W26149  18.199  19.750  12.511
66647W        W26150  18.205  36.551  10.500
66648W        W26151  10.163  23.168   0.407
66649W        W26152   0.799   9.743   3.821
66650W        W26153   5.204  34.451  13.985
66651W        W26154  11.739  34.582  13.322
66652W        W26155  14.797   5.395  10.576
66653W        W26156   0.321  11.666   2.728
66654W        W26157  26.093  39.546   2.185
66655W        W26158  40.894   7.387   3.318
66656W        W26159  35.583  29.608  10.621
66657W        W26160   2.323   3.263   1.717
66658W        W26161  37.355  19.576  14.986
66659W        W26162   0.847  43.495   2.862
66660W        W26163  19.137   9.296  12.986
66661W        W26164   4.839  40.371   1.449
66662W        W26165   3.739  30.091   3.271
66663W        W26166   1.877   1.759  13.475
66664W        W26167  38.451  15.580   3.858
66665W        W26168  27.556   5.239  12.049
66666W        W26169   8.385  16.672  10.972
66667W        W26170  33.006  25.473  13.809
66668W        W26171  27.558  40.463   1.412
66669W        W26172  12.703  24.624  12.556
66670W        W26173  34.375  11.671   3.307
66671W        W26174  13.693  29.053  14.384
66672W        W26175  29.157   0.311   0.771
66673W        W26176  31.012  31.014   2.861
66674W        W26177   7.324  15.126  12.357
66675W        W26178  30.462  10.751   0.286
66676W        W26179   6.759  11.861   0.328
66677W        W26180   4.411  26.611  10.472
66678W        W26181  20.203  44.406   4.745
66679W        W26182  32.056  20.129   3.736
66680W        W26183  10.330  31.015  11.087
66681W        W26184   8.281  43.333   3.234
66682W        W26185  29.498   3.254   1.808
66683W        W26186  44.758  31.564   3.275
66684W        W26187  40.402  14.171  14.013
66685W        W26188   5.822  41.390   1.341
66686W        W26189  34.083  36.876  14.801
66687W        W26190  24.001   9.374   4.119
66688W        W26191  27.111  43.888  11.484
66689W        W26192  11.752  22.622  13.986
66690W        W26193  38.410  40.992   3.210
66691W        W26194   3.784  33.940  11.387
66692W        W26195  39.882  17.267   1.261
66693W        W26196   2.758  10.704   1.396
66694W        W26197  28.507  30.535  13.513
66695W        W26198  38.926   1.848   4.801
66696W        W26199   0.749  18.719   0.260
66697W        W26200  11.754  23.097   1.863
66698W        W26201  29.927  23.158  12.859
66699W        W26202  18.292  35.892   1.858
66700W        W26203   9.349  40.032   0.327
66701W        W26204   8.187  38.923  11.985
66702W        W26205   1.797   0.895   1.712
66703W        W26206  10.383  29.441   4.172
66704W        W26207  33.045  29.596   3.865
66705W        W26208  41.474  20.741  11.957
66706W        W26209  21.028  16.681  11.894
66707W        W26210  22.738  38.449   3.200
66708W        W26211  22.137   0.259  11.588
66709W        W26212  36.418  24.978  13.869
66710W        W26213  16.257   0.414   3.755
66711W        W26214  42.398  13.137   1.809
66712W        W26215  20.737  33.516   0.385
66713W        W26216  35.437  40.506   2.284
66714W        W26217  14.596  30.556  11.902
66715W        W26218  19.061  20.583   4.153
66716W        W26219  40.440  16.706   2.868
66717W        W26220  15.166   5.837   2.180
66718W        W26221  38.908  44.332   2.243
66719W        W26222  24.203  10.768  12.370
66720W        W26223  18.174  38.065   4.704
66721W        W26224  10.841  29.063  14.331
66722W        W26225  19.710  22.012   0.818
66723W        W26226  16.084   8.224  14.284
66724W        W26227  37.071  35.575   3.324
66725W        W26228  15.740   3.245   4.695
66726W        W26229  19.257  22.672  12.893
66727W        W26230  40.847  25.578  11.977
66728W        W26231   8.876   4.849  13.337
66729W        W26232  27.515  37.358   2.745
66730W        W26233  44.916  28.477  10.443
66731W        W26234  33.449   8.836   2.768
66732W        W26235  38.946  17.218   1.751
66733W        W26236   0.761  39.043   1.916
66734W        W26237  41.811  43.408   1.325
66735W        W26238  32.478  25.129   1.432
66736W        W26239   7.294  26.529   1.363
66737W        W26240  19.198   5.923   4.162
66738W        W26241  38.024  17.222  10.161
66739W        W26242   4.269  42.908  13.064
66740W        W26243  35.435  34.964   2.891
66741W        W26244  10.192  36.373  12.373
66742W        W26245  33.402  44.410  10.519
66743W        W26246   4.906  29.504   4.204
66744W        W26247   0.377  16.088  13.848
66745W        W26248  27.533  19.775  13.967
66746W        W26249  11.655  31.409   4.297
66747W        W26250  13.118  24.142   0.828
66748W        W26251   4.293  37.951  10.911
66749W        W26252  32.025  18.056  11.589
66750W        W26253  17.138  23.116  12.349
66751W        W26254  34.561  31.976   3.786
66752W        W26255  30.974  10.677   0.943
66753W        W26256  23.155  33.495  12.917
66754W        W26257  19.235  18.209  11.050
66755W        W26258  25.968  20.274  12.022
66756W        W26259   4.410   1.421   1.812
66757W        W26260  41.793  31.910   3.755
66758W        W26261  23.526  31.900  12.871
66759W        W26262   4.823  19.614   4.126
66760W        W26263  32.005  24.986   0.322
66761W        W26264   2.338  43.805  11.855
66762W        W26265  23.542   0.256  14.325
66763W        W26266   6.899  26.126  13.998
66764W        W26267  29.522  33.537  13.534
66765W        W26268   6.343  31.039   1.820
66766W        W26269  23.232   1.756   2.307
66767W        W26270  39.983  20.695  11.521
66768W        W26271  17.197   2.394   1.899
66769W        W26272  33.042  25.013  13.908
66770W        W26273  11.163   6.905  11.371
66771W        W26274  15.217  21.702  10.954
66772W        W26275   9.710  33.014   5.689
66773W        W26276  11.272  12.120   2.225
66774W        W26277  21.059  34.937   2.856
66775W        W26278  41.834   3.866   1.925
66776W        W26279  21.578  36.480   4.224
66777W        W26280   4.430  15.643  11.011
66778W        W26281  43.901   1.427  11.110
66779W        W26282  31.926   7.225   3.711
66780W        W26283  34.500  25.701  13.046
66781W        W26284  18.701  10.703  13.336
66782W        W26285   5.437  32.507  13.531
66783W        W26286  19.148  20.659   2.735
66784W        W26287  34.875  31.568  14.780
66785W        W26288  44.845   0.360   3.732
66786W        W26289  21.074  24.675  10.554
66787W        W26290   0.297   6.225  12.896
66788W        W26291  11.707  11.342   3.725
66789W        W26292   6.793  30.999   0.304
66790W        W26293   3.839  26.522  10.133
66791W        W26294  34.943  32.432  13.009
66792W        W26295  35.590  32.939   2.220
66793W        W26296  25.147   6.184   2.730
66794W        W26297  17.613  38.954   0.948
66795W        W26298  12.357  26.626  10.105
66796W        W26299  25.181  33.102   4.339
66797W        W26300  28.455  27.535  13.040
66798W        W26301  38.921  38.903  12.956
66799W        W26302  16.307   7.780  13.467
66800W        W26303  20.557  20.616  12.856
66801W        W26304  31.590  26.631  12.555
66802W        W26305  28.614  11.141   4.179
66803W        W26306  17.251  25.204  11.930
66804W        W26307  26.556  27.987   0.926
66805W        W26308  18.112  41.018  11.899
66806W        W26309  15.814  42.354  14.987
66807W        W26310  35.922  32.573   3.797
66808W        W26311   5.341  28.503  12.389
66809W        W26312  11.805  28.161  12.018
66810W        W26313  35.483  22.048   4.281
66811W        W26314  32.048  22.530  10.979
66812W        W26315  29.616  41.352   1.420
66813W        W26316   9.733  18.580   1.440
66814W        W26317  15.271   3.878  13.043
66815W        W26318  18.789   8.310   4.746
66816W        W26319  14.789  34.576  11.596
66817W        W26320  19.662  32.030   3.274
66818W        W26321  22.672  27.627   4.129
66819W        W26322  44.951  17.100  10.564
66820W        W26323  33.063  16.569  11.471
66821W        W26324  24.712  41.390  14.282
66822W        W26325   9.649  35.521   0.392
66823W        W26326  20.692  19.213   4.251
66824W        W26327  36.445  26.984   2.837
66825W        W26328  12.358   7.830   1.231
66826W        W26329  34.993  26.030  12.893
66827W        W26330  32.451   2.769  10.560
66828W        W26331  11.854   5.340  14.505
66829W        W26332  19.727   6.907  11.102
66830W        W26333  28.938  31.605   0.763
66831W        W26334  35.528  33.008  13.861
66832W        W26335  24.047  27.137   0.811
66833W        W26336  15.271  14.623   4.651
66834W        W26337  22.054  30.022   4.752
66835W        W26338  20.239  26.101  11.981
66836W        W26339  11.274  19.141   4.606
66837W        W26340   0.799  41.872   1.428
66838W        W26341  23.046   9.759  12.900
66839W        W26342  22.200  16.204  11.585
66840W        W26343  18.256  16.571  13.471
66841W        W26344  20.720   7.230   4.153
66842W        W26345  26.657  27.516  11.430
66843W        W26346   0.324  34.008   0.864
66844W        W26347  28.015   7.253  12.092
66845W        W26348  32.417  26.172   2.185
66846W        W26349  30.485  30.011   1.310
66847W        W26350  24.671  14.336  11.392
66848W        W26351  24.541  28.568  13.468
66849W        W26352  10.817  28.048   3.152
66850W        W26353   9.673  43.952   2.253
66851W        W26354  27.540  31.910   2.712
66852W        W26355  44.497  28.088  10.016
66853W        W26356  22.665  21.616   4.327
66854W        W26357  44.361   0.976   3.368
66855W        W26358  16.704   8.861   2.216
66856W        W26359  41.317  37.911  11.025
66857W        W26360   0.433   9.856   3.385
66858W        W26361  31.430  17.634  10.569
66859W        W26362   4.245   0.445  14.985
66860W        W26363  34.412  11.366   9.950
66861W        W26364  37.374  33.886   2.695
66862W        W26365  38.344  30.498  14.504
66863W        W26366  23.615  32.001   3.299
66864W        W26367  22.700  41.536  12.366
66865W        W26368  36.956  28.143   1.909
66866W        W26369  30.491  20.761   0.385
66867W        W26370   9.206  43.409  14.368
66868W        W26371   4.926  24.540   1.846
66869W        W26372  31.644  25.468  14.274
66870W        W26373  19.648  39.517  14.840
66871W        W26374   8.404   4.207   2.213
66872W        W26375   5.294  39.482   3.672
66873W        W26376   0.420   2.789   0.355
66874W        W26377  27.638  26.696  14.436
66875W        W26378  12.303  15.205  10.898
66876W        W26379  17.561  10.302  14.851
66877W        W26380  21.126  14.704   2.676
66878W        W26381   4.323  22.070  10.435
66879W        W26382  20.197  16.267   1.301
66880W        W26383  40.380   1.882   2.347
66881W        W26384  22.646  43.807   0.930
66882W        W26385   6.207  35.397   0.471
66883W        W26386  30.611  30.657   4.630
66884W        W26387  14.122  32.140  14.006
66885W        W26388   4.773  15.612  14.468
66886W        W26389   1.390  32.141   3.723
66887W        W26390  44.471  38.456  10.613
66888W        W26391  22.165  11.146   0.875
66889W        W26392   8.810  19.140   1.905
66890W        W26393  44.833  20.087  13.387
66891W        W26394  28.595  12.321  14.868
66892W        W26395  40.966  33.011  12.494
66893W        W26396  43.316  34.577   2.206
66894W        W26397  29.044  42.430   1.427
66895W        W26398  23.713  27.515  14.980
66896W        W26399  44.850  10.296   1.880
66897W        W26400   1.385  17.606  14.807
66898W        W26401  40.426   3.444  11.108
66899W        W26402  17.142  37.503  11.918
66900W        W26403  26.547  41.453   0.273
66901W        W26404  38.945  42.945   3.258
66902W        W26405  44.837  35.065   0.393
66903W        W26406  33.897   5.400   2.369
66904W        W26407  20.610  12.648  10.571
66905W        W26408  18.785   2.360   0.392
66906W        W26409  10.869  24.719   4.824
66907W        W26410  18.643  25.968   0.354
66908W        W26411   9.268  11.765  14.854
66909W        W26412  17.607   9.787   4.247
66910W        W26413  26.465  10.685   0.926
66911W        W26414  24.211  44.301   9.632
66912W        W26415   6.825   0.460   3.216
66913W        W26416  16.596  12.697  14.417
66914W        W26417  16.199   3.282  12.992
66915W        W26418  12.789  19.602   1.387
66916W        W26419   3.939  17.102  12.496
66917W        W26420   1.368  22.044   3.665
66918W        W26421  27.686   9.777  11.491
66919W        W26422   6.702  16.222   2.753
66920W        W26423  40.435   2.841   4.624
66921W        W26424  20.719  15.313   3.213
66922W        W26425  17.301  36.996  11.875
66923W        W26426  23.716  14.267   3.150
66924W        W26427  29.461  18.297  11.534
66925W        W26428  21.180  19.614   4.692
66926W        W26429  17.582   8.884   4.247
66927W        W26430   3.751  11.654   1.707
66928W        W26431   5.340  11.225   2.328
66929W        W26432  37.065  18.288   0.813
66930W        W26433  23.662  36.431  13.950
66931W        W26434  29.161   0.854   1.300
66932W        W26435   5.342  23.219  12.520
66933W        W26436  32.092  43.955  13.420
66934W        W26437  28.547  23.681  13.835
66935W        W26438  26.118  12.265  14.454
66936W        W26439  39.459  37.966   1.444
66937W        W26440   1.909   2.462  12.929
66938W        W26441   0.963   2.370   1.800
66939W        W26442  18.770  10.698   3.243
66940W        W26443   0.909  38.973   3.162
66941W        W26444  34.423  10.255   2.228
66942W        W26445  38.487  13.734   0.255
66943W        W26446  41.006  31.636  12.384
66944W        W26447  20.536  25.086  11.435
66945W        W26448  41.348   6.896   4.257
66946W        W26449  34.973   6.403  13.315
66947W        W26450  39.831  43.896  10.965
66948W        W26451   1.873  33.613  12.977
66949W        W26452   4.753  40.385  11.393
66950W        W26453   6.858  15.676  13.467
66951W        W26454  42.466  29.616   4.215
66952W        W26455   5.429  16.290   0.327
66953W        W26456  19.554  25.519  14.938
66954W        W26457  38.428  20.166  14.364
66955W        W26458  25.613  20.271  12.014
66956W        W26459  18.186   0.439  11.863
66957W        W26460  16.772  31.990   4.249
66958W        W26461  43.449  28.524  14.897
66959W        W26462   7.742  36.000  10.031
66960W        W26463   1.311  19.634  13.818
66961W        W26464  29.975  27.483  12.971
66962W        W26465  43.867   3.742   3.377
66963W        W26466   2.966  29.032   0.833
66964W        W26467  10.845  28.163   1.241
66965W        W26468   5.761  37.409   4.263
66966W        W26469  19.669   4.237   0.732
66967W        W26470  17.625  37.434  14.901
66968W        W26471  16.589  14.716  11.069
66969W        W26472  17.101  28.966   3.664
66970W        W26473   7.790   7.845   2.766
66971W        W26474  32.454  16.307   0.831
66972W        W26475  21.674  27.092  14.294
66973W        W26476   8.821  41.862   1.789
66974W        W26477  42.870  15.128  11.904
66975W        W26478  31.933  40.875   2.861
66976W        W26479   1.472   9.789  13.939
66977W        W26480  20.571   7.886   3.376
66978W        W26481  11.270   2.350   1.874
66979W        W26482  38.890   9.178  11.531
66980W        W26483  15.641  13.767   3.225
66981W        W26484  20.742  28.589   3.163
66982W        W26485  12.245  10.181   2.835
66983W        W26486   0.441  44.502   1.710
66984W        W26487  39.002  38.407   4.790
66985W        W26488  25.197  28.626   4.667
66986W        W26489  13.331  34.601   3.216
66987W        W26490   2.822  39.960  11.534
66988W        W26491  29.615  26.123  11.926
66989W        W26492  27.650  27.677   0.418
66990W        W26493  17.754  17.726  13.059
66991W        W26494  13.689   4.222   4.603
66992W        W26495  29.660  11.767   1.259
66993W        W26496  12.637   2.426   3.720
66994W        W26497  39.430  16.193  12.417
66995W        W26498  17.761  32.066  11.024
66996W        W26499   6.676  38.387   2.404
66997W        W26500  20.768  12.788   4.633
66998W        W26501  42.397  12.152  13.794
66999W        W26502  38.522   6.418  14.882
67000W        W26503   6.363  22.611  10.939
67001W        W26504  22.167  37.914  12.369
67002W        W26505  24.666  41.013   0.866
67003W        W26506  31.943  40.819   2.374
67004W        W26507  27.649  42.334   1.710
67005W        W26508  43.435  27.098  11.907
67006W        W26509   9.222  41.912  10.966
67007W        W26510  33.467   3.840  11.377
67008W        W26511  31.932  30.014  14.441
67009W        W26512   3.419  32.512   4.226
67010W        W26513   0.311  14.114   4.603
67011W        W26514  18.709  40.037   1.918
67012W        W26515  39.492  29.057  13.811
67013W        W26516   1.405  38.384   0.398
67014W        W26517  44.461  18.737  13.974
67015W        W26518  11.770  30.482   1.328
67016W        W26519   9.854  23.667  14.934
67017W        W26520  23.006  15.627  14.005
67018W        W26521   4.296  26.036  10.493
67019W        W26522   0.860  14.166   1.384
67020W        W26523  16.210  18.641   3.173
67021W        W26524  17.747   6.296  13.898
67022W        W26525  25.023  18.144  12.431
67023W        W26526  34.910  28.480  10.495
67024W        W26527  43.912  31.087  12.580
67025W        W26528  16.133  19.148   4.138
67026W        W26529   7.853  14.335  11.981
67027W        W26530  16.304   2.752  12.027
67028W        W26531   0.300   3.811  13.909
67029W        W26532  20.749   4.835  12.886
67030W        W26533  17.096  16.743   3.210
67031W        W26534  21.037  15.584   4.121
67032W        W26535  24.649  15.169   2.321
67033W        W26536   9.227  17.682   9.626
67034W        W26537  31.952  18.699   3.663
67035W        W26538  28.144  12.731  11.041
67036W        W26539  38.384  17.115  11.508
67037W        W26540   4.937  24.073   3.217
67038W        W26541   0.282  41.886   3.169
67039W        W26542  31.966  40.450   3.674
67040W        W26543  34.413   4.257   0.907
67041W        W26544   5.721  26.983   2.849
67042W        W26545  18.214  33.938   2.890
67043W        W26546   9.716  26.525   4.740
67044W        W26547  21.600   2.238  10.561
67045W        W26548   3.777  16.713   3.788
67046W        W26549  12.182   2.832   4.812
67047W        W26550  24.700  22.556  13.398
67048W        W26551  10.161  33.612   5.738
67049W        W26552  21.734   4.803  11.550
67050W        W26553   5.303  33.052  12.432
67051W        W26554  43.906  33.127  10.476
67052W        W26555   3.366   3.740   4.686
67053W        W26556  21.628  16.225  11.905
67054W        W26557   0.790   1.899   1.810
67055W        W26558   3.430  29.570   2.716
67056W        W26559  36.973  37.004   2.870
67057W        W26560  32.114  20.676   2.318
67058W        W26561  17.116  10.276  11.409
67059W        W26562  12.185  32.899  12.418
67060W        W26563  39.538   1.439   4.140
67061W        W26564  28.522  26.664   5.703
67062W        W26565  18.062   9.728  12.092
67063W        W26566   5.314   7.354  11.585
67064W        W26567   8.745   6.189   4.221
67065W        W26568  16.812  33.498  14.957
67066W        W26569  33.480  16.218   2.233
67067W        W26570   8.875  17.254  14.972
67068W        W26571  19.214  38.325   2.187
67069W        W26572  21.173  35.506  11.928
67070W        W26573   9.788  13.704  12.448
67071W        W26574  31.427  16.149  10.449
67072W        W26575  10.268  36.547   1.393
67073W        W26576  23.523   3.244  10.158
67074W        W26577  43.373  20.097  13.815
67075W        W26578   4.885   8.311  12.463
67076W        W26579  23.168   2.228   1.416
67077W        W26580  21.025  29.670  10.513
67078W        W26581  40.441  42.313  12.838
67079W        W26582   8.345   5.784  10.599
67080W        W26583  37.474  15.289  10.539
67081W        W26584  44.274  44.401   2.418
67082W        W26585  17.620  33.494   3.782
67083W        W26586  28.028  28.024  14.005
67084W        W26587   3.858  15.087   1.721
67085W        W26588   4.875   6.877   3.814
67086W        W26589  40.871  26.161  14.878
67087W        W26590  25.209  20.170   1.213
67088W        W26591  19.079   2.731   3.755
67089W        W26592  38.942  23.162  10.450
67090W        W26593  20.742  30.454   1.708
67091W        W26594  24.585  43.468  12.061
67092W        W26595  35.539  37.032  11.501
67093W        W26596  10.222   1.959  11.041
67094W        W26597  29.472   5.787  10.990
67095W        W26598   4.736  20.620  11.111
67096W        W26599  37.882  37.942   1.747
67097W        W26600  22.601  43.970  14.429
67098W        W26601  29.523   8.377   4.807
67099W        W26602  26.131  43.307   0.379
67100W        W26603  39.426  20.032  10.940
67101W        W26604  35.011  42.817   0.438
67102W        W26605  26.487  27.105   3.192
67103W        W26606  40.472  26.974   4.197
67104W        W26607   0.770  36.069  14.388
67105W        W26608  36.424  19.231   3.686
67106W        W26609  40.502  25.144   2.810
67107W        W26610   8.201  14.310   5.088
67108W        W26611   1.391  24.582  13.895
67109W        W26612  18.590  11.275   1.319
67110W        W26613  25.967  20.655   1.757
67111W        W26614   1.867  42.882   0.331
67112W        W26615  42.809  18.150  11.907
67113W        W26616  14.126  28.134   1.244
67114W        W26617  28.054  40.877  14.850
67115W        W26618  12.639  36.403  10.888
67116W        W26619   4.285  44.927   2.198
67117W        W26620  39.817  29.572   0.252
67118W        W26621  21.193   2.781   0.311
67119W        W26622  27.137  37.406  11.117
67120W        W26623  38.552  20.209   4.168
67121W        W26624  21.645  37.086  11.409
67122W        W26625  22.592   3.234  12.911
67123W        W26626  40.852  40.382   0.934
67124W        W26627   4.780  34.931  14.982
67125W        W26628  20.760  17.648  11.053
67126W        W26629   9.827   2.284  10.489
67127W        W26630  16.698  30.535  13.857
67128W        W26631  28.100  24.725  10.132
67129W        W26632  33.959   2.263   3.315
67130W        W26633  30.640  26.182  13.407
67131W        W26634  30.576  40.845  12.095
67132W        W26635  15.118  14.642  11.950
67133W        W26636  18.704   8.875  13.447
67134W        W26637  17.713  28.100  12.881
67135W        W26638   8.246  29.144   1.269
67136W        W26639  11.848  11.362   2.874
67137W        W26640  35.936  28.530   3.308
67138W        W26641  16.652  26.123  14.485
67139W        W26642  41.798  27.467  11.443
67140W        W26643  18.777  16.224  14.886
67141W        W26644  17.582  24.103  12.910
67142W        W26645  14.745  42.810   2.194
67143W        W26646  28.504   7.299  13.532
67144W        W26647   5.242  44.932   4.729
67145W        W26648   1.921  31.017  12.995
67146W        W26649   8.274  13.732   3.289
67147W        W26650  16.078  12.226   0.455
67148W        W26651  18.291  12.846   1.335
67149W        W26652  13.607  21.217  11.467
67150W        W26653   1.426  40.987   1.871
67151W        W26654  10.243  39.022  13.018
67152W        W26655   6.399  25.142   0.438
67153W        W26656  12.685  28.669   1.421
67154W        W26657  27.092   3.434  11.399
67155W        W26658  44.262  19.720   1.392
67156W        W26659  14.740  39.926  13.991
67157W        W26660  11.757  27.148  12.947
67158W        W26661  34.486  14.340   5.268
67159W        W26662  18.770   4.922   1.349
67160W        W26663  18.679   0.476   1.932
67161W        W26664  35.582  40.988   4.296
67162W        W26665  36.924   8.814   3.661
67163W        W26666  21.738  20.065  11.406
67164W        W26667  26.551  13.648  14.974
67165W        W26668  42.439  44.377   4.155
67166W        W26669  37.495  42.444   2.876
67167W        W26670   7.239  26.622   3.774
67168W        W26671  18.711  10.771  11.916
67169W        W26672  27.085   9.795   1.381
67170W        W26673  14.637  40.394  13.384
67171W        W26674  19.056   7.276  13.005
67172W        W26675   8.216  15.156   5.180
67173W        W26676  26.130  14.754   1.357
67174W        W26677   1.313  18.054  11.020
67175W        W26678  15.668  19.666  11.879
67176W        W26679  30.539  27.635  11.946
67177W        W26680  18.249  25.496   0.910
67178W        W26681  20.062   8.730  10.107
67179W        W26682  35.934  16.587   3.359
67180W        W26683  13.788  17.192   3.784
67181W        W26684   6.345  18.281   2.735
67182W        W26685   4.863  41.834   2.273
67183W        W26686  41.913  42.956   1.384
67184W        W26687  10.172   5.902   3.830
67185W        W26688   3.267  16.151   3.678
67186W        W26689  14.227  22.195  10.609
67187W        W26690   1.425  15.808  11.390
67188W        W26691  19.726  24.017   3.261
67189W        W26692  17.560   6.357   4.709
67190W        W26693  37.570  18.610   2.299
67191W        W26694  13.207  25.523  12.025
67192W        W26695   6.766  21.197   3.783
67193W        W26696  14.110  23.047  14.505
67194W        W26697  23.014  25.509   4.197
67195W        W26698  37.550  20.553   1.264
67196W        W26699  28.066  40.826   0.908
67197W        W26700  24.536   3.326   0.303
67198W        W26701  41.332   5.197   5.134
67199W        W26702  25.685  19.260  11.447
67200W        W26703  34.033   6.363  12.891
67201W        W26704  44.795  39.526   4.630
67202W        W26705  34.027  20.678   1.384
67203W        W26706  43.308  10.186  10.984
67204W        W26707  29.532   3.461  13.044
67205W        W26708  24.528  13.783  12.503
67206W        W26709  43.824  29.014  11.933
67207W        W26710  20.067   9.268  10.550
67208W        W26711   0.801  19.726   2.318
67209W        W26712   0.799   0.314  12.570
67210W        W26713   5.808  14.764  13.058
67211W        W26714  39.865  29.535   2.696
67212W        W26715  26.117  38.441   2.373
67213W        W26716  40.003   5.791   3.652
67214W        W26717  42.930   2.929  12.885
67215W        W26718  39.393  21.575  12.351
67216W        W26719  44.270  42.001   4.174
67217W        W26720  11.285  22.183   3.371
67218W        W26721  24.567  10.170  12.826
67219W        W26722   1.905  21.579   2.404
67220W        W26723  40.867  44.443   4.204
67221W        W26724  34.531  39.429   0.892
67222W        W26725  35.422  29.449  14.318
67223W        W26726  33.080  31.089  14.845
67224W        W26727  44.413  33.449  12.355
67225W        W26728  15.769  31.458   4.749
67226W        W26729  44.942  30.930   5.759
67227W        W26730  27.093  31.636   0.438
67228W        W26731  20.111   2.961   1.787
67229W        W26732  15.764  16.618   0.433
67230W        W26733  28.087  21.051  11.577
67231W        W26734  21.105  37.491   0.322
67232W        W26735  18.651  27.032  11.129
67233W        W26736  20.578  21.688   1.227
67234W        W26737   1.856  32.041   1.227
67235W        W26738  26.639  43.397  14.923
67236W        W26739  17.233  29.501   0.918
67237W        W26740  15.716  14.626  12.974
67238W        W26741   6.261  42.886   5.218
67239W        W26742  15.184  23.726   2.866
67240W        W26743  42.916  34.467  12.946
67241W        W26744  17.287  43.458  14.827
67242W        W26745  42.851  28.098   3.650
67243W        W26746  30.141   3.305  13.968
67244W        W26747  39.478  44.436   1.709
67245W        W26748  44.476  25.964   1.298
67246W        W26749   7.180  42.943  10.588
67247W        W26750  15.098  15.136   1.711
67248W        W26751  10.191   2.924   2.678
67249W        W26752  10.696  42.434  14.287
67250W        W26753  36.358  22.741  14.488
67251W        W26754   2.405   3.942  12.019
67252W        W26755  33.414  38.392   2.900
67253W        W26756   3.252   3.302   4.809
67254W        W26757   7.414  23.603   1.269
67255W        W26758  30.013  39.411   3.721
67256W        W26759  10.862  17.111   0.467
67257W        W26760   9.234  28.988  13.956
67258W        W26761  43.829  29.450  14.285
67259W        W26762  32.111   3.780  12.520
67260W        W26763  32.063  44.985   2.712
67261W        W26764  34.953  30.931   3.733
67262W        W26765   1.306   7.186  11.864
67263W        W26766  28.982   1.341   4.160
67264W        W26767  31.409  42.376   3.813
67265W        W26768  23.676  21.251  10.921
67266W        W26769  22.529  13.748  10.994
67267W        W26770  34.482  35.945   2.877
67268W        W26771  15.222  17.646  12.864
67269W        W26772  26.599  10.328  11.879
67270W        W26773  39.987  18.728  12.378
67271W        W26774  18.571  11.803   2.899
67272W        W26775  41.882  26.050  11.612
67273W        W26776  39.846  16.222  11.000
67274W        W26777  43.886   2.268   2.292
67275W        W26778  16.227  22.077   2.374
67276W        W26779  34.923  28.606   9.976
67277W        W26780   0.336   3.724  10.566
67278W        W26781  20.169   0.852  14.403
67279W        W26782  38.912  39.371  11.128
67280W        W26783  32.507  31.469  11.512
67281W        W26784   0.941   1.892   4.188
67282W        W26785   0.365   4.358  13.921
67283W        W26786  37.065  38.499   1.242
67284W        W26787  30.659  23.544   3.383
67285W        W26788  44.932  38.536   4.765
67286W        W26789   2.385   7.676  12.070
67287W        W26790  36.093  38.562  10.928
67288W        W26791  37.366  39.481   0.400
67289W        W26792  39.520  38.539  10.595
67290W        W26793  31.138  25.596   0.447
67291W        W26794  19.145  19.582   1.852
67292W        W26795  43.416  20.535   1.907
67293W        W26796  29.444  36.020  13.341
67294W        W26797  24.642   9.246  13.345
67295W        W26798  23.089   6.892   0.391
67296W        W26799  29.570   1.905  10.984
67297W        W26800  23.051   0.391   3.366
67298W        W26801  12.691  44.428   4.709
67299W        W26802  10.250   7.742   1.418
67300W        W26803  40.544  23.682   1.821
67301W        W26804   3.305  21.576   2.266
67302W        W26805  24.039  16.699   3.320
67303W        W26806  25.115  21.054   0.375
67304W        W26807  13.205  11.242   2.888
67305W        W26808  33.502   8.369  10.113
67306W        W26809  19.210  16.145  14.792
67307W        W26810  41.516  10.314  12.567
67308W        W26811   5.807  43.919  12.891
67309W        W26812   1.313  15.157  11.031
67310W        W26813  22.737  13.197   4.283
67311W        W26814   0.943  24.975   1.316
67312W        W26815  42.479   1.935   1.700
67313W        W26816  19.221  41.985  10.435
67314W        W26817  10.643  41.002   4.156
67315W        W26818  11.630   7.390   1.292
67316W        W26819   5.240  14.829   3.773
67317W        W26820   4.904  17.681  11.383
67318W        W26821  34.940  43.346   2.207
67319W        W26822  30.562  39.354   2.826
67320W        W26823  13.605   7.762   1.845
67321W        W26824  14.713  27.116   3.701
67322W        W26825  19.268  32.482   2.809
67323W        W26826  16.228  22.057  14.351
67324W        W26827  21.603  38.064   1.910
67325W        W26828   6.410  20.270  11.928
67326W        W26829   2.798   0.427  13.887
67327W        W26830  22.153  37.475   3.800
67328W        W26831   4.280  23.046   2.180
67329W        W26832  17.138  31.503  13.487
67330W        W26833   9.218  15.735   2.213
67331W        W26834  14.823   3.922  14.994
67332W        W26835  21.117  11.707   0.780
67333W        W26836  16.711  28.607   0.378
67334W        W26837  39.844  23.073   2.716
67335W        W26838  29.983  19.246   1.835
67336W        W26839  24.516  36.932  14.331
67337W        W26840  31.517   1.903   4.330
67338W        W26841  31.065  28.028  13.548
67339W        W26842  24.146  19.555  13.041
67340W        W26843  43.976  37.938   1.921
67341W        W26844  14.771  16.756  11.941
67342W        W26845  20.745  26.155  11.108
67343W        W26846  35.430   6.738   1.844
67344W        W26847  35.522  10.382   4.170
67345W        W26848  35.513   0.332   0.965
67346W        W26849  44.837  30.065  12.451
67347W        W26850  30.422   4.281  12.566
67348W        W26851  12.629  36.079  13.038
67349W        W26852  25.651  22.104  11.098
67350W        W26853  22.641   8.838   0.460
67351W        W26854  30.020   2.266   2.354
67352W        W26855  21.194  10.764  14.339
67353W        W26856  43.272   6.678   5.753
67354W        W26857  27.452   8.394   3.358
67355W        W26858  18.610   1.286   4.639
67356W        W26859  28.507   3.944  10.556
67357W        W26860  35.553   0.790  11.395
67358W        W26861  10.737   4.786   1.403
67359W        W26862  18.693   2.771   1.810
67360W        W26863  43.961  34.976  12.920
67361W        W26864  30.021  36.848   3.718
67362W        W26865  20.241   3.902   0.270
67363W        W26866  23.650  36.493   1.250
67364W        W26867  26.622   9.243  13.336
67365W        W26868  27.196   3.836  11.856
67366W        W26869  24.025   1.873  13.308
67367W        W26870  36.431  18.060  12.513
67368W        W26871  11.181  42.952  12.959
67369W        W26872  29.159   4.348   4.832
67370W        W26873  36.857  22.178  11.478
67371W        W26874  24.511  42.802   2.234
67372W        W26875  31.153  30.509  11.585
67373W        W26876   1.325  21.613  10.521
67374W        W26877  20.076  35.065  14.856
67375W        W26878  23.689   5.348   3.657
67376W        W26879  18.586  30.081   0.955
67377W        W26880  30.134  31.578  10.626
67378W        W26881  10.874  15.800  13.381
67379W        W26882  35.434  44.899  11.987
67380W        W26883   5.326  27.057  12.042
67381W        W26884  32.403   4.915  12.566
67382W        W26885  40.347  24.546   0.411
67383W        W26886  24.525  27.634   2.280
67384W        W26887   0.254  23.053  12.981
67385W        W26888   4.423  19.169  11.434
67386W        W26889  34.403  30.477  11.528
67387W        W26890  23.988  25.053   0.891
67388W        W26891   8.199   9.326  11.386
67389W        W26892  23.011  43.785  11.568
67390W        W26893  26.059  23.549   1.857
67391W        W26894  36.966  21.524   4.662
67392W        W26895  18.687   6.412  14.348
67393W        W26896  23.154  15.809   1.776
67394W        W26897  27.542   2.882  11.578
67395W        W26898  18.742  20.703  14.976
67396W        W26899  40.531  20.236  11.445
67397W        W26900  28.934  22.705   1.910
67398W        W26901  35.457   2.783  11.042
67399W        W26902  17.139  32.063  14.845
67400W        W26903  39.524  28.448   3.695
67401W        W26904  21.088  15.605  12.362
67402W        W26905  22.729  30.123  13.807
67403W        W26906   8.356   1.901   4.599
67404W        W26907  34.957  35.012  11.116
67405W        W26908  17.273  32.056  11.530
67406W        W26909  38.511  40.807   0.863
67407W        W26910   0.767  16.107  11.552
67408W        W26911  40.851  29.946  14.790
67409W        W26912  27.625   5.750  10.947
67410W        W26913  27.616  35.984   2.870
67411W        W26914  36.555  25.020   4.831
67412W        W26915  18.243  22.689  14.768
67413W        W26916  11.171  32.086   0.916
67414W        W26917  41.405   1.864  14.917
67415W        W26918  31.424   4.232  11.086
67416W        W26919  13.131  14.735  11.527
67417W        W26920  19.173  16.159   1.263
67418W        W26921   0.332  17.254  13.814
67419W        W26922  15.594   7.270   0.938
67420W        W26923   0.761   1.363   2.257
67421W        W26924  43.437  33.046   4.645
67422W        W26925  28.517  18.615   4.132
67423W        W26926  31.901  29.008  10.452
67424W        W26927  20.721  19.581  14.493
67425W        W26928   5.856  44.808   1.409
67426W        W26929  36.962  18.251   1.805
67427W        W26930  17.244  17.160  10.095
67428W        W26931   7.275   3.365   1.386
67429W        W26932  22.592  25.041  12.081
67430W        W26933   0.400  39.854  12.994
67431W        W26934   2.766  21.173  13.926
67432W        W26935   5.841  37.524   0.929
67433W        W26936   5.368   0.889   3.380
67434W        W26937  10.689   3.751   0.305
67435W        W26938  15.141   2.895   2.411
67436W        W26939  33.884  11.775  12.469
67437W        W26940  34.552  35.061   3.186
67438W        W26941  37.574  23.563  14.437
67439W        W26942  40.845  16.763   3.384
67440W        W26943  37.065  33.482   0.814
67441W        W26944  40.807  17.730   4.661
67442W        W26945   5.312  22.691  10.589
67443W        W26946  41.952  16.205   3.641
67444W        W26947  43.803  29.649  13.965
67445W        W26948  19.765   2.760   4.184
67446W        W26949   5.275  32.400   4.115
67447W        W26950  26.956  16.233   0.372
67448W        W26951   8.676  41.512  11.005
67449W        W26952   3.818  18.733  12.087
67450W        W26953  31.090  37.987  14.480
67451W        W26954  30.599  20.274   2.351
67452W        W26955  27.047  32.012  14.486
67453W        W26956  33.592   7.300  12.053
67454W        W26957  33.592  23.505   0.267
67455W        W26958  28.947  32.968   1.222
67456W        W26959   2.314  29.493   3.734
67457W        W26960   4.425  35.513  11.890
67458W        W26961  29.546  38.404  11.956
67459W        W26962  35.368   0.808  11.862
67460W        W26963   0.263  31.955   4.133
67461W        W26964  37.005  19.683   1.248
67462W        W26965  34.895  13.319  13.507
67463W        W26966  17.584  21.528   4.328
67464W        W26967  27.017  16.306   1.376
67465W        W26968  10.664  26.702   4.702
67466W        W26969  11.275   8.203  12.039
67467W        W26970   0.349   0.310  14.932
67468W        W26971  23.112  35.895   2.789
67469W        W26972  10.647  26.037   0.740
67470W        W26973  20.610   2.906  10.620
67471W        W26974  14.185  20.591   0.881
67472W        W26975  42.790  13.159  11.076
67473W        W26976   3.394   2.844  14.390
67474W        W26977  20.606   1.933   2.676
67475W        W26978   5.698  26.537   1.444
67476W        W26979  38.069  35.024  14.806
67477W        W26980  10.790  22.179   1.786
67478W        W26981  12.790  44.367   5.185
67479W        W26982  44.392   4.274   3.329
67480W        W26983  22.251  39.037   1.414
67481W        W26984  28.661  25.019  11.430
67482W        W26985  19.739  35.097  13.913
67483W        W26986   5.708  15.248  14.937
67484W        W26987  42.963  28.973  11.604
67485W        W26988   2.262  40.367  14.454
67486W        W26989  18.272  41.029  13.890
67487W        W26990  10.318  27.195   0.365
67488W        W26991  17.292  18.773   2.864
67489W        W26992  19.681  30.132   1.384
67490W        W26993   3.346  43.497   2.343
67491W        W26994   4.301  14.210   5.176
67492W        W26995  27.560  32.633  12.432
67493W        W26996   5.292  24.156  14.866
67494W        W26997   4.361  19.052  12.036
67495W        W26998   0.372   3.392  12.567
67496W        W26999  21.084   9.778   4.759
67497W        W27000   1.475  15.085  11.888
67498W        W27001   9.789  13.768  12.058
67499W        W27002  13.815  42.378  14.770
67500W        W27003   0.800  32.138   2.824
67501W        W27004  37.382  29.064   0.956
67502W        W27005  29.480  34.480  10.430
67503W        W27006  26.580  10.675   5.116
67504W        W27007  42.349  33.559   1.811
67505W        W27008  18.720  14.642  12.045
67506W        W27009  24.574  36.381   0.396
67507W        W27010  36.518  25.524   0.394
67508W        W27011  10.810  30.027   3.386
67509W        W27012  31.590  17.123  11.887
67510W        W27013  39.830  22.205  11.929
67511W        W27014   1.368   0.916   2.811
67512W        W27015   0.828  18.763  14.013
67513W        W27016   4.337  41.889   3.726
67514W        W27017  33.576   3.726  14.357
67515W        W27018  17.291   4.266   2.821
67516W        W27019  15.195  11.842  14.458
67517W        W27020   3.293  16.699   1.845
67518W        W27021  42.289  10.652   0.827
67519W        W27022  29.548  37.422   2.198
67520W        W27023  42.287  17.733  11.983
67521W        W27024   3.439  11.187   3.762
67522W        W27025   1.296   7.376  11.068
67523W        W27026  39.351  15.692   0.753
67524W        W27027  23.596   3.859  14.362
67525W        W27028  34.389  19.243  11.478
67526W        W27029   8.276  34.388  10.142
67527W        W27030  20.147   6.837   4.709
67528W        W27031  30.978  18.181   4.695
67529W        W27032  42.852  26.528  11.600
67530W        W27033  16.779  34.398   0.436
67531W        W27034  23.027  23.148   2.845
67532W        W27035  24.522  35.857  12.838
67533W        W27036  25.137   4.710  10.982
67534W        W27037  25.491  12.290  14.440
67535W        W27038  20.146   6.765   1.812
67536W        W27039  14.783  15.115   4.198
67537W        W27040   3.302  18.594  12.412
67538W        W27041  15.149  38.328  12.993
67539W        W27042  29.516  35.898  13.805
67540W        W27043  33.626  16.589  11.487
67541W        W27044  10.789   6.873  13.875
67542W        W27045  33.030   4.253   1.916
67543W        W27046  41.465  31.544  14.506
67544W        W27047   7.722  22.103   1.927
67545W        W27048  22.536  38.037  13.867
67546W        W27049   8.223   2.935   1.827
67547W        W27050  22.045   0.492   9.984
67548W        W27051  35.089  38.896   4.757
67549W        W27052  31.607  19.770  10.999
67550W        W27053  13.148  26.503   4.238
67551W        W27054  31.616   0.446  14.791
67552W        W27055  15.162   9.168   3.746
67553W        W27056   9.799   9.195   4.282
67554W        W27057  14.728  26.521  10.079
67555W        W27058  12.624  40.326   2.782
67556W        W27059  10.868  28.144  10.947
67557W        W27060  36.369  37.020   2.684
67558W        W27061  32.012  12.224  13.351
67559W        W27062  42.785  33.584  11.505
67560W        W27063  38.945  19.127  10.437
67561W        W27064   1.387  11.273   1.932
67562W        W27065   4.206  10.746  14.515
67563W        W27066  38.481   7.186   2.235
67564W        W27067  17.563  11.767  13.846
67565W        W27068  22.045  29.167  10.489
67566W        W27069  30.637  42.510   0.793
67567W        W27070  21.239  33.043   2.267
67568W        W27071  32.017  20.257  13.470
67569W        W27072  44.340  32.621  11.550
67570W        W27073  30.980  29.455  12.343
67571W        W27074  26.006  12.264   3.655
67572W        W27075  24.541   3.427  12.547
67573W        W27076  28.160  24.666  13.422
67574W        W27077  27.963  28.436   3.199
67575W        W27078   9.758  24.066  12.075
67576W        W27079  22.015  42.977  13.338
67577W        W27080  24.485  42.490  14.497
67578W        W27081  39.011   3.794   5.132
67579W        W27082  20.634   6.234  13.954
67580W        W27083  16.079  41.905  13.320
67581W        W27084  32.112  11.701  13.368
67582W        W27085  30.583  24.023   4.649
67583W        W27086  24.630  24.088   0.472
67584W        W27087   2.947  33.486  14.479
67585W        W27088   1.380  19.756   2.326
67586W        W27089  19.060  20.753  14.928
67587W        W27090  23.572  35.425   2.884
67588W        W27091  44.498  10.873   4.315
67589W        W27092  35.984  25.125   2.289
67590W        W27093  23.989  22.021  13.343
67591W        W27094  35.547  39.390   4.151
67592W        W27095  32.005  23.077  13.371
67593W        W27096  26.525  19.189   2.337
67594W        W27097   4.271  25.026   3.315
67595W        W27098  34.534   9.373  10.562
67596W        W27099  19.656  15.604  13.904
67597W        W27100  30.659  29.139  12.351
67598W        W27101   4.841  23.179  10.532
67599W        W27102  26.589  33.394   3.317
67600W        W27103  15.685   0.751   0.407
67601W        W27104   9.231  30.055   3.643
67602W        W27105   6.845  40.862  13.015
67603W        W27106  24.574   4.437  14.930
67604W        W27107   9.684  18.148   1.368
67605W        W27108  40.426  33.435  11.967
67606W        W27109  32.983   4.334  10.482
67607W        W27110  22.176   1.897  12.917
67608W        W27111  43.326  30.161   3.214
67609W        W27112   0.777  13.176   5.102
67610W        W27113  37.540  36.467   4.139
67611W        W27114  12.328  32.633  12.065
67612W        W27115   4.704  15.584   5.188
67613W        W27116  30.998  28.990  13.023
67614W        W27117   5.211  34.870   3.370
67615W        W27118  40.851  18.733   0.449
67616W        W27119   6.274   7.301  13.903
67617W        W27120   2.786  36.089  14.943
67618W        W27121  12.245  16.115   0.443
67619W        W27122  10.761  21.222   4.790
67620W        W27123  28.101  39.489   2.777
67621W        W27124  18.659  33.461   2.896
67622W        W27125  19.641  20.166  13.960
67623W        W27126   4.888  26.016   3.648
67624W        W27127   9.323  24.974   4.202
67625W        W27128  33.120  44.999  13.850
67626W        W27129  37.421   5.374  10.501
67627W        W27130  26.951  41.897   2.896
67628W        W27131  41.809  10.837   4.752
67629W        W27132  23.113  20.699   1.235
67630W        W27133  17.592  15.668   2.230
67631W        W27134  30.002  27.539  14.985
67632W        W27135   8.259  18.756   1.290
67633W        W27136  22.576  31.035   2.273
67634W        W27137  32.124  12.695  14.473
67635W        W27138  25.009   7.350  14.019
67636W        W27139  14.646   6.825  12.913
67637W        W27140  14.330  16.733   2.755
67638W        W27141  26.483  23.143  12.378
67639W        W27142  31.581  37.893   5.091
67640W        W27143  24.183  19.552  10.089
67641W        W27144  33.626  14.207  11.480
67642W        W27145  13.612  42.904  13.827
67643W        W27146   5.905  19.777   4.124
67644W        W27147  20.171  22.217  13.937
67645W        W27148  11.320   8.304   0.429
67646W        W27149  32.918  18.188  14.292
67647W        W27150  23.033  22.110  14.871
67648W        W27151  34.480  15.684   2.726
67649W        W27152  18.133  44.428   1.773
67650W        W27153  28.623   3.421  12.017
67651W        W27154  10.314  34.521   1.875
67652W        W27155  29.133   1.258   1.930
67653W        W27156  39.031  16.775   9.996
67654W        W27157  11.866   6.708   1.717
67655W        W27158  33.542   4.793  12.036
67656W        W27159  37.882   4.943  13.346
67657W        W27160  35.476   8.661  13.892
67658W        W27161  39.999  15.696   2.273
67659W        W27162  17.673  18.671   1.293
67660W        W27163  37.071   1.371   4.826
67661W        W27164  25.054  18.596  10.966
67662W        W27165  43.803   9.814  13.887
67663W        W27166   7.223  37.967  12.521
67664W        W27167  35.963   4.875   1.859
67665W        W27168   6.226  25.179  13.880
67666W        W27169  37.535  16.667  14.941
67667W        W27170  10.730  41.899   4.720
67668W        W27171  21.157  43.863  11.541
67669W        W27172  37.962  13.718  11.473
67670W        W27173  18.160  18.573  13.334
67671W        W27174  44.010  37.851   0.847
67672W        W27175  23.562  34.931   2.212
67673W        W27176   9.663  31.590   4.627
67674W        W27177   9.241  30.986  12.035
67675W        W27178  38.016  24.067   4.136
67676W        W27179  34.916  15.106  13.988
67677W        W27180  33.112   0.263  14.877
67678W        W27181   0.468  10.278   3.770
67679W        W27182  25.555  39.328  10.521
67680W        W27183  44.914  10.165   1.292
67681W        W27184  36.012  32.618  13.437
67682W        W27185   1.956  36.865  11.925
67683W        W27186  36.917  21.068  11.015
67684W        W27187  10.846  11.305  13.490
67685W        W27188   1.822  35.440  12.039
67686W        W27189  39.360  25.982  13.902
67687W        W27190  16.198  44.766   2.237
67688W        W27191  22.013  32.897   2.730
67689W        W27192  44.305  13.660  13.791
67690W        W27193  39.966   6.735   5.092
67691W        W27194   8.677  35.058  12.830
67692W        W27195   9.840  11.646  11.086
67693W        W27196   7.782  37.388   2.668
67694W        W27197  43.315  34.061  13.894
67695W        W27198  16.103   5.290  11.050
67696W        W27199  25.132   2.323   3.273
67697W        W27200  30.617  28.514  12.080
67698W        W27201  20.195  19.719   0.476
67699W        W27202  23.658  40.847  14.505
67700W        W27203  42.033  28.623  14.978
67701W        W27204  14.657  30.653   2.664
67702W        W27205  10.212  44.772   4.179
67703W        W27206  18.055   3.909   2.354
67704W        W27207  17.679  32.433   2.319
67705W        W27208  15.729   5.821  12.043
67706W        W27209  25.535  33.131  11.501
67707W        W27210  36.519  28.975  14.876
67708W        W27211  30.921  25.507   2.385
67709W        W27212  24.725  29.121   3.828
67710W        W27213   9.666  30.588  13.425
67711W        W27214  27.542  32.036  12.074
67712W        W27215   7.409  16.796  14.498
67713W        W27216   5.227  33.070   2.252
67714W        W27217  36.918  12.229   2.746
67715W        W27218  31.904  11.284  12.960
67716W        W27219  31.476   6.721   2.825
67717W        W27220  20.766  28.047  14.841
67718W        W27221  34.046  20.526  13.866
67719W        W27222  11.743  15.220   3.700
67720W        W27223  15.738  25.566  11.445
67721W        W27224  37.546  38.063   0.826
67722W        W27225  18.162   2.386   2.258
67723W        W27226  25.664  20.138  13.031
67724W        W27227  15.145  27.008   1.740
67725W        W27228  28.451  44.396  10.594
67726W        W27229   0.369  28.567   4.597
67727W        W27230  24.131   4.287   2.667
67728W        W27231  12.274  17.619   2.865
67729W        W27232   8.202  40.044   4.696
67730W        W27233  33.036  34.949   2.199
67731W        W27234   9.819  22.210  11.019
67732W        W27235  22.549   3.940  12.880
67733W        W27236   4.341   3.954  12.019
67734W        W27237   6.233  42.779  10.921
67735W        W27238  42.408   1.861  11.949
67736W        W27239  32.602  29.997   4.337
67737W        W27240  10.851  33.887  11.904
67738W        W27241   8.219  35.076   4.617
67739W        W27242  35.048   2.468  11.424
67740W        W27243   1.973  13.195   4.691
67741W        W27244  10.768  19.719  14.362
67742W        W27245   4.945  28.494   5.753
67743W        W27246  16.188  24.543  11.504
67744W        W27247  28.543  20.567  14.002
67745W        W27248  11.257   3.780   1.728
67746W        W27249  43.010  30.595  11.917
67747W        W27250  15.127  32.893   2.731
67748W        W27251  29.007  28.014   3.257
67749W        W27252  10.876  37.882  10.633
67750W        W27253   7.234  44.271  13.056
67751W        W27254  18.107  42.970   4.626
67752W        W27255  18.769  31.498  13.016
67753W        W27256   4.311  12.636   0.872
67754W        W27257  31.109  30.445   4.205
67755W        W27258   3.925  20.237   4.275
67756W        W27259  42.303  17.257   2.364
67757W        W27260  32.893  25.123   0.423
67758W        W27261  22.716  20.691  10.628
67759W        W27262  44.765  39.459   2.728
67760W        W27263  38.914  37.048  13.994
67761W        W27264  34.526   1.460  14.496
67762W        W27265  16.591  19.224  10.557
67763W        W27266  33.490  20.148   2.288
67764W        W27267  38.401  42.828  13.353
67765W        W27268  43.417  34.505   0.396
67766W        W27269   8.699  31.568   3.331
67767W        W27270  32.606   3.357  13.369
67768W        W27271   5.803  22.172   2.671
67769W        W27272  36.872  44.377  14.428
67770W        W27273  39.425  27.042   0.271
67771W        W27274  44.798  36.585   1.315
67772W        W27275  29.521  40.404  12.362
67773W        W27276  11.293  13.143   0.306
67774W        W27277  26.562  31.407   1.840
67775W        W27278   6.356  14.252   1.441
67776W        W27279  23.726  33.895   1.354
67777W        W27280  41.414  15.675   4.267
67778W        W27281   0.743  41.364   2.726
67779W        W27282  33.930  39.040  11.953
67780W        W27283  29.477  16.800   0.942
67781W        W27284  26.032  40.809  10.621
67782W        W27285  31.995  21.215  13.485
67783W        W27286  37.837  25.131  11.959
67784W        W27287  26.973  28.470   2.825
67785W        W27288  33.421  42.325   2.787
67786W        W27289  35.575  17.063  11.987
67787W        W27290   2.751  39.522   4.615
67788W        W27291  33.115  36.048  13.888
67789W        W27292  43.841  10.142   0.761
67790W        W27293  18.081  31.605  11.855
67791W        W27294   3.830  23.645   5.241
67792W        W27295  22.027   4.421   3.659
67793W        W27296  25.056  20.223  13.501
67794W        W27297  42.791  24.016  13.971
67795W        W27298  28.615  35.077  14.398
67796W        W27299  31.111  43.412  13.903
67797W        W27300  32.577  15.620   3.796
67798W        W27301  30.614  44.271   3.670
67799W        W27302   4.333   5.816   2.874
67800W        W27303  24.721   9.233   0.260
67801W        W27304   3.286  30.090  14.947
67802W        W27305  32.031   0.782  13.814
67803W        W27306   0.891   9.651  12.856
67804W        W27307  10.782  25.041   0.832
67805W        W27308  35.984  32.420   2.388
67806W        W27309  35.591   7.260  13.014
67807W        W27310  26.685  18.644   4.717
67808W        W27311  38.361  31.624  11.045
67809W        W27312   4.755  25.095   1.374
67810W        W27313  37.400  32.886  10.585
67811W        W27314  16.243  13.320  11.919
67812W        W27315  26.043  40.969   2.374
67813W        W27316  39.061  39.513  14.403
67814W        W27317  11.288  41.883   0.299
67815W        W27318  37.378  18.751  13.529
67816W        W27319  35.076  22.046   4.333
67817W        W27320   0.874  41.860   0.300
67818W        W27321  12.763   9.254   4.316
67819W        W27322  28.636  24.586  13.408
67820W        W27323  23.206  44.811   9.436
67821W        W27324  42.470  18.774  14.951
67822W        W27325  24.501  22.616   1.233
67823W        W27326   1.792  24.693   1.930
67824W        W27327  42.882  27.975  14.294
67825W        W27328  42.433   7.670  12.902
67826W        W27329  25.684  30.097   1.757
67827W        W27330   4.700   7.205   3.300
67828W        W27331  27.941  34.603   4.673
67829W        W27332   2.423  10.147   0.342
67830W        W27333  18.729  22.527   1.345
67831W        W27334  23.624  44.417  12.018
67832W        W27335  20.653  33.462  11.951
67833W        W27336   1.280  32.536   4.802
67834W        W27337  12.761   8.726   4.812
67835W        W27338  39.986  23.646  10.521
67836W        W27339  23.637  38.870   3.860
67837W        W27340  18.059  34.961  14.318
67838W        W27341   7.296   3.800   2.694
67839W        W27342   4.805  19.576   1.716
67840W        W27343  38.494  24.669   2.235
67841W        W27344  43.916  19.705  12.473
67842W        W27345  33.507  29.119   2.381
67843W        W27346  18.085  31.630  11.472
67844W        W27347   9.236   0.365   2.354
67845W        W27348  27.612  12.812   0.420
67846W        W27349  36.355   8.827  14.029
67847W        W27350  35.479  24.539   4.175
67848W        W27351  19.229  17.693  12.870
67849W        W27352  40.994  39.908  10.428
67850W        W27353  34.551  29.009  12.002
67851W        W27354  10.661   5.336   2.849
67852W        W27355   5.734  18.654   4.267
67853W        W27356  28.056  13.605   1.726
67854W        W27357  18.114  25.036   0.856
67855W        W27358  22.603  13.312  10.641
67856W        W27359  29.982  28.439   3.177
67857W        W27360  42.900  22.200   2.899
67858W        W27361  25.001  13.121   0.799
67859W        W27362   0.411  40.438   1.789
67860W        W27363   6.298  34.935   3.794
67861W        W27364  37.570  12.167   4.293
67862W        W27365  42.408   4.272  10.616
67863W        W27366  12.754  11.759   4.758
67864W        W27367  27.582  30.059   0.312
67865W        W27368  10.716  25.212  14.393
67866W        W27369  22.015   8.673   0.466
67867W        W27370  35.060  12.739   5.241
67868W        W27371   5.772  22.627  10.638
67869W        W27372  14.671  27.568  12.032
67870W        W27373  30.133  32.128  13.804
67871W        W27374  39.881  41.951   3.212
67872W        W27375  21.085  29.430  12.832
67873W        W27376  31.510  12.354  12.090
67874W        W27377  40.919  42.465   3.168
67875W        W27378  35.989  31.527  10.450
67876W        W27379  29.626  16.728  14.828
67877W        W27380  18.121  32.106  10.895
67878W        W27381  35.580  29.553   4.795
67879W        W27382  35.930  10.254  10.951
67880W        W27383  20.595  39.918   0.874
67881W        W27384  20.133   5.785  13.461
67882W        W27385  37.044  41.839   2.219
67883W        W27386  28.614  14.330   9.510
67884W        W27387  36.537  29.138  13.481
67885W        W27388  32.083  25.670  11.578
67886W        W27389   8.846  44.504   4.815
67887W        W27390  17.191  22.604   3.745
67888W        W27391  37.063  30.948  13.462
67889W        W27392   1.887  11.175  11.905
67890W        W27393  15.773   3.396   4.298
67891W        W27394   8.329  12.169  14.406
67892W        W27395  10.856   4.731   1.865
67893W        W27396  34.371  42.403   3.252
67894W        W27397  12.808  39.043  12.023
67895W        W27398  40.945  40.389  14.478
67896W        W27399  10.741  29.027  13.810
67897W        W27400  30.463  30.032  12.532
67898W        W27401  23.999  11.796  14.284
67899W        W27402  42.992  35.566  11.996
67900W        W27403  11.194  14.661  12.017
67901W        W27404  36.517  19.732  11.505
67902W        W27405  35.069  33.063   1.732
67903W        W27406   3.852   0.947   5.091
67904W        W27407  27.551   6.852  11.020
67905W        W27408   8.880   5.205  10.480
67906W        W27409  19.668   9.363  13.309
67907W        W27410  17.714  10.234  12.369
67908W        W27411  31.910  31.457   0.962
67909W        W27412  22.528   5.852   2.395
67910W        W27413  28.681  18.139   1.328
67911W        W27414  18.567  17.788  12.548
67912W        W27415  39.469   7.790   1.363
67913W        W27416  34.068  16.101   3.686
67914W        W27417  26.187  20.693   4.218
67915W        W27418   0.869  13.315   0.774
67916W        W27419  22.225  16.742  11.110
67917W        W27420  15.230  14.818   1.795
67918W        W27421   0.896  15.321  11.876
67919W        W27422  26.595  35.411  12.985
67920W        W27423  22.717   2.405   1.381
67921W        W27424  32.112  15.602   0.801
67922W        W27425  25.600  10.818  11.115
67923W        W27426  14.761   6.679  11.062
67924W        W27427  13.709   7.173   0.918
67925W        W27428   0.490   8.290  13.920
67926W        W27429  16.172   5.693   4.812
67927W        W27430  24.567   8.696  10.926
67928W        W27431  17.083  29.433  11.596
67929W        W27432  25.079  25.598  13.507
67930W        W27433  16.721   0.802  14.412
67931W        W27434  31.127  35.534  13.420
67932W        W27435  43.482   5.773  11.114
67933W        W27436  43.349  43.426   2.277
67934W        W27437  12.289   7.415   0.765
67935W        W27438  30.656  42.848   4.230
67936W        W27439  37.056   8.777   2.675
67937W        W27440  27.653   8.672   2.668
67938W        W27441  21.706  11.708   3.251
67939W        W27442  33.587  25.147  12.500
67940W        W27443   6.308  22.227   2.206
67941W        W27444   6.397   0.928   2.739
67942W        W27445  19.169  23.493  10.454
67943W        W27446  13.783  10.238   3.183
67944W        W27447  20.653  34.070  13.319
67945W        W27448  33.938   4.859  13.428
67946W        W27449   6.859  34.604   2.260
67947W        W27450  20.668  25.547   3.753
67948W        W27451  44.858  38.387  12.564
67949W        W27452  12.791  43.781  12.372
67950W        W27453  17.200  20.598  10.891
67951W        W27454  43.920  13.241   2.333
67952W        W27455   8.223  27.165   3.649
67953W        W27456  36.558  33.995   4.668
67954W        W27457  23.091  43.860   4.787
67955W        W27458   4.301  14.104  11.856
67956W        W27459   4.248   9.335  14.877
67957W        W27460   5.718  12.297   0.454
67958W        W27461  24.698  39.499  11.099
67959W        W27462  17.752   2.937   1.754
67960W        W27463  12.144  33.928   3.670
67961W        W27464   2.227   6.685  13.313
67962W        W27465  17.663  42.808  10.439
67963W        W27466  18.604  26.653   0.286
67964W        W27467  28.575  15.654  12.931
67965W        W27468  38.335  10.226  10.602
67966W        W27469  25.063   9.846  14.373
67967W        W27470   0.405  41.395   1.291
67968W        W27471  40.346  19.697  10.422
67969W        W27472  37.453   1.931  14.900
67970W        W27473   8.196  31.899   3.172
67971W        W27474  35.454  34.065   0.844
67972W        W27475  13.775  37.426   4.158
67973W        W27476   3.300   9.849   0.475
67974W        W27477   8.393  12.246   0.301
67975W        W27478  26.524  18.673   0.293
67976W        W27479   2.896  32.930   3.724
67977W        W27480  31.409   2.726  14.823
67978W        W27481   6.412  30.040  12.068
67979W        W27482  39.367  40.527  14.986
67980W        W27483  13.311   5.241   2.836
67981W        W27484  43.925  18.659  12.352
67982W        W27485   7.853  43.344  11.511
67983W        W27486   4.347  29.092  14.465
67984W        W27487  11.652  36.584  12.424
67985W        W27488  14.185  36.870  13.867
67986W        W27489   1.423  36.420  11.957
67987W        W27490  14.621  41.504  12.420
67988W        W27491  23.019  36.460  13.963
67989W        W27492   6.263  43.309   0.454
67990W        W27493  37.384  43.458   3.828
67991W        W27494  29.110   4.913   4.310
67992W        W27495   7.226  23.030   2.392
67993W        W27496   1.866  26.520  11.589
67994W        W27497  43.998  32.929  13.041
67995W        W27498  21.196  24.207   3.328
67996W        W27499  31.468  15.149   0.752
67997W        W27500  17.078  13.781  11.857
67998W        W27501   1.469  13.183  10.505
67999W        W27502  20.170  15.723   3.652
68000W        W27503  32.961   7.256   2.209
68001W        W27504  12.744  32.601  11.862
68002W        W27505  35.062  17.160   3.204
68003W        W27506  21.084   9.296   4.670
68004W        W27507  17.649  29.531  12.931
68005W        W27508  38.978   5.240   3.222
68006W        W27509  42.357  11.687  11.522
68007W        W27510   4.419  35.471  13.851
68008W        W27511  26.484  20.251   5.210
68009W        W27512  35.513  43.293  13.421
68010W        W27513  44.936  42.022   2.827
68011W        W27514   7.180   1.957  13.056
68012W        W27515  29.599   0.778   1.290
68013W        W27516  16.645  34.962   2.737
68014W        W27517  14.698  40.932   4.243
68015W        W27518  35.882   8.771   2.286
68016W        W27519  15.609  39.389  10.935
68017W        W27520  24.627  37.477   0.947
68018W        W27521   9.838   0.251   2.789
68019W        W27522  32.999  20.700   4.297
68020W        W27523  36.514  22.558   1.840
68021W        W27524   7.838  34.935  12.922
68022W        W27525  10.141  16.660  11.558
68023W        W27526  28.145  40.832  12.900
68024W        W27527  32.958   5.775   0.731
68025W        W27528  21.064  42.346   2.674
68026W        W27529  35.416  40.422  12.904
68027W        W27530  32.555  21.662   3.758
68028W        W27531  41.885   7.827  13.380
68029W        W27532  27.459  38.451   0.399
68030W        W27533  25.631  40.910   3.147
68031W        W27534   0.899  17.617   4.194
68032W        W27535   5.754   2.413  11.077
68033W        W27536  23.075  24.054  11.027
68034W        W27537  44.318  31.406  10.463
68035W        W27538  23.540  27.467  10.503
68036W        W27539  29.560   5.392  12.449
68037W        W27540  35.563  35.857  14.483
68038W        W27541  11.702  30.421  12.430
68039W        W27542  24.710  16.603   1.311
68040W        W27543  27.503   7.287   1.860
68041W        W27544  18.561  40.987  14.945
68042W        W27545  20.195  32.912   4.679
68043W        W27546  13.113   2.294  14.950
68044W        W27547  25.512  40.355  13.499
68045W        W27548  26.465  12.266  11.545
68046W        W27549  31.601  27.023  11.879
68047W        W27550  36.864  34.949   4.115
68048W        W27551  40.500  31.639   4.136
68049W        W27552  36.928  28.061  10.604
68050W        W27553  41.009  44.360  14.992
68051W        W27554  23.579  31.458  13.802
68052W        W27555  26.505  15.739  10.892
68053W        W27556  42.935  25.100  10.586
68054W        W27557  23.520  44.286  13.942
68055W        W27558  33.550  26.647   3.270
68056W        W27559   9.671   9.787   2.727
68057W        W27560  23.565   4.725   4.340
68058W        W27561  25.065  31.016   1.828
68059W        W27562  13.331  16.138   3.730
68060W        W27563  31.648  31.465   9.491
68061W        W27564   5.301  25.531  10.564
68062W        W27565  11.263  11.328  12.070
68063W        W27566  13.156  24.518  12.371
68064W        W27567  26.660  40.398  11.418
68065W        W27568  12.621  39.041   2.215
68066W        W27569  19.693  15.199   4.222
68067W        W27570  41.921  12.257   1.814
68068W        W27571  38.431  33.551  13.326
68069W        W27572  24.129  37.044  13.025
68070W        W27573   5.209  38.050   0.923
68071W        W27574  28.615  17.217  14.816
68072W        W27575  10.282  20.584   4.224
68073W        W27576   4.285  31.517   3.816
68074W        W27577  29.929  13.832   2.315
68075W        W27578  10.678  31.512  11.476
68076W        W27579  10.676   8.898   0.825
68077W        W27580  32.957  27.642   2.374
68078W        W27581  31.519  38.939   1.710
68079W        W27582   9.740  10.140  11.110
68080W        W27583  35.101  12.625   2.883
68081W        W27584   1.327  25.496   2.245
68082W        W27585  26.695  18.295  10.961
68083W        W27586   9.346  28.149   3.185
68084W        W27587  12.703  17.724   1.367
68085W        W27588  26.047   5.693   3.263
68086W        W27589   4.326  17.299   0.894
68087W        W27590  20.769  14.222  14.315
68088W        W27591  28.585  25.666   1.917
68089W        W27592  29.644   4.728   3.207
68090W        W27593   0.874   0.869  10.912
68091W        W27594  25.053   6.234  14.005
68092W        W27595  31.987   1.300  13.857
68093W        W27596  18.124   9.877  10.580
68094W        W27597   2.941  44.972   4.646
68095W        W27598  27.093   5.912  13.346
68096W        W27599   3.814  33.622  13.324
68097W        W27600  36.525  25.986  14.764
68098W        W27601   9.149  26.578   3.666
68099W        W27602  35.872  27.482   4.182
68100W        W27603  26.011  10.743   2.310
68101W        W27604  23.040  12.151   0.931
68102W        W27605  43.355  11.659   3.380
68103W        W27606  15.233   8.745  13.816
68104W        W27607  41.967   7.848   0.911
68105W        W27608  18.232  41.332  11.485
68106W        W27609   7.729  34.973  11.986
68107W        W27610  26.528  35.868  11.899
68108W        W27611  12.362  20.674  11.374
68109W        W27612  44.788  26.990   3.250
68110W        W27613  35.596  42.882  14.857
68111W        W27614  27.517   5.276   3.321
68112W        W27615   9.260  36.935   4.166
68113W        W27616  16.096  10.680   1.405
68114W        W27617  12.212  31.530  11.566
68115W        W27618  25.185  24.024  11.612
68116W        W27619  38.973  24.660  13.969
68117W        W27620  26.605   5.421  11.027
68118W        W27621  42.366  29.483   2.372
68119W        W27622  23.241   8.768  10.976
68120W        W27623  11.331  24.520  12.571
68121W        W27624  27.635   7.394  13.944
68122W        W27625  41.866  13.658  11.556
68123W        W27626  17.136  16.659  14.433
68124W        W27627   3.349   7.911   3.792
68125W        W27628   5.889  32.964  14.949
68126W        W27629  16.284  15.247   3.174
68127W        W27630  26.587  11.838  14.440
68128W        W27631   8.194  26.609   3.794
68129W        W27632  29.510  29.130   2.410
68130W        W27633  22.023  24.200   3.636
68131W        W27634  22.149  40.027   2.696
68132W        W27635  22.517   3.455   2.392
68133W        W27636   9.248   5.904  10.014
68134W        W27637  43.361  10.713  11.867
68135W        W27638  35.036  11.642  11.077
68136W        W27639  40.984   3.804  11.107
68137W        W27640  31.004  38.039  14.815
68138W        W27641  29.476   2.917  13.849
68139W        W27642   5.341  22.602   1.328
68140W        W27643  15.327  26.599   0.465
68141W        W27644   7.192  33.994   3.715
68142W        W27645  15.688  32.449   4.605
68143W        W27646  29.086   0.949   1.769
68144W        W27647  29.079  12.135  12.524
68145W        W27648  20.159   4.282   2.205
68146W        W27649  18.644  40.424   1.357
68147W        W27650  10.372  13.136   3.317
68148W        W27651  19.060  33.532  13.436
68149W        W27652   5.241  12.824  13.916
68150W        W27653  44.803  19.724  11.866
68151W        W27654  28.113  32.021   4.289
68152W        W27655  20.618  40.468   3.292
68153W        W27656  14.170   4.862   5.212
68154W        W27657  15.775   2.321   5.092
68155W        W27658  27.496  34.591  14.781
68156W        W27659  33.501   5.273   0.792
68157W        W27660  39.323   3.334   0.744
68158W        W27661  28.513  18.057   2.763
68159W        W27662  11.752  38.054  11.399
68160W        W27663  20.566  17.586   4.293
68161W        W27664  30.461  19.572   4.827
68162W        W27665  33.082  30.040  13.833
68163W        W27666  24.053   7.190  11.542
68164W        W27667  34.014  19.278   4.778
68165W        W27668  17.601  25.668  10.620
68166W        W27669  14.329  44.491   2.860
68167W        W27670  16.711   6.750   1.831
68168W        W27671  38.463  15.729  12.375
68169W        W27672  35.034  19.674   2.402
68170W        W27673  40.948  12.273  13.795
68171W        W27674  31.585  25.209  11.886
68172W        W27675   9.308  16.788   5.269
68173W        W27676  39.365  16.283  14.768
68174W        W27677  28.141  38.533   0.849
68175W        W27678  18.605  26.472   0.895
68176W        W27679   5.242   7.199  12.967
68177W        W27680  44.393   5.423  11.388
68178W        W27681  44.316  14.157  14.368
68179W        W27682  22.233   0.461   5.255
68180W        W27683   7.177  30.964  11.077
68181W        W27684  11.183  18.148  13.938
68182W        W27685  44.980  21.250  13.438
68183W        W27686   1.747   0.403  13.547
68184W        W27687   7.821  25.175   1.827
68185W        W27688  34.978  35.519   4.728
68186W        W27689  23.719  37.341   1.281
68187W        W27690  18.567  25.098  14.942
68188W        W27691   6.868  15.298  12.562
68189W        W27692  37.999  26.682   0.366
68190W        W27693   6.871  25.611  10.489
68191W        W27694  37.356   1.881  13.834
68192W        W27695  22.736  25.017   1.823
68193W        W27696   9.722  32.023  14.323
68194W        W27697  29.461  19.735   1.900
68195W        W27698  33.426  33.411   4.347
68196W        W27699  23.721  44.393   0.336
68197W        W27700   0.965   8.245   3.845
68198W        W27701  28.563   8.675   0.799
68199W        W27702  29.990   2.272   4.173
68200W        W27703  11.842  13.703   1.214
68201W        W27704  32.026  28.130  13.878
68202W        W27705  21.106   5.389  10.902
68203W        W27706  24.596   3.292  10.154
68204W        W27707  40.335   3.863  14.359
68205W        W27708  28.567  20.050   3.833
68206W        W27709  15.588   3.417  14.881
68207W        W27710  13.128  10.784   4.260
68208W        W27711  19.545   8.884   3.372
68209W        W27712   4.234  43.409  14.802
68210W        W27713  30.136   7.857  11.540
68211W        W27714  40.453   0.418  11.904
68212W        W27715  35.944  38.424   3.333
68213W        W27716   1.357  29.066   0.927
68214W        W27717  40.832  20.622  13.337
68215W        W27718   6.731  30.614   4.826
68216W        W27719  23.240  22.996   0.891
68217W        W27720  31.599  25.507  11.086
68218W        W27721  19.254  38.029   4.622
68219W        W27722  39.371  38.359  13.808
68220W        W27723  29.030  28.178  13.947
68221W        W27724  16.690   2.418   2.206
68222W        W27725   1.772  16.569  11.413
68223W        W27726  17.144   2.915   2.198
68224W        W27727  26.640  34.369   3.157
68225W        W27728  26.586  20.078   2.746
68226W        W27729   3.442  11.852  12.014
68227W        W27730  22.235  17.674   2.836
68228W        W27731   7.201  38.362  13.003
68229W        W27732  34.049  17.129   0.325
68230W        W27733  11.168  41.972  12.546
68231W        W27734   2.819  29.918   4.297
68232W        W27735   0.912   9.375   0.380
68233W        W27736  27.640   1.886  11.012
68234W        W27737   4.292  25.575  10.628
68235W        W27738   9.733  22.539  13.019
68236W        W27739  22.222  38.507   0.781
68237W        W27740  42.999  33.024  12.016
68238W        W27741   6.254  27.161  11.050
68239W        W27742  16.155  34.545   4.317
68240W        W27743  31.511  35.915   4.136
68241W        W27744  26.536  22.145  14.771
68242W        W27745  24.499  37.034  12.054
68243W        W27746   3.910   4.302   3.166
68244W        W27747  22.688   7.381  12.444
68245W        W27748  22.193   9.177   0.257
68246W        W27749   3.896  40.049  13.451
68247W        W27750  25.708   6.379  14.841
68248W        W27751   8.785  37.568  12.576
68249W        W27752  36.526   3.889  12.472
68250W        W27753  37.421  10.239   2.704
68251W        W27754  17.111  28.539   0.817
68252W        W27755  28.487  43.897  12.071
68253W        W27756  37.848  11.300   4.788
68254W        W27757  31.578  41.945   3.245
68255W        W27758  18.697  32.086  13.480
68256W        W27759  33.474  21.627   2.864
68257W        W27760  27.580  38.466  14.456
68258W        W27761  33.069  37.398   2.266
68259W        W27762  23.702  24.052   4.701
68260W        W27763  18.765  35.872   3.686
68261W        W27764  32.633  40.984  14.437
68262W        W27765  37.939  23.029   0.406
68263W        W27766   3.430  17.168  12.992
68264W        W27767  22.109  21.558   0.253
68265W        W27768  29.575  10.823   2.362
68266W        W27769  14.617  40.978  11.398
68267W        W27770  14.094  22.018  12.036
68268W        W27771  32.578  28.015  14.999
68269W        W27772  18.096  31.130  13.883
68270W        W27773  23.709  40.447  12.419
68271W        W27774  37.934   5.769  11.883
68272W        W27775  22.672  28.559  12.896
68273W        W27776  17.574  22.551   3.205
68274W        W27777  39.474  25.037  13.449
68275W        W27778  30.574  15.159   4.602
68276W        W27779  10.324   0.302  10.076
68277W        W27780  26.612  31.989   3.199
68278W        W27781  28.481  36.455   4.277
68279W        W27782   1.756  28.936  13.876
68280W        W27783   7.197  44.864  11.390
68281W        W27784  35.950  35.539   3.658
68282W        W27785  39.532  14.160   3.252
68283W        W27786  29.519  30.163  14.944
68284W        W27787  16.130  24.480   2.221
68285W        W27788  10.254  39.848  12.089
68286W        W27789  28.612  11.648   3.654
68287W        W27790  33.567  43.906  10.992
68288W        W27791   9.300  17.585  11.529
68289W        W27792  30.510   4.747   2.669
68290W        W27793   9.690  14.144   2.859
68291W        W27794  33.090  15.633  14.502
68292W        W27795   8.802  18.108   0.838
68293W        W27796  28.452  39.995   0.864
68294W        W27797  14.276  18.580   4.299
68295W        W27798  37.381   9.825  10.508
68296W        W27799  19.215   3.218  12.960
68297W        W27800  40.044  17.595   4.745
68298W        W27801  23.550   3.889  13.876
68299W        W27802  33.878  12.770   3.180
68300W        W27803   8.814   7.202  13.888
68301W        W27804  22.549   3.775  13.367
68302W        W27805  16.690   3.721   1.935
68303W        W27806  32.461  28.164  13.917
68304W        W27807  10.344  30.105   1.779
68305W        W27808  14.680   7.740   0.738
68306W        W27809  17.754  24.562   3.635
68307W        W27810   6.908  27.521   0.468
68308W        W27811  12.328   1.312  11.075
68309W        W27812   3.928  11.705   4.277
68310W        W27813  39.018  23.676  11.566
68311W        W27814  33.589  29.553  11.442
68312W        W27815   9.228  39.450   3.654
68313W        W27816  29.598  28.660   4.332
68314W        W27817  16.263   7.398   1.303
68315W        W27818   2.733  13.281   1.339
68316W        W27819  25.536  34.559   2.716
68317W        W27820  26.153  22.518   0.381
68318W        W27821  27.148   8.202  13.951
68319W        W27822  36.979  44.362   1.721
68320W        W27823  29.510   4.402  11.915
68321W        W27824  12.757   6.843  13.309
68322W        W27825  36.545  25.613  14.032
68323W        W27826  41.328  16.213  14.799
68324W        W27827  20.192  33.438  14.302
68325W        W27828   1.861  36.968   2.783
68326W        W27829   8.314  20.573  10.974
68327W        W27830  22.540  31.032   0.243
68328W        W27831  43.490   6.314   3.693
68329W        W27832  39.004  44.925   1.261
68330W        W27833  16.616  18.692  12.369
68331W        W27834  44.309  11.216   2.672
68332W        W27835  33.605  14.746   4.781
68333W        W27836  44.379   9.825  11.970
68334W        W27837   1.353   8.317   4.344
68335W        W27838  29.128  44.003   4.680
68336W        W27839  21.601  44.875  14.454
68337W        W27840  39.358  24.551   3.846
68338W        W27841  10.829   0.367   4.222
68339W        W27842  31.127  19.081  14.511
68340W        W27843   3.244  33.594  11.887
68341W        W27844  14.145  28.572  10.546
68342W        W27845  29.927  39.993  12.392
68343W        W27846  26.133   3.949  12.891
68344W        W27847  34.395  26.108   1.735
68345W        W27848   8.300  16.267  10.509
68346W        W27849  16.573  32.409  12.541
68347W        W27850  39.886  18.131  13.492
68348W        W27851  10.679   9.250   3.675
68349W        W27852  43.364  37.992  14.914
68350W        W27853  34.898  27.959   4.269
68351W        W27854  36.887  34.093   0.807
68352W        W27855   0.743  25.069  13.835
68353W        W27856  27.137  12.245  14.382
68354W        W27857  25.204  18.256  14.459
68355W        W27858  40.871  23.068   0.761
68356W        W27859   7.222  44.293  14.897
68357W        W27860  24.154  27.988   9.933
68358W        W27861  18.292  22.133   3.674
68359W        W27862  16.730  38.439   0.261
68360W        W27863  12.216   1.908   2.711
68361W        W27864  29.494  41.843   4.303
68362W        W27865  23.226  40.948  12.064
68363W        W27866  44.814  27.996  11.917
68364W        W27867   5.393  30.132   3.766
68365W        W27868  21.534  40.852  14.384
68366W        W27869  24.488  13.131   4.243
68367W        W27870  39.858  29.456   4.189
68368W        W27871  20.163   2.924  12.423
68369W        W27872  12.353  23.174   3.775
68370W        W27873   0.808  21.686  13.339
68371W        W27874  21.239  22.239   3.333
68372W        W27875  11.804  15.213  13.514
68373W        W27876   6.879   2.751  14.377
68374W        W27877  29.669   5.302  10.602
68375W        W27878  22.055  37.948   3.264
68376W        W27879  37.504  20.756  12.832
68377W        W27880  15.156   3.248   4.185
68378W        W27881  35.362   0.405   3.248
68379W        W27882  22.691  40.052   3.739
68380W        W27883  37.417  12.267   3.818
68381W        W27884  38.409  43.316  14.866
68382W        W27885  43.861  27.526  12.570
68383W        W27886  18.208  22.564  13.028
68384W        W27887   3.391   3.276  12.914
68385W        W27888  19.155  37.077   1.225
68386W        W27889  29.068  11.772   4.153
68387W        W27890  11.638   6.857  10.509
68388W        W27891  36.544  30.471   5.294
68389W        W27892  40.332  43.784   3.187
68390W        W27893   7.807  18.267  10.595
68391W        W27894  33.919   7.283   0.397
68392W        W27895   2.886  43.515  14.473
68393W        W27896  41.448  19.675   1.865
68394W        W27897  11.680   3.385   2.671
68395W        W27898  23.148  29.477   2.240
68396W        W27899   5.301  35.951  14.811
68397W        W27900  22.150  13.155   0.254
68398W        W27901  37.412  24.120  10.930
68399W        W27902  31.445  15.756   2.364
68400W        W27903   3.318   7.242  12.556
68401W        W27904   8.341  25.470   2.262
68402W        W27905   2.230  11.265  12.951
68403W        W27906  19.694   4.751  10.416
68404W        W27907  32.464   5.917  11.880
68405W        W27908   8.743  42.315   2.739
68406W        W27909  35.947  24.543  11.046
68407W        W27910  36.896  39.317   2.740
68408W        W27911  36.951  22.225  13.445
68409W        W27912  11.858  39.826   1.879
68410W        W27913   0.362  20.265  14.818
68411W        W27914   4.380  15.087   4.278
68412W        W27915  12.316  39.411  14.318
68413W        W27916  10.303  37.903   3.836
68414W        W27917   4.402  31.406   4.792
68415W        W27918  39.902  44.913   2.377
68416W        W27919  17.069  15.137   4.261
68417W        W27920  35.915  33.111   2.810
68418W        W27921  31.562   0.304  12.577
68419W        W27922  15.134  17.082   0.785
68420W        W27923  40.326  13.792  11.578
68421W        W27924   3.773  24.572   1.854
68422W        W27925  25.151  30.495   3.840
68423W        W27926  34.491  25.179   2.327
68424W        W27927  38.858   8.776   4.161
68425W        W27928  41.037   6.258  14.410
68426W        W27929  25.124  19.115   1.410
68427W        W27930  27.648  17.296   1.756
68428W        W27931  13.237  23.175   3.337
68429W        W27932  40.054   1.309  13.832
68430W        W27933   1.357   4.811  13.893
68431W        W27934  26.683  41.426   4.703
68432W        W27935   2.867  44.966  11.974
68433W        W27936  22.064  17.099   1.228
68434W        W27937  27.481  16.172   4.673
68435W        W27938  16.315  31.975   1.836
68436W        W27939   1.322  28.044  10.977
68437W        W27940  14.820  19.621   1.726
68438W        W27941  40.028  10.265  14.983
68439W        W27942  18.635  41.811   4.652
68440W        W27943  14.808   8.235   3.869
68441W        W27944   7.189   8.712   4.796
68442W        W27945  37.054  13.683   2.703
68443W        W27946  17.564  12.846  12.412
68444W        W27947   3.927  26.995   5.590
68445W        W27948  29.037  34.407   4.252
68446W        W27949  21.111  16.773  13.031
68447W        W27950  32.448  22.663   1.391
68448W        W27951  42.322  16.133   2.900
68449W        W27952  28.952   2.265   1.830
68450W        W27953  20.715  42.472   0.379
68451W        W27954  35.365   3.893  13.926
68452W        W27955  20.549  38.012   4.172
68453W        W27956  42.944  14.213   1.388
68454W        W27957  14.232  37.433   0.766
68455W        W27958  39.932  29.953  11.546
68456W        W27959  42.801  23.592  10.426
68457W        W27960   1.743   5.262   4.607
68458W        W27961  10.251  19.722   0.920
68459W        W27962  24.505  40.020   0.855
68460W        W27963   1.242  33.478  10.625
68461W        W27964  40.458  29.966   2.739
68462W        W27965  17.609  27.486   0.382
68463W        W27966  31.523  17.159  14.955
68464W        W27967   9.808   8.188   4.241
68465W        W27968  32.506  24.076  14.358
68466W        W27969   8.698  34.614  12.080
68467W        W27970  34.038   6.229  13.953
68468W        W27971  29.075  18.727  11.973
68469W        W27972   6.877  12.340  14.880
68470W        W27973  10.849  24.147  14.766
68471W        W27974  17.302  24.993   4.268
68472W        W27975  38.898  34.996   4.774
68473W        W27976  16.712   6.310  14.780
68474W        W27977  30.030  38.954  10.971
68475W        W27978  27.191  28.498   4.281
68476W        W27979   7.300  19.686  10.432
68477W        W27980  36.083   5.755   3.747
68478W        W27981  44.939  15.725   0.391
68479W        W27982  39.422  42.437   4.315
68480W        W27983   9.272  41.837  13.993
68481W        W27984  39.063  12.268  14.812
68482W        W27985  35.876  20.234   0.940
68483W        W27986  39.025   5.700  12.989
68484W        W27987  28.064  16.671  11.097
68485W        W27988  23.095  15.796  13.339
68486W        W27989  15.260  42.812   4.742
68487W        W27990   9.244  23.131  12.503
68488W        W27991  39.932  30.492   0.791
68489W        W27992  12.222  29.076   4.257
68490W        W27993   3.330  31.521   1.286
68491W        W27994   8.203  13.601   3.781
68492W        W27995  10.834  44.808  13.855
68493W        W27996  29.536  38.340   4.220
68494W        W27997  31.549  41.032   1.803
68495W        W27998  11.655  32.489  13.463
68496W        W27999  41.466  23.071  12.890
68497W        W28000  14.185  31.005   2.835
68498W        W28001  15.690  33.460   3.298
68499W        W28002  10.216  40.046   4.336
68500W        W28003  40.831  43.329   0.325
68501W        W28004   6.735  22.602  13.448
68502W        W28005  19.143   9.677   3.670
68503W        W28006  36.931  44.864   0.730
68504W        W28007   9.280   7.832  10.908
68505W        W28008  36.387  44.848   3.324
68506W        W28009  21.166  41.920   2.706
68507W        W28010   5.730  10.173  14.316
68508W        W28011  35.377  29.165   4.204
68509W        W28012  16.719  41.918  13.316
68510W        W28013  28.578  10.278  10.444
68511W        W28014   2.770  40.949   3.263
68512W        W28015  33.963  32.061   3.711
68513W        W28016  13.661  13.202  10.511
68514W        W28017  10.365  33.382  12.359
68515W        W28018   3.407  40.036  14.417
68516W        W28019  15.319  29.505  14.792
68517W        W28020   8.864  32.396   5.575
68518W        W28021  44.919  12.629  14.765
68519W        W28022   6.917   1.321  11.511
68520W        W28023  33.482  16.229   3.701
68521W        W28024  40.535  35.495   1.900
68522W        W28025  34.510  43.846   2.842
68523W        W28026   3.886  32.585   4.752
68524W        W28027  43.503  27.012   0.928
68525W        W28028  15.812  31.411  10.977
68526W        W28029  28.147  27.999  10.018
68527W        W28030  34.525  24.013   1.335
68528W        W28031  43.958  27.100   3.147
68529W        W28032  32.593   3.820  10.639
68530W        W28033  24.216  18.589  14.865
68531W        W28034  34.007   1.931  14.985
68532W        W28035   9.723  13.218  12.894
68533W        W28036   7.285  11.622   3.355
68534W        W28037   8.882  21.564   4.349
68535W        W28038  40.360  17.734   3.871
68536W        W28039  21.205  43.467   0.442
68537W        W28040   6.299   2.951  14.833
68538W        W28041   9.253  38.503  12.934
68539W        W28042   2.260  34.448  12.965
68540W        W28043  38.489  32.534   1.426
68541W        W28044  12.751  22.520   3.776
68542W        W28045  44.467  38.526   4.123
68543W        W28046  22.044  37.832   4.180
68544W        W28047  41.863  21.716  12.385
68545W        W28048  20.042  30.633  13.954
68546W        W28049   1.346  34.466  13.355
68547W        W28050  24.585  31.123  12.932
68548W        W28051  17.632  35.496   4.766
68549W        W28052   1.246   2.462   4.614
68550W        W28053  19.762  29.014   0.462
68551W        W28054  33.624  20.028  10.429
68552W        W28055  13.116  18.149  12.902
68553W        W28056   6.270  41.469  12.852
68554W        W28057   4.271  35.058  11.559
68555W        W28058  31.630  16.177   3.336
68556W        W28059  43.355  19.231   1.732
68557W        W28060  24.091  34.388   3.867
68558W        W28061  42.854  13.743  10.944
68559W        W28062  17.063  32.466  13.848
68560W        W28063  33.422  20.158   0.324
68561W        W28064  41.859  23.013   3.769
68562W        W28065  19.534  15.283   2.280
68563W        W28066   3.455  23.730  13.346
68564W        W28067  25.193  15.245   3.319
68565W        W28068  35.097   9.708   2.365
68566W        W28069  18.739   4.299  13.010
68567W        W28070  17.300  35.419  14.783
68568W        W28071  25.135  13.677   2.178
68569W        W28072   8.307   0.463  14.901
68570W        W28073  31.576  40.883   0.821
68571W        W28074  34.084  35.383   1.854
68572W        W28075   9.848   4.359   1.319
68573W        W28076  12.214   2.260   3.828
68574W        W28077  10.282  33.457  13.393
68575W        W28078   8.207  32.936  12.917
68576W        W28079  28.131  22.156  14.303
68577W        W28080  43.386   8.364   2.365
68578W        W28081  14.665  25.151  11.473
68579W        W28082   2.348  10.638   0.267
68580W        W28083  18.757  35.435  10.619
68581W        W28084  28.539  33.474  11.870
68582W        W28085  27.692  36.959  14.276
68583W        W28086   7.195  40.376  12.350
68584W        W28087   3.754  17.124   2.805
68585W        W28088   9.870  36.094  14.868
68586W        W28089  20.744  21.166   2.819
68587W        W28090   3.371   3.236  14.844
68588W        W28091   9.316  18.170  14.297
68589W        W28092   9.829  20.152  12.050
68590W        W28093  13.262   6.209   1.423
68591W        W28094  14.635  10.781  12.904
68592W        W28095  29.168  28.619  13.021
68593W        W28096  21.624  43.474  10.456
68594W        W28097  22.627  33.577   2.403
68595W        W28098  13.666  28.984  11.025
68596W        W28099  19.737  17.090  13.031
68597W        W28100  32.125  24.536   3.268
68598W        W28101  30.147  29.606   3.800
68599W        W28102  17.125  30.621  14.349
68600W        W28103  29.115  37.961   3.702
68601W        W28104  17.106  38.330   3.760
68602W        W28105  41.331  30.425  14.379
68603W        W28106  22.696  35.955   4.713
68604W        W28107  37.554   7.380   2.218
68605W        W28108  21.199  12.827   5.175
68606W        W28109  44.846  13.720  13.856
68607W        W28110   0.770  41.371   1.273
68608W        W28111   7.812  12.132  11.119
68609W        W28112  28.108  16.244   0.381
68610W        W28113  10.707   1.853  10.562
68611W        W28114  34.394  38.495  10.529
68612W        W28115  26.156  20.610   2.837
68613W        W28116  23.058  25.030  12.347
68614W        W28117   6.368   0.785   4.147
68615W        W28118  44.424  35.484  13.472
68616W        W28119  34.100  16.593  10.441
68617W        W28120  10.852   1.777   5.134
68618W        W28121   5.832  33.964   4.289
68619W        W28122  35.902  36.989   4.723
68620W        W28123   7.765  35.463   2.341
68621W        W28124  27.057   3.878   0.856
68622W        W28125  15.163  27.526  14.876
68623W        W28126  18.642   6.340   4.165
68624W        W28127  21.609  24.508  11.114
68625W        W28128  14.761  13.650  12.349
68626W        W28129  36.957   6.812  13.411
68627W        W28130   3.778  30.165   9.987
68628W        W28131   6.392  18.687   0.293
68629W        W28132  40.035  19.703  13.420
68630W        W28133   9.391  43.509   3.383
68631W        W28134  10.841  31.589  12.991
68632W        W28135  18.712  16.133   1.930
68633W        W28136  26.975  25.202  14.493
68634W        W28137  40.031  42.779   1.817
68635W        W28138  26.599  23.577  10.512
68636W        W28139   0.910  38.908  12.907
68637W        W28140  33.899  40.898   1.284
68638W        W28141  27.034   1.389  12.952
68639W        W28142  15.170  35.981  14.513
68640W        W28143  24.674  31.152  10.561
68641W        W28144  39.876  17.296  13.055
68642W        W28145  11.232  42.975   1.934
68643W        W28146  21.540   5.745   2.383
68644W        W28147  20.243   0.764   2.237
68645W        W28148  26.473  24.648  13.496
68646W        W28149  19.193   2.291  13.934
68647W        W28150  17.125  38.951  10.622
68648W        W28151   8.695  42.315   4.827
68649W        W28152   7.817  32.453   1.260
68650W        W28153  30.424   4.361  10.564
68651W        W28154  14.336  38.880   3.738
68652W        W28155  15.219  28.986  11.889
68653W        W28156  13.150  27.052   3.313
68654W        W28157  24.146  32.491  10.893
68655W        W28158  16.304   9.200  11.582
68656W        W28159  43.452  32.471  13.538
68657W        W28160  21.729  21.710   2.753
68658W        W28161   5.771  16.243   3.767
68659W        W28162  17.294   1.478   1.794
68660W        W28163  26.580  15.807  14.858
68661W        W28164   8.676  23.679  11.435
68662W        W28165  20.222  42.518   1.840
68663W        W28166  29.644  18.705   3.691
68664W        W28167   2.418  28.128  14.470
68665W        W28168  44.490  10.680   1.879
68666W        W28169  11.715  23.988  10.985
68667W        W28170  28.452  31.090  12.025
68668W        W28171  44.317  16.749  12.463
68669W        W28172  27.155  41.509  14.491
68670W        W28173  29.965   3.273   2.376
68671W        W28174  28.588  13.179   4.187
68672W        W28175   2.349  41.397   5.779
68673W        W28176   8.326   9.353   0.306
68674W        W28177  32.134  33.514   3.740
68675W        W28178  32.466  41.960  12.526
68676W        W28179   7.307   2.450  12.449
68677W        W28180  42.452   9.859  14.900
68678W        W28181  27.079  20.152   2.811
68679W        W28182  19.629  18.132   0.744
68680W        W28183   9.768  20.694   1.318
68681W        W28184  40.444  42.879  12.408
68682W        W28185  42.519  18.175   1.818
68683W        W28186  25.500   5.755   0.434
68684W        W28187  10.241  21.210  10.958
68685W        W28188  12.639  35.039  14.414
68686W        W28189  41.494  32.955  11.559
68687W        W28190  32.472  21.127  14.941
68688W        W28191  33.500  25.705   3.296
68689W        W28192   0.303  10.644  10.445
68690W        W28193  31.064  39.979   9.997
68691W        W28194  42.409  30.633  11.540
68692W        W28195  38.961  16.766   0.768
68693W        W28196  15.808  34.465   0.932
68694W        W28197  35.579   3.221   0.770
68695W        W28198  32.005  36.467  12.522
68696W        W28199  39.893  36.425  13.960
68697W        W28200  33.088   9.649   4.654
68698W        W28201  12.661  12.688   1.774
68699W        W28202  40.512  33.533  12.972
68700W        W28203  14.152   2.846  10.558
68701W        W28204  20.522  23.105  12.893
68702W        W28205   6.863  23.150  13.520
68703W        W28206  35.518  17.575  10.938
68704W        W28207  15.164  16.162   4.126
68705W        W28208  21.538  15.638   0.755
68706W        W28209   1.459   4.799   4.693
68707W        W28210   1.735  10.653  12.856
68708W        W28211  13.340  35.895   4.773
68709W        W28212  14.136  21.242   9.969
68710W        W28213   2.824  15.722   1.805
68711W        W28214   0.836  23.504  13.534
68712W        W28215   6.869  12.180  11.565
68713W        W28216  42.517  20.648   0.773
68714W        W28217  13.808  37.011  11.862
68715W        W28218   8.743  10.833   4.257
68716W        W28219  33.510   7.276  12.527
68717W        W28220  40.453   2.290  13.541
68718W        W28221  29.091  23.224   0.347
68719W        W28222  31.470  34.878  11.418
68720W        W28223   6.411   0.808   2.264
68721W        W28224  17.736  15.652  10.528
68722W        W28225  33.048  21.526   0.808
68723W        W28226   2.894   1.341  11.967
68724W        W28227   4.328  35.924   1.398
68725W        W28228  11.716  27.130  10.640
68726W        W28229  43.335   4.374   4.642
68727W        W28230  23.733  32.119  13.342
68728W        W28231   4.230   5.296  14.899
68729W        W28232  39.984  26.697   2.887
68730W        W28233  27.678  17.670   1.305
68731W        W28234  24.093   6.922  13.985
68732W        W28235  37.349  43.511  13.459
68733W        W28236   6.373   4.783  12.936
68734W        W28237  17.610  39.061   1.217
68735W        W28238  38.964  40.042  11.952
68736W        W28239   5.292  40.393  13.957
68737W        W28240  12.225  41.985   1.439
68738W        W28241  37.353  10.316   4.267
68739W        W28242  14.166  39.812   3.820
68740W        W28243  26.034  15.148  11.405
68741W        W28244   2.286   0.848  12.053
68742W        W28245   7.785  44.336  12.990
68743W        W28246  18.261  26.175   4.828
68744W        W28247   1.445  41.474  14.372
68745W        W28248  11.299   5.378  10.562
68746W        W28249  29.137  18.758   0.429
68747W        W28250  11.752   2.246   1.857
68748W        W28251  33.407   1.350  11.550
68749W        W28252   6.678   5.345  13.472
68750W        W28253  17.796  25.185   4.761
68751W        W28254  36.081  26.117  12.849
68752W        W28255  35.538  29.490  11.028
68753W        W28256  27.161  24.597  13.312
68754W        W28257   8.195  13.680   0.250
68755W        W28258  33.552   2.876   3.202
68756W        W28259  13.609  36.473  14.462
68757W        W28260  16.250  32.613  13.975
68758W        W28261  10.193  22.665  12.937
68759W        W28262   6.711  18.675  10.528
68760W        W28263  20.587  33.578   1.438
68761W        W28264   1.454  38.931   1.845
68762W        W28265   6.338  21.675   9.972
68763W        W28266  33.412  11.810  11.045
68764W        W28267   2.847  30.056   1.703
68765W        W28268  33.498  19.613   3.239
68766W        W28269  36.498  35.907   1.416
68767W        W28270  19.651  23.140  11.918
68768W        W28271  40.035  21.748   4.607
68769W        W28272   2.865  24.980   4.245
68770W        W28273   5.399   4.428   0.424
68771W        W28274  29.502   8.846   4.327
68772W        W28275  24.521  17.145   4.624
68773W        W28276  16.687   9.670  10.959
68774W        W28277  28.561  32.064   1.320
68775W        W28278  13.664  34.870   1.228
68776W        W28279  39.810  10.260   3.847
68777W        W28280  10.329  15.661  13.364
68778W        W28281  19.586  21.057  14.828
68779W        W28282   1.826  41.413   4.834
68780W        W28283   7.749   6.252   4.728
68781W        W28284  35.376  12.302   0.741
68782W        W28285  24.518  15.696   2.874
68783W        W28286   6.808  26.560   0.444
68784W        W28287  14.682  28.645   2.368
68785W        W28288  42.858   3.849  12.901
68786W        W28289   2.946   5.369  14.822
68787W        W28290  31.547   1.970   3.768
68788W        W28291  24.003  29.117  10.933
68789W        W28292  31.974  18.662   3.329
68790W        W28293   3.797   4.287  14.844
68791W        W28294  29.038  31.410   2.353
68792W        W28295  25.569  20.147  10.416
68793W        W28296  32.421   1.924   1.728
68794W        W28297  38.466   8.269  11.086
68795W        W28298  25.502  38.009   3.222
68796W        W28299  16.733  43.871   2.902
68797W        W28300  15.129  39.985  13.907
68798W        W28301  36.578  43.825  10.564
68799W        W28302  21.257   9.734  14.498
68800W        W28303  25.545   3.221  11.120
68801W        W28304  43.772  41.017  10.421
68802W        W28305  39.344  32.419   0.775
68803W        W28306   6.396   6.408  13.828
68804W        W28307   9.171   1.896   3.293
68805W        W28308  29.115  33.936   1.324
68806W        W28309   6.267  32.070  11.866
68807W        W28310   1.285  35.418   0.941
68808W        W28311   4.372   6.846  11.544
68809W        W28312  27.036   6.906  14.275
68810W        W28313  11.817  43.300   1.438
68811W        W28314  37.070  44.955   4.712
68812W        W28315  26.595   6.209   1.405
68813W        W28316  23.222  21.021   0.760
68814W        W28317  34.572   1.871   1.365
68815W        W28318   9.291  18.724  14.448
68816W        W28319   7.806  16.671   1.812
68817W        W28320  14.109  15.326   0.333
68818W        W28321  14.833  38.000  12.563
68819W        W28322  26.622  20.067  10.548
68820W        W28323  29.598   7.854   1.699
68821W        W28324  44.785  25.468  11.977
68822W        W28325  44.792   2.790   4.115
68823W        W28326  40.520  42.844   0.249
68824W        W28327  42.948  18.655  14.478
68825W        W28328  31.438  32.018   4.335
68826W        W28329  17.672  11.223   4.804
68827W        W28330  41.477  32.594  14.849
68828W        W28331  42.398  43.013   3.660
68829W        W28332  37.450  32.550  12.469
68830W        W28333   5.341  26.589  14.510
68831W        W28334   5.909   9.649  12.987
68832W        W28335  13.169  20.613   4.117
68833W        W28336   9.324  11.762   2.187
68834W        W28337  18.205  11.293   3.713
68835W        W28338  22.643  44.267  12.563
68836W        W28339  41.918  32.892   4.826
68837W        W28340  27.064  21.569  13.478
68838W        W28341  23.220  35.987  11.544
68839W        W28342  19.254   5.907   1.737
68840W        W28343  26.601   6.809   3.159
68841W        W28344   8.862  24.650   3.343
68842W        W28345  15.743  22.115   3.640
68843W        W28346  36.918  35.047  12.956
68844W        W28347   4.444  44.430  14.800
68845W        W28348   3.401  24.015   3.253
68846W        W28349  35.004  24.698  13.793
68847W        W28350  26.139  37.437  11.969
68848W        W28351   5.826  13.651   0.306
68849W        W28352  28.007  37.571  10.580
68850W        W28353  33.451  32.093   1.756
68851W        W28354  26.584  12.305   1.856
68852W        W28355  33.013  34.033   4.712
68853W        W28356  35.474  30.050   4.174
68854W        W28357   5.694  29.999  13.920
68855W        W28358  13.324  30.648  14.275
68856W        W28359  44.849  12.621   1.398
68857W        W28360  12.336  27.068   0.336
68858W        W28361  13.784  41.817  13.059
68859W        W28362   8.242  31.635   0.410
68860W        W28363  24.499  16.109  12.037
68861W        W28364   3.861  22.532   1.869
68862W        W28365  25.536  10.851  14.459
68863W        W28366  43.330  11.738   4.620
68864W        W28367  32.029   3.451   1.786
68865W        W28368  43.901   7.344  14.306
68866W        W28369  38.989  16.578   0.441
68867W        W28370   1.752  31.499  10.477
68868W        W28371  13.734  21.116   2.244
68869W        W28372  36.476  28.125   4.775
68870W        W28373  35.585   1.744  11.567
68871W        W28374  29.123  44.925   3.703
68872W        W28375  42.855  40.355   0.377
68873W        W28376  25.063  41.831  13.012
68874W        W28377  38.867  20.160   2.215
68875W        W28378  44.844   7.202  10.917
68876W        W28379   9.710  24.708   0.957
68877W        W28380  16.077  44.432   0.763
68878W        W28381  42.852   3.391  12.950
68879W        W28382  22.696   9.241  14.790
68880W        W28383  26.594   0.442  13.990
68881W        W28384   0.424  20.156   1.785
68882W        W28385  18.280   6.767   0.406
68883W        W28386  42.419   5.418   5.617
68884W        W28387  33.458  25.540  14.951
68885W        W28388  22.070   0.817   3.828
68886W        W28389  44.902  34.374  12.993
68887W        W28390   0.888  29.541  11.428
68888W        W28391  38.936   6.200   1.733
68889W        W28392   1.803  12.724  13.816
68890W        W28393  16.761  26.133   4.229
68891W        W28394  30.060  42.295  14.845
68892W        W28395   0.783  37.972  11.418
68893W        W28396  32.451  21.169   1.878
68894W        W28397   2.788   8.786   0.782
68895W        W28398   1.833  15.702  10.591
68896W        W28399  22.166   6.384  13.386
68897W        W28400  15.219  33.610   4.346
68898W        W28401  26.466   8.716   1.343
68899W        W28402  38.487   4.347   3.226
68900W        W28403  17.725  32.499   0.417
68901W        W28404  36.085  25.597   3.371
68902W        W28405  28.479  19.681  12.855
68903W        W28406  21.252   5.238   3.830
68904W        W28407  23.588  21.171  14.369
68905W        W28408   0.769  15.580  14.804
68906W        W28409  24.518  13.740   4.267
68907W        W28410  29.119  16.081  13.823
68908W        W28411  12.819  35.366   2.766
68909W        W28412  21.226  42.436  11.104
68910W        W28413   9.196  29.930  13.429
68911W        W28414   4.344  18.216   3.387
68912W        W28415  29.649  10.219   1.913
68913W        W28416  35.503  17.760   3.221
68914W        W28417  33.132  37.512  13.884
68915W        W28418  41.303  29.932  14.384
68916W        W28419  27.611  13.284  11.999
68917W        W28420  20.632   9.162  12.872
68918W        W28421  40.496  15.118  14.997
68919W        W28422  25.974  20.610  14.999
68920W        W28423  29.443  29.537   1.923
68921W        W28424  42.811  30.147  10.641
68922W        W28425  31.922   2.890  13.860
68923W        W28426  41.506  19.557  10.632
68924W        W28427  31.140  37.975   2.775
68925W        W28428  42.911  16.586   4.687
68926W        W28429  40.941  10.690   3.696
68927W        W28430  40.436  30.497   2.806
68928W        W28431  33.969  34.094   3.716
68929W        W28432  27.076  37.386   0.367
68930W        W28433  11.734  39.469   3.842
68931W        W28434  10.243  38.867  13.424
68932W        W28435   6.890   8.299  14.929
68933W        W28436  23.076  20.160   2.232
68934W        W28437  41.449  28.614  12.034
68935W        W28438  26.532  22.522  11.537
68936W        W28439  21.698  33.423   2.237
68937W        W28440  38.488   8.658   1.379
68938W        W28441  44.415  25.060  12.370
68939W        W28442  42.894  27.593  11.916
68940W        W28443  14.646  39.547  10.589
68941W        W28444   4.402  32.478  14.856
68942W        W28445  41.819  29.668   4.703
68943W        W28446   7.739  34.573  10.893
68944W        W28447   7.245  24.719  12.487
68945W        W28448   7.321  17.202  11.877
68946W        W28449  34.517  11.837  10.159
68947W        W28450  12.138  23.159  12.989
68948W        W28451  38.526  39.023   3.363
68949W        W28452  35.488  19.154   3.197
68950W        W28453   6.763  31.509   4.251
68951W        W28454   8.404  17.695   0.458
68952W        W28455   9.232  17.627   0.249
68953W        W28456  11.711  38.894  11.429
68954W        W28457   7.342  25.087  14.029
68955W        W28458  36.939  40.882   3.338
68956W        W28459   7.364  37.039  12.844
68957W        W28460  25.628  27.960   1.778
68958W        W28461   9.294   6.886   3.243
68959W        W28462   5.350  24.065  10.553
68960W        W28463  41.042  20.698   0.456
68961W        W28464  44.482   6.889  13.871
68962W        W28465   7.205   8.694  11.571
68963W        W28466  42.370   5.237  13.360
68964W        W28467  28.093  24.718   2.319
68965W        W28468   7.349   7.175   2.890
68966W        W28469  25.080  16.751  13.411
68967W        W28470   7.217  22.602  12.475
68968W        W28471  30.427  19.583  11.557
68969W        W28472  23.560  40.394  10.603
68970W        W28473  29.083  13.105  12.851
68971W        W28474  44.352   5.860  12.027
68972W        W28475  29.112  44.987   1.874
68973W        W28476  29.037  41.797  14.436
68974W        W28477  13.138   8.251  13.794
68975W        W28478  16.096   0.405  11.976
68976W        W28479  33.979  12.340   3.800
68977W        W28480  31.057  31.587  13.935
68978W        W28481   3.218  28.114  12.901
68979W        W28482  37.969   6.696   3.324
68980W        W28483   4.759   7.851   4.331
68981W        W28484  40.353  19.231  11.020
68982W        W28485   7.276  36.355  11.542
68983W        W28486  21.178  31.059  13.022
68984W        W28487  29.124  27.014  12.989
68985W        W28488   5.756  23.230  10.994
68986W        W28489  28.036  13.644   0.262
68987W        W28490  30.008  11.626   1.446
68988W        W28491  38.869  44.352  12.376
68989W        W28492  37.527  42.845  12.505
68990W        W28493  12.756  43.380  14.424
68991W        W28494  37.364  40.545  14.923
68992W        W28495  33.485  15.785  12.014
68993W        W28496   1.804   7.897   3.176
68994W        W28497   2.398  30.943   2.255
68995W        W28498   7.408  31.592   2.215
68996W        W28499   4.258  31.898   1.897
68997W        W28500  21.645  20.246  12.899
68998W        W28501  23.612  44.367  14.993
68999W        W28502  23.545  11.370   1.425
69000W        W28503  21.654  28.039  14.990
69001W        W28504  36.525  12.347  10.506
69002W        W28505  37.982  26.982  12.058
69003W        W28506   2.325   1.908  13.995
69004W        W28507  42.910  30.979   3.185
69005W        W28508  38.334  23.732  12.356
69006W        W28509  14.145  27.999  14.021
69007W        W28510  27.675   9.796  14.379
69008W        W28511   7.680   3.907  11.605
69009W        W28512  20.608  12.641   2.733
69010W        W28513  12.338  15.099  10.578
69011W        W28514  21.109   3.350  14.281
69012W        W28515  33.486  21.659   2.280
69013W        W28516  42.951  13.733   1.419
69014W        W28517  22.071  11.720  12.511
69015W        W28518  25.698  22.610  14.952
69016W        W28519  16.161   9.201   1.236
69017W        W28520  30.954  39.812  11.981
69018W        W28521   9.176  25.659  10.991
69019W        W28522  42.392  36.581  14.326
69020W        W28523  34.473  20.143  12.418
69021W        W28524  14.749  20.522   4.684
69022W        W28525  37.837  25.062   2.339
69023W        W28526  38.431  23.087  14.413
69024W        W28527  14.166   2.878  13.369
69025W        W28528  33.996  31.047  10.902
69026W        W28529  21.248  37.998  13.539
69027W        W28530  15.263  22.088   3.663
69028W        W28531   1.423  39.901  12.519
69029W        W28532  39.558   9.225   3.718
69030W        W28533  41.306  31.143   4.616
69031W        W28534  16.566  10.748   1.435
69032W        W28535  20.269  26.490   0.742
69033W        W28536   8.258  12.126   4.263
69034W        W28537   0.284  30.600  11.423
69035W        W28538  11.819   3.404   4.248
69036W        W28539  25.596  13.173   4.834
69037W        W28540  11.335   5.692  11.939
69038W        W28541  36.976   1.926  14.373
69039W        W28542  32.979  14.713   2.373
69040W        W28543  41.499  44.302  10.544
69041W        W28544  31.939  43.434  13.005
69042W        W28545  36.526  17.768  11.492
69043W        W28546  14.333  29.474   2.784
69044W        W28547  29.533  43.455   2.743
69045W        W28548   5.411  12.139  11.067
69046W        W28549  31.615  11.861   2.403
69047W        W28550   3.850  21.049  11.057
69048W        W28551  44.334  12.137  11.067
69049W        W28552  26.059  42.442   3.706
69050W        W28553  34.425   7.765   3.315
69051W        W28554  35.078  12.853  11.111
69052W        W28555  12.633  34.530  14.490
69053W        W28556  44.473  20.676   4.662
69054W        W28557  32.495  13.760   1.725
69055W        W28558  39.938   0.982  13.377
69056W        W28559  19.717  15.714  14.932
69057W        W28560  11.804  33.965  12.558
69058W        W28561  28.478  20.220  12.838
69059W        W28562   3.892  41.893   0.337
69060W        W28563  23.567  12.700   3.720
69061W        W28564  15.655  43.425   4.190
69062W        W28565  27.084  28.438   1.220
69063W        W28566  23.563  44.500   4.803
69064W        W28567  42.787   2.298   3.376
69065W        W28568  36.934  31.124  12.086
69066W        W28569  26.590  36.021  13.410
69067W        W28570  12.654  43.926  13.795
69068W        W28571  27.587  39.064  13.511
69069W        W28572   3.814   8.164  11.374
69070W        W28573  15.315  30.105   1.448
69071W        W28574  23.215  40.902  13.817
69072W        W28575  34.467   3.450   3.711
69073W        W28576  41.335  44.834   2.321
69074W        W28577  18.240  25.090   1.812
69075W        W28578   4.768  16.569  13.022
69076W        W28579   4.208  28.099  11.385
69077W        W28580  36.917  22.110  10.973
69078W        W28581  42.890  23.609   4.632
69079W        W28582  42.394   1.852  11.420
69080W        W28583  35.908  11.647   0.468
69081W        W28584  23.190  16.775  12.561
69082W        W28585  11.138  36.351   4.600
69083W        W28586   7.340  11.828   2.770
69084W        W28587   3.302  29.455  13.319
69085W        W28588  19.174   1.362   1.855
69086W        W28589  37.934  13.281  13.345
69087W        W28590  37.057  41.438   4.345
69088W        W28591  30.006   1.948   0.256
69089W        W28592  12.808  37.904  14.994
69090W        W28593  34.035   2.770   1.891
69091W        W28594  18.279   4.726  12.064
69092W        W28595   7.703  34.400   2.900
69093W        W28596  14.104  10.354  12.450
69094W        W28597   3.254  43.897   3.685
69095W        W28598   8.259  28.471   2.182
69096W        W28599  28.952  36.396  10.465
69097W        W28600  43.867  30.496  14.361
69098W        W28601   4.900  29.155  14.976
69099W        W28602  38.503   6.255   3.362
69100W        W28603   7.228  29.546   0.948
69101W        W28604  26.121  14.692   0.948
69102W        W28605   5.914  13.720   0.869
69103W        W28606   7.191  33.073   0.304
69104W        W28607  43.850  36.510   4.698
69105W        W28608  22.523  25.654  11.076
69106W        W28609  20.743  10.268  12.459
69107W        W28610  37.536   4.248  12.514
69108W        W28611  35.374  13.148  13.009
69109W        W28612  39.433  37.030  11.911
69110W        W28613  37.498   1.841   0.789
69111W        W28614  31.463  17.691   4.212
69112W        W28615  43.780   9.327  10.558
69113W        W28616   6.761  42.905  13.384
69114W        W28617  22.170  36.457   1.734
69115W        W28618  41.325   3.790  14.372
69116W        W28619  42.843  21.228  12.833
69117W        W28620  33.428   0.955  14.499
69118W        W28621   9.683  38.884  12.832
69119W        W28622  22.078  25.974   3.261
69120W        W28623  40.326  30.418   5.279
69121W        W28624  19.660   2.264  14.855
69122W        W28625  12.229  31.994   9.971
69123W        W28626  22.080   1.424   3.314
69124W        W28627  17.080  43.366  10.942
69125W        W28628  25.085  25.498   0.830
69126W        W28629  34.467  40.374  11.542
69127W        W28630  39.404  29.002   2.236
69128W        W28631  38.986  39.970  10.086
69129W        W28632  17.772  23.206   4.749
69130W        W28633  26.696  44.271   2.416
69131W        W28634   9.235  11.738  12.004
69132W        W28635  24.986  26.070   4.189
69133W        W28636  32.621  24.633   2.726
69134W        W28637  24.578  12.676   1.398
69135W        W28638  31.625  24.103   0.849
69136W        W28639  37.425  30.441   1.808
69137W        W28640  15.732  24.099   3.817
69138W        W28641  14.103  37.542   0.379
69139W        W28642  24.531  18.198   2.336
69140W        W28643  36.912  37.058  10.921
69141W        W28644  37.977  28.027  14.953
69142W        W28645  27.524  20.119  12.034
69143W        W28646  12.254  44.294  13.466
69144W        W28647  28.491  24.208  12.503
69145W        W28648  12.721  20.086  12.051
69146W        W28649   0.408  39.011  11.088
69147W        W28650  36.583  10.308  14.352
69148W        W28651  12.144  30.511   1.881
69149W        W28652  12.272   8.378   4.734
69150W        W28653  32.089  35.970  10.990
69151W        W28654  22.065  34.425   0.846
69152W        W28655  40.376  25.704   0.740
69153W        W28656  38.838  38.826  10.059
69154W        W28657  43.905  28.443  14.911
69155W        W28658  31.039  19.106  11.391
69156W        W28659  25.675  12.650  10.051
69157W        W28660  35.898  29.122  12.375
69158W        W28661   8.280  19.157   1.757
69159W        W28662  21.614  12.160   1.762
69160W        W28663  12.777  40.455   1.450
69161W        W28664  44.358  34.979   3.309
69162W        W28665   1.791  10.843   1.245
69163W        W28666  35.990  32.012  12.933
69164W        W28667  42.884  13.768   3.770
69165W        W28668  14.326  44.847   3.217
69166W        W28669  27.498   6.415  11.565
69167W        W28670   4.249  10.707  13.312
69168W        W28671   4.913   5.220   3.674
69169W        W28672  33.077  25.553  12.537
69170W        W28673   9.208  14.243   3.721
69171W        W28674  10.850  25.169   1.405
69172W        W28675  29.625   2.880   0.262
69173W        W28676   9.172   1.323  14.851
69174W        W28677   0.298   3.776   3.823
69175W        W28678   8.275   2.779   4.788
69176W        W28679  39.050  39.987   1.227
69177W        W28680  37.379  11.201  11.857
69178W        W28681   1.294  38.441   3.830
69179W        W28682  14.787  37.534   4.631
69180W        W28683  43.785  16.569   1.700
69181W        W28684  34.089   2.813  11.950
69182W        W28685  13.633   6.220  13.010
69183W        W28686  35.457  42.945   0.942
69184W        W28687  37.958  16.621   3.689
69185W        W28688  43.858  23.074  12.096
69186W        W28689  24.224  16.617  12.490
69187W        W28690  39.971  41.488  11.445
69188W        W28691  42.307  23.117   4.237
69189W        W28692  26.590  42.812  11.965
69190W        W28693  15.723   9.227  13.017
69191W        W28694  16.120   4.358   4.190
69192W        W28695   4.818   0.889  13.495
69193W        W28696  16.578   3.226  12.578
69194W        W28697   5.768  36.034  10.616
69195W        W28698  30.092  38.531  13.052
69196W        W28699  11.773  30.160   1.718
69197W        W28700   6.401   5.822   3.696
69198W        W28701  27.113   6.342   2.263
69199W        W28702  13.136  38.886   4.797
69200W        W28703  24.091  13.345  12.879
69201W        W28704  24.218  24.170   3.208
69202W        W28705  36.375  32.921  14.432
69203W        W28706  22.747  18.102   3.207
69204W        W28707  41.833  37.518  12.851
69205W        W28708  33.908  43.296   2.845
69206W        W28709  37.524   7.685  14.344
69207W        W28710   6.864  16.299  13.534
69208W        W28711   9.310  17.103   0.870
69209W        W28712  36.930  34.451  13.397
69210W        W28713   0.446  14.323  13.032
69211W        W28714  23.103  19.758  11.542
69212W        W28715   1.259  36.479  12.838
69213W        W28716  36.849  30.010   2.223
69214W        W28717  35.040   5.759  14.897
69215W        W28718  14.684  11.835   1.722
69216W        W28719   1.382  13.111   0.460
69217W        W28720  37.014  16.081  10.478
69218W        W28721  23.193  23.994   2.895
69219W        W28722   0.895  18.593  11.991
69220W        W28723   2.344  23.662  10.973
69221W        W28724  33.421  25.513   1.252
69222W        W28725  22.553  15.734   5.310
69223W        W28726   7.832   1.410   4.345
69224W        W28727   9.664  34.075   9.541
69225W        W28728   3.724  10.216  10.477
69226W        W28729  39.883  30.500  14.373
69227W        W28730  43.890  17.667  14.412
69228W        W28731  30.148  16.264   4.319
69229W        W28732  22.250  28.506  14.277
69230W        W28733  28.014  24.635  10.645
69231W        W28734  34.949  25.597   3.785
69232W        W28735  10.845  10.697  14.485
69233W        W28736   2.229   8.762  14.333
69234W        W28737  32.938   0.891  11.940
69235W        W28738  13.678  12.632  13.441
69236W        W28739  43.316  13.803  12.835
69237W        W28740  19.737  42.477  12.082
69238W        W28741  37.410  38.392   4.636
69239W        W28742   4.937  40.332  13.309
69240W        W28743  16.174  20.609  13.512
69241W        W28744   7.298  44.311  13.309
69242W        W28745  27.606  22.695   1.705
69243W        W28746   3.453  42.469   1.407
69244W        W28747   3.865  30.549   3.692
69245W        W28748  22.217  34.971  13.925
69246W        W28749   0.785  24.227   2.750
69247W        W28750  43.848  31.637   1.263
69248W        W28751  30.134  28.173   2.323
69249W        W28752  32.134  39.432   2.209
69250W        W28753  12.644  35.495  13.938
69251W        W28754   6.242  16.773  11.930
69252W        W28755  33.599  28.466   1.698
69253W        W28756  14.236  16.157   4.352
69254W        W28757  23.623   2.372   3.244
69255W        W28758  19.637  23.025   1.867
69256W        W28759  41.951  34.101   0.294
69257W        W28760  17.766  41.450   4.273
69258W        W28761  10.806  28.652   2.247
69259W        W28762  31.577  29.564  12.892
69260W        W28763  12.137  43.772   4.337
69261W        W28764  19.551  42.828  12.412
69262W        W28765  19.175  16.283   4.803
69263W        W28766  34.545  22.698   4.620
69264W        W28767  11.349   0.868  12.029
69265W        W28768  41.424  43.797  13.540
69266W        W28769  34.981  30.639   5.313
69267W        W28770  24.665  21.179  10.148
69268W        W28771  24.663  12.339   2.773
69269W        W28772   6.735  20.267  14.829
69270W        W28773   2.874  15.242   0.798
69271W        W28774  14.683   9.230   1.767
69272W        W28775   4.845   1.300  11.583
69273W        W28776  17.264  28.939  13.311
69274W        W28777  31.485  37.963  10.489
69275W        W28778  12.638  12.142   3.244
69276W        W28779   0.866  15.135   2.344
69277W        W28780  19.712   3.763  11.391
69278W        W28781  23.554   0.971   2.204
69279W        W28782  43.769   4.744  11.597
69280W        W28783  28.649  26.537   9.975
69281W        W28784  41.821   6.343   2.292
69282W        W28785  16.644  33.927   4.272
69283W        W28786  20.124  29.506   0.916
69284W        W28787  37.033  32.508  13.333
69285W        W28788  30.591  40.355   1.801
69286W        W28789  12.788   3.898   3.171
69287W        W28790  20.527  10.237   3.636
69288W        W28791  19.770  19.072   4.193
69289W        W28792  25.681  18.580  13.972
69290W        W28793  10.745  44.809   2.212
69291W        W28794   0.468  39.850   3.381
69292W        W28795  26.556  33.001   2.726
69293W        W28796   3.374  42.952  12.391
69294W        W28797  32.096  44.428  14.897
69295W        W28798   0.457  35.544   0.446
69296W        W28799   1.803  30.119   4.689
69297W        W28800  15.092  28.034  14.798
69298W        W28801  18.629   8.753   1.233
69299W        W28802   6.241  31.470  14.805
69300W        W28803  21.114   6.186   3.870
69301W        W28804  42.302  27.515   0.363
69302W        W28805  33.998  18.128  13.315
69303W        W28806  41.039  26.497   1.438
69304W        W28807  23.499  17.081   4.734
69305W        W28808   6.788  44.293   3.805
69306W        W28809  36.861  26.703  13.811
69307W        W28810  25.573   9.204   2.194
69308W        W28811   6.277  19.678   0.284
69309W        W28812  36.957  44.407  11.923
69310W        W28813  13.661  23.161  13.999
69311W        W28814   9.222  43.332  12.866
69312W        W28815   3.712  36.439  11.589
69313W        W28816  34.058  13.269   2.198
69314W        W28817   6.835  36.069   1.700
69315W        W28818  28.021  42.283   2.879
69316W        W28819  31.133  30.009  11.439
69317W        W28820  35.390  20.060   4.602
69318W        W28821  34.452  19.269   3.683
69319W        W28822  34.483   1.412  14.815
69320W        W28823  31.435   2.312   4.339
69321W        W28824  30.003  43.775   4.773
69322W        W28825  38.845  37.079   4.722
69323W        W28826  43.378  13.244  12.497
69324W        W28827   1.465   4.872  14.436
69325W        W28828  29.987  21.633  11.611
69326W        W28829  31.554  29.923   3.189
69327W        W28830  15.723   6.316   2.288
69328W        W28831  39.011  27.156  14.450
69329W        W28832  19.607   4.215   1.234
69330W        W28833  44.281  21.685   0.361
69331W        W28834  24.498  21.135   1.400
69332W        W28835   6.736  22.611   0.763
69333W        W28836  37.935  34.501  10.118
69334W        W28837   9.822  19.042  11.517
69335W        W28838  39.317  33.584   2.901
69336W        W28839  26.628  43.346  11.374
69337W        W28840  34.427  33.523   0.828
69338W        W28841   1.358   2.894   2.885
69339W        W28842  33.043  20.563  11.430
69340W        W28843  12.769  43.508  10.536
69341W        W28844  42.032  44.960   0.884
69342W        W28845  11.778  39.449  13.531
69343W        W28846  39.474  29.139  12.840
69344W        W28847   8.316  18.073   2.830
69345W        W28848  17.634  15.645  14.454
69346W        W28849  16.700  17.666  14.786
69347W        W28850  38.369  40.893   3.710
69348W        W28851   9.260  13.345  13.532
69349W        W28852  10.149  42.371   1.411
69350W        W28853  23.189  11.625  12.855
69351W        W28854  10.182  24.195   1.382
69352W        W28855  28.110  42.816  10.519
69353W        W28856  23.707  23.529   2.244
69354W        W28857  25.690  41.832  13.803
69355W        W28858   8.296   4.409  11.507
69356W        W28859  31.626   3.813   4.668
69357W        W28860  28.175   3.259   4.126
69358W        W28861  21.160   8.166   1.789
69359W        W28862  28.157   1.764   1.365
69360W        W28863  12.632  40.410   3.281
69361W        W28864  11.218  12.777  11.120
69362W        W28865  39.540  17.191  13.468
69363W        W28866  39.909   6.321  12.057
69364W        W28867  11.817  31.112  14.488
69365W        W28868  37.967  22.083   3.359
69366W        W28869  37.993  22.178  11.387
69367W        W28870  32.133  29.172   2.359
69368W        W28871  27.050   3.836  13.948
69369W        W28872  40.824   2.410   1.833
69370W        W28873  30.436  37.575  13.012
69371W        W28874  39.374  31.571  14.994
69372W        W28875  30.953  29.526  10.579
69373W        W28876  37.879   5.924  14.902
69374W        W28877  38.053  13.282  13.795
69375W        W28878  31.477  13.108   3.340
69376W        W28879  18.561  31.032  14.942
69377W        W28880  20.528  36.958   1.259
69378W        W28881  16.085   4.374   4.684
69379W        W28882   8.161   6.834   3.376
69380W        W28883  19.596  13.760  11.414
69381W        W28884  35.906   7.362  12.556
69382W        W28885  43.447  28.108  11.084
69383W        W28886   6.212  21.655   1.894
69384W        W28887  40.482  24.052  13.877
69385W        W28888  28.994  41.883   1.785
69386W        W28889  41.328   7.884   2.734
69387W        W28890   3.825   1.881  11.490
69388W        W28891  22.083   6.856   4.250
69389W        W28892  18.216  35.496  11.038
69390W        W28893  21.138  41.796   4.790
69391W        W28894  38.551   1.859  12.379
69392W        W28895  28.067  23.063  13.956
69393W        W28896  35.518  19.124  14.875
69394W        W28897   2.421  29.061  14.993
69395W        W28898  40.855  27.614   3.749
69396W        W28899  29.425  43.818  13.337
69397W        W28900   5.317   2.733  13.942
69398W        W28901  38.024   2.315  10.904
69399W        W28902  43.933  21.191   0.346
69400W        W28903  12.655   4.748  12.007
69401W        W28904  44.920  34.487   4.312
69402W        W28905  40.418  19.700   1.295
69403W        W28906  17.743  34.543   2.209
69404W        W28907   5.311  32.032   3.350
69405W        W28908   3.275  20.153   3.158
69406W        W28909  40.040  19.226  11.502
69407W        W28910  28.655  26.541   2.895
69408W        W28911  18.097  41.517   1.369
69409W        W28912   0.337  14.318  14.365
69410W        W28913  11.754  10.231   1.278
69411W        W28914  19.654  14.197  13.980
69412W        W28915  29.471  21.087  12.469
69413W        W28916  38.929  40.543  11.078
69414W        W28917  34.377  39.394   1.405
69415W        W28918   4.207  37.445   2.344
69416W        W28919  36.396  10.266   0.445
69417W        W28920  25.658  14.810  14.355
69418W        W28921   1.777   9.674   2.205
69419W        W28922  30.434  27.941  11.527
69420W        W28923  10.713  43.790   0.798
69421W        W28924  26.600  18.585   3.148
69422W        W28925  41.397  43.833  13.949
69423W        W28926  35.980   7.403   0.396
69424W        W28927  21.686  42.457  12.424
69425W        W28928  31.408  18.207  13.059
69426W        W28929  36.891  34.561  11.097
69427W        W28930  27.501  37.415   0.947
69428W        W28931  12.122  36.844  13.951
69429W        W28932   5.801   6.802  13.320
69430W        W28933  36.478  18.290   2.253
69431W        W28934   6.212  36.982   3.312
69432W        W28935  26.578  14.190  11.977
69433W        W28936  22.141  23.602   2.807
69434W        W28937  20.196  12.715  11.930
69435W        W28938  38.468  19.177   3.260
69436W        W28939  19.704   6.264   1.374
69437W        W28940  31.556  43.844   1.848
69438W        W28941   0.908  33.032  12.419
69439W        W28942  11.633   7.827  14.408
69440W        W28943   0.279   0.966   1.881
69441W        W28944  33.051  40.398  11.423
69442W        W28945  10.656   7.389   1.899
69443W        W28946  29.937  11.360  11.940
69444W        W28947  27.155  31.027  12.483
69445W        W28948  26.961  30.544   0.762
69446W        W28949  32.040  11.784   3.708
69447W        W28950  22.563  41.786  14.817
69448W        W28951   3.321  25.215  14.026
69449W        W28952  16.652  42.386  11.444
69450W        W28953  36.527  31.524  14.999
69451W        W28954  37.559   7.702   0.463
69452W        W28955  43.014   5.893   1.737
69453W        W28956  36.980  11.291  13.833
69454W        W28957  35.407  28.501  11.020
69455W        W28958  21.693  24.094   1.357
69456W        W28959  41.879   0.784  11.479
69457W        W28960  37.067   0.898   4.233
69458W        W28961   6.271   7.383  12.982
69459W        W28962   3.421  42.281  11.545
69460W        W28963  40.486  14.219   3.839
69461W        W28964   3.844   3.341  12.938
69462W        W28965   8.289  21.572   2.844
69463W        W28966   9.243  27.079   4.345
69464W        W28967   6.834  15.611  14.449
69465W        W28968  25.575  32.123  12.571
69466W        W28969  13.133  36.990  12.546
69467W        W28970   4.831  21.707  14.349
69468W        W28971  32.976  22.535  14.385
69469W        W28972  19.774   8.379  13.896
69470W        W28973  22.711  29.556  14.310
69471W        W28974  41.366  26.501  11.516
69472W        W28975  17.675  16.668  14.283
69473W        W28976   8.160  31.623  13.524
69474W        W28977  10.238  24.520  12.824
69475W        W28978  21.588  11.714  11.939
69476W        W28979   2.274  33.466  14.020
69477W        W28980  27.036  36.498   1.299
69478W        W28981  24.991  36.939  10.582
69479W        W28982  34.971  31.982  11.590
69480W        W28983  16.786  19.276  13.827
69481W        W28984  19.737  14.318   1.281
69482W        W28985  35.536  39.377  14.914
69483W        W28986  44.307  23.020  11.067
69484W        W28987  29.151  31.584   4.634
69485W        W28988   6.201  30.494  14.289
69486W        W28989  12.778  42.816   3.283
69487W        W28990   6.859  16.745   3.738
69488W        W28991  44.288  38.847   2.675
69489W        W28992   5.788   1.475  13.953
69490W        W28993   5.330  24.041  12.832
69491W        W28994  23.047  43.374   0.760
69492W        W28995   7.404  39.059  11.004
69493W        W28996  23.075  40.947   2.780
69494W        W28997  28.071  22.565  11.927
69495W        W28998  17.235  16.272  14.831
69496W        W28999   9.732  30.562   1.759
69497W        W29000  10.351   2.258  13.432
69498W        W29001  11.761  38.964  13.993
69499W        W29002  37.047   4.910  13.461
69500W        W29003   8.834  37.427  14.005
69501W        W29004   8.698  40.969   4.602
69502W        W29005  33.012  31.045  10.541
69503W        W29006  20.167  44.883   2.826
69504W        W29007  20.692  29.127  10.619
69505W        W29008  39.453  34.420   1.269
69506W        W29009  17.619  16.217   4.245
69507W        W29010  18.199  13.149   3.383
69508W        W29011  44.358  14.832  14.952
69509W        W29012   5.439   1.815   2.197
69510W        W29013  15.581  35.980  11.464
69511W        W29014  36.408  31.619   1.332
69512W        W29015  40.338  38.072  11.531
69513W        W29016  22.145  14.142  12.829
69514W        W29017  31.036  21.060   5.148
69515W        W29018  11.347  24.533  14.312
69516W        W29019  37.573  18.290   4.334
69517W        W29020  43.783  40.942  13.443
69518W        W29021  16.747  32.941  12.380
69519W        W29022  32.637  24.517   4.322
69520W        W29023  21.147  16.749   0.250
69521W        W29024  36.552  20.632  14.470
69522W        W29025   4.764   9.822  14.296
69523W        W29026  13.270   3.224   2.352
69524W        W29027   8.370  20.712  13.317
69525W        W29028   9.366  12.130   1.831
69526W        W29029  35.432  26.125   3.150
69527W        W29030  43.929  16.285   4.296
69528W        W29031  30.532  22.212   0.314
69529W        W29032  41.371   2.818   3.788
69530W        W29033   8.269  20.704  12.922
69531W        W29034   4.237  38.536  11.515
69532W        W29035  31.514  38.552  14.802
69533W        W29036  23.672  42.885   3.305
69534W        W29037  22.057  39.547   4.743
69535W        W29038  19.184   4.218   4.121
69536W        W29039  12.800  30.585  12.416
69537W        W29040   4.742  40.821  13.910
69538W        W29041  36.577  36.563  13.330
69539W        W29042  31.540   2.335  13.832
69540W        W29043   8.835   2.899  14.308
69541W        W29044  37.459  30.420  13.998
69542W        W29045  15.325   3.722   4.223
69543W        W29046  41.326   6.785   0.365
69544W        W29047  28.506  29.108   3.739
69545W        W29048  10.268  16.676  13.397
69546W        W29049  31.098   8.702  11.506
69547W        W29050  31.433  13.210   1.398
69548W        W29051  35.506  16.778   2.280
69549W        W29052  39.947  12.775   4.830
69550W        W29053  31.924  11.366   3.632
69551W        W29054  19.726  43.306   4.242
69552W        W29055   5.424  38.327   2.691
69553W        W29056  17.288   6.361  11.523
69554W        W29057  27.141   8.302   3.292
69555W        W29058  42.476  25.502   2.393
69556W        W29059  30.629  23.682  13.890
69557W        W29060  26.537  15.686   3.869
69558W        W29061  44.833  19.234   2.667
69559W        W29062  33.439  23.552  12.516
69560W        W29063   7.863  39.030  13.919
69561W        W29064  16.296  20.075  12.829
69562W        W29065  15.644  16.742  12.548
69563W        W29066  34.600   9.831   0.402
69564W        W29067  25.160  35.865  13.479
69565W        W29068  35.931  21.261  11.128
69566W        W29069  31.452   7.335   2.679
69567W        W29070  42.816   5.275  13.816
69568W        W29071  44.322  21.063  14.790
69569W        W29072   9.840  31.153   1.389
69570W        W29073   5.372  41.476  13.894
69571W        W29074   0.988  33.528   0.805
69572W        W29075  28.450  31.986   1.868
69573W        W29076  27.137   4.295  14.813
69574W        W29077  28.620  31.578   1.424
69575W        W29078  32.096  12.326   0.797
69576W        W29079   0.411   0.415   3.746
69577W        W29080  27.020  11.356   4.783
69578W        W29081  22.730  28.666  10.425
69579W        W29082  40.496  30.987  13.490
69580W        W29083  38.066   4.779   1.842
69581W        W29084  30.076  10.814  13.515
69582W        W29085  36.416   7.766  14.390
69583W        W29086  26.065  17.692   3.823
69584W        W29087  27.096   4.831   4.191
69585W        W29088  44.452  13.195  14.820
69586W        W29089  19.581  44.459   2.291
69587W        W29090  21.080   2.730   4.178
69588W        W29091  12.668  29.114   3.316
69589W        W29092   0.758   7.698  13.425
69590W        W29093  38.563  13.207  14.338
69591W        W29094  28.549  40.005   4.348
69592W        W29095  17.575   8.659  11.862
69593W        W29096  15.796  24.214   0.438
69594W        W29097  12.346   5.193  14.946
69595W        W29098  37.357  17.282  12.980
69596W        W29099  32.103   9.756   1.771
69597W        W29100  24.610  30.533   4.622
69598W        W29101  25.093   5.392   4.615
69599W        W29102   2.228  39.017   1.409
69600W        W29103  16.772  41.457   3.148
69601W        W29104   7.905  10.215   3.203
69602W        W29105  12.659   8.233  10.913
69603W        W29106  30.476  16.585  11.983
69604W        W29107  34.555  43.290   4.349
69605W        W29108  31.565   6.803  13.797
69606W        W29109  30.444  13.786   3.836
69607W        W29110  13.274   8.721  11.475
69608W        W29111  37.430   3.381   0.785
69609W        W29112  41.913  11.225  14.463
69610W        W29113  10.291  17.155  13.986
69611W        W29114   5.344  17.181  13.819
69612W        W29115  26.485   3.930  14.452
69613W        W29116  39.351  44.354  12.850
69614W        W29117   5.392   1.806  13.864
69615W        W29118  19.695  30.607  14.360
69616W        W29119  25.158  19.068  13.422
69617W        W29120  13.653  36.034   0.455
69618W        W29121  33.074  16.123  12.030
69619W        W29122  11.180  22.584  14.800
69620W        W29123   4.248  11.310   3.332
69621W        W29124  36.508   1.896   3.734
69622W        W29125  30.623  10.658   0.856
69623W        W29126  44.772  23.549   2.762
69624W        W29127   9.284  20.678  12.422
69625W        W29128   2.784  31.580  12.939
69626W        W29129   1.827  24.123  10.568
69627W        W29130  16.582  31.640  14.351
69628W        W29131   6.901  38.944  14.960
69629W        W29132   6.709   5.245   3.801
69630W        W29133  30.947  18.745   3.237
69631W        W29134   9.162  11.834  13.353
69632W        W29135  36.846  26.083  12.552
69633W        W29136   2.304  23.191  13.548
69634W        W29137  35.426  30.643   2.843
69635W        W29138  44.467  27.462  12.936
69636W        W29139  29.459   9.369  14.284
69637W        W29140  33.393  40.376   4.250
69638W        W29141  13.674  43.501   1.334
69639W        W29142  33.982  26.524   0.451
69640W        W29143  14.699  38.852  12.441
69641W        W29144  28.653   1.370  13.377
69642W        W29145  42.776  24.670  14.506
69643W        W29146  19.724  34.446   3.178
69644W        W29147   3.456  38.547   0.894
69645W        W29148  43.329   2.300  11.028
69646W        W29149  26.686  33.080  10.630
69647W        W29150  42.864  23.712  11.936
69648W        W29151  32.518  24.088  11.936
69649W        W29152  36.523  12.746   1.307
69650W        W29153  25.143  20.680   3.307
69651W        W29154  30.518  43.456  12.392
69652W        W29155  44.924   3.855  11.954
69653W        W29156  19.157  40.476   0.469
69654W        W29157  24.697  43.358  13.020
69655W        W29158  43.983   3.244  13.536
69656W        W29159   3.785  21.239  10.537
69657W        W29160  16.713  24.529  14.425
69658W        W29161  12.691  25.165   1.367
69659W        W29162   8.323  42.360  11.115
69660W        W29163  24.054  38.980   2.784
69661W        W29164  39.347   4.808  13.375
69662W        W29165  23.017  32.034   1.380
69663W        W29166   7.783  15.201  13.515
69664W        W29167  40.341  27.006   0.365
69665W        W29168  37.513   3.371   2.835
69666W        W29169  24.043   1.444  14.394
69667W        W29170  29.501  33.015   1.386
69668W        W29171  10.228  36.902  12.897
69669W        W29172   4.936  36.488  12.870
69670W        W29173  36.862  16.613   2.221
69671W        W29174  19.644  31.111  13.354
69672W        W29175  28.009  28.499  12.947
69673W        W29176  44.460   1.401   1.308
69674W        W29177  32.037  40.547  14.465
69675W        W29178  18.650   2.824   0.908
69676W        W29179  25.633  36.380  12.538
69677W        W29180  31.495  42.014  14.869
69678W        W29181   0.327  23.034  10.419
69679W        W29182  42.449  18.772  13.968
69680W        W29183  26.640  20.761   4.598
69681W        W29184   2.726  37.518   0.395
69682W        W29185   2.900   6.686  13.887
69683W        W29186   4.348  18.219  10.438
69684W        W29187  35.561  22.243   2.348
69685W        W29188   8.780  14.287  12.453
69686W        W29189  17.087  34.031  12.858
69687W        W29190  21.548  25.545  14.403
69688W        W29191  42.787  26.657  13.365
69689W        W29192  30.643  27.953   2.419
69690W        W29193  36.580  17.201  14.794
69691W        W29194  19.168  15.114   0.758
69692W        W29195  28.623  36.959   4.305
69693W        W29196  27.530  36.973   1.872
69694W        W29197   4.763  38.928  10.116
69695W        W29198  40.958  44.967  14.363
69696W        W29199  35.888  43.458  11.059
69697W        W29200   6.818  23.148  10.533
69698W        W29201  28.659  18.685  12.567
69699W        W29202  12.195  25.997   4.115
69700W        W29203  15.243  41.983  12.986
69701W        W29204  28.538  42.983   0.822
69702W        W29205   3.327  31.001  14.308
69703W        W29206   4.832  33.550  13.049
69704W        W29207  35.453  43.956   4.664
69705W        W29208  21.739  38.477  13.029
69706W        W29209  26.563  32.997   2.214
69707W        W29210  30.643  15.671   3.157
69708W        W29211  32.561   7.710   2.244
69709W        W29212  36.518   0.360   0.258
69710W        W29213  30.094  10.151  12.352
69711W        W29214   8.165  10.233   0.461
69712W        W29215  13.761   6.427   2.702
69713W        W29216  27.053   8.780   3.685
69714W        W29217  26.180  32.041   3.703
69715W        W29218  12.175  15.719  14.831
69716W        W29219  10.381  17.166  10.939
69717W        W29220   1.274  39.485   1.704
69718W        W29221  43.472  44.492   1.395
69719W        W29222   1.458  23.066   3.325
69720W        W29223  32.570  21.543  14.294
69721W        W29224   9.808  14.726  13.386
69722W        W29225  31.632  27.624  12.958
69723W        W29226   5.751   6.897   3.332
69724W        W29227   0.894   1.939   1.441
69725W        W29228  13.138  26.626  14.827
69726W        W29229  39.823  19.696   0.813
69727W        W29230   8.849  42.823  13.365
69728W        W29231   0.467   3.890   2.331
69729W        W29232  22.691  33.039   3.167
69730W        W29233  40.387  33.955   1.777
69731W        W29234  41.876  20.736   0.408
69732W        W29235  33.548  42.363  11.065
69733W        W29236  14.691  34.399  12.841
69734W        W29237  23.505  21.732   4.687
69735W        W29238  41.958  41.307   4.824
69736W        W29239  38.337   5.827  12.048
69737W        W29240   7.195  20.764  11.510
69738W        W29241  20.570  44.839   0.799
69739W        W29242  17.675  42.462  14.442
69740W        W29243   5.293  18.604  12.909
69741W        W29244  30.128  35.398  14.772
69742W        W29245  21.111  41.814  12.035
69743W        W29246  17.111  43.807   4.642
69744W        W29247  19.283  35.415   0.276
69745W        W29248  43.832  41.509   1.373
69746W        W29249  18.097  12.118  12.560
69747W        W29250  43.858  10.670  10.594
69748W        W29251  36.921  23.512   0.421
69749W        W29252   8.841   9.323   2.357
69750W        W29253  19.652   3.283  13.983
69751W        W29254  26.993  39.454   2.189
69752W        W29255  25.606   0.459   0.731
69753W        W29256  23.619  41.380   0.877
69754W        W29257  14.201  11.279  13.338
69755W        W29258  25.115  12.832  12.376
69756W        W29259  13.312  22.665   2.254
69757W        W29260  20.106   4.421  13.938
69758W        W29261  37.086   6.822   4.136
69759W        W29262  12.298  15.814   2.846
69760W        W29263  25.153  28.047   0.729
69761W        W29264  16.120   5.196  11.486
69762W        W29265  35.472  25.520  10.919
69763W        W29266  43.324  41.528   0.928
69764W        W29267  39.368  29.445  12.419
69765W        W29268  11.734   8.391   3.678
69766W        W29269   3.390  24.198  11.970
69767W        W29270  33.104  38.399   4.701
69768W        W29271  21.542  24.592   3.666
69769W        W29272  39.842   8.817   4.254
69770W        W29273  14.767   6.818   4.711
69771W        W29274   4.834   6.279  13.428
69772W        W29275  34.940  22.696   2.238
69773W        W29276  41.998   9.241  10.136
69774W        W29277  42.786  25.660  11.954
69775W        W29278   9.730  31.958  11.044
69776W        W29279   0.324  12.792   3.313
69777W        W29280  34.011  19.772   1.301
69778W        W29281  35.440  29.923  10.496
69779W        W29282  21.656  30.432  12.868
69780W        W29283  26.122  27.053  13.982
69781W        W29284   1.770  34.971  12.406
69782W        W29285   4.853  20.633  14.345
69783W        W29286  22.643  22.111  11.434
69784W        W29287   6.882  31.516   3.244
69785W        W29288   3.910  29.095  13.945
69786W        W29289  19.093  27.136   3.667
69787W        W29290  44.300  10.873  12.921
69788W        W29291   3.731   2.884   9.552
69789W        W29292  11.229  19.716  13.825
69790W        W29293  38.568  11.861  11.394
69791W        W29294  17.307  28.046  10.489
69792W        W29295   2.783   9.187   2.883
69793W        W29296  12.264   1.860  12.483
69794W        W29297  19.558  22.192   1.764
69795W        W29298  14.235   3.269   2.773
69796W        W29299  33.619  30.647   2.353
69797W        W29300  19.679  23.674   1.882
69798W        W29301  41.327  15.273   3.160
69799W        W29302   0.328  27.112  13.439
69800W        W29303  21.722   5.703  10.610
69801W        W29304  22.671  18.736  14.435
69802W        W29305  38.386  12.132   0.300
69803W        W29306  36.423   8.810   0.956
69804W        W29307   8.308  27.953  14.941
69805W        W29308  32.951  14.305   0.872
69806W        W29309  35.399  15.181  11.582
69807W        W29310   2.296  29.110   2.727
69808W        W29311  40.367  29.621  12.428
69809W        W29312   1.434  29.930  12.351
69810W        W29313   6.244  13.351  14.303
69811W        W29314   3.408  14.650   0.391
69812W        W29315  11.851  23.224   3.648
69813W        W29316  39.411  19.073   3.719
69814W        W29317   3.895  31.104  13.325
69815W        W29318  19.536   3.403   0.457
69816W        W29319  41.518  18.688  11.890
69817W        W29320  40.426  36.509  14.487
69818W        W29321  43.279  22.234   3.151
69819W        W29322  31.992  33.956  10.970
69820W        W29323  12.315  43.482   0.438
69821W        W29324  32.451  33.396  13.836
69822W        W29325  10.330  37.380  11.591
69823W        W29326  41.432   1.468  14.778
69824W        W29327  33.131  21.105  11.963
69825W        W29328   7.819  31.423   4.766
69826W        W29329  37.465  38.554  11.399
69827W        W29330  28.661  21.723   0.947
69828W        W29331  36.008  36.996   2.755
69829W        W29332  33.426  20.111  11.868
69830W        W29333  39.997  44.824  10.599
69831W        W29334  27.156  35.442  11.029
69832W        W29335   2.960  27.006  13.503
69833W        W29336  28.064  14.606  12.024
69834W        W29337  23.500  44.940   4.131
69835W        W29338  19.692  26.474  10.564
69836W        W29339  43.313  28.991  11.907
69837W        W29340  12.779   9.653  11.589
69838W        W29341  18.552  40.400   1.738
69839W        W29342  38.016   8.883   2.404
69840W        W29343   5.430   7.805   1.278
69841W        W29344   9.768  25.965   1.793
69842W        W29345   8.372   6.908  11.017
69843W        W29346  24.071  12.205  11.115
69844W        W29347   3.831  14.774  14.451
69845W        W29348  37.554  13.142  12.031
69846W        W29349  31.054  35.039   2.687
69847W        W29350  32.044  14.648   4.147
69848W        W29351  19.589   9.853   0.800
69849W        W29352  10.200  28.057  14.514
69850W        W29353  19.683   7.685   1.295
69851W        W29354  28.023  17.771  10.637
69852W        W29355  22.086  37.536  11.590
69853W        W29356  26.073  20.191   1.854
69854W        W29357  42.427  40.436   2.690
69855W        W29358  39.337  29.654  11.090
69856W        W29359  35.943  43.901   4.252
69857W        W29360  20.097  40.449   4.149
69858W        W29361  38.986  16.706  13.372
69859W        W29362  26.170  43.873   2.805
69860W        W29363  37.491  39.477   1.917
69861W        W29364  25.591   3.953  12.552
69862W        W29365   7.261   7.276   1.374
69863W        W29366  30.533  32.919  11.478
69864W        W29367  21.238  40.409   3.355
69865W        W29368  16.567  33.393   2.306
69866W        W29369  30.517  12.623   0.765
69867W        W29370  35.939  19.110   0.370
69868W        W29371  30.524  10.239   3.838
69869W        W29372  27.588  37.470  12.407
69870W        W29373  38.498  42.430  13.063
69871W        W29374  34.596  38.914   3.743
69872W        W29375  27.612  30.447   4.194
69873W        W29376   4.772  15.092  12.507
69874W        W29377  44.266  44.505  13.464
69875W        W29378   3.839  37.449   2.192
69876W        W29379  29.513  11.335   2.823
69877W        W29380  16.580  28.994  13.858
69878W        W29381  16.741  38.940   1.289
69879W        W29382  37.363  12.199  13.506
69880W        W29383  28.097  23.178  12.877
69881W        W29384  41.345   3.853   2.821
69882W        W29385  23.676  42.391   4.754
69883W        W29386  27.480  32.900  10.466
69884W        W29387  44.857  38.823   0.900
69885W        W29388  31.428  30.478   1.860
69886W        W29389   2.756  31.104   5.216
69887W        W29390  36.884   1.743   4.656
69888W        W29391  39.458  17.298   0.870
69889W        W29392   6.378  22.706   3.755
69890W        W29393  35.927   3.803   1.708
69891W        W29394  17.077  40.461   5.190
69892W        W29395  24.566  40.915   3.654
69893W        W29396  12.250  15.741  13.314
69894W        W29397  22.680  10.228  10.636
69895W        W29398  44.462  10.229   4.291
69896W        W29399   2.380   0.986  10.152
69897W        W29400  10.823  29.099   0.828
69898W        W29401  34.438  40.831   2.871
69899W        W29402  21.623   3.744   2.856
69900W        W29403  10.142  39.421  14.340
69901W        W29404   5.825  22.695  14.990
69902W        W29405  22.236  44.342  11.452
69903W        W29406  37.066  32.448   3.289
69904W        W29407  36.442  43.429   4.142
69905W        W29408  21.715   4.298  14.468
69906W        W29409  35.943   0.341   1.405
69907W        W29410  35.057  28.451   2.864
69908W        W29411  30.089   9.689  10.102
69909W        W29412   8.160   6.383   0.287
69910W        W29413  10.220  23.622   1.796
69911W        W29414  13.167   6.413  14.843
69912W        W29415  36.896   5.740   9.440
69913W        W29416   4.270  31.452  13.795
69914W        W29417  27.624  11.766  13.407
69915W        W29418   3.938  24.701  14.990
69916W        W29419   6.288  19.172  13.938
69917W        W29420  39.024  13.215   3.264
69918W        W29421  12.717  14.303   3.693
69919W        W29422   1.462  24.020   0.456
69920W        W29423  39.911   7.740  11.553
69921W        W29424  31.014   0.365   3.373
69922W        W29425   8.178  15.743  14.825
69923W        W29426  39.410  30.548  13.374
69924W        W29427   8.773  43.017   0.249
69925W        W29428  20.256  10.666  13.494
69926W        W29429  33.586  35.928  13.378
69927W        W29430  21.757   2.782   3.786
69928W        W29431   9.198  28.638   3.190
69929W        W29432  25.635  30.978  10.621
69930W        W29433   4.760  21.671   0.286
69931W        W29434  39.458  36.915   0.277
69932W        W29435  17.725  25.089  12.037
69933W        W29436  25.666  22.659   2.686
69934W        W29437  14.197  36.528   4.697
69935W        W29438  18.753  44.831   2.308
69936W        W29439  22.581  10.158   2.348
69937W        W29440  15.675  23.217  11.926
69938W        W29441  25.120  13.687   4.341
69939W        W29442  11.717   1.415   0.784
69940W        W29443   8.696  16.715   3.312
69941W        W29444  14.779  40.482   3.193
69942W        W29445  35.040   1.477  14.927
69943W        W29446   4.215  30.039   3.645
69944W        W29447  35.054   9.683  12.477
69945W        W29448  18.057  18.649  12.999
69946W        W29449  24.603  29.527  13.820
69947W        W29450   1.423  30.068   0.916
69948W        W29451  15.182  35.889   2.350
69949W        W29452  39.911  40.834  14.363
69950W        W29453  31.052   0.807   4.202
69951W        W29454  17.125  35.416  12.382
69952W        W29455  21.642  34.909  13.832
69953W        W29456  19.063  22.227  12.014
69954W        W29457  35.868  34.395   1.772
69955W        W29458  20.539  35.934   3.791
69956W        W29459  22.209  42.340   0.767
69957W        W29460  25.586  44.929   4.671
69958W        W29461   7.730   5.714   1.774
69959W        W29462  32.947  13.674   0.427
69960W        W29463  18.570  40.835   4.724
69961W        W29464  21.083  13.736   4.678
69962W        W29465   8.728   7.182  11.960
69963W        W29466  29.644  44.863  14.822
69964W        W29467  16.175  35.080   0.295
69965W        W29468  33.583  21.705  10.420
69966W        W29469  15.226  10.769  11.975
69967W        W29470  34.609  19.052   0.247
69968W        W29471   3.452   7.819  12.962
69969W        W29472  42.830  34.874   3.313
69970W        W29473  13.118  16.135   0.856
69971W        W29474  25.576  25.182  12.500
69972W        W29475  10.736  37.971  12.376
69973W        W29476  19.777  18.162  14.768
69974W        W29477   3.432  14.158  14.796
69975W        W29478  18.694  17.089   2.736
69976W        W29479  20.758  16.250   4.699
69977W        W29480  44.337  40.854   2.863
69978W        W29481   5.243  40.848  10.916
69979W        W29482  31.441  23.193  14.345
69980W        W29483  42.282  12.685   3.299
69981W        W29484  40.915   3.217  10.026
69982W        W29485  27.988  11.145   3.234
69983W        W29486  33.531   6.749   2.706
69984W        W29487  32.470  35.868  14.464
69985W        W29488  15.109  16.591   3.378
69986W        W29489  23.581  10.373   1.884
69987W        W29490   8.787  36.097  10.481
69988W        W29491  35.873  32.512  14.784
69989W        W29492  28.604   4.915  10.610
69990W        W29493   5.428  10.245  10.477
69991W        W29494   1.470   1.739  11.390
69992W        W29495  29.046  42.322  11.081
69993W        W29496  27.143  17.099  10.535
69994W        W29497   8.228   6.328   2.402
69995W        W29498  15.803  25.665  13.452
69996W        W29499  25.676  33.591   0.946
69997W        W29500  31.525  14.123   4.124
69998W        W29501  40.844  13.661   0.351
69999W        W29502  37.360  34.962  10.613
70000W        W29503   9.668   3.867   2.181
70001W        W29504  44.885  25.565   3.369
70002W        W29505  22.248  33.111  11.927
70003W        W29506   6.865   8.384   1.722
70004W        W29507  33.941   4.359   1.396
70005W        W29508   8.358  18.095  13.387
70006W        W29509  34.429  43.345   2.797
70007W        W29510  10.733   2.259   2.667
70008W        W29511   6.704   1.737  12.916
70009W        W29512  20.553  43.823  10.497
70010W        W29513  13.761  23.577  11.556
70011W        W29514  24.701  18.624   4.189
70012W        W29515  29.128   4.359  14.371
70013W        W29516  36.007   3.898  11.092
70014W        W29517  21.710  43.369   4.347
70015W        W29518  12.314   0.792   3.296
70016W        W29519  32.436  33.437   3.376
70017W        W29520   6.293  21.065   4.279
70018W        W29521  15.121  33.910  11.023
70019W        W29522  35.860  22.080  11.567
70020W        W29523  17.660  34.530  12.838
70021W        W29524  28.154  21.537   5.302
70022W        W29525  12.703   2.829   4.325
70023W        W29526   7.904  10.372   0.806
70024W        W29527  32.390  11.169   2.390
70025W        W29528  13.194  37.944   2.379
70026W        W29529   2.387  38.420  12.487
70027W        W29530   5.430   1.974  14.351
70028W        W29531  18.737  10.167   0.252
70029W        W29532  27.949   7.337   1.764
70030W        W29533  33.880  39.866   4.218
70031W        W29534  42.820  20.117   3.184
70032W        W29535  27.660   7.254   0.809
70033W        W29536  35.422  30.910   3.642
70034W        W29537  17.700  25.964  10.556
70035W        W29538  15.637  28.929   2.851
70036W        W29539  26.087  12.313  14.784
70037W        W29540  42.333  26.060   1.417
70038W        W29541  38.428  17.685  14.839
70039W        W29542   4.776  42.004   4.270
70040W        W29543  36.546   8.200  14.892
70041W        W29544  35.989  26.659  13.498
70042W        W29545   9.156   4.755   9.958
70043W        W29546  25.986   5.928   1.754
70044W        W29547  40.432  36.478  13.958
70045W        W29548   6.843  15.097  14.461
70046W        W29549  36.493  11.265   0.753
70047W        W29550   7.206   1.470   1.723
70048W        W29551  10.239   3.767   3.306
70049W        W29552  29.074  41.031   1.315
70050W        W29553  35.072  21.598   4.619
70051W        W29554  22.633  39.024   1.903
70052W        W29555  40.930  28.036   4.297
70053W        W29556  32.409  25.470   1.368
70054W        W29557  33.105  31.577   1.709
70055W        W29558   0.922  33.417   4.777
70056W        W29559   9.847  31.626  11.970
70057W        W29560  40.931   8.236   4.229
70058W        W29561  44.344  30.643   4.710
70059W        W29562   8.700  44.387  14.479
70060W        W29563   0.924  11.724  10.940
70061W        W29564  11.127  43.462  12.081
70062W        W29565  38.969   8.839   3.364
70063W        W29566  37.999  42.296  14.961
70064W        W29567  33.985  33.433   3.738
70065W        W29568  14.255  39.341  12.551
70066W        W29569  33.398  38.861  13.310
70067W        W29570  35.900  35.999  13.444
70068W        W29571  43.411  33.002  14.800
70069W        W29572  37.483  18.587   1.420
70070W        W29573  18.260  33.525  12.087
70071W        W29574   2.254  32.404   0.273
70072W        W29575  42.452  42.953  10.625
70073W        W29576  27.176  30.602  13.459
70074W        W29577  22.136  21.579   3.150
70075W        W29578  28.639  33.052  12.046
70076W        W29579   7.192  12.271  10.459
70077W        W29580   7.766  40.975  12.019
70078W        W29581  43.793  28.046   5.806
70079W        W29582  25.682  44.815   3.675
70080W        W29583   8.774   6.847   1.913
70081W        W29584  39.424  11.156   4.774
70082W        W29585  35.490  37.880   9.548
70083W        W29586  26.111  29.152  12.478
70084W        W29587  42.407  37.017   3.294
70085W        W29588   9.870   8.219  10.942
70086W        W29589  16.197  28.580   3.372
70087W        W29590  23.054  23.220  10.424
70088W        W29591  40.468  29.046  11.916
70089W        W29592  16.084  42.966   3.820
70090W        W29593   3.336   0.948   4.350
70091W        W29594  12.172  38.338  12.550
70092W        W29595  11.768  20.043   4.191
70093W        W29596  21.129  32.073   4.347
70094W        W29597  13.293  22.687   3.339
70095W        W29598  19.595  41.344  13.867
70096W        W29599  19.577  33.009   2.822
70097W        W29600  30.596  18.195   2.764
70098W        W29601  30.016   4.416  12.084
70099W        W29602  29.649  21.089   2.413
70100W        W29603  29.017   5.193   2.204
70101W        W29604   0.747  12.641  12.396
70102W        W29605   0.374  33.610  14.022
70103W        W29606  18.158  20.206   0.760
70104W        W29607  42.022  17.693   0.475
70105W        W29608  28.579  10.876  11.005
70106W        W29609   3.720  33.006  13.540
70107W        W29610   6.863  30.520   2.194
70108W        W29611  35.561   1.422   2.876
70109W        W29612  16.091   7.894  11.456
70110W        W29613  26.093  23.593   1.401
70111W        W29614   0.891  23.086   0.317
70112W        W29615  13.702  25.682   1.226
70113W        W29616  39.993  14.315   3.354
70114W        W29617  39.832  29.956   3.182
70115W        W29618  38.511   7.409  14.965
70116W        W29619   3.741  12.146  10.619
70117W        W29620  36.459  23.589   2.832
70118W        W29621  41.508  28.591   2.402
70119W        W29622  16.772  17.783   3.289
70120W        W29623  32.125  18.294   2.407
70121W        W29624  34.437  24.220  10.476
70122W        W29625  43.828  18.236  13.970
70123W        W29626  18.766  30.659  11.968
70124W        W29627   2.240  26.165  14.763
70125W        W29628   3.446  32.031  12.004
70126W        W29629  12.805   5.311  12.368
70127W        W29630  35.875  39.414  14.317
70128W        W29631   4.260  18.759   4.679
70129W        W29632  21.720  20.176   3.678
70130W        W29633   0.989   5.803   2.675
70131W        W29634  23.496   8.860  14.414
70132W        W29635  21.625   9.363   0.341
70133W        W29636  12.687  35.432  12.560
70134W        W29637  24.155  11.699   5.230
70135W        W29638  29.090  21.757   0.319
70136W        W29639   1.781  15.288  12.449
70137W        W29640   1.873  11.737  12.052
70138W        W29641  10.848  12.658  12.471
70139W        W29642  16.592   0.745   0.876
70140W        W29643  32.047  11.292  11.932
70141W        W29644   5.868  22.246  10.407
70142W        W29645  25.569  31.966   4.251
70143W        W29646  32.132  40.036  13.372
70144W        W29647  20.164  31.596  10.893
70145W        W29648  32.510  21.552   1.323
70146W        W29649   7.255  42.359  14.317
70147W        W29650  38.967   8.393  13.483
70148W        W29651  16.586  29.583   1.212
70149W        W29652  28.480  32.986   2.841
70150W        W29653  39.064  22.082  10.931
70151W        W29654  39.404  22.645   1.443
70152W        W29655  23.119  40.510  13.809
70153W        W29656  30.617  15.637   3.715
70154W        W29657  34.953  18.271  12.973
70155W        W29658   9.380  13.232   1.749
70156W        W29659  26.516  37.401   1.283
70157W        W29660   7.867  27.617   2.778
70158W        W29661  35.474   3.403  10.539
70159W        W29662  41.034  12.737   0.312
70160W        W29663  18.683   6.190   2.208
70161W        W29664  27.664  24.680  13.822
70162W        W29665  30.998  25.081  13.416
70163W        W29666  35.431   6.406  13.991
70164W        W29667  28.475  36.086  12.962
70165W        W29668  30.961   0.766  14.462
70166W        W29669   8.756  23.711   0.409
70167W        W29670  18.662  26.549   9.975
70168W        W29671  31.121   2.331   0.365
70169W        W29672  20.244  11.663   3.154
70170W        W29673  35.587  18.288   2.674
70171W        W29674  23.670  43.914   4.701
70172W        W29675  38.868  30.979  13.420
70173W        W29676  24.227  41.423   0.828
70174W        W29677  36.513  11.690  12.845
70175W        W29678  37.961  15.247   3.373
70176W        W29679   7.737  43.396  10.521
70177W        W29680  10.790  35.935  12.093
70178W        W29681  24.721   3.395   4.130
70179W        W29682  26.132  29.131  14.296
70180W        W29683   6.273  37.867  13.956
70181W        W29684  14.172   6.857  13.823
70182W        W29685   4.255   2.816  14.418
70183W        W29686  40.402  35.979   3.651
70184W        W29687  12.274  32.619   3.807
70185W        W29688  26.517  43.407   1.733
70186W        W29689  11.133  10.698  11.530
70187W        W29690  37.546  29.156  11.081
70188W        W29691  38.849  29.137  11.581
70189W        W29692  28.008   1.371  13.965
70190W        W29693  29.501  17.111  13.871
70191W        W29694  23.633  37.401   0.867
70192W        W29695  28.076  44.263  10.504
70193W        W29696  21.707  42.491  14.982
70194W        W29697  31.108  12.777  12.443
70195W        W29698  12.698  32.981   9.986
70196W        W29699   3.767  31.532   2.179
70197W        W29700  35.566  25.554  10.573
70198W        W29701  21.072   0.788  11.484
70199W        W29702  36.914  18.548  10.488
70200W        W29703   1.735  13.198  13.908
70201W        W29704   4.230  33.419   2.845
70202W        W29705  26.463  34.935   1.361
70203W        W29706  38.002  23.636   3.385
70204W        W29707  11.316   4.277   3.212
70205W        W29708  31.451  43.883   2.873
70206W        W29709  34.526   0.901   3.830
70207W        W29710  41.516  40.031   1.362
70208W        W29711  38.534  28.474   1.398
70209W        W29712   6.341  31.615   3.230
70210W        W29713   3.790   0.769  14.284
70211W        W29714  30.116  25.651  13.386
70212W        W29715  23.116  37.920  11.078
70213W        W29716  19.537   8.218   1.844
70214W        W29717   5.858  41.911  14.850
70215W        W29718  31.409  36.533  11.011
70216W        W29719  19.246  31.419   0.468
70217W        W29720  35.885  23.649   4.275
70218W        W29721  14.604  19.196   4.635
70219W        W29722  15.148  21.023   0.837
70220W        W29723   5.202  27.512   3.854
70221W        W29724  44.362   0.288   3.743
70222W        W29725  40.990  38.481   4.609
70223W        W29726  43.460  36.092  12.890
70224W        W29727  10.188  34.085   0.791
70225W        W29728  14.124   7.827   2.884
70226W        W29729   1.924  40.962   2.331
70227W        W29730  16.133  14.211   3.336
70228W        W29731  27.965  38.847   3.146
70229W        W29732  21.689  40.900  14.796
70230W        W29733  39.880  38.423  13.005
70231W        W29734   1.245  16.240  10.968
70232W        W29735   6.729  35.360   3.303
70233W        W29736  22.039  30.002   2.759
70234W        W29737  29.516   9.310  12.049
70235W        W29738  16.213  13.169  14.800
70236W        W29739  37.536  33.901  10.572
70237W        W29740  34.046  35.595  12.511
70238W        W29741  40.800  40.526  10.895
70239W        W29742  39.355  39.869   2.313
70240W        W29743   6.264  43.492   4.224
70241W        W29744  19.136  34.473   3.653
70242W        W29745  27.043  43.400  14.961
70243W        W29746   6.856   8.797  11.078
70244W        W29747  25.980  27.069   4.806
70245W        W29748   1.942  29.430  10.643
70246W        W29749  15.784  15.297  10.099
70247W        W29750  27.507  27.522   2.240
70248W        W29751  32.009  40.398   1.368
70249W        W29752  32.567   6.903  11.988
70250W        W29753  24.070   3.245   4.332
70251W        W29754  26.647  26.645   0.798
70252W        W29755  26.036   2.237   1.285
70253W        W29756  40.491   4.797   0.273
70254W        W29757   4.425  20.135   2.893
70255W        W29758  19.763  22.109  11.868
70256W        W29759   4.273   0.806  14.505
70257W        W29760   2.851  14.304   1.392
70258W        W29761  26.519  40.406  14.333
70259W        W29762  21.141   4.703  13.445
70260W        W29763   9.669   3.296   0.787
70261W        W29764  12.742  44.288   3.374
70262W        W29765  27.942  30.432  14.274
70263W        W29766  33.912  43.835  13.885
70264W        W29767  43.993  20.556   1.374
70265W        W29768  36.474   9.284   4.276
70266W        W29769   6.791  17.724   2.784
70267W        W29770  10.360  23.729  13.548
70268W        W29771  28.146   7.407   1.227
70269W        W29772  42.296   6.292   1.275
70270W        W29773  43.017  25.209  11.078
70271W        W29774  42.357   9.232   2.341
70272W        W29775  33.059  35.040   3.352
70273W        W29776  33.956  30.085  11.386
70274W        W29777   8.173  26.620   4.650
70275W        W29778  13.710  23.668  13.504
70276W        W29779  15.752  20.529  11.966
70277W        W29780  26.592  36.905  11.949
70278W        W29781  26.661  39.966  13.908
70279W        W29782  25.159  29.953   3.846
70280W        W29783   5.698  34.492  12.908
70281W        W29784  31.518  39.978   3.649
70282W        W29785   5.910  13.638  13.823
70283W        W29786   8.392  17.607   4.606
70284W        W29787   7.243  13.668   5.094
70285W        W29788   3.374  25.583   1.840
70286W        W29789  24.535   4.730  11.502
70287W        W29790  35.053  27.089  12.051
70288W        W29791  20.131  12.200   4.238
70289W        W29792  36.540  12.278   4.194
70290W        W29793  12.252  17.191   1.787
70291W        W29794  27.949  37.075   2.266
70292W        W29795  38.848  41.317   2.270
70293W        W29796  40.823  43.469   4.253
70294W        W29797  27.678  21.629   0.920
70295W        W29798  24.068  29.510  12.560
70296W        W29799   5.271  28.531   5.126
70297W        W29800  34.441  30.546  10.943
70298W        W29801  32.093   7.796  14.385
70299W        W29802  36.493   7.398  13.950
70300W        W29803  42.904  19.104   1.905
70301W        W29804  40.858   6.183  13.394
70302W        W29805  34.508   6.264  13.504
70303W        W29806  40.908  44.461   3.378
70304W        W29807  41.931  40.009  14.472
70305W        W29808  33.926  28.145  11.995
70306W        W29809  35.383  39.000  13.795
70307W        W29810  17.704  37.373  14.358
70308W        W29811  42.935  24.989  12.827
70309W        W29812  17.632   4.792  11.129
70310W        W29813  34.118  42.008   0.814
70311W        W29814  37.982  36.995   3.353
70312W        W29815  29.009  29.048   4.684
70313W        W29816   5.695  43.774   0.456
70314W        W29817  30.013   8.705   5.299
70315W        W29818   7.901  13.222   2.217
70316W        W29819   9.846   7.772  11.000
70317W        W29820  22.509  16.076  12.455
70318W        W29821  25.138  21.023   3.338
70319W        W29822  40.393  14.286   1.313
70320W        W29823  21.026  24.594   0.303
70321W        W29824  21.553  41.025  12.570
70322W        W29825  18.111  14.205   1.759
70323W        W29826  25.497  29.520  13.368
70324W        W29827   1.236  17.125   0.747
70325W        W29828   0.936  32.597   4.338
70326W        W29829  27.500  15.151  10.524
70327W        W29830  41.444  13.603   1.241
70328W        W29831  17.741  15.260  13.951
70329W        W29832  30.139  37.436  13.401
70330W        W29833  17.167  44.922   2.764
70331W        W29834   7.849   6.750  10.403
70332W        W29835   4.833   3.433  12.511
70333W        W29836  24.163  25.475  11.008
70334W        W29837  15.137  19.657   4.599
70335W        W29838  24.126   1.769  10.545
70336W        W29839  43.356   0.785   4.708
70337W        W29840   4.792   3.874   3.693
70338W        W29841   9.168  35.571   4.670
70339W        W29842   7.779  43.358  11.912
70340W        W29843  10.361  42.432   1.917
70341W        W29844  31.600   3.794   3.727
70342W        W29845   0.378  12.737  10.496
70343W        W29846  35.963  33.554  10.928
70344W        W29847  31.972  40.931   1.316
70345W        W29848  43.812  22.045   1.239
70346W        W29849  23.535  22.593  13.327
70347W        W29850  33.514  43.279  14.443
70348W        W29851  29.933  44.473   1.317
70349W        W29852  41.431  40.317   1.813
70350W        W29853  41.506   9.713  12.392
70351W        W29854  42.798  29.993   4.813
70352W        W29855  20.088  32.628   1.395
70353W        W29856  27.478   0.893  13.467
70354W        W29857  24.166  32.535   4.778
70355W        W29858  13.199   8.231  12.339
70356W        W29859   6.196  30.422   1.720
70357W        W29860  21.105  43.302  12.870
70358W        W29861  31.046  15.271   5.152
70359W        W29862   2.958   2.814  14.777
70360W        W29863  42.440  32.885   3.644
70361W        W29864  33.925  23.712   3.863
70362W        W29865   6.312  32.589   1.387
70363W        W29866  28.638  21.081  14.484
70364W        W29867   7.713  16.136   1.290
70365W        W29868   4.397  19.064   1.722
70366W        W29869   9.816  11.705   1.883
70367W        W29870  28.180  18.635   1.913
70368W        W29871  41.330  36.401   0.856
70369W        W29872  40.315   6.325   1.791
70370W        W29873  39.396   4.252  10.126
70371W        W29874  23.220  14.184  13.495
70372W        W29875   1.961  42.494  11.912
70373W        W29876  19.080  24.500  10.540
70374W        W29877  22.538  25.070  11.019
70375W        W29878   6.304  39.814   0.911
70376W        W29879  39.857  36.092   4.619
70377W        W29880  24.047   9.257  11.380
70378W        W29881   4.898   7.730  11.063
70379W        W29882  14.756   4.442   3.784
70380W        W29883  33.104  30.428  11.380
70381W        W29884   9.227  31.110  11.052
70382W        W29885  11.170   6.678   0.828
70383W        W29886   3.374  23.143  12.005
70384W        W29887  43.958  21.716  11.445
70385W        W29888  33.564  44.905  11.610
70386W        W29889  25.051  11.716   3.324
70387W        W29890  43.473  17.618  13.518
70388W        W29891  20.631   1.897   1.339
70389W        W29892  27.172  24.061   0.909
70390W        W29893   1.935  29.572  12.553
70391W        W29894  27.604  32.916   2.259
70392W        W29895   6.915  26.062  13.513
70393W        W29896   6.198  10.229   3.304
70394W        W29897   7.298  27.195   3.242
70395W        W29898  14.308   2.315  11.050
70396W        W29899  14.319  30.078  12.355
70397W        W29900  31.974  10.379   3.172
70398W        W29901  27.601  10.708  13.052
70399W        W29902   7.758  25.498   0.454
70400W        W29903   1.385   4.448  14.921
70401W        W29904  41.322  27.464   1.438
70402W        W29905  16.655  10.729  14.331
70403W        W29906  19.126  16.685  14.945
70404W        W29907  13.635  43.843  10.627
70405W        W29908  42.411  21.641   4.698
70406W        W29909  25.599  25.984   2.239
70407W        W29910  10.262   6.787   2.311
70408W        W29911  11.783  24.009  14.366
70409W        W29912  23.993  14.673   3.213
70410W        W29913  40.382   8.654   0.866
70411W        W29914  38.958  18.094   1.805
70412W        W29915  39.378   1.888   2.221
70413W        W29916   2.409  34.417   4.198
70414W        W29917   4.248  23.010   3.323
70415W        W29918  26.474  25.068   0.464
70416W        W29919   7.366   7.401  12.387
70417W        W29920  34.559  24.146   0.954
70418W        W29921  37.542   9.349  14.811
70419W        W29922  19.044  25.151  13.955
70420W        W29923  33.070   9.275   0.763
70421W        W29924  18.256  14.237  12.536
70422W        W29925  40.318  37.374   2.770
70423W        W29926   6.723  11.265   3.691
70424W        W29927  29.524  21.712  13.381
70425W        W29928  34.043   7.253  13.959
70426W        W29929   9.249  33.898   0.914
70427W        W29930  40.417   7.216  14.893
70428W        W29931  42.846   2.244   3.826
70429W        W29932  17.791  23.099  11.877
70430W        W29933  40.488  26.102  11.472
70431W        W29934  14.106  37.495   3.830
70432W        W29935  34.456  18.727   1.735
70433W        W29936  28.986  17.636   0.824
70434W        W29937  42.439  19.225   2.383
70435W        W29938  31.500   6.904   3.682
70436W        W29939   5.848  44.429  12.499
70437W        W29940  16.152  11.150   4.614
70438W        W29941  38.914  26.128   0.832
70439W        W29942  34.376  42.996  14.347
70440W        W29943  29.446  27.017  13.824
70441W        W29944   9.760  27.469   4.182
70442W        W29945  38.388  17.684  10.439
70443W        W29946  42.988  16.711   3.646
70444W        W29947  34.021  44.959  13.957
70445W        W29948   7.348  41.942  13.809
70446W        W29949  42.389  37.896   0.433
70447W        W29950  18.197   2.745  10.578
70448W        W29951  29.521  35.516   0.304
70449W        W29952  34.053  29.653  11.537
70450W        W29953  40.910   9.269   2.814
70451W        W29954  18.141  37.370  14.452
70452W        W29955  10.188  32.413   2.789
70453W        W29956  44.440  12.703  11.424
70454W        W29957   3.882  26.691  14.779
70455W        W29958  35.549   3.263   4.128
70456W        W29959  32.973   0.309  13.009
70457W        W29960   5.377  42.824   0.245
70458W        W29961  39.839  41.306  11.011
70459W        W29962  21.036  24.667   2.234
70460W        W29963  15.192  34.391  10.613
70461W        W29964  44.820  44.930   3.205
70462W        W29965  11.232  34.879   3.180
70463W        W29966  24.109  21.616   2.676
70464W        W29967  44.775  15.652  10.021
70465W        W29968  18.070   1.358   4.604
70466W        W29969  13.749  30.473   3.331
70467W        W29970  35.415  40.034   4.738
70468W        W29971  36.524  14.827   3.247
70469W        W29972  42.873  14.606  13.852
70470W        W29973  41.903   4.788  10.910
70471W        W29974  11.335  27.524  14.367
70472W        W29975  37.954   1.827   3.847
70473W        W29976  42.350  25.711   0.366
70474W        W29977  29.605  31.958   1.783
70475W        W29978  36.434  44.432   0.344
70476W        W29979  26.464   7.856   1.214
70477W        W29980  25.502  43.348  11.483
70478W        W29981  37.503   1.408   4.800
70479W        W29982  36.040  35.076   4.318
70480W        W29983   7.246  41.940  12.091
70481W        W29984  24.641  43.287  14.499
70482W        W29985  24.999  10.317  13.390
70483W        W29986  21.174  41.875   1.844
70484W        W29987   9.200  20.256   3.151
70485W        W29988  28.011  32.497   1.435
70486W        W29989   1.337  11.201   1.252
70487W        W29990  11.311  11.174  14.302
70488W        W29991  14.248  21.255   2.283
70489W        W29992  10.281  11.309  14.007
70490W        W29993  12.636  40.022   3.315
70491W        W29994  16.258  11.182   2.753
70492W        W29995  18.241   6.324  14.494
70493W        W29996   9.328  15.600   3.366
70494W        W29997  20.588  26.590  10.990
70495W        W29998  18.730   9.651  11.967
70496W        W29999   6.770  29.116  11.580
70497W        W30000  19.699  18.233  13.899
70498W        W30001   6.281  16.216   3.666
70499W        W30002  26.581  25.118   3.226
70500W        W30003  43.319  28.051   1.811
70501W        W30004  23.498  31.901   4.668
70502W        W30005  13.722  41.387   3.256
70503W        W30006  43.301  34.908   0.757
70504W        W30007  23.517  18.238  12.031
70505W        W30008  35.489  22.176  14.021
70506W        W30009  24.701  40.004  13.937
70507W        W30010  44.806  16.809   4.726
70508W        W30011  16.625  42.316  14.906
70509W        W30012  27.085   0.346  11.930
70510W        W30013   2.336  14.144   3.364
70511W        W30014  13.190  21.236   3.226
70512W        W30015  28.530  29.948  13.317
70513W        W30016   1.402  20.687  13.963
70514W        W30017   8.838  19.157  12.023
70515W        W30018  33.041  20.725  12.555
70516W        W30019  10.746  33.497  13.985
70517W        W30020   5.896  24.511   2.200
70518W        W30021   4.447   7.408  13.982
70519W        W30022  29.148  38.864   2.380
70520W        W30023  29.489  36.520  14.979
70521W        W30024  23.699   6.881   2.183
70522W        W30025  16.102   0.435  13.901
70523W        W30026  42.938  39.382  12.045
70524W        W30027  22.095  29.050   4.133
70525W        W30028   9.172  39.926  12.512
70526W        W30029  36.930  39.424   1.371
70527W        W30030  23.567  10.865   2.191
70528W        W30031  27.104  31.028   2.743
70529W        W30032  17.566  16.151   3.838
70530W        W30033  29.571  21.122  11.887
70531W        W30034  13.179  35.039  11.064
70532W        W30035  39.523  39.908  13.538
70533W        W30036  24.586  32.906   0.281
70534W        W30037  20.610  40.889   0.745
70535W        W30038   8.863  35.065   2.412
70536W        W30039   5.354   3.366  13.061
70537W        W30040  30.481  34.074   1.889
70538W        W30041  23.219  29.040  13.390
70539W        W30042  19.142  27.135  12.009
70540W        W30043   3.810  20.170  12.917
70541W        W30044  28.034  27.666   3.646
70542W        W30045  24.218  18.200   1.440
70543W        W30046   3.308  37.078  10.913
70544W        W30047  36.091  30.455   2.393
70545W        W30048  14.639  22.711  14.304
70546W        W30049  40.944   3.877  14.849
70547W        W30050  31.488  33.443   0.732
70548W        W30051  42.968   9.822  10.541
70549W        W30052  35.067  25.058   3.197
70550W        W30053  17.700   5.721   0.785
70551W        W30054  27.637  38.481   5.735
70552W        W30055  26.555   6.889   3.859
70553W        W30056  28.539  28.999  12.429
70554W        W30057  14.642  40.995   2.281
70555W        W30058   1.437  37.021  14.782
70556W        W30059  21.089  21.193   4.114
70557W        W30060  42.384  15.289   0.259
70558W        W30061  31.545   2.453  12.515
70559W        W30062   2.422  20.699   2.404
70560W        W30063   8.166  44.504  10.520
70561W        W30064  25.196  41.807   4.317
70562W        W30065  23.040  15.626   2.405
70563W        W30066  43.799  29.556  12.412
70564W        W30067  26.128   1.401  14.283
70565W        W30068   1.756  42.288   0.742
70566W        W30069  19.164  27.170   0.879
70567W        W30070  39.334  18.786  13.940
70568W        W30071   5.709   9.297  11.041
70569W        W30072  12.297  11.231   0.754
70570W        W30073   7.240  16.776   1.738
70571W        W30074  21.527   3.448   4.598
70572W        W30075   7.334  41.326   4.837
70573W        W30076  42.389  32.926   0.300
70574W        W30077  23.607  34.057  12.987
70575W        W30078  12.750  13.652   3.325
70576W        W30079  15.648  16.141   3.820
70577W        W30080  25.058  10.380   1.850
70578W        W30081   7.233  25.178   3.361
70579W        W30082  25.011  32.481  12.440
70580W        W30083  26.994  20.143  11.403
70581W        W30084  35.471  21.629  13.344
70582W        W30085  26.090  24.018   2.811
70583W        W30086  41.448  41.438   4.184
70584W        W30087  31.510  44.864   4.341
70585W        W30088  38.399  15.098   4.189
70586W        W30089  32.502  41.411   3.737
70587W        W30090   1.425  23.222   2.264
70588W        W30091   5.754  17.240  14.347
70589W        W30092   1.903  23.239  10.642
70590W        W30093   2.930  11.686   0.256
70591W        W30094   7.391  20.598  13.313
70592W        W30095  42.850   7.354   9.933
70593W        W30096   0.878  26.576  13.399
70594W        W30097   3.392  14.821   4.267
70595W        W30098  10.653  25.169  11.989
70596W        W30099  29.171  44.398  12.981
70597W        W30100  17.714  39.954  14.488
70598W        W30101  33.001  26.582   5.217
70599W        W30102  41.952   5.347  13.869
70600W        W30103  27.043  43.831  11.855
70601W        W30104  15.797  22.545   5.258
70602W        W30105  37.005  37.955   4.346
70603W        W30106  20.552  16.156  11.954
70604W        W30107  14.643  43.400   1.713
70605W        W30108  28.938  15.196   2.411
70606W        W30109  27.480  33.887   2.823
70607W        W30110  27.052  19.572  11.446
70608W        W30111  42.445  27.474   4.715
70609W        W30112  28.652   6.713   3.346
70610W        W30113  24.497  39.329   0.481
70611W        W30114  40.908  37.497  11.447
70612W        W30115   9.821   9.238   1.353
70613W        W30116   3.376   2.947  12.840
70614W        W30117  15.174   6.410  14.474
70615W        W30118   1.401  44.903   2.852
70616W        W30119  26.140  10.294  13.806
70617W        W30120   3.924  21.575  13.474
70618W        W30121  18.078   9.194   3.756
70619W        W30122   9.805  31.511  14.854
70620W        W30123   9.824  22.206  14.450
70621W        W30124  30.510  12.217   4.284
70622W        W30125  35.002  30.993  14.858
70623W        W30126  39.482  30.009  10.600
70624W        W30127  27.538  25.188  13.802
70625W        W30128  42.911  21.750   4.137
70626W        W30129  21.595  11.177   2.900
70627W        W30130  11.359  39.527  12.494
70628W        W30131   5.778  36.518  13.850
70629W        W30132  27.470   3.370   4.174
70630W        W30133  43.425   2.798   3.643
70631W        W30134  32.115  37.908   3.204
70632W        W30135  11.136  26.027  11.444
70633W        W30136  12.252  41.855   0.938
70634W        W30137  22.526  32.124  13.329
70635W        W30138   6.383   3.258  11.086
70636W        W30139   6.804  20.577  13.819
70637W        W30140  27.943   4.230  11.006
70638W        W30141  36.053  37.346  13.037
70639W        W30142  25.608   8.319  10.458
70640W        W30143  18.760   4.257  14.277
70641W        W30144   8.752  39.861  11.102
70642W        W30145  31.629  12.302  14.913
70643W        W30146  24.487   5.730  11.923
70644W        W30147  43.368  23.556  14.978
70645W        W30148  25.541  34.869  11.595
70646W        W30149  29.602  25.657   3.159
70647W        W30150  37.416  22.541  14.983
70648W        W30151   0.869  21.700   3.276
70649W        W30152  15.718  33.038  10.503
70650W        W30153  41.960  39.028   2.350
70651W        W30154  36.063  19.637   3.236
70652W        W30155   3.783  25.179   1.826
70653W        W30156   0.935  12.723  14.327
70654W        W30157  16.233   2.427  13.030
70655W        W30158  25.505  42.945   2.324
70656W        W30159   9.314   1.331  13.865
70657W        W30160  26.662  16.641   1.913
70658W        W30161  40.888  24.186   2.738
70659W        W30162  21.609  21.217  10.897
70660W        W30163  35.549   3.281   1.901
70661W        W30164   3.723  28.076   1.801
70662W        W30165  23.646   0.951  13.542
70663W        W30166  38.363  35.533  14.958
70664W        W30167  24.667   7.733  12.342
70665W        W30168  25.184  27.517   3.725
70666W        W30169   7.755   7.340   2.405
70667W        W30170  32.114   1.773   4.284
70668W        W30171   3.413  28.123   2.363
70669W        W30172  34.883  32.444  14.029
70670W        W30173  10.173  11.667   1.909
70671W        W30174   4.783  34.581  11.934
70672W        W30175   3.922  41.876  12.579
70673W        W30176   2.470   6.347   3.201
70674W        W30177  31.913  18.634   2.320
70675W        W30178  11.310  11.163   4.663
70676W        W30179   7.733  29.150  11.863
70677W        W30180  41.494   0.337   4.322
70678W        W30181  28.040  36.450   2.244
70679W        W30182  29.017  12.191  14.370
70680W        W30183   4.440  44.417  11.526
70681W        W30184   1.914   8.715  12.870
70682W        W30185  42.029  13.330   4.662
70683W        W30186   1.864  28.586   3.652
70684W        W30187  35.885  42.823   2.779
70685W        W30188  14.259  37.401   4.198
70686W        W30189  39.809  17.799  10.439
70687W        W30190  21.066   1.348  10.417
70688W        W30191  24.530  28.449  10.917
70689W        W30192   4.833   3.879  11.032
70690W        W30193  17.249  31.994   2.198
70691W        W30194   0.360   6.913  13.055
70692W        W30195  28.624   4.281  13.522
70693W        W30196  16.152  24.609   2.761
70694W        W30197  18.670  33.909   1.385
70695W        W30198  44.418  43.378   3.372
70696W        W30199  23.628   5.333  13.484
70697W        W30200  22.524  17.778  14.797
70698W        W30201  30.633  30.157  14.301
70699W        W30202  27.474  25.515  12.980
70700W        W30203  31.119  30.158  14.976
70701W        W30204  11.134  44.759  14.889
70702W        W30205  29.635  24.163  12.087
70703W        W30206  33.526   5.698   3.375
70704W        W30207  25.043  34.555  13.347
70705W        W30208   2.843  36.521   2.786
70706W        W30209   8.306   5.242  13.883
70707W        W30210  13.811  14.656   2.374
70708W        W30211  44.330  31.486  12.863
70709W        W30212   9.864  11.216   0.332
70710W        W30213  26.588  24.608  14.336
70711W        W30214  16.108  25.664   3.745
70712W        W30215  33.620  13.215  10.071
70713W        W30216  42.011  34.400   3.660
70714W        W30217   2.377   9.163   0.458
70715W        W30218  40.313  22.213  14.009
70716W        W30219  20.539  13.831  11.983
70717W        W30220  37.543  10.772   4.271
70718W        W30221  30.612   8.200   0.275
70719W        W30222  27.196   7.206  13.476
70720W        W30223  37.947  17.133  14.030
70721W        W30224  26.004  19.734   1.309
70722W        W30225  10.731  19.238   4.821
70723W        W30226  37.024   5.430  10.578
70724W        W30227  13.175  31.575   4.146
70725W        W30228  43.367  14.815  13.358
70726W        W30229  33.388   2.272   3.374
70727W        W30230  24.495   8.194   4.122
70728W        W30231  17.198  29.918   3.757
70729W        W30232  41.355  24.576  13.494
70730W        W30233  10.740  12.825   4.669
70731W        W30234  14.304  43.893  12.827
70732W        W30235  10.872  19.244  11.377
70733W        W30236  32.392   7.244  14.347
70734W        W30237  41.486  29.493  13.307
70735W        W30238   8.253  14.096   4.616
70736W        W30239  21.744  36.363   1.834
70737W        W30240   5.859  15.617   3.643
70738W        W30241   5.836  35.855   4.748
70739W        W30242   9.736  23.605  12.575
70740W        W30243  32.488   7.769  11.968
70741W        W30244   6.892  23.195   2.354
70742W        W30245   1.926  39.815   4.716
70743W        W30246  23.065  24.100  14.346
70744W        W30247  23.186  44.297   3.862
70745W        W30248  40.929  16.130   0.270
70746W        W30249  32.007  29.614  12.448
70747W        W30250  21.056  31.585   0.779
70748W        W30251  44.367  12.767  12.525
70749W        W30252   8.178  26.651   2.876
70750W        W30253   3.947   3.436  13.994
70751W        W30254  15.181   6.824   2.335
70752W        W30255   9.741  29.444  12.518
70753W        W30256   9.247  34.419  14.769
70754W        W30257  27.120  32.057  11.047
70755W        W30258  39.046  11.315  10.126
70756W        W30259  38.553  43.911  10.468
70757W        W30260  27.146  21.214   4.273
70758W        W30261  39.841  32.557  14.348
70759W        W30262   9.351  22.204   1.724
70760W        W30263   3.763  39.065  13.048
70761W        W30264  37.081   4.862   2.200
70762W        W30265  13.813  15.675  12.021
70763W        W30266   7.734  31.511   1.437
70764W        W30267  13.630  43.906   1.760
70765W        W30268  27.449  42.971   2.874
70766W        W30269  41.854   1.776  11.527
70767W        W30270  17.654  44.858   2.351
70768W        W30271  41.798   1.742   4.796
70769W        W30272   3.951  15.242   4.609
70770W        W30273  25.565  14.778  12.539
70771W        W30274   1.860   6.366  11.382
70772W        W30275  23.535  14.603  14.362
70773W        W30276  37.509  44.902   3.243
70774W        W30277   6.304  38.867  13.804
70775W        W30278  13.168  14.761   2.759
70776W        W30279  38.395  20.624  13.937
70777W        W30280  40.999  14.802   4.669
70778W        W30281  24.722  33.415  11.043
70779W        W30282  25.122  30.078   2.721
70780W        W30283  31.923  15.260  12.043
70781W        W30284  40.398  36.094   1.415
70782W        W30285   1.752  11.822   0.935
70783W        W30286  13.797   6.364  11.486
70784W        W30287  43.508  34.381   2.847
70785W        W30288   5.215   0.975  12.540
70786W        W30289   0.857  20.657  14.319
70787W        W30290  33.399   7.239  13.416
70788W        W30291  33.595  34.497   1.377
70789W        W30292  13.305   5.437  11.869
70790W        W30293  35.454  14.190   1.305
70791W        W30294  40.354  13.313  13.548
70792W        W30295   1.421   3.788   0.363
70793W        W30296  39.490  28.105   2.742
70794W        W30297  36.511  13.191  14.288
70795W        W30298   1.290  29.520  13.535
70796W        W30299  20.258  43.826   3.828
70797W        W30300   9.266  34.884  13.348
70798W        W30301   6.747  19.057   0.412
70799W        W30302   3.765  12.261  12.948
70800W        W30303  29.921  22.663  12.510
70801W        W30304   0.823  21.751  14.508
70802W        W30305  33.380  44.302   0.940
70803W        W30306  36.578  10.267  13.347
70804W        W30307  16.809  24.535   3.855
70805W        W30308  28.175   5.294   3.864
70806W        W30309   3.343  11.292  12.535
70807W        W30310  26.208  17.700   0.741
70808W        W30311  20.647  39.324  13.322
70809W        W30312  21.564   7.305  12.520
70810W        W30313   1.289   7.808   2.244
70811W        W30314  39.334   4.885   3.171
70812W        W30315  28.023  28.595   1.291
70813W        W30316   5.347  20.607   1.865
70814W        W30317  38.024  17.198   2.815
70815W        W30318  31.908  20.695  13.971
70816W        W30319   5.765  18.657   0.902
70817W        W30320  17.213  28.595  10.062
70818W        W30321  40.343  34.954  12.518
70819W        W30322  21.244  10.658   0.849
70820W        W30323  29.668  29.970   1.295
70821W        W30324  39.017  18.725  12.529
70822W        W30325   0.430  26.093  13.997
70823W        W30326  19.541  14.289  13.416
70824W        W30327   0.439   1.473  12.535
70825W        W30328  42.342   3.282  13.424
70826W        W30329   9.190  32.892   0.760
70827W        W30330  32.052   2.264  11.549
70828W        W30331   9.808   1.943  12.845
70829W        W30332  21.590  40.803   0.306
70830W        W30333  18.257  22.073   2.730
70831W        W30334  14.183  22.628   3.697
70832W        W30335  15.815  19.187  12.991
70833W        W30336  34.094  15.765   3.835
70834W        W30337  26.111   7.698   1.296
70835W        W30338  40.868  15.616   3.158
70836W        W30339  33.077  25.201   2.336
70837W        W30340  36.040  13.318   2.186
70838W        W30341  26.998   0.398   5.196
70839W        W30342  29.662   7.840  14.859
70840W        W30343  30.144  29.120   2.280
70841W        W30344  18.283  17.293   0.352
70842W        W30345  10.782   0.384   0.839
70843W        W30346   9.254   1.970   3.830
70844W        W30347  17.794  10.824  11.128
70845W        W30348  29.081  21.549  14.443
70846W        W30349  42.448   2.311  12.855
70847W        W30350   0.819  29.473   2.313
70848W        W30351  27.045  44.923   0.957
70849W        W30352  33.480  41.970  14.512
70850W        W30353  23.186  40.950   4.234
70851W        W30354  21.523  15.306   4.606
70852W        W30355  18.234   7.229   4.837
70853W        W30356  31.937  41.448   1.220
70854W        W30357   2.869  10.695   3.165
70855W        W30358  27.627  32.519   3.668
70856W        W30359  27.071  15.770   4.267
70857W        W30360  42.837  27.600  10.624
70858W        W30361  33.469  25.060   4.337
70859W        W30362  28.642  28.458   2.891
70860W        W30363  30.101   7.359  13.802
70861W        W30364   1.915   8.736   4.601
70862W        W30365   2.793   6.389  12.959
70863W        W30366   8.733  35.885   3.750
70864W        W30367  31.614  12.152  13.890
70865W        W30368  27.641  38.391   1.402
70866W        W30369  44.873  38.470   0.792
70867W        W30370  13.338  32.479  12.007
70868W        W30371   5.382  21.078  10.570
70869W        W30372  35.035  40.814  13.530
70870W        W30373  39.470  35.068  14.967
70871W        W30374  13.613  17.681   0.292
70872W        W30375  30.113  13.260  11.919
70873W        W30376  28.126  44.489   5.117
70874W        W30377  10.367  34.529  11.911
70875W        W30378   9.664  20.754   2.837
70876W        W30379  37.861  32.888  10.478
70877W        W30380  25.044   0.351   1.710
70878W        W30381  33.982  25.993  14.382
70879W        W30382  41.799  15.811   0.900
70880W        W30383  37.472  27.172  12.090
70881W        W30384   4.301  35.465   1.428
70882W        W30385  41.382  18.639  13.470
70883W        W30386  11.186  31.984  12.886
70884W        W30387  34.030  15.322   0.846
70885W        W30388  30.497  24.155  14.463
70886W        W30389  38.483  10.354   4.610
70887W        W30390  22.664  23.098  12.906
70888W        W30391   1.917  16.235  11.062
70889W        W30392  16.768   0.949   3.732
70890W        W30393  16.120  14.770   3.740
70891W        W30394   8.225  29.021  11.380
70892W        W30395  29.475  12.232  10.633
70893W        W30396  22.158  12.710   3.151
70894W        W30397  14.625  22.252   4.231
70895W        W30398  22.166  18.106  13.989
70896W        W30399   1.843   1.763  11.920
70897W        W30400  40.527  39.974  11.924
70898W        W30401  25.989  11.783  11.002
70899W        W30402  24.578  21.544   3.652
70900W        W30403   4.419  11.737   2.292
70901W        W30404   8.792  25.047  12.542
70902W        W30405  35.552  13.609   3.734
70903W        W30406   8.754   9.222  11.530
70904W        W30407  20.244  24.121  13.382
70905W        W30408  28.988   0.302   3.790
70906W        W30409   2.837  16.809  12.046
70907W        W30410   6.262  37.866   0.292
70908W        W30411  17.587  21.673  11.863
70909W        W30412   9.815   2.740  11.046
70910W        W30413  40.869   2.417  12.358
70911W        W30414   6.764  10.754   1.763
70912W        W30415   6.244  22.686   3.219
70913W        W30416  18.639   3.427  13.873
70914W        W30417  35.477  36.513   3.662
70915W        W30418  24.536  30.074  10.493
70916W        W30419  29.053   0.281   4.234
70917W        W30420  31.030  34.115  10.426
70918W        W30421  16.643  18.057  14.326
70919W        W30422  13.217  40.338   3.858
70920W        W30423   6.723   4.945  10.941
70921W        W30424  44.336  23.499  14.792
70922W        W30425  37.466  44.435   2.259
70923W        W30426  23.490   7.833  14.873
70924W        W30427  12.820  44.869   3.792
70925W        W30428   4.799   5.220   0.333
70926W        W30429  25.708  35.899   1.408
70927W        W30430  43.477   3.414  10.622
70928W        W30431  17.200  43.305   4.793
70929W        W30432   4.752  22.742   5.322
70930W        W30433  43.861  13.820   1.920
70931W        W30434  24.183   9.181   0.848
70932W        W30435  38.489  38.359  10.958
70933W        W30436  27.675  16.271  11.984
70934W        W30437   4.847  11.633  13.352
70935W        W30438  25.598  11.161  13.817
70936W        W30439  28.605  10.351   2.183
70937W        W30440   8.803  30.645  12.994
70938W        W30441  10.798  13.280  13.966
70939W        W30442   3.950  40.915  14.768
70940W        W30443  28.946  32.992  12.929
70941W        W30444   6.721   1.738  11.077
70942W        W30445  10.811   5.252  11.552
70943W        W30446  12.837  14.283   1.724
70944W        W30447  12.693  32.101  14.479
70945W        W30448  14.593  30.953  12.525
70946W        W30449  39.503  24.165   0.821
70947W        W30450  19.200  23.526  14.499
70948W        W30451  22.649  13.249  11.607
70949W        W30452  24.210  22.018  14.828
70950W        W30453  40.493  15.612   1.885
70951W        W30454  28.581   6.877  12.857
70952W        W30455   6.284  19.695  10.063
70953W        W30456  22.716  30.069   1.913
70954W        W30457  40.810   1.248   4.810
70955W        W30458   9.149  37.451  13.041
70956W        W30459  37.025   8.792  12.369
70957W        W30460   9.867  30.101   0.442
70958W        W30461   8.278   8.200  11.060
70959W        W30462  43.969  34.545   1.344
70960W        W30463  21.158  20.608   1.447
70961W        W30464  40.394   0.427  11.037
70962W        W30465   9.804  40.408   1.326
70963W        W30466  21.574  21.728   3.668
70964W        W30467  33.875  43.956   4.319
70965W        W30468  11.683  27.196  12.039
70966W        W30469  32.908  34.412  14.404
70967W        W30470  30.971  35.412   9.592
70968W        W30471  32.529  27.538   2.359
70969W        W30472   4.748  23.091   1.390
70970W        W30473  14.764  20.106  14.325
70971W        W30474  24.649   0.269   2.330
70972W        W30475  40.478  22.163   0.283
70973W        W30476   1.351  25.160   1.929
70974W        W30477  18.770  11.657  11.451
70975W        W30478   9.352  29.964   0.835
70976W        W30479  39.361  25.650   3.765
70977W        W30480  38.010   3.779  12.062
70978W        W30481  17.277  30.621  10.155
70979W        W30482  17.653  39.012  11.998
70980W        W30483   2.809  24.127   0.736
70981W        W30484  32.447  12.272   5.293
70982W        W30485  23.202   8.174   3.791
70983W        W30486   0.761  17.737  12.931
70984W        W30487  41.018  23.668   2.248
70985W        W30488  14.785  42.315  10.518
70986W        W30489   8.331   2.257  10.555
70987W        W30490  44.763  29.967   1.825
70988W        W30491  14.124  36.976   2.827
70989W        W30492  31.614  25.157  11.050
70990W        W30493  35.098  36.518   5.131
70991W        W30494  27.471   7.416   0.466
70992W        W30495  31.994  38.456  12.040
70993W        W30496  19.061  39.045   1.885
70994W        W30497   0.970   7.739  12.469
70995W        W30498  29.540  30.132   0.754
70996W        W30499  30.476  41.850   0.361
70997W        W30500  28.625  44.923  13.840
70998W        W30501  43.301  12.616   0.462
70999W        W30502   1.314  14.595  10.566
71000W        W30503  37.975  29.543  14.334
71001W        W30504  37.447  19.261  12.920
71002W        W30505   5.397  33.392  14.288
71003W        W30506   7.769  41.372  13.825
71004W        W30507  12.270  35.465  14.956
71005W        W30508   5.762  24.215   1.273
71006W        W30509  44.373   5.762   0.379
71007W        W30510  30.488   9.154   4.838
71008W        W30511  38.570  39.428  11.072
71009W        W30512   5.422  36.424  13.021
71010W        W30513   9.329  40.364   1.747
71011W        W30514  24.120   2.284  14.278
71012W        W30515   1.830  26.692   2.832
71013W        W30516  11.753  33.962  14.280
71014W        W30517   6.319  35.966  12.900
71015W        W30518  39.343  36.367  14.892
71016W        W30519  16.813  19.690   3.786
71017W        W30520  14.268   1.752  10.890
71018W        W30521  16.294  35.458   3.374
71019W        W30522  12.737  30.569  11.375
71020W        W30523  35.518  12.686   2.824
71021W        W30524  35.938  18.748  13.535
71022W        W30525  41.976  25.585  10.902
71023W        W30526  11.768   0.970   0.347
71024W        W30527  14.805  21.196  13.842
71025W        W30528  10.259   0.948   0.925
71026W        W30529  36.388  39.010   2.325
71027W        W30530  15.613  43.789  10.616
71028W        W30531  26.560  16.250   0.364
71029W        W30532  41.031  17.671   3.671
71030W        W30533  22.586  42.831   1.426
71031W        W30534  26.089   2.338   4.644
71032W        W30535  14.765  27.643   2.320
71033W        W30536  28.436   6.923  13.849
71034W        W30537  24.066  15.798  11.938
71035W        W30538  18.675   5.721  13.511
71036W        W30539  38.329  44.900  10.501
71037W        W30540  30.116   5.810  12.892
71038W        W30541  11.220  19.194   2.729
71039W        W30542   8.666  39.900   4.610
71040W        W30543  23.701  31.983   0.848
71041W        W30544  42.021  39.549  14.902
71042W        W30545   2.911  19.189  11.607
71043W        W30546  39.326  16.130  12.042
71044W        W30547  36.043  31.076  12.881
71045W        W30548  27.029  38.470  12.390
71046W        W30549  35.460  15.157   0.460
71047W        W30550  43.366   4.416   0.728
71048W        W30551  38.869  29.601  11.418
71049W        W30552  24.552  23.152  13.510
71050W        W30553   6.744  41.373  13.861
71051W        W30554  44.957  39.316  10.468
71052W        W30555  21.554   1.848   1.276
71053W        W30556  35.588   9.880   2.681
71054W        W30557  32.117  29.008  12.927
71055W        W30558   6.356   1.456   0.831
71056W        W30559   8.666   3.802   0.832
71057W        W30560   5.409  24.130  14.459
71058W        W30561  39.446  36.078   2.708
71059W        W30562   9.814  23.173  11.888
71060W        W30563  44.997  39.492   1.844
71061W        W30564   7.752  25.489   2.207
71062W        W30565  36.516  17.196  11.383
71063W        W30566  32.476  38.989   5.683
71064W        W30567  37.941  19.544  14.794
71065W        W30568   8.370  36.429  11.410
71066W        W30569  17.129  20.657  12.003
71067W        W30570  38.374  30.530   2.713
71068W        W30571  44.272  21.147  11.097
71069W        W30572  11.666  20.183  11.974
71070W        W30573  31.559  12.737   2.856
71071W        W30574  32.075   7.346  10.025
71072W        W30575  42.300  33.525   4.782
71073W        W30576  15.815  21.105   2.326
71074W        W30577  34.045  12.813   2.365
71075W        W30578  28.958  38.523   4.821
71076W        W30579  11.308  16.131   2.266
71077W        W30580  25.588  12.702   5.215
71078W        W30581  22.119  25.017   3.228
71079W        W30582   9.186  12.298   2.239
71080W        W30583  10.339  11.709  14.932
71081W        W30584  42.812  14.751  10.450
71082W        W30585  41.489   8.219  10.963
71083W        W30586  41.404  15.642  10.503
71084W        W30587  14.139   0.837  10.502
71085W        W30588  29.497  36.486  11.502
71086W        W30589  30.549  12.628  14.859
71087W        W30590   1.878  27.148   1.858
71088W        W30591  21.163  25.653  13.850
71089W        W30592   0.956  16.662   0.921
71090W        W30593  19.206  14.789   4.819
71091W        W30594  32.094  25.001   3.374
71092W        W30595  15.100  13.146   3.351
71093W        W30596  25.675  28.602   2.385
71094W        W30597  40.387   8.786  11.944
71095W        W30598  23.217  31.107  11.856
71096W        W30599  27.097  18.153   0.927
71097W        W30600  35.903   1.743  13.959
71098W        W30601  23.000  31.911   4.239
71099W        W30602  15.091   8.657   4.181
71100W        W30603   9.671   3.414  10.935
71101W        W30604  23.222  44.297  14.474
71102W        W30605  19.776   7.676  14.380
71103W        W30606  43.857  38.884   0.834
71104W        W30607   5.837  20.076   0.278
71105W        W30608  17.096  15.235  10.419
71106W        W30609   0.892   6.730  13.015
71107W        W30610  27.560  21.690  11.885
71108W        W30611  21.604  14.788   4.742
71109W        W30612  44.328  19.143   1.257
71110W        W30613   6.799  15.674  14.893
71111W        W30614  36.090   8.799  12.565
71112W        W30615  33.943  44.352  11.963
71113W        W30616  18.701   9.152   0.324
71114W        W30617  38.519  41.038   2.822
71115W        W30618   0.296   2.886   4.340
71116W        W30619  12.633  42.973   4.347
71117W        W30620  38.857  23.163   2.858
71118W        W30621  22.520  23.668   0.875
71119W        W30622   6.891  17.191   4.263
71120W        W30623   3.808  18.734  12.496
71121W        W30624  41.889  16.634  14.806
71122W        W30625   8.703  11.353   1.405
71123W        W30626   5.410  17.607   3.722
71124W        W30627  39.854  29.956   1.906
71125W        W30628  33.119  12.630  14.961
71126W        W30629  35.410   4.722   1.399
71127W        W30630   2.324   4.310   1.317
71128W        W30631  31.500  38.039   3.253
71129W        W30632  28.544  36.841   1.390
71130W        W30633  40.322  20.129   4.347
71131W        W30634   0.363  13.115  13.907
71132W        W30635  39.868  15.093   2.345
71133W        W30636  24.550  43.503   3.198
71134W        W30637  24.186  21.100  10.940
71135W        W30638  44.449  35.860   2.739
71136W        W30639   3.324  38.391   1.906
71137W        W30640  34.373  22.058   3.705
71138W        W30641   2.232   6.357  12.378
71139W        W30642  41.339  11.158   2.842
71140W        W30643  27.058  44.842  10.913
71141W        W30644   9.205  28.015   4.706
71142W        W30645  18.290  17.709  11.396
71143W        W30646  29.043  16.749   0.959
71144W        W30647   9.804  24.012   1.874
71145W        W30648  32.141  23.046  14.481
71146W        W30649  39.059  37.053   3.255
71147W        W30650  35.458  29.080  11.103
71148W        W30651   4.318  36.876   0.439
71149W        W30652  30.946  16.782   5.318
71150W        W30653  13.682  10.368  10.050
71151W        W30654   0.775   8.310  12.536
71152W        W30655  43.478  24.114   3.786
71153W        W30656  25.556  30.479  12.061
71154W        W30657  41.471   3.776   1.303
71155W        W30658  32.493  14.339   2.665
71156W        W30659  41.904   0.913   4.272
71157W        W30660   6.274  24.718   4.178
71158W        W30661  22.510  35.866  13.491
71159W        W30662  30.974  19.686   4.327
71160W        W30663  24.085   5.355  13.835
71161W        W30664  40.029  28.935  14.873
71162W        W30665   2.795  37.848   0.804
71163W        W30666  34.496  36.586   5.281
71164W        W30667  28.955  13.156   5.688
71165W        W30668  21.077  10.176  11.874
71166W        W30669  14.712  31.547   0.796
71167W        W30670  39.978  11.675   3.686
71168W        W30671  11.653  44.496  14.374
71169W        W30672  26.599  26.017  11.554
71170W        W30673  30.103  17.134  14.775
71171W        W30674  35.072   4.332   4.741
71172W        W30675  44.451  38.071   2.217
71173W        W30676  13.659  19.282   1.806
71174W        W30677  13.786  29.986  13.391
71175W        W30678  20.094   9.351  11.868
71176W        W30679  44.411  13.142  14.462
71177W        W30680   0.858  24.704  13.376
71178W        W30681  41.819  34.585   1.278
71179W        W30682   6.821  23.661   1.716
71180W        W30683  33.507   1.788   3.339
71181W        W30684   5.291  42.309   4.815
71182W        W30685  29.013  31.465   3.268
71183W        W30686  27.074  17.235   2.841
71184W        W30687  17.144  22.170  13.057
71185W        W30688  33.899  28.549   0.919
71186W        W30689  25.030  38.359  13.487
71187W        W30690  28.662  33.391   2.821
71188W        W30691  38.836  15.691  10.936
71189W        W30692  30.413  19.248  10.633
71190W        W30693   7.827  10.244  12.367
71191W        W30694  14.290   9.758  11.407
71192W        W30695  25.014  37.031  13.891
71193W        W30696  39.961  16.106   1.390
71194W        W30697  37.830  21.056  12.514
71195W        W30698  21.105  33.498   0.268
71196W        W30699  14.696   7.762  10.994
71197W        W30700   7.383  31.068  12.864
71198W        W30701   5.315  16.691  11.556
71199W        W30702  12.686  18.100  11.949
71200W        W30703   6.195   1.343  10.404
71201W        W30704  22.068  18.215   1.882
71202W        W30705  18.214  21.570  13.532
71203W        W30706  15.643  34.421   4.248
71204W        W30707   9.665  27.128  10.431
71205W        W30708   7.802  19.109   0.911
71206W        W30709  40.815  24.022   3.238
71207W        W30710   0.865  10.638  14.494
71208W        W30711  14.247  12.237  14.001
71209W        W30712  44.793   2.408   0.372
71210W        W30713  26.464   9.156  14.459
71211W        W30714  31.604  43.366   4.338
71212W        W30715  17.647  20.574  14.462
71213W        W30716   1.932  14.208   1.863
71214W        W30717  18.249  12.252  13.843
71215W        W30718  35.959  20.560  12.857
71216W        W30719  36.863  43.404   3.817
71217W        W30720  30.480  34.482   0.940
71218W        W30721   4.258  10.271  14.405
71219W        W30722  39.032   3.842   0.435
71220W        W30723  34.968  38.565  10.939
71221W        W30724  14.597  18.230  14.448
71222W        W30725  27.005  10.153   3.237
71223W        W30726  11.165  11.754  10.471
71224W        W30727  30.495  39.814   2.811
71225W        W30728   9.675  21.518   1.907
71226W        W30729   7.862   7.317   0.876
71227W        W30730  12.756  19.726  11.127
71228W        W30731  33.931  14.268  14.866
71229W        W30732   0.474  42.853   3.350
71230W        W30733   3.390  44.466   0.463
71231W        W30734  12.616  21.127  11.960
71232W        W30735  15.113  27.948  13.370
71233W        W30736  25.995  11.657  14.368
71234W        W30737  35.441   6.834  10.993
71235W        W30738  19.679  14.281   2.407
71236W        W30739  42.512  30.551  11.950
71237W        W30740  19.139   3.334   4.808
71238W        W30741  25.705  36.082  13.388
71239W        W30742   1.818  33.960  14.816
71240W        W30743  36.080  29.637  13.037
71241W        W30744  31.956  19.071   1.332
71242W        W30745  42.326   7.300  10.526
71243W        W30746  28.152  38.973  14.287
71244W        W30747  22.168  16.675  13.544
71245W        W30748  14.250  13.284   0.861
71246W        W30749   9.882  29.447   3.806
71247W        W30750  31.128  43.968   3.368
71248W        W30751  13.733  17.237  11.420
71249W        W30752  36.352  23.229  14.452
71250W        W30753  31.424  16.135  14.879
71251W        W30754  36.850  24.496  10.413
71252W        W30755  22.249  30.129   0.327
71253W        W30756  42.352  18.691  11.524
71254W        W30757   8.202  31.521  10.457
71255W        W30758  16.591  27.646   1.796
71256W        W30759  29.437  19.092   1.404
71257W        W30760  37.539  27.964  13.933
71258W        W30761  43.343   1.384  11.611
71259W        W30762   0.440  19.658   3.351
71260W        W30763  25.188  44.346  11.877
71261W        W30764  32.564  23.702  11.898
71262W        W30765  26.642  34.474   3.779
71263W        W30766  26.128  15.602  10.546
71264W        W30767  23.105  19.226  12.410
71265W        W30768   2.281  14.198  12.563
71266W        W30769  10.302  36.363   1.756
71267W        W30770   8.894   1.833   0.866
71268W        W30771  26.174  29.432  13.369
71269W        W30772   8.260   7.683   1.789
71270W        W30773  31.058  41.985  14.279
71271W        W30774  23.504  42.893  14.391
71272W        W30775  10.758   7.844   0.280
71273W        W30776  16.600  23.593  14.445
71274W        W30777  31.494  15.304   1.902
71275W        W30778  10.840   0.918  10.928
71276W        W30779  30.628   1.895  14.979
71277W        W30780  16.265  31.067  13.547
71278W        W30781  27.626   1.935   5.159
71279W        W30782  24.588  16.104  13.977
71280W        W30783  42.013   9.351  12.063
71281W        W30784  28.956  34.887   4.130
71282W        W30785  30.473  17.570  10.913
71283W        W30786  29.993   9.726   3.322
71284W        W30787  33.438  40.887   0.456
71285W        W30788  12.673  36.901   5.262
71286W        W30789  23.230  37.350  14.481
71287W        W30790  30.490   7.808  12.360
71288W        W30791   7.211  24.712   1.806
71289W        W30792  41.793  39.343   1.753
71290W        W30793   2.802   2.286  14.476
71291W        W30794   1.834  17.088  13.450
71292W        W30795   0.332  33.876  13.538
71293W        W30796  36.960  15.658  13.544
71294W        W30797   5.862  37.482   4.758
71295W        W30798  30.988   1.474  14.872
71296W        W30799  10.332   0.750  14.325
71297W        W30800   7.191  33.984   1.253
71298W        W30801  42.907  20.210   5.788
71299W        W30802  22.158  26.981  10.958
71300W        W30803  26.629  19.548   3.304
71301W        W30804  33.064   5.383  10.591
71302W        W30805  27.660  31.404  11.399
71303W        W30806  11.287  16.255   0.751
71304W        W30807  25.638  28.619   4.235
71305W        W30808  31.623   1.367   4.607
71306W        W30809  22.078  42.906  14.357
71307W        W30810  34.565  35.502   0.324
71308W        W30811  22.229   5.702  10.917
71309W        W30812  25.694  22.563   4.823
71310W        W30813   4.718  13.347  13.456
71311W        W30814  37.459  14.251  11.439
71312W        W30815  28.480  34.075   1.419
71313W        W30816  41.960  44.822  14.796
71314W        W30817  23.654  30.160  12.385
71315W        W30818   1.749  34.545  12.925
71316W        W30819  21.663  36.917  10.639
71317W        W30820  43.796  18.785   1.431
71318W        W30821   1.808  25.030  14.910
71319W        W30822   2.374   6.194  14.341
71320W        W30823  28.584  15.087   2.729
71321W        W30824  28.033  23.122   2.205
71322W        W30825  28.649   1.965  13.335
71323W        W30826  13.632   8.343   3.851
71324W        W30827  25.714  40.937   4.308
71325W        W30828  23.169   8.819   1.713
71326W        W30829  21.601  10.798  12.018
71327W        W30830   2.247   2.433  13.046
71328W        W30831  22.119  20.110   4.742
71329W        W30832   9.355  37.890   1.306
71330W        W30833  34.082  35.367   1.332
71331W        W30834  23.605  17.109  14.015
71332W        W30835   5.392  16.668   3.824
71333W        W30836   7.197  29.627   2.708
71334W        W30837  14.131  30.071   3.359
71335W        W30838   4.219  41.795  10.974
71336W        W30839   6.746  27.060   3.278
71337W        W30840  36.954   1.259  13.964
71338W        W30841  18.134  36.029   0.315
71339W        W30842  13.652  32.058  10.957
71340W        W30843  37.911  14.133   4.127
71341W        W30844  37.983  13.301   0.252
71342W        W30845   7.745   5.208   2.828
71343W        W30846  24.099  17.191  10.464
71344W        W30847   0.781  32.078  12.026
71345W        W30848  34.029   6.796   1.872
71346W        W30849  31.984   4.936   0.813
71347W        W30850  20.751  35.014   3.308
71348W        W30851  19.065  37.565   0.966
71349W        W30852  30.532  21.681   0.938
71350W        W30853  20.107  39.315   2.417
71351W        W30854  23.498  24.533  10.939
71352W        W30855  37.031  19.148   0.953
71353W        W30856  38.016  14.749   0.957
71354W        W30857  36.589  14.769  13.322
71355W        W30858  20.112  10.729   1.841
71356W        W30859  20.577  35.582   3.670
71357W        W30860  41.792  18.715   3.226
71358W        W30861   4.299  19.073   2.369
71359W        W30862  40.476   4.234  13.477
71360W        W30863  43.465   3.375   0.880
71361W        W30864   1.271  18.679   4.627
71362W        W30865  36.411  37.065  13.327
71363W        W30866  44.901  33.058  13.413
71364W        W30867  41.398  13.807   3.222
71365W        W30868  28.167  42.510  12.444
71366W        W30869  39.475  28.164   3.847
71367W        W30870  37.050  25.673   4.688
71368W        W30871  31.949  15.129   4.654
71369W        W30872  27.068  13.608  13.879
71370W        W30873  29.170  17.736  12.942
71371W        W30874  33.970   7.781   4.220
71372W        W30875  34.506  41.985  13.492
71373W        W30876   9.750  36.352  11.605
71374W        W30877  43.456   6.689  10.161
71375W        W30878   2.828  14.771  10.434
71376W        W30879   8.702  16.117  14.395
71377W        W30880   2.344  27.643  10.975
71378W        W30881   2.438  31.962  14.793
71379W        W30882   9.670  33.131   1.378
71380W        W30883  21.547  24.195  12.095
71381W        W30884  26.057  29.631   1.250
71382W        W30885   7.761  24.632   0.274
71383W        W30886  41.393  28.150  14.836
71384W        W30887  30.109  28.989  14.955
71385W        W30888   9.202  31.570   3.222
71386W        W30889  29.484  44.353   3.177
71387W        W30890   8.316  25.048   3.194
71388W        W30891   4.766  22.234  11.033
71389W        W30892   6.775  12.251   4.321
71390W        W30893  14.195  19.144   1.874
71391W        W30894  25.690  41.792   2.881
71392W        W30895  44.838   9.752  13.919
71393W        W30896  32.038   6.371   4.726
71394W        W30897  20.067   5.218   0.418
71395W        W30898   9.230  32.976   4.613
71396W        W30899  42.962  44.293  11.032
71397W        W30900   9.152  23.604   2.882
71398W        W30901  35.011  43.815   1.764
71399W        W30902  22.680   4.408  12.953
71400W        W30903  14.251  34.071   1.253
71401W        W30904  40.464  16.722  13.954
71402W        W30905  37.572   2.433   2.798
71403W        W30906  17.147  32.928   4.263
71404W        W30907  33.119  44.848  14.352
71405W        W30908   2.855  16.144   4.307
71406W        W30909  35.062   1.878  10.890
71407W        W30910   3.252  29.077  14.465
71408W        W30911  16.256  24.530   0.918
71409W        W30912  14.316  13.129  11.956
71410W        W30913  42.314   2.962  10.495
71411W        W30914  15.109  40.514   0.373
71412W        W30915  42.515  38.874   4.630
71413W        W30916  43.839  26.057  12.559
71414W        W30917  35.490  32.911  11.090
71415W        W30918   6.905  14.208   5.254
71416W        W30919   1.909  19.063  12.487
71417W        W30920  26.614  24.574   4.663
71418W        W30921   5.913  39.992  11.072
71419W        W30922  37.451  40.347  14.353
71420W        W30923  35.013  22.597   3.815
71421W        W30924  44.786  39.029   4.758
71422W        W30925  21.701   8.354  10.935
71423W        W30926  31.512  11.817   0.289
71424W        W30927   7.342  36.994   4.722
71425W        W30928  19.747  18.053   3.242
71426W        W30929  18.649  42.992   1.229
71427W        W30930  24.494  10.813   1.716
71428W        W30931  38.061  13.624  10.429
71429W        W30932  34.026  15.795  12.947
71430W        W30933   9.653  36.870   2.842
71431W        W30934  21.724  14.710   0.341
71432W        W30935  11.797  21.179   0.899
71433W        W30936  29.133  19.720   4.673
71434W        W30937   2.895   0.799   1.789
71435W        W30938  35.898  30.068   0.918
71436W        W30939  33.444  27.610   3.282
71437W        W30940  33.039  32.511  12.470
71438W        W30941   0.346  37.982   0.760
71439W        W30942  32.495  30.537   1.364
71440W        W30943  30.420  34.930   4.684
71441W        W30944  26.507  31.119  12.095
71442W        W30945  29.437  18.550   0.351
71443W        W30946  25.558  17.568   0.313
71444W        W30947  22.700  38.516  14.347
71445W        W30948  12.292  19.658   2.270
71446W        W30949   7.385  18.215   1.731
71447W        W30950  37.337   1.317  10.993
71448W        W30951  35.062  20.274   2.213
71449W        W30952  42.285  10.714  13.534
71450W        W30953  22.608  15.754  12.971
71451W        W30954  34.070   9.210   3.689
71452W        W30955  34.905  34.441  11.119
71453W        W30956  30.959  21.164   4.226
71454W        W30957  38.486  11.728  14.417
71455W        W30958  34.951   9.699  10.566
71456W        W30959   7.375  20.752  11.984
71457W        W30960   7.706  31.901  11.408
71458W        W30961   8.164  30.432   1.852
71459W        W30962  12.647  41.983  12.357
71460W        W30963  22.023  14.605   1.357
71461W        W30964   7.338  25.111   2.290
71462W        W30965  31.025  29.025   3.243
71463W        W30966   2.790  29.561   5.777
71464W        W30967  37.531   0.766   3.350
71465W        W30968   9.189   6.756  12.554
71466W        W30969  39.837  18.755   3.700
71467W        W30970  42.030  38.857   5.219
71468W        W30971   1.379  15.660   0.738
71469W        W30972  31.969  18.581  11.924
71470W        W30973  37.556  24.599  13.439
71471W        W30974  10.719  41.816   3.178
71472W        W30975   4.249  30.982   2.788
71473W        W30976  18.077  32.985  14.299
71474W        W30977  40.391  39.018  11.397
71475W        W30978  38.917  28.488  10.926
71476W        W30979  36.953  31.509  14.449
71477W        W30980  26.697   4.916   0.425
71478W        W30981  33.993   8.343   1.219
71479W        W30982   8.714  13.123   3.773
71480W        W30983  18.257  14.275   5.223
71481W        W30984   5.338  28.048   4.610
71482W        W30985  28.086  27.041   4.231
71483W        W30986  35.601   8.398  11.532
71484W        W30987  33.418  24.606   3.316
71485W        W30988  42.288   2.252   2.323
71486W        W30989  31.422  12.670  11.865
71487W        W30990  42.009   2.256   2.716
71488W        W30991  44.266  34.892   4.282
71489W        W30992  11.705  32.064  13.798
71490W        W30993   4.245   9.328  13.022
71491W        W30994  39.386  35.555   4.181
71492W        W30995   6.820  39.455   4.818
71493W        W30996   2.904  24.698   4.236
71494W        W30997  21.751  38.351   1.451
71495W        W30998  17.566  37.989   1.446
71496W        W30999   9.821  28.552   4.120
71497W        W31000  37.555  20.703  11.019
71498W        W31001  31.926  39.911  13.931
71499W        W31002  24.221  44.881   9.933
71500W        W31003   6.344  40.391  12.891
71501W        W31004  29.502  22.109  12.344
71502W        W31005  38.566   1.752   3.386
71503W        W31006  10.810  29.986   4.308
71504W        W31007  38.897  28.954  12.069
71505W        W31008  13.821   0.486   2.290
71506W        W31009  18.051  30.015  10.608
71507W        W31010  40.004  24.061  12.542
71508W        W31011  43.779  11.151   0.396
71509W        W31012  15.589  21.652  10.430
71510W        W31013  15.258  27.575   3.378
71511W        W31014  21.666  40.540   1.745
71512W        W31015  43.483  15.245   2.893
71513W        W31016  24.011   3.329   0.377
71514W        W31017   4.752   2.761  12.540
71515W        W31018  36.498  23.655  14.002
71516W        W31019  13.223  22.072   2.243
71517W        W31020  20.721  33.610   4.663
71518W        W31021   9.188  38.023   1.891
71519W        W31022  17.246  24.533   4.788
71520W        W31023  13.842   1.278  10.894
71521W        W31024  10.646   8.833  14.508
71522W        W31025  27.070   8.708   0.777
71523W        W31026  34.518  21.142   3.233
71524W        W31027   3.777  42.501   3.251
71525W        W31028  18.677  21.522   2.769
71526W        W31029  21.140  26.951   4.131
71527W        W31030  19.699   9.312   4.705
71528W        W31031  27.659  15.165   0.816
71529W        W31032  27.653  23.086   4.253
71530W        W31033  17.635   7.326   1.800
71531W        W31034  33.933  15.760  10.468
71532W        W31035  10.874  37.574   1.416
71533W        W31036  36.881   4.250  11.938
71534W        W31037  33.414  33.614   3.688
71535W        W31038  25.968  30.552   0.732
71536W        W31039   3.455  41.527  10.924
71537W        W31040  31.978  30.558   1.892
71538W        W31041  25.589  25.695  14.867
71539W        W31042  24.032  30.119  13.403
71540W        W31043  14.739  28.612  10.579
71541W        W31044   0.470  37.348   4.738
71542W        W31045  22.064  34.973  11.014
71543W        W31046  26.698  23.045  11.415
71544W        W31047  31.905  23.524   2.896
71545W        W31048  43.324  32.041  11.859
71546W        W31049  36.498  26.551  12.922
71547W        W31050  39.053  42.976  11.414
71548W        W31051  38.557  11.641   2.410
71549W        W31052  35.575   4.705   0.248
71550W        W31053  38.444  18.240   1.403
71551W        W31054  21.635  17.785   4.219
71552W        W31055  15.118  38.946   1.244
71553W        W31056  10.227  40.463   4.603
71554W        W31057   3.229  15.744  10.579
71555W        W31058  37.936  25.662   1.712
71556W        W31059  17.119  14.648  13.382
71557W        W31060   8.258  18.182   2.193
71558W        W31061  29.448  38.026  11.934
71559W        W31062  13.661  38.506   4.674
71560W        W31063  23.720  24.229  11.480
71561W        W31064   6.214  32.051  12.942
71562W        W31065  23.638   5.228   2.249
71563W        W31066  40.964  20.259   2.742
71564W        W31067  30.461   0.783   3.810
71565W        W31068  43.407  16.636   4.778
71566W        W31069  10.152  25.474   0.468
71567W        W31070   9.652  19.763  12.410
71568W        W31071  12.634  39.552  12.066
71569W        W31072  12.715  37.062   2.897
71570W        W31073   4.252  26.022  13.542
71571W        W31074   1.434  31.002   2.856
71572W        W31075  13.279  23.167   1.356
71573W        W31076   7.821  28.156   0.350
71574W        W31077  27.516  34.038  11.052
71575W        W31078  24.616  36.377  13.547
71576W        W31079  40.975   8.679  14.468
71577W        W31080  39.458  31.091   3.703
71578W        W31081   4.386   2.731   3.800
71579W        W31082  35.896  23.145  11.552
71580W        W31083   3.764  25.198  14.820
71581W        W31084   1.900  16.073  13.528
71582W        W31085   4.845  18.131   0.445
71583W        W31086  15.691   8.833   0.255
71584W        W31087  30.604  40.981  13.493
71585W        W31088   2.358  27.539   1.844
71586W        W31089  29.576   2.296   4.747
71587W        W31090   9.672  43.797  13.819
71588W        W31091  20.053  36.916  13.062
71589W        W31092  38.439  44.802  14.373
71590W        W31093   0.747  28.534   2.735
71591W        W31094   0.753   0.309  12.029
71592W        W31095  33.906  35.020   9.965
71593W        W31096  20.087  15.804  12.886
71594W        W31097  35.062  31.467  10.471
71595W        W31098  21.529  12.736  14.385
71596W        W31099  33.514  21.642   5.122
71597W        W31100   8.865   2.264  13.900
71598W        W31101  14.192  31.076  12.833
71599W        W31102  25.567  10.866   2.179
71600W        W31103   3.736  36.055   1.877
71601W        W31104  16.705  40.548   0.923
71602W        W31105   7.726   4.304   2.773
71603W        W31106  15.794  39.873  12.013
71604W        W31107  13.678   5.890   2.376
71605W        W31108  38.921  41.312   1.881
71606W        W31109  25.674   1.831  12.359
71607W        W31110  35.557  35.437  12.571
71608W        W31111  19.121   5.709  14.500
71609W        W31112  37.393  26.626  13.483
71610W        W31113  44.272   6.690  12.405
71611W        W31114  21.673  33.085   4.831
71612W        W31115  34.381   2.260  11.449
71613W        W31116  39.495  27.077   4.147
71614W        W31117  30.530   0.296  10.463
71615W        W31118  10.368  23.690   2.888
71616W        W31119  14.646  36.966  14.325
71617W        W31120   4.285  42.480   1.221
71618W        W31121  12.279  19.265  11.009
71619W        W31122  39.473  39.997   1.424
71620W        W31123  37.464  24.566  13.905
71621W        W31124  10.241  41.346   0.464
71622W        W31125  43.837  37.430  11.395
71623W        W31126  25.668  36.388  12.879
71624W        W31127  38.492  16.784  13.354
71625W        W31128  23.060  11.296   3.333
71626W        W31129   0.834  24.600  10.579
71627W        W31130  18.113  41.940  12.930
71628W        W31131  40.029  43.929  13.995
71629W        W31132  37.924  27.597   4.715
71630W        W31133  20.055  10.329   2.190
71631W        W31134  31.564  44.985   4.781
71632W        W31135  10.758  32.601   0.775
71633W        W31136  14.821  27.149   2.296
71634W        W31137  16.239   5.412   3.386
71635W        W31138  44.777   8.688  10.589
71636W        W31139   8.716  30.908  12.519
71637W        W31140  42.863  31.586  13.525
71638W        W31141  37.402   3.940  12.443
71639W        W31142  11.658  10.703  12.510
71640W        W31143  16.780  33.983   3.244
71641W        W31144  44.303  29.999  12.396
71642W        W31145  38.858  42.888   2.330
71643W        W31146  17.711  10.698  13.468
71644W        W31147  33.937  26.538  10.930
71645W        W31148   1.965  41.871   3.271
71646W        W31149  28.110   8.226  13.422
71647W        W31150  21.196  42.957  11.098
71648W        W31151  43.782   1.420   0.762
71649W        W31152  34.559   3.360  14.862
71650W        W31153   1.274  42.977  14.762
71651W        W31154  13.804  35.031   3.796
71652W        W31155  16.301  35.369  13.800
71653W        W31156   6.205  12.623  10.097
71654W        W31157  21.223  33.510   0.736
71655W        W31158  44.870  17.133  10.035
71656W        W31159  11.778  43.446   2.707
71657W        W31160   5.735  42.410   3.727
71658W        W31161   5.688  24.147  12.020
71659W        W31162  25.654  42.285   4.238
71660W        W31163   1.847   5.317   2.234
71661W        W31164  21.122  42.802   2.885
71662W        W31165   2.875   8.682   4.746
71663W        W31166  11.132  38.050  13.943
71664W        W31167  34.029  33.974   2.289
71665W        W31168  42.325  40.380  12.458
71666W        W31169   4.855  26.207  14.457
71667W        W31170  16.753  18.091  13.435
71668W        W31171   3.370  16.590  12.364
71669W        W31172  40.925  33.912   3.351
71670W        W31173  31.090  35.502  11.867
71671W        W31174   8.375  30.928  14.402
71672W        W31175   8.865  17.649  13.313
71673W        W31176  27.185  13.127  12.540
71674W        W31177  17.158  39.469  11.537
71675W        W31178  11.782  24.202   0.421
71676W        W31179  23.691   0.357   4.154
71677W        W31180   4.824  22.560   3.638
71678W        W31181   9.664  32.099  12.531
71679W        W31182  18.246  15.584  12.029
71680W        W31183   3.830  19.244   0.825
71681W        W31184  38.875  38.930   4.604
71682W        W31185  15.215   3.246  11.053
71683W        W31186  32.064   0.928   0.348
71684W        W31187  26.699   0.481  11.885
71685W        W31188   1.880  39.384   4.787
71686W        W31189   0.313  42.971   0.743
71687W        W31190  13.694  28.051   1.695
71688W        W31191   2.765   1.293   1.740
71689W        W31192  10.213  16.152  14.867
71690W        W31193  25.082  42.314  14.478
71691W        W31194  21.739  31.625   3.693
71692W        W31195  30.911   9.693   0.406
71693W        W31196  34.467  18.653  12.482
71694W        W31197  33.924  10.695  14.882
71695W        W31198  36.381  30.440   3.287
71696W        W31199  19.639  22.625   3.718
71697W        W31200  13.285   5.710   1.282
71698W        W31201   3.720  12.756  13.832
71699W        W31202  22.233  36.038  14.999
71700W        W31203   7.335   1.873   2.216
71701W        W31204  11.149  20.525  12.986
71702W        W31205  28.472   3.376  10.924
71703W        W31206   0.494  30.993   0.435
71704W        W31207   4.372  32.499   2.228
71705W        W31208   6.357  22.508  12.932
71706W        W31209  23.120   9.802  14.446
71707W        W31210   4.734   4.787   5.135
71708W        W31211  42.414   6.211   1.708
71709W        W31212  31.013  18.159  12.981
71710W        W31213   5.696  30.418   4.639
71711W        W31214  33.074   3.340  10.427
71712W        W31215  28.456  33.114   4.341
71713W        W31216   1.962  38.916   3.297
71714W        W31217   6.295  24.207   1.772
71715W        W31218   5.711  25.114  11.468
71716W        W31219   8.778  23.997   0.271
71717W        W31220  27.092  37.015  10.403
71718W        W31221  34.027  10.637   0.442
71719W        W31222  39.360  33.429  11.062
71720W        W31223  20.656  15.743  14.817
71721W        W31224  14.265  36.069  11.403
71722W        W31225  26.657  36.055  10.909
71723W        W31226   6.200   6.306   2.312
71724W        W31227  21.253  42.789  14.280
71725W        W31228  18.241  16.201   2.338
71726W        W31229  24.055  25.152  13.845
71727W        W31230  27.174   3.237   0.740
71728W        W31231  39.545  23.090   0.792
71729W        W31232  24.005   0.400  13.008
71730W        W31233   7.255   4.358   0.871
71731W        W31234   7.870  25.496   3.260
71732W        W31235  42.474  25.159   2.250
71733W        W31236  43.934  36.904  13.833
71734W        W31237  43.810  24.719  14.918
71735W        W31238  28.963  18.165  11.446
71736W        W31239  19.057   5.422   2.790
71737W        W31240  12.847  15.659   3.284
71738W        W31241  39.555  40.402   4.283
71739W        W31242  19.098  21.251   0.809
71740W        W31243  32.974   2.404  11.526
71741W        W31244  28.155  37.906  10.919
71742W        W31245  20.267  30.576   0.461
71743W        W31246  33.989   7.852  10.469
71744W        W31247  27.574  35.966  13.978
71745W        W31248  12.154  18.180   2.752
71746W        W31249  14.157   5.259  12.954
71747W        W31250  37.378  13.711  13.063
71748W        W31251  38.957  40.054  13.346
71749W        W31252  41.321  32.898  14.007
71750W        W31253  30.976  16.780   4.271
71751W        W31254   5.256  38.064  11.473
71752W        W31255  30.996  39.377   9.567
71753W        W31256  32.578  16.270   9.629
71754W        W31257  17.655  12.773   0.298
71755W        W31258  11.250  17.571  13.817
71756W        W31259  18.623  40.342  14.312
71757W        W31260  33.557  26.179  14.503
71758W        W31261  15.692   6.184   5.249
71759W        W31262  27.562  21.179   3.728
71760W        W31263  15.315  38.974   0.889
71761W        W31264  17.085  28.083   3.311
71762W        W31265  24.029  42.421   1.380
71763W        W31266  31.136  33.473   2.281
71764W        W31267  31.094  21.749  14.789
71765W        W31268  39.426  44.842   3.714
71766W        W31269  34.045  13.819   4.722
71767W        W31270  43.862  37.958   3.230
71768W        W31271  31.434  22.220   1.318
71769W        W31272  30.518  25.575   1.289
71770W        W31273   3.296  21.703  11.468
71771W        W31274   0.759  20.598  10.044
71772W        W31275  26.081  12.169   4.786
71773W        W31276   5.740  15.745   2.305
71774W        W31277  35.965  24.722   1.261
71775W        W31278  20.592   1.378  12.348
71776W        W31279  15.760  24.062  14.017
71777W        W31280  34.467  40.861  11.918
71778W        W31281  31.015  29.924   3.772
71779W        W31282  42.379   7.389  13.924
71780W        W31283  14.302  29.066  13.392
71781W        W31284  17.066   6.915   4.266
71782W        W31285  32.936  23.556  13.802
71783W        W31286  44.483  36.524   1.757
71784W        W31287   4.777  42.923  12.936
71785W        W31288  13.256  11.367  11.916
71786W        W31289  40.412  26.657  10.632
71787W        W31290  11.783  36.057   0.407
71788W        W31291  13.744  37.502  14.320
71789W        W31292  38.558  10.780   1.831
71790W        W31293  31.096  24.701   1.860
71791W        W31294   6.818  44.010  14.922
71792W        W31295  39.850  36.031   4.236
71793W        W31296  32.033  18.747  12.343
71794W        W31297  11.198  25.649  14.291
71795W        W31298  42.327  17.284  11.124
71796W        W31299  22.683  29.564   1.394
71797W        W31300  20.223  33.623  14.817
71798W        W31301  23.520   3.877   4.323
71799W        W31302  33.427  30.608  14.938
71800W        W31303  19.189  39.901  12.466
71801W        W31304  27.075  23.198  14.014
71802W        W31305  27.127   2.363  13.862
71803W        W31306   6.679   0.849  10.930
71804W        W31307   6.691  25.617   1.445
71805W        W31308  27.058  23.127   3.292
71806W        W31309   3.327   3.459   2.698
71807W        W31310  26.147   0.766  11.553
71808W        W31311   2.233   2.267  10.543
71809W        W31312  17.595   8.795  14.824
71810W        W31313  39.477  25.490   0.247
71811W        W31314  19.657  19.746   2.304
71812W        W31315  19.752  31.922   4.689
71813W        W31316  21.707  14.737   3.725
71814W        W31317  44.854  39.350  11.401
71815W        W31318  37.542   4.241  12.038
71816W        W31319  14.247  22.186  13.058
71817W        W31320   6.363  11.744  13.431
71818W        W31321   8.241  38.523  11.404
71819W        W31322   5.277   2.276  12.074
71820W        W31323  39.350  15.704  13.882
71821W        W31324  29.958  28.618  11.129
71822W        W31325  18.066  39.375  13.325
71823W        W31326  37.573   7.759   1.322
71824W        W31327  31.950  13.246   1.783
71825W        W31328  41.469  25.079   4.157
71826W        W31329   3.311  41.855  13.357
71827W        W31330   8.225  26.653  14.987
71828W        W31331  14.292  28.607   0.272
71829W        W31332   1.733  29.031   4.724
71830W        W31333  33.618  10.679  13.391
71831W        W31334  11.292  26.955  14.338
71832W        W31335   6.872   1.371  14.388
71833W        W31336  38.347  23.726  13.428
71834W        W31337  43.511   0.771   0.827
71835W        W31338  19.700   7.900   1.697
71836W        W31339  16.709  41.443  10.453
71837W        W31340  22.542  14.811  11.443
71838W        W31341  21.726   7.416  13.500
71839W        W31342  15.628  44.354  12.512
71840W        W31343  15.690  15.310   2.794
71841W        W31344   2.456  29.566   2.249
71842W        W31345  27.471  25.598  11.534
71843W        W31346  34.589   0.273  11.500
71844W        W31347  31.952  33.927   3.345
71845W        W31348   5.890  41.310  12.049
71846W        W31349  10.382  25.990   0.482
71847W        W31350  30.509  34.899   9.924
71848W        W31351  35.502  30.148  14.786
71849W        W31352  15.771  35.075   0.856
71850W        W31353  30.492   4.253  13.042
71851W        W31354  19.674   0.395  10.106
71852W        W31355  40.520  12.192   4.244
71853W        W31356   3.257   4.398  12.011
71854W        W31357  29.468   3.798  10.592
71855W        W31358   4.276  33.399  11.421
71856W        W31359   5.846  30.010  13.406
71857W        W31360  18.110  44.847  14.467
71858W        W31361  42.802  13.660  10.587
71859W        W31362  29.022  39.512   1.774
71860W        W31363  24.545   9.192  10.465
71861W        W31364  40.819   8.347   3.782
71862W        W31365  44.822  30.967   2.809
71863W        W31366  18.688   3.384   4.807
71864W        W31367  40.995   5.802   3.193
71865W        W31368  29.102  40.470   2.828
71866W        W31369  39.814  31.957   4.764
71867W        W31370  35.062  32.007   2.886
71868W        W31371  14.600   6.918   0.884
71869W        W31372  21.148  39.389  11.063
71870W        W31373  22.726   6.826  12.347
71871W        W31374  43.318  39.889  14.880
71872W        W31375  22.998  11.176  13.038
71873W        W31376   9.346  37.528  13.859
71874W        W31377  16.591  41.399  13.983
71875W        W31378  27.036   4.251  13.962
71876W        W31379  31.553   7.250  13.339
71877W        W31380  25.583  41.417   2.192
71878W        W31381  42.382  44.912  12.944
71879W        W31382  26.654  35.415  11.868
71880W        W31383  24.012   1.240  11.921
71881W        W31384  35.941  36.545  14.410
71882W        W31385  10.199  43.995  11.896
71883W        W31386  42.400   2.746  14.820
71884W        W31387  43.302  15.780   0.845
71885W        W31388  36.861  44.890  13.316
71886W        W31389  41.975   0.780   1.305
71887W        W31390  39.890  44.422   1.914
71888W        W31391  38.000  33.430   3.776
71889W        W31392  33.036  27.543   5.183
71890W        W31393  33.986  40.998   2.410
71891W        W31394  43.463   6.193   9.960
71892W        W31395  16.728  40.423   2.229
71893W        W31396  30.463  23.065   4.317
71894W        W31397   0.884   1.978  13.357
71895W        W31398  20.224  26.135  12.853
71896W        W31399  23.662  25.156  12.913
71897W        W31400  19.074  11.780  13.335
71898W        W31401   6.370  39.022   2.218
71899W        W31402  40.808  25.035   2.832
71900W        W31403  43.283  28.998   3.712
71901W        W31404  38.820  38.049   1.880
71902W        W31405   8.713  14.141   0.308
71903W        W31406  17.600  23.682   3.801
71904W        W31407  35.052   5.296  13.436
71905W        W31408  28.468  33.052  13.466
71906W        W31409  43.966  25.973   3.702
71907W        W31410  24.141  25.653  11.508
71908W        W31411   2.353  32.085  10.611
71909W        W31412  24.615   1.769   2.180
71910W        W31413  42.423  43.988  13.872
71911W        W31414  10.144   1.444  12.538
71912W        W31415  41.424  14.700   4.192
71913W        W31416  36.896   3.388   5.100
71914W        W31417  37.449  39.967  12.834
71915W        W31418  26.637   0.915  10.896
71916W        W31419   8.295   6.715   0.932
71917W        W31420  44.468  19.735   3.771
71918W        W31421  41.486  27.581  11.556
71919W        W31422  11.222  42.380   1.817
71920W        W31423  16.734   5.290  12.977
71921W        W31424  22.531  42.461   4.183
71922W        W31425   2.903  40.805   2.895
71923W        W31426  25.710  23.652   4.672
71924W        W31427  26.199  19.579  10.975
71925W        W31428  16.314  35.515   3.812
71926W        W31429  10.155  11.843   4.120
71927W        W31430  40.858  11.761  11.503
71928W        W31431  24.581   4.291   1.294
71929W        W31432   0.288  23.138   5.283
71930W        W31433  19.583   1.850  14.315
71931W        W31434  40.333  26.525   9.945
71932W        W31435  12.852  38.407  11.482
71933W        W31436  13.293  25.562   0.739
71934W        W31437  32.106  38.901  13.986
71935W        W31438  42.919  28.126   1.900
71936W        W31439   7.823   3.919   4.601
71937W        W31440  21.200   3.288   1.908
71938W        W31441  24.707  34.014   3.852
71939W        W31442   9.728   5.368   0.953
71940W        W31443  33.390  15.091  13.417
71941W        W31444  36.551  29.467  14.902
71942W        W31445   8.873  25.471  14.390
71943W        W31446  15.726   7.328   3.193
71944W        W31447  34.601  34.915   4.307
71945W        W31448   2.238  37.888   1.714
71946W        W31449  28.484   2.927  12.368
71947W        W31450  23.631   7.865  10.437
71948W        W31451   2.728  16.075   2.309
71949W        W31452  23.193  30.498  14.790
71950W        W31453  35.363   0.947  12.959
71951W        W31454   3.817  17.635   0.887
71952W        W31455  15.128  38.955   2.843
71953W        W31456  36.918  16.704  10.503
71954W        W31457  39.432  44.294   0.261
71955W        W31458  20.270  40.866   3.332
71956W        W31459  44.993  10.777   0.805
71957W        W31460  37.453   6.225  12.412
71958W        W31461  37.023  20.644   1.779
71959W        W31462  32.047  31.109   3.303
71960W        W31463  12.321  42.002  13.508
71961W        W31464  36.524  24.984   4.294
71962W        W31465  34.559   8.275  12.881
71963W        W31466   7.174  28.034  10.424
71964W        W31467  26.663  21.628   4.277
71965W        W31468  40.983  37.472   4.298
71966W        W31469  18.278   2.432   0.372
71967W        W31470  35.472  17.694   3.677
71968W        W31471  25.176  27.999  13.401
71969W        W31472  29.034   7.877  11.931
71970W        W31473  24.158  27.469  11.480
71971W        W31474  30.577  31.609   3.632
71972W        W31475  39.878   5.780   1.250
71973W        W31476  34.881  33.919   2.869
71974W        W31477  38.363  13.337   1.359
71975W        W31478  34.482  32.023   1.389
71976W        W31479  39.373  37.396  13.507
71977W        W31480  26.502  23.015   0.842
71978W        W31481  26.085  26.173  11.554
71979W        W31482  35.438  44.843   4.125
71980W        W31483  24.534  30.137  14.997
71981W        W31484  14.143  25.060  12.930
71982W        W31485  23.676   1.345  12.339
71983W        W31486  13.766  34.952   1.696
71984W        W31487   1.253   5.730   2.826
71985W        W31488  34.556  32.408  13.518
71986W        W31489  42.023   7.740  10.982
71987W        W31490  42.375  39.833   2.705
71988W        W31491  10.313  11.813  13.898
71989W        W31492  21.685   1.855   3.299
71990W        W31493  12.623  22.119   4.608
71991W        W31494  10.838  29.637   3.685
71992W        W31495   9.248  14.249   1.841
71993W        W31496  27.088  26.158  11.384
71994W        W31497  26.980   6.337  14.303
71995W        W31498  29.513   1.244  11.503
71996W        W31499  11.634  38.837   1.433
71997W        W31500  43.801  17.594   4.238
71998W        W31501  19.590  38.362  12.948
71999W        W31502  43.789  14.745  14.422
72000W        W31503  33.443  17.194   0.937
72001W        W31504  21.226  34.918  10.965
72002W        W31505   7.675  21.136   3.303
72003W        W31506  26.604  29.085   1.887
72004W        W31507  12.123  11.844  10.891
72005W        W31508  12.756   5.833  14.972
72006W        W31509  17.639   8.866  12.558
72007W        W31510  19.546   9.304   4.286
72008W        W31511   6.810   7.356  11.542
72009W        W31512  33.997   1.458   3.208
72010W        W31513  24.654   8.230   1.751
72011W        W31514  43.001  21.568  14.839
72012W        W31515  44.291   6.413  11.440
72013W        W31516  41.365  12.305  14.406
72014W        W31517  32.940  42.487   4.673
72015W        W31518  21.756  25.657   4.614
72016W        W31519  25.500  38.930  10.405
72017W        W31520   1.360  42.332  13.546
72018W        W31521  39.517   7.354   4.261
72019W        W31522  27.111  41.405  11.612
72020W        W31523   8.677  41.973   4.254
72021W        W31524  36.018  29.567   2.252
72022W        W31525  37.046  24.030   4.169
72023W        W31526  39.449   7.258  14.336
72024W        W31527  20.177   4.790  10.028
72025W        W31528  44.775  36.088  11.563
72026W        W31529   2.823   2.383   1.880
72027W        W31530   5.865  35.905  12.044
72028W        W31531  16.715  23.577  10.951
72029W        W31532  15.171  13.308  12.056
72030W        W31533  31.558  32.498  12.450
72031W        W31534  44.933  17.729   2.366
72032W        W31535   9.231  32.972   3.178
72033W        W31536  41.925  14.593  12.458
72034W        W31537   2.309  18.688   4.329
72035W        W31538  33.036  29.143   2.806
72036W        W31539  34.411  12.119  11.872
72037W        W31540   7.255  22.599   3.147
72038W        W31541  15.166  42.805  14.993
72039W        W31542  37.540  36.064   0.412
72040W        W31543  27.579  18.789  14.937
72041W        W31544  41.790  24.594  14.450
72042W        W31545  35.482  23.497   3.657
72043W        W31546  30.941  39.385  11.027
72044W        W31547  44.300  20.254  10.624
72045W        W31548  44.846   2.272   1.704
72046W        W31549  11.224  38.398  12.527
72047W        W31550  21.655  35.372   2.807
72048W        W31551  20.117  33.104  14.025
72049W        W31552  19.533  24.072   0.772
72050W        W31553  12.785  36.956  11.857
72051W        W31554  24.981   8.742   5.192
72052W        W31555  33.130  26.116   3.809
72053W        W31556  11.724  25.548  11.452
72054W        W31557   6.371  12.317   1.232
72055W        W31558   4.400  27.478  11.895
72056W        W31559  41.898  23.549  12.366
72057W        W31560  10.764  27.169   2.787
72058W        W31561  13.311   0.283  10.005
72059W        W31562  27.531  23.519  12.458
72060W        W31563  41.857  36.375   0.934
72061W        W31564  40.367  26.083  14.921
72062W        W31565   5.350   1.917  11.063
72063W        W31566  38.464  15.700   1.373
72064W        W31567  32.086  36.994  12.091
72065W        W31568  17.172  40.543  12.890
72066W        W31569  43.833  37.512  12.008
72067W        W31570  17.658  37.413  11.122
72068W        W31571  43.484  39.504   2.771
72069W        W31572   2.360  17.153  13.870
72070W        W31573  38.990  29.012   5.219
72071W        W31574  19.142   1.765   4.209
72072W        W31575  32.047  39.851   2.757
72073W        W31576  11.634  19.183   4.691
72074W        W31577  26.963  21.137  11.907
72075W        W31578  36.523  43.283   2.667
72076W        W31579  20.168  11.702  12.037
72077W        W31580  21.143  25.571  14.921
72078W        W31581   0.941   2.433   2.881
72079W        W31582   9.788   9.851  11.382
72080W        W31583   9.653  11.835   0.319
72081W        W31584  31.624  44.927  13.952
72082W        W31585  14.265  24.615   4.739
72083W        W31586  32.981   2.258   3.864
72084W        W31587  33.425  40.018  14.821
72085W        W31588  18.119  12.234  13.475
72086W        W31589   3.928  32.914  12.539
72087W        W31590  34.059  20.100  10.587
72088W        W31591  15.103  22.054  14.410
72089W        W31592   9.159  28.118  13.535
72090W        W31593   3.277  35.558   4.838
72091W        W31594  16.671  30.607  11.602
72092W        W31595  20.675  36.028   4.320
72093W        W31596  10.227  19.059   2.342
72094W        W31597   8.655  44.273   1.322
72095W        W31598  36.072  24.055  14.825
72096W        W31599   0.863  16.091   9.993
72097W        W31600  21.563   6.219  13.869
72098W        W31601  42.381  24.105  14.011
72099W        W31602  18.060  38.915  11.937
72100W        W31603  38.009  39.915  13.064
72101W        W31604  23.081   8.771  10.430
72102W        W31605  18.782  13.307  14.997
72103W        W31606  38.029  20.039   3.291
72104W        W31607  24.661  21.731  12.523
72105W        W31608  34.939  17.221   5.165
72106W        W31609  28.984  19.121   1.796
72107W        W31610   4.426  37.394  13.480
72108W        W31611  10.257  19.113  11.550
72109W        W31612   9.683  30.522   4.645
72110W        W31613  35.532   5.872  12.008
72111W        W31614  23.146  18.064  14.365
72112W        W31615  15.769  12.637  12.891
72113W        W31616   1.252  16.641   1.708
72114W        W31617  44.361   3.953  14.469
72115W        W31618  44.893  31.943  13.791
72116W        W31619  14.697  15.274  14.444
72117W        W31620  36.450  20.580   2.290
72118W        W31621  22.600  16.810   1.782
72119W        W31622  27.083  36.016  10.494
72120W        W31623  40.865  30.547  14.004
72121W        W31624  24.228  30.925   0.761
72122W        W31625  42.976  26.610  13.850
72123W        W31626   6.797  39.482   2.274
72124W        W31627  38.939  21.254   4.818
72125W        W31628  35.977  27.535  12.880
72126W        W31629  32.491  16.212   2.212
72127W        W31630  44.404  14.289   2.685
72128W        W31631  26.623   3.301   4.628
72129W        W31632   7.351  26.566  11.959
72130W        W31633  43.822  22.998  10.600
72131W        W31634  24.078  23.647  14.450
72132W        W31635   8.357  41.411  12.425
72133W        W31636   5.831   7.311   0.475
72134W        W31637  40.982  13.178  14.318
72135W        W31638  15.623  39.327  14.459
72136W        W31639  42.936  17.656   2.733
72137W        W31640  22.145  18.076   4.239
72138W        W31641  17.584  27.539  13.871
72139W        W31642  36.979  31.506   1.761
72140W        W31643  38.856   4.752  14.508
72141W        W31644   2.301  22.080  10.513
72142W        W31645  16.685   2.841   4.259
72143W        W31646  24.153  44.953  11.517
72144W        W31647  39.316  24.062  13.841
72145W        W31648  43.504  42.400   4.669
72146W        W31649  32.544  23.109  14.391
72147W        W31650  14.635  42.450   1.776
72148W        W31651   0.440  16.757   0.873
72149W        W31652  36.425  16.617  11.882
72150W        W31653  31.964  26.088  12.911
72151W        W31654  39.339  36.066  12.509
72152W        W31655  34.962  30.548   3.724
72153W        W31656  26.598  43.293   5.288
72154W        W31657  36.544  32.131   2.883
72155W        W31658   4.732  40.361   3.838
72156W        W31659   5.927  27.649   3.339
72157W        W31660   1.862  24.694   0.333
72158W        W31661  36.036  34.519   0.308
72159W        W31662   7.318  10.334   3.817
72160W        W31663  32.946  15.101   2.217
72161W        W31664  39.939  18.169  11.893
72162W        W31665  36.388  41.036  12.089
72163W        W31666   8.899   9.178   3.791
72164W        W31667  30.952  13.726  11.513
72165W        W31668  33.971  31.534  11.473
72166W        W31669  29.536   6.371   5.208
72167W        W31670  13.329   2.359   3.813
72168W        W31671   9.315   5.733  12.078
72169W        W31672  25.507  43.863   1.886
72170W        W31673   2.959  35.106   1.729
72171W        W31674  33.974  32.061   4.715
72172W        W31675  12.819  17.280  13.321
72173W        W31676  38.414  32.960  12.485
72174W        W31677  44.769  40.306   1.797
72175W        W31678  31.911  28.525   2.739
72176W        W31679  44.780  42.376   4.275
72177W        W31680  35.536  25.173   2.763
72178W        W31681  42.958  31.529  14.879
72179W        W31682  11.716  10.724  10.527
72180W        W31683  18.268  20.602  14.481
72181W        W31684  22.731  32.022  11.571
72182W        W31685  16.587  13.755   1.364
72183W        W31686  12.232  10.219   4.352
72184W        W31687  30.426  38.562   2.314
72185W        W31688   1.744   0.377  11.401
72186W        W31689  38.958  23.049   0.440
72187W        W31690  31.122  20.608  11.431
72188W        W31691   7.406  18.547   4.210
72189W        W31692  17.214   4.797  12.349
72190W        W31693   1.776  39.457  12.055
72191W        W31694  25.644  14.215   4.622
72192W        W31695  20.613  43.395   0.303
72193W        W31696  30.607  31.950  12.527
72194W        W31697  14.694  37.404  10.640
72195W        W31698  39.316  32.512   3.341
72196W        W31699  28.121   6.280  14.846
72197W        W31700  15.581  23.555   9.985
72198W        W31701  40.902  32.048   2.190
72199W        W31702  29.578  30.464  11.485
72200W        W31703  29.458  11.190  13.348
72201W        W31704  43.808  39.866  12.095
72202W        W31705  21.238  19.609   3.738
72203W        W31706  25.671  36.954   3.759
72204W        W31707  36.460  42.423   3.246
72205W        W31708  21.537  33.616  13.931
72206W        W31709  28.459  31.106   4.790
72207W        W31710  24.193  43.347   5.180
72208W        W31711  43.889  38.976  12.085
72209W        W31712  29.059  32.433   2.419
72210W        W31713   5.927  41.470   4.687
72211W        W31714  37.433  16.193  10.618
72212W        W31715   9.816   9.241   2.720
72213W        W31716  20.273  33.534  10.448
72214W        W31717   8.241   1.483  14.894
72215W        W31718  42.927  41.031  14.331
72216W        W31719  25.000  41.962  14.496
72217W        W31720   1.818  18.617  10.637
72218W        W31721  17.116  40.363   1.440
72219W        W31722   6.813  27.037  10.946
72220W        W31723  12.666  29.063   1.232
72221W        W31724   8.883  35.424   3.821
72222W        W31725  20.625  41.884   0.309
72223W        W31726  28.555  43.447   0.297
72224W        W31727  18.099  28.100   2.747
72225W        W31728  15.210  14.247  12.422
72226W        W31729  42.779  24.979   1.419
72227W        W31730   9.351   6.205   2.251
72228W        W31731   0.829  39.328  14.415
72229W        W31732  29.616  28.634  11.921
72230W        W31733  41.021  20.108  12.518
72231W        W31734  18.125  44.270   3.846
72232W        W31735   2.365   2.797   1.733
72233W        W31736  27.642  28.486   3.166
72234W        W31737  33.394  27.156   0.758
72235W        W31738  29.449  13.222  11.403
72236W        W31739  22.629  12.188   1.330
72237W        W31740  12.611  17.757  14.324
72238W        W31741  23.598  28.548  11.501
72239W        W31742  23.222   3.828  11.929
72240W        W31743  38.481  36.891   4.647
72241W        W31744   9.650  44.781   4.762
72242W        W31745   3.782   5.256  14.761
72243W        W31746   2.251   8.260  10.966
72244W        W31747   0.899   7.366  13.057
72245W        W31748   9.827   2.754   4.830
72246W        W31749  18.075  34.401   0.744
72247W        W31750  21.235  27.537  12.026
72248W        W31751  38.463  15.780   0.954
72249W        W31752  26.964  15.615  12.578
72250W        W31753   9.295  19.680  10.583
72251W        W31754  10.197  25.119  10.590
72252W        W31755  33.394  32.480  10.505
72253W        W31756  11.794  23.700   1.875
72254W        W31757  41.806  17.700   2.231
72255W        W31758  16.236  13.178   2.347
72256W        W31759  37.459  17.721   0.754
72257W        W31760   1.319  16.103  12.404
72258W        W31761  44.943  37.355   3.313
72259W        W31762   2.291   7.183  10.023
72260W        W31763  13.714  43.325  11.011
72261W        W31764  19.586  18.753  11.480
72262W        W31765  42.510  38.828  13.376
72263W        W31766   0.872  44.931  13.007
72264W        W31767  34.994  28.153  10.590
72265W        W31768  43.969  25.006  11.980
72266W        W31769  43.948  25.664   1.212
72267W        W31770   9.326  12.210   3.836
72268W        W31771   3.435  33.508   2.807
72269W        W31772  10.144  25.111  14.431
72270W        W31773  35.034  34.373   0.839
72271W        W31774  42.484  26.550   4.694
72272W        W31775  21.197  16.760  14.024
72273W        W31776  22.648  19.730   3.165
72274W        W31777  36.848  24.217  12.448
72275W        W31778   5.202  15.205   2.186
72276W        W31779  13.311  34.104   5.116
72277W        W31780  19.214  18.681  11.066
72278W        W31781   3.750  10.271   1.754
72279W        W31782  36.436  20.182   4.832
72280W        W31783  41.874  14.106  12.482
72281W        W31784   8.816  16.082   2.184
72282W        W31785  10.706  44.312  14.436
72283W        W31786  24.062   9.714   4.705
72284W        W31787  27.107  28.051   2.829
72285W        W31788  41.962  13.666   2.733
72286W        W31789   0.399  22.654  10.913
72287W        W31790   6.410  12.784  13.501
72288W        W31791  41.478  17.262   3.291
72289W        W31792  36.012   0.944  11.966
72290W        W31793  44.764  28.615   1.818
72291W        W31794  40.047  41.354   2.241
72292W        W31795   2.804   1.771  12.447
72293W        W31796   0.292  33.953  14.296
72294W        W31797  33.971  13.223   2.869
72295W        W31798  20.099  39.317   0.307
72296W        W31799   3.255  33.409   4.156
72297W        W31800  25.668  44.943  12.070
72298W        W31801   3.949   1.255   0.322
72299W        W31802  10.794  43.394  12.401
72300W        W31803  21.667  37.479  10.025
72301W        W31804  18.735   2.377   4.604
72302W        W31805  26.491   0.302   9.547
72303W        W31806  37.992   1.255  10.458
72304W        W31807  29.605  20.043   3.637
72305W        W31808  42.977  24.092   4.809
72306W        W31809  33.093  35.512   0.778
72307W        W31810  43.419  12.789   3.746
72308W        W31811  31.150  15.730  13.531
72309W        W31812  39.889  18.647  13.843
72310W        W31813  40.502  10.350   3.259
72311W        W31814  36.534   1.976   2.364
72312W        W31815   5.731   7.349   3.175
72313W        W31816  24.106  29.451   0.428
72314W        W31817  12.637   1.384   0.929
72315W        W31818  18.130  43.312   3.270
72316W        W31819  24.049   9.814  14.804
72317W        W31820   7.336  37.503  13.861
72318W        W31821  37.002  39.316  11.873
72319W        W31822   2.326  16.579   2.880
72320W        W31823  27.509  15.622   9.487
72321W        W31824  34.463  27.062  10.455
72322W        W31825   7.675  39.452  14.305
72323W        W31826  17.615   3.415  11.870
72324W        W31827  35.948  37.399   3.162
72325W        W31828  37.041  18.662   1.298
72326W        W31829   6.874  34.884   2.860
72327W        W31830  41.881  21.132   1.394
72328W        W31831  19.599  27.064  13.953
72329W        W31832  29.000   7.815   2.761
72330W        W31833   8.283   7.824   3.852
72331W        W31834  21.252  25.634  10.999
72332W        W31835  24.093  12.243  12.910
72333W        W31836  12.232  34.428   3.288
72334W        W31837  42.325  36.890  11.962
72335W        W31838  13.236  24.678  13.981
72336W        W31839  42.806  10.155   5.277
72337W        W31840  22.573   4.848   0.853
72338W        W31841  24.720  16.274  14.902
72339W        W31842  31.980   4.331  11.902
72340W        W31843   1.906   8.189  12.506
72341W        W31844  19.222   6.793  13.440
72342W        W31845  39.502  10.229  12.949
72343W        W31846  37.566  15.180  13.015
72344W        W31847  31.990   2.964   2.813
72345W        W31848   6.758  26.959  14.429
72346W        W31849  16.645  12.785   3.813
72347W        W31850  40.828  39.325  13.355
72348W        W31851  22.628  22.661   2.248
72349W        W31852  15.691  25.697   3.737
72350W        W31853   7.840  10.708  14.787
72351W        W31854  12.801  13.327   1.789
72352W        W31855  23.061  34.926  10.444
72353W        W31856  38.933   7.246   0.276
72354W        W31857  11.670   4.915  12.065
72355W        W31858  25.009  35.380  14.395
72356W        W31859  12.301  21.191   1.254
72357W        W31860  25.002  12.730  10.570
72358W        W31861  37.022  24.001  14.962
72359W        W31862  42.993  22.115   3.787
72360W        W31863   3.432  12.337   2.856
72361W        W31864  24.665   3.899  14.870
72362W        W31865  32.017  25.994   0.929
72363W        W31866  17.657   8.664  13.901
72364W        W31867  30.073  21.108   3.348
72365W        W31868   4.889  11.747   0.354
72366W        W31869   7.380   9.888   0.731
72367W        W31870  37.572  40.492   1.392
72368W        W31871  29.426   0.891   3.649
72369W        W31872  27.195  30.049   1.754
72370W        W31873   6.338  18.592  12.096
72371W        W31874  20.039   3.319   2.276
72372W        W31875   0.415   0.424  13.045
72373W        W31876  24.543   5.867   3.681
72374W        W31877  40.549   8.832  10.580
72375W        W31878  42.887  24.167  10.958
72376W        W31879   8.837  31.633  13.505
72377W        W31880  32.546  44.956   3.796
72378W        W31881  11.184  24.164  10.597
72379W        W31882  21.153   2.436   3.679
72380W        W31883  14.188  37.454   2.311
72381W        W31884   7.331  19.579   2.746
72382W        W31885  15.621  19.120   2.287
72383W        W31886   7.179  20.037  13.058
72384W        W31887   1.824  32.430   3.630
72385W        W31888  23.625  25.648  13.381
72386W        W31889  11.303  37.419   2.190
72387W        W31890  12.207  23.588  13.920
72388W        W31891  17.794  40.808  12.995
72389W        W31892  40.803  27.154  14.307
72390W        W31893  22.674  15.674  13.311
72391W        W31894   0.385  44.272  13.817
72392W        W31895  39.464  32.017  12.984
72393W        W31896  10.307   8.885   2.290
72394W        W31897  10.170  34.912  14.463
72395W        W31898  28.619   0.798  13.019
72396W        W31899  39.543  14.832   0.422
72397W        W31900  37.471  40.348  11.471
72398W        W31901  18.140  16.299  12.980
72399W        W31902  37.500  33.568  10.902
72400W        W31903   7.236  22.558  13.900
72401W        W31904  34.056  28.051  10.569
72402W        W31905  29.567  22.588   3.738
72403W        W31906  14.728  27.626  12.532
72404W        W31907  17.729  28.575   0.353
72405W        W31908  25.145   4.318   0.835
72406W        W31909  35.968  29.009   4.293
72407W        W31910  13.714  36.438   0.269
72408W        W31911  18.068  40.371   4.699
72409W        W31912  12.853  26.501   0.257
72410W        W31913  25.541   6.191  13.943
72411W        W31914  33.467  39.318   3.781
72412W        W31915   0.478  41.415   3.665
72413W        W31916  26.655  30.962  10.643
72414W        W31917  30.979  42.799   3.340
72415W        W31918  26.035  38.469  14.413
72416W        W31919  41.298  23.611   4.349
72417W        W31920  29.974  11.848  13.812
72418W        W31921   2.857  11.372   0.933
72419W        W31922  12.834  26.054   4.678
72420W        W31923  15.728  41.038  13.830
72421W        W31924  44.775  26.504   4.710
72422W        W31925  24.227  42.492  14.771
72423W        W31926  30.638   0.256   4.823
72424W        W31927   8.214  28.183   1.281
72425W        W31928  44.467  29.504  13.382
72426W        W31929  14.593  43.899   0.470
72427W        W31930  18.108  37.944   3.291
72428W        W31931  25.620  12.723   2.667
72429W        W31932  24.136  19.615   4.236
72430W        W31933   9.319  40.450   0.286
72431W        W31934   8.745  17.681  14.805
72432W        W31935  30.986  41.491  12.433
72433W        W31936   4.394  44.855  14.451
72434W        W31937  32.959  12.267  11.100
72435W        W31938  27.941  11.164  10.971
72436W        W31939  16.162  33.490  13.412
72437W        W31940  19.074  27.117   1.370
72438W        W31941  10.797  14.591   3.319
72439W        W31942  38.369   0.473  11.023
72440W        W31943  27.593   5.787  14.448
72441W        W31944  35.866  17.230   1.915
72442W        W31945  23.115  33.460  14.891
72443W        W31946  37.397  33.899  14.512
72444W        W31947  32.458  12.142  11.397
72445W        W31948  38.527   9.223  14.008
72446W        W31949  13.133   3.438   1.404
72447W        W31950   8.669   2.435  13.348
72448W        W31951   4.348  42.908   0.871
72449W        W31952  21.670  43.389   0.467
72450W        W31953   4.930  31.092  14.369
72451W        W31954  42.359  29.143   4.115
72452W        W31955  27.072  26.630   3.838
72453W        W31956  32.565  19.568   1.873
72454W        W31957  27.167  27.114   1.416
72455W        W31958   2.413  33.120  14.357
72456W        W31959  33.109  44.414  13.821
72457W        W31960  38.447  25.074   2.784
72458W        W31961   2.814  17.794   4.661
72459W        W31962  34.398  44.322  11.105
72460W        W31963  18.636  36.399  11.575
72461W        W31964  16.179  10.758  11.002
72462W        W31965  37.024   0.940   4.752
72463W        W31966  34.990  17.090   4.812
72464W        W31967   2.249  36.971   3.366
72465W        W31968  19.108  27.642   3.346
72466W        W31969  19.262   0.418   3.661
72467W        W31970   9.860   7.881   1.413
72468W        W31971   3.429  38.018  12.945
72469W        W31972  32.979  21.663   1.821
72470W        W31973  18.172  14.113  11.484
72471W        W31974   5.335  12.837  14.398
72472W        W31975  22.735   7.250  13.956
72473W        W31976  26.137   6.842  13.442
72474W        W31977   4.919   4.321  13.499
72475W        W31978  35.594  39.863  14.467
72476W        W31979  31.050  37.977   2.235
72477W        W31980  22.150  29.008  11.889
72478W        W31981   6.677  13.161   3.821
72479W        W31982  17.271   6.404  11.129
72480W        W31983   6.917  18.246   4.343
72481W        W31984  31.104  16.725  14.814
72482W        W31985  37.029  36.967  13.909
72483W        W31986  40.019  40.939   1.220
72484W        W31987   1.350  31.063   2.357
72485W        W31988  36.953  15.103   0.291
72486W        W31989  35.088  41.827  13.027
72487W        W31990  11.838  15.106   1.243
72488W        W31991  25.481  31.592   2.413
72489W        W31992  28.965  31.027  11.960
72490W        W31993  31.616   8.317  11.028
72491W        W31994  36.982  25.028  14.896
72492W        W31995  42.779  35.570  14.922
72493W        W31996  18.052  25.638   2.807
72494W        W31997   6.781  22.675   3.801
72495W        W31998  43.831  41.962   4.782
72496W        W31999  26.535  35.972   1.354
72497W        W32000  43.914  12.240   2.294
72498W        W32001   2.385  11.705   0.333
72499W        W32002   5.233  37.906   2.870
72500W        W32003  39.021  28.160   5.123
72501W        W32004  37.429  22.194  13.463
72502W        W32005  39.460   1.303  14.843
72503W        W32006   7.208  13.196   1.245
72504W        W32007   4.793   2.312  14.299
72505W        W32008  28.553   4.434   4.811
72506W        W32009  15.737   9.283  14.816
72507W        W32010  17.165   4.232   4.774
72508W        W32011   9.286  20.724  12.976
72509W        W32012   4.262   1.419   1.355
72510W        W32013  28.107  22.190  11.881
72511W        W32014  35.011  14.276  10.925
72512W        W32015  22.549  17.765  14.322
72513W        W32016  30.540  30.644   4.133
72514W        W32017  12.339  16.767   1.694
72515W        W32018  17.207   4.918   2.192
72516W        W32019  21.155   8.844   0.845
72517W        W32020  22.654  35.537   2.249
72518W        W32021  13.661  27.946   4.351
72519W        W32022  37.056   5.240   5.233
72520W        W32023   9.715  36.491  13.809
72521W        W32024   1.750  30.044   4.331
72522W        W32025  22.559  24.020  13.896
72523W        W32026   8.369   8.864  10.436
72524W        W32027   8.337  31.605   4.298
72525W        W32028  38.050  43.830   3.280
72526W        W32029  34.870  30.156  13.410
72527W        W32030  37.065  15.602  10.968
72528W        W32031   9.768  36.520   0.813
72529W        W32032  36.403  10.875   2.410
72530W        W32033  37.563  44.937  12.550
72531W        W32034  10.842  24.566  13.872
72532W        W32035  12.688  30.118  13.383
72533W        W32036   9.277  22.116  14.933
72534W        W32037  32.514  34.058   5.712
72535W        W32038  14.682  29.621   0.760
72536W        W32039  28.509   1.387  11.970
72537W        W32040  27.175   1.366  11.906
72538W        W32041   9.167   7.324  12.508
72539W        W32042  33.943   5.778   1.358
72540W        W32043  29.143   5.742  13.899
72541W        W32044  13.757   3.306   1.851
72542W        W32045  44.953  21.156  12.381
72543W        W32046  40.310  31.151  12.069
72544W        W32047   6.881  26.146   4.345
72545W        W32048   3.920  13.283  13.993
72546W        W32049  35.875   5.193   3.154
72547W        W32050  32.440  42.834   3.330
72548W        W32051  28.043  38.002  10.068
72549W        W32052  10.358  36.852   4.283
72550W        W32053   6.294  12.232  13.807
72551W        W32054  43.486  36.443   4.127
72552W        W32055   4.297  25.040  11.413
72553W        W32056  37.569  25.125   2.699
72554W        W32057   8.896  43.360   0.762
72555W        W32058   6.206   4.265  11.876
72556W        W32059  42.378  33.923  14.381
72557W        W32060  39.401  11.160   0.865
72558W        W32061  40.956  42.442  12.074
72559W        W32062   2.393   3.782  10.608
72560W        W32063  41.529  26.594   3.697
72561W        W32064  10.197  14.679   1.355
72562W        W32065   7.753   5.777   2.862
72563W        W32066  15.328   8.867   4.604
72564W        W32067  27.661   7.697   0.330
72565W        W32068  27.961   1.381  11.576
72566W        W32069  22.019  42.427  10.519
72567W        W32070  44.006   3.769   1.694
72568W        W32071   8.213  33.991   4.139
72569W        W32072   2.358  17.712   9.945
72570W        W32073  19.149   7.307   3.324
72571W        W32074   8.290  42.287   4.226
72572W        W32075  15.707   4.315  14.914
72573W        W32076  31.489  15.245   5.688
72574W        W32077  17.584   1.941   4.627
72575W        W32078  44.458  28.062   0.304
72576W        W32079  40.493  16.177  12.526
72577W        W32080  19.663  38.499   0.365
72578W        W32081   3.458  19.730   0.246
72579W        W32082  36.435  17.790  11.102
72580W        W32083  37.948   0.967  14.853
72581W        W32084  10.794   3.451  11.081
72582W        W32085  14.807  24.996   0.474
72583W        W32086   5.212  30.016   3.302
72584W        W32087  15.099  23.196  14.851
72585W        W32088  41.914   9.688   3.145
72586W        W32089  26.991  22.175  13.508
72587W        W32090  11.856   3.305  12.388
72588W        W32091   3.767   5.717   4.696
72589W        W32092  37.574  24.004   4.235
72590W        W32093   4.799  41.503   3.842
72591W        W32094  14.096  16.614   1.433
72592W        W32095  12.315  21.594  13.438
72593W        W32096  17.251   5.760   2.262
72594W        W32097  21.149  31.619   2.306
72595W        W32098  36.366  18.572   0.787
72596W        W32099   2.243  15.095  12.916
72597W        W32100  37.941  12.816  14.824
72598W        W32101   5.303  22.565  13.410
72599W        W32102  29.949  24.693   0.844
72600W        W32103  15.303  18.151   2.391
72601W        W32104  36.479   0.923  12.030
72602W        W32105  15.584  43.796   2.866
72603W        W32106  11.805  44.429  14.847
72604W        W32107  17.193   3.377   3.148
72605W        W32108  41.791  39.016  11.041
72606W        W32109  32.998  10.683  13.059
72607W        W32110  12.854  35.487   0.792
72608W        W32111  25.970  17.611   1.881
72609W        W32112   9.863  35.588   2.725
72610W        W32113  39.960   1.246  14.780
72611W        W32114  11.866  27.083  13.316
72612W        W32115  40.388  40.372  13.489
72613W        W32116  27.684  41.889   3.276
72614W        W32117   1.914  20.560   3.372
72615W        W32118  36.092  42.468   4.650
72616W        W32119  11.675  24.112   0.837
72617W        W32120  38.560  16.138  10.978
72618W        W32121  24.553  23.147  12.462
72619W        W32122  21.677  25.210  12.080
72620W        W32123  18.743  34.077  13.926
72621W        W32124  12.324  39.328   4.127
72622W        W32125  30.643  41.870   4.196
72623W        W32126  24.482   5.886   4.769
72624W        W32127  20.622  32.538   1.869
72625W        W32128  30.145  35.525   1.931
72626W        W32129   2.786  13.327   0.245
72627W        W32130  30.526  21.732   1.869
72628W        W32131  34.394  26.483   4.748
72629W        W32132  42.910  20.597  10.479
72630W        W32133   7.179  31.984  11.610
72631W        W32134  11.707  13.634   3.272
72632W        W32135   6.889  31.030   2.826
72633W        W32136  39.415   9.246  14.944
72634W        W32137   5.248  30.021   9.983
72635W        W32138  13.324  19.679   0.284
72636W        W32139  25.994  43.325   2.227
72637W        W32140   6.184  30.059   3.184
72638W        W32141  10.276  44.310  14.472
72639W        W32142   4.324  40.813   4.687
72640W        W32143  24.651  26.585   0.759
72641W        W32144  29.451   9.210   3.311
72642W        W32145  17.206  39.867   0.460
72643W        W32146  44.886  44.940   2.314
72644W        W32147  40.354  28.581   2.335
72645W        W32148  32.949  34.527   1.451
72646W        W32149  17.237   8.873  11.467
72647W        W32150  38.051  42.509   2.679
72648W        W32151  40.359  31.429  14.468
72649W        W32152  28.622  39.823  12.878
72650W        W32153  23.615   2.738   3.779
72651W        W32154  23.676  43.449   4.675
72652W        W32155  32.035  16.798   0.869
72653W        W32156  17.217  28.591   2.887
72654W        W32157   3.381  33.579   4.634
72655W        W32158  42.838  28.652   0.259
72656W        W32159  19.653   5.299   0.773
72657W        W32160  18.111  23.111  11.890
72658W        W32161   9.153  44.981  13.928
72659W        W32162  41.917  44.406  14.430
72660W        W32163   6.756  10.759  11.041
72661W        W32164  19.591  27.611   1.351
72662W        W32165  23.132   7.340  10.935
72663W        W32166  23.584  15.771  13.989
72664W        W32167  19.600  27.484   1.785
72665W        W32168  27.452   9.713   1.377
72666W        W32169  13.220   0.866   5.291
72667W        W32170  20.138  34.371   5.091
72668W        W32171   7.704  40.527  13.803
72669W        W32172  23.241  39.974  14.317
72670W        W32173   2.779  43.417   3.185
72671W        W32174  30.992  33.622  11.091
72672W        W32175  27.635   0.331  11.036
72673W        W32176  24.648  32.405  12.574
72674W        W32177  18.718   4.222   2.293
72675W        W32178   8.309  10.313   4.165
72676W        W32179   1.328  35.929  12.510
72677W        W32180  38.000  12.238  12.543
72678W        W32181   3.334  22.012  13.796
72679W        W32182  25.209  17.754   1.716
72680W        W32183  24.022  20.049   1.928
72681W        W32184  27.045  12.855   2.697
72682W        W32185  33.604  22.126  11.021
72683W        W32186  41.811  25.527   0.960
72684W        W32187  39.412  15.256   3.379
72685W        W32188   5.724  15.321  13.833
72686W        W32189   2.782  19.054  12.922
72687W        W32190  35.878  29.561   2.786
72688W        W32191  14.234  42.007   2.687
72689W        W32192   3.310  31.962   0.483
72690W        W32193   1.378  42.456  14.493
72691W        W32194   4.259  22.672  13.850
72692W        W32195  31.131  39.974  10.411
72693W        W32196  35.577   3.298  11.903
72694W        W32197  20.523   6.245   3.327
72695W        W32198  35.548   9.182   1.213
72696W        W32199  41.865   4.699   1.763
72697W        W32200  35.475   2.296   0.246
72698W        W32201  11.339  38.560  13.956
72699W        W32202   6.254  19.614   3.236
72700W        W32203  32.414  39.385   1.924
72701W        W32204   5.247  16.114  14.795
72702W        W32205  35.085  39.816   3.750
72703W        W32206  29.620  44.380   2.401
72704W        W32207   8.772   9.819   3.185
72705W        W32208  24.054  36.399  14.407
72706W        W32209  38.353  12.807  13.460
72707W        W32210  35.403   3.878  13.480
72708W        W32211  35.969  16.286  10.606
72709W        W32212  40.528  20.535  10.925
72710W        W32213  36.484  10.234  11.522
72711W        W32214  35.564  33.054  13.325
72712W        W32215  37.416  40.378  10.571
72713W        W32216   3.928  25.174  12.416
72714W        W32217  25.591  16.752   2.230
72715W        W32218  27.499  11.825  13.859
72716W        W32219   4.306   0.349  12.084
72717W        W32220  41.427  27.616  10.549
72718W        W32221  26.998   8.362   0.783
72719W        W32222   8.210  26.203  12.933
72720W        W32223   9.843   6.848  10.543
72721W        W32224  43.515   1.374  14.344
72722W        W32225  13.613  12.160   1.392
72723W        W32226   8.780  41.376  13.481
72724W        W32227  43.386  32.885   3.855
72725W        W32228  32.446   8.240   2.204
72726W        W32229  21.181  29.027  12.046
72727W        W32230   6.838  35.916  13.033
72728W        W32231  36.961  33.060   1.893
72729W        W32232  30.916  17.559   3.857
72730W        W32233  21.657  13.840   0.798
72731W        W32234   5.899  25.703  12.351
72732W        W32235   1.354  18.678  11.487
72733W        W32236  29.550   5.223   1.406
72734W        W32237  26.494  38.873  13.938
72735W        W32238  43.905  29.072   2.189
72736W        W32239  17.727  42.899   3.679
72737W        W32240   5.807  22.239   4.179
72738W        W32241  16.709  37.515  12.412
72739W        W32242  43.860  30.105   9.617
72740W        W32243   4.372  24.547  12.936
72741W        W32244  10.232  23.101  11.128
72742W        W32245  13.619  25.090   4.307
72743W        W32246  37.347   8.663   3.251
72744W        W32247  38.418  11.851   4.162
72745W        W32248  16.231  10.341  13.981
72746W        W32249  40.812  34.902  12.399
72747W        W32250  12.243  29.455   0.403
72748W        W32251  20.211  10.256  10.003
72749W        W32252  16.788   8.197   1.295
72750W        W32253  33.396   1.745  12.032
72751W        W32254  14.100  31.478   0.313
72752W        W32255  28.090   1.926   0.480
72753W        W32256  24.613  16.126  14.481
72754W        W32257  35.522  21.550   4.607
72755W        W32258   0.256  38.000  12.557
72756W        W32259  26.983  31.531  11.896
72757W        W32260  37.394  38.884   5.300
72758W        W32261  31.463  29.084   4.644
72759W        W32262  25.688  40.510  14.437
72760W        W32263  38.914  26.614   2.197
72761W        W32264  34.928   4.803   4.835
72762W        W32265  27.466  26.631  13.800
72763W        W32266   7.413  29.033  14.861
72764W        W32267  29.435  43.477  14.885
72765W        W32268  14.242  44.941  14.796
72766W        W32269  11.198  19.285   3.640
72767W        W32270  12.761  27.066  12.853
72768W        W32271  37.358  39.506  13.391
72769W        W32272  27.514  15.194   3.304
72770W        W32273   8.391  37.461  10.024
72771W        W32274  35.887  27.138   2.399
72772W        W32275  33.595  13.124   9.492
72773W        W32276  13.783   6.336  12.545
72774W        W32277  42.830  33.018  13.484
72775W        W32278   7.279  17.727   1.411
72776W        W32279  12.287  22.741   2.338
72777W        W32280  37.988   1.336   1.766
72778W        W32281  32.085  27.177   0.478
72779W        W32282  28.041  15.149  13.907
72780W        W32283   7.739  24.173  10.926
72781W        W32284  36.490  43.841   2.840
72782W        W32285  41.998  32.586  10.934
72783W        W32286  16.633  42.326   1.883
72784W        W32287  38.952  38.856  14.358
72785W        W32288  28.018   7.723   3.766
72786W        W32289  20.676   3.285  14.801
72787W        W32290   9.197  42.990  11.584
72788W        W32291  42.395  26.470   1.818
72789W        W32292  16.286   1.329  13.507
72790W        W32293   6.808  13.174   2.322
72791W        W32294   8.788   5.205  11.422
72792W        W32295  43.489  38.030   3.853
72793W        W32296  20.197  38.422   1.822
72794W        W32297  16.629  43.807  11.479
72795W        W32298  35.018   5.916   9.953
72796W        W32299   5.234  25.967   3.218
72797W        W32300  39.331  33.889  14.429
72798W        W32301   7.222  25.708   4.195
72799W        W32302  23.698  37.337  14.424
72800W        W32303   9.722  27.976   3.830
72801W        W32304  37.407  17.655  14.316
72802W        W32305  33.061  24.513  13.047
72803W        W32306  20.760  25.192   4.272
72804W        W32307  31.966   0.409  10.505
72805W        W32308   2.397   2.790  14.499
72806W        W32309   4.811  33.035   4.785
72807W        W32310   3.888   1.272   5.115
72808W        W32311  34.492  15.788  10.941
72809W        W32312  43.390  42.938   1.832
72810W        W32313  19.545  24.578  11.493
72811W        W32314  11.707   0.312  10.887
72812W        W32315   3.815  16.213   2.234
72813W        W32316  10.209  31.131   0.347
72814W        W32317  39.024  14.110  12.447
72815W        W32318   1.918  27.627   0.800
72816W        W32319  14.237  33.569  14.378
72817W        W32320   9.180   4.753   0.749
72818W        W32321   9.190  35.099   0.322
72819W        W32322  27.129  10.649   4.140
72820W        W32323  28.480   5.195  12.445
72821W        W32324  34.075   5.724   0.788
72822W        W32325  24.167   0.467   0.334
72823W        W32326  41.298  26.109  14.352
72824W        W32327   1.805  36.592  14.855
72825W        W32328  23.112  23.122   0.384
72826W        W32329   4.394  13.782  11.585
72827W        W32330   0.827  22.250  13.508
72828W        W32331  15.799  13.315  14.309
72829W        W32332  42.512  38.874   0.298
72830W        W32333  30.103  36.052  12.430
72831W        W32334  23.502  42.513  12.852
72832W        W32335   6.739  16.179  13.792
72833W        W32336  36.088  31.906  11.457
72834W        W32337   7.897   7.215  10.489
72835W        W32338  31.574  25.688   2.675
72836W        W32339  20.725   0.940  11.092
72837W        W32340  21.660   7.889   4.251
72838W        W32341  29.432  39.029   0.435
72839W        W32342  21.154  33.534  14.911
72840W        W32343  42.521   0.448  10.458
72841W        W32344  43.426  16.152   1.426
72842W        W32345  32.109  44.001   4.269
72843W        W32346  39.535  43.276   4.321
72844W        W32347  22.998   3.300  11.869
72845W        W32348  38.820  11.370  14.354
72846W        W32349  30.103  10.320   0.736
72847W        W32350  32.531  43.790   2.407
72848W        W32351  21.533  28.063  10.557
72849W        W32352   4.896  39.363   1.867
72850W        W32353  28.589  42.964  11.891
72851W        W32354  29.639  12.647   3.220
72852W        W32355  43.017  13.153  13.898
72853W        W32356  31.960   3.312   2.388
72854W        W32357  41.446   0.903   0.292
72855W        W32358  38.885   7.798   2.718
72856W        W32359  17.769  41.857  12.562
72857W        W32360   3.724  12.123   4.809
72858W        W32361  41.833  29.625   2.292
72859W        W32362  36.848  17.648   4.688
72860W        W32363  32.083  15.742   1.701
72861W        W32364  28.986  20.552   0.422
72862W        W32365  44.446   7.751  13.889
72863W        W32366  18.682   1.372  10.996
72864W        W32367  43.309   3.363   0.294
72865W        W32368  38.538  27.994  14.911
72866W        W32369   0.407  15.737   5.167
72867W        W32370   0.479  24.633  12.378
72868W        W32371  44.002   9.254   3.641
72869W        W32372   5.931  41.323  14.345
72870W        W32373   4.867  43.807   2.708
72871W        W32374  44.483   0.470  14.916
72872W        W32375   1.443  14.821  12.949
72873W        W32376  24.667  36.593   2.313
72874W        W32377  42.282   6.227  14.422
72875W        W32378  21.666  16.703  10.471
72876W        W32379  35.515   4.724  12.431
72877W        W32380  33.613   7.186  11.609
72878W        W32381  16.204  13.285   3.646
72879W        W32382  16.580  24.989   3.309
72880W        W32383  38.065   1.839   1.825
72881W        W32384  17.685   8.886   2.791
72882W        W32385  32.450  36.387  14.372
72883W        W32386  39.941  11.641  13.835
72884W        W32387  21.664  22.119  10.951
72885W        W32388  39.559  11.826   3.304
72886W        W32389  37.869  12.840  12.367
72887W        W32390  41.941  34.874  10.609
72888W        W32391  20.261  29.654  10.418
72889W        W32392  21.725  13.298   2.331
72890W        W32393   7.704  34.488   3.340
72891W        W32394  29.466   9.259   4.748
72892W        W32395   9.367  21.191  12.838
72893W        W32396  20.236  17.783  14.760
72894W        W32397   1.333  29.554  12.845
72895W        W32398  16.196  15.643  13.831
72896W        W32399   1.896  38.457  10.891
72897W        W32400  33.980   7.208  11.521
72898W        W32401  25.555  25.610   0.301
72899W        W32402  26.007  27.485   4.347
72900W        W32403  19.093  17.141   1.365
72901W        W32404  39.942   8.743   2.858
72902W        W32405  26.482  20.150  14.841
72903W        W32406   9.335  25.477   4.621
72904W        W32407  29.498  29.966  14.003
72905W        W32408  43.405   9.244  11.448
72906W        W32409  15.590  13.186   1.420
72907W        W32410   5.901  15.140   1.914
72908W        W32411  24.187  34.492   4.352
72909W        W32412  27.539  15.096  12.972
72910W        W32413  13.118  15.674  12.553
72911W        W32414  33.402  13.119   1.696
72912W        W32415  43.837   8.270   4.649
72913W        W32416  25.553   5.755   0.889
72914W        W32417   3.913   7.810   4.696
72915W        W32418  38.962  39.356   4.130
72916W        W32419  17.675  15.621   0.335
72917W        W32420  21.256  31.433   4.299
72918W        W32421  26.650  23.084  10.433
72919W        W32422   6.888   6.896   3.197
72920W        W32423   2.798  14.597   3.639
72921W        W32424  40.965  11.193  14.893
72922W        W32425  38.558  28.459   3.785
72923W        W32426  22.525  27.955  12.029
72924W        W32427   4.896  17.290  10.006
72925W        W32428  42.414  41.444   4.299
72926W        W32429  38.867  34.088  11.991
72927W        W32430   1.368  31.550   1.230
72928W        W32431  39.368  22.227  10.915
72929W        W32432  39.330  40.443  11.438
72930W        W32433  22.209  43.947  10.903
72931W        W32434  13.716  15.723   9.979
72932W        W32435  15.761  14.660   0.378
72933W        W32436  23.103  33.500   3.798
72934W        W32437   9.357  33.557   9.969
72935W        W32438   2.399  39.333  11.439
72936W        W32439  11.168  17.189  11.493
72937W        W32440  32.953  30.594   3.282
72938W        W32441   8.197  40.312   3.809
72939W        W32442  30.002   9.205  14.784
72940W        W32443  18.121  39.851   2.708
72941W        W32444  45.000  26.619   4.212
72942W        W32445   8.383   1.776   2.237
72943W        W32446  20.730   6.410  14.963
72944W        W32447  32.453  35.453  13.019
72945W        W32448  28.526  31.464   3.664
72946W        W32449  19.070  14.321  11.058
72947W        W32450  39.061  30.590  13.827
72948W        W32451   9.178  31.436  11.447
72949W        W32452  29.097  38.905   3.646
72950W        W32453  13.339  36.908   4.148
72951W        W32454  12.308  10.642  14.014
72952W        W32455  19.659  27.670   4.803
72953W        W32456  44.802   5.420  10.524
72954W        W32457  19.091   6.214  14.375
72955W        W32458   7.253   0.904  14.873
72956W        W32459  43.984  39.060   4.314
72957W        W32460   3.398   4.297   0.836
72958W        W32461   2.798  19.182   0.288
72959W        W32462  43.479  21.643   0.839
72960W        W32463   2.450   2.226   1.799
72961W        W32464  44.280   8.822   3.222
72962W        W32465  22.186  17.068   3.365
72963W        W32466  25.031  39.485   1.756
72964W        W32467  37.033  24.199  11.880
72965W        W32468  15.135  22.514   2.332
72966W        W32469  30.975  36.863   0.765
72967W        W32470  34.032  20.159   4.781
72968W        W32471   1.312   7.226   3.237
72969W        W32472  13.632  34.906  11.103
72970W        W32473  10.708  13.663   0.379
72971W        W32474  35.001  31.494  13.441
72972W        W32475  16.314  31.618  14.465
72973W        W32476   4.911   0.869   4.218
72974W        W32477  12.152  16.650   5.686
72975W        W32478  34.078  22.559  12.855
72976W        W32479  38.470  32.555  13.061
72977W        W32480   4.858   3.254   4.661
72978W        W32481   3.884   7.223   0.385
72979W        W32482  15.112  14.710   3.651
72980W        W32483  19.705  44.494  13.457
72981W        W32484  38.398  29.018   0.282
72982W        W32485  44.304  15.150  11.566
72983W        W32486  23.170  43.289   1.926
72984W        W32487  36.089  17.801  11.896
72985W        W32488  41.461  26.616   1.700
72986W        W32489  20.156  11.848  10.512
72987W        W32490  39.440  42.856   0.449
72988W        W32491  42.432  19.704  12.960
72989W        W32492  38.975  44.453   4.799
72990W        W32493  44.819  15.703   3.295
72991W        W32494  44.817  34.497  12.344
72992W        W32495  34.519  16.709  11.118
72993W        W32496  43.356  21.145   3.758
72994W        W32497  16.579  37.838  14.787
72995W        W32498   8.882   8.759  10.506
72996W        W32499  24.538  32.556  14.844
72997W        W32500  33.563  39.497   2.402
72998W        W32501  15.240   1.448  11.420
72999W        W32502  37.519  43.001   5.225
73000W        W32503  43.015   5.278   4.747
73001W        W32504  28.520  41.987  13.521
73002W        W32505  21.715   9.275   2.816
73003W        W32506  27.671   8.811  12.048
73004W        W32507  38.338  26.080  14.843
73005W        W32508  23.025  27.073  13.824
73006W        W32509  33.049  27.461  14.881
73007W        W32510   2.878  39.016   1.776
73008W        W32511   8.756   0.485   4.239
73009W        W32512  15.809   6.183  13.531
73010W        W32513  18.786  13.671   4.826
73011W        W32514   4.932  25.995   1.857
73012W        W32515  13.607  15.249  10.410
73013W        W32516  16.763  25.591  14.451
73014W        W32517  18.666  26.155   3.309
73015W        W32518  28.640  22.529   3.722
73016W        W32519  16.599  32.949  11.944
73017W        W32520  19.704  33.013  12.518
73018W        W32521  18.069  27.661  14.886
73019W        W32522  41.026  18.094  10.440
73020W        W32523   6.242  11.653  10.529
73021W        W32524  39.492  16.261  10.899
73022W        W32525  43.431  12.268  14.762
73023W        W32526  30.428  23.054  11.070
73024W        W32527   0.454  44.269   5.567
73025W        W32528  24.672  18.616  14.319
73026W        W32529  25.098  26.654  13.855
73027W        W32530  12.806   6.903   0.425
73028W        W32531  39.329  36.402   4.287
73029W        W32532   0.348  40.514  10.895
73030W        W32533  39.519   7.773   3.384
73031W        W32534  26.464   1.793   0.456
73032W        W32535  11.850   2.317   1.304
73033W        W32536  10.823   5.408  10.448
73034W        W32537  19.768  40.386  11.938
73035W        W32538  41.333  29.073   1.376
73036W        W32539  27.164   6.298   0.965
73037W        W32540  31.411   9.825   9.571
73038W        W32541  37.986  29.153  11.066
73039W        W32542   5.428  28.957   3.674
73040W        W32543   2.371  12.297  13.505
73041W        W32544  30.044  42.316  14.021
73042W        W32545  41.874  19.632  12.552
73043W        W32546  32.933  14.832  14.003
73044W        W32547   3.840   2.846   5.322
73045W        W32548  17.300  18.160  14.411
73046W        W32549  22.640   9.745  13.978
73047W        W32550  43.283  38.067   3.230
73048W        W32551  30.486   7.705  13.840
73049W        W32552  24.698   8.239   4.725
73050W        W32553  10.239  33.903   4.604
73051W        W32554  10.837  15.765   2.847
73052W        W32555  18.780  20.143  10.582
73053W        W32556  34.004  12.774  13.024
73054W        W32557  31.418  38.543  10.971
73055W        W32558  36.012  38.337   0.339
73056W        W32559  42.481  30.095  13.881
73057W        W32560  25.488   0.390  13.373
73058W        W32561  37.962  29.434   0.448
73059W        W32562  25.681  33.096   4.211
73060W        W32563  20.678  44.894   4.644
73061W        W32564  26.698  10.807  14.348
73062W        W32565  35.935  28.639   0.422
73063W        W32566  11.856  37.860   4.341
73064W        W32567   3.794   7.832   1.774
73065W        W32568  13.337  24.189  10.615
73066W        W32569   4.404  24.127   4.197
73067W        W32570  42.499  26.014  14.435
73068W        W32571  24.705  26.173  12.542
73069W        W32572  44.365   3.792  10.937
73070W        W32573  16.154  42.385  13.388
73071W        W32574  29.146  44.343  13.989
73072W        W32575  32.428  29.451   1.756
73073W        W32576  40.997  29.458  11.524
73074W        W32577  39.991   3.850   1.321
73075W        W32578  30.953  31.630  12.371
73076W        W32579  21.227   1.798   1.403
73077W        W32580   6.307  16.662   0.859
73078W        W32581   1.968  39.996   3.312
73079W        W32582  13.708  36.861   4.699
73080W        W32583  11.673  30.596  14.819
73081W        W32584  29.441  19.241   4.598
73082W        W32585  31.151  38.881   0.455
73083W        W32586  17.747  10.209   0.385
73084W        W32587  42.482  17.213  13.425
73085W        W32588   5.742  24.680   3.685
73086W        W32589  23.184  38.386  14.841
73087W        W32590  42.941  25.992  12.941
73088W        W32591  20.687  17.664  10.643
73089W        W32592  34.030  38.527   1.732
73090W        W32593  14.292  43.337  11.511
73091W        W32594  44.902  27.649  13.012
73092W        W32595  29.984   4.869  10.071
73093W        W32596  19.247   3.883   2.694
73094W        W32597  15.143  26.470   1.271
73095W        W32598  14.794  29.161   1.283
73096W        W32599  24.119  14.590   3.724
73097W        W32600  39.972  44.790   4.598
73098W        W32601  22.634  20.169  13.017
73099W        W32602   0.838  30.505  12.340
73100W        W32603  40.832  29.032  13.513
73101W        W32604   9.727   1.731   0.967
73102W        W32605  20.731  30.004   3.826
73103W        W32606  22.702  26.039   1.211
73104W        W32607   8.799  15.602  11.581
73105W        W32608   1.440  42.300  11.536
73106W        W32609  19.072  36.978  14.364
73107W        W32610   2.944  26.590  13.944
73108W        W32611   4.337  16.073   3.707
73109W        W32612   9.321  27.016  10.913
73110W        W32613  19.211  42.904  13.045
73111W        W32614  37.953   0.423   4.620
73112W        W32615   6.320  44.904   4.830
73113W        W32616  27.185  36.897  10.927
73114W        W32617  27.552  23.119  11.565
73115W        W32618   6.250  21.080  10.924
73116W        W32619  39.875   2.317  13.867
73117W        W32620  17.222  15.633   5.081
73118W        W32621  23.652  16.184  13.911
73119W        W32622  25.490   8.788   4.306
73120W        W32623   2.383   5.392  12.403
73121W        W32624  28.597   2.797   2.330
73122W        W32625  28.065  19.092  12.914
73123W        W32626  21.551  44.411   2.742
73124W        W32627  22.622  21.736  11.081
73125W        W32628  26.470   1.913   3.292
73126W        W32629  34.866  22.008  12.406
73127W        W32630  37.059  28.061  12.448
73128W        W32631  26.115  10.779  12.508
73129W        W32632  17.685   8.331  13.367
73130W        W32633  33.962   5.849  12.025
73131W        W32634  34.604  42.382   3.690
73132W        W32635  23.074  38.429  11.515
73133W        W32636   6.825  43.989  14.462
73134W        W32637  32.011  14.328  13.962
73135W        W32638  13.689  35.098   4.152
73136W        W32639   0.942  38.411  10.986
73137W        W32640  35.921  24.677   4.246
73138W        W32641  38.541   4.903   2.394
73139W        W32642  23.221  30.421   4.348
73140W        W32643  33.548  23.596   4.349
73141W        W32644  31.431  38.452  14.379
73142W        W32645  39.065  27.003  11.461
73143W        W32646  38.921  41.827  14.281
73144W        W32647  34.114  15.101   0.401
73145W        W32648  20.137  30.565  10.158
73146W        W32649  36.993  33.037   2.774
73147W        W32650  19.085  15.267  14.321
73148W        W32651  20.543   5.203  13.453
73149W        W32652  28.934  10.294  10.948
73150W        W32653  39.423  25.646  12.061
73151W        W32654  30.530  37.522  13.968
73152W        W32655  16.257  26.964  14.839
73153W        W32656   1.432  14.198  12.574
73154W        W32657  18.239  32.632  10.561
73155W        W32658  37.407  17.631  13.399
73156W        W32659  13.190  36.003   0.901
73157W        W32660  20.081   9.658   2.211
73158W        W32661   0.750  32.551   1.831
73159W        W32662   3.895  20.664   3.203
73160W        W32663  16.182  37.876  10.484
73161W        W32664   4.917  33.080  11.408
73162W        W32665   1.356  11.153   3.819
73163W        W32666  10.825  37.423   0.366
73164W        W32667  18.290   4.940   4.603
73165W        W32668  22.709  20.216   1.728
73166W        W32669  11.861  14.323  11.959
73167W        W32670  40.311  14.709  13.511
73168W        W32671  29.136  17.188  14.412
73169W        W32672  25.009  23.108  11.883
73170W        W32673   0.290  29.149  14.335
73171W        W32674  38.012  39.549   4.639
73172W        W32675  18.738  39.874   1.357
73173W        W32676   3.844  34.959  14.764
73174W        W32677  17.114  30.056  12.357
73175W        W32678   3.416  33.473  13.484
73176W        W32679  18.155  35.987   3.779
73177W        W32680  29.538   0.340  13.940
73178W        W32681  15.797  17.156  11.040
73179W        W32682  44.390  25.648  14.996
73180W        W32683  17.103  32.637  13.035
73181W        W32684  13.255  13.834   3.759
73182W        W32685  27.044   2.281  12.575
73183W        W32686   5.280  28.040  13.046
73184W        W32687  12.292  24.140   0.375
73185W        W32688   8.172  33.888   3.272
73186W        W32689  11.674  25.467  13.822
73187W        W32690  24.495   9.771  14.868
73188W        W32691  31.504  12.855   0.890
73189W        W32692  17.605   1.838  13.460
73190W        W32693  26.208  35.876   1.699
73191W        W32694   4.322   4.798  10.546
73192W        W32695  15.719  16.205   2.758
73193W        W32696   7.735  18.593   3.219
73194W        W32697  14.713   4.836   2.369
73195W        W32698  23.496  39.968   0.856
73196W        W32699   7.828  39.398   4.716
73197W        W32700  30.133   0.917  12.384
73198W        W32701   2.768  42.907   2.789
73199W        W32702  22.066  22.550  12.033
73200W        W32703  18.676  22.740   4.259
73201W        W32704  33.556  14.609   3.246
73202W        W32705  40.536  26.202   0.281
73203W        W32706  41.390   0.412  10.569
73204W        W32707   0.784  17.575  11.931
73205W        W32708  18.239  43.811   0.425
73206W        W32709  34.398  36.927  14.764
73207W        W32710  42.349   1.394   0.283
73208W        W32711  17.064   1.348   1.293
73209W        W32712  24.649   5.231   1.888
73210W        W32713   1.955  28.076  12.549
73211W        W32714  39.824  10.273   4.799
73212W        W32715   3.321   3.951   0.841
73213W        W32716  20.053   2.811  11.439
73214W        W32717  29.025   7.294   1.423
73215W        W32718  29.447   6.222  14.995
73216W        W32719  16.795  20.541   2.313
73217W        W32720  22.214   5.912  13.333
73218W        W32721  31.590  39.460   1.292
73219W        W32722  43.388  15.179  14.983
73220W        W32723   7.385  25.076  14.961
73221W        W32724  13.780   5.296  13.426
73222W        W32725   2.350   6.260   0.282
73223W        W32726  13.644   5.845   0.252
73224W        W32727  36.857  16.631  13.971
73225W        W32728  36.569  28.608   0.829
73226W        W32729   3.830  11.842   0.799
73227W        W32730  17.252   1.319   0.747
73228W        W32731  35.422  14.659  11.047
73229W        W32732  16.675  12.681   0.280
73230W        W32733  22.243  20.730   1.697
73231W        W32734  20.094  13.313   3.783
73232W        W32735  27.054   0.770   3.279
73233W        W32736   7.906   3.222  10.467
73234W        W32737  21.699  37.881  12.390
73235W        W32738  18.234  28.568   4.817
73236W        W32739  23.028   4.710  11.011
73237W        W32740   8.253  33.126   3.779
73238W        W32741  43.902  39.390   0.741
73239W        W32742  15.270  43.455   3.289
73240W        W32743  38.835   7.350  12.901
73241W        W32744  42.347  42.964  12.373
73242W        W32745  44.354   1.327   0.832
73243W        W32746  33.900  40.924   2.903
73244W        W32747   8.391  21.156  13.401
73245W        W32748  28.120  41.456  11.930
73246W        W32749  44.945  29.426  12.084
73247W        W32750  14.783   9.741   2.337
73248W        W32751  38.074   3.328   3.859
73249W        W32752  18.555  19.535   0.813
73250W        W32753  11.183  34.442  11.040
73251W        W32754  34.015   7.832  11.550
73252W        W32755  42.830  22.080   1.759
73253W        W32756   8.787  20.121  13.039
73254W        W32757   1.886   9.748   1.342
73255W        W32758   3.358  24.178   2.735
73256W        W32759  37.060  30.570  10.916
73257W        W32760  27.196  18.165  11.524
73258W        W32761  13.298  10.265  14.017
73259W        W32762  30.140  41.385   2.231
73260W        W32763  26.120   6.901   2.796
73261W        W32764  16.764  43.471  11.040
73262W        W32765  22.716  39.811  11.964
73263W        W32766  21.025  43.431  11.577
73264W        W32767   1.889  34.524   0.426
73265W        W32768  35.488  37.418   2.729
73266W        W32769  37.439  31.646  12.418
73267W        W32770   0.970  26.558  14.007
73268W        W32771  36.483  40.347   2.673
73269W        W32772  12.749  20.723   0.750
73270W        W32773  42.979  44.005  12.387
73271W        W32774  39.389  12.787  12.007
73272W        W32775   7.220   0.355   2.718
73273W        W32776  19.227   7.735   1.278
73274W        W32777  16.802  40.882   0.839
73275W        W32778  32.933   3.417  13.942
73276W        W32779  15.741  11.163  13.408
73277W        W32780  32.407   1.457   2.708
73278W        W32781   0.444  31.526  14.301
73279W        W32782  14.706  19.697   0.774
73280W        W32783  43.456  42.345   3.729
73281W        W32784  18.768  32.910   0.436
73282W        W32785  17.103  25.010  11.489
73283W        W32786  28.635  34.018  10.614
73284W        W32787  24.069  44.348  13.902
73285W        W32788   8.872   7.697   3.669
73286W        W32789  43.440  11.849   4.328
73287W        W32790  13.148   5.279  13.446
73288W        W32791  41.531   6.769   2.683
73289W        W32792  33.088  12.821   5.767
73290W        W32793   6.857  22.738  12.472
73291W        W32794   8.314  34.965   1.264
73292W        W32795   2.300  44.844  14.786
73293W        W32796  40.484   6.692  14.937
73294W        W32797  16.616  22.689  13.407
73295W        W32798  11.336  17.792   1.854
73296W        W32799  43.516  27.179   4.220
73297W        W32800   2.291  44.990  11.494
73298W        W32801  21.098   6.359   4.714
73299W        W32802  14.834  29.561   4.723
73300W        W32803  14.776  21.642   1.908
73301W        W32804  38.571   8.261   1.896
73302W        W32805  30.062   5.757   0.743
73303W        W32806  26.071  14.625  10.532
73304W        W32807  20.176   0.832   1.718
73305W        W32808  16.666  21.201  14.800
73306W        W32809   3.244  31.110   5.195
73307W        W32810  36.504  44.350  14.488
73308W        W32811  31.152  17.727  13.959
73309W        W32812  32.626  27.031   0.919
73310W        W32813  31.037  37.526  13.484
73311W        W32814   7.856  31.629   1.803
73312W        W32815  16.659  11.830  10.495
73313W        W32816  18.560   3.314  12.461
73314W        W32817  13.312  28.997  12.075
73315W        W32818   2.341  29.458   1.342
73316W        W32819  25.531  10.779   3.843
73317W        W32820  25.023  42.450   3.356
73318W        W32821  27.450  15.723   9.960
73319W        W32822  17.579   5.705  11.902
73320W        W32823  44.330  34.397  11.555
73321W        W32824   9.723  41.022   3.312
73322W        W32825   8.341   0.907  11.527
73323W        W32826  11.749  27.672  13.489
73324W        W32827   5.396   5.215  14.355
73325W        W32828  33.045  43.789   1.283
73326W        W32829   3.355   1.953   2.352
73327W        W32830  39.321   6.677  10.521
73328W        W32831  33.028  28.566  11.461
73329W        W32832  16.672   5.744  10.953
73330W        W32833  11.857  23.491   2.357
73331W        W32834   4.857  36.954  14.514
73332W        W32835  24.162  43.970  14.388
73333W        W32836  35.880   4.248   4.343
73334W        W32837  19.053  41.876   1.752
73335W        W32838  20.551  22.598  14.458
73336W        W32839  29.135  26.145   0.439
73337W        W32840  24.721  43.949  10.087
73338W        W32841  28.533  39.524  12.532
73339W        W32842   7.769  10.345  12.990
73340W        W32843   9.382  18.721   4.283
73341W        W32844  28.144  34.524   0.367
73342W        W32845   3.769   0.797   4.141
73343W        W32846   5.738   3.221  11.592
73344W        W32847  21.176  20.736   3.156
73345W        W32848  34.435  27.459   2.702
73346W        W32849   4.258  31.458  10.953
73347W        W32850   6.184  10.204   4.764
73348W        W32851  30.586   6.385   2.297
73349W        W32852  30.496  28.444   0.880
73350W        W32853  28.614  32.618  11.418
73351W        W32854  24.517  33.051  14.821
73352W        W32855  38.891   1.745   3.176
73353W        W32856   9.235  37.343   4.119
73354W        W32857  29.932  40.498   5.179
73355W        W32858  40.947  15.209  12.028
73356W        W32859  35.890  44.764   2.682
73357W        W32860  11.259   3.907   2.254
73358W        W32861  41.526  29.064   3.350
73359W        W32862   0.302  17.092  14.368
73360W        W32863   9.658   4.401  13.849
73361W        W32864  23.071  19.749   1.782
73362W        W32865   4.749   6.211  10.508
73363W        W32866  12.666  34.047   1.287
73364W        W32867  40.305  26.182  10.971
73365W        W32868  37.464   9.160  13.897
73366W        W32869  34.990  41.488   4.688
73367W        W32870   8.840  24.135  12.945
73368W        W32871  42.444  24.579  14.821
73369W        W32872   6.243   0.315   2.335
73370W        W32873  42.978  10.786   2.733
73371W        W32874  15.820  39.816   4.798
73372W        W32875  29.445  44.838  13.329
73373W        W32876  13.634  26.076  11.609
73374W        W32877  11.677  38.876  10.888
73375W        W32878  17.149   8.847  13.387
73376W        W32879  20.149   5.700   0.413
73377W        W32880   5.878  10.314   0.913
73378W        W32881   4.829  32.496  12.891
73379W        W32882  23.144  25.563   2.349
73380W        W32883   1.858  15.645   4.597
73381W        W32884  36.044  22.624  14.825
73382W        W32885  42.313  44.001   1.300
73383W        W32886  34.496  38.471   1.339
73384W        W32887   7.400   1.403  10.582
73385W        W32888  30.969  44.305   3.741
73386W        W32889  22.742  18.081  11.483
73387W        W32890   3.398   4.352   3.356
73388W        W32891  14.732  24.496   3.260
73389W        W32892  30.020  20.256   1.360
73390W        W32893  27.648  27.959  10.975
73391W        W32894   6.804  28.984  14.843
73392W        W32895   3.711  10.261   4.266
73393W        W32896   9.331  18.190  10.152
73394W        W32897  23.516  39.023  11.425
73395W        W32898  25.500  18.294  12.562
73396W        W32899  11.202  15.304   2.259
73397W        W32900  39.033  17.786  12.361
73398W        W32901  29.438  18.050  14.018
73399W        W32902  23.114  28.663   3.294
73400W        W32903   0.887  13.838  12.900
73401W        W32904  26.599  31.917  12.440
73402W        W32905  34.526  42.300  14.993
73403W        W32906  26.143  20.244  14.825
73404W        W32907   0.956   0.346  10.446
73405W        W32908  33.403   2.839   4.131
73406W        W32909  37.390  10.240  13.904
73407W        W32910  32.408   0.976  10.929
73408W        W32911  18.612  10.828   2.337
73409W        W32912  30.001  24.027  13.830
73410W        W32913  19.546  15.810   0.803
73411W        W32914  43.377  32.091  13.416
73412W        W32915   7.379  41.984   4.286
73413W        W32916  16.746   2.761  10.910
73414W        W32917  37.866   8.693   1.753
73415W        W32918  30.624  33.555  14.509
73416W        W32919  42.376  15.108  10.598
73417W        W32920  39.461  34.891  13.465
73418W        W32921  32.926  25.100  12.402
73419W        W32922  41.792  32.993  11.493
73420W        W32923  40.509  36.967  11.002
73421W        W32924   5.269  16.601   5.270
73422W        W32925  35.875  44.763  10.998
73423W        W32926  32.615   5.749  13.980
73424W        W32927  28.470  23.729  13.508
73425W        W32928  37.505  23.670   4.291
73426W        W32929  30.589  20.268   3.308
73427W        W32930  30.148  27.550   1.406
73428W        W32931  35.504   3.321  14.768
73429W        W32932  40.818  14.796  10.563
73430W        W32933  39.383  14.272  11.114
73431W        W32934   8.776  41.366  11.943
73432W        W32935  22.166  16.730  14.398
73433W        W32936  13.345   4.749   1.720
73434W        W32937  19.237  38.406  12.400
73435W        W32938   8.170  18.234   0.898
73436W        W32939  33.922   7.402   4.689
73437W        W32940  26.478   6.372   2.823
73438W        W32941  39.465  25.571   3.346
73439W        W32942  13.619  22.619  12.858
73440W        W32943  16.676   5.342  11.470
73441W        W32944  24.687  16.260   3.296
73442W        W32945  19.536  24.139  11.472
73443W        W32946  25.182  37.950   1.301
73444W        W32947  36.913   8.357  14.300
73445W        W32948  29.026  12.319   0.428
73446W        W32949  17.144  23.647  14.821
73447W        W32950  12.706  41.327   2.893
73448W        W32951  14.740   1.413  11.570
73449W        W32952  39.554  44.002   0.924
73450W        W32953  29.637  26.610   3.360
73451W        W32954   2.929  32.951   4.256
73452W        W32955   7.704   2.787   1.756
73453W        W32956  29.571  29.025  14.465
73454W        W32957   7.389  19.619   4.194
73455W        W32958   1.820  30.967   1.369
73456W        W32959  11.257  39.510  14.446
73457W        W32960  12.206  22.563  14.458
73458W        W32961  34.870  30.546  14.294
73459W        W32962   6.364  10.682   1.920
73460W        W32963  36.973  32.120  12.470
73461W        W32964  13.324   2.391   0.456
73462W        W32965  32.905  32.889  12.049
73463W        W32966  41.916  36.864  13.818
73464W        W32967  30.160  15.585  14.383
73465W        W32968  44.758  28.584   4.299
73466W        W32969  41.307   2.866   3.196
73467W        W32970  19.771  32.051  13.048
73468W        W32971  20.134  34.062   3.650
73469W        W32972  32.424  20.625   3.284
73470W        W32973  37.056   5.822   3.359
73471W        W32974  17.727  32.411   0.967
73472W        W32975   5.233  34.419  13.001
73473W        W32976  26.153  41.408  14.421
73474W        W32977  22.702  12.659  11.489
73475W        W32978  41.292  10.164  10.630
73476W        W32979  37.884  31.635   4.164
73477W        W32980   3.345  41.955  11.070
73478W        W32981  11.288  11.169   3.769
73479W        W32982  38.529  31.085   0.468
73480W        W32983   2.813  37.884  10.594
73481W        W32984  24.126  34.542  14.401
73482W        W32985  29.012  13.784   2.746
73483W        W32986  25.551  31.052  12.361
73484W        W32987  34.589  39.988   0.284
73485W        W32988  12.247  27.519  13.429
73486W        W32989  30.595  34.004   3.706
73487W        W32990  38.460  39.381   1.785
73488W        W32991  14.764   9.732   0.846
73489W        W32992  41.364  30.059   1.421
73490W        W32993   6.691  18.293  13.877
73491W        W32994   2.796   8.720  10.962
73492W        W32995   7.715   8.332  13.385
73493W        W32996  16.760  21.176  14.001
73494W        W32997  20.704   4.417   4.350
73495W        W32998  20.129  12.157   0.762
73496W        W32999   7.898  27.089  10.497
73497W        W33000   9.838  13.344   1.809
73498W        W33001   1.857  11.325  13.019
73499W        W33002  19.142   8.780   2.899
73500W        W33003  38.914  29.095  10.041
73501W        W33004  14.817  10.719  13.435
73502W        W33005  40.892  24.522  13.460
73503W        W33006  37.369  21.615  12.445
73504W        W33007  39.981  20.127   3.273
73505W        W33008  10.322  16.689   1.866
73506W        W33009   2.377  16.120  14.832
73507W        W33010  28.466  11.867   1.787
73508W        W33011   8.307  30.099   4.281
73509W        W33012  34.000   2.355   4.804
73510W        W33013   5.737  43.430  12.890
73511W        W33014   7.291  36.550   5.109
73512W        W33015  20.638  40.847  12.399
73513W        W33016  31.929  26.032  10.061
73514W        W33017  16.108   6.217   4.135
73515W        W33018   9.658  27.180   4.247
73516W        W33019  25.097  19.543   1.221
73517W        W33020  41.999   7.378  14.988
73518W        W33021  10.813  14.617   3.811
73519W        W33022   6.917  24.609  12.527
73520W        W33023   7.286  41.787  10.978
73521W        W33024  40.454  25.046   3.705
73522W        W33025  21.633  26.623   4.620
73523W        W33026  22.079  19.622  10.972
73524W        W33027  42.796  39.327  11.506
73525W        W33028  11.246  12.344  14.418
73526W        W33029   1.318  20.710   1.348
73527W        W33030  28.030  11.838  10.408
73528W        W33031  36.045  29.134   1.408
73529W        W33032  35.906  37.914   1.869
73530W        W33033   9.657  22.157  10.450
73531W        W33034  41.465  15.712   2.185
73532W        W33035  33.063  40.359   2.390
73533W        W33036  26.605   0.976   3.686
73534W        W33037  22.237  24.644  10.982
73535W        W33038   1.257  37.861  13.498
73536W        W33039  31.911  34.079  12.835
73537W        W33040  22.644  21.151  11.510
73538W        W33041  18.055  17.283   4.311
73539W        W33042  40.327  39.970   2.880
73540W        W33043   5.833   3.428   1.725
73541W        W33044  33.556  18.718  14.324
73542W        W33045  19.172  39.872   0.274
73543W        W33046   3.236   0.914   3.651
73544W        W33047  25.490  30.454   1.342
73545W        W33048  44.872  39.983   1.218
73546W        W33049  22.743   5.876  11.873
73547W        W33050  13.807  11.657  14.781
73548W        W33051   8.355  32.076   0.766
73549W        W33052  19.752  33.433  13.854
73550W        W33053  11.674   1.796  10.542
73551W        W33054  16.200  26.515   3.648
73552W        W33055  34.485  36.008  14.342
73553W        W33056  21.060   7.667  12.560
73554W        W33057   6.255  26.098   4.662
73555W        W33058  14.750  12.254  12.079
73556W        W33059   7.359  35.553  11.896
73557W        W33060   3.946  40.355   2.793
73558W        W33061  41.856  38.983   1.833
73559W        W33062  37.892  12.311   1.282
73560W        W33063  15.780   0.749   3.344
73561W        W33064  19.067  31.104  13.026
73562W        W33065  36.473  11.361   0.437
73563W        W33066  30.092  21.091   4.784
73564W        W33067   4.823  28.181  13.037
73565W        W33068  22.623  12.211   4.298
73566W        W33069  19.098  39.341  13.040
73567W        W33070  15.813  21.053   3.677
73568W        W33071  13.272  12.730   3.343
73569W        W33072  30.979  22.218   3.771
73570W        W33073  12.797  36.089  10.517
73571W        W33074  31.428  35.890  13.530
73572W        W33075  39.880  11.164   1.907
73573W        W33076  39.395   3.397  12.837
73574W        W33077   0.445  19.643  12.929
73575W        W33078   7.366   7.907  12.565
73576W        W33079  13.661   2.834  13.511
73577W        W33080  40.944  34.015   2.321
73578W        W33081   8.771  29.635   4.215
73579W        W33082  31.128  13.114  10.606
73580W        W33083  44.801  11.339   2.772
73581W        W33084   0.877  25.971  13.402
73582W        W33085   7.340  29.936   3.634
73583W        W33086  14.105  17.615   2.410
73584W        W33087  10.164  30.997   2.397
73585W        W33088  29.016  27.621  14.494
73586W        W33089  10.307  35.079  14.029
73587W        W33090  19.572  23.660   4.139
73588W        W33091   4.278  41.975   4.196
73589W        W33092  13.269   9.831   3.708
73590W        W33093  33.916  16.671  12.945
73591W        W33094  38.456  23.689   4.270
73592W        W33095  30.519  22.615   2.763
73593W        W33096   2.404  40.934   1.223
73594W        W33097  41.295  29.027   4.720
73595W        W33098   8.283  23.039  14.781
73596W        W33099   4.329  26.585   2.403
73597W        W33100  29.142  42.841   2.354
73598W        W33101  16.212  18.248  10.578
73599W        W33102  22.594  26.084   3.370
73600W        W33103   2.420   1.838   3.835
73601W        W33104   0.917  17.734   1.796
73602W        W33105  16.116   3.266  12.032
73603W        W33106  12.844  24.494   2.380
73604W        W33107  38.886  32.993  11.536
73605W        W33108  10.854   3.298   3.249
73606W        W33109  28.521   6.199  13.884
73607W        W33110   8.656  23.028   4.695
73608W        W33111   9.290  28.069   1.811
73609W        W33112  35.033  14.186  13.355
73610W        W33113  30.627  13.213  12.082
73611W        W33114  39.998   6.767  14.830
73612W        W33115  22.204   3.897  13.539
73613W        W33116   5.758  10.147   4.157
73614W        W33117  15.769  44.762   2.850
73615W        W33118  14.185   5.285  13.529
73616W        W33119  44.828  36.512  14.452
73617W        W33120  37.495  37.880  13.384
73618W        W33121  22.246  44.821   1.380
73619W        W33122   1.733  18.096  11.932
73620W        W33123  38.377   6.882  14.819
73621W        W33124   2.784  17.151   2.840
73622W        W33125  43.338  41.958   0.398
73623W        W33126   4.429  44.925   3.761
73624W        W33127   1.784   0.972   2.743
73625W        W33128  15.164  32.432   1.420
73626W        W33129  23.043   1.882   0.726
73627W        W33130   9.393  25.098   2.234
73628W        W33131  16.082  33.626  10.522
73629W        W33132  26.177   3.322  11.937
73630W        W33133  18.614   8.297   0.765
73631W        W33134  32.460   7.397   3.710
73632W        W33135  34.415  21.176   4.734
73633W        W33136   5.268  24.982  10.911
73634W        W33137  24.686  42.420   9.528
73635W        W33138  37.568   2.877  13.968
73636W        W33139  19.623  11.706  14.406
73637W        W33140   6.186   3.874  14.017
73638W        W33141  17.676  16.167   1.759
73639W        W33142   6.185  13.333   2.812
73640W        W33143  12.794  38.535   0.929
73641W        W33144  30.128   6.754   3.248
73642W        W33145   8.172   2.861   3.228
73643W        W33146  39.364  16.693  11.393
73644W        W33147  31.965  19.106  12.835
73645W        W33148  20.215  16.580  14.447
73646W        W33149  10.264  14.646  10.088
73647W        W33150  23.126  32.405  10.911
73648W        W33151  33.992  21.187   4.271
73649W        W33152  22.211  34.902  11.908
73650W        W33153   8.822   6.259  14.959
73651W        W33154  36.985  18.146  14.514
73652W        W33155  16.610  31.593   2.798
73653W        W33156  17.248  36.568   1.870
73654W        W33157  21.575   3.224   0.246
73655W        W33158  44.463  26.496  11.958
73656W        W33159  38.357   4.428   1.362
73657W        W33160  31.515  39.888  10.547
73658W        W33161  38.440  35.581   1.384
73659W        W33162  16.622  41.994  11.963
73660W        W33163  22.609  27.672  14.002
73661W        W33164  37.492  23.629   1.804
73662W        W33165  36.997   9.223   1.301
73663W        W33166  18.064   3.442   4.171
73664W        W33167  42.306  25.655  10.932
73665W        W33168  30.002  38.415  11.089
73666W        W33169  39.397  33.392   4.154
73667W        W33170   6.187   3.259  10.043
73668W        W33171  10.307  18.744   5.201
73669W        W33172  40.503   1.818  12.868
73670W        W33173  26.509  25.523  12.406
73671W        W33174  18.678  17.766  10.958
73672W        W33175  22.059  18.559  14.403
73673W        W33176   0.900   4.396   0.366
73674W        W33177  27.516  26.126   0.856
73675W        W33178   5.875   2.238   4.600
73676W        W33179   2.300  24.014   1.217
73677W        W33180  17.105  32.984   0.246
73678W        W33181  23.705   1.840   2.802
73679W        W33182   7.822  24.991   2.262
73680W        W33183  11.336  35.517  13.416
73681W        W33184  16.804  39.021  12.927
73682W        W33185  10.305  28.483   4.298
73683W        W33186   8.232   0.299  11.550
73684W        W33187  14.251  29.938   1.706
73685W        W33188   3.951  17.695  14.789
73686W        W33189  35.358  39.494  10.528
73687W        W33190  43.314   9.818   4.826
73688W        W33191   4.347  38.492   2.364
73689W        W33192  18.082  14.751  11.061
73690W        W33193  11.283   1.440  11.117
73691W        W33194  20.117   8.870  14.278
73692W        W33195  27.947  34.535   1.278
73693W        W33196  15.784  17.700  11.127
73694W        W33197  20.096  18.661   3.331
73695W        W33198   5.296  31.004  13.842
73696W        W33199   9.736  22.503   0.266
73697W        W33200   7.397  39.536  11.115
73698W        W33201  13.174  24.579  10.438
73699W        W33202  42.526  44.813   0.908
73700W        W33203   9.210  11.366  10.592
73701W        W33204  13.710  40.376  11.536
73702W        W33205  43.898  17.284   3.177
73703W        W33206   0.982  14.191  11.420
73704W        W33207  28.152  34.402  10.518
73705W        W33208  29.028  26.969   2.327
73706W        W33209  35.592  31.082   4.694
73707W        W33210  14.231  33.069   5.686
73708W        W33211  16.170  23.027  14.809
73709W        W33212   1.457  23.710  11.448
73710W        W33213  24.028   3.879   3.185
73711W        W33214  33.956  12.616  10.417
73712W        W33215   5.900   1.815  12.917
73713W        W33216  35.860  42.982   3.769
73714W        W33217  35.014  17.654   3.276
73715W        W33218  22.581  23.500   4.176
73716W        W33219  27.664  15.170  14.900
73717W        W33220  44.810   0.883  12.922
73718W        W33221  42.831  41.022  13.520
73719W        W33222   6.731  16.103  14.913
73720W        W33223  29.596  32.019   0.343
73721W        W33224  20.064   1.376   3.368
73722W        W33225  25.030  13.150   4.311
73723W        W33226  13.117  17.157  13.435
73724W        W33227  36.542  24.584   2.837
73725W        W33228  30.047  38.514   2.191
73726W        W33229  43.920  16.136  13.418
73727W        W33230  25.133  38.373  11.062
73728W        W33231  25.198  32.428  10.629
73729W        W33232   9.796  35.956   3.803
73730W        W33233   9.393  43.957   2.245
73731W        W33234  31.957  41.514  10.440
73732W        W33235   5.915  15.307  13.023
73733W        W33236  10.755  44.499  14.932
73734W        W33237  33.618  38.459  14.403
73735W        W33238  28.963  19.658  11.925
73736W        W33239  44.362  33.080   1.895
73737W        W33240  28.614  24.138   3.200
73738W        W33241   4.258   8.215  13.062
73739W        W33242  14.775  24.086   0.282
73740W        W33243  28.671  39.064  12.830
73741W        W33244  44.301  29.153  14.886
73742W        W33245  11.134  39.425  12.901
73743W        W33246   9.725  40.414   3.363
73744W        W33247  15.815   5.225   4.180
73745W        W33248  16.672  35.904  11.523
73746W        W33249   2.431  31.457  12.881
73747W        W33250  19.055  31.599  14.894
73748W        W33251  40.858  17.580   1.230
73749W        W33252   3.237   7.911  10.499
73750W        W33253  11.328  38.489  13.510
73751W        W33254  31.930  38.864  13.022
73752W        W33255  24.532  33.935   4.676
73753W        W33256  38.028  20.183  12.432
73754W        W33257   7.707  13.289  12.082
73755W        W33258  21.219  38.912  10.919
73756W        W33259   6.921   9.186   1.344
73757W        W33260  21.715   4.846   3.694
73758W        W33261  30.054   5.889   4.690
73759W        W33262   4.361  14.817   0.906
73760W        W33263  37.351  25.666   3.279
73761W        W33264  38.893  44.493  11.886
73762W        W33265  28.547  37.458  14.447
73763W        W33266  18.152  24.990  13.364
73764W        W33267  17.174  22.055  10.645
73765W        W33268  10.695  18.285  13.912
73766W        W33269   3.850  40.973  14.496
73767W        W33270  10.197  24.564  11.091
73768W        W33271   2.875  41.371  12.461
73769W        W33272  20.183  36.550   1.339
73770W        W33273  10.758  44.773   1.429
73771W        W33274   9.660  35.916  11.975
73772W        W33275   1.322  33.938  11.971
73773W        W33276  27.956  11.802   2.767
73774W        W33277  19.057  42.985  11.495
73775W        W33278   2.894  32.446   3.156
73776W        W33279  43.355  22.067  12.050
73777W        W33280  14.335   4.872  13.046
73778W        W33281  38.464  30.494  10.912
73779W        W33282   7.415  35.095  14.423
73780W        W33283  42.967   2.787   3.635
73781W        W33284  27.954  43.425  10.539
73782W        W33285  24.502  32.119   2.224
73783W        W33286   6.860  25.529  14.890
73784W        W33287   8.790  34.068  13.961
73785W        W33288  12.695  35.412  11.571
73786W        W33289  33.132  14.169   3.378
73787W        W33290   6.715   0.330  14.411
73788W        W33291  44.008  38.934  14.284
73789W        W33292  30.958  13.336   0.816
73790W        W33293   1.973  18.715  13.871
73791W        W33294   2.945  16.143  13.434
73792W        W33295  33.621   1.831  13.406
73793W        W33296   0.941  33.091   0.903
73794W        W33297  18.093   7.230   0.282
73795W        W33298  44.923   2.328  11.960
73796W        W33299  19.218   1.834   2.689
73797W        W33300  42.997  21.035  12.047
73798W        W33301  40.522  21.210  11.012
73799W        W33302  41.029   4.889  14.432
73800W        W33303  21.173  41.039   2.729
73801W        W33304  25.527  10.314  11.932
73802W        W33305   6.780  22.202  12.000
73803W        W33306  16.598  38.849   0.817
73804W        W33307   3.243  39.523  10.639
73805W        W33308  20.141  24.596   1.228
73806W        W33309   0.344  10.176   3.153
73807W        W33310  14.160  14.112  13.521
73808W        W33311   7.173   6.815   0.883
73809W        W33312  19.560  44.986  11.037
73810W        W33313  16.185  42.831  14.810
73811W        W33314  21.652  18.128   2.695
73812W        W33315   4.230  14.601  13.046
73813W        W33316   3.256  44.866   2.787
73814W        W33317   8.312  27.004  14.366
73815W        W33318  31.419  35.082   4.322
73816W        W33319  10.685   0.945   2.361
73817W        W33320  28.556  42.429   3.679
73818W        W33321  13.726  43.782  12.826
73819W        W33322  10.686  10.277   2.845
73820W        W33323  30.013   3.290  12.054
73821W        W33324  19.660  13.182   2.825
73822W        W33325  18.227  39.545  11.082
73823W        W33326   3.431   1.266   2.727
73824W        W33327   6.277  39.988   2.766
73825W        W33328  42.439  34.414  13.520
73826W        W33329  15.780  22.113   5.162
73827W        W33330  39.024   7.703  12.007
73828W        W33331  37.439  31.479   1.771
73829W        W33332  25.560  31.584  12.554
73830W        W33333  41.336   4.718  11.870
73831W        W33334  22.016  15.110   4.733
73832W        W33335  16.203  19.644   5.149
73833W        W33336  16.687  10.223  11.071
73834W        W33337  32.056  14.810  14.278
73835W        W33338  35.877  15.666  14.795
73836W        W33339  27.968  26.135   1.326
73837W        W33340  31.116  16.141  12.426
73838W        W33341  31.897  20.666   2.806
73839W        W33342   2.805  14.604   0.834
73840W        W33343   7.358  21.549   2.368
73841W        W33344   8.786  13.252   2.340
73842W        W33345  42.361  44.011   2.275
73843W        W33346  15.711  28.641  12.919
73844W        W33347  29.072  13.826  13.025
73845W        W33348  36.485  19.734   1.440
73846W        W33349  11.821   5.194  13.541
73847W        W33350  12.738   0.363  12.067
73848W        W33351  24.012  43.784  12.945
73849W        W33352  33.482  38.999   2.332
73850W        W33353  12.307  17.671  13.873
73851W        W33354   9.876  13.756   0.766
73852W        W33355   3.273  11.129   1.445
73853W        W33356  21.168  18.642  14.797
73854W        W33357  22.036   1.896  14.920
73855W        W33358  31.539  24.505   4.246
73856W        W33359  32.134  23.205  13.002
73857W        W33360  22.597   5.747  14.459
73858W        W33361  24.568  18.653   2.722
73859W        W33362  33.386  24.723  14.380
73860W        W33363  44.436   5.365   1.697
73861W        W33364  36.486  17.301   1.932
73862W        W33365  40.330  25.711  10.602
73863W        W33366   0.284  28.969   3.232
73864W        W33367  37.078  44.324   4.656
73865W        W33368  40.877  31.985  13.798
73866W        W33369  19.637   5.734  12.915
73867W        W33370  34.935  43.843   4.678
73868W        W33371  22.527  24.146  11.085
73869W        W33372   6.307  19.567   2.707
73870W        W33373  23.701  18.159   0.356
73871W        W33374  20.257  10.789   0.268
73872W        W33375  37.563   1.413  14.358
73873W        W33376  27.520   2.375  10.448
73874W        W33377  15.628  28.121   4.153
73875W        W33378  16.129  14.277   4.615
73876W        W33379   5.877  39.007  11.593
73877W        W33380   3.251  44.846  14.454
73878W        W33381   2.934   6.185  13.977
73879W        W33382  31.030   8.222   3.358
73880W        W33383   6.787  30.164  12.036
73881W        W33384  22.736   6.225   5.310
73882W        W33385  23.052  34.895   0.439
73883W        W33386  25.477   6.280   3.853
73884W        W33387  15.156  43.912  11.544
73885W        W33388  39.822   8.235  13.446
73886W        W33389  37.902   2.773  14.922
73887W        W33390   3.886  35.519  12.878
73888W        W33391  15.806   7.364  10.085
73889W        W33392  26.536  37.464  13.010
73890W        W33393   3.393  38.428  12.023
73891W        W33394  28.670   4.299   3.360
73892W        W33395  27.633   8.894  13.466
73893W        W33396  23.532   0.979   2.730
73894W        W33397  24.003   3.346   2.233
73895W        W33398  25.542  19.154  12.475
73896W        W33399   4.233  44.962  12.969
73897W        W33400  14.594  43.825  12.998
73898W        W33401   3.368  42.889   1.434
73899W        W33402  41.420   1.417   0.910
73900W        W33403  35.863  37.336   0.891
73901W        W33404  18.054  42.803   0.801
73902W        W33405   2.830  37.839   3.233
73903W        W33406   1.849  13.714  13.948
73904W        W33407   5.786  26.175   0.337
73905W        W33408  35.031   0.397   0.765
73906W        W33409   1.469  43.804   4.145
73907W        W33410  26.093  28.172   4.285
73908W        W33411  36.486   1.398  13.545
73909W        W33412  29.443  38.057   3.797
73910W        W33413  20.570  11.716  11.890
73911W        W33414  38.970  43.419  13.544
73912W        W33415   8.859  19.218   0.760
73913W        W33416  33.457   3.262  11.601
73914W        W33417   9.241  19.208   1.311
73915W        W33418  29.439  15.183  11.571
73916W        W33419   6.185  24.583  14.306
73917W        W33420   0.409  29.980   3.833
73918W        W33421  13.633   4.238  10.645
73919W        W33422   3.835  27.451  14.906
73920W        W33423  17.734  17.692   2.406
73921W        W33424  23.997  19.665  13.522
73922W        W33425  42.836  19.627  11.974
73923W        W33426  40.341  43.334   0.321
73924W        W33427  36.533  27.475   1.935
73925W        W33428  44.857  14.259   2.399
73926W        W33429  43.909  35.489   1.759
73927W        W33430  34.079  23.502   2.298
73928W        W33431  15.285  13.667   4.763
73929W        W33432  37.484  24.498   3.817
73930W        W33433  36.410  33.001   4.727
73931W        W33434   7.205  38.436  11.384
73932W        W33435  21.165  29.456   2.400
73933W        W33436  38.432  20.598  13.479
73934W        W33437  43.836  33.011   2.743
73935W        W33438  25.674  43.828  12.020
73936W        W33439  35.071   4.903  12.443
73937W        W33440  44.877  23.569  14.380
73938W        W33441  41.303  29.611   4.651
73939W        W33442  19.212  17.689   2.854
73940W        W33443  19.064  17.695   1.764
73941W        W33444  28.153   1.240   3.631
73942W        W33445  35.064  23.661   4.208
73943W        W33446  42.384  41.860  13.370
73944W        W33447  44.347  26.468  10.887
73945W        W33448  39.995  41.449   2.783
73946W        W33449  29.105  32.913   0.341
73947W        W33450  21.122  21.653   3.826
73948W        W33451  37.489  35.943   4.716
73949W        W33452  41.513   5.287  13.322
73950W        W33453  13.653  11.198  13.460
73951W        W33454  37.407   4.204   3.776
73952W        W33455  24.511  18.273  13.497
73953W        W33456  22.674   3.796   1.365
73954W        W33457  17.691  19.285  13.822
73955W        W33458  43.487  44.805  10.554
73956W        W33459  19.770   7.846   2.790
73957W        W33460  10.781   4.770  13.373
73958W        W33461  40.335   0.264   0.789
73959W        W33462  43.982  37.049   0.247
73960W        W33463   9.191   8.169   0.951
73961W        W33464  16.078  14.159  11.904
73962W        W33465  36.523  30.012  12.391
73963W        W33466  28.028  35.361   4.603
73964W        W33467  19.060  39.374   1.819
73965W        W33468  24.027  13.210   2.322
73966W        W33469  32.056  33.382   2.383
73967W        W33470   9.294  18.252   3.767
73968W        W33471  38.024  20.037  14.475
73969W        W33472  29.486  10.644  10.642
73970W        W33473  26.614  36.384  11.989
73971W        W33474  28.983  11.291   1.278
73972W        W33475  20.597  34.883   0.965
73973W        W33476  43.823  28.658   0.453
73974W        W33477   6.414  38.484  11.058
73975W        W33478  40.480  41.859   4.262
73976W        W33479  32.476  18.126   2.757
73977W        W33480   8.319  40.436   2.178
73978W        W33481  11.250   7.361   1.880
73979W        W33482  16.718  29.453  12.482
73980W        W33483  37.403  11.264  11.497
73981W        W33484   7.291  15.753   0.275
73982W        W33485  22.609   8.169   1.832
73983W        W33486  14.188  32.520   3.297
73984W        W33487  12.807  25.658  12.418
73985W        W33488  11.314  44.853   4.201
73986W        W33489   7.302  30.010   1.873
73987W        W33490   0.938  30.963   0.250
73988W        W33491  43.292  20.233   2.416
73989W        W33492  34.893  13.201   1.900
73990W        W33493  39.456   7.693   9.532
73991W        W33494  40.483  38.870   4.275
73992W        W33495  36.583  32.493   0.357
73993W        W33496   0.943  24.542   5.121
73994W        W33497  42.866  43.418  14.018
73995W        W33498  35.395  32.534   2.809
73996W        W33499  35.453  34.894   1.437
73997W        W33500  13.663  34.063  13.328
73998W        W33501  40.377  24.548  11.012
73999W        W33502  30.594   1.883  13.431
74000W        W33503  20.696   1.398   4.831
74001W        W33504  31.481  12.309  11.008
74002W        W33505   6.724   5.338  11.948
74003W        W33506  21.178  29.140   3.215
74004W        W33507  36.392   7.742   0.272
74005W        W33508  20.668  15.648   4.617
74006W        W33509  37.016  24.489  11.611
74007W        W33510  10.220  32.963   2.744
74008W        W33511  28.489  19.556   3.313
74009W        W33512  43.851   3.455   4.638
74010W        W33513  11.655  32.611   0.832
74011W        W33514  43.489  11.176   4.167
74012W        W33515  30.488  33.958   2.270
74013W        W33516  22.589  42.475   0.363
74014W        W33517  17.152  33.443  12.345
74015W        W33518   4.904  25.675   0.821
74016W        W33519  16.711  26.610  13.973
74017W        W33520  27.620  42.815  13.425
74018W        W33521  19.541  33.900   2.876
74019W        W33522  12.809  38.553   2.182
74020W        W33523  11.858  35.914  11.967
74021W        W33524  34.490  44.311  14.328
74022W        W33525   6.799  29.456   2.815
74023W        W33526   6.237  12.175  11.863
74024W        W33527  26.973  35.977   3.787
74025W        W33528  30.546   2.339  13.385
74026W        W33529  13.202  41.804   3.636
74027W        W33530  10.875  39.341   0.873
74028W        W33531  33.604   8.382  13.973
74029W        W33532   4.707  43.968  13.970
74030W        W33533  30.093   6.702  13.020
74031W        W33534  12.354  42.876   2.890
74032W        W33535  21.104  28.642   4.226
74033W        W33536   2.739  41.440   4.187
74034W        W33537  18.746  42.479  14.863
74035W        W33538  20.706  28.680  10.475
74036W        W33539  10.282  26.020   4.257
74037W        W33540  28.027  40.809  13.396
74038W        W33541   6.828   6.913  13.344
74039W        W33542  11.728  11.630   0.778
74040W        W33543   6.781   8.723   4.333
74041W        W33544  21.680  29.581  12.885
74042W        W33545  19.713  26.190   2.363
74043W        W33546  44.011  17.683   9.559
74044W        W33547   2.803  41.889  14.824
74045W        W33548  17.169  25.208   3.174
74046W        W33549   8.805  18.129   1.845
74047W        W33550  21.141   1.830  14.332
74048W        W33551   9.315  30.053   1.278
74049W        W33552  31.438  26.668   2.302
74050W        W33553  19.624  32.564  12.037
74051W        W33554   6.907  12.289  13.011
74052W        W33555  30.031   6.365  14.335
74053W        W33556  16.274  32.109  11.435
74054W        W33557  15.625  18.675   3.831
74055W        W33558  31.424  31.077   2.780
74056W        W33559  11.800  11.325  12.389
74057W        W33560  26.015   2.381  11.940
74058W        W33561  12.312   6.918  11.551
74059W        W33562  32.002  42.011  13.855
74060W        W33563  38.003   7.338  14.954
74061W        W33564   8.235  36.581  11.925
74062W        W33565   5.412  20.068  14.825
74063W        W33566  24.044   9.808  11.420
74064W        W33567  17.115   3.304   4.781
74065W        W33568  24.595   6.779  14.882
74066W        W33569  23.688  22.049  10.438
74067W        W33570  10.301  10.353  13.889
74068W        W33571   2.252  18.780  10.055
74069W        W33572  39.389  30.498   5.266
74070W        W33573  34.949  14.126  13.029
74071W        W33574   3.864  12.822  14.768
74072W        W33575  20.555  44.834   9.645
74073W        W33576  16.242  41.910  12.569
74074W        W33577  35.408  36.559  10.573
74075W        W33578  20.595  31.023   4.700
74076W        W33579  12.669  36.581  12.422
74077W        W33580  11.802  43.908  10.999
74078W        W33581   5.263  33.448   3.178
74079W        W33582  43.950   5.223  11.557
74080W        W33583  13.336  18.548  12.929
74081W        W33584  17.226  10.218  12.436
74082W        W33585  25.106  39.955   1.870
74083W        W33586  15.279   8.304  13.482
74084W        W33587  36.511  33.130   0.736
74085W        W33588  37.560  38.550   0.846
74086W        W33589  43.874  20.139   1.887
74087W        W33590  29.608  39.046  11.486
74088W        W33591  20.607  15.682   2.339
74089W        W33592  37.347  21.259  12.439
74090W        W33593  19.083   0.860  11.977
74091W        W33594   6.922  32.622   2.291
74092W        W33595  10.219  31.439  11.931
74093W        W33596  13.711  42.940  13.473
74094W        W33597   6.295  19.774  14.281
74095W        W33598  43.492  14.787   1.229
74096W        W33599  33.472  38.361   3.232
74097W        W33600  11.628   0.908   2.828
74098W        W33601  21.678  10.370   1.402
74099W        W33602  25.972  21.043   1.308
74100W        W33603   1.241  20.763   2.272
74101W        W33604  38.370  29.143   2.200
74102W        W33605  20.573  31.911   2.242
74103W        W33606  44.369  40.013   4.651
74104W        W33607   8.887   3.770  12.930
74105W        W33608   4.778  39.029  10.556
74106W        W33609  21.587  33.482   1.781
74107W        W33610   2.317  28.522   2.779
74108W        W33611   7.192  21.741  12.358
74109W        W33612  24.608  33.888  14.443
74110W        W33613   1.844  28.091  14.828
74111W        W33614   5.360  18.173  12.895
74112W        W33615  19.771  15.598   2.406
74113W        W33616  29.161  36.376   1.366
74114W        W33617  41.427  29.089  12.972
74115W        W33618  34.564  31.063   2.743
74116W        W33619  30.139  28.952  12.386
74117W        W33620  28.641   5.837  12.974
74118W        W33621   3.883  40.869  13.430
74119W        W33622  17.210  33.574   2.788
74120W        W33623  44.461  41.800  11.410
74121W        W33624   0.956  24.191   0.824
74122W        W33625  14.801  16.724  11.526
74123W        W33626  28.488  13.292  12.513
74124W        W33627  25.153  19.254   2.401
74125W        W33628  10.654  19.622  13.539
74126W        W33629  32.568  23.238   2.820
74127W        W33630  15.310  31.951  11.401
74128W        W33631  39.835   8.763  11.967
74129W        W33632  39.060  25.511  12.052
74130W        W33633  19.263  38.498  13.495
74131W        W33634   4.864   2.466  13.794
74132W        W33635  17.606   2.387  13.907
74133W        W33636   6.246   7.866   3.727
74134W        W33637  28.985  22.234   1.398
74135W        W33638  26.468  17.271  12.855
74136W        W33639   2.345  12.210   4.711
74137W        W33640   8.203  15.785  10.933
74138W        W33641   3.376  20.719   4.801
74139W        W33642  39.980  42.392  12.553
74140W        W33643  17.760  33.457   2.714
74141W        W33644  31.094  30.564   1.442
74142W        W33645  35.900  12.837  13.022
74143W        W33646  23.054  29.066   3.748
74144W        W33647   5.413   9.280  13.492
74145W        W33648   4.406   5.815   0.476
74146W        W33649   8.361  11.184   3.768
74147W        W33650  14.675   7.266   2.792
74148W        W33651  23.516   8.791   1.909
74149W        W33652  37.974  23.598  11.955
74150W        W33653  44.837  10.226  11.878
74151W        W33654  39.851   2.962  10.460
74152W        W33655  20.548  21.121  14.401
74153W        W33656  39.351  17.075   0.469
74154W        W33657   0.864  29.428  13.334
74155W        W33658   5.193   7.840   0.443
74156W        W33659  40.465  33.443  14.286
74157W        W33660   8.733   8.192  13.992
74158W        W33661  14.098   4.774  14.819
74159W        W33662  34.419  15.328   1.707
74160W        W33663   5.736   5.204   3.372
74161W        W33664  16.286  32.624  14.413
74162W        W33665  26.604  35.924  14.511
74163W        W33666   7.691  19.597   4.696
74164W        W33667  23.130   8.356  11.106
74165W        W33668   1.306  23.087  13.968
74166W        W33669  35.596   0.768   2.743
74167W        W33670  28.149  22.666   3.660
74168W        W33671  15.262   1.793   0.471
74169W        W33672  17.230  13.659   3.355
74170W        W33673  13.290   2.262   2.793
74171W        W33674  12.796  41.372  14.842
74172W        W33675  21.103   3.741   0.853
74173W        W33676   0.391  13.309   0.836
74174W        W33677   8.349  34.405  11.094
74175W        W33678   2.237  15.216   1.923
74176W        W33679  32.982  17.079   0.442
74177W        W33680  27.644  40.954   4.830
74178W        W33681  44.438   9.177   2.684
74179W        W33682  22.120  24.705  12.442
74180W        W33683   2.914  21.680  11.105
74181W        W33684  33.449   7.397  14.346
74182W        W33685  37.363  25.607   0.366
74183W        W33686  27.030  14.613   3.355
74184W        W33687  36.569  23.584   3.198
74185W        W33688  37.339  14.617   3.678
74186W        W33689  37.895  36.493   0.869
74187W        W33690  35.404  16.312  13.333
74188W        W33691  12.836   9.787   0.325
74189W        W33692   5.356  41.355   2.894
74190W        W33693   5.372  23.171  10.434
74191W        W33694  11.743  29.089  11.927
74192W        W33695  14.309   8.368  12.579
74193W        W33696   9.806  11.298  10.961
74194W        W33697   0.383  22.531  11.503
74195W        W33698  35.489   0.364  13.936
74196W        W33699  21.635   0.881  14.299
74197W        W33700  39.418   3.448  13.942
74198W        W33701  20.152  40.917   2.348
74199W        W33702   8.750  38.428   0.437
74200W        W33703  16.137  12.241   2.220
74201W        W33704   7.707  17.578   4.248
74202W        W33705  34.975  33.527   3.309
74203W        W33706   8.775  40.943  12.520
74204W        W33707  44.266  39.333  13.492
74205W        W33708  19.641   9.887  14.377
74206W        W33709  26.617  34.378   2.758
74207W        W33710  24.670   2.370   1.261
74208W        W33711  31.407  28.522   3.178
74209W        W33712  25.063  32.573   0.928
74210W        W33713   4.838  17.595   2.362
74211W        W33714  35.948  16.214   3.268
74212W        W33715  11.836  14.334   3.636
74213W        W33716  33.067  27.580  13.407
74214W        W33717  15.098  34.092  11.539
74215W        W33718  19.147  20.194  14.791
74216W        W33719  34.097  26.956   0.374
74217W        W33720  35.906  36.525  11.916
74218W        W33721  11.778  11.253   2.304
74219W        W33722   4.365  37.880  12.044
74220W        W33723  13.200  14.265  11.564
74221W        W33724  25.553  39.347  11.563
74222W        W33725  19.157  36.998   2.723
74223W        W33726  17.670  37.021  14.506
74224W        W33727  40.312  19.736  11.918
74225W        W33728   1.296  26.489   2.372
74226W        W33729  22.251   4.723  11.548
74227W        W33730  36.530  15.322   2.397
74228W        W33731  11.628  14.128  12.390
74229W        W33732  10.262  30.992   3.203
74230W        W33733  32.578  26.486   2.825
74231W        W33734  43.457   7.903   4.759
74232W        W33735  40.040  32.957   1.435
74233W        W33736   3.770  14.199   4.811
74234W        W33737  37.919  33.400   4.288
74235W        W33738  20.738  43.769  12.468
74236W        W33739   8.760  32.989   1.238
74237W        W33740  10.733   6.397  14.857
74238W        W33741  19.245  39.029  12.029
74239W        W33742  35.571  30.511  11.476
74240W        W33743  27.671  32.928  11.372
74241W        W33744  42.290  13.301   3.327
74242W        W33745   1.950  18.084  14.851
74243W        W33746   8.326  19.712   2.384
74244W        W33747  16.778  18.069   4.295
74245W        W33748  32.891  28.040  13.380
74246W        W33749  26.192  39.828  11.489
74247W        W33750  12.763   4.274   4.309
74248W        W33751  20.654  37.060   2.777
74249W        W33752  22.031  29.026  12.502
74250W        W33753   2.255  42.418   9.664
74251W        W33754  34.112  40.394  14.892
74252W        W33755   1.259   8.306   3.282
74253W        W33756  32.571  38.372  12.007
74254W        W33757  31.544  37.532   3.788
74255W        W33758   1.864  44.361  14.452
74256W        W33759   3.818  17.105  11.066
74257W        W33760  12.167  39.448  13.008
74258W        W33761  38.070  41.858   1.707
74259W        W33762  15.600  21.205   2.849
74260W        W33763  35.498  17.643  13.844
74261W        W33764   9.376  27.000  14.900
74262W        W33765  31.583  30.953  11.611
74263W        W33766   8.275  39.868   1.854
74264W        W33767   2.437  13.232   4.747
74265W        W33768  18.644   3.232   0.429
74266W        W33769  19.283  22.061  13.477
74267W        W33770  20.708  30.623  13.837
74268W        W33771  24.532   1.912  12.574
74269W        W33772  36.384  29.515  10.949
74270W        W33773  41.020  32.556   1.400
74271W        W33774   4.221  24.596  11.060
74272W        W33775  27.176  19.042  11.591
74273W        W33776   5.779  23.007   2.889
74274W        W33777  36.426  32.433   3.169
74275W        W33778  42.392   9.217   4.297
74276W        W33779  16.093  20.639   3.261
74277W        W33780  42.013  24.086  10.013
74278W        W33781  32.044  39.858  14.311
74279W        W33782  21.149  31.523  13.828
74280W        W33783  38.069  23.708  13.371
74281W        W33784  29.574  15.141   4.338
74282W        W33785  40.000   9.692   4.812
74283W        W33786  38.954   4.794   2.680
74284W        W33787   9.326  27.160  10.520
74285W        W33788  39.026  28.572  10.475
74286W        W33789  40.308  13.823  10.489
74287W        W33790  12.281  10.844  14.396
74288W        W33791  37.920  31.486   0.267
74289W        W33792  16.106   2.310   0.314
74290W        W33793  11.676  26.151   2.254
74291W        W33794  39.909  23.687   2.822
74292W        W33795  19.174  15.162   1.241
74293W        W33796  26.641  11.832  10.928
74294W        W33797   3.758  22.188  13.437
74295W        W33798  27.578   8.290   0.862
74296W        W33799   7.871  22.575   3.322
74297W        W33800   7.307  36.040   4.649
74298W        W33801  14.716  22.219  13.950
74299W        W33802   6.393   5.297   2.836
74300W        W33803  14.336  38.394   2.355
74301W        W33804  36.916   3.298  13.997
74302W        W33805  41.445   2.795   1.225
74303W        W33806  39.464  40.805  13.027
74304W        W33807  23.527  41.312  14.826
74305W        W33808  42.792  34.560   3.667
74306W        W33809  28.468  14.222   3.308
74307W        W33810  38.944  41.338   5.142
74308W        W33811  33.887  31.531   1.316
74309W        W33812  18.703  41.865  10.547
74310W        W33813  18.099  16.633   3.356
74311W        W33814  26.208  29.939  12.347
74312W        W33815  24.222  27.543  12.892
74313W        W33816  35.519  40.989   4.736
74314W        W33817  17.621  14.220   3.765
74315W        W33818  37.471  20.261  10.607
74316W        W33819  23.068  26.590  13.331
74317W        W33820   5.226   0.446   2.679
74318W        W33821  33.432  18.595  12.950
74319W        W33822   0.452  27.560   3.205
74320W        W33823  31.529  25.163   3.221
74321W        W33824  29.997  36.970   1.210
74322W        W33825  34.442  34.070   2.350
74323W        W33826   2.325  12.791  12.578
74324W        W33827  13.797  15.772  10.557
74325W        W33828  44.983  44.370   3.806
74326W        W33829  18.286  38.450  10.482
74327W        W33830  16.164  16.154  11.425
74328W        W33831  16.698  30.082  14.336
74329W        W33832  11.673   5.812  12.836
74330W        W33833  37.050  42.852  11.418
74331W        W33834  27.107  42.360   1.721
74332W        W33835  27.973  25.522   4.209
74333W        W33836  44.860  41.043  14.454
74334W        W33837  41.458  19.592  13.471
74335W        W33838  38.894   8.181   0.831
74336W        W33839  22.721   8.284  10.545
74337W        W33840  42.415  17.757  13.369
74338W        W33841  38.015  14.225   4.688
74339W        W33842  37.497  10.820   2.256
74340W        W33843  19.117  34.552  11.892
74341W        W33844   9.152   4.839  12.963
74342W        W33845  22.157  40.526  13.028
74343W        W33846  32.474  12.273  14.946
74344W        W33847  11.237   1.430   0.410
74345W        W33848   5.755  14.790   0.434
74346W        W33849  29.112  27.137  13.491
74347W        W33850  38.010  29.543   3.822
74348W        W33851  44.762  22.187   2.238
74349W        W33852  27.546  17.743   0.402
74350W        W33853   6.714  39.356  12.550
74351W        W33854   9.756  36.848   4.177
74352W        W33855  38.854  18.683   0.257
74353W        W33856  27.496  32.035  10.114
74354W        W33857   2.845  21.120   2.261
74355W        W33858  43.487  11.714  10.152
74356W        W33859  23.646   3.319  13.894
74357W        W33860  40.809  30.133   0.916
74358W        W33861  31.117  41.323   0.966
74359W        W33862   8.218  22.037  14.006
74360W        W33863  43.500  15.736  11.112
74361W        W33864   9.645  29.494  14.324
74362W        W33865  10.777  29.477  10.472
74363W        W33866   6.414   1.464  14.414
74364W        W33867  39.558  10.225   2.850
74365W        W33868  38.451  34.962   3.252
74366W        W33869  23.124  14.622   4.295
74367W        W33870  42.439  43.470  14.860
74368W        W33871  14.730  34.563   0.327
74369W        W33872  22.208  15.170  11.413
74370W        W33873  14.189  25.618   3.181
74371W        W33874  30.510  28.098   2.746
74372W        W33875  31.036  11.754  13.967
74373W        W33876  36.029  15.278   0.386
74374W        W33877  15.220   6.678  11.866
74375W        W33878  33.113  10.370   0.365
74376W        W33879  31.510  29.972  14.403
74377W        W33880  22.622  35.598   4.753
74378W        W33881  16.248  39.384  14.439
74379W        W33882   4.390  11.830   2.824
74380W        W33883  12.159   0.462  11.045
74381W        W33884  20.566  37.038   1.715
74382W        W33885  24.229  33.467  13.008
74383W        W33886  25.502  40.488  14.924
74384W        W33887  30.133  30.653   4.721
74385W        W33888  24.524  27.033  12.853
74386W        W33889  34.099  19.556  14.974
74387W        W33890   0.742  38.892  14.319
74388W        W33891  30.492   0.887   5.149
74389W        W33892   5.377  21.679  13.049
74390W        W33893  32.631  39.847  13.797
74391W        W33894  28.565  44.350   4.656
74392W        W33895   5.892  33.924  11.530
74393W        W33896  13.839  39.931  12.037
74394W        W33897  30.510  14.102   2.185
74395W        W33898   7.276   9.210  12.455
74396W        W33899  21.033  35.399  11.032
74397W        W33900  42.449  25.988  10.937
74398W        W33901   2.929  15.716  13.985
74399W        W33902  36.421  30.106  10.427
74400W        W33903  39.459  11.857   2.881
74401W        W33904   1.284  16.145   1.221
74402W        W33905   1.837  41.381  12.012
74403W        W33906   8.658  40.885  14.001
74404W        W33907  16.075  38.035  14.927
74405W        W33908  40.885  19.200   9.623
74406W        W33909   9.762   8.203  10.445
74407W        W33910  43.798  30.152  13.537
74408W        W33911  25.967  19.089   1.363
74409W        W33912  24.134   5.693   4.812
74410W        W33913  38.827  26.114  10.095
74411W        W33914  20.572  43.903  12.078
74412W        W33915  18.093  25.088  14.497
74413W        W33916  11.764  30.056  12.985
74414W        W33917  38.506  42.816  12.467
74415W        W33918  10.167  27.124  10.610
74416W        W33919  43.342  28.135  12.470
74417W        W33920  39.810  32.615  12.016
74418W        W33921  35.922  22.150   1.706
74419W        W33922  11.724   7.366  10.905
74420W        W33923   8.271   6.844   0.296
74421W        W33924   2.836  31.607  13.486
74422W        W33925   3.344  22.697  10.979
74423W        W33926  38.897  30.595  11.940
74424W        W33927  31.413   2.236  12.899
74425W        W33928  28.550  34.988   1.803
74426W        W33929  20.200  34.452  10.064
74427W        W33930  20.243  32.610   4.281
74428W        W33931  43.473  27.104   4.605
74429W        W33932  15.149  36.572   0.442
74430W        W33933  25.048   4.821   0.429
74431W        W33934  32.018   6.230   2.827
74432W        W33935  32.058  33.033  12.955
74433W        W33936  26.140  21.549  12.868
74434W        W33937   2.743  25.702  14.997
74435W        W33938   6.343  12.775  11.942
74436W        W33939  38.381  13.803   4.319
74437W        W33940   0.491  27.191  13.878
74438W        W33941  42.307  23.656   2.714
74439W        W33942   5.882  25.093   4.613
74440W        W33943  42.905  39.555   2.685
74441W        W33944  37.425   1.258   1.859
74442W        W33945  26.537  41.938   4.317
74443W        W33946  41.482   7.344   1.736
74444W        W33947  44.349  25.596  12.999
74445W        W33948  14.230  27.597   0.403
74446W        W33949  33.931  29.975  13.986
74447W        W33950   7.717  15.654  12.341
74448W        W33951  26.046  38.411   3.308
74449W        W33952  25.180  23.208  13.006
74450W        W33953  35.450   9.232  12.530
74451W        W33954  13.196  17.627  11.540
74452W        W33955  32.956  35.950   1.312
74453W        W33956  42.382  42.497   2.362
74454W        W33957  40.877  36.468  14.892
74455W        W33958  23.987  12.150  14.341
74456W        W33959   2.839  44.926  12.904
74457W        W33960  15.794   2.326   1.347
74458W        W33961  14.814  37.410   0.333
74459W        W33962  26.102  22.665  14.913
74460W        W33963  10.264  38.528   3.226
74461W        W33964  38.440  12.332  12.398
74462W        W33965  34.449   4.837   2.693
74463W        W33966  21.559  33.986  12.554
74464W        W33967   7.676  11.349   1.868
74465W        W33968  18.085  44.473   0.759
74466W        W33969  22.023  20.559   3.797
74467W        W33970  36.590  36.078  11.510
74468W        W33971  33.444  35.595   3.356
74469W        W33972  42.358  31.417   1.911
74470W        W33973  39.348  18.576   3.304
74471W        W33974   3.894  28.109  13.514
74472W        W33975   1.418  23.014  10.131
74473W        W33976  43.842  18.244  14.950
74474W        W33977  17.302  39.062   3.230
74475W        W33978   1.931  15.093   0.361
74476W        W33979  22.566  25.067  11.539
74477W        W33980  35.373  28.001   4.779
74478W        W33981   3.941  23.581  12.999
74479W        W33982  10.295  39.906  12.840
74480W        W33983  33.412   5.431   1.446
74481W        W33984  20.587  27.197   3.333
74482W        W33985   5.369   5.778   2.778
74483W        W33986   5.757  39.001  14.316
74484W        W33987  38.441  38.953   1.242
74485W        W33988  38.912  38.460  10.553
74486W        W33989  12.688   7.226  13.378
74487W        W33990  38.520   6.294   1.307
74488W        W33991  21.199  10.723  14.837
74489W        W33992  43.882  40.992   3.643
74490W        W33993  21.552  25.570  13.960
74491W        W33994  17.598  22.130  12.871
74492W        W33995  43.953  41.929   4.195
74493W        W33996   1.884  44.394  10.150
74494W        W33997  10.776  35.516   1.845
74495W        W33998  32.073  30.515  11.888
74496W        W33999   3.399  26.496  13.956
74497W        W34000  39.821  30.562   0.272
74498W        W34001  30.624  24.627  12.364
74499W        W34002  26.161  12.243  12.488
74500W        W34003  39.537  33.493  14.964
74501W        W34004  27.186   8.885  12.040
74502W        W34005  35.590  30.462   4.652
74503W        W34006  36.002  13.658  12.365
74504W        W34007   0.956  16.761  12.453
74505W        W34008  41.340  37.053  14.276
74506W        W34009  13.182  26.144  12.861
74507W        W34010  31.583  27.136  14.399
74508W        W34011  27.465  40.455   4.732
74509W        W34012   3.949  25.200   3.235
74510W        W34013  18.262  25.598   3.775
74511W        W34014  21.511   7.745   0.738
74512W        W34015  13.282  18.059  14.511
74513W        W34016  29.651  38.878  12.923
74514W        W34017  21.155  24.701   4.628
74515W        W34018   4.382  41.985  11.434
74516W        W34019  25.189  11.246   1.441
74517W        W34020   1.465   9.839   3.710
74518W        W34021  37.903   2.886  11.553
74519W        W34022  44.981  34.606   4.611
74520W        W34023  19.755  39.985  14.837
74521W        W34024   4.412   5.791  12.997
74522W        W34025  44.848  30.106  13.017
74523W        W34026  18.238  27.965   1.887
74524W        W34027  27.124  23.709  14.835
74525W        W34028   5.739  10.240  13.990
74526W        W34029   6.767  22.062   1.922
74527W        W34030  34.464  20.229  13.933
74528W        W34031  11.281  42.865   2.844
74529W        W34032   8.298  26.498  10.476
74530W        W34033  22.553  20.666   1.775
74531W        W34034   1.475  29.980  14.014
74532W        W34035   6.206  40.545   4.302
74533W        W34036  20.059  42.844  11.414
74534W        W34037  15.232  10.775   3.714
74535W        W34038  14.663  38.841  11.061
74536W        W34039   8.838  39.353  13.048
74537W        W34040  37.543  20.743  14.455
74538W        W34041  18.672  15.686  11.001
74539W        W34042  17.623   8.250  13.977
74540W        W34043  29.159  20.180   1.367
74541W        W34044  36.444  36.549   2.808
74542W        W34045  11.661   5.365  13.850
74543W        W34046  12.702  39.318   0.353
74544W        W34047  15.633  27.064  10.107
74545W        W34048  18.083  30.117  14.903
74546W        W34049  38.044   8.787   0.402
74547W        W34050  17.178  18.545  10.430
74548W        W34051  30.145  43.839  13.506
74549W        W34052  27.545  16.789  14.966
74550W        W34053  43.011  24.623  10.598
74551W        W34054   1.924  38.532  10.616
74552W        W34055  24.202  17.603   4.711
74553W        W34056  38.943  36.859   2.320
74554W        W34057  29.141  36.428  13.543
74555W        W34058   1.292  40.849  13.385
74556W        W34059  14.258  43.411   1.387
74557W        W34060  28.657  16.233   9.921
74558W        W34061   9.216  23.101   2.253
74559W        W34062  28.176  40.501   1.345
74560W        W34063   3.740  34.612   2.709
74561W        W34064  32.520  26.047   0.404
74562W        W34065  33.089   3.765  11.572
74563W        W34066  12.207   4.833  12.382
74564W        W34067  12.718  25.566  14.456
74565W        W34068  33.417   1.774   2.699
74566W        W34069  23.111  30.083   0.307
74567W        W34070  12.720  12.133   0.323
74568W        W34071  33.887  36.884   3.236
74569W        W34072   4.417   2.260  11.490
74570W        W34073   5.421  13.282  11.488
74571W        W34074  18.177  30.038   0.348
74572W        W34075  31.642  25.079   0.344
74573W        W34076   1.794   6.880  12.564
74574W        W34077  26.564  16.576  11.385
74575W        W34078  33.588  29.994  13.854
74576W        W34079  21.035  27.624   3.795
74577W        W34080   2.881  34.043   0.418
74578W        W34081   9.165  27.011   4.729
74579W        W34082  33.541   4.755  13.006
74580W        W34083  12.844  15.092   2.304
74581W        W34084  15.750  36.494  14.883
74582W        W34085  11.841   5.300   1.213
74583W        W34086  42.024  12.660   1.285
74584W        W34087   2.898  44.811   3.190
74585W        W34088  19.070  17.635  13.978
74586W        W34089  33.982   9.784  13.033
74587W        W34090  11.836  44.998  12.363
74588W        W34091  39.936  29.613   1.264
74589W        W34092  19.254  23.671  13.914
74590W        W34093  36.352   1.332   2.385
74591W        W34094  18.732  32.513  12.423
74592W        W34095  36.513  17.771   0.736
74593W        W34096  14.110   4.251   4.814
74594W        W34097   2.799  27.965  14.860
74595W        W34098  28.162  23.553   0.393
74596W        W34099  43.901  31.996  13.963
74597W        W34100  22.133  12.844  12.840
74598W        W34101  10.871  43.296   3.769
74599W        W34102  22.533  32.502   4.170
74600W        W34103  30.937  25.517   5.664
74601W        W34104  40.803  34.611  12.043
74602W        W34105   4.758  10.764   3.148
74603W        W34106   5.747  17.085   1.358
74604W        W34107  22.075  17.723  12.363
74605W        W34108  29.584  12.686   1.368
74606W        W34109  15.747  38.390   4.730
74607W        W34110  43.821   4.258  14.020
74608W        W34111   4.302  35.488  12.925
74609W        W34112  32.478   4.236  13.865
74610W        W34113   6.858   0.327   0.966
74611W        W34114  33.478  41.358  13.841
74612W        W34115   3.753  26.084   3.647
74613W        W34116  19.708  17.644   1.418
74614W        W34117  30.046  10.694   2.702
74615W        W34118  13.200   8.367   2.748
74616W        W34119  40.361  37.443  12.838
74617W        W34120  17.246   7.343   1.809
74618W        W34121  16.116   2.771  12.965
74619W        W34122  19.091  32.112  12.008
74620W        W34123  19.606   0.910  12.996
74621W        W34124  29.439  43.455   3.672
74622W        W34125  12.816   2.765   4.836
74623W        W34126  42.783  31.619  13.892
74624W        W34127   5.356   4.372  14.454
74625W        W34128  40.921  23.588   1.387
74626W        W34129  18.280  27.104  10.895
74627W        W34130   7.358   2.784   2.334
74628W        W34131  25.474  25.127  12.929
74629W        W34132   2.411   6.238  10.528
74630W        W34133  36.426  14.725  14.933
74631W        W34134  22.592   1.899  14.307
74632W        W34135  10.746  39.048  12.540
74633W        W34136  29.934  15.715  12.471
74634W        W34137  25.706  26.958  14.774
74635W        W34138  16.667   9.197   4.233
74636W        W34139   6.717   4.421  11.904
74637W        W34140  33.877  44.325  10.625
74638W        W34141  41.484  25.185   2.336
74639W        W34142  16.636  21.154   0.316
74640W        W34143   0.893  12.320   0.899
74641W        W34144  39.456   1.742   1.394
74642W        W34145  35.922  44.391  10.566
74643W        W34146  41.368  25.087   3.167
74644W        W34147  35.003  13.164   1.308
74645W        W34148  40.861  35.521   1.745
74646W        W34149   9.333  12.851  11.468
74647W        W34150   0.461  16.601  14.835
74648W        W34151  41.975  29.426  13.458
74649W        W34152   9.846  18.278  14.907
74650W        W34153  26.063  31.099   0.440
74651W        W34154   2.723  34.957   3.740
74652W        W34155   4.886  21.710  10.923
74653W        W34156  27.681  26.473  11.602
74654W        W34157  39.388  23.120   2.197
74655W        W34158  38.527  38.343   2.226
74656W        W34159   5.319   8.737  12.850
74657W        W34160  18.611  42.886  11.588
74658W        W34161   1.297  24.073   2.850
74659W        W34162  30.610  11.130   5.583
74660W        W34163  11.653  20.143  13.835
74661W        W34164  16.791  43.821  14.973
74662W        W34165  14.222   1.444  14.359
74663W        W34166  43.870  34.613  14.457
74664W        W34167  42.011  39.456  13.014
74665W        W34168   3.920  36.939   2.691
74666W        W34169  15.609   9.314   2.815
74667W        W34170  14.114  35.045   4.183
74668W        W34171  42.847  30.065  12.502
74669W        W34172  17.246  35.081  12.417
74670W        W34173   8.899  41.424  13.023
74671W        W34174   0.980  44.331   4.152
74672W        W34175  38.436  26.501   5.200
74673W        W34176  23.148  18.621   2.365
74674W        W34177  29.082   6.898   0.884
74675W        W34178  21.705   9.661   1.772
74676W        W34179  21.132   3.946   4.621
74677W        W34180   1.770  27.461  11.888
74678W        W34181  40.959  27.164  10.971
74679W        W34182  17.726  26.168   2.703
74680W        W34183  16.142   8.349  11.581
74681W        W34184  11.355   8.673   1.754
74682W        W34185  29.953  26.631  13.540
74683W        W34186  39.954  28.625  12.354
74684W        W34187  21.627  36.077  13.960
74685W        W34188  18.721   3.233   3.812
74686W        W34189  44.761  27.064  13.886
74687W        W34190  25.182  26.639  13.485
74688W        W34191  20.043  41.326   5.268
74689W        W34192   5.820  18.761  13.059
74690W        W34193   3.956  15.694  12.530
74691W        W34194  22.235  35.542  12.996
74692W        W34195  34.544  28.025   3.714
74693W        W34196   4.355  33.990   4.778
74694W        W34197  39.423  40.369   3.217
74695W        W34198  32.503  23.561   3.670
74696W        W34199   8.275   4.270   4.150
74697W        W34200  14.198  32.012  13.318
74698W        W34201  37.871  23.528  12.984
74699W        W34202  21.757  42.351   3.235
74700W        W34203  26.577  19.621   4.281
74701W        W34204  30.097  26.055   1.341
74702W        W34205  11.659  13.711  14.282
74703W        W34206  29.119  19.110  13.512
74704W        W34207  41.940  37.351  14.383
74705W        W34208  18.773   0.755  13.313
74706W        W34209  24.651  20.762   0.937
74707W        W34210  23.072  22.622  13.477
74708W        W34211  36.434   9.312  14.331
74709W        W34212   9.720  14.757   0.917
74710W        W34213  23.690  26.461   2.887
74711W        W34214  26.059  20.119  14.384
74712W        W34215  15.775  43.804   4.672
74713W        W34216   6.906  32.574   3.301
74714W        W34217  40.993   8.778   1.721
74715W        W34218  26.628  43.801   2.860
74716W        W34219  44.359  19.195  12.931
74717W        W34220  41.479  41.821   3.237
74718W        W34221  22.177  22.669  10.983
74719W        W34222  11.324  17.077  14.341
74720W        W34223  29.514  38.373   1.793
74721W        W34224  15.153  35.030   0.887
74722W        W34225  17.253   6.292   3.170
74723W        W34226  10.215  23.068   3.662
74724W        W34227  44.999   1.853   2.842
74725W        W34228  16.177  18.070  11.972
74726W        W34229  39.314  13.703   1.366
74727W        W34230  21.710  25.152  11.520
74728W        W34231  20.162  16.110  13.850
74729W        W34232  24.185  14.186  11.481
74730W        W34233  29.127  24.201  11.486
74731W        W34234  31.909  29.021  11.383
74732W        W34235   1.747  26.006  10.484
74733W        W34236  32.469   3.889   0.260
74734W        W34237  31.513  25.124  12.986
74735W        W34238  29.139   0.291   0.435
74736W        W34239  11.840   1.770   1.890
74737W        W34240  28.580  40.813  13.883
74738W        W34241  34.079  25.090  13.912
74739W        W34242   4.325  44.824  13.891
74740W        W34243   7.805  10.732  10.414
74741W        W34244  32.941   9.214   4.732
74742W        W34245  31.989  10.154  14.000
74743W        W34246  40.804  42.399   4.187
74744W        W34247   4.915  40.480  12.985
74745W        W34248   9.152   1.460   2.362
74746W        W34249   4.924  14.222   2.852
74747W        W34250  28.567  10.274   0.748
74748W        W34251  43.385  29.056   1.326
74749W        W34252  10.674  32.117   1.319
74750W        W34253  37.864  12.827  11.103
74751W        W34254  28.028  34.591  14.912
74752W        W34255   6.717  32.483  10.507
74753W        W34256   6.183   1.298   1.868
74754W        W34257  39.489   7.189   2.865
74755W        W34258  39.467  33.419   1.218
74756W        W34259  44.415   8.695  14.829
74757W        W34260  10.246   6.333   3.326
74758W        W34261  26.026  27.046   0.903
74759W        W34262  36.491  12.628   1.895
74760W        W34263  23.702   0.426   3.748
74761W        W34264   8.840  43.854   1.879
74762W        W34265  21.703  36.859  11.906
74763W        W34266  15.651  10.824  11.598
74764W        W34267  40.344  15.757  11.903
74765W        W34268  24.139   5.351   1.873
74766W        W34269  22.644  22.218  13.548
74767W        W34270  34.918  16.265  14.430
74768W        W34271   9.360  43.494  11.047
74769W        W34272  23.569  20.737   1.410
74770W        W34273   7.369   9.341   0.416
74771W        W34274  23.208  24.680  11.879
74772W        W34275  34.915  32.895  14.859
74773W        W34276  28.620  38.548  12.929
74774W        W34277  21.255   7.765  10.993
74775W        W34278  37.431  16.798   3.690
74776W        W34279  26.115   3.444   3.736
74777W        W34280  44.399   7.756   2.742
74778W        W34281   5.252  33.393  14.769
74779W        W34282  42.984  43.431  14.294
74780W        W34283  12.235  35.893   0.833
74781W        W34284  32.454  23.606  14.283
74782W        W34285  16.567  41.342  12.976
74783W        W34286  39.035  30.023  13.376
74784W        W34287  22.017  43.009  10.487
74785W        W34288  19.057   7.820   1.728
74786W        W34289  16.254   7.252  14.337
74787W        W34290  22.023  35.394  14.001
74788W        W34291  21.213  36.033   3.761
74789W        W34292  42.999  19.251  13.008
74790W        W34293  29.132  37.941  13.510
74791W        W34294  32.503  44.760   2.806
74792W        W34295  27.504  25.147   3.650
74793W        W34296  32.091  35.891   0.822
74794W        W34297  16.302  21.058  13.914
74795W        W34298  29.622  38.554  10.412
74796W        W34299  10.214  28.069   2.753
74797W        W34300  31.897  27.657  12.028
74798W        W34301  37.494  15.199   3.237
74799W        W34302   6.866  39.955   4.270
74800W        W34303  12.639   9.276  12.871
74801W        W34304  39.052   8.724  10.633
74802W        W34305  22.200   1.357  13.844
74803W        W34306  39.057   4.728   3.812
74804W        W34307  10.791  42.851   0.860
74805W        W34308  32.120   9.211  13.424
74806W        W34309  28.133  35.361   1.328
74807W        W34310  17.087  42.792   1.213
74808W        W34311  27.186  27.142  12.840
74809W        W34312   9.743  42.297   4.759
74810W        W34313  37.438  15.151  14.910
74811W        W34314  20.527  36.482  12.071
74812W        W34315  27.453  24.674   4.818
74813W        W34316  41.962  38.491  12.375
74814W        W34317  23.491  36.921  10.489
74815W        W34318  16.641  15.220   3.753
74816W        W34319  16.111  26.609  15.000
74817W        W34320  10.258  11.817  11.857
74818W        W34321  21.245   7.799   3.745
74819W        W34322  24.540  29.646  10.899
74820W        W34323  11.130  22.224   1.876
74821W        W34324  25.180  34.561   2.664
74822W        W34325   5.851  28.091   3.364
74823W        W34326  28.555   8.383  10.525
74824W        W34327  31.049  32.469   3.245
74825W        W34328  21.082  35.106  14.791
74826W        W34329   2.438  13.703  11.903
74827W        W34330  29.666  24.056  11.512
74828W        W34331  15.636  11.128   3.203
74829W        W34332  32.415  40.334   0.397
74830W        W34333   6.760  24.051   4.627
74831W        W34334  23.005   2.278  13.326
74832W        W34335   2.784  10.803   3.701
74833W        W34336  43.979  30.929   2.328
74834W        W34337  32.949  37.021  11.900
74835W        W34338   4.214  21.075  14.286
74836W        W34339  32.909  24.155   1.793
74837W        W34340  24.577  10.692   4.336
74838W        W34341  19.638   6.878  13.971
74839W        W34342  12.752  24.003   0.373
74840W        W34343  27.996  29.544  13.456
74841W        W34344   5.294   2.338  12.488
74842W        W34345  14.819  16.627   2.665
74843W        W34346  34.927   7.393   2.218
74844W        W34347  32.630  18.219   0.749
74845W        W34348  31.139  31.093  11.923
74846W        W34349  11.670  19.271   2.214
74847W        W34350  19.086  21.726  13.845
74848W        W34351  26.503  22.214   0.798
74849W        W34352  20.230  35.923  13.015
74850W        W34353  10.676  22.113   3.368
74851W        W34354  20.172   9.325  11.007
74852W        W34355   6.373  36.057  14.902
74853W        W34356   7.674  39.917   0.917
74854W        W34357  26.551  13.776  13.921
74855W        W34358   3.810  22.601  14.276
74856W        W34359  35.522  42.803   0.291
74857W        W34360   3.955  10.231   3.771
74858W        W34361  24.053  26.511  14.999
74859W        W34362  28.657  26.498  11.599
74860W        W34363  34.051   7.859   1.375
74861W        W34364  44.359  12.857  13.328
74862W        W34365   8.728  20.637   4.273
74863W        W34366  21.555   4.763  14.929
74864W        W34367  43.401  38.376  14.417
74865W        W34368  38.035  18.753  11.118
74866W        W34369  36.958  30.460  11.477
74867W        W34370   7.377  40.345  14.811
74868W        W34371   6.275  20.553   3.344
74869W        W34372  33.972  20.588  14.285
74870W        W34373  33.568  34.460   1.772
74871W        W34374  26.677  12.293   0.911
74872W        W34375   2.426   8.720   5.297
74873W        W34376  41.511   8.756  14.389
74874W        W34377  30.920  21.185  11.448
74875W        W34378  26.600  42.340  10.455
74876W        W34379  39.317  36.035   3.228
74877W        W34380  14.833   6.279   1.230
74878W        W34381  10.248   6.817  13.498
74879W        W34382  32.578   7.695  12.865
74880W        W34383  23.688  34.983   2.836
74881W        W34384  37.955  27.966   1.722
74882W        W34385  38.524  39.473  10.460
74883W        W34386   1.311  14.184   4.349
74884W        W34387  40.833  31.091   2.236
74885W        W34388  11.864   5.735   4.140
74886W        W34389  26.534  32.126  14.328
74887W        W34390   0.807  18.133  10.123
74888W        W34391  31.541  26.607   3.238
74889W        W34392   8.859  20.573  14.499
74890W        W34393   7.378  41.934   3.857
74891W        W34394  44.848  44.421  13.050
74892W        W34395   9.769   5.283   1.317
74893W        W34396  38.933  33.537  13.980
74894W        W34397  41.394   3.243  11.567
74895W        W34398  35.541  30.536  14.771
74896W        W34399   4.928  18.631  11.989
74897W        W34400  11.207   4.898  13.481
74898W        W34401  11.188  35.539   2.891
74899W        W34402  20.575  30.604  12.515
74900W        W34403  33.619   4.817   3.175
74901W        W34404  17.687   0.849  13.948
74902W        W34405  30.136  15.665  13.868
74903W        W34406  28.121  19.589   0.429
74904W        W34407  18.226  23.024  10.969
74905W        W34408  28.470  21.145  10.067
74906W        W34409  35.049  35.511  12.972
74907W        W34410   8.806  43.500   3.246
74908W        W34411   3.845  28.548   1.883
74909W        W34412  34.966   0.441   3.750
74910W        W34413  16.092  12.821  14.311
74911W        W34414  33.996  21.635   0.403
74912W        W34415  24.529  31.625  11.033
74913W        W34416   1.473  33.131   1.896
74914W        W34417  29.105  17.137   3.750
74915W        W34418  18.728  17.784  12.836
74916W        W34419   0.329  18.242   3.858
74917W        W34420  20.587  24.656  13.498
74918W        W34421  11.304   0.325   2.710
74919W        W34422   1.897   2.391   1.720
74920W        W34423  29.152  13.736   0.867
74921W        W34424  35.402  30.587  13.865
74922W        W34425  39.854  39.833   0.399
74923W        W34426  32.935  40.834   0.357
74924W        W34427  37.894  28.067   2.205
74925W        W34428  11.825  20.145  12.427
74926W        W34429  29.128  22.541  14.891
74927W        W34430  36.488  28.532   1.314
74928W        W34431   4.738  21.145   2.286
74929W        W34432  15.322   6.365  12.354
74930W        W34433   5.756  14.190   0.775
74931W        W34434  20.031  27.051   0.375
74932W        W34435  14.630  20.562   0.392
74933W        W34436   8.281  34.926   2.361
74934W        W34437  42.372   0.979  10.502
74935W        W34438   7.873  14.237  12.930
74936W        W34439  40.861  28.043   3.841
74937W        W34440  24.680   4.393  11.915
74938W        W34441   6.380  16.762  10.627
74939W        W34442  31.914  21.030   4.270
74940W        W34443  12.673   3.757  12.492
74941W        W34444   3.828   2.415   0.252
74942W        W34445   2.774  37.432   0.747
74943W        W34446  28.552  20.551   2.367
74944W        W34447  18.217  37.447   1.775
74945W        W34448  16.151  15.170  11.109
74946W        W34449   0.476   8.185   0.931
74947W        W34450  40.522   3.449  14.032
74948W        W34451  14.217  13.324   3.350
74949W        W34452  31.472  22.636  10.613
74950W        W34453  36.053  26.693   1.826
74951W        W34454   6.359  19.128   0.936
74952W        W34455  28.933  40.415   5.289
74953W        W34456  37.551  19.174   1.809
74954W        W34457  38.494  24.991  11.540
74955W        W34458  39.041  27.689  12.980
74956W        W34459  10.837   6.389  10.911
74957W        W34460   7.277   8.330  13.821
74958W        W34461  31.009  30.108   1.794
74959W        W34462  42.419  37.931  13.023
74960W        W34463  33.505  13.154   2.238
74961W        W34464   3.430  41.518   0.912
74962W        W34465   9.322  25.074   3.730
74963W        W34466  42.427  44.321   0.409
74964W        W34467   9.782  32.957   0.284
74965W        W34468  24.030  15.232   4.331
74966W        W34469   1.977   9.688  10.950
74967W        W34470  33.109  40.987   1.261
74968W        W34471  27.065  28.945   1.729
74969W        W34472  28.540  11.623   0.914
74970W        W34473  12.312  32.550  14.784
74971W        W34474  41.991  22.997   2.257
74972W        W34475  25.051  41.795   1.832
74973W        W34476  22.007   9.720   3.797
74974W        W34477   0.469  25.047  13.864
74975W        W34478  43.791  24.022  14.863
74976W        W34479  33.443  44.362  11.928
74977W        W34480  23.612  40.411   3.178
74978W        W34481   6.884  44.380   2.225
74979W        W34482  11.771  28.150  11.003
74980W        W34483  21.228  10.272  14.379
74981W        W34484  26.680   4.211   3.360
74982W        W34485  27.545  11.363   1.697
74983W        W34486  18.250  27.601  11.416
74984W        W34487  34.456  38.914   0.335
74985W        W34488   7.335  35.991  13.901
74986W        W34489  24.528  30.947   1.873
74987W        W34490  19.548  44.398   3.768
74988W        W34491  11.796  32.528  12.501
74989W        W34492  14.829  37.890   3.774
74990W        W34493  36.973  13.735  12.872
74991W        W34494  30.017  37.466   1.804
74992W        W34495   3.955  12.846  10.569
74993W        W34496  15.821  13.265   2.767
74994W        W34497  40.884   2.264  12.030
74995W        W34498  33.619   6.203  14.031
74996W        W34499  20.246  41.881  14.969
74997W        W34500   8.231  13.251  14.788
74998W        W34501  20.087  23.189   2.717
74999W        W34502  23.234  37.350  12.366
75000W        W34503  29.640  21.644   0.453
75001W        W34504  12.343  17.710  11.892
75002W        W34505  24.491   8.271   0.917
75003W        W34506  43.010  10.855   0.411
75004W        W34507  13.241   2.461   4.797
75005W        W34508  10.638  20.660  12.501
75006W        W34509  30.640  40.907   4.120
75007W        W34510  34.476  12.801   2.288
75008W        W34511  44.262   2.271  14.353
75009W        W34512   9.646  41.496  13.320
75010W        W34513   9.650  25.473   4.188
75011W        W34514  10.810  15.084  14.919
75012W        W34515  43.487  32.051   4.154
75013W        W34516  13.769   2.385  14.032
75014W        W34517   0.810  19.718  12.445
75015W        W34518  42.395  22.656   2.715
75016W        W34519  12.302  34.978   3.768
75017W        W34520  26.694   6.285  13.878
75018W        W34521  10.848  33.088  12.085
75019W        W34522  22.059  10.656  11.082
75020W        W34523  34.938  17.099  13.958
75021W        W34524  33.053  23.615  11.068
75022W        W34525  36.500  42.398   3.841
75023W        W34526  39.373  17.293  14.961
75024W        W34527   7.298  32.535   3.219
75025W        W34528  38.854  29.102   3.302
75026W        W34529  35.563   1.424  12.967
75027W        W34530  20.758  23.599  14.480
75028W        W34531  13.152  44.010  13.979
75029W        W34532  21.081  44.375  12.485
75030W        W34533  27.683  41.454   4.138
75031W        W34534  13.646  33.492  10.611
75032W        W34535  44.935  40.801   3.754
75033W        W34536  14.323   5.195   0.390
75034W        W34537  29.602  40.314   0.332
75035W        W34538  26.579   1.752  10.556
75036W        W34539   4.248  18.260   0.335
75037W        W34540  32.433  18.237   1.821
75038W        W34541  23.490   5.814   4.769
75039W        W34542  14.156  28.036   4.292
75040W        W34543  26.511   2.288  12.340
75041W        W34544  27.476  22.601  12.451
75042W        W34545  36.470  15.719   3.298
75043W        W34546   6.707  35.462   4.335
75044W        W34547   5.838  19.256   0.736
75045W        W34548  34.391   1.434   1.292
75046W        W34549  25.061  43.380  14.491
75047W        W34550   2.934  13.159   0.847
75048W        W34551  28.971  44.821   4.137
75049W        W34552  15.645  27.572   3.818
75050W        W34553   3.228  16.750  10.970
75051W        W34554   1.475   3.305   0.331
75052W        W34555  35.469  24.537   0.849
75053W        W34556  38.989  25.169   5.140
75054W        W34557  30.144  22.625  12.897
75055W        W34558  23.082   4.752   0.791
75056W        W34559   0.777  17.236  12.352
75057W        W34560  33.005  23.220  12.945
75058W        W34561  13.625  32.942  13.511
75059W        W34562  39.538   6.736  14.338
75060W        W34563  15.185   2.445  14.470
75061W        W34564  21.721   1.782  12.379
75062W        W34565  39.411  34.993  11.907
75063W        W34566  17.200  10.139  14.494
75064W        W34567  17.611   0.773  10.955
75065W        W34568   4.309  41.786   2.743
75066W        W34569  39.881   0.982  12.465
75067W        W34570  12.856  22.110  11.449
75068W        W34571   7.304  29.119   3.315
75069W        W34572  42.001  31.939   2.793
75070W        W34573  32.042  26.580   0.271
75071W        W34574  42.996  42.783  14.388
75072W        W34575  40.394  31.065   3.204
75073W        W34576  35.106  26.962  13.864
75074W        W34577  27.186   8.865   3.190
75075W        W34578   7.188   7.878   0.422
75076W        W34579  15.685  14.780   4.190
75077W        W34580  15.132  15.710  14.853
75078W        W34581  30.123   3.951  14.305
75079W        W34582  12.312  27.142   4.214
75080W        W34583  24.107  14.208   1.263
75081W        W34584  11.367  32.988  13.944
75082W        W34585  32.057  31.035  11.425
75083W        W34586  18.122  44.991  14.835
75084W        W34587  32.065  17.776   1.703
75085W        W34588  38.463   7.410   0.819
75086W        W34589  44.273   8.711  11.069
75087W        W34590  26.987  24.671   2.384
75088W        W34591  36.384  27.512  14.338
75089W        W34592   0.972   5.899  12.838
75090W        W34593  27.592  35.401   2.875
75091W        W34594  39.863   9.214   1.719
75092W        W34595  37.940   1.245  10.960
75093W        W34596  39.975  31.442  12.857
75094W        W34597  39.516  36.485   0.291
75095W        W34598  26.003  42.822   2.858
75096W        W34599  39.984  11.204   2.218
75097W        W34600   2.410  35.414  11.520
75098W        W34601  21.130  44.280   3.238
75099W        W34602   8.688   4.321   0.280
75100W        W34603  35.397  30.548  14.458
75101W        W34604  12.665  23.601   1.253
75102W        W34605  34.528   4.864   0.802
75103W        W34606  29.479   4.416  12.381
75104W        W34607  43.313  29.077   0.730
75105W        W34608  28.555  32.503   0.885
75106W        W34609  33.433  31.605   1.334
75107W        W34610  23.525   7.751   3.836
75108W        W34611  15.091  35.861   0.910
75109W        W34612  27.005  37.894   1.874
75110W        W34613  17.120  36.887  11.482
75111W        W34614   3.342  19.267   0.809
75112W        W34615  27.941  13.647  12.522
75113W        W34616  21.698  10.876   1.777
75114W        W34617  35.089  33.577   0.425
75115W        W34618  36.356  10.659  11.496
75116W        W34619  25.527   4.404   2.270
75117W        W34620  43.847  10.691  11.508
75118W        W34621  23.067  26.683   0.822
75119W        W34622  13.218  25.198  13.411
75120W        W34623  40.328   3.755   1.827
75121W        W34624  18.253  13.812   3.169
75122W        W34625  40.417   9.709   5.296
75123W        W34626  14.279  23.509   4.608
75124W        W34627  30.996   5.222  14.359
75125W        W34628  21.590  21.634   4.624
75126W        W34629   8.745  25.970   2.266
75127W        W34630  24.067  12.317   2.786
75128W        W34631  17.262  34.489  14.974
75129W        W34632  16.684  43.919   3.707
75130W        W34633  28.478  11.680   0.349
75131W        W34634  37.038  28.453  12.905
75132W        W34635  31.106  25.194  12.011
75133W        W34636  10.842  29.936  14.285
75134W        W34637   4.780  22.660  14.024
75135W        W34638  28.464  16.609   0.836
75136W        W34639  18.718  27.159  14.931
75137W        W34640   3.375   4.811   3.861
75138W        W34641  44.502  15.190  14.836
75139W        W34642  30.097  12.709  14.428
75140W        W34643  35.430   0.981   1.838
75141W        W34644  34.390   0.772  13.504
75142W        W34645  28.183  18.181   3.162
75143W        W34646  12.349  29.038  13.324
75144W        W34647  30.912   8.285  11.887
75145W        W34648  40.303   6.876   1.222
75146W        W34649   8.346  33.428  13.025
75147W        W34650  16.211  37.929   3.359
75148W        W34651  11.282  37.471   0.304
75149W        W34652  18.189   1.356  14.515
75150W        W34653  27.456  30.042  14.294
75151W        W34654  30.112  32.924   1.721
75152W        W34655   9.343  19.621   3.646
75153W        W34656  43.381  18.082  13.964
75154W        W34657  22.664  11.147  11.541
75155W        W34658  38.063  39.045  11.927
75156W        W34659  38.526  13.297   2.701
75157W        W34660  43.447  43.288  14.318
75158W        W34661  31.911  39.937   3.663
75159W        W34662  37.451   5.285   9.958
75160W        W34663  16.794  25.553  14.846
75161W        W34664  24.002   2.248   0.250
75162W        W34665  44.950  39.907   4.295
75163W        W34666   6.865  30.939   3.863
75164W        W34667   5.411  33.563  12.867
75165W        W34668   2.249   1.368  14.884
75166W        W34669   6.253   1.782   3.169
75167W        W34670   5.248  21.123  12.371
75168W        W34671   8.733  40.987  14.913
75169W        W34672  44.775  38.387  13.507
75170W        W34673  16.298   2.845   2.213
75171W        W34674  33.021  16.130   2.179
75172W        W34675  37.385  33.466  14.488
75173W        W34676  10.725  19.650  12.085
75174W        W34677  28.451  21.023  13.513
75175W        W34678  24.535  19.085  12.954
75176W        W34679  27.683  25.016   4.250
75177W        W34680  17.138  34.526  12.952
75178W        W34681  40.393  44.810   2.202
75179W        W34682  28.553  10.860  10.579
75180W        W34683  23.200  24.485   0.802
75181W        W34684   5.846  15.782   0.467
75182W        W34685   5.729  21.593  11.888
75183W        W34686   6.266   6.812   4.267
75184W        W34687  36.466   2.354  13.053
75185W        W34688  21.144  11.333   3.847
75186W        W34689  36.431  22.591   0.944
75187W        W34690  10.729  40.407  11.413
75188W        W34691  16.288  12.117   2.880
75189W        W34692  24.170  40.527   4.644
75190W        W34693  20.042  30.494   5.286
75191W        W34694  11.331   6.279   2.285
75192W        W34695   2.808  11.130   2.292
75193W        W34696  36.055  30.541  12.975
75194W        W34697  11.357   8.793   0.353
75195W        W34698   5.248  40.324   1.880
75196W        W34699   2.790  30.912  12.857
75197W        W34700  24.012   2.227  12.089
75198W        W34701  10.794  14.704  13.527
75199W        W34702  30.488  43.422  14.932
75200W        W34703  29.138  34.884   1.307
75201W        W34704  30.580  18.273  12.826
75202W        W34705   2.763   2.271  12.929
75203W        W34706  25.694  44.757   1.283
75204W        W34707   1.268  10.290  13.941
75205W        W34708  38.344   0.281   2.898
75206W        W34709  38.971  11.370   3.837
75207W        W34710  18.161   1.968   1.694
75208W        W34711  33.476  32.464  14.843
75209W        W34712  20.042  27.079  12.380
75210W        W34713   5.922   4.931  13.900
75211W        W34714  25.009  26.555   1.384
75212W        W34715  39.424  39.431  10.475
75213W        W34716  31.922  37.419   0.418
75214W        W34717  24.520  34.060  13.477
75215W        W34718  34.559  29.511   3.220
75216W        W34719  32.001  26.512   1.788
75217W        W34720   4.716  43.304  14.852
75218W        W34721  13.663   8.341  14.476
75219W        W34722  11.819  36.885   2.805
75220W        W34723  39.972  36.997  12.423
75221W        W34724   2.240  35.439   1.710
75222W        W34725   6.242  39.028   4.757
75223W        W34726  24.996  26.074  13.804
75224W        W34727  38.345  28.989  13.045
75225W        W34728  14.136  14.682   1.724
75226W        W34729  21.595  27.529   0.399
75227W        W34730  36.520  14.831  11.901
75228W        W34731  29.948  35.448   0.895
75229W        W34732  25.106  33.552  12.896
75230W        W34733   7.237  28.034   5.129
75231W        W34734  32.425  40.424  13.527
75232W        W34735  18.124  44.431   4.811
75233W        W34736   3.899  20.185  10.461
75234W        W34737  40.022  10.298   1.368
75235W        W34738   0.754  18.234   4.286
75236W        W34739   5.725  11.774  13.311
75237W        W34740  13.325   0.315  12.079
75238W        W34741  39.523  25.205  12.510
75239W        W34742  13.636  43.406  13.981
75240W        W34743  19.751  42.990  14.385
75241W        W34744  14.286  37.985  13.497
75242W        W34745  43.847   6.722  14.324
75243W        W34746   5.208   5.308  11.924
75244W        W34747   6.265  27.473   3.226
75245W        W34748  26.088  27.089   0.297
75246W        W34749  15.203  37.565  11.438
75247W        W34750   0.337  26.031  12.915
75248W        W34751  26.180  21.696   0.762
75249W        W34752   9.167  26.538   3.337
75250W        W34753   1.468  37.879  12.013
75251W        W34754  27.603  36.409   5.089
75252W        W34755  41.955  11.182   1.872
75253W        W34756  19.692   7.733   3.289
75254W        W34757   1.910  30.483   4.638
75255W        W34758  32.141  36.081  11.564
75256W        W34759  35.449  44.883   1.904
75257W        W34760  40.370  24.094   4.131
75258W        W34761   2.459  42.440   5.804
75259W        W34762  14.609  31.561   1.769
75260W        W34763  43.296  36.427   1.807
75261W        W34764  42.493  40.999   1.884
75262W        W34765  26.459   8.302  11.863
75263W        W34766  18.093  22.742  13.935
75264W        W34767  43.989  37.841  12.842
75265W        W34768  24.710   8.195  12.825
75266W        W34769  27.604  24.554  11.065
75267W        W34770  31.629   1.760   0.961
75268W        W34771  17.112  36.366  14.791
75269W        W34772   6.878   6.427   2.851
75270W        W34773   7.705  44.882  13.906
75271W        W34774  30.074  14.619   5.111
75272W        W34775  12.233  40.979  14.463
75273W        W34776  12.306   3.924   0.774
75274W        W34777  24.989  44.987  13.454
75275W        W34778  35.444  13.301  10.641
75276W        W34779  27.461  25.471  10.450
75277W        W34780   0.361  11.311   2.854
75278W        W34781  24.536  23.068  14.874
75279W        W34782  14.657   3.299  14.968
75280W        W34783  11.865  17.126  14.863
75281W        W34784  44.818  18.694  12.579
75282W        W34785  14.746  27.979  13.890
75283W        W34786   7.330  29.448  12.943
75284W        W34787  14.732  44.954   2.286
75285W        W34788  22.244  39.856   0.812
75286W        W34789  33.473  16.724   4.708
75287W        W34790   9.221   6.676  14.911
75288W        W34791  39.849  16.087  10.446
75289W        W34792  43.816  13.649   0.451
75290W        W34793  39.842   3.799  13.482
75291W        W34794   7.860  31.418   0.879
75292W        W34795   3.758  12.703   0.860
75293W        W34796  11.724  13.347  13.891
75294W        W34797   6.189   9.686   2.832
75295W        W34798  27.034  27.055  11.028
75296W        W34799   4.280  23.667  11.397
75297W        W34800   8.364   4.930  14.277
75298W        W34801  24.206  43.347   0.314
75299W        W34802  30.528  12.733   3.383
75300W        W34803  37.336   1.869   2.382
75301W        W34804  33.397   2.271  10.523
75302W        W34805  16.128  10.745  14.008
75303W        W34806  23.028  37.355   2.880
75304W        W34807   3.768  22.576  12.391
75305W        W34808  26.557  11.235  12.441
75306W        W34809  14.826   7.315  14.996
75307W        W34810  27.485  42.788   4.262
75308W        W34811  27.645  31.629  14.835
75309W        W34812  41.836  22.215   3.162
75310W        W34813  22.170  14.198  13.352
75311W        W34814  28.059   5.281  10.494
75312W        W34815  12.212  35.864  13.503
75313W        W34816  42.289   4.717  12.375
75314W        W34817   9.268  26.145  14.769
75315W        W34818  22.686  29.641   4.646
75316W        W34819  40.886   8.848  11.423
75317W        W34820  39.989  44.796  13.822
75318W        W34821  23.137  22.088   3.374
75319W        W34822   6.336  31.112   3.834
75320W        W34823  17.071  31.511  10.955
75321W        W34824   7.271  29.018  14.479
75322W        W34825   9.692   5.798   2.821
75323W        W34826  30.145  32.414   3.168
75324W        W34827  19.162   3.841   4.296
75325W        W34828  37.492  24.603   0.931
75326W        W34829   3.424  38.057  13.440
75327W        W34830  29.174  19.069   2.686
75328W        W34831  21.725  14.753  13.815
75329W        W34832   2.871  39.490   2.799
75330W        W34833  27.154  30.144  11.075
75331W        W34834  20.708  42.982  11.065
75332W        W34835  28.958  24.994  12.959
75333W        W34836  40.423  12.833  11.561
75334W        W34837  35.962  14.260  11.059
75335W        W34838   5.757  25.497   2.698
75336W        W34839  10.675   6.188  11.890
75337W        W34840  26.065  19.186   0.851
75338W        W34841  28.069  30.659  14.853
75339W        W34842  44.764  29.144  12.425
75340W        W34843  10.283  11.779  14.447
75341W        W34844  29.468   6.208   2.268
75342W        W34845  28.608   3.320  13.030
75343W        W34846  20.595  39.424  11.087
75344W        W34847   8.304  40.951   1.820
75345W        W34848  30.533  30.626  12.554
75346W        W34849  16.662  39.502   1.312
75347W        W34850  18.718  29.511  12.916
75348W        W34851  38.997  10.303  14.939
75349W        W34852   3.761  17.646   0.476
75350W        W34853  11.330  17.110  10.916
75351W        W34854  17.800  35.858   2.698
75352W        W34855   3.461  19.605   0.768
75353W        W34856  31.960  27.087   0.793
75354W        W34857  12.796  24.637   1.429
75355W        W34858  24.612   0.413  14.279
75356W        W34859  22.626  26.555   3.660
75357W        W34860  34.453  17.265   4.225
75358W        W34861  35.922  39.363  10.639
75359W        W34862   1.469  37.422  13.838
75360W        W34863  26.064   6.406   4.770
75361W        W34864  24.088  23.611  10.023
75362W        W34865   9.731  30.529  12.561
75363W        W34866  32.516   7.676  13.429
75364W        W34867  16.800   2.252   0.409
75365W        W34868   1.467  12.264   4.624
75366W        W34869  17.085   6.289   2.329
75367W        W34870  32.503   3.402   3.295
75368W        W34871  14.232   6.428   1.378
75369W        W34872  15.111  32.988  11.378
75370W        W34873  27.057  39.542  13.421
75371W        W34874   4.714  21.261  14.948
75372W        W34875  43.920   2.794   2.817
75373W        W34876  36.039  43.869  11.445
75374W        W34877  23.034  35.483  14.793
75375W        W34878  31.049  41.516   5.292
75376W        W34879  19.192   7.749  12.571
75377W        W34880   1.872  41.464  13.004
75378W        W34881  21.607  10.708   0.954
75379W        W34882  24.634  17.608  12.457
75380W        W34883  10.138  35.889   2.783
75381W        W34884  13.295  10.164  11.465
75382W        W34885  39.438   3.458   1.422
75383W        W34886  32.899  13.300   3.641
75384W        W34887   7.766   0.982  10.438
75385W        W34888  19.180  32.508  13.798
75386W        W34889  32.400  43.272   2.324
75387W        W34890  20.130  27.027   2.308
75388W        W34891  29.925  25.494  11.930
75389W        W34892  23.997  35.918  11.994
75390W        W34893   0.915  29.564   5.727
75391W        W34894  29.152  10.211   4.327
75392W        W34895   3.325  29.001  12.339
75393W        W34896   8.197   9.806   3.321
75394W        W34897  25.703   9.239   1.261
75395W        W34898  31.424  34.994  12.974
75396W        W34899  34.082  12.621   1.262
75397W        W34900  41.505   9.350   1.893
75398W        W34901  29.081  27.025   2.713
75399W        W34902  10.858  18.664  14.402
75400W        W34903   9.294  22.611   1.926
75401W        W34904  24.612   3.216  14.420
75402W        W34905  33.026   4.706   4.114
75403W        W34906  36.580  30.031   1.886
75404W        W34907  42.837  36.947   3.310
75405W        W34908  10.716  32.488  14.919
75406W        W34909  43.958  12.839  11.433
75407W        W34910  15.262  19.266  11.944
75408W        W34911  26.150  11.827   0.263
75409W        W34912  34.056  38.969   4.753
75410W        W34913  36.882  24.541  12.995
75411W        W34914  18.705  10.151  10.505
75412W        W34915  15.609  10.726   1.263
75413W        W34916  35.405  30.469  10.453
75414W        W34917  41.819   3.864   2.286
75415W        W34918  17.728  22.586   2.727
75416W        W34919  27.968  29.512  12.994
75417W        W34920  43.294   2.890  10.905
75418W        W34921   6.739  18.267   0.435
75419W        W34922  20.110  19.655   2.209
75420W        W34923  33.903  27.496  13.399
75421W        W34924   8.724   1.369   3.301
75422W        W34925  43.396  40.966  11.094
75423W        W34926  14.763  18.070   4.723
75424W        W34927   2.433   4.918   1.306
75425W        W34928  41.418   6.408  13.339
75426W        W34929  21.184  44.412   1.223
75427W        W34930   1.877  22.046   4.825
75428W        W34931  17.203   6.835  12.837
75429W        W34932  25.120   8.365   4.800
75430W        W34933  36.978  11.683   0.309
75431W        W34934  37.572  21.654   0.801
75432W        W34935  28.034  43.864  13.503
75433W        W34936  23.063  22.658  12.918
75434W        W34937  14.661  38.559   0.396
75435W        W34938  22.183  38.463   1.923
75436W        W34939  12.685  36.081   2.413
75437W        W34940  14.305  33.599   3.337
75438W        W34941  37.967   6.768   0.731
75439W        W34942   6.853  37.856   0.769
75440W        W34943   0.934  14.258  10.050
75441W        W34944  13.821  25.117  11.497
75442W        W34945  12.766  25.190  11.062
75443W        W34946  44.341  37.355  10.101
75444W        W34947   1.737  21.666   1.429
75445W        W34948  41.392  41.360   3.638
75446W        W34949   2.911  17.763  11.857
75447W        W34950  34.527  23.558   2.901
75448W        W34951   1.896  19.600  14.960
75449W        W34952  16.682   5.274   3.217
75450W        W34953  25.495   3.442  12.038
75451W        W34954  29.122  22.563  10.452
75452W        W34955  43.004  40.401   3.644
75453W        W34956   6.408   5.320  12.007
75454W        W34957  36.033   4.289   4.797
75455W        W34958  10.145  31.479   2.223
75456W        W34959  39.816  36.451  11.509
75457W        W34960  32.134  31.063   5.250
75458W        W34961  12.706  26.627   1.282
75459W        W34962   6.201  35.503  11.972
75460W        W34963  15.142  18.145  12.375
75461W        W34964  11.366  36.020   2.358
75462W        W34965  29.649   0.270   4.731
75463W        W34966  24.679  30.091   1.893
75464W        W34967   1.249  12.675  11.434
75465W        W34968   4.887  17.556  13.882
75466W        W34969  24.123  26.640  10.483
75467W        W34970  24.616  16.575   2.328
75468W        W34971  16.698  29.984  13.448
75469W        W34972  24.489  40.903  10.488
75470W        W34973  27.152   6.748  12.525
75471W        W34974  11.737  17.788   1.715
75472W        W34975  27.104  10.633  11.974
75473W        W34976  38.564  11.640  13.826
75474W        W34977  31.490  11.765   2.754
75475W        W34978  21.199  18.603  12.880
75476W        W34979  20.228  44.470  11.915
75477W        W34980   9.163   5.322   2.709
75478W        W34981  24.128  38.067   1.304
75479W        W34982  29.494  38.010  12.524
75480W        W34983  18.096   1.883   4.828
75481W        W34984   2.752   2.826  11.499
75482W        W34985   5.786  11.366   2.812
75483W        W34986  33.019   2.929  13.040
75484W        W34987   6.760  31.424  11.087
75485W        W34988  11.357  26.696   4.606
75486W        W34989   4.912   0.311   3.282
75487W        W34990  26.498  12.664   2.366
75488W        W34991  42.942  30.089   0.454
75489W        W34992   6.183  20.183   3.282
75490W        W34993  16.670  29.594   4.611
75491W        W34994  26.080  44.314   3.328
75492W        W34995  42.325  39.363  13.894
75493W        W34996  12.296   9.741  10.498
75494W        W34997  30.482  39.344   1.357
75495W        W34998  15.190   5.839   0.288
75496W        W34999   2.941  32.636   0.760
75497W        W35000  24.692  13.796   2.406
75498W        W35001  14.739  35.903  14.825
75499W        W35002   8.873  42.433  12.864
75500W        W35003  29.116  21.234  10.492
75501W        W35004  18.746  10.142   2.897
75502W        W35005   5.283  38.454  11.549
75503W        W35006  10.147  15.748  12.556
75504W        W35007  40.009  15.699   1.925
75505W        W35008  13.716   6.406  14.496
75506W        W35009  15.324  23.539  12.567
75507W        W35010  28.027   0.439  13.311
75508W        W35011  34.070  19.094   0.859
75509W        W35012   7.852  10.666  11.420
75510W        W35013   3.379  35.587  14.302
75511W        W35014   9.717  19.757   4.217
75512W        W35015  28.644  17.202  12.538
75513W        W35016   9.664  42.919   0.313
75514W        W35017  16.134   7.417  13.405
75515W        W35018   7.688  16.700  11.940
75516W        W35019  21.056  35.059  10.461
75517W        W35020  16.114  37.472   4.348
75518W        W35021  12.852  14.181   3.151
75519W        W35022  18.653  41.326  11.116
75520W        W35023  29.524   6.800   0.425
75521W        W35024  23.984   4.820   2.315
75522W        W35025  32.585  35.600  12.510
75523W        W35026  35.956   5.272   9.457
75524W        W35027  32.928   8.747   3.257
75525W        W35028  19.212  10.700  14.001
75526W        W35029  41.378  24.517  10.899
75527W        W35030   0.314  25.607  12.836
75528W        W35031  22.210  25.549   4.340
75529W        W35032  44.360  26.118   2.664
75530W        W35033  33.041   0.871   4.302
75531W        W35034  17.666   7.350  12.840
75532W        W35035  39.332  36.917  12.417
75533W        W35036   7.825  24.532   3.335
75534W        W35037   8.811  24.023   2.388
75535W        W35038  41.508  15.267   0.826
75536W        W35039  40.545  34.485   0.770
75537W        W35040  31.414   3.951  10.496
75538W        W35041  34.596   3.420   0.296
75539W        W35042   0.292  34.393  12.068
75540W        W35043  38.998  27.541  11.125
75541W        W35044  32.469  18.748   0.247
75542W        W35045  34.900   4.302  13.858
75543W        W35046  27.632  42.790  10.519
75544W        W35047  31.429  38.333   5.085
75545W        W35048   8.355  31.148  11.905
75546W        W35049  11.701  26.003   1.224
75547W        W35050   3.364   0.847  14.309
75548W        W35051  10.347   8.372   4.330
75549W        W35052  40.450  10.365   0.963
75550W        W35053  42.923   2.753   4.188
75551W        W35054  20.261  23.047  12.016
75552W        W35055  44.426  29.134  10.513
75553W        W35056  29.050  44.272   2.820
75554W        W35057  17.173  43.902   0.917
75555W        W35058  44.785  23.170   4.202
75556W        W35059  12.660  13.155   3.721
75557W        W35060  23.007  23.493  10.899
75558W        W35061   1.316   0.451   1.381
75559W        W35062  19.165  32.630   1.863
75560W        W35063   1.243   1.776   3.204
75561W        W35064  36.560  23.719  11.033
75562W        W35065  19.273  16.275  11.043
75563W        W35066  35.042   1.813   1.912
75564W        W35067  36.492  39.418   3.834
75565W        W35068  21.632  13.118  13.971
75566W        W35069   6.279   8.294   2.760
75567W        W35070   4.434  28.526  14.431
75568W        W35071  36.468  34.486  10.891
75569W        W35072  44.394  22.107  14.361
75570W        W35073  41.978   6.287  14.489
75571W        W35074  25.680  19.657  10.556
75572W        W35075  15.770  43.509   2.272
75573W        W35076  37.864   3.362   4.290
75574W        W35077  23.716   3.930   2.266
75575W        W35078  26.070  16.645   1.233
75576W        W35079   3.374  14.636  12.992
75577W        W35080   1.940   3.346  11.447
75578W        W35081  19.069  41.984   0.795
75579W        W35082  30.542  23.686  11.572
75580W        W35083  26.023   7.848   4.345
75581W        W35084  11.865  28.560  11.027
75582W        W35085  42.796  41.421   0.360
75583W        W35086  25.108  33.566   5.296
75584W        W35087  38.352  38.479  13.960
75585W        W35088  22.242   1.443   1.861
75586W        W35089  21.722  37.889  10.495
75587W        W35090  30.455   9.878  13.937
75588W        W35091  39.364  32.899  11.570
75589W        W35092  31.462  40.862  11.065
75590W        W35093  21.742  31.111  13.904
75591W        W35094  26.165  25.122   4.833
75592W        W35095  22.700  24.989  10.524
75593W        W35096  20.527  25.219  10.497
75594W        W35097  10.836   3.892   1.795
75595W        W35098  10.722  25.117   0.401
75596W        W35099  31.994  25.096   3.653
75597W        W35100  29.041  23.502   1.409
75598W        W35101   7.853  25.152  14.017
75599W        W35102  27.474  44.475   0.481
75600W        W35103  12.637   2.394  14.932
75601W        W35104  37.884   7.216   2.789
75602W        W35105  44.263  18.565   1.211
75603W        W35106  17.605  29.100  11.407
75604W        W35107   6.376  44.776   2.320
75605W        W35108  37.937  26.631  12.963
75606W        W35109  36.478   7.407   4.124
75607W        W35110   8.315  44.879  13.963
75608W        W35111  40.991  40.515  13.412
75609W        W35112  25.036  42.405   2.333
75610W        W35113  18.052  21.046  14.451
75611W        W35114   7.208   4.907  13.947
75612W        W35115   3.232  12.676   1.836
75613W        W35116  36.974  22.525  14.880
75614W        W35117  21.208   8.253   3.747
75615W        W35118  39.363  22.995  12.350
75616W        W35119  37.566  11.194  13.943
75617W        W35120  10.657  38.830   4.288
75618W        W35121  39.410   4.290  13.518
75619W        W35122  22.198   2.261   0.855
75620W        W35123  25.474   0.877  11.441
75621W        W35124  39.011  27.072   2.882
75622W        W35125  20.562  40.896   3.294
75623W        W35126   2.334  28.996   0.478
75624W        W35127  32.129  38.944   2.280
75625W        W35128   3.859  35.381   3.311
75626W        W35129  29.653  20.237   0.815
75627W        W35130  27.451  24.170  13.424
75628W        W35131  28.499  12.156  14.301
75629W        W35132   4.221  16.226   2.288
75630W        W35133  28.605   5.275   1.239
75631W        W35134   1.732   4.255  14.935
75632W        W35135  13.635  25.081  10.991
75633W        W35136  41.986  29.551  10.526
75634W        W35137  28.505   9.395  10.517
75635W        W35138  29.059  41.861  11.469
75636W        W35139  16.114  42.450   2.397
75637W        W35140   7.376  26.107   3.632
75638W        W35141  30.061  15.276   2.731
75639W        W35142  29.055  27.094  14.313
75640W        W35143  36.957  28.481  10.542
75641W        W35144  19.068  25.045   1.210
75642W        W35145  16.179  11.783  14.775
75643W        W35146  18.719  33.622   1.883
75644W        W35147  14.100  22.627  13.468
75645W        W35148  39.322  24.159   2.187
75646W        W35149  31.117  11.370  13.978
75647W        W35150  40.919  34.372   3.371
75648W        W35151  39.899   5.376  13.844
75649W        W35152  11.179   5.742  12.556
75650W        W35153  39.824  12.362   4.301
75651W        W35154  37.940  20.649  13.806
75652W        W35155  22.165  36.036   1.298
75653W        W35156   4.206   4.810  13.419
75654W        W35157  26.143  41.865   2.860
75655W        W35158  35.925  12.636  12.013
75656W        W35159  43.453  16.305  12.983
75657W        W35160  26.094  43.849  12.544
75658W        W35161  24.575  17.620   4.263
75659W        W35162  33.011   7.243  14.779
75660W        W35163  31.580  19.599   0.884
75661W        W35164  17.558  35.046   0.761
75662W        W35165   7.374  16.243  14.470
75663W        W35166   8.161  17.084  10.619
75664W        W35167   9.888  40.982   0.338
75665W        W35168  12.718  19.150  11.933
75666W        W35169  11.748  14.753   3.785
75667W        W35170   2.806  34.456  12.442
75668W        W35171  22.613  32.548  11.984
75669W        W35172  14.209   6.845   3.660
75670W        W35173  41.307   5.774  12.410
75671W        W35174  24.564  28.466   1.379
75672W        W35175   9.798  17.596   1.243
75673W        W35176  30.995   2.435   2.861
75674W        W35177  36.032   0.964   0.298
75675W        W35178   1.245  25.123  10.061
75676W        W35179  37.340  17.628   1.406
75677W        W35180  30.996  18.183  13.825
75678W        W35181  36.099   1.370  13.000
75679W        W35182  29.556  18.229   2.335
75680W        W35183  20.758  12.136  11.487
75681W        W35184   4.927  18.770  12.420
75682W        W35185  19.742  31.901   1.783
75683W        W35186  31.153  23.536  12.826
75684W        W35187   9.166  40.327   3.670
75685W        W35188  44.775  43.945  12.001
75686W        W35189  36.471  12.791  13.905
75687W        W35190   4.282  42.304  12.516
75688W        W35191  28.138   9.251   2.884
75689W        W35192  27.509  37.973   3.361
75690W        W35193   0.354  34.594  11.396
75691W        W35194  27.632  31.985   1.848
75692W        W35195  28.616  26.962  13.540
75693W        W35196   5.402  37.960   3.241
75694W        W35197  21.130  26.501  14.397
75695W        W35198  16.283  14.805  12.380
75696W        W35199  36.049   3.759  13.526
75697W        W35200   8.381  18.620   2.378
75698W        W35201  29.959  39.898  11.609
75699W        W35202  12.828  32.597   1.733
75700W        W35203  32.570  10.191  13.933
75701W        W35204  33.531  42.915  10.020
75702W        W35205  34.589  34.420   3.821
75703W        W35206  24.693  41.024   1.896
75704W        W35207  37.496  31.092  11.475
75705W        W35208  18.120  27.082  13.806
75706W        W35209   5.703  16.583   0.246
75707W        W35210  36.015   4.723  13.393
75708W        W35211  26.592  43.313  11.022
75709W        W35212  13.716  16.755   3.301
75710W        W35213  30.642  27.034   2.341
75711W        W35214  30.151  20.534  10.966
75712W        W35215  25.620  42.999  13.919
75713W        W35216  40.455  15.153   0.814
75714W        W35217  42.428   4.796   1.325
75715W        W35218  31.578  11.706   3.736
75716W        W35219  40.802   5.904   0.323
75717W        W35220  31.550   7.825  13.494
75718W        W35221  44.337   1.977  10.461
75719W        W35222  30.112  33.954  10.978
75720W        W35223  13.342  40.386  12.369
75721W        W35224   7.692  38.477   3.185
75722W        W35225  28.436  23.083  12.935
75723W        W35226  22.061   8.674   1.864
75724W        W35227  32.533  40.935  13.795
75725W        W35228  32.462  39.548   4.289
75726W        W35229   3.792  31.075   2.302
75727W        W35230  39.504  39.509   4.234
75728W        W35231  18.701  26.466  11.980
75729W        W35232  16.145  44.340   4.655
75730W        W35233  32.533  32.418  13.499
75731W        W35234  36.023   0.362  14.293
75732W        W35235  43.450  15.257   3.779
75733W        W35236  24.094   2.765   2.897
75734W        W35237   4.328  28.582  10.643
75735W        W35238  20.602  13.827   3.262
75736W        W35239  12.857   0.946   3.321
75737W        W35240  31.630  26.496   2.751
75738W        W35241   8.337  10.152  10.991
75739W        W35242  16.765  11.629  12.363
75740W        W35243  28.628   7.273  11.590
75741W        W35244  34.510  29.556   0.395
75742W        W35245  14.304   9.848   1.346
75743W        W35246  44.459  41.002   3.270
75744W        W35247  21.113  21.539  13.869
75745W        W35248  30.551  22.672  14.503
75746W        W35249   7.861  31.992   5.133
75747W        W35250  15.658  18.255  11.405
75748W        W35251  19.553   7.679  12.917
75749W        W35252  17.156   0.880   0.395
75750W        W35253  17.732  14.788  14.813
75751W        W35254   3.937  20.585  13.934
75752W        W35255  33.397  29.975   2.368
75753W        W35256  19.110  29.594   0.884
75754W        W35257  35.589  15.600  12.443
75755W        W35258   4.265   1.478  14.337
75756W        W35259  16.625  43.411  10.435
75757W        W35260   1.408  27.072  13.954
75758W        W35261  23.024  40.308  14.993
75759W        W35262  41.417  42.849   1.739
75760W        W35263  18.672  30.076   2.737
75761W        W35264  37.510  39.850   2.312
75762W        W35265  34.449  36.989  12.429
75763W        W35266  12.659  37.535  11.000
75764W        W35267  28.465  33.444   2.269
75765W        W35268  34.909  27.115   0.295
75766W        W35269  32.394  13.834  11.897
75767W        W35270  31.570   7.280   3.814
75768W        W35271   6.270  15.797  12.019
75769W        W35272   2.264  44.490   0.461
75770W        W35273  25.578  44.266  13.002
75771W        W35274  25.537  37.032  12.475
75772W        W35275  39.928  12.797   2.266
75773W        W35276   3.392   9.760  12.990
75774W        W35277  33.538   2.925  10.643
75775W        W35278  29.055  11.235  13.882
75776W        W35279  37.978  40.347   2.677
75777W        W35280  16.587   3.326   4.305
75778W        W35281  21.148  36.882   4.267
75779W        W35282  24.112   0.792   1.274
75780W        W35283  19.222  14.707  14.015
75781W        W35284  40.986  27.610   2.368
75782W        W35285  36.080   1.242   3.806
75783W        W35286   5.400  25.182  12.579
75784W        W35287  11.185  32.114   1.329
75785W        W35288  19.066  37.567   4.250
75786W        W35289  18.644  38.337   1.762
75787W        W35290   0.264  38.010   0.456
75788W        W35291  44.800  44.775   1.343
75789W        W35292   6.694  21.097   0.345
75790W        W35293  16.611   0.288   1.921
75791W        W35294  35.071  14.677  11.983
75792W        W35295  31.929  32.954  10.983
75793W        W35296  11.657  36.097  11.515
75794W        W35297   9.881  22.553  14.361
75795W        W35298   1.917  44.876   2.690
75796W        W35299  24.610   1.250   1.710
75797W        W35300  30.593  17.307   1.374
75798W        W35301  33.903  22.212  14.018
75799W        W35302   0.411  17.156  10.017
75800W        W35303  44.757   5.233   1.908
75801W        W35304  25.681  43.974   3.382
75802W        W35305   3.794  29.135   0.468
75803W        W35306  21.048   2.387   4.226
75804W        W35307  43.461  15.785  14.004
75805W        W35308  24.192  22.241   4.121
75806W        W35309  13.703  37.350  13.536
75807W        W35310   2.277  31.410  10.936
75808W        W35311   2.917  31.006   1.428
75809W        W35312  33.565  13.664  12.897
75810W        W35313  25.107  20.239  11.589
75811W        W35314   7.200   7.744  12.025
75812W        W35315  43.389  43.765  11.059
75813W        W35316  17.105  26.967   2.734
75814W        W35317  39.005  23.712  11.958
75815W        W35318  33.605  22.241  12.852
75816W        W35319   4.879   1.245  10.900
75817W        W35320  31.562  17.598  11.045
75818W        W35321  22.116   6.249  10.947
75819W        W35322  18.689  40.870  12.033
75820W        W35323  32.055  34.532   4.719
75821W        W35324  16.785  40.895  14.447
75822W        W35325   5.869  44.866   0.254
75823W        W35326  17.222  40.530   4.615
75824W        W35327  19.044  31.594  14.365
75825W        W35328  38.453  37.488   4.265
75826W        W35329  19.603   9.834  10.580
75827W        W35330  25.188   7.816  11.943
75828W        W35331  19.719   5.875   3.197
75829W        W35332  39.532  36.010  12.035
75830W        W35333  40.382   9.817  13.823
75831W        W35334   8.175  43.457  10.941
75832W        W35335  29.102   4.326  10.559
75833W        W35336  21.750  35.414   1.708
75834W        W35337  39.874  32.997   0.483
75835W        W35338  33.930  10.250  11.040
75836W        W35339  41.971   2.449   0.347
75837W        W35340  37.001  26.184   0.812
75838W        W35341  22.581  21.248   0.821
75839W        W35342  10.283   5.809   1.760
75840W        W35343  38.515  10.661   0.742
75841W        W35344  24.025  11.751  10.476
75842W        W35345  42.375   6.705  14.403
75843W        W35346   6.847  29.516   4.292
75844W        W35347  27.096  31.624   3.161
75845W        W35348  17.071  31.971  10.641
75846W        W35349  23.734  14.756   3.342
75847W        W35350  25.683  34.057  11.445
75848W        W35351   7.708  44.323   2.794
75849W        W35352  43.791  33.422  10.502
75850W        W35353  12.360  20.114  11.502
75851W        W35354  16.650  43.782  14.398
75852W        W35355  20.071  10.796   0.781
75853W        W35356  30.065   3.254  12.349
75854W        W35357   1.431  13.821  14.276
75855W        W35358  15.642   4.274  14.018
75856W        W35359  35.889  35.990   2.788
75857W        W35360  36.050  23.115   1.902
75858W        W35361  37.018   6.767   2.394
75859W        W35362  22.069  38.529   0.399
75860W        W35363  34.372  17.558   3.712
75861W        W35364  27.193   3.737   3.292
75862W        W35365  12.286  19.196  14.764
75863W        W35366  33.517  40.442   4.823
75864W        W35367  19.044  20.616  14.416
75865W        W35368   4.397  15.697  13.497
75866W        W35369   1.436   3.787  11.404
75867W        W35370  44.778  11.367   0.790
75868W        W35371  41.815   9.360   2.315
75869W        W35372  34.498  40.387   1.309
75870W        W35373  33.482   0.936  12.078
75871W        W35374   5.435  16.281  10.437
75872W        W35375  43.853  27.083  13.493
75873W        W35376  35.424  16.648  11.022
75874W        W35377   0.471  29.507   0.935
75875W        W35378  38.826   8.250  11.915
75876W        W35379  26.108  43.896   5.122
75877W        W35380   5.833   3.944   3.265
75878W        W35381   7.686  35.066   0.385
75879W        W35382   2.243  17.177  11.863
75880W        W35383  36.093   1.759   4.746
75881W        W35384  24.659  32.410   1.827
75882W        W35385  11.148  20.619  11.877
75883W        W35386  25.577  23.994   3.335
75884W        W35387  32.041  32.426   0.925
75885W        W35388   1.790  34.528   4.742
75886W        W35389  21.030  29.163   4.351
75887W        W35390   4.877  26.015   3.312
75888W        W35391  11.129  41.894   1.378
75889W        W35392  40.403  26.646   4.177
75890W        W35393  39.869   4.855   3.167
75891W        W35394   6.242   3.241   0.401
75892W        W35395  27.661  35.421   4.244
75893W        W35396  15.776  32.459   5.147
75894W        W35397  21.104  17.589   0.393
75895W        W35398  34.525  18.678  14.388
75896W        W35399  15.207  29.970   3.218
75897W        W35400  26.689  33.569   2.689
75898W        W35401   5.278  36.014   4.278
75899W        W35402  14.157  32.574   2.845
75900W        W35403  12.303  12.855   3.806
75901W        W35404   3.267  29.451   1.316
75902W        W35405  30.539  35.076   2.894
75903W        W35406   8.755  38.870  12.366
75904W        W35407   0.455   5.896   0.882
75905W        W35408  38.876   8.368  12.931
75906W        W35409  32.038   1.355   4.192
75907W        W35410   4.314  34.977  11.015
75908W        W35411  20.653  44.445  13.852
75909W        W35412  20.661  21.532  14.451
75910W        W35413  42.370  38.070  14.468
75911W        W35414  30.441  22.529  14.837
75912W        W35415  34.437  32.115  12.029
75913W        W35416  41.316  10.176  14.769
75914W        W35417  18.690  13.699   3.656
75915W        W35418   2.840  44.312   2.300
75916W        W35419  13.178  28.993   1.315
75917W        W35420  35.577  38.466   1.917
75918W        W35421  14.647  33.877  13.026
75919W        W35422   6.706  10.373  13.896
75920W        W35423   3.313  27.485   2.747
75921W        W35424  40.834  23.239   0.315
75922W        W35425  14.233  31.614  12.893
75923W        W35426  44.783  33.626   3.631
75924W        W35427   3.275   1.930  10.929
75925W        W35428  13.175   6.888   4.279
75926W        W35429  20.739  22.094  14.999
75927W        W35430  24.481   3.897   4.291
75928W        W35431  33.406   7.182  12.971
75929W        W35432  16.175  10.278   2.293
75930W        W35433  28.949  12.712   3.162
75931W        W35434  31.408  39.490   2.733
75932W        W35435  39.889  10.828   3.215
75933W        W35436  34.033  31.937  14.394
75934W        W35437   9.341  22.228   0.924
75935W        W35438  33.991  39.868   1.872
75936W        W35439   1.324  17.065  12.857
75937W        W35440  30.042  27.033   3.183
75938W        W35441  35.039  37.461   3.263
75939W        W35442  10.760   8.385   2.892
75940W        W35443  28.984   2.451  14.362
75941W        W35444  22.215   6.704  12.577
75942W        W35445  16.188   2.243  14.022
75943W        W35446  19.609  35.435   3.778
75944W        W35447  11.269  15.229   3.207
75945W        W35448  14.774  42.010   1.900
75946W        W35449  40.430  37.398   3.298
75947W        W35450  17.781  23.722  10.918
75948W        W35451  10.763  31.980   2.851
75949W        W35452  30.971  14.745   2.735
75950W        W35453  27.630  18.574   2.209
75951W        W35454  11.689  10.211   3.162
75952W        W35455  13.799  43.851   4.262
75953W        W35456  19.709  10.287   2.673
75954W        W35457  32.456  20.647   1.451
75955W        W35458   1.742  25.053  12.903
75956W        W35459  30.135  12.653   2.249
75957W        W35460  10.255  18.656  11.996
75958W        W35461  34.485   3.362  12.899
75959W        W35462   6.183   5.418   3.675
75960W        W35463  30.953  31.068  10.928
75961W        W35464  10.340   0.361  11.101
75962W        W35465   5.359  14.671  13.045
75963W        W35466  43.344   0.446  13.022
75964W        W35467   5.235   4.436  14.869
75965W        W35468   8.319  16.640   2.405
75966W        W35469   6.916   4.765   2.416
75967W        W35470   4.239  15.136  14.473
75968W        W35471  25.468  18.626   4.634
75969W        W35472   4.418  32.137   3.762
75970W        W35473  41.467   0.443   3.221
75971W        W35474  39.004  10.854  10.590
75972W        W35475   1.272  28.550   1.268
75973W        W35476  44.307  35.960  14.998
75974W        W35477  40.419  42.481  10.469
75975W        W35478  26.147  14.283   2.252
75976W        W35479  10.670  36.081  12.837
75977W        W35480  39.050  16.279  11.413
75978W        W35481  27.596  41.902  10.915
75979W        W35482  24.122  31.443   3.773
75980W        W35483  24.199  18.609   1.215
75981W        W35484  35.988  31.040  13.930
75982W        W35485   9.165  42.327  12.089
75983W        W35486  28.999  35.030  13.931
75984W        W35487  22.072  22.618   2.856
75985W        W35488  13.345   4.363   3.850
75986W        W35489  10.789  35.889  11.002
75987W        W35490  36.896  44.347  11.552
75988W        W35491  27.580  44.414   0.815
75989W        W35492  41.829   3.710   2.862
75990W        W35493  21.056  28.552  14.003
75991W        W35494  32.982   9.874  13.313
75992W        W35495  27.066  21.514  12.914
75993W        W35496  17.581   7.411  14.460
75994W        W35497  34.582  30.653   2.677
75995W        W35498  14.785  40.895   2.777
75996W        W35499  23.511  10.169   0.965
75997W        W35500  22.216   8.206   3.744
75998W        W35501   4.393  28.095  10.520
75999W        W35502   5.425  27.538  14.429
76000W        W35503  32.404   4.736  13.944
76001W        W35504   0.786  39.885  12.952
76002W        W35505  31.422  35.909   0.955
76003W        W35506  43.774   0.795   0.937
76004W        W35507  40.377  36.849  12.500
76005W        W35508  30.573  15.617   2.778
76006W        W35509  40.533   1.280   0.816
76007W        W35510   4.818   5.934  12.883
76008W        W35511  41.952  18.212   1.436
76009W        W35512  29.073  37.988   1.773
76010W        W35513  26.516   1.925   1.257
76011W        W35514  24.500  24.084  11.470
76012W        W35515  17.072   8.202   3.311
76013W        W35516  40.441  24.724  12.871
76014W        W35517   4.330   6.225   3.811
76015W        W35518  25.071   3.767  14.944
76016W        W35519   2.821   8.255   1.274
76017W        W35520  30.129  24.160   9.613
76018W        W35521  38.342   2.870   9.641
76019W        W35522   0.342   9.277  13.521
76020W        W35523  12.741  36.845  10.421
76021W        W35524  41.808  44.363   0.806
76022W        W35525   1.346  34.528  10.449
76023W        W35526   6.336  41.997  10.493
76024W        W35527  29.578  14.665   0.359
76025W        W35528   9.673  17.708  11.060
76026W        W35529  38.492  44.464   1.388
76027W        W35530  31.588  13.331   3.721
76028W        W35531   0.263   2.278  11.543
76029W        W35532  30.921  12.791   1.362
76030W        W35533  38.005   0.877  13.911
76031W        W35534  42.335  34.968  11.451
76032W        W35535  41.933  22.097  11.907
76033W        W35536  15.196   2.380  12.397
76034W        W35537  15.153  36.534   4.698
76035W        W35538  17.234  28.480  14.814
76036W        W35539  40.532  43.770   2.386
76037W        W35540   4.921  30.049   4.768
76038W        W35541  39.833   8.367   0.959
76039W        W35542  30.456   2.938  12.860
76040W        W35543   3.709  23.169   0.484
76041W        W35544   0.378  28.173   2.849
76042W        W35545  11.822  31.132   5.664
76043W        W35546  41.832  37.029   1.826
76044W        W35547   9.259  26.623  11.112
76045W        W35548  28.008  18.154  11.071
76046W        W35549  31.017  22.034  13.548
76047W        W35550   9.721  38.926  10.457
76048W        W35551   6.212  44.417  12.464
76049W        W35552  20.271  15.746  13.970
76050W        W35553   7.194  37.974   2.311
76051W        W35554  22.145  33.880  12.900
76052W        W35555  13.799  20.175  11.953
76053W        W35556  28.097  42.783   4.268
76054W        W35557   3.270  35.097  13.019
76055W        W35558   6.381  38.489  10.625
76056W        W35559  38.504   4.698  12.847
76057W        W35560  29.104  23.580   3.779
76058W        W35561  23.022  14.734  11.073
76059W        W35562  16.722  37.058  11.937
76060W        W35563  33.057  12.708   9.498
76061W        W35564  27.127  32.928   2.263
76062W        W35565  30.448  12.160  12.854
76063W        W35566   3.249  30.459  11.507
76064W        W35567  19.196  38.046   2.675
76065W        W35568  44.848  43.392  13.825
76066W        W35569  40.044  36.521   4.126
76067W        W35570  15.123  31.044  11.047
76068W        W35571   6.689   7.394   2.366
76069W        W35572  32.971  19.727   3.196
76070W        W35573  34.451  21.143   0.793
76071W        W35574  10.173  42.480  14.401
76072W        W35575  28.090  19.095   2.768
76073W        W35576  23.109  18.707  12.342
76074W        W35577  12.155  15.155  14.346
76075W        W35578  24.073  44.884   4.222
76076W        W35579  35.565  20.563   3.366
76077W        W35580  28.574  10.171   1.449
76078W        W35581  19.081  27.504   3.749
76079W        W35582  25.017  43.982  13.377
76080W        W35583   6.873  15.608  12.912
76081W        W35584  27.463  13.629   4.694
76082W        W35585  21.140  43.919  14.485
76083W        W35586  30.948   0.287   4.724
76084W        W35587  23.102  40.978   0.832
76085W        W35588  42.002  19.711   1.933
76086W        W35589  41.866   9.295   3.771
76087W        W35590  18.570   9.271  13.370
76088W        W35591  11.280  31.988  14.773
76089W        W35592  29.477  24.555  10.951
76090W        W35593   2.781  19.146   1.806
76091W        W35594  38.024  44.863  10.531
76092W        W35595  15.292  25.695   2.788
76093W        W35596  21.127  27.028  11.533
76094W        W35597  10.190  17.234  12.564
76095W        W35598   2.801  41.919   0.756
76096W        W35599  14.752  11.258  11.483
76097W        W35600  33.877  27.140  12.000
76098W        W35601  27.474  30.104  11.522
76099W        W35602  26.155  11.753   4.187
76100W        W35603  33.616  36.380   9.548
76101W        W35604  42.922  41.442  13.498
76102W        W35605   7.718  22.122  12.988
76103W        W35606   4.721  42.811  11.527
76104W        W35607  31.488  31.449   5.290
76105W        W35608  12.223   3.928  12.364
76106W        W35609   1.732  10.169  13.996
76107W        W35610   6.865  38.917  13.956
76108W        W35611   3.270  25.164   4.324
76109W        W35612  30.985  30.085  11.085
76110W        W35613  14.625  19.637  11.860
76111W        W35614  13.633  35.934  12.066
76112W        W35615   2.359   5.363  11.952
76113W        W35616  42.337   2.335   1.891
76114W        W35617   9.316  25.005   3.385
76115W        W35618  21.521   2.307  12.965
76116W        W35619   5.263   1.240   3.796
76117W        W35620  42.831  24.685   2.808
76118W        W35621   9.179   7.882   2.867
76119W        W35622  29.141  16.628   0.328
76120W        W35623  30.422  41.488   3.229
76121W        W35624   1.325  12.189   0.792
76122W        W35625   4.802  41.319   0.424
76123W        W35626  11.622  18.577   1.756
76124W        W35627  41.502  21.052  10.569
76125W        W35628  31.055  23.550  13.895
76126W        W35629   6.270   4.312   4.705
76127W        W35630  22.200  33.511  13.043
76128W        W35631   8.751  25.007  14.992
76129W        W35632  19.646  42.893   1.389
76130W        W35633  14.712  11.849   3.230
76131W        W35634  44.782  33.526   2.663
76132W        W35635  25.472   7.748  14.836
76133W        W35636  40.842  20.254  13.406
76134W        W35637  22.560  41.828  12.837
76135W        W35638  12.766  31.045   5.298
76136W        W35639   7.325  44.325   0.269
76137W        W35640  16.640  23.681   0.948
76138W        W35641  25.019  43.924  14.515
76139W        W35642   0.298  32.945  13.477
76140W        W35643  26.977   6.678  10.940
76141W        W35644  17.668  20.738  13.334
76142W        W35645  24.688  33.900   2.718
76143W        W35646  33.999  11.314   0.313
76144W        W35647   6.735  41.796   1.334
76145W        W35648   3.245  15.182  14.943
76146W        W35649  31.982  11.793  14.289
76147W        W35650   1.763  18.123   3.353
76148W        W35651  34.440   4.381  14.802
76149W        W35652   4.905  24.626  12.001
76150W        W35653  34.082  30.011   1.777
76151W        W35654  41.423  23.201  13.984
76152W        W35655  40.867  27.590  14.378
76153W        W35656  28.171  35.593  14.773
76154W        W35657  22.030  18.750  13.380
76155W        W35658  20.643  14.230   3.746
76156W        W35659  31.048  14.122   0.775
76157W        W35660  31.975  26.690  12.479
76158W        W35661  44.371  19.136   1.922
76159W        W35662   9.370  27.147   0.778
76160W        W35663   2.227  30.528   0.269
76161W        W35664  38.850   1.379  12.339
76162W        W35665   4.812  43.947   1.831
76163W        W35666  21.195   6.275   2.853
76164W        W35667   3.417   8.200  12.953
76165W        W35668  32.485  29.563   2.206
76166W        W35669  29.084  16.234  11.506
76167W        W35670  30.098  34.499   0.894
76168W        W35671  42.820  16.152  10.428
76169W        W35672   2.276  27.527   2.342
76170W        W35673   2.359  33.389   2.273
76171W        W35674  43.288  13.110   1.861
76172W        W35675  30.982  39.315   1.913
76173W        W35676  37.357   8.314   1.706
76174W        W35677  44.349  27.962  13.876
76175W        W35678  34.564  17.292   3.743
76176W        W35679  30.152  15.114   3.212
76177W        W35680  12.140  31.525   0.885
76178W        W35681   8.167  44.892  12.926
76179W        W35682  18.051  27.093  14.877
76180W        W35683  14.335  36.449   4.217
76181W        W35684  20.061  19.608  10.923
76182W        W35685  15.620  17.633   1.244
76183W        W35686   9.368  33.464   4.651
76184W        W35687  32.125  41.907   3.166
76185W        W35688  40.477  33.410   5.205
76186W        W35689  35.901  37.363   2.276
76187W        W35690  16.730  38.967  12.404
76188W        W35691  34.575  31.543   4.251
76189W        W35692  30.468  32.007  14.761
76190W        W35693   1.757  16.692   0.423
76191W        W35694   0.370  18.718  11.956
76192W        W35695   1.373  27.634   1.897
76193W        W35696  43.437  14.624   1.784
76194W        W35697  32.921   2.366   2.390
76195W        W35698   7.243  39.526  14.814
76196W        W35699  18.092   3.317  10.978
76197W        W35700  32.494   8.347  14.793
76198W        W35701  36.023   0.972   3.276
76199W        W35702   3.263  39.048  10.642
76200W        W35703  39.377  10.290   1.228
76201W        W35704  42.891   5.911  13.909
76202W        W35705  37.551  13.310   2.374
76203W        W35706   9.844  23.493   4.187
76204W        W35707  18.573  25.662  13.915
76205W        W35708  10.854  18.143  14.818
76206W        W35709  35.581  23.545  12.351
76207W        W35710   0.747   9.810  11.380
76208W        W35711  32.595  29.150   4.347
76209W        W35712  10.638  39.374  13.374
76210W        W35713  42.794  44.792   1.392
76211W        W35714   4.291  28.067   3.360
76212W        W35715   3.800   3.460  10.406
76213W        W35716   4.395   5.806   2.381
76214W        W35717   5.206  19.666  10.496
76215W        W35718  34.061   1.416  13.463
76216W        W35719  13.756  26.128  14.981
76217W        W35720   7.260  18.683  13.889
76218W        W35721   4.804  18.656   0.356
76219W        W35722  31.072  13.834  13.372
76220W        W35723  22.634   7.855  11.868
76221W        W35724  41.944  24.509  11.600
76222W        W35725  40.992  31.437  13.315
76223W        W35726  38.052   6.754   4.140
76224W        W35727  31.037  18.758  11.928
76225W        W35728  22.198  23.025  14.944
76226W        W35729  21.253  25.685   3.233
76227W        W35730  10.752  42.021   2.253
76228W        W35731  19.078  28.489  12.521
76229W        W35732  10.868  38.453   0.929
76230W        W35733  19.705  19.562  14.367
76231W        W35734  18.576  26.562   2.762
76232W        W35735  22.551   8.800  14.996
76233W        W35736  32.608   6.240  11.427
76234W        W35737  24.162  10.640  11.029
76235W        W35738  26.604  17.224  13.949
76236W        W35739  28.181   8.813  14.329
76237W        W35740  18.278   5.762  12.985
76238W        W35741  37.355  19.243  12.546
76239W        W35742  37.498  33.943   2.258
76240W        W35743  27.191  13.190  11.048
76241W        W35744  33.609  29.985  11.886
76242W        W35745  34.597  12.703   1.829
76243W        W35746  28.558   2.872   1.310
76244W        W35747  31.062  36.505  14.808
76245W        W35748  44.913  41.902  10.482
76246W        W35749  23.669  33.618  11.514
76247W        W35750  41.998  30.131   4.837
76248W        W35751  16.201  34.595  14.486
76249W        W35752   2.909  36.861   2.750
76250W        W35753  39.826   0.887   2.314
76251W        W35754   8.180   8.814  14.447
76252W        W35755   8.232  35.429  10.627
76253W        W35756   3.235   5.738   4.689
76254W        W35757  23.540  24.005   3.232
76255W        W35758   5.399   4.799   4.657
76256W        W35759  34.611  17.198   4.628
76257W        W35760  27.093  10.325   1.708
76258W        W35761  39.412  39.516  12.527
76259W        W35762  31.559  25.127   1.261
76260W        W35763  27.475  15.116   3.759
76261W        W35764  12.133  21.750   4.789
76262W        W35765   2.438  20.053   4.176
76263W        W35766   8.869  22.059   2.689
76264W        W35767  19.719  32.959   0.461
76265W        W35768  37.973  19.169   1.753
76266W        W35769  24.047  37.058  14.402
76267W        W35770  40.994  33.061  13.990
76268W        W35771  18.769  24.558  12.499
76269W        W35772  21.556  22.211   3.833
76270W        W35773  26.468  29.563   3.804
76271W        W35774  24.653   3.410  10.632
76272W        W35775  33.496  33.417  11.010
76273W        W35776  14.727  11.283   3.796
76274W        W35777  41.318   7.898  11.551
76275W        W35778  42.868  31.142  12.994
76276W        W35779  14.785  19.277   3.278
76277W        W35780  23.661   4.337   4.651
76278W        W35781  12.222  23.718   4.320
76279W        W35782  40.918  23.232  11.548
76280W        W35783  35.980  38.911   0.933
76281W        W35784  11.315   4.944  13.840
76282W        W35785  10.268   4.894  10.440
76283W        W35786  23.655   5.922   3.829
76284W        W35787  38.490  22.635   1.440
76285W        W35788  14.153  29.479  14.507
76286W        W35789  27.008  43.764  13.965
76287W        W35790  22.036  40.002  10.911
76288W        W35791   7.762  32.584   3.384
76289W        W35792  12.353  18.706   2.716
76290W        W35793  43.894  33.612  13.030
76291W        W35794  11.832  13.793  13.470
76292W        W35795  16.249   7.178  12.062
76293W        W35796  23.210  30.911   4.131
76294W        W35797  22.062  17.239   3.784
76295W        W35798  18.152   5.224   1.694
76296W        W35799  24.092   1.731  12.838
76297W        W35800  44.873   1.814  10.437
76298W        W35801  19.586  26.596   3.308
76299W        W35802  25.694  43.967  12.445
76300W        W35803   8.376  23.547  12.572
76301W        W35804  36.510  30.988   2.354
76302W        W35805   4.861  21.231  14.436
76303W        W35806  43.449  36.936   0.962
76304W        W35807  33.110  18.092  10.955
76305W        W35808  37.398  43.764  12.439
76306W        W35809   3.457  25.079   3.731
76307W        W35810   5.350  12.122   3.232
76308W        W35811   4.250  22.169  14.802
76309W        W35812  14.185  38.059  13.927
76310W        W35813  20.738  13.772  10.463
76311W        W35814  28.567   0.913  13.489
76312W        W35815  38.454   3.279   5.670
76313W        W35816  17.708  44.399  14.800
76314W        W35817  32.037  35.032  12.892
76315W        W35818  27.041  31.435  10.968
76316W        W35819   8.173  31.947  13.448
76317W        W35820  12.208  21.042  10.910
76318W        W35821   9.317   3.864   3.295
76319W        W35822  36.587   1.949   9.943
76320W        W35823   9.744  17.101  14.900
76321W        W35824  39.047  38.014   0.265
76322W        W35825   7.320  41.822   0.450
76323W        W35826  23.586  14.191  10.625
76324W        W35827  15.632  14.832   0.876
76325W        W35828   6.717  25.149   3.232
76326W        W35829  13.696  11.781   1.811
76327W        W35830  41.837  30.439  10.433
76328W        W35831  28.623  16.112   3.736
76329W        W35832  23.732  15.160  12.375
76330W        W35833  26.522  41.852   5.122
76331W        W35834  10.372  43.476   4.119
76332W        W35835  44.002  10.877   2.366
76333W        W35836   4.762  18.200  11.449
76334W        W35837  18.709  40.984  14.307
76335W        W35838  31.486   6.731  14.774
76336W        W35839   0.790   7.824   3.256
76337W        W35840  41.440  31.940   0.404
76338W        W35841  36.063  26.527   4.631
76339W        W35842   6.310  33.438   4.304
76340W        W35843  27.533  20.586  14.826
76341W        W35844  27.071  31.621   2.314
76342W        W35845  20.578  12.785  14.404
76343W        W35846  17.682  33.900  14.920
76344W        W35847   6.187  41.814   3.744
76345W        W35848  24.713  34.567  10.984
76346W        W35849  15.706  42.847   5.142
76347W        W35850   4.750  36.392  10.889
76348W        W35851  43.402  24.713   3.713
76349W        W35852  12.131  20.069   2.280
76350W        W35853   6.733  26.470  11.468
76351W        W35854  36.475   7.241   4.650
76352W        W35855  34.444  38.487  13.535
76353W        W35856  38.878  34.937  11.503
76354W        W35857   4.226   7.329  12.998
76355W        W35858  40.028   4.285  12.012
76356W        W35859   4.428  13.139   0.444
76357W        W35860  17.283   0.923   2.279
76358W        W35861  37.018   0.940   1.333
76359W        W35862   2.866  29.001   4.761
76360W        W35863  30.956   2.791  14.430
76361W        W35864   5.725  13.179   2.232
76362W        W35865  40.515  20.743  13.958
76363W        W35866  11.176  38.987  13.338
76364W        W35867  22.031  35.479   1.732
76365W        W35868   2.910  27.520   3.701
76366W        W35869  35.021  19.686   2.807
76367W        W35870  43.876   5.303  11.038
76368W        W35871  40.485  12.847   4.172
76369W        W35872  34.890  38.908  14.955
76370W        W35873  39.314  23.610  10.458
76371W        W35874  39.014  11.213   2.769
76372W        W35875  11.680  27.554  11.860
76373W        W35876   4.751  38.403   1.837
76374W        W35877  41.421  43.388   0.327
76375W        W35878   8.677  31.110  14.769
76376W        W35879  30.616  12.619  13.423
76377W        W35880  23.990  19.762   2.279
76378W        W35881  20.050   0.311   2.181
76379W        W35882  37.524  36.509   0.928
76380W        W35883  24.552  25.983  14.466
76381W        W35884  12.774  31.917   0.324
76382W        W35885  13.308  33.112  13.993
76383W        W35886   8.684  18.241   3.337
76384W        W35887  11.242  35.479   0.297
76385W        W35888  21.571  41.353   0.343
76386W        W35889  29.660  28.599  14.000
76387W        W35890  15.669  39.438  12.985
76388W        W35891  19.692  18.268  13.517
76389W        W35892   8.259  38.036  12.515
76390W        W35893  37.033  43.407  11.881
76391W        W35894  18.087  34.885   4.606
76392W        W35895  11.294  39.466   1.401
76393W        W35896   6.289  25.093   3.298
76394W        W35897  30.580  23.027   3.865
76395W        W35898  26.107  40.533  12.844
76396W        W35899  25.683  31.635  14.371
76397W        W35900   8.184  32.454  12.572
76398W        W35901  21.645  38.023  13.497
76399W        W35902   4.927   5.850   0.815
76400W        W35903  13.251  26.674   3.207
76401W        W35904  25.567  22.112   4.812
76402W        W35905  29.161  37.980   4.770
76403W        W35906  37.481  35.003  13.500
76404W        W35907   8.292  27.537  10.981
76405W        W35908  10.748  41.817  11.900
76406W        W35909   5.366  26.109  14.885
76407W        W35910  37.008   7.679  11.914
76408W        W35911  35.500  14.156   4.257
76409W        W35912   0.967  18.683  10.630
76410W        W35913   0.376  23.543  14.854
76411W        W35914  13.261  29.631  13.384
76412W        W35915   2.945  31.040   2.812
76413W        W35916   3.853  42.990   2.851
76414W        W35917  16.189  41.391   1.382
76415W        W35918  43.322  37.048  12.386
76416W        W35919  39.545  44.288   4.723
76417W        W35920   0.921  16.637  13.804
76418W        W35921  12.777  21.514   2.688
76419W        W35922  32.554  30.944  14.437
76420W        W35923  38.926  23.578   0.409
76421W        W35924   7.699  35.360  13.511
76422W        W35925  22.202   7.293  11.012
76423W        W35926  39.550  14.308   5.185
76424W        W35927  30.005  42.879   0.842
76425W        W35928  26.526  26.090   3.724
76426W        W35929   1.307  15.297   2.888
76427W        W35930   6.686  27.536  10.453
76428W        W35931   4.317  42.920   1.372
76429W        W35932   4.848  27.036   2.325
76430W        W35933  12.353  40.518   1.897
76431W        W35934   0.954  23.593  11.392
76432W        W35935  41.889  25.514   3.266
76433W        W35936  36.928  31.148   1.867
76434W        W35937  10.241  28.559   4.811
76435W        W35938   9.770  33.039   1.931
76436W        W35939   9.846  14.273   4.687
76437W        W35940  11.654   5.858  12.403
76438W        W35941  21.618  24.977   3.856
76439W        W35942   5.237  29.585   2.781
76440W        W35943   2.921   5.725   4.142
76441W        W35944  11.776   8.362  12.825
76442W        W35945  19.561  28.651   4.283
76443W        W35946  16.084  28.043   0.799
76444W        W35947  32.107  32.089   2.404
76445W        W35948  38.511   2.755   4.164
76446W        W35949  13.685  34.051   1.407
76447W        W35950  22.191  31.522  14.277
76448W        W35951  15.587   0.844  13.813
76449W        W35952  20.195  21.052  12.897
76450W        W35953  38.364   5.838  12.866
76451W        W35954  10.779  43.330  13.935
76452W        W35955  28.566   2.359  12.482
76453W        W35956  36.406   1.867  11.870
76454W        W35957  31.090  26.191  13.976
76455W        W35958  36.008   5.261  10.561
76456W        W35959  41.468  39.367   4.671
76457W        W35960  18.544  33.501   0.826
76458W        W35961  17.729  31.112   1.223
76459W        W35962  32.419   4.829  13.484
76460W        W35963  22.509  26.517  11.906
76461W        W35964  41.300  24.177   1.833
76462W        W35965  10.644  17.627  10.427
76463W        W35966  23.030  21.166  13.994
76464W        W35967   3.226  35.885  11.931
76465W        W35968  14.113  36.406   3.649
76466W        W35969  23.120  21.160   3.270
76467W        W35970  31.598  20.627  13.887
76468W        W35971  24.576   9.189   2.338
76469W        W35972  15.599  20.624   2.199
76470W        W35973  12.830  27.039   2.870
76471W        W35974  23.658  20.559   0.748
76472W        W35975  26.645   8.215   2.260
76473W        W35976  42.883  37.453   1.786
76474W        W35977   6.898  41.924  11.430
76475W        W35978  31.490  25.686   9.944
76476W        W35979   6.866  11.199  14.977
76477W        W35980   1.942  31.405   9.490
76478W        W35981  44.757  17.190   1.869
76479W        W35982  39.529  28.095   4.747
76480W        W35983  28.055  16.139  11.440
76481W        W35984   1.464  35.870   4.353
76482W        W35985  14.755  36.920  13.890
76483W        W35986   9.192  44.904   4.218
76484W        W35987  12.744  36.884  13.513
76485W        W35988  40.987  27.177  13.989
76486W        W35989  33.510  11.368   5.285
76487W        W35990  44.838  39.382  14.361
76488W        W35991  12.221  31.431  11.051
76489W        W35992  43.015  23.563  13.415
76490W        W35993  28.454  17.111  13.988
76491W        W35994  30.483   5.766   2.838
76492W        W35995   4.253  37.011  11.036
76493W        W35996  43.482  22.628   0.397
76494W        W35997   4.291   1.894   4.679
76495W        W35998  39.939  37.483  14.841
76496W        W35999  17.188  29.084  14.029
76497W        W36000   9.698  13.612  13.500
76498W        W36001   5.778  43.929   1.367
76499W        W36002  44.871  31.968   2.698
76500W        W36003  44.329  17.562   2.817
76501W        W36004  39.490  35.899  14.423
76502W        W36005  10.672  14.290  13.518
76503W        W36006  43.969  38.346   3.767
76504W        W36007  19.204   0.756   0.459
76505W        W36008   6.299  12.656   2.707
76506W        W36009  24.681  12.206   4.658
76507W        W36010  37.013  39.064   0.953
76508W        W36011  11.674  31.018  12.417
76509W        W36012  31.575  14.725  14.798
76510W        W36013  18.719   2.368   3.754
76511W        W36014   3.854   1.470  10.500
76512W        W36015  37.392   4.885   1.308
76513W        W36016  43.788  30.078  12.398
76514W        W36017   1.939  11.339   4.650
76515W        W36018  16.647  13.111   1.805
76516W        W36019   9.165   6.811   1.704
76517W        W36020   9.178  27.108  14.489
76518W        W36021   4.447  39.420  13.347
76519W        W36022   9.861  39.024  14.417
76520W        W36023  20.541  42.928   0.910
76521W        W36024  23.017  11.217   0.338
76522W        W36025  24.040   6.217   3.719
76523W        W36026  36.034  20.585  14.797
76524W        W36027   5.913  32.487  12.386
76525W        W36028  18.583  30.613  14.842
76526W        W36029   5.841   5.703  13.335
76527W        W36030  31.050  35.908  12.944
76528W        W36031  20.523  43.826   2.256
76529W        W36032  14.688  38.010   0.852
76530W        W36033  32.616  15.757  12.541
76531W        W36034  38.917   9.183  13.989
76532W        W36035  16.738   5.711   2.748
76533W        W36036  18.056   7.296  11.506
76534W        W36037  12.163  31.951   4.819
76535W        W36038  40.998  39.902   0.766
76536W        W36039  40.322  43.963  12.415
76537W        W36040  34.426   8.695   2.396
76538W        W36041  11.248   5.720  13.835
76539W        W36042  21.050  32.617   2.855
76540W        W36043  34.100  41.397  13.903
76541W        W36044  37.435   5.333  13.830
76542W        W36045  31.514  34.065  14.843
76543W        W36046  25.217   5.408  14.864
76544W        W36047   4.288  31.986  12.498
76545W        W36048  21.139  21.256   2.180
76546W        W36049  32.025   7.350   2.231
76547W        W36050  43.887  22.188  10.966
76548W        W36051  20.215  11.656   1.334
76549W        W36052  36.544  27.108   0.275
76550W        W36053   3.379   9.761  11.594
76551W        W36054  14.115   2.311  14.773
76552W        W36055   2.802  44.956  14.416
76553W        W36056  33.054  29.442  12.955
76554W        W36057  28.445  36.893   9.562
76555W        W36058  32.981  39.048  13.408
76556W        W36059  26.103  39.028  14.486
76557W        W36060  40.051  34.501  13.546
76558W        W36061   6.893   5.882   0.358
76559W        W36062  15.616   0.452   3.336
76560W        W36063  32.478   1.970  13.451
76561W        W36064  20.163  26.951  13.389
76562W        W36065  15.639  44.469  13.811
76563W        W36066  36.964  13.315   4.305
76564W        W36067  14.292  41.999   4.718
76565W        W36068  31.961  16.232   3.229
76566W        W36069  13.229  16.212   2.837
76567W        W36070  22.662   0.932   1.934
76568W        W36071  33.000  31.059  10.901
76569W        W36072  33.044   1.900   3.292
76570W        W36073  18.130  10.709  13.801
76571W        W36074  31.084   4.358   0.926
76572W        W36075  36.463   6.378   0.303
76573W        W36076  14.803  32.094   0.478
76574W        W36077  43.495  13.106  10.458
76575W        W36078   8.712  20.185   4.803
76576W        W36079  13.212  36.053   3.186
76577W        W36080  24.614  16.695   3.331
76578W        W36081  25.652  29.118   4.277
76579W        W36082  44.404  39.035   0.350
76580W        W36083  17.628  14.233   3.230
76581W        W36084  37.348  39.526   3.721
76582W        W36085   2.309   1.344  12.001
76583W        W36086  13.300  39.469   4.245
76584W        W36087  28.533   3.220  13.349
76585W        W36088  20.641  13.216  13.358
76586W        W36089  31.025  13.162   1.334
76587W        W36090  36.392  29.574  10.409
76588W        W36091  37.439  36.034  13.444
76589W        W36092  40.413  40.865   0.884
76590W        W36093  41.405  31.511   4.302
76591W        W36094  22.616  43.461  10.994
76592W        W36095   0.969   0.823   0.746
76593W        W36096  40.029  34.950  13.817
76594W        W36097   6.271  42.920  10.472
76595W        W36098  26.065   1.875   3.368
76596W        W36099  30.054  11.832   3.245
76597W        W36100  26.034  27.449  14.812
76598W        W36101  37.366  11.696   3.857
76599W        W36102  40.513  23.710   0.279
76600W        W36103  14.102  29.945   4.812
76601W        W36104   4.359  13.764   3.268
76602W        W36105  19.099   6.188  11.392
76603W        W36106   9.868  14.589   4.775
76604W        W36107  23.187  12.661   1.854
76605W        W36108  15.100  14.319  12.917
76606W        W36109  38.872  32.443   4.213
76607W        W36110  43.457   0.898  10.622
76608W        W36111  19.635  39.378  13.314
76609W        W36112   5.770  31.484   3.213
76610W        W36113  33.587  17.601  12.528
76611W        W36114  26.656  27.663  13.485
76612W        W36115  40.404  31.043   1.814
76613W        W36116  42.408   9.355   3.744
76614W        W36117   3.870  16.259  12.024
76615W        W36118  13.195  41.418  14.363
76616W        W36119  10.226   5.909   4.608
76617W        W36120  26.676  15.639   0.339
76618W        W36121  38.862  25.098  11.454
76619W        W36122  17.656  22.669  14.420
76620W        W36123  15.212  39.977   2.740
76621W        W36124  41.299  28.988   0.794
76622W        W36125  24.153  11.867   0.959
76623W        W36126   1.389  23.112  14.403
76624W        W36127  23.628  34.032  10.540
76625W        W36128  32.602  43.800   1.753
76626W        W36129  40.488  37.444  10.464
76627W        W36130  41.382  24.707   3.665
76628W        W36131  18.165  32.033  12.932
76629W        W36132  28.542  22.576   2.703
76630W        W36133  28.101   4.404  11.981
76631W        W36134  35.511  26.082   1.902
76632W        W36135  20.035   6.239  14.800
76633W        W36136  10.850  12.760   0.278
76634W        W36137  29.499  33.513   3.726
76635W        W36138  39.492   6.264  13.935
76636W        W36139  42.935   4.939   0.926
76637W        W36140  24.646  38.940  11.125
76638W        W36141  26.660  16.760  11.006
76639W        W36142  26.494   3.394  12.837
76640W        W36143  20.063  13.740   3.248
76641W        W36144  24.095  41.494  10.124
76642W        W36145  14.095  31.086   0.257
76643W        W36146  38.957  18.296  10.598
76644W        W36147   1.875   3.748   3.713
76645W        W36148  23.531  40.053   1.435
76646W        W36149  39.520  22.139  12.516
76647W        W36150   6.324  26.525  13.858
76648W        W36151   8.742  18.669   2.746
76649W        W36152  17.801   8.835   0.245
76650W        W36153   1.763   7.845  14.851
76651W        W36154  34.963  34.433  14.908
76652W        W36155   1.841   2.736  11.549
76653W        W36156   6.793   6.827   1.296
76654W        W36157  16.708  22.639   4.689
76655W        W36158  40.497  21.629  14.865
76656W        W36159  40.362  39.906  12.925
76657W        W36160  38.987  34.536   3.684
76658W        W36161  37.518   1.771   1.751
76659W        W36162  44.757  12.224  12.560
76660W        W36163  38.964  16.777  10.930
76661W        W36164   2.303   4.752  13.506
76662W        W36165  16.129  21.730   1.269
76663W        W36166  43.299  32.584   1.801
76664W        W36167   8.789  36.945  13.331
76665W        W36168   5.246  30.914  10.902
76666W        W36169  23.663   2.454  14.962
76667W        W36170   7.383  29.530  11.986
76668W        W36171  26.542   5.711  10.137
76669W        W36172   0.910  19.591  14.484
76670W        W36173   3.379  38.077  14.956
76671W        W36174  34.610  28.623   1.880
76672W        W36175  24.012   3.356  11.883
76673W        W36176  22.684  11.719  12.862
76674W        W36177  44.309   9.215  11.399
76675W        W36178  43.008   6.317  12.541
76676W        W36179   7.889  23.660  14.976
76677W        W36180  23.122  28.458   2.288
76678W        W36181  38.470  25.173   0.304
76679W        W36182   7.350  38.003  11.927
76680W        W36183  43.020   6.816  13.335
76681W        W36184  38.371  21.564   3.732
76682W        W36185   0.336  37.582  11.096
76683W        W36186  37.574  14.710  14.836
76684W        W36187  10.798   1.753   0.849
76685W        W36188  18.235  11.254   4.717
76686W        W36189  25.597  19.271   0.273
76687W        W36190  23.172  13.774  11.570
76688W        W36191  15.136  19.169  13.841
76689W        W36192  15.092  10.304  13.478
76690W        W36193  23.558  41.344  10.952
76691W        W36194   1.937  40.881  14.443
76692W        W36195  17.710  22.619   0.253
76693W        W36196  32.607  27.690   0.782
76694W        W36197  29.963   1.816   0.822
76695W        W36198  44.303   3.260   1.822
76696W        W36199  32.577  35.943  13.803
76697W        W36200  40.393  40.339   3.385
76698W        W36201  42.289  27.108   1.385
76699W        W36202  24.595   6.213   4.174
76700W        W36203  35.578  43.016   2.871
76701W        W36204   7.774  13.156   0.261
76702W        W36205   8.774  44.447   4.246
76703W        W36206  20.613  20.559   1.814
76704W        W36207   0.870  22.048   5.635
76705W        W36208  44.385  25.607   2.250
76706W        W36209  42.377  14.204  10.547
76707W        W36210  24.170  27.169  10.437
76708W        W36211  18.177  23.994  11.464
76709W        W36212  34.076  35.543  14.366
76710W        W36213  17.061  29.986  11.934
76711W        W36214  40.357  43.829   0.795
76712W        W36215  26.484  22.218   4.622
76713W        W36216  17.262  26.038   4.325
76714W        W36217  26.599  24.197   0.828
76715W        W36218  11.715  12.343  11.393
76716W        W36219  41.491  17.252   4.741
76717W        W36220  11.176  25.030   0.803
76718W        W36221  34.478  13.719   4.304
76719W        W36222  40.878   1.466   2.234
76720W        W36223   8.803  12.132  11.003
76721W        W36224  16.637  44.879   3.257
76722W        W36225  14.146  27.480   4.617
76723W        W36226   6.232  26.997  12.398
76724W        W36227  14.287  44.862  10.971
76725W        W36228  11.199   3.413   1.331
76726W        W36229   6.413  39.518  14.373
76727W        W36230   5.298  20.696   2.261
76728W        W36231   7.887  33.119  10.989
76729W        W36232  39.497   8.788   0.349
76730W        W36233   3.379  15.588  12.856
76731W        W36234  42.781  20.083  10.644
76732W        W36235  16.198  23.033  13.979
76733W        W36236  20.581  30.035  14.863
76734W        W36237  13.694   9.328   0.823
76735W        W36238  23.200  26.116   1.875
76736W        W36239   4.280  12.629  12.002
76737W        W36240  13.615  22.747  13.414
76738W        W36241  18.197  24.159   2.886
76739W        W36242  13.669  29.983   1.873
76740W        W36243   9.804  44.999  13.805
76741W        W36244  20.197  31.900   1.417
76742W        W36245   5.932   4.362  10.438
76743W        W36246  43.396   0.890  13.845
76744W        W36247   6.911  30.117   4.622
76745W        W36248   8.881  27.196  11.083
76746W        W36249  42.860  14.202  11.931
76747W        W36250  43.395  36.577   3.310
76748W        W36251  36.436  27.984   0.371
76749W        W36252  12.727  25.530  10.971
76750W        W36253  12.264   3.835   4.826
76751W        W36254  12.659   3.796  10.619
76752W        W36255   0.271  34.609   4.683
76753W        W36256  24.491  43.985  12.890
76754W        W36257  31.462  30.957  14.283
76755W        W36258  27.948  37.945   0.371
76756W        W36259  26.670   2.853   0.400
76757W        W36260  25.524  22.060   3.754
76758W        W36261  38.566  35.590   0.785
76759W        W36262  24.582   1.426   2.771
76760W        W36263  42.792   7.315  12.910
76761W        W36264  44.967  36.887   2.777
76762W        W36265  17.063  13.323  12.520
76763W        W36266  41.980   5.863   2.804
76764W        W36267  36.023  28.605   2.399
76765W        W36268  44.758   3.719   2.818
76766W        W36269  19.060  27.651  10.488
76767W        W36270  43.393  30.914  13.467
76768W        W36271  14.109  40.362   3.735
76769W        W36272  36.850  13.343   4.816
76770W        W36273  24.156   4.426   2.356
76771W        W36274  39.459  26.677  10.554
76772W        W36275  32.475  23.592   1.769
76773W        W36276  11.801  34.082   5.115
76774W        W36277   0.972  20.745   1.384
76775W        W36278  11.800  10.292   0.343
76776W        W36279   0.341  18.283  11.512
76777W        W36280  32.924  32.482   0.901
76778W        W36281   1.794  12.345  12.041
76779W        W36282  28.128  39.463  12.965
76780W        W36283  28.149   6.198  11.097
76781W        W36284  29.493  26.566   2.214
76782W        W36285   0.445  25.005   0.946
76783W        W36286  30.914   8.780   3.736
76784W        W36287  28.089  11.191   0.257
76785W        W36288  40.545  10.139  12.886
76786W        W36289  23.037  19.218   1.702
76787W        W36290  36.001   3.302  11.519
76788W        W36291  23.105  13.133   3.846
76789W        W36292   0.487   5.888   4.263
76790W        W36293  15.761  28.548   4.640
76791W        W36294  34.037   8.808  10.575
76792W        W36295  26.042  36.501  12.473
76793W        W36296  37.503  15.739   0.790
76794W        W36297  19.574   8.872   0.243
76795W        W36298   1.258  19.190  11.959
76796W        W36299  36.928  40.447  11.908
76797W        W36300  39.512  17.786   2.709
76798W        W36301   5.250  32.997  11.092
76799W        W36302  44.757  25.625   0.417
76800W        W36303  36.490   1.343   4.344
76801W        W36304  11.700   8.853  13.859
76802W        W36305  10.841   9.725   0.734
76803W        W36306   9.819  44.327  11.934
76804W        W36307  40.447  27.685   2.188
76805W        W36308   7.845   6.894  14.009
76806W        W36309  18.589  39.041   3.316
76807W        W36310  27.182   1.811   4.210
76808W        W36311   0.807  40.856   3.154
76809W        W36312  24.507  12.674   1.783
76810W        W36313  31.124   8.321   3.739
76811W        W36314  11.275   8.724  11.439
76812W        W36315  34.460  10.703  12.443
76813W        W36316  32.892   8.168  12.458
76814W        W36317  28.487  34.989  12.384
76815W        W36318  34.075  44.377   4.607
76816W        W36319   2.346  16.580  12.017
76817W        W36320  43.505  20.261   0.434
76818W        W36321  21.592   2.742   2.186
76819W        W36322  30.089   6.198  10.453
76820W        W36323   9.884  41.397  12.363
76821W        W36324  41.537  17.068   0.363
76822W        W36325  25.673  28.035  12.481
76823W        W36326  40.508  13.601   1.797
76824W        W36327  44.856  42.415   3.869
76825W        W36328  24.074  29.113   3.332
76826W        W36329  21.632  21.756  13.943
76827W        W36330  37.979   6.320   3.246
76828W        W36331   8.165   2.394  10.970
76829W        W36332  43.494  35.360  12.078
76830W        W36333   2.423  10.808   0.732
76831W        W36334  33.929  20.634   4.681
76832W        W36335  30.565  35.871  10.633
76833W        W36336  32.069  42.479  14.884
76834W        W36337  29.453  25.554   4.836
76835W        W36338  44.936  38.869  13.449
76836W        W36339   7.297   2.356   3.798
76837W        W36340  27.175  18.692  11.376
76838W        W36341  44.866  38.427   2.677
76839W        W36342  12.820  16.778  13.471
76840W        W36343  36.498  43.358  12.913
76841W        W36344  33.057  32.118  14.816
76842W        W36345  10.157  37.363   3.193
76843W        W36346  38.045   9.869   1.819
76844W        W36347  31.570  41.397  11.861
76845W        W36348  21.620  39.490   2.725
76846W        W36349  22.136  11.738  13.814
76847W        W36350  44.447  28.523   4.355
76848W        W36351   2.307  14.145  10.426
76849W        W36352  42.501   2.448  13.313
76850W        W36353  27.622  31.068  10.483
76851W        W36354  14.771   4.794  12.881
76852W        W36355  13.121  20.647  13.035
76853W        W36356  32.580  40.984   2.196
76854W        W36357  15.694  27.638  10.452
76855W        W36358  34.439  41.458   0.817
76856W        W36359  35.974  32.537  12.874
76857W        W36360   8.357  23.212  12.479
76858W        W36361  35.086  24.213   3.787
76859W        W36362  35.599  23.616   3.365
76860W        W36363   6.713   4.786   0.822
76861W        W36364  11.331  12.204   1.853
76862W        W36365  36.431  35.989   1.837
76863W        W36366  16.265  19.581  11.465
76864W        W36367  27.479  16.307  13.793
76865W        W36368  10.829  14.646   1.376
76866W        W36369  14.202  33.386   3.823
76867W        W36370  26.667  20.266  11.547
76868W        W36371  26.694  16.181  14.489
76869W        W36372  11.770  17.565  11.027
76870W        W36373   2.932  17.775   2.310
76871W        W36374   5.849   9.182   3.324
76872W        W36375   1.916  27.514  12.420
76873W        W36376   8.250  35.867   0.280
76874W        W36377  39.434  44.378  14.842
76875W        W36378  39.336   7.690  10.639
76876W        W36379  44.824  12.747  11.067
76877W        W36380  27.478  41.846   0.433
76878W        W36381  15.753  13.170   4.119
76879W        W36382   4.328  38.899   1.732
76880W        W36383  43.898   4.319   3.228
76881W        W36384  30.934  16.187   0.362
76882W        W36385  21.136  44.398  10.512
76883W        W36386  33.531  40.836  14.428
76884W        W36387  30.003  42.803   3.732
76885W        W36388  23.218   4.416   1.820
76886W        W36389  22.125  39.463   2.290
76887W        W36390   0.400  37.064  11.059
76888W        W36391   5.423  19.249   4.249
76889W        W36392  32.030  39.953   1.262
76890W        W36393  14.212  38.448  13.884
76891W        W36394  35.903  30.148   1.335
76892W        W36395  26.162  19.135  13.484
76893W        W36396   6.815  23.628   4.673
76894W        W36397  28.632   9.788   0.345
76895W        W36398  26.003  38.376   1.323
76896W        W36399   7.776   7.396  13.851
76897W        W36400   1.967  34.000  13.852
76898W        W36401   0.434  39.398   4.790
76899W        W36402  32.991  20.719   1.732
76900W        W36403   1.461  11.855   2.711
76901W        W36404  43.765  11.141   4.630
76902W        W36405   2.937  12.290  11.610
76903W        W36406  32.952  37.409  10.479
76904W        W36407  12.844   7.779  12.447
76905W        W36408  11.204  19.270   1.847
76906W        W36409  33.548  30.951  13.001
76907W        W36410   3.770  17.239   1.253
76908W        W36411  15.226  13.730  12.020
76909W        W36412  30.458  35.031  10.517
76910W        W36413  30.946  25.109  13.007
76911W        W36414  19.061  34.866   2.863
76912W        W36415  18.625   6.713   3.299
76913W        W36416  26.006  25.195   2.398
76914W        W36417  25.650  40.012  12.371
76915W        W36418  22.713  39.348   0.378
76916W        W36419  18.701   8.862  14.814
76917W        W36420  20.100  22.717  11.115
76918W        W36421   8.344   8.688  14.825
76919W        W36422  23.174  40.021   1.881
76920W        W36423  33.436  37.023   2.205
76921W        W36424  11.155  26.000   1.324
76922W        W36425  13.685  42.453   3.349
76923W        W36426  25.970  10.801  13.339
76924W        W36427  38.332  13.616   1.742
76925W        W36428  35.393  32.502  10.936
76926W        W36429  11.722   8.264  12.057
76927W        W36430   1.975   8.251  13.530
76928W        W36431  23.541  22.072  14.804
76929W        W36432   2.775  10.688   2.282
76930W        W36433  17.634  36.462   2.692
76931W        W36434  28.128  32.081   0.934
76932W        W36435  13.666   2.346  14.911
76933W        W36436  38.040  43.513  12.829
76934W        W36437  43.999  28.571  10.473
76935W        W36438  24.692   4.930  13.058
76936W        W36439   2.924  26.490   1.875
76937W        W36440   4.204  21.551   3.263
76938W        W36441  43.844  16.724  13.540
76939W        W36442  13.130  10.205   0.262
76940W        W36443  21.716  42.797  13.407
76941W        W36444  10.690   1.770   4.702
76942W        W36445  26.167  34.564   2.875
76943W        W36446   2.452  41.892   2.348
76944W        W36447  37.455  29.565  10.972
76945W        W36448  27.634  23.673   0.463
76946W        W36449   6.898  28.998   0.243
76947W        W36450  31.902  29.099  14.967
76948W        W36451  43.784  10.871  12.021
76949W        W36452  22.633  13.247  12.844
76950W        W36453  33.018  42.796   1.217
76951W        W36454  41.402  37.430   0.443
76952W        W36455   8.695   5.220  12.855
76953W        W36456  44.881   9.200  14.941
76954W        W36457   7.194  33.924  11.881
76955W        W36458  34.371  26.011   0.250
76956W        W36459   7.373   5.202  11.405
76957W        W36460  25.468  32.084  14.005
76958W        W36461  34.569  31.645   1.922
76959W        W36462  15.149  41.856  14.375
76960W        W36463  25.539  10.176  13.350
76961W        W36464  33.591  28.968   0.326
76962W        W36465  18.680  41.461   0.874
76963W        W36466  37.045  10.714   4.822
76964W        W36467  15.694  35.047  12.875
76965W        W36468   8.221  17.116   0.344
76966W        W36469   0.901  29.930  11.419
76967W        W36470  17.183  22.679   2.795
76968W        W36471  10.779  29.105   4.116
76969W        W36472  27.993  40.444  10.901
76970W        W36473  34.047  16.614   1.391
76971W        W36474  44.902  16.242   3.791
76972W        W36475  40.040  22.154   4.196
76973W        W36476  26.112  17.765  10.513
76974W        W36477  19.702  15.755   1.834
76975W        W36478  36.952  12.795  11.549
76976W        W36479  26.502   4.333   2.703
76977W        W36480  19.270  22.736   2.805
76978W        W36481   3.314   9.811  11.926
76979W        W36482  42.289  23.164  12.862
76980W        W36483  29.152  37.885   0.283
76981W        W36484  16.160  44.501   3.275
76982W        W36485  27.010  22.513  13.492
76983W        W36486  22.629  29.613   3.186
76984W        W36487  24.158  33.909   3.633
76985W        W36488  11.319  30.587  14.406
76986W        W36489  22.127   5.829  11.890
76987W        W36490  36.011  31.918   3.222
76988W        W36491  33.499  36.858   1.365
76989W        W36492  27.687   0.332  12.839
76990W        W36493  30.933  15.121   4.131
76991W        W36494  13.689  44.769   4.667
76992W        W36495  27.951  27.498   0.758
76993W        W36496  23.641  16.177   1.397
76994W        W36497   0.354  23.095  12.562
76995W        W36498  23.217  15.648  14.783
76996W        W36499  15.127  34.427  12.974
76997W        W36500  19.668  39.314   1.836
76998W        W36501  21.553  34.997   2.367
76999W        W36502   5.323  21.100  13.956
77000W        W36503  11.181  20.071   0.820
77001W        W36504  27.030  42.809  14.972
77002W        W36505   9.735  20.248  10.481
77003W        W36506  17.256  25.577  10.568
77004W        W36507  11.788  16.657  13.960
77005W        W36508   7.828  33.950   4.600
77006W        W36509  15.725   9.824   3.810
77007W        W36510   5.709  27.520  11.478
77008W        W36511   8.743  21.515  13.402
77009W        W36512  33.917  26.664  10.107
77010W        W36513   8.667  32.034   3.151
77011W        W36514  30.911  21.190  10.098
77012W        W36515   5.361   6.220   2.748
77013W        W36516  13.268  23.226   4.262
77014W        W36517  33.545  26.140  12.011
77015W        W36518  23.727   3.945  10.462
77016W        W36519  26.154  21.739  12.368
77017W        W36520  16.232  37.549   5.137
77018W        W36521  44.500   1.894  12.874
77019W        W36522  30.463  34.915  13.492
77020W        W36523  11.225  33.054  13.483
77021W        W36524  14.809  43.464   3.198
77022W        W36525  43.402  33.574   1.923
77023W        W36526  22.045  27.172  13.997
77024W        W36527  27.980  34.590   4.341
77025W        W36528  23.695  10.870  11.029
77026W        W36529  33.571  42.785   0.858
77027W        W36530   6.703  13.124  14.294
77028W        W36531  35.978  32.069   1.835
77029W        W36532   0.303  37.050   4.673
77030W        W36533  36.480  21.686  11.105
77031W        W36534  36.356  31.520  12.505
77032W        W36535  22.249  37.559   0.261
77033W        W36536   3.284   2.352  13.807
77034W        W36537  24.682  19.260   4.611
77035W        W36538  27.539  11.359   1.225
77036W        W36539  41.328  33.472   2.673
77037W        W36540  20.731  10.645   3.259
77038W        W36541  44.276  29.629   3.862
77039W        W36542  36.580  25.986   4.609
77040W        W36543  42.322  41.502   3.717
77041W        W36544   6.367  43.507   2.247
77042W        W36545  29.074  20.052   4.632
77043W        W36546  36.354  36.988  12.561
77044W        W36547   0.270  32.067  13.548
77045W        W36548  29.453  29.654  14.938
77046W        W36549  15.302  27.523   1.419
77047W        W36550  26.064   2.275  11.038
77048W        W36551  18.237  44.424  13.335
77049W        W36552  35.489  15.111   1.887
77050W        W36553  34.997  24.621   0.947
77051W        W36554   1.971  16.709  14.470
77052W        W36555  41.922  42.802  10.462
77053W        W36556   6.724  12.782   0.467
77054W        W36557  10.209   9.315  12.002
77055W        W36558   1.361  22.101  11.952
77056W        W36559  28.557   4.371  14.310
77057W        W36560  39.970  35.513   1.701
77058W        W36561  40.912   3.337   1.883
77059W        W36562  11.185  18.102   2.884
77060W        W36563  32.543  14.107  13.795
77061W        W36564  41.010  19.668   3.283
77062W        W36565  24.628  29.073  11.895
77063W        W36566  43.271   2.837   4.682
77064W        W36567  19.615  37.458   3.785
77065W        W36568  22.057  19.717  13.914
77066W        W36569  37.386  26.465   2.688
77067W        W36570  34.890   9.834  13.958
77068W        W36571  41.981  37.436  10.585
77069W        W36572  15.809  43.792  13.465
77070W        W36573  10.277   8.825   3.692
77071W        W36574  34.406  43.343  11.118
77072W        W36575   6.326  37.922   2.231
77073W        W36576  21.736  23.682  14.877
77074W        W36577  40.541  44.332   3.171
77075W        W36578   0.289  22.524   1.795
77076W        W36579  10.365  27.135   4.812
77077W        W36580  14.812  29.998  13.428
77078W        W36581  18.191   1.859   1.399
77079W        W36582  10.771  17.614  11.869
77080W        W36583   8.789   3.896   3.850
77081W        W36584  29.460  19.257   4.343
77082W        W36585   1.349  14.698  12.568
77083W        W36586  27.638   8.181   0.356
77084W        W36587   7.788  33.975   2.263
77085W        W36588  12.268  24.591   1.224
77086W        W36589   5.823  38.853  10.105
77087W        W36590  38.359  12.784   2.878
77088W        W36591  36.475  30.423  12.538
77089W        W36592  43.970  39.452   1.860
77090W        W36593  44.500  38.041   4.657
77091W        W36594  16.085  29.578  14.887
77092W        W36595   9.294   8.839   1.694
77093W        W36596  23.225  26.101  11.474
77094W        W36597  22.018  38.852  10.539
77095W        W36598  18.583  18.555  11.450
77096W        W36599  32.480  15.140   2.248
77097W        W36600  37.525   2.946  14.896
77098W        W36601   8.204   2.391  12.945
77099W        W36602   8.837  17.747   9.972
77100W        W36603  18.068  30.481   3.791
77101W        W36604  42.020  41.318  13.501
77102W        W36605   6.278  43.465  10.007
77103W        W36606  40.425  23.714  11.878
77104W        W36607   2.803  26.577   1.420
77105W        W36608  36.032   7.848   0.279
77106W        W36609  36.481  23.642   4.682
77107W        W36610  40.530  42.920   3.819
77108W        W36611  33.055  31.488  11.613
77109W        W36612  30.418  16.234  11.014
77110W        W36613   6.306  34.941  11.558
77111W        W36614  20.534  12.192  12.994
77112W        W36615  31.097  10.771  10.598
77113W        W36616   5.228  29.599   0.871
77114W        W36617  25.216  40.913  14.857
77115W        W36618  32.433  24.981   0.853
77116W        W36619  16.793   9.238  11.083
77117W        W36620  29.107  13.666   2.282
77118W        W36621  24.101  12.787   0.434
77119W        W36622  22.066  36.013  13.498
77120W        W36623   1.960  22.138   2.276
77121W        W36624  41.417  12.786  13.840
77122W        W36625  37.072  15.194   2.345
77123W        W36626  26.690  43.995  12.010
77124W        W36627  41.475   3.772   0.892
77125W        W36628  21.590  26.005   0.804
77126W        W36629  31.053  41.509   2.290
77127W        W36630  25.020  33.043  12.397
77128W        W36631  25.965  30.556  11.496
77129W        W36632  11.222  36.028  14.777
77130W        W36633   7.858  32.986  14.460
77131W        W36634  18.689   8.818  10.986
77132W        W36635  35.030  22.111   1.284
77133W        W36636   2.288  12.145  12.067
77134W        W36637  21.055   1.238   2.265
77135W        W36638  17.122  15.134   3.156
77136W        W36639  21.651  31.405   0.476
77137W        W36640  41.945  18.197   4.759
77138W        W36641  15.655  33.892   5.761
77139W        W36642   2.824  22.606  11.405
77140W        W36643  30.414   6.414   1.270
77141W        W36644   0.932  29.602   0.321
77142W        W36645  26.085  29.498   2.258
77143W        W36646  22.019  19.043  11.511
77144W        W36647  16.255  14.802   4.737
77145W        W36648   8.398  13.299   2.262
77146W        W36649  25.518   1.463  13.833
77147W        W36650  37.555  30.441   0.355
77148W        W36651   2.244  29.494   1.709
77149W        W36652  11.355  39.948   4.244
77150W        W36653  35.423  36.082   2.240
77151W        W36654  34.436  18.097   4.353
77152W        W36655  10.298  20.547  13.951
77153W        W36656   9.689  44.847   1.326
77154W        W36657  41.028   2.883   4.705
77155W        W36658  22.683   9.369  11.590
77156W        W36659  31.906  35.035  10.940
77157W        W36660  18.716  41.360  14.831
77158W        W36661  17.176  35.375  11.496
77159W        W36662   8.318   7.706  11.605
77160W        W36663  32.548   5.201   1.314
77161W        W36664  34.485  13.702   1.254
77162W        W36665   5.693   5.417  14.386
77163W        W36666   7.265  24.563  14.514
77164W        W36667  35.917  29.026  11.432
77165W        W36668  39.045  39.964  10.582
77166W        W36669  38.858  24.545   2.716
77167W        W36670  31.030   1.841   0.351
77168W        W36671   1.903   6.419  13.858
77169W        W36672   0.306  44.301  11.998
77170W        W36673  34.428  25.121   2.758
77171W        W36674  44.945   8.316   2.778
77172W        W36675  37.084  10.647  11.081
77173W        W36676  40.425   1.266  13.479
77174W        W36677  26.100  19.135  10.593
77175W        W36678  25.545  28.033  13.017
77176W        W36679  41.358  25.216   1.730
77177W        W36680  21.025  11.858  12.353
77178W        W36681   5.933  16.783   2.218
77179W        W36682  30.418  20.053   5.226
77180W        W36683  24.103  11.770  12.842
77181W        W36684  40.844  25.158   3.321
77182W        W36685  10.367  22.205   3.210
77183W        W36686  25.658  17.734   1.771
77184W        W36687  38.888   2.743  14.448
77185W        W36688  33.980  41.468   2.395
77186W        W36689  15.803   5.421   1.771
77187W        W36690   6.798   0.974   4.150
77188W        W36691   4.431  24.657   4.299
77189W        W36692  30.993   3.243  13.368
77190W        W36693  38.997   3.341   2.772
77191W        W36694  39.547  34.014   1.271
77192W        W36695  35.023  25.004  10.123
77193W        W36696  36.458   3.455  10.105
77194W        W36697  29.166  38.871  12.560
77195W        W36698  19.668  35.949  10.594
77196W        W36699  42.421  21.549  10.934
77197W        W36700   5.777  11.624   1.345
77198W        W36701  42.807   4.343  10.601
77199W        W36702  30.056  24.636   1.421
77200W        W36703  25.666  35.996  12.540
77201W        W36704   1.426  15.707   2.711
77202W        W36705   5.713  18.780  10.631
77203W        W36706  32.474  14.187  14.895
77204W        W36707  20.586  32.411   3.640
77205W        W36708  16.729  39.814   3.311
77206W        W36709  12.704  17.195   2.763
77207W        W36710   5.257  14.248  14.298
77208W        W36711  26.100  11.188   3.806
77209W        W36712   4.267  38.421   2.747
77210W        W36713  38.843  34.097  10.582
77211W        W36714  15.310  33.953   4.215
77212W        W36715  34.531  15.167  11.603
77213W        W36716   1.950  11.189  11.563
77214W        W36717  20.212  21.071   4.602
77215W        W36718   0.774  39.323  11.399
77216W        W36719  10.179  19.090   4.122
77217W        W36720  31.026  30.032   2.395
77218W        W36721   2.452  26.538   1.265
77219W        W36722  23.602  43.928   3.239
77220W        W36723  37.570  40.053  14.800
77221W        W36724  17.637  12.200  14.950
77222W        W36725  25.975   5.197   4.644
77223W        W36726   2.734  11.651  10.551
77224W        W36727  10.243  14.301   1.707
77225W        W36728  36.535   0.878  10.496
77226W        W36729  27.655   0.915  10.607
77227W        W36730  26.126  38.834  12.576
77228W        W36731   7.180   5.844   3.179
77229W        W36732  14.187  37.412  13.519
77230W        W36733  36.897  32.555   3.857
77231W        W36734   5.816  26.478  12.541
77232W        W36735  29.625  35.089   2.337
77233W        W36736   3.731   0.907  14.024
77234W        W36737  17.149  24.489   4.351
77235W        W36738  20.090  23.161  13.469
77236W        W36739  34.056  22.513   4.728
77237W        W36740  34.413  20.164   3.658
77238W        W36741  35.105  24.533   4.787
77239W        W36742   4.249  34.012   0.472
77240W        W36743  13.812  16.741   0.825
77241W        W36744  37.484  17.198  14.891
77242W        W36745  17.281  38.362  10.504
77243W        W36746  34.870   0.396  12.878
77244W        W36747  30.960  32.111   2.719
77245W        W36748  12.630   0.304   0.395
77246W        W36749   2.868  19.600  10.934
77247W        W36750  32.057  24.166   2.279
77248W        W36751   5.258  30.499  12.891
77249W        W36752  43.775  24.591   4.207
77250W        W36753  27.000  19.732   2.827
77251W        W36754  26.097   5.919  14.305
77252W        W36755  20.766  18.596  11.066
77253W        W36756  33.929  15.668   0.728
77254W        W36757  28.466  14.203  11.575
77255W        W36758  14.679   9.681   1.427
77256W        W36759  34.908  35.378   0.391
77257W        W36760  35.908  14.272   3.851
77258W        W36761   3.323   9.196   2.353
77259W        W36762  13.819  25.537  12.000
77260W        W36763  44.378   4.847  14.336
77261W        W36764  22.222  11.738   4.797
77262W        W36765  31.098  24.526   3.236
77263W        W36766  44.969   7.332   3.718
77264W        W36767  14.616   3.803   2.217
77265W        W36768   5.198  42.911  12.478
77266W        W36769  25.188  40.393   3.738
77267W        W36770  19.567   7.299   3.678
77268W        W36771  29.161  32.489  12.085
77269W        W36772   5.822  17.115  12.454
77270W        W36773  12.757  20.151   1.314
77271W        W36774  16.191  41.376  10.446
77272W        W36775  23.613  12.304   1.261
77273W        W36776  13.187  42.306  11.968
77274W        W36777  16.602   7.750   0.820
77275W        W36778  13.720  20.615  11.034
77276W        W36779  12.690   0.876   1.852
77277W        W36780  34.512   0.907  14.871
77278W        W36781  37.391  15.757   3.382
77279W        W36782  19.718  36.032  10.913
77280W        W36783  37.449  33.050  13.464
77281W        W36784  15.165  13.171   2.740
77282W        W36785  15.104  44.330   3.356
77283W        W36786   3.282  40.449   0.302
77284W        W36787  36.581  12.267   1.316
77285W        W36788  22.025  19.577   3.831
77286W        W36789  20.216  36.527  14.405
77287W        W36790  20.265  18.100   3.212
77288W        W36791  39.821  21.144  13.437
77289W        W36792   7.191  10.843  12.442
77290W        W36793  44.929  35.089   4.828
77291W        W36794   8.401  23.701   1.384
77292W        W36795  23.234  40.928   1.423
77293W        W36796  22.025  27.597   2.699
77294W        W36797  44.940  41.507   3.223
77295W        W36798  37.896  27.658   0.452
77296W        W36799  22.056  10.252   3.155
77297W        W36800  17.577   7.872   4.601
77298W        W36801  41.492  25.168   3.712
77299W        W36802  34.878  17.091   1.788
77300W        W36803   9.191   2.430   3.672
77301W        W36804  23.711  33.598   2.297
77302W        W36805   2.439  21.176   3.196
77303W        W36806  27.033  15.611  11.506
77304W        W36807  25.481  30.602  13.005
77305W        W36808  38.453  30.913  12.869
77306W        W36809  22.737  37.381   3.661
77307W        W36810   6.861   0.920   1.900
77308W        W36811   5.725   4.877   0.268
77309W        W36812  30.596  33.558   1.384
77310W        W36813  17.287  28.157   4.634
77311W        W36814  43.967  17.711  10.531
77312W        W36815  43.948  16.142  14.988
77313W        W36816  13.655  15.182  13.831
77314W        W36817  39.936  23.007  11.905
77315W        W36818  27.072  42.412  12.559
77316W        W36819  13.713  37.046  14.819
77317W        W36820  36.043  29.625  12.004
77318W        W36821  44.391  28.512   1.307
77319W        W36822   7.894  15.805   0.825
77320W        W36823  25.680  42.296   3.861
77321W        W36824  25.523   1.884   4.764
77322W        W36825   7.780  17.737  12.062
77323W        W36826  26.985  10.667   2.810
77324W        W36827  31.141   7.395  14.764
77325W        W36828  18.150  14.659  10.545
77326W        W36829  29.632  18.080  10.045
77327W        W36830   8.668   8.167  12.911
77328W        W36831  27.484  23.672  10.973
77329W        W36832   0.956  38.937   2.380
77330W        W36833  18.260   1.799   2.235
77331W        W36834  14.616   7.276  11.980
77332W        W36835  14.645  11.647  12.990
77333W        W36836  32.009  23.019   1.214
77334W        W36837  29.631  20.233  14.910
77335W        W36838   7.216  21.519  13.917
77336W        W36839  23.530   5.807  12.419
77337W        W36840  44.875   3.400   2.703
77338W        W36841   4.221   4.370  12.450
77339W        W36842  41.837  35.016  11.064
77340W        W36843  14.834  30.574  10.119
77341W        W36844   5.772   4.898   3.262
77342W        W36845  30.014   2.263   3.670
77343W        W36846  23.554  10.245   4.603
77344W        W36847   5.725  25.112  14.979
77345W        W36848  37.857   6.197  13.399
77346W        W36849  22.075  23.714   1.890
77347W        W36850  21.096  20.575  12.498
77348W        W36851   2.932   5.888   1.223
77349W        W36852  33.550   9.299  14.411
77350W        W36853  28.537  41.404  10.562
77351W        W36854   4.341  21.687   3.810
77352W        W36855  37.961  25.178  11.499
77353W        W36856  35.871  34.445  11.005
77354W        W36857   0.903  14.327   0.937
77355W        W36858  36.543  23.596  10.476
77356W        W36859  28.021   0.818  10.425
77357W        W36860  35.365  37.905   0.825
77358W        W36861  36.465  30.454  14.448
77359W        W36862   7.239   5.720   1.891
77360W        W36863  31.903  15.699  12.467
77361W        W36864  24.555  33.495  13.038
77362W        W36865  27.001  38.867  10.630
77363W        W36866  16.138   7.844  14.329
77364W        W36867  33.883  44.871   1.875
77365W        W36868  18.219  30.619   3.273
77366W        W36869  36.969  13.672  12.567
77367W        W36870  25.216  43.775   3.165
77368W        W36871  20.550  17.295   3.187
77369W        W36872  17.560  31.577   0.482
77370W        W36873   1.911  38.043   3.195
77371W        W36874  36.924   6.852   0.825
77372W        W36875  30.485  37.889  13.502
77373W        W36876  35.910  31.940  12.515
77374W        W36877   6.790  18.285  12.860
77375W        W36878  17.785   9.327   3.275
77376W        W36879   1.282  12.644   0.256
77377W        W36880  16.645  37.016   4.250
77378W        W36881   4.234  40.308   2.321
77379W        W36882  42.449  29.427   2.780
77380W        W36883   7.849  31.988  10.590
77381W        W36884  29.990  26.477  12.835
77382W        W36885   1.340  40.942  10.413
77383W        W36886  30.929  29.018   0.910
77384W        W36887  14.232   1.439  13.421
77385W        W36888  12.730  40.432   2.372
77386W        W36889   1.337  25.144   3.229
77387W        W36890  12.212  20.043  12.062
77388W        W36891  32.105  31.038   1.225
77389W        W36892  43.404  35.369   4.644
77390W        W36893  35.068  43.413   4.167
77391W        W36894   1.444  18.697  12.564
77392W        W36895  37.572  28.941  11.956
77393W        W36896  16.179   0.834  12.978
77394W        W36897   2.810   9.279  11.483
77395W        W36898  20.526  39.832  14.915
77396W        W36899  44.919  14.795   4.135
77397W        W36900  15.673  29.573  14.825
77398W        W36901  41.360  25.573   0.399
77399W        W36902  44.266  15.812   4.682
77400W        W36903  37.461  29.937   2.678
77401W        W36904  21.174  42.797  11.533
77402W        W36905  40.013  20.758  13.367
77403W        W36906  20.658  23.151   0.285
77404W        W36907  35.955  19.690  12.390
77405W        W36908  27.037  18.789  10.904
77406W        W36909  13.334  11.861  12.823
77407W        W36910   0.886  34.956  13.329
77408W        W36911  40.031  29.022   3.657
77409W        W36912  35.881  38.867   4.139
77410W        W36913  22.023  20.142   1.212
77411W        W36914  39.385  21.082   4.734
77412W        W36915  15.630  23.204   4.225
77413W        W36916  28.167  32.600  12.495
77414W        W36917  31.111  29.428   0.329
77415W        W36918   7.682   7.837   1.832
77416W        W36919  11.647   5.352   0.475
77417W        W36920  42.998  41.371   0.793
77418W        W36921  30.531  30.631   0.393
77419W        W36922  23.069   2.255  14.893
77420W        W36923  27.654   2.849  13.060
77421W        W36924  26.640  19.575   4.699
77422W        W36925  27.997  31.560  10.137
77423W        W36926  22.050  29.057  14.937
77424W        W36927   2.966  40.524   2.324
77425W        W36928  29.157  15.798   1.829
77426W        W36929  20.689  43.832  13.803
77427W        W36930   9.277  26.624  14.360
77428W        W36931  15.624   9.785  13.446
77429W        W36932  42.419  17.556   4.194
77430W        W36933  29.084  17.558   3.826
77431W        W36934  39.349   4.442   3.235
77432W        W36935  12.707   8.663  10.634
77433W        W36936  28.551  38.327  14.840
77434W        W36937  37.930  16.762  12.987
77435W        W36938  35.934   5.340   4.158
77436W        W36939  35.927  25.151   4.156
77437W        W36940  43.490  44.277   4.239
77438W        W36941  14.828  35.423  13.508
77439W        W36942  21.648  15.665   4.804
77440W        W36943   9.160   9.211  13.320
77441W        W36944  11.177  31.998   2.842
77442W        W36945   2.933  31.543   3.277
77443W        W36946  22.663   2.865   3.308
77444W        W36947  12.677  28.165   3.811
77445W        W36948  28.001   1.474  10.016
77446W        W36949  32.450   9.679   2.377
77447W        W36950   7.748  32.001  10.007
77448W        W36951  28.473  40.859  11.947
77449W        W36952   5.730   1.821  14.907
77450W        W36953  21.096   4.911  10.478
77451W        W36954  11.654  39.940  10.488
77452W        W36955  22.625  22.626   4.118
77453W        W36956  30.545   5.262  10.911
77454W        W36957  17.555  10.180  11.038
77455W        W36958   9.830   5.323   3.318
77456W        W36959  37.896  26.986   1.700
77457W        W36960  10.870  32.039   5.686
77458W        W36961  26.086  43.990  14.447
77459W        W36962   2.374  22.709   2.179
77460W        W36963   0.433  17.643   1.337
77461W        W36964  29.457  25.145  13.520
77462W        W36965   9.711  35.900   4.122
77463W        W36966   7.844   2.345  11.044
77464W        W36967  10.180  38.554  13.915
77465W        W36968   9.247   1.355   0.282
77466W        W36969  12.804  42.910  10.493
77467W        W36970  27.151  43.364  11.126
77468W        W36971  15.143  37.451  12.401
77469W        W36972  41.354  38.844   1.835
77470W        W36973  27.638   5.715  12.390
77471W        W36974  20.259   1.917   3.680
77472W        W36975  16.305  41.863  14.853
77473W        W36976  34.089  38.833   2.716
77474W        W36977   8.681  33.622   3.215
77475W        W36978  42.467   5.382   2.181
77476W        W36979   9.850  36.033   5.113
77477W        W36980  38.970  34.034  10.073
77478W        W36981  37.882  13.725  13.423
77479W        W36982  27.137  39.449  13.839
77480W        W36983  11.199  16.254   3.845
77481W        W36984  16.238  42.912   2.818
77482W        W36985  40.800  26.515   2.398
77483W        W36986  39.467  24.089   3.230
77484W        W36987  10.765   0.976   0.387
77485W        W36988   6.725  40.869  12.378
77486W        W36989  15.614  26.507  13.518
77487W        W36990  39.465  23.202  12.089
77488W        W36991  28.165  28.679  10.605
77489W        W36992  15.711  14.632  10.606
77490W        W36993  19.048  37.907  14.303
77491W        W36994  34.557  25.588   0.958
77492W        W36995   5.771  36.515  13.478
77493W        W36996  17.134  23.188  11.407
77494W        W36997  24.091  35.366  10.627
77495W        W36998   7.357  42.813  11.978
77496W        W36999  39.554  38.560   4.646
77497W        W37000   2.251  25.473   3.151
77498W        W37001  16.192  38.567  14.767
77499W        W37002  38.015  30.146   2.332
77500W        W37003  25.195  16.159   3.676
77501W        W37004  16.739  34.120  11.472
77502W        W37005  38.471  33.126   4.762
77503W        W37006  17.129  30.124  11.128
77504W        W37007  23.198  25.691  13.962
77505W        W37008  10.779  40.306  14.816
77506W        W37009   2.240  21.523  11.045
77507W        W37010  40.864  42.902   0.937
77508W        W37011  30.155  34.946  12.479
77509W        W37012  19.582  44.302  10.575
77510W        W37013   3.216   0.453  11.483
77511W        W37014  44.443  15.087   1.279
77512W        W37015  26.470  14.729   3.317
77513W        W37016  20.030  40.829  11.981
77514W        W37017  15.750  10.301  12.437
77515W        W37018   5.757  17.087   0.393
77516W        W37019   7.823  13.350   1.934
77517W        W37020  16.719  22.678  14.412
77518W        W37021  21.699  33.921  14.420
77519W        W37022  41.898  38.521   0.849
77520W        W37023   8.813  43.769   3.235
77521W        W37024   4.246  22.723  12.952
77522W        W37025  11.820   4.827  10.630
77523W        W37026  40.811  10.714  13.917
77524W        W37027  28.947  12.803   2.836
77525W        W37028  26.499  25.630   4.250
77526W        W37029  26.571  29.988  14.304
77527W        W37030  39.869  10.761   1.414
77528W        W37031  28.988   7.910  14.294
77529W        W37032  11.697  44.802   1.723
77530W        W37033  22.643  30.505  10.061
77531W        W37034  34.429  24.997  10.542
77532W        W37035  28.090  43.017  14.316
77533W        W37036  22.026   2.917   3.383
77534W        W37037   9.731  35.033   4.139
77535W        W37038  28.456  41.494   4.293
77536W        W37039  30.631   4.873  12.092
77537W        W37040  13.624  10.688  11.589
77538W        W37041  12.651  26.629   0.848
77539W        W37042  18.773   6.255   1.907
77540W        W37043  23.037  24.517   2.347
77541W        W37044   3.297  18.187   4.733
77542W        W37045  11.289   3.850  12.414
77543W        W37046  18.556  27.648  13.033
77544W        W37047  33.096  44.866  11.924
77545W        W37048   1.415  24.704  12.388
77546W        W37049   7.385  14.680   0.359
77547W        W37050  32.566  18.715  12.428
77548W        W37051  38.980  34.612   0.852
77549W        W37052  44.783  38.850  11.937
77550W        W37053  19.170   3.221   4.312
77551W        W37054  34.527  24.022   2.829
77552W        W37055  42.372   4.796   0.418
77553W        W37056  28.033  21.631  11.502
77554W        W37057  14.123   3.259   0.886
77555W        W37058  26.010  27.464   1.445
77556W        W37059  36.843  27.052   4.712
77557W        W37060  14.111   7.386   3.815
77558W        W37061  27.678  22.008   4.283
77559W        W37062  10.775  41.389   3.659
77560W        W37063  23.030   2.363  13.985
77561W        W37064  18.725  11.299   1.870
77562W        W37065  11.847  35.517   3.734
77563W        W37066  19.755  17.144   2.792
77564W        W37067  27.541  22.237   2.349
77565W        W37068  32.525   7.251  10.497
77566W        W37069  16.238  29.535  10.945
77567W        W37070  10.731  24.107  14.290
77568W        W37071   9.741   9.722   0.462
77569W        W37072  31.070  32.601  13.488
77570W        W37073  40.520  33.052   2.391
77571W        W37074  37.455   0.266  10.537
77572W        W37075  33.385  30.598  12.936
77573W        W37076  21.706  13.658   2.849
77574W        W37077  16.161  18.646  11.978
77575W        W37078   5.829   5.794   1.328
77576W        W37079  33.903   6.878  10.908
77577W        W37080  10.752   7.173  13.385
77578W        W37081  16.175   0.491  14.282
77579W        W37082  31.114  23.118  11.550
77580W        W37083  26.201   5.806   2.848
77581W        W37084  32.914  29.542   1.319
77582W        W37085  14.238  12.238  10.587
77583W        W37086  24.167  43.838  14.763
77584W        W37087  11.689  37.472   1.788
77585W        W37088   5.301  31.010  13.338
77586W        W37089   8.325  32.065   0.245
77587W        W37090  34.050  41.448   0.767
77588W        W37091  16.646  42.991   4.652
77589W        W37092  37.448  39.471   3.148
77590W        W37093   8.364  28.587  10.556
77591W        W37094  18.621  13.284  10.620
77592W        W37095   9.691   0.289  14.443
77593W        W37096  24.055  36.401  13.440
77594W        W37097  37.563  44.964   1.390
77595W        W37098  29.124   1.435  11.066
77596W        W37099   8.858  28.509   0.265
77597W        W37100   7.692   8.864  14.297
77598W        W37101  18.292  36.991   2.234
77599W        W37102  37.432   4.273   4.168
77600W        W37103  28.654  37.950   4.320
77601W        W37104  15.252  23.238   3.724
77602W        W37105   3.945   9.844  12.853
77603W        W37106  13.619   4.322  12.350
77604W        W37107   2.247  19.167  14.935
77605W        W37108   7.397  40.880  13.930
77606W        W37109  14.185   4.301  10.622
77607W        W37110  20.743  26.490   3.153
77608W        W37111  16.286   4.279   3.794
77609W        W37112  24.174  37.030   0.890
77610W        W37113  42.898  17.207   4.206
77611W        W37114   5.892  39.556   2.895
77612W        W37115   2.886   8.398  10.457
77613W        W37116  31.483  12.190   5.226
77614W        W37117  28.123  42.905  11.890
77615W        W37118  22.129  20.602   3.348
77616W        W37119  16.580  23.028  14.908
77617W        W37120   7.686  19.211   1.405
77618W        W37121  28.481  36.924  11.070
77619W        W37122  15.272  19.166   3.868
77620W        W37123  13.685  36.439   2.297
77621W        W37124  32.093  30.513   9.930
77622W        W37125   7.237   4.317   4.203
77623W        W37126   5.406  43.334  10.934
77624W        W37127  41.841  30.490  14.481
77625W        W37128   3.920   6.184   2.794
77626W        W37129  17.224  29.166  13.046
77627W        W37130  13.207  41.904  13.876
77628W        W37131  31.966   7.390   0.957
77629W        W37132   4.427  15.277  14.759
77630W        W37133  36.069   8.840  14.294
77631W        W37134   4.236   6.376   2.731
77632W        W37135  32.079  23.671   0.886
77633W        W37136   8.293  23.719   4.767
77634W        W37137  20.113  34.991   1.910
77635W        W37138  38.568  37.461   4.810
77636W        W37139  20.031  33.079  13.386
77637W        W37140  31.925  36.591   2.796
77638W        W37141  23.090   8.823  14.481
77639W        W37142  19.235  30.627   0.855
77640W        W37143  10.287  40.460  14.842
77641W        W37144   6.190  19.267   1.334
77642W        W37145  38.514   9.227  12.867
77643W        W37146   1.302  29.476  14.903
77644W        W37147  40.822   5.783  14.991
77645W        W37148  18.262  34.520   3.261
77646W        W37149  12.338   1.816  14.500
77647W        W37150  43.789  41.936  10.529
77648W        W37151  23.153  44.999  14.763
77649W        W37152  27.662  19.666   3.663
77650W        W37153   9.703  31.049   5.231
77651W        W37154  37.083  29.941  14.813
77652W        W37155   0.884  14.807   3.281
77653W        W37156  18.205  12.131  11.876
77654W        W37157  26.459   8.254   4.775
77655W        W37158  43.462  11.348  11.454
77656W        W37159  35.552  11.688   0.743
77657W        W37160   6.354  13.749   2.804
77658W        W37161   5.339  28.529  12.090
77659W        W37162  32.002  16.719   5.208
77660W        W37163  15.149  43.282  12.457
77661W        W37164  33.904   3.832   1.235
77662W        W37165   9.821  31.021   0.876
77663W        W37166  18.178  23.034   0.942
77664W        W37167   0.834  44.501  10.452
77665W        W37168  31.912  27.190  13.798
77666W        W37169  25.502  37.943   0.274
77667W        W37170  15.217  18.789   3.733
77668W        W37171   8.822  38.825   5.290
77669W        W37172  41.426  16.119  11.000
77670W        W37173  11.718  26.475  12.487
77671W        W37174  10.831  37.509   2.844
77672W        W37175   1.850  12.251   4.165
77673W        W37176  44.937   1.843  10.914
77674W        W37177  36.077  42.443   1.238
77675W        W37178   3.281  17.675   0.406
77676W        W37179  31.952  43.378   4.314
77677W        W37180  12.814  18.722  13.373
77678W        W37181  44.925  20.190  10.925
77679W        W37182  13.621  25.656   0.287
77680W        W37183  14.094  43.829   3.268
77681W        W37184  37.564  44.494  14.472
77682W        W37185  41.440  25.649  14.378
77683W        W37186  11.855  33.935  12.952
77684W        W37187  36.523  29.021   4.681
77685W        W37188  38.851  41.976  13.463
77686W        W37189  40.994  20.570  11.868
77687W        W37190  37.405  24.178  11.976
77688W        W37191   2.347  12.795  13.381
77689W        W37192  44.300  38.821  11.497
77690W        W37193  30.933  16.107   1.856
77691W        W37194   2.786  13.652   2.206
77692W        W37195  33.566  41.409  12.528
77693W        W37196  43.995   0.917  13.331
77694W        W37197  27.540   4.349   1.901
77695W        W37198  17.207  40.892   3.846
77696W        W37199  42.479  12.280   0.453
77697W        W37200  19.660   1.827   2.374
77698W        W37201  30.422  31.056  12.957
77699W        W37202  24.111  34.071  12.977
77700W        W37203  32.418   6.825   1.252
77701W        W37204  24.208  21.250   0.858
77702W        W37205  17.248  43.883  11.443
77703W        W37206  22.035  24.211   0.891
77704W        W37207  31.621  44.321   4.265
77705W        W37208   2.386  24.192  13.938
77706W        W37209  15.159  26.529  13.830
77707W        W37210  15.167  12.223   3.215
77708W        W37211   5.932  25.570   0.890
77709W        W37212  25.061  16.108  13.795
77710W        W37213   1.424  32.937  14.397
77711W        W37214   6.269  42.381   4.193
77712W        W37215  13.128   0.910   3.191
77713W        W37216  39.548  20.084  12.488
77714W        W37217   9.705  34.958  11.994
77715W        W37218  13.153  41.794  10.490
77716W        W37219  31.999  26.521  12.972
77717W        W37220   8.825  44.338   3.661
77718W        W37221  35.881  12.326  11.510
77719W        W37222   8.384  32.390   3.274
77720W        W37223  18.067  42.924  11.554
77721W        W37224  13.211  23.539   0.946
77722W        W37225   3.848  39.051   0.438
77723W        W37226  30.997  24.627  11.059
77724W        W37227  35.949  16.687  13.980
77725W        W37228  32.078  35.585  14.450
77726W        W37229   0.330  30.520  11.086
77727W        W37230  15.272  38.905   2.224
77728W        W37231   5.384   4.863   2.885
77729W        W37232  13.124  12.710  10.985
77730W        W37233  22.717  20.064   2.323
77731W        W37234  37.997   0.392   1.729
77732W        W37235  14.189  12.797  11.111
77733W        W37236  31.100  40.456  10.518
77734W        W37237   5.319  21.074  12.047
77735W        W37238  31.614   7.735  11.420
77736W        W37239  34.572  21.211  12.353
77737W        W37240  14.718  16.607   3.846
77738W        W37241  24.182  21.151  13.481
77739W        W37242  38.504  18.662   2.344
77740W        W37243   3.872  18.610  14.452
77741W        W37244  39.331  17.124  10.522
77742W        W37245  27.521  14.685  14.442
77743W        W37246  36.038  28.124  10.442
77744W        W37247  27.517   7.889  10.580
77745W        W37248  29.537  32.541   4.688
77746W        W37249  38.888  10.288   2.802
77747W        W37250  12.628   2.880  11.019
77748W        W37251  40.454   2.827   5.295
77749W        W37252  15.822   4.812   5.299
77750W        W37253   3.421  14.331  13.057
77751W        W37254  28.039   0.946  12.456
77752W        W37255  38.566  41.883  13.513
77753W        W37256   8.332   9.149   3.387
77754W        W37257  29.154   6.246   2.213
77755W        W37258  27.613   8.850   0.886
77756W        W37259   2.774  29.531   0.801
77757W        W37260  42.430  43.411   2.836
77758W        W37261   6.341  44.476  11.525
77759W        W37262   3.365  23.546   2.212
77760W        W37263  40.325   1.778  11.088
77761W        W37264   1.389  34.967   1.755
77762W        W37265  40.382  19.273  14.427
77763W        W37266  18.724  27.086  14.438
77764W        W37267  39.937  23.634   4.658
77765W        W37268  20.750  39.814   1.313
77766W        W37269  14.717  18.077  10.644
77767W        W37270  41.001  33.568   2.732
77768W        W37271  37.427   3.342   4.658
77769W        W37272  16.784  21.196   3.740
77770W        W37273  14.628   4.278  13.985
77771W        W37274   4.374  36.571  13.840
77772W        W37275  32.631  29.921   3.279
77773W        W37276   5.856   8.804  11.021
77774W        W37277  34.377  24.104  12.991
77775W        W37278  37.415  38.052  13.987
77776W        W37279  24.059  12.198   3.631
77777W        W37280  24.136  16.716   1.299
77778W        W37281  37.867  28.088   4.731
77779W        W37282   2.285  30.944   5.649
77780W        W37283  27.946  14.731   0.425
77781W        W37284  31.474  29.535   3.383
77782W        W37285  25.570  15.240   2.662
77783W        W37286  42.466  38.994  12.020
77784W        W37287   9.644  33.955   1.227
77785W        W37288  37.874   6.326  14.884
77786W        W37289  15.803  12.731   4.190
77787W        W37290  10.653   3.839  10.897
77788W        W37291   3.711  44.298  14.885
77789W        W37292  10.180   2.722  13.879
77790W        W37293  16.683  27.150   0.914
77791W        W37294  43.885  39.376  12.066
77792W        W37295  25.550  19.236  10.976
77793W        W37296  30.603   9.352  11.497
77794W        W37297  33.117   5.295  12.360
77795W        W37298  25.654  42.006  12.868
77796W        W37299   3.861  32.071   0.465
77797W        W37300   3.753   4.829  12.848
77798W        W37301  26.602  32.026  13.316
77799W        W37302  14.763  14.749  14.361
77800W        W37303  25.476   0.800   3.682
77801W        W37304   0.886  25.027  12.390
77802W        W37305  19.165  38.898  12.844
77803W        W37306  41.019  36.083  12.883
77804W        W37307  21.689  43.892  11.525
77805W        W37308  28.965  42.448  12.495
77806W        W37309  29.448  39.894   4.310
77807W        W37310   9.274  33.951   3.699
77808W        W37311  21.019  11.314   1.835
77809W        W37312  36.964  41.367  14.933
77810W        W37313  37.574  10.639   1.925
77811W        W37314   8.819  24.149   0.797
77812W        W37315  40.306  25.506  12.875
77813W        W37316  18.083   0.929   2.375
77814W        W37317   4.255  31.579   4.301
77815W        W37318   9.647  30.614  12.841
77816W        W37319  27.602  26.091  11.504
77817W        W37320  19.048   2.423   2.262
77818W        W37321   4.247  18.119  12.374
77819W        W37322  14.167   5.250   3.384
77820W        W37323  16.298  43.838  12.865
77821W        W37324  27.986  25.519  12.403
77822W        W37325  28.482  29.074  11.579
77823W        W37326  18.202  11.677  12.367
77824W        W37327  17.728  43.430   2.681
77825W        W37328  37.953   7.718  14.934
77826W        W37329  40.464  32.572   0.867
77827W        W37330  17.212   0.299   1.267
77828W        W37331  19.735  36.538   2.299
77829W        W37332  22.140  16.811  13.992
77830W        W37333  13.221  12.343  10.999
77831W        W37334  13.684  27.560   1.378
77832W        W37335   2.393  10.803  11.942
77833W        W37336  32.977  10.723  13.896
77834W        W37337   6.225   9.170  14.427
77835W        W37338  40.470   8.249   4.783
77836W        W37339  13.840  28.495  10.438
77837W        W37340  33.988   4.217  11.959
77838W        W37341   2.297  37.935   3.679
77839W        W37342  20.033  10.815  12.505
77840W        W37343  14.610   0.482  13.862
77841W        W37344  40.994   3.795   3.674
77842W        W37345  38.524  19.255  14.408
77843W        W37346  16.138  21.206  11.024
77844W        W37347  10.281  38.033   0.954
77845W        W37348  12.192  17.678   2.264
77846W        W37349  36.879   3.372  10.086
77847W        W37350   1.928   0.847  14.445
77848W        W37351  34.112  34.442   4.719
77849W        W37352   2.471  23.097   3.227
77850W        W37353  38.972  28.171  14.762
77851W        W37354  27.670   4.264  13.998
77852W        W37355  10.687   8.405  13.441
77853W        W37356   8.252  31.411   0.916
77854W        W37357  33.996  24.652   3.261
77855W        W37358  20.602  14.168   0.945
77856W        W37359  29.464  26.534   0.308
77857W        W37360  32.095   5.317  12.081
77858W        W37361  30.525  21.644   4.123
77859W        W37362  21.646  41.512   2.333
77860W        W37363  19.093  32.531  12.391
77861W        W37364  42.868   1.443   0.739
77862W        W37365  16.604  43.016  11.994
77863W        W37366   1.318   5.254   0.763
77864W        W37367  21.718  35.884   3.713
77865W        W37368  12.166  43.776   0.281
77866W        W37369  27.664  10.807  11.600
77867W        W37370   0.347  11.796  13.060
77868W        W37371  39.519  22.110   3.636
77869W        W37372  28.954   8.674   3.307
77870W        W37373  36.469  39.449   1.892
77871W        W37374  37.566  30.060  14.402
77872W        W37375   9.326   0.779   3.258
77873W        W37376  40.403  36.983   0.741
77874W        W37377  39.525  25.545   1.377
77875W        W37378  22.191  29.489  10.608
77876W        W37379  23.122  44.917  10.902
77877W        W37380  35.070  34.585  12.881
77878W        W37381  26.659   0.273   5.753
77879W        W37382  44.453  24.021  10.419
77880W        W37383   0.318  28.451   0.425
77881W        W37384   0.338   5.392   3.155
77882W        W37385   1.939   5.927  12.384
77883W        W37386  37.492  24.064  13.835
77884W        W37387  17.621  44.788  14.007
77885W        W37388   3.953  19.265   4.190
77886W        W37389  37.443  43.390  11.586
77887W        W37390  34.536  14.338  10.036
77888W        W37391  17.696  34.583  11.391
77889W        W37392  40.472   5.313  14.989
77890W        W37393  43.371  25.546  12.346
77891W        W37394  13.130  35.413   2.864
77892W        W37395  28.040   7.839  10.161
77893W        W37396  13.194  16.245  12.035
77894W        W37397  29.464  31.463  11.916
77895W        W37398   0.252  20.688   5.282
77896W        W37399   2.919  21.529  14.498
77897W        W37400  31.058  28.935   4.777
77898W        W37401  26.052  42.499   4.212
77899W        W37402  35.412  28.593  13.345
77900W        W37403  22.138   1.746   2.349
77901W        W37404  42.512  42.488  14.838
77902W        W37405  14.174  41.888  10.519
77903W        W37406  44.928  42.399  11.891
77904W        W37407  34.973  20.657   4.188
77905W        W37408  11.347   0.382  10.475
77906W        W37409  16.665  16.730   4.658
77907W        W37410  44.949  26.557  14.888
77908W        W37411  22.120  11.743  11.972
77909W        W37412  40.508  30.154  11.514
77910W        W37413  22.203  10.772   4.630
77911W        W37414   2.409   6.298  11.908
77912W        W37415  26.586   5.388   1.705
77913W        W37416  20.531  18.626   1.712
77914W        W37417   2.231   7.346   2.313
77915W        W37418  10.337   1.255   2.849
77916W        W37419  27.518  36.948   3.156
77917W        W37420  34.517  24.192   3.376
77918W        W37421  36.934   4.314  14.827
77919W        W37422  18.586  41.842  13.543
77920W        W37423  18.700  12.300   3.158
77921W        W37424   2.410  33.486   4.294
77922W        W37425   2.303  35.076  11.057
77923W        W37426  35.363  10.350  14.504
77924W        W37427   7.222  31.102   3.812
77925W        W37428  28.010  10.841   0.255
77926W        W37429  31.606  27.686  10.593
77927W        W37430   1.755  44.936   1.409
77928W        W37431  44.356  33.547  11.473
77929W        W37432   3.417  44.937  13.502
77930W        W37433   3.756  15.665   4.161
77931W        W37434  29.487  33.420   4.662
77932W        W37435  27.602  35.363   2.277
77933W        W37436  16.791  37.488   1.363
77934W        W37437  42.524  10.267   2.394
77935W        W37438  34.404  21.600  11.121
77936W        W37439  24.130  23.012   0.476
77937W        W37440   3.349  41.018   0.742
77938W        W37441   3.233  36.378   3.178
77939W        W37442  24.167  34.901   0.340
77940W        W37443  38.356  16.650  12.927
77941W        W37444  21.187  33.089  11.910
77942W        W37445  19.596  19.174   2.815
77943W        W37446  32.072  24.132  13.467
77944W        W37447   8.693  36.445   4.199
77945W        W37448   3.330  37.888   1.414
77946W        W37449  34.930  11.294  10.156
77947W        W37450   8.747   7.850   2.897
77948W        W37451   2.405  36.870   3.661
77949W        W37452  22.528  40.339   4.289
77950W        W37453  17.732  43.468   4.293
77951W        W37454  17.625   5.915   1.856
77952W        W37455  15.721  28.159   2.761
77953W        W37456  41.411  17.646  13.378
77954W        W37457  10.771  11.701  12.913
77955W        W37458  30.059   6.820  14.861
77956W        W37459  18.686  36.899   2.901
77957W        W37460  43.988  22.562   2.882
77958W        W37461   0.303  25.565   4.284
77959W        W37462   5.814  18.604  14.031
77960W        W37463  25.200  22.124   2.694
77961W        W37464  23.092  13.148   2.802
77962W        W37465   5.752  16.727  13.045
77963W        W37466   2.372  38.965  11.895
77964W        W37467  33.412  17.291  11.002
77965W        W37468   0.964  42.457   4.721
77966W        W37469   3.722   4.879   3.348
77967W        W37470  39.033  28.665  10.003
77968W        W37471  27.011  43.946   1.708
77969W        W37472  19.171  16.142  11.471
77970W        W37473  13.181  10.361   3.157
77971W        W37474  12.121   9.788   2.825
77972W        W37475  25.137  27.962   4.170
77973W        W37476  25.165  34.515  12.526
77974W        W37477   4.368  20.572  14.817
77975W        W37478  23.517  16.796   3.203
77976W        W37479   6.827  41.394   3.350
77977W        W37480  32.952  36.025  14.362
77978W        W37481  23.082  16.241   0.313
77979W        W37482  35.050  21.721  11.546
77980W        W37483  24.594  22.502   2.277
77981W        W37484  16.597  25.963  14.764
77982W        W37485  31.420   5.197   3.778
77983W        W37486  12.718  10.222  14.920
77984W        W37487  39.397  41.937  11.116
77985W        W37488   5.711   4.869   4.733
77986W        W37489   2.877  16.589   3.630
77987W        W37490  22.745  13.624  13.910
77988W        W37491  18.786   0.249  14.496
77989W        W37492   3.926  11.248   3.854
77990W        W37493   5.216  34.595   0.809
77991W        W37494   2.455  19.548   3.203
77992W        W37495  27.025  13.193   0.386
77993W        W37496  37.964  28.964   1.909
77994W        W37497  34.441  38.362  12.843
77995W        W37498   0.784   4.759   3.687
77996W        W37499  27.006   5.766  14.834
77997W        W37500  29.649  19.746  11.432
77998W        W37501  41.387  21.181   3.665
77999W        W37502  28.445  14.224   2.347
78000W        W37503  31.401  43.505   1.418
78001W        W37504  39.515   0.801   1.395
78002W        W37505  41.962   9.833  11.029
78003W        W37506  17.256  17.083   2.356
78004W        W37507  10.760   7.882  14.028
78005W        W37508  17.642   2.447   2.386
78006W        W37509  18.065  38.561   2.203
78007W        W37510  13.261  10.371   3.802
78008W        W37511  17.609  10.380   3.803
78009W        W37512  15.793  33.098   3.180
78010W        W37513  42.932  41.835  13.954
78011W        W37514   3.847  26.107  11.460
78012W        W37515   6.237  14.703  13.537
78013W        W37516  22.054  17.281   4.816
78014W        W37517  37.020  39.508  10.633
78015W        W37518  41.435   4.309   3.190
78016W        W37519   5.268  29.667   4.689
78017W        W37520   7.870  21.212  11.916
78018W        W37521  34.584  13.198  11.057
78019W        W37522  42.782   3.878  11.453
78020W        W37523  12.746  32.958   0.891
78021W        W37524   7.831  38.875  12.509
78022W        W37525  40.446  35.961   4.127
78023W        W37526   1.775  39.543   2.260
78024W        W37527  28.995   2.869  13.840
78025W        W37528  20.577  31.432   1.315
78026W        W37529  24.670  13.842  10.949
78027W        W37530  38.824  20.601  11.479
78028W        W37531  34.059  27.098  14.470
78029W        W37532  26.570  42.816  14.305
78030W        W37533  39.057  31.073  11.970
78031W        W37534  13.651  18.760   0.826
78032W        W37535  30.634  35.381   2.738
78033W        W37536  33.928  26.182   4.612
78034W        W37537  27.488  26.025   2.413
78035W        W37538  19.559   9.269  12.995
78036W        W37539  44.382  28.984  12.900
78037W        W37540   2.934   7.325  12.971
78038W        W37541   7.865  26.071   2.683
78039W        W37542   0.885  12.268  11.419
78040W        W37543   4.877  37.992  13.926
78041W        W37544  38.428  23.184  13.961
78042W        W37545  12.348  14.816  12.423
78043W        W37546  11.246   1.443  11.533
78044W        W37547   4.379  32.584  14.441
78045W        W37548   6.267  15.274  12.527
78046W        W37549  40.953  13.116   3.854
78047W        W37550  39.978   7.314   0.795
78048W        W37551   3.362  28.536   0.252
78049W        W37552  28.002  22.621   2.193
78050W        W37553  15.224  22.647   4.774
78051W        W37554   9.241  25.204  12.493
78052W        W37555   4.337  39.862  13.508
78053W        W37556  16.699  39.416   4.243
78054W        W37557  20.683  36.867  14.929
78055W        W37558  24.075  27.500  13.538
78056W        W37559  13.608  27.947  14.908
78057W        W37560  31.962   5.284  12.465
78058W        W37561  25.706  18.553   1.919
78059W        W37562   5.841   1.463  12.980
78060W        W37563   5.813  18.220   9.997
78061W        W37564  11.352  24.174   2.857
78062W        W37565  28.982  25.712  13.430
78063W        W37566  41.989  37.874   2.325
78064W        W37567   3.938  20.076  10.964
78065W        W37568  25.206  27.483  12.067
78066W        W37569   9.292  36.977   3.666
78067W        W37570  11.140  36.370  11.015
78068W        W37571  36.846  43.813  14.461
78069W        W37572  42.960   0.395  11.979
78070W        W37573  12.662  14.810  12.963
78071W        W37574  13.663  44.414  14.487
78072W        W37575  23.701  38.883  12.943
78073W        W37576  43.958   2.267   0.434
78074W        W37577  39.055  28.071  12.852
78075W        W37578  33.932  42.800   2.242
78076W        W37579  34.581  13.172  14.354
78077W        W37580  39.039  11.797  12.488
78078W        W37581   1.925  33.085  12.351
78079W        W37582  24.668  28.532   0.333
78080W        W37583   3.794  39.049  12.430
78081W        W37584  27.510   6.184   4.692
78082W        W37585  35.994  28.615  10.408
78083W        W37586   1.809  30.027  13.033
78084W        W37587  30.957  43.966   1.923
78085W        W37588  42.444  38.848   1.362
78086W        W37589   1.463  29.593   1.729
78087W        W37590  23.007  18.641   0.291
78088W        W37591  26.188  28.547  14.432
78089W        W37592  10.246  23.533   4.288
78090W        W37593   3.430  12.723  14.877
78091W        W37594  24.636   8.749   0.754
78092W        W37595   9.805  21.583   2.755
78093W        W37596  15.594  34.988  14.839
78094W        W37597   0.329   4.325  10.609
78095W        W37598   1.466  20.213   2.235
78096W        W37599  22.243  17.643   0.923
78097W        W37600  25.191  16.776   4.665
78098W        W37601  21.584  19.215   2.709
78099W        W37602  33.523  13.319  14.280
78100W        W37603  28.939  11.719   2.713
78101W        W37604  39.022  32.135  10.470
78102W        W37605  39.840  14.733  14.297
78103W        W37606  37.380  42.881   9.993
78104W        W37607   3.253  42.389   1.802
78105W        W37608   3.925  12.178  10.918
78106W        W37609  35.980  24.187   0.844
78107W        W37610  26.514  26.068   2.898
78108W        W37611  23.695  34.491   3.385
78109W        W37612  32.959   7.328  14.357
78110W        W37613  36.406  13.245   2.858
78111W        W37614   1.458  31.462  13.884
78112W        W37615  25.485   5.771  14.767
78113W        W37616  44.815  15.148  10.537
78114W        W37617  16.641  17.698  13.975
78115W        W37618  36.938  26.535  10.043
78116W        W37619  24.694  26.632  12.909
78117W        W37620  35.007  23.039  10.479
78118W        W37621  27.101   8.232   4.765
78119W        W37622   8.344  31.499  14.406
78120W        W37623  33.918  21.246  14.765
78121W        W37624   6.691   2.840   4.761
78122W        W37625   7.248  39.423  12.851
78123W        W37626  32.431  12.689   2.835
78124W        W37627   5.779  29.550   4.270
78125W        W37628  29.006  34.965  12.838
78126W        W37629  22.234  39.896  13.441
78127W        W37630   3.370  20.187   2.381
78128W        W37631  10.735  14.260  10.554
78129W        W37632   8.756  33.025   3.730
78130W        W37633   6.321  29.536  10.893
78131W        W37634  32.139  36.354   3.714
78132W        W37635  40.927  32.072   0.958
78133W        W37636  30.164  36.842   0.476
78134W        W37637   8.309  33.969   2.238
78135W        W37638   0.960   4.207  13.546
78136W        W37639  19.262  21.077  12.525
78137W        W37640   2.409   8.838  10.928
78138W        W37641  36.843  32.455   1.212
78139W        W37642  32.935  33.965  13.512
78140W        W37643  24.067  12.625  14.924
78141W        W37644  35.381   4.248  10.567
78142W        W37645  42.978  17.295  10.643
78143W        W37646  30.069  39.980  14.010
78144W        W37647  11.749  30.944   5.185
78145W        W37648  20.075  37.499   3.680
78146W        W37649  15.669   3.868  12.438
78147W        W37650  31.495  42.502   0.297
78148W        W37651   9.674   7.376  13.793
78149W        W37652  44.335   5.300   5.200
78150W        W37653  37.403  32.435  14.840
78151W        W37654   6.908  37.017   4.715
78152W        W37655  28.051   7.360  13.487
78153W        W37656  37.984  21.028  11.085
78154W        W37657   4.817  29.967   1.286
78155W        W37658   2.878  26.065   1.922
78156W        W37659  36.072   7.408   2.268
78157W        W37660   5.363  21.615   3.826
78158W        W37661  17.113  14.589  11.031
78159W        W37662  25.093  32.131   3.639
78160W        W37663  42.845  39.356  13.997
78161W        W37664  16.164   6.702  13.044
78162W        W37665   1.944  30.060  14.460
78163W        W37666  16.706  39.541  11.084
78164W        W37667  22.735  32.522  10.487
78165W        W37668   0.293  11.661   3.761
78166W        W37669   1.453  27.178   0.967
78167W        W37670  14.788  13.789  12.885
78168W        W37671  15.255   4.799  10.479
78169W        W37672  16.652  37.576   2.713
78170W        W37673   5.208  10.654   3.867
78171W        W37674  37.838  35.885   4.305
78172W        W37675   3.882  18.564   2.362
78173W        W37676  10.216  36.870   3.777
78174W        W37677  16.216  31.925   2.798
78175W        W37678   9.790   7.333  11.595
78176W        W37679  31.067  17.715   0.273
78177W        W37680  39.489  37.558  14.838
78178W        W37681  35.587   5.759   2.302
78179W        W37682  38.852  21.678   1.858
78180W        W37683   0.303   1.759   2.809
78181W        W37684   8.809  10.265   1.256
78182W        W37685  29.487  28.186   3.263
78183W        W37686  24.622  32.581  11.927
78184W        W37687  17.601  36.085  11.494
78185W        W37688  36.566  21.722  12.947
78186W        W37689  25.529  16.160  12.476
78187W        W37690   6.274  42.423  11.560
78188W        W37691  37.504  25.580  12.340
78189W        W37692  14.671  35.482   5.269
78190W        W37693  23.040  12.316  13.913
78191W        W37694  39.474   6.708  10.031
78192W        W37695  39.514  21.232   0.249
78193W        W37696  21.124  19.668  13.850
78194W        W37697  24.116  27.113  13.476
78195W        W37698  33.988  12.650   4.623
78196W        W37699   5.877  22.672   2.832
78197W        W37700  29.597  39.450  10.420
78198W        W37701   3.236  15.246  11.954
78199W        W37702  31.527  17.568   0.396
78200W        W37703  38.533  12.617   4.199
78201W        W37704   1.341   4.779   3.819
78202W        W37705  33.991  37.914   3.729
78203W        W37706  21.160  44.290  14.369
78204W        W37707  29.941   3.407   2.723
78205W        W37708   4.365  15.813   1.921
78206W        W37709  12.727  23.147  12.381
78207W        W37710   0.789   9.855  11.021
78208W        W37711  21.093  18.777   4.313
78209W        W37712  41.033  31.967   4.235
78210W        W37713  21.612   0.906   9.566
78211W        W37714  23.554  21.075   3.363
78212W        W37715  18.672  21.670  11.968
78213W        W37716   6.409  19.216   4.621
78214W        W37717  21.106   7.318  10.457
78215W        W37718  13.608   1.835  13.999
78216W        W37719  10.791   7.348   1.401
78217W        W37720   3.428   2.391   3.675
78218W        W37721  18.210  28.541  14.862
78219W        W37722  20.205  42.353   3.645
78220W        W37723  38.508  28.162  12.047
78221W        W37724  19.277  26.463  12.025
78222W        W37725  21.638  21.539   3.211
78223W        W37726  24.230  36.552  12.561
78224W        W37727  38.988  24.216   3.766
78225W        W37728  20.031  21.679  14.941
78226W        W37729   1.362  41.431   3.865
78227W        W37730  43.494  21.524  12.558
78228W        W37731  22.724  44.418   0.345
78229W        W37732  28.567  44.417  11.006
78230W        W37733  44.822  12.322   4.747
78231W        W37734  26.026  32.470  11.915
78232W        W37735  19.282   6.268   0.329
78233W        W37736   3.924  23.734  13.424
78234W        W37737  18.579  30.649  10.901
78235W        W37738  12.355  43.879  13.474
78236W        W37739  13.689  31.544   4.140
78237W        W37740  16.697  42.454   3.255
78238W        W37741   1.388  31.931  12.383
78239W        W37742  27.100   8.713   4.829
78240W        W37743  19.135  41.447  11.458
78241W        W37744  34.596  28.117  11.446
78242W        W37745  21.118  11.708  10.891
78243W        W37746  15.249  19.137  10.615
78244W        W37747  12.185  40.401  11.914
78245W        W37748  29.543   7.229  12.967
78246W        W37749  30.985  11.865  11.446
78247W        W37750  33.950  30.085   4.348
78248W        W37751   7.171  26.511  11.070
78249W        W37752  19.240  37.464  12.871
78250W        W37753  13.297  35.462   4.717
78251W        W37754  31.107  17.690  10.000
78252W        W37755  20.062  31.910   1.756
78253W        W37756  17.223  21.174   0.865
78254W        W37757  14.111  35.401  12.076
78255W        W37758   9.190   1.837  14.892
78256W        W37759  43.411  31.929  11.572
78257W        W37760  42.330   1.834   1.448
78258W        W37761   1.806  23.107  14.404
78259W        W37762  40.465  39.336  10.516
78260W        W37763  23.654   8.221   0.361
78261W        W37764  32.620   0.966   3.729
78262W        W37765  40.837  22.138  13.793
78263W        W37766  27.579  44.363   9.923
78264W        W37767  28.148  27.106   1.881
78265W        W37768  22.552  30.652  13.062
78266W        W37769  38.860  35.593   0.355
78267W        W37770  26.658   1.289   4.645
78268W        W37771  11.766  16.193   2.407
78269W        W37772  21.574  29.552  12.023
78270W        W37773   0.978  12.768   3.758
78271W        W37774   8.722   3.938   3.349
78272W        W37775   7.691   9.886  12.064
78273W        W37776  26.049  29.550  10.911
78274W        W37777  15.793   5.704   4.269
78275W        W37778  15.629  23.667  14.002
78276W        W37779  44.774  16.740   2.237
78277W        W37780  41.803  42.417  13.818
78278W        W37781  44.819  12.338  14.487
78279W        W37782  42.814   9.249  14.333
78280W        W37783  15.721  11.142   1.699
78281W        W37784  39.447  16.315   4.308
78282W        W37785  14.259  20.113  14.862
78283W        W37786  35.067   0.801   0.450
78284W        W37787  31.606  35.436  14.764
78285W        W37788  24.070  14.708   0.752
78286W        W37789   2.772  10.772  12.881
78287W        W37790  15.321  44.008  10.987
78288W        W37791  41.470   1.389  12.933
78289W        W37792  26.630  19.259  12.466
78290W        W37793   1.775  39.521  10.643
78291W        W37794   3.901  35.924   0.806
78292W        W37795  25.021  32.986  11.988
78293W        W37796  11.227  14.132  12.852
78294W        W37797  10.216   6.312  15.000
78295W        W37798  44.986  11.153   2.283
78296W        W37799  40.506  35.932   3.360
78297W        W37800  27.130  30.522   1.757
78298W        W37801  19.734  12.628   3.149
78299W        W37802  40.436  32.495  12.430
78300W        W37803  36.443  34.893  12.576
78301W        W37804  16.297  24.109  14.029
78302W        W37805  40.994  34.514   1.342
78303W        W37806  42.325  16.295   4.653
78304W        W37807   8.306   5.806  14.317
78305W        W37808   2.423   3.371   2.787
78306W        W37809  44.445  22.074   1.436
78307W        W37810  13.798  41.490   2.803
78308W        W37811  10.233  40.310  10.928
78309W        W37812  35.079  16.692  12.069
78310W        W37813  12.852  24.033  13.823
78311W        W37814  15.224  29.005   2.772
78312W        W37815  24.536  16.672  13.038
78313W        W37816  31.929  12.855  11.863
78314W        W37817  16.748  27.023   1.432
78315W        W37818  14.661  14.106   1.795
78316W        W37819  25.079  14.702   1.292
78317W        W37820   7.884  43.771   2.392
78318W        W37821  15.288   9.752  12.447
78319W        W37822  31.405  16.120  13.381
78320W        W37823  26.538  16.597  14.512
78321W        W37824   6.203   1.751   4.293
78322W        W37825  32.133   5.400  11.486
78323W        W37826  34.969  43.894  14.922
78324W        W37827  23.593   6.762   3.712
78325W        W37828  18.585   5.799   0.342
78326W        W37829  13.702  33.049   0.751
78327W        W37830   0.743  14.278  12.960
78328W        W37831  19.777  12.296   0.824
78329W        W37832  31.426  14.720   2.392
78330W        W37833  34.914  17.574   0.816
78331W        W37834  40.304  27.668   1.697
78332W        W37835   0.346  28.635   1.866
78333W        W37836   0.489  18.112  13.468
78334W        W37837  28.165  18.557  14.835
78335W        W37838  25.115  23.606   4.230
78336W        W37839  20.526   7.884   1.811
78337W        W37840  26.958  35.972   0.274
78338W        W37841  42.998  28.976  14.966
78339W        W37842  29.042   7.863  13.390
78340W        W37843  16.766  24.131   1.246
78341W        W37844  29.129  35.940   2.412
78342W        W37845  14.101  44.761   2.410
78343W        W37846  29.153  16.673   4.792
78344W        W37847  34.559   5.436  14.935
78345W        W37848  34.458  22.648   3.366
78346W        W37849  32.142  16.599   2.291
78347W        W37850   5.733  32.040   3.853
78348W        W37851  37.369  35.884  12.882
78349W        W37852   8.224   1.479  12.872
78350W        W37853  36.069   5.310   4.828
78351W        W37854  42.321   3.340  11.382
78352W        W37855  26.594  23.592   2.817
78353W        W37856  23.224  27.484   2.803
78354W        W37857  35.006  16.688  10.540
78355W        W37858  29.569  28.126   2.773
78356W        W37859   5.248  25.138   1.306
78357W        W37860   9.846   6.683   0.924
78358W        W37861  43.967  15.816   0.310
78359W        W37862  23.645  30.069  11.089
78360W        W37863  24.672  35.489  11.026
78361W        W37864  19.718  17.562   0.786
78362W        W37865  36.044  14.304   0.903
78363W        W37866  32.567  30.644  13.409
78364W        W37867  34.534  15.202   0.876
78365W        W37868  31.074  25.139  12.441
78366W        W37869  39.534  30.525  12.012
78367W        W37870  15.715  35.562  14.845
78368W        W37871  18.600  30.989   2.266
78369W        W37872  39.030  36.886   3.713
78370W        W37873  40.813   6.788   5.207
78371W        W37874  12.133  44.449   2.706
78372W        W37875  25.210  10.764  10.482
78373W        W37876  42.889   1.383  12.856
78374W        W37877   7.262  32.408   0.328
78375W        W37878  37.417   0.922   0.778
78376W        W37879  20.756  14.589  10.905
78377W        W37880  21.147  28.112   0.777
78378W        W37881  15.668  35.931  12.379
78379W        W37882  43.864  38.450   4.193
78380W        W37883  13.718  24.705   1.736
78381W        W37884   3.884  36.891   4.189
78382W        W37885  33.431  22.718   3.163
78383W        W37886  34.028   0.405   0.319
78384W        W37887  32.899  33.589  13.481
78385W        W37888  36.008  19.041  10.432
78386W        W37889  30.624  21.157   3.251
78387W        W37890   5.321  34.525   4.308
78388W        W37891   4.774   1.320   3.258
78389W        W37892  31.608   6.197  14.982
78390W        W37893  20.707  15.639  14.451
78391W        W37894  43.326  29.927  10.957
78392W        W37895  40.437  35.409   2.258
78393W        W37896  24.675  29.989  11.901
78394W        W37897  11.299   2.929  11.388
78395W        W37898  13.746  20.623   0.805
78396W        W37899  32.957   7.695   3.347
78397W        W37900   3.440  18.236   1.265
78398W        W37901  38.038   1.752  12.342
78399W        W37902  34.048  11.801   4.664
78400W        W37903   8.197  23.093   3.720
78401W        W37904   8.676  35.988  13.961
78402W        W37905  44.841  30.032  11.049
78403W        W37906  22.167  26.064   1.340
78404W        W37907  28.110  36.513  13.914
78405W        W37908  11.657  33.033  11.379
78406W        W37909  14.114  34.949  12.039
78407W        W37910   3.793  17.229   4.786
78408W        W37911  25.471  10.333   1.294
78409W        W37912  16.605  27.644  10.553
78410W        W37913  44.482   8.827   0.842
78411W        W37914  19.659  29.134  13.473
78412W        W37915  11.221  18.204   2.261
78413W        W37916  30.478  44.424   5.214
78414W        W37917  25.166  35.902   1.721
78415W        W37918  13.788  22.053   3.845
78416W        W37919  32.466   4.267   4.650
78417W        W37920   3.375   4.844  10.139
78418W        W37921   0.290  12.263  13.920
78419W        W37922   8.354  28.491   0.325
78420W        W37923  40.026  44.261   0.422
78421W        W37924   1.447  22.670  13.367
78422W        W37925  44.777  22.013  12.520
78423W        W37926  29.941  15.721   0.410
78424W        W37927  23.646  43.511  13.386
78425W        W37928   6.396  35.946   3.704
78426W        W37929  38.397  32.436  13.799
78427W        W37930  43.973  44.862   4.648
78428W        W37931  39.047   3.420   1.856
78429W        W37932  27.546   1.280   3.714
78430W        W37933  11.830  23.035  12.562
78431W        W37934  34.550   1.848   1.765
78432W        W37935  15.659  12.663   1.751
78433W        W37936  38.537  19.745  10.971
78434W        W37937  36.900  11.254  10.466
78435W        W37938   2.432  44.872   3.268
78436W        W37939   1.817  16.250  11.902
78437W        W37940   5.290  40.329  14.889
78438W        W37941  11.198  40.387   0.400
78439W        W37942  13.329  34.930   9.922
78440W        W37943  44.308  12.186   1.820
78441W        W37944  25.980  25.612  10.409
78442W        W37945  20.225  42.963   4.332
78443W        W37946  43.990  39.370  10.641
78444W        W37947  12.153  29.434  11.880
78445W        W37948  29.171   2.742   3.351
78446W        W37949  32.015   3.290   3.159
78447W        W37950  20.751  20.152  14.384
78448W        W37951  11.300  42.967   2.203
78449W        W37952  34.910  35.916  10.493
78450W        W37953  27.627  15.794  13.002
78451W        W37954  15.751   7.790  11.531
78452W        W37955  37.004  38.996   0.317
78453W        W37956  17.127  18.165   4.793
78454W        W37957  42.958  12.804  14.299
78455W        W37958  42.440  36.562   2.377
78456W        W37959  13.792   7.828   3.202
78457W        W37960  19.703  22.625  10.482
78458W        W37961  14.246  44.999   0.739
78459W        W37962  37.514  41.385  11.467
78460W        W37963   2.868  24.658   0.409
78461W        W37964  20.643  11.862   0.841
78462W        W37965  21.209  12.668   4.317
78463W        W37966  31.964   2.724   3.704
78464W        W37967  17.559  40.435   0.254
78465W        W37968  34.557  24.569   1.249
78466W        W37969  33.960  12.155   0.793
78467W        W37970  19.704  15.753   4.797
78468W        W37971  12.653  36.036  12.429
78469W        W37972  26.066   3.844   1.367
78470W        W37973   1.755  43.479  13.428
78471W        W37974   7.252  18.657   0.259
78472W        W37975  16.793   2.916  11.534
78473W        W37976   5.746  12.753  10.927
78474W        W37977  34.079   7.188  13.006
78475W        W37978  34.960  33.096  13.059
78476W        W37979   9.712   6.824   3.760
78477W        W37980  38.429  16.076   2.815
78478W        W37981  13.610  19.714  12.516
78479W        W37982  33.593   1.755   0.865
78480W        W37983   7.269  34.528   0.833
78481W        W37984  16.593  42.432   0.965
78482W        W37985  27.072  16.153   0.964
78483W        W37986  38.968  19.172  11.926
78484W        W37987   3.773  38.472  11.426
78485W        W37988  44.962  10.762   2.813
78486W        W37989  16.808  17.247   3.850
78487W        W37990   3.743   3.320   3.689
78488W        W37991  15.205  41.869  12.525
78489W        W37992  29.549  23.194   0.263
78490W        W37993  35.574  31.438  12.478
78491W        W37994  38.474  40.849  14.277
78492W        W37995  16.131  34.611  12.003
78493W        W37996  26.564   9.171  11.979
78494W        W37997   0.460   3.440  14.999
78495W        W37998  19.725  38.486  14.382
78496W        W37999  21.139  30.058  10.572
78497W        W38000  19.756  35.091  10.522
78498W        W38001  35.084  21.652  12.382
78499W        W38002   6.231  24.063  14.760
78500W        W38003  20.616  17.198  12.522
78501W        W38004   8.402  12.651  10.022
78502W        W38005   8.272   6.706   4.618
78503W        W38006  15.687  19.534   0.843
78504W        W38007  30.567   0.326  11.462
78505W        W38008  35.894   2.469   1.696
78506W        W38009  33.453  25.559  10.991
78507W        W38010  26.639  39.901  10.598
78508W        W38011  40.549  31.570   0.756
78509W        W38012  34.950  43.325  11.523
78510W        W38013  38.505  30.106  14.786
78511W        W38014  29.026  32.893   2.704
78512W        W38015  36.910  39.519   3.693
78513W        W38016  35.587   8.670   5.142
78514W        W38017  44.946  31.627  12.064
78515W        W38018  28.176  25.978   2.368
78516W        W38019   0.925   8.263  10.967
78517W        W38020   7.202  14.118   0.947
78518W        W38021  38.892  22.664   0.358
78519W        W38022   1.342  13.292   1.276
78520W        W38023  31.089   5.693   4.647
78521W        W38024  29.471   9.872  11.038
78522W        W38025  28.142  29.939  13.905
78523W        W38026  29.127  12.200  13.405
78524W        W38027  38.483  41.887   0.329
78525W        W38028  39.515  36.841  14.778
78526W        W38029  21.251  35.440   3.175
78527W        W38030  20.676  38.557  10.595
78528W        W38031  31.973  37.932   5.098
78529W        W38032  18.078  39.321  12.446
78530W        W38033   4.852   9.847   4.745
78531W        W38034  18.591  22.594  14.032
78532W        W38035  24.017  15.241   2.858
78533W        W38036  13.334   4.337  13.473
78534W        W38037   6.274  33.392  14.016
78535W        W38038  14.740  39.063  14.347
78536W        W38039  17.226   6.834  12.085
78537W        W38040  33.123  20.139  12.520
78538W        W38041   5.430  37.887  14.410
78539W        W38042  40.501   7.899   4.326
78540W        W38043   1.480  16.164   2.816
78541W        W38044  23.562   9.226   1.241
78542W        W38045  10.339  18.192  14.379
78543W        W38046  18.186  19.661  13.953
78544W        W38047  37.016  18.252  11.466
78545W        W38048  13.663  40.406   0.863
78546W        W38049  23.570   2.253  10.958
78547W        W38050   5.323  14.688  13.510
78548W        W38051  26.182   7.243   4.663
78549W        W38052  29.038  21.690   1.748
78550W        W38053  39.317  21.112  10.894
78551W        W38054  23.187   5.370  13.530
78552W        W38055  31.630  36.907  13.442
78553W        W38056  17.735  27.469   2.815
78554W        W38057   7.180  25.635  14.354
78555W        W38058  23.216  29.991  10.520
78556W        W38059  15.671  18.754   0.822
78557W        W38060   4.217  20.250   2.244
78558W        W38061  30.151  42.357   2.412
78559W        W38062  10.778   2.405  11.921
78560W        W38063  22.082   4.876   2.834
78561W        W38064  24.223  10.165   3.849
78562W        W38065   6.776   1.820   2.349
78563W        W38066   2.789  13.616  11.382
78564W        W38067   6.272  29.082  11.552
78565W        W38068  40.935   2.763  12.493
78566W        W38069  35.912  31.513  11.396
78567W        W38070  42.844  12.345  11.127
78568W        W38071  25.018  16.785  14.778
78569W        W38072   2.330  23.038  10.890
78570W        W38073  27.673  40.349  11.553
78571W        W38074   0.744  16.240   5.172
78572W        W38075  12.795  16.130   2.717
78573W        W38076  38.400  26.154  14.377
78574W        W38077  38.423   8.685   1.815
78575W        W38078  27.639   1.856   2.249
78576W        W38079   4.399  11.631  12.071
78577W        W38080  38.991  21.552  14.829
78578W        W38081  29.125  44.008  12.921
78579W        W38082   6.277   2.801   2.662
78580W        W38083  25.604  32.426  13.490
78581W        W38084  36.087  39.559   4.341
78582W        W38085   7.770  32.485  12.427
78583W        W38086  27.669  26.966   4.615
78584W        W38087   8.310  24.603  14.344
78585W        W38088  19.284  16.708   1.243
78586W        W38089  22.161  41.850  12.917
78587W        W38090  10.856  44.872  10.911
78588W        W38091  13.166  30.515  13.391
78589W        W38092  34.507  18.198   2.362
78590W        W38093  42.850   2.364  10.914
78591W        W38094  28.940  10.734  14.966
78592W        W38095  22.686  38.039   2.833
78593W        W38096  21.633  14.835  11.866
78594W        W38097  29.935  42.319   4.781
78595W        W38098   2.765   0.292   0.959
78596W        W38099  28.589  43.341   0.956
78597W        W38100  37.020  16.101   2.410
78598W        W38101  13.165  16.155  12.943
78599W        W38102  33.386   1.329  10.508
78600W        W38103  27.504  27.941  11.404
78601W        W38104  24.027  25.637  12.355
78602W        W38105  17.800  39.481   3.280
78603W        W38106   1.319   2.457   1.750
78604W        W38107  41.333  30.994   2.209
78605W        W38108  13.610  13.721   2.709
78606W        W38109  29.949  41.792   4.325
78607W        W38110   6.399  28.156   2.354
78608W        W38111  19.209  31.964   0.473
78609W        W38112  31.998  14.760  13.328
78610W        W38113  44.451   2.833  12.994
78611W        W38114  39.993   7.841   2.203
78612W        W38115  15.206  13.807  13.032
78613W        W38116   1.451  39.869   3.730
78614W        W38117  32.098  17.108  14.912
78615W        W38118   1.898  35.108  13.845
78616W        W38119  25.703  34.475   1.875
78617W        W38120  18.788  32.534   2.826
78618W        W38121   8.697  22.179   0.960
78619W        W38122  24.119  15.204  12.504
78620W        W38123  38.972  12.199  12.444
78621W        W38124  21.190  18.701  10.926
78622W        W38125  41.010  10.303  12.527
78623W        W38126  20.181  26.601   3.253
78624W        W38127  18.754  10.780   4.613
78625W        W38128  36.943  34.923   0.737
78626W        W38129  24.228  29.176   0.306
78627W        W38130  23.595  22.552   3.761
78628W        W38131  19.086  43.347   3.261
78629W        W38132  39.467  34.875   0.420
78630W        W38133  13.272  31.556  12.032
78631W        W38134  43.278  40.340   1.932
78632W        W38135   7.398  37.961   4.161
78633W        W38136  29.661  19.269  14.939
78634W        W38137  25.987   8.719   1.262
78635W        W38138  28.031  33.919  11.574
78636W        W38139  30.423   1.919   3.777
78637W        W38140  22.591  21.693   3.218
78638W        W38141  21.122  17.575   4.124
78639W        W38142  16.572  17.775  10.579
78640W        W38143  16.803  37.896   3.289
78641W        W38144  40.516  41.292  10.952
78642W        W38145   9.275  21.632  10.420
78643W        W38146  13.657  22.244   0.434
78644W        W38147   9.786  13.244   2.261
78645W        W38148  22.598  22.557  11.452
78646W        W38149  44.494  27.550  10.018
78647W        W38150  36.976  36.988  12.508
78648W        W38151  44.824  36.032  13.354
78649W        W38152  12.328  30.995   1.244
78650W        W38153  35.971  30.503  11.111
78651W        W38154  33.545  18.643   1.247
78652W        W38155  33.617  36.427  12.079
78653W        W38156   4.428  35.084   3.201
78654W        W38157  15.661  38.357   1.308
78655W        W38158   7.803  25.122   3.169
78656W        W38159   0.480  18.207   0.836
78657W        W38160  39.335  37.373  10.951
78658W        W38161  29.072  15.585   9.613
78659W        W38162   9.385  18.674   5.277
78660W        W38163  33.914  22.156   0.777
78661W        W38164   6.184  20.673   1.884
78662W        W38165  12.780  27.038  12.012
78663W        W38166  12.336  24.669  11.063
78664W        W38167  20.549  30.930   0.278
78665W        W38168  24.116  12.763  12.389
78666W        W38169  36.526  28.538  13.348
78667W        W38170  33.382  15.623   4.286
78668W        W38171  26.981  32.084  11.609
78669W        W38172  28.577  42.884   1.783
78670W        W38173  42.779  12.358   0.259
78671W        W38174   9.779   3.322   4.276
78672W        W38175  21.744  19.569  13.930
78673W        W38176   9.361   1.388  10.928
78674W        W38177  29.104  26.090   1.897
78675W        W38178  28.969   3.308  10.613
78676W        W38179  16.690  40.923  11.399
78677W        W38180  41.921  12.610  14.347
78678W        W38181  34.959  30.532  10.959
78679W        W38182  15.288  32.940  10.908
78680W        W38183   8.328  18.580  14.856
78681W        W38184  44.773  19.567  14.889
78682W        W38185  38.493  39.058  13.487
78683W        W38186   9.391  31.930   1.725
78684W        W38187   5.264  21.049   1.235
78685W        W38188  32.891  22.048   3.288
78686W        W38189  32.560  17.156  13.492
78687W        W38190  26.183  15.304   1.861
78688W        W38191  40.413  35.429   3.690
78689W        W38192  22.087   4.869  13.965
78690W        W38193  14.697  17.247   1.431
78691W        W38194  27.608  42.826  11.476
78692W        W38195  36.482  38.900  14.924
78693W        W38196  40.886  15.785  10.421
78694W        W38197  19.558  26.199   0.386
78695W        W38198  26.178  17.718  11.863
78696W        W38199   3.308   8.224   2.286
78697W        W38200  30.559  22.227  14.476
78698W        W38201  38.930  30.568  10.578
78699W        W38202  31.963   6.328  14.474
78700W        W38203  21.697  15.646  11.505
78701W        W38204   4.829  32.136  13.444
78702W        W38205  40.444  38.946  14.947
78703W        W38206  14.266  39.382   3.228
78704W        W38207  44.777  12.234  11.040
78705W        W38208  35.426  37.867  10.636
78706W        W38209  17.569   4.411  11.543
78707W        W38210  10.273  37.049  13.424
78708W        W38211  21.088  22.590   3.745
78709W        W38212  24.497   1.436  11.975
78710W        W38213  15.292  42.818   0.252
78711W        W38214  39.350   0.339  11.451
78712W        W38215  28.133  20.101  12.017
78713W        W38216  20.154  40.822   4.619
78714W        W38217  12.269   4.791  12.991
78715W        W38218  43.811  12.770   4.622
78716W        W38219  39.499   0.448   4.124
78717W        W38220  37.048  27.594   2.830
78718W        W38221  15.734   3.824  11.405
78719W        W38222  29.668  40.909  14.292
78720W        W38223  23.141  10.285  12.433
78721W        W38224  12.656  32.533  12.394
78722W        W38225  41.504   0.911   3.726
78723W        W38226  31.137  16.737   0.899
78724W        W38227   0.826  38.945  11.892
78725W        W38228  28.630  30.042  10.949
78726W        W38229  42.527  31.073  11.410
78727W        W38230   5.241  22.242  13.363
78728W        W38231   8.866   4.773   0.752
78729W        W38232   9.707  33.915  12.425
78730W        W38233  33.996  41.406   5.083
78731W        W38234   9.349  33.111  10.492
78732W        W38235   5.929   2.878   3.294
78733W        W38236  22.657   7.748  12.985
78734W        W38237  41.377  26.114   3.378
78735W        W38238  44.775   4.266  10.561
78736W        W38239  14.776  19.046  11.072
78737W        W38240  43.375  17.792  11.053
78738W        W38241  25.647  17.584   3.691
78739W        W38242  33.009  14.308   4.735
78740W        W38243  21.545  19.046   1.721
78741W        W38244  32.945   5.318  12.919
78742W        W38245  36.401  22.165  12.026
78743W        W38246  34.389  22.695  10.568
78744W        W38247  15.229  15.655   3.358
78745W        W38248  32.558   3.229  12.553
78746W        W38249  23.123  33.965  14.297
78747W        W38250  14.747  30.996  14.003
78748W        W38251   3.807  34.589   3.822
78749W        W38252  19.699   6.421   5.103
78750W        W38253   3.788  38.074   4.324
78751W        W38254  37.473   9.157   4.670
78752W        W38255  31.984  39.430   0.265
78753W        W38256  26.584  40.934  10.949
78754W        W38257  22.579  13.658   2.238
78755W        W38258  29.616  41.911   3.853
78756W        W38259  43.878  21.754  14.296
78757W        W38260  35.892  27.460   3.264
78758W        W38261   8.209  11.723   3.171
78759W        W38262  18.119  34.878  13.906
78760W        W38263  19.680  27.121  11.053
78761W        W38264  19.776  17.183  11.551
78762W        W38265  43.442  31.448   3.677
78763W        W38266  37.941  12.338   4.630
78764W        W38267  14.634  36.352   2.375
78765W        W38268  30.641  13.697   0.943
78766W        W38269   6.289  31.013  13.372
78767W        W38270  19.175  25.474  13.520
78768W        W38271  26.600  32.606   1.766
78769W        W38272  37.042  33.411  12.362
78770W        W38273  33.103  31.557   4.601
78771W        W38274  14.763  10.871   1.336
78772W        W38275   8.386  37.578   3.205
78773W        W38276   7.872  44.943   3.380
78774W        W38277  10.203  43.799   0.343
78775W        W38278  31.949  29.474  14.001
78776W        W38279   0.749  33.603  10.534
78777W        W38280  32.393   5.841   4.220
78778W        W38281  31.044   7.899   1.899
78779W        W38282   0.401  40.532   4.133
78780W        W38283   7.190  27.488  10.508
78781W        W38284   4.936  15.620  13.830
78782W        W38285  20.202   9.149   3.631
78783W        W38286   0.913  19.252   2.290
78784W        W38287  40.407  12.156  11.104
78785W        W38288  20.745  13.613  14.374
78786W        W38289  39.347  20.177  14.815
78787W        W38290  19.562  41.402  10.961
78788W        W38291  23.020  42.333  10.969
78789W        W38292  38.535  36.928   3.649
78790W        W38293  20.149   7.734  12.880
78791W        W38294  34.958  35.566  14.492
78792W        W38295  39.983   1.403  13.452
78793W        W38296  36.522  17.758  12.470
78794W        W38297  15.161  31.984   1.748
78795W        W38298   9.266   8.309   1.864
78796W        W38299  42.466  16.670  11.494
78797W        W38300  29.078  29.434  14.504
78798W        W38301  12.787  19.694  13.022
78799W        W38302  18.680  42.836   3.255
78800W        W38303  30.518  31.623   0.306
78801W        W38304  21.524  44.841   0.274
78802W        W38305  20.567  30.067  14.277
78803W        W38306  27.626  17.260  14.962
78804W        W38307   7.277  20.198  14.861
78805W        W38308  40.974  12.637  12.465
78806W        W38309  44.364  30.146   4.808
78807W        W38310  44.863  33.541   4.660
78808W        W38311  23.506  18.253   4.600
78809W        W38312  44.439  16.722  12.862
78810W        W38313   3.936  39.991   1.925
78811W        W38314  11.672  38.822   3.282
78812W        W38315  23.013  42.940   3.856
78813W        W38316  11.320   0.440   3.676
78814W        W38317  24.702  19.272   1.785
78815W        W38318  31.476  19.548  11.991
78816W        W38319  18.073  38.070  12.520
78817W        W38320  26.679  12.792   0.728
78818W        W38321  23.614   8.243  14.818
78819W        W38322  44.337   4.340  11.982
78820W        W38323   6.213  17.158   4.127
78821W        W38324  36.364  20.063  14.925
78822W        W38325  35.997   2.368  14.776
78823W        W38326   7.793  44.499   3.185
78824W        W38327  25.633  31.428   0.379
78825W        W38328  17.623   4.302   4.656
78826W        W38329  18.154  30.462  14.955
78827W        W38330  27.447  43.895  12.998
78828W        W38331  41.850  44.362   2.288
78829W        W38332   7.806  38.997   3.637
78830W        W38333  18.107   4.879  13.325
78831W        W38334   1.450  23.674   3.755
78832W        W38335  39.956  30.907  12.544
78833W        W38336  19.757  10.176   3.349
78834W        W38337   2.793  16.745   4.714
78835W        W38338  34.543  18.058  10.418
78836W        W38339  38.906  28.455  13.928
78837W        W38340  33.594  18.129  11.391
78838W        W38341   9.674  17.083  12.527
78839W        W38342  29.437  41.892  11.461
78840W        W38343  11.268  38.862   0.260
78841W        W38344  10.304  17.160  14.786
78842W        W38345  18.188  37.428  10.911
78843W        W38346  22.614  23.661   1.436
78844W        W38347  25.666  42.916   4.328
78845W        W38348  16.097  28.127   2.370
78846W        W38349  17.222   5.914   1.778
78847W        W38350  10.252  13.262  11.610
78848W        W38351  30.998  40.493  13.843
78849W        W38352   7.831   7.690  14.856
78850W        W38353   5.739  35.961   2.292
78851W        W38354  34.531  31.449  11.011
78852W        W38355  39.978  16.575  10.491
78853W        W38356  12.719  37.000   1.924
78854W        W38357  27.653  27.022   1.811
78855W        W38358   1.878   6.426  14.940
78856W        W38359  23.082  19.232   2.709
78857W        W38360   2.955  21.617   2.261
78858W        W38361   6.712   0.479   3.732
78859W        W38362  42.784  37.019   4.673
78860W        W38363  44.420  38.385  14.280
78861W        W38364  36.041  22.154   3.330
78862W        W38365  35.966   4.755   4.194
78863W        W38366   8.851  18.615   3.345
78864W        W38367  13.841   1.920  13.384
78865W        W38368  16.163  23.239  12.392
78866W        W38369   4.845  43.480  12.964
78867W        W38370  36.092  16.157   1.819
78868W        W38371  11.851  19.278  14.347
78869W        W38372  40.856   3.339  10.607
78870W        W38373  13.707  13.763  12.023
78871W        W38374  44.411  14.097  12.983
78872W        W38375  19.623  43.300  10.625
78873W        W38376   4.730  31.094   4.681
78874W        W38377  15.322   0.409  10.556
78875W        W38378  20.725  15.655  12.501
78876W        W38379  12.343  13.125   1.237
78877W        W38380  11.175  26.137  12.074
78878W        W38381  44.467  15.786   1.257
78879W        W38382  40.361  22.606  12.930
78880W        W38383   2.877  21.219   0.359
78881W        W38384   6.920  21.634   1.317
78882W        W38385  14.825  18.655   2.834
78883W        W38386  13.191  44.851  11.007
78884W        W38387   7.281  11.630  11.412
78885W        W38388  12.654   1.277  12.020
78886W        W38389  28.102  42.016  11.434
78887W        W38390  42.009  26.535  12.973
78888W        W38391  43.447   8.319   3.685
78889W        W38392  12.361  38.458  14.774
78890W        W38393  19.736  20.718   0.257
78891W        W38394  30.107  23.026   0.946
78892W        W38395   4.449  42.956   3.345
78893W        W38396  18.658   8.842   4.827
78894W        W38397  34.413   3.717   3.307
78895W        W38398   3.740  30.019  14.931
78896W        W38399  33.027  31.631  13.416
78897W        W38400  25.140  43.341  13.019
78898W        W38401   8.828  36.455   1.767
78899W        W38402  24.643   0.909  14.842
78900W        W38403  37.905  22.145  12.535
78901W        W38404  33.897   3.756  11.535
78902W        W38405  32.540  32.555  13.055
78903W        W38406   1.438  34.962  10.482
78904W        W38407  39.808  22.570  11.068
78905W        W38408  30.463   7.838  14.769
78906W        W38409  14.326  13.325   1.841
78907W        W38410  20.539  30.493  11.564
78908W        W38411  25.125  34.469   3.646
78909W        W38412   9.222  20.523  12.045
78910W        W38413  19.261  41.366  13.896
78911W        W38414  24.101  42.315  10.618
78912W        W38415   2.368  28.037   0.874
78913W        W38416  28.965   2.245  13.545
78914W        W38417  21.103  18.125   0.266
78915W        W38418  10.223  31.066  13.792
78916W        W38419  19.770   1.422  14.767
78917W        W38420  13.617  26.533   2.297
78918W        W38421  19.597   0.323  14.022
78919W        W38422  42.843   8.823   1.232
78920W        W38423  24.539   9.708  12.829
78921W        W38424  15.726  22.564   4.331
78922W        W38425  40.415  29.072  12.508
78923W        W38426  10.823   7.893   3.228
78924W        W38427  31.080  16.213  11.461
78925W        W38428   6.821  25.219  13.948
78926W        W38429  37.037  35.489  10.644
78927W        W38430  33.126  19.266   2.870
78928W        W38431   0.893  27.563   2.853
78929W        W38432  14.803   5.321   4.292
78930W        W38433   9.392  37.951   2.274
78931W        W38434  38.873   9.266   2.251
78932W        W38435  16.150   8.788  12.974
78933W        W38436  37.360  11.283   2.226
78934W        W38437  29.986  25.140   1.824
78935W        W38438   7.784   6.762   1.889
78936W        W38439  28.677   4.814   1.917
78937W        W38440  39.839  38.892  14.002
78938W        W38441   4.776  40.049   4.299
78939W        W38442   9.196   0.825   0.332
78940W        W38443  41.827  12.245  10.972
78941W        W38444  41.955  34.471  14.824
78942W        W38445   6.923  19.242  12.402
78943W        W38446  10.241   8.255   3.293
78944W        W38447  39.026  35.488   1.897
78945W        W38448  42.390  14.339   2.900
78946W        W38449  39.349   6.695  12.513
78947W        W38450  44.488   0.783  12.560
78948W        W38451  42.019  19.131  11.066
78949W        W38452  16.722  42.389  14.304
78950W        W38453   8.718  28.996   0.782
78951W        W38454  33.886  10.854   2.201
78952W        W38455  15.322  37.357   1.365
78953W        W38456  33.992  25.527   3.674
78954W        W38457  39.433  39.988   0.900
78955W        W38458  14.706  32.577   0.357
78956W        W38459  13.158  27.122  11.047
78957W        W38460   1.879  16.755   2.872
78958W        W38461  40.521  24.187   3.287
78959W        W38462   8.870  41.315   0.867
78960W        W38463  29.636  37.562   1.420
78961W        W38464  24.656  40.466  10.950
78962W        W38465   7.265  15.638  13.460
78963W        W38466  36.381  25.679  13.316
78964W        W38467  38.365  35.082  14.483
78965W        W38468  33.072  38.922  13.901
78966W        W38469   8.699   3.419   0.872
78967W        W38470  37.421  23.177   4.779
78968W        W38471   1.252  25.661  14.913
78969W        W38472  14.141  20.195  12.838
78970W        W38473  17.674   2.944   3.232
78971W        W38474  24.172  29.136  14.500
78972W        W38475   1.240  27.186   2.416
78973W        W38476  24.998  10.768   3.673
78974W        W38477   4.904  26.159  12.402
78975W        W38478   9.860   0.386  13.477
78976W        W38479  15.276  11.844   4.142
78977W        W38480  32.610  10.305   0.759
78978W        W38481  11.224   1.347   2.840
78979W        W38482  31.407  39.531   3.180
78980W        W38483  38.502  12.157  14.329
78981W        W38484  40.546  27.146   0.939
78982W        W38485   7.843  28.554   3.740
78983W        W38486   6.340  37.436   0.365
78984W        W38487  25.664  29.593   1.796
78985W        W38488  42.779   3.949  12.535
78986W        W38489  41.926  11.776  11.916
78987W        W38490   5.923   4.870   3.863
78988W        W38491  18.740  13.768   0.922
78989W        W38492   8.828   9.823   0.917
78990W        W38493  38.948  18.134  10.939
78991W        W38494  44.784  16.689  11.957
78992W        W38495  31.962   1.759  10.581
78993W        W38496  39.965   9.856  14.808
78994W        W38497  38.076  38.533   3.791
78995W        W38498   5.286  21.022   1.895
78996W        W38499  34.449  29.035   3.784
78997W        W38500   3.907  24.633   0.272
78998W        W38501  24.132   6.285   2.785
78999W        W38502  12.815  20.054  14.364
79000W        W38503  21.755  36.502   4.618
79001W        W38504  36.876  24.718  13.521
79002W        W38505  44.296  21.655   1.757
79003W        W38506  41.790  10.140   4.758
79004W        W38507  16.237  26.064  13.356
79005W        W38508  26.517  11.217  11.487
79006W        W38509  32.100  40.899  10.984
79007W        W38510  22.513   5.245   0.825
79008W        W38511  15.090  41.818  10.480
79009W        W38512  15.693  27.470   0.317
79010W        W38513  23.588   4.374   3.766
79011W        W38514  12.735   4.342  14.374
79012W        W38515  26.672  22.085  13.863
79013W        W38516  18.646  19.633  12.064
79014W        W38517  10.271   0.254  11.886
79015W        W38518  21.228  16.081   4.756
79016W        W38519   1.266  23.716  12.959
79017W        W38520   4.391  31.609  13.062
79018W        W38521  44.504  20.028   9.521
79019W        W38522  42.283  10.867  14.862
79020W        W38523  41.952   0.367  11.543
79021W        W38524  43.891   6.365  11.422
79022W        W38525  41.293  31.923   2.240
79023W        W38526   1.381  39.847   3.181
79024W        W38527  37.831   3.778  14.870
79025W        W38528   1.752  15.788  12.899
79026W        W38529  18.710  23.501   1.809
79027W        W38530  40.052   7.323  12.572
79028W        W38531  16.696  25.204  11.600
79029W        W38532   9.209   1.288   4.314
79030W        W38533  13.754  27.041   1.235
79031W        W38534   4.420  41.000  11.564
79032W        W38535  32.991  25.049  11.881
79033W        W38536  26.158  39.813  14.446
79034W        W38537  15.644  19.722   1.280
79035W        W38538  18.612  20.103  11.459
79036W        W38539   9.688  16.704   4.660
79037W        W38540   3.888  35.599  11.061
79038W        W38541  20.593  10.217  12.010
79039W        W38542  20.164   1.366   1.340
79040W        W38543  14.173   3.877   3.289
79041W        W38544   0.959  25.704  12.089
79042W        W38545  30.618  39.472  11.600
79043W        W38546  26.077  16.806   1.815
79044W        W38547  30.455  35.872   1.716
79045W        W38548   6.335   0.422  10.630
79046W        W38549  44.437  44.321   1.266
79047W        W38550   1.748  40.485  12.374
79048W        W38551  20.237  34.030   3.355
79049W        W38552   8.301  33.434  14.918
79050W        W38553  39.844   5.745   2.263
79051W        W38554  18.639   4.403  12.054
79052W        W38555  28.537  13.791  10.450
79053W        W38556  13.318  37.877  14.962
79054W        W38557   3.734  37.446   1.233
79055W        W38558   9.230  27.561  11.581
79056W        W38559  14.193  13.783  12.856
79057W        W38560  17.794   9.255  14.962
79058W        W38561  27.541  19.661   4.293
79059W        W38562  18.755   1.419  11.590
79060W        W38563  26.695  16.271   0.926
79061W        W38564  41.856  27.496  14.896
79062W        W38565  24.624   9.858  12.076
79063W        W38566  27.448  27.081   3.710
79064W        W38567  20.564   9.722  10.636
79065W        W38568  31.998  34.455  12.974
79066W        W38569   3.711   7.341  11.443
79067W        W38570  19.719   3.306   3.379
79068W        W38571  14.733  41.913  12.912
79069W        W38572   8.391  41.948   4.700
79070W        W38573  17.172  33.964   1.359
79071W        W38574  28.013  29.647   4.152
79072W        W38575  32.121  30.054  11.564
79073W        W38576  31.105  12.161   1.873
79074W        W38577   4.426  32.572   4.640
79075W        W38578  43.952  27.030  14.428
79076W        W38579  25.505   5.250  13.010
79077W        W38580  15.661  44.852   3.354
79078W        W38581  17.763  13.616   3.809
79079W        W38582  38.955  12.362  11.377
79080W        W38583  35.888  13.247   3.240
79081W        W38584  24.024  21.541   3.263
79082W        W38585  28.440   2.746   4.150
79083W        W38586  17.204  30.002   2.845
79084W        W38587  11.369  40.945  13.010
79085W        W38588  10.844  30.483  11.988
79086W        W38589  31.978  33.980   5.241
79087W        W38590  20.637   1.824   0.911
79088W        W38591  22.194  21.206   0.290
79089W        W38592  29.034  23.100  12.385
79090W        W38593  28.607  36.893   0.243
79091W        W38594  38.939  15.615   5.117
79092W        W38595  32.006  10.230   3.851
79093W        W38596  27.570   7.827   2.402
79094W        W38597  18.668  24.167  11.935
79095W        W38598  12.356  28.970   0.265
79096W        W38599  36.516  14.773  12.912
79097W        W38600  24.661  35.592  12.868
79098W        W38601  42.456  25.095   4.292
79099W        W38602  26.136  18.249  11.996
79100W        W38603  23.217  22.199   4.196
79101W        W38604  34.910  34.866  13.953
79102W        W38605  24.614  31.471   4.163
79103W        W38606  41.964  34.580   4.768
79104W        W38607  15.819  16.075  14.453
79105W        W38608  13.159  22.244   0.269
79106W        W38609  26.039   6.280   3.749
79107W        W38610  15.577   2.965  14.329
79108W        W38611  13.820  39.476   3.312
79109W        W38612  12.643  36.895  11.546
79110W        W38613  12.643  33.388   2.341
79111W        W38614   2.365  14.613   1.817
79112W        W38615   6.706  43.784   1.864
79113W        W38616   4.729  18.714   2.409
79114W        W38617  32.445  14.634  12.927
79115W        W38618  19.746  18.571  12.409
79116W        W38619  11.128  43.860  14.341
79117W        W38620  37.867  27.032  14.787
79118W        W38621   4.786  35.045   0.783
79119W        W38622  22.670  40.054   2.347
79120W        W38623  24.079  36.489  11.581
79121W        W38624   4.802  40.992   3.223
79122W        W38625  35.443  22.700  13.052
79123W        W38626   0.434  22.682   5.115
79124W        W38627  21.640  14.146   3.191
79125W        W38628  20.580  33.970   1.720
79126W        W38629  12.697  41.316   0.904
79127W        W38630  29.592   4.777   4.249
79128W        W38631  37.442  35.542   2.320
79129W        W38632  35.926  25.136   2.679
79130W        W38633  20.069  11.184  13.885
79131W        W38634  32.138  37.082  11.558
79132W        W38635  43.308  11.142  13.467
79133W        W38636  23.619  19.267   4.643
79134W        W38637  22.147  13.615  11.535
79135W        W38638  17.788  32.100  11.883
79136W        W38639  34.482  17.745  11.526
79137W        W38640   8.339  18.777   0.788
79138W        W38641  12.241  14.649   3.655
79139W        W38642  32.074  34.395   0.297
79140W        W38643  14.691  22.182   4.781
79141W        W38644  42.808  19.239   3.171
79142W        W38645  19.670  39.018   0.474
79143W        W38646  43.883   4.815   0.886
79144W        W38647   5.218  43.276  14.413
79145W        W38648  36.078  13.689  11.400
79146W        W38649   9.314  44.782   0.749
79147W        W38650  12.334  41.396  11.893
79148W        W38651  24.683  43.918   0.820
79149W        W38652   6.268  25.077   1.893
79150W        W38653  23.713  11.205  14.421
79151W        W38654  25.216  42.984  13.872
79152W        W38655  38.521  40.319  12.858
79153W        W38656  32.119  34.447  12.449
79154W        W38657  16.795  25.027  12.985
79155W        W38658  41.481  15.126   0.286
79156W        W38659  14.606   3.724  11.094
79157W        W38660   3.301  32.518  13.964
79158W        W38661  24.533  25.196  13.031
79159W        W38662   7.874  21.754   2.701
79160W        W38663  40.032   4.841   0.813
79161W        W38664  24.037  24.216  13.429
79162W        W38665  10.766  25.976   1.701
79163W        W38666  32.625  35.586   1.789
79164W        W38667  44.270  42.868   2.902
79165W        W38668  19.725  28.599   0.927
79166W        W38669   5.196  41.952   2.838
79167W        W38670  25.140  29.459  14.303
79168W        W38671  32.473  17.584  14.770
79169W        W38672  34.049  21.684   1.891
79170W        W38673  32.597  30.021   1.394
79171W        W38674  43.283  26.039  11.112
79172W        W38675  15.669  26.145   0.447
79173W        W38676  14.622  17.784  12.933
79174W        W38677  22.123  36.017   2.662
79175W        W38678   4.309  23.705  10.463
79176W        W38679   2.468   0.805   1.868
79177W        W38680  12.203  27.000  13.018
79178W        W38681  12.635   5.264   1.314
79179W        W38682  42.499  32.992  11.941
79180W        W38683  36.486  17.121   3.741
79181W        W38684   6.680  35.438   1.326
79182W        W38685  42.877  40.875   1.318
79183W        W38686  25.188  20.262   2.233
79184W        W38687  19.651   9.319   1.890
79185W        W38688   5.345  36.434   3.223
79186W        W38689   8.277  21.743   2.226
79187W        W38690   0.359  26.062   4.307
79188W        W38691  23.057  22.568   0.351
79189W        W38692   6.427  14.323  12.072
79190W        W38693  31.078  44.439   9.978
79191W        W38694  29.942  31.031   1.372
79192W        W38695  26.070  24.591  10.430
79193W        W38696  35.035  42.293   3.289
79194W        W38697   6.357   5.394   2.227
79195W        W38698  18.261   6.189  10.541
79196W        W38699  28.435  23.002  11.479
79197W        W38700  21.585  40.948   2.849
79198W        W38701  34.874  44.396  14.303
79199W        W38702  29.928  41.806  10.939
79200W        W38703  15.753   8.311  12.431
79201W        W38704  24.517  17.685   4.795
79202W        W38705   7.685   0.250  11.894
79203W        W38706  26.463  39.046   3.187
79204W        W38707  31.421   7.355  14.830
79205W        W38708  11.765  10.359   0.957
79206W        W38709  27.094  14.661  11.942
79207W        W38710  33.392  41.856  13.906
79208W        W38711  27.036  34.437   0.900
79209W        W38712  27.992  16.747  12.087
79210W        W38713  42.491  39.998  12.945
79211W        W38714  11.315   8.694   3.642
79212W        W38715  29.551  34.553  13.836
79213W        W38716  26.646   0.459  13.337
79214W        W38717  36.849  16.184   4.114
79215W        W38718   9.373  28.609   0.962
79216W        W38719  19.665   1.849  12.892
79217W        W38720  15.725  19.220   3.342
79218W        W38721  14.178  17.717   0.446
79219W        W38722  38.832   7.755  13.421
79220W        W38723  38.971  24.679  11.926
79221W        W38724  12.805  25.033  13.544
79222W        W38725   5.789  36.892   0.816
79223W        W38726  24.090  30.038  11.106
79224W        W38727  23.133  35.860  10.527
79225W        W38728   2.272  15.620  12.432
79226W        W38729   6.422  19.174  13.480
79227W        W38730  10.827  30.604  13.916
79228W        W38731   1.968  44.818   0.921
79229W        W38732  32.501  17.235   1.871
79230W        W38733   0.252   3.933   1.412
79231W        W38734  19.567  16.708  12.551
79232W        W38735  14.798  32.927   1.889
79233W        W38736  36.480  24.135  14.441
79234W        W38737  33.623  38.566   2.264
79235W        W38738  15.127   1.460  13.450
79236W        W38739  38.504   4.448  10.094
79237W        W38740  24.118   8.849   5.241
79238W        W38741  32.536   0.768   4.204
79239W        W38742  20.603   5.240   1.876
79240W        W38743  15.606  40.313  14.873
79241W        W38744   7.287  11.681  10.448
79242W        W38745  27.451  32.438   4.654
79243W        W38746   6.870  26.180  14.445
79244W        W38747  19.597  44.958   0.304
79245W        W38748   2.301  22.690   2.900
79246W        W38749   4.393   3.736  10.994
79247W        W38750  32.404  12.136  10.416
79248W        W38751  28.461  34.607   3.648
79249W        W38752   1.960  33.081   2.181
79250W        W38753  27.955  27.153   4.729
79251W        W38754  43.429  25.614   0.814
79252W        W38755  13.323  41.975  14.832
79253W        W38756   4.247  40.916   3.833
79254W        W38757  32.135   4.399  14.292
79255W        W38758  28.524  19.576  10.523
79256W        W38759  23.093  41.484  11.523
79257W        W38760  12.717  37.057   2.336
79258W        W38761  25.695   3.443  13.407
79259W        W38762  19.137  14.314  12.377
79260W        W38763  29.031  11.657  13.395
79261W        W38764  43.316  21.169   3.198
79262W        W38765   2.806  19.121   5.775
79263W        W38766  27.993  29.521   1.421
79264W        W38767  11.278  30.120   3.738
79265W        W38768  16.693  22.676   4.334
79266W        W38769  22.094  42.469   4.798
79267W        W38770  17.588  22.555  10.928
79268W        W38771  40.950  16.580   1.750
79269W        W38772  27.116  24.033  12.568
79270W        W38773  11.143  12.615  11.914
79271W        W38774  37.895   0.875   0.251
79272W        W38775  15.657  30.128   0.432
79273W        W38776  36.353   6.271  11.433
79274W        W38777  37.990  40.532   4.770
79275W        W38778  40.998  31.056   2.881
79276W        W38779  39.353  13.137  13.991
79277W        W38780  14.269  40.802  12.872
79278W        W38781  20.180  10.221   0.410
79279W        W38782  14.665   8.184   2.348
79280W        W38783  41.035  30.949  11.386
79281W        W38784  33.423  12.348   0.852
79282W        W38785   6.693  33.879   2.395
79283W        W38786  15.299  40.931   0.396
79284W        W38787   1.912  25.098  11.055
79285W        W38788  26.513  23.576   3.774
79286W        W38789  38.325  40.802  12.341
79287W        W38790   1.943  33.443  10.420
79288W        W38791  27.155   0.370  10.440
79289W        W38792  30.450  37.878  14.760
79290W        W38793  33.053  12.750   1.731
79291W        W38794   4.260  43.923   2.398
79292W        W38795  12.230  23.681  13.444
79293W        W38796  17.700   4.891   4.812
79294W        W38797  38.391  16.085   0.420
79295W        W38798  20.256  38.375  14.482
79296W        W38799  14.127  42.512  13.799
79297W        W38800  16.274  44.772  12.531
79298W        W38801  35.986  27.573   1.899
79299W        W38802  40.840  25.085  11.436
79300W        W38803  28.440  20.563   1.245
79301W        W38804  27.669  14.620   4.743
79302W        W38805  31.109  10.213   3.669
79303W        W38806  34.493   3.844  10.626
79304W        W38807  15.815  27.541   3.363
79305W        W38808  10.198  30.614   1.220
79306W        W38809  36.384   9.279  11.389
79307W        W38810  44.917  11.779  14.011
79308W        W38811   0.824  44.263   5.084
79309W        W38812  29.629  34.432   4.764
79310W        W38813  34.865  15.230   1.700
79311W        W38814  19.258  41.889   2.247
79312W        W38815  38.911  12.830  14.888
79313W        W38816  17.769  28.016  12.368
79314W        W38817  19.734   3.219  14.503
79315W        W38818   0.817   5.802   1.929
79316W        W38819  15.305   3.415  14.395
79317W        W38820  10.274  44.376   1.276
79318W        W38821  14.303  26.478  14.765
79319W        W38822  14.328  30.446   2.374
79320W        W38823  44.293  44.371  12.376
79321W        W38824   3.917  30.657   0.807
79322W        W38825  43.432   2.286  13.808
79323W        W38826  28.485  37.942  11.463
79324W        W38827  30.012  44.765  13.866
79325W        W38828  29.072   9.155   2.201
79326W        W38829  10.813  25.523   1.330
79327W        W38830  16.802  37.437  14.326
79328W        W38831  17.181  21.218   2.388
79329W        W38832  34.395  15.637  12.353
79330W        W38833  37.473   5.794  12.421
79331W        W38834   2.805  41.850  13.331
79332W        W38835  28.451   1.456  14.275
79333W        W38836   1.740  12.302   1.380
79334W        W38837  20.158   5.332   2.349
79335W        W38838  25.167  20.614  11.425
79336W        W38839   9.810  20.155  13.876
79337W        W38840  19.756  23.228   4.254
79338W        W38841  32.578  33.097   2.783
79339W        W38842  30.915  24.107   4.333
79340W        W38843  34.418  21.702  11.855
79341W        W38844  26.002  27.116   2.355
79342W        W38845  28.954   4.314  11.096
79343W        W38846  30.058  13.249  13.489
79344W        W38847   9.286  21.513  13.913
79345W        W38848  23.691  36.983   3.314
79346W        W38849  30.463  19.670   4.212
79347W        W38850  39.502  25.590  14.977
79348W        W38851  32.986   0.253  13.439
79349W        W38852  13.318   0.908   1.274
79350W        W38853  22.064   3.457  12.960
79351W        W38854  16.146  34.950   3.291
79352W        W38855  42.310  35.548  12.025
79353W        W38856  34.004  29.460   3.730
79354W        W38857  10.292  16.264  10.130
79355W        W38858  28.044   6.698  11.872
79356W        W38859  19.198  30.079   1.861
79357W        W38860  28.500  26.056   0.858
79358W        W38861  20.548  43.385  13.811
79359W        W38862  43.516  22.714  11.438
79360W        W38863  38.336  44.997  14.909
79361W        W38864   8.311   3.818  12.888
79362W        W38865  34.602   8.848  10.473
79363W        W38866  29.044  23.197   0.947
79364W        W38867  35.385   2.961  12.476
79365W        W38868  38.904  33.520  10.575
79366W        W38869  40.506  38.558   4.148
79367W        W38870   7.821   4.359   2.312
79368W        W38871   7.339  21.255   1.769
79369W        W38872  21.125   6.352  12.484
79370W        W38873   9.309   3.927  14.297
79371W        W38874  21.669  24.226   0.922
79372W        W38875  36.998  22.573   0.945
79373W        W38876   5.908  21.172  14.304
79374W        W38877  26.617   7.750  13.457
79375W        W38878  33.463  29.633   2.900
79376W        W38879  28.122   9.787  13.876
79377W        W38880   4.422  22.095  13.952
79378W        W38881  15.822  30.528  14.292
79379W        W38882  19.135  27.173  10.946
79380W        W38883  16.616  13.788  13.419
79381W        W38884  17.181  23.095  12.047
79382W        W38885  35.438  15.216   2.797
79383W        W38886   3.753  13.215  12.093
79384W        W38887  10.735  24.518   0.412
79385W        W38888  41.012  42.310   2.180
79386W        W38889   8.366  33.575  14.309
79387W        W38890   2.935  15.280   2.368
79388W        W38891  11.182  34.499  13.439
79389W        W38892  10.878  35.433   3.761
79390W        W38893  13.831  31.100  13.356
79391W        W38894  30.586  12.157   4.745
79392W        W38895   7.675   7.734   1.265
79393W        W38896  20.161  16.604  13.004
79394W        W38897  10.190   9.826   4.663
79395W        W38898   0.932   5.249   4.138
79396W        W38899  32.400  29.169   3.655
79397W        W38900  10.225   1.932  13.891
79398W        W38901  28.499   1.857  11.861
79399W        W38902  36.380   6.190   3.640
79400W        W38903  28.485   6.222   2.828
79401W        W38904  31.954  16.599   3.772
79402W        W38905  23.657   2.729  14.362
79403W        W38906   3.710  39.559   2.248
79404W        W38907  20.222  40.432   2.217
79405W        W38908   2.729  42.527   2.360
79406W        W38909  27.470  13.803   1.910
79407W        W38910   8.693   7.413  11.558
79408W        W38911  25.573  11.218  10.565
79409W        W38912   4.856  30.978  13.955
79410W        W38913  39.502   5.295   3.698
79411W        W38914  35.935  25.178  12.978
79412W        W38915   6.346  13.777   4.162
79413W        W38916  10.667  15.591  12.075
79414W        W38917   1.823   1.432   2.313
79415W        W38918  15.130   4.917   0.873
79416W        W38919   3.768  10.148   3.281
79417W        W38920  43.353  25.590  14.871
79418W        W38921   7.294  30.025  13.942
79419W        W38922  39.912  25.998   4.837
79420W        W38923   7.317  36.379   3.759
79421W        W38924  40.369   0.300  13.371
79422W        W38925  25.499  17.589  11.530
79423W        W38926   3.294  19.242   4.816
79424W        W38927  17.610  41.373  12.456
79425W        W38928  32.947  12.844   4.154
79426W        W38929  18.099  15.304  10.472
79427W        W38930  42.351  36.429  13.031
79428W        W38931  10.248  35.549  13.520
79429W        W38932  30.918  27.087  12.547
79430W        W38933   8.657  31.914  11.399
79431W        W38934   6.714  42.822   0.458
79432W        W38935  12.236  21.658  11.439
79433W        W38936  37.506  10.286  11.069
79434W        W38937  31.980  33.493  12.066
79435W        W38938  43.004  16.623  14.296
79436W        W38939  12.343  26.687   1.426
79437W        W38940  17.690   0.391  12.451
79438W        W38941  33.505   3.373   5.216
79439W        W38942  13.724  43.815  11.000
79440W        W38943  34.377  44.786  13.866
79441W        W38944  41.971   0.931  12.989
79442W        W38945   1.811   3.752  14.898
79443W        W38946   4.748  24.194   3.718
79444W        W38947  32.541  43.970   0.356
79445W        W38948  26.657  13.796   5.285
79446W        W38949   9.670  33.909  11.378
79447W        W38950   2.929  29.426   2.269
79448W        W38951  11.657  10.303  13.934
79449W        W38952  35.502  29.057  11.899
79450W        W38953   5.930  20.729  10.515
79451W        W38954  24.984   6.233   1.294
79452W        W38955  28.479  32.613   0.382
79453W        W38956  40.852   7.883  14.303
79454W        W38957  11.200  15.652  10.413
79455W        W38958  26.493  32.109   3.720
79456W        W38959  42.304  19.067  12.991
79457W        W38960  29.175  33.611  14.986
79458W        W38961  40.892  24.505   1.287
79459W        W38962   0.849  26.460  14.811
79460W        W38963   4.342  28.999  12.838
79461W        W38964  14.266  26.699   5.090
79462W        W38965   1.310  23.699  12.392
79463W        W38966  33.045  34.589   5.662
79464W        W38967  17.199  18.681  11.095
79465W        W38968  39.931   0.375   0.756
79466W        W38969  28.131  12.151   4.220
79467W        W38970   9.711  11.342   3.736
79468W        W38971  31.497  12.837   3.215
79469W        W38972  10.261  15.815  14.771
79470W        W38973  12.703  30.144  11.104
79471W        W38974   3.293  30.613   3.175
79472W        W38975  12.796  22.670  11.572
79473W        W38976  11.794  39.441   1.785
79474W        W38977  23.213  18.694  10.570
79475W        W38978   6.746  23.646  14.465
79476W        W38979  18.584   7.756   3.858
79477W        W38980  26.977   6.407   2.866
79478W        W38981  29.654  10.651  14.784
79479W        W38982  24.163   5.380  10.552
79480W        W38983  16.812  22.099   2.319
79481W        W38984  37.391  25.002  13.858
79482W        W38985   4.876  23.689   4.354
79483W        W38986  23.194   0.957  12.060
79484W        W38987  25.519  13.143  10.515
79485W        W38988  31.426  14.642  14.503
79486W        W38989  20.088  23.154   2.302
79487W        W38990  39.351   0.941  14.402
79488W        W38991  19.563  36.518  13.850
79489W        W38992   6.212   9.188   4.325
79490W        W38993  44.756  30.570   0.827
79491W        W38994  37.836  11.771   0.464
79492W        W38995  35.958  12.279  13.887
79493W        W38996  24.073  35.948  13.975
79494W        W38997  33.446  33.521  12.436
79495W        W38998   3.953  44.289   2.310
79496W        W38999  31.953   4.400   4.275
79497W        W39000  32.561  43.014  10.540
79498W        W39001  29.168   1.864  12.556
79499W        W39002  33.426  34.919  14.466
79500W        W39003  40.326  13.112  10.414
79501W        W39004  35.092   5.205  14.982
79502W        W39005  35.057  24.658   3.735
79503W        W39006  36.502  32.940  14.759
79504W        W39007  17.616  30.975   3.263
79505W        W39008   8.677  22.602  14.985
79506W        W39009  15.700   4.793   2.279
79507W        W39010   6.260  39.473  13.952
79508W        W39011  39.064  22.028  14.852
79509W        W39012  27.996  42.518  14.777
79510W        W39013  24.098  38.020  12.454
79511W        W39014  33.420  19.627  11.486
79512W        W39015  30.926  25.051   4.347
79513W        W39016  43.874  37.447   3.655
79514W        W39017   7.737  17.216  11.925
79515W        W39018  12.626   0.288  10.996
79516W        W39019  21.237   4.938   1.805
79517W        W39020  44.894  17.751   0.797
79518W        W39021  29.534  38.869   3.706
79519W        W39022  11.734  25.585  13.031
79520W        W39023  42.492  18.099   0.481
79521W        W39024  26.028  43.958  12.028
79522W        W39025  18.761  22.186  13.924
79523W        W39026  36.888   5.280   3.309
79524W        W39027  33.026  30.453  10.614
79525W        W39028  30.485  14.590  10.406
79526W        W39029  35.429  18.574  10.970
79527W        W39030  22.215  37.403  13.947
79528W        W39031  14.303   7.738  13.882
79529W        W39032  43.942   0.955   0.337
79530W        W39033  44.281  18.101   9.494
79531W        W39034  20.268  11.819  11.510
79532W        W39035  19.734  32.078   3.714
79533W        W39036  18.657  41.371   2.384
79534W        W39037  21.666  38.449  11.488
79535W        W39038  31.520  41.454   0.383
79536W        W39039   0.367  33.410  12.044
79537W        W39040  20.185   8.838  14.825
79538W        W39041  42.417  35.064   3.215
79539W        W39042  15.123   7.363   0.792
79540W        W39043  40.479   5.204  13.839
79541W        W39044  27.166  24.624  14.502
79542W        W39045  42.511  31.043   4.620
79543W        W39046  28.981  37.415   3.721
79544W        W39047  12.357  37.992  11.906
79545W        W39048   8.818  35.094  13.809
79546W        W39049  16.760  18.058  11.076
79547W        W39050  36.912   5.347   1.792
79548W        W39051   4.807  11.216  12.501
79549W        W39052  10.372  22.594   3.177
79550W        W39053  25.653  39.516  13.008
79551W        W39054  16.222  27.500  14.023
79552W        W39055   8.687  39.973   0.832
79553W        W39056  18.183  27.567  13.976
79554W        W39057  10.312  33.936   1.259
79555W        W39058  24.209   2.895   5.695
79556W        W39059   0.247  21.714  14.942
79557W        W39060  14.126  27.019   1.342
79558W        W39061  21.658   7.671  13.828
79559W        W39062  28.606  38.077  12.449
79560W        W39063  10.155  36.442   4.298
79561W        W39064  15.141  31.429  13.815
79562W        W39065  28.557  37.485   3.673
79563W        W39066  31.047  24.183   2.205
79564W        W39067  22.107  24.116   1.387
79565W        W39068  24.088   1.242   9.474
79566W        W39069   7.748  38.418   0.328
79567W        W39070   5.888  10.188   2.185
79568W        W39071  27.120  32.548   2.728
79569W        W39072   3.915  23.105   1.760
79570W        W39073  27.465  22.665   2.243
79571W        W39074  42.467  11.184  14.856
79572W        W39075  36.060  42.480   2.304
79573W        W39076  39.329   1.368   2.779
79574W        W39077  21.542  14.139   4.313
79575W        W39078  42.351  31.642  14.983
79576W        W39079  42.314  41.020  13.368
79577W        W39080   3.331   5.204   4.155
79578W        W39081  28.593  15.607   1.405
79579W        W39082  42.906   7.363  12.369
79580W        W39083  10.641  24.089   3.668
79581W        W39084   1.375   3.931  10.906
79582W        W39085   7.824   6.185   1.739
79583W        W39086   4.260   0.897  11.932
79584W        W39087  33.443  42.311  11.954
79585W        W39088   4.381  41.036   1.841
79586W        W39089   9.660  29.029   0.301
79587W        W39090  40.852  27.468  12.342
79588W        W39091  14.302  36.896   0.385
79589W        W39092   0.810   1.749   4.753
79590W        W39093   4.371  14.818   4.743
79591W        W39094   6.188   8.296   3.154
79592W        W39095  43.415  25.543   1.905
79593W        W39096  39.379   8.228  11.109
79594W        W39097  44.354  33.966  13.048
79595W        W39098   9.799  15.299  11.879
79596W        W39099   8.353  16.629   4.642
79597W        W39100  23.141  40.015   2.689
79598W        W39101  42.896  12.610  11.079
79599W        W39102  11.820  39.886   2.329
79600W        W39103  26.499  12.263  11.040
79601W        W39104   6.265  35.587  12.882
79602W        W39105  11.635   1.948   2.337
79603W        W39106  38.019  24.717  14.311
79604W        W39107  24.045  36.374   4.779
79605W        W39108   6.889  32.004   4.309
79606W        W39109  26.028   2.264   0.447
79607W        W39110  28.664  14.185  11.875
79608W        W39111  28.615  41.503  13.960
79609W        W39112  33.988  42.516   0.770
79610W        W39113  32.433  27.960   4.331
79611W        W39114  41.893  40.934  10.627
79612W        W39115  29.939  33.106   4.810
79613W        W39116  11.262  13.732   2.249
79614W        W39117  34.003  13.795   2.777
79615W        W39118   0.474  17.293   1.764
79616W        W39119   1.423  16.797   0.431
79617W        W39120  38.532  25.116  10.538
79618W        W39121   1.413  15.199  11.378
79619W        W39122  35.494  16.213  14.845
79620W        W39123  43.828  12.847   3.754
79621W        W39124  29.608   2.946   1.410
79622W        W39125  42.981   7.250   0.441
79623W        W39126  37.031  19.622   3.183
79624W        W39127  34.947   5.836  12.852
79625W        W39128  44.966  30.493   2.677
79626W        W39129  34.602  27.042   0.956
79627W        W39130   0.367  41.524  13.389
79628W        W39131  38.015  22.056  10.535
79629W        W39132  35.599  37.580  14.387
79630W        W39133  17.785  37.893   4.145
79631W        W39134  10.193   1.858   1.881
79632W        W39135  38.842  17.695   4.724
79633W        W39136  37.579   3.809   2.664
79634W        W39137  26.083  23.693  11.912
79635W        W39138  38.403  10.827  10.600
79636W        W39139   2.940   1.269  10.922
79637W        W39140  37.940  36.093  12.343
79638W        W39141  40.936  18.603   1.262
79639W        W39142  16.793  39.849   4.639
79640W        W39143  20.697   6.759  13.803
79641W        W39144  14.700  16.112  10.926
79642W        W39145  17.115   6.415  12.060
79643W        W39146  34.386   9.869   2.371
79644W        W39147  34.529  42.328   1.733
79645W        W39148  43.844  44.904  11.926
79646W        W39149  22.593  29.001  13.875
79647W        W39150  39.367  28.585   3.273
79648W        W39151  36.030  11.242  11.486
79649W        W39152  35.878   3.794   2.199
79650W        W39153  41.957  41.347  12.375
79651W        W39154  41.311  32.916  12.050
79652W        W39155  33.467  18.148  14.795
79653W        W39156  14.144  43.287  11.984
79654W        W39157  44.384  43.827  14.490
79655W        W39158  19.051  37.888  13.505
79656W        W39159  30.971  44.362   1.369
79657W        W39160  36.897  43.842  14.004
79658W        W39161  20.158  28.182  14.401
79659W        W39162  31.590  24.991   3.709
79660W        W39163  44.784   2.783  11.395
79661W        W39164  42.512  27.165   3.183
79662W        W39165  17.306  41.522   4.807
79663W        W39166  31.007  28.043   1.786
79664W        W39167   7.292  34.120   1.855
79665W        W39168   3.375  18.714  11.610
79666W        W39169   3.780  44.454  12.873
79667W        W39170  11.816  30.058   3.337
79668W        W39171  23.555  20.053  12.436
79669W        W39172   4.766  18.605  10.458
79670W        W39173  25.537  16.589   0.446
79671W        W39174  24.716  15.630   0.834
79672W        W39175  20.211  41.787  11.536
79673W        W39176   9.375  15.766  14.972
79674W        W39177  35.988  42.305   0.802
79675W        W39178   7.738  33.106   2.820
79676W        W39179   7.332  31.603  13.508
79677W        W39180  35.532  31.045   2.270
79678W        W39181  26.601  21.125   3.855
79679W        W39182  29.993  13.636   0.934
79680W        W39183  36.354  36.868   3.838
79681W        W39184  11.671   0.879   4.771
79682W        W39185   9.176  23.625  14.428
79683W        W39186  11.774   0.319   0.778
79684W        W39187  25.710   0.823   2.831
79685W        W39188  42.835  26.137  14.852
79686W        W39189  17.122   3.903   3.258
79687W        W39190  42.836  32.553  12.024
79688W        W39191  14.736  34.591   2.393
79689W        W39192  12.626   7.278  11.088
79690W        W39193   2.255  31.466   5.140
79691W        W39194   1.738   6.893   3.152
79692W        W39195   4.332  13.705  14.826
79693W        W39196  10.696  24.990  11.444
79694W        W39197  21.242  22.646  12.484
79695W        W39198  26.626  37.974   1.236
79696W        W39199   6.782  29.918   4.334
79697W        W39200  33.603  38.396  11.928
79698W        W39201  38.846  33.882   2.728
79699W        W39202   8.321  32.453  10.606
79700W        W39203   0.889  13.321  13.354
79701W        W39204   1.305  34.028   3.291
79702W        W39205   4.239  15.712  14.380
79703W        W39206  14.307  12.201  11.098
79704W        W39207  40.464  42.514  11.603
79705W        W39208  24.197  22.638   4.176
79706W        W39209  44.426  43.833   3.333
79707W        W39210   7.244  19.103  14.956
79708W        W39211  44.900  43.811   1.699
79709W        W39212  38.049  23.498   4.352
79710W        W39213  17.751  16.739  14.899
79711W        W39214  27.995  11.742   2.393
79712W        W39215  22.127  10.841  13.349
79713W        W39216  15.745  34.563  10.940
79714W        W39217  43.343  21.646  13.534
79715W        W39218  18.636  34.987   1.793
79716W        W39219  11.668  24.548  13.374
79717W        W39220  42.885  31.963  14.771
79718W        W39221  12.702  10.269   4.118
79719W        W39222  23.690   2.386  12.960
79720W        W39223  43.448  35.948  13.426
79721W        W39224   7.820  23.554   0.276
79722W        W39225  18.752  14.309   0.841
79723W        W39226  12.803  23.719   2.376
79724W        W39227  30.653   0.794   0.950
79725W        W39228  10.315  15.256  13.327
79726W        W39229  33.430  27.466   5.663
79727W        W39230  21.133   5.914   3.385
79728W        W39231  25.989  15.181   4.305
79729W        W39232  35.070  40.940   1.923
79730W        W39233  33.056  31.426   4.227
79731W        W39234  14.323  19.704  10.955
79732W        W39235   7.806   2.271   2.250
79733W        W39236  36.896  25.644   1.861
79734W        W39237   5.425  23.131   4.319
79735W        W39238   7.716  24.060   4.331
79736W        W39239  16.122  11.759   3.775
79737W        W39240  12.299  33.096   2.338
79738W        W39241  13.609  32.581  11.890
79739W        W39242  20.585  44.456  13.032
79740W        W39243   7.669  16.190   3.189
79741W        W39244   9.179   1.328   3.294
79742W        W39245  28.940  39.342  13.433
79743W        W39246  19.069  35.928  11.997
79744W        W39247   9.877   4.414   3.375
79745W        W39248   6.872  33.460  13.529
79746W        W39249  41.489  18.702  13.865
79747W        W39250  26.591  40.823   1.421
79748W        W39251  24.010  26.503  13.883
79749W        W39252  15.216  11.316   3.733
79750W        W39253  16.737  28.969   3.352
79751W        W39254  33.512  12.178   1.397
79752W        W39255  37.030   1.399  11.378
79753W        W39256  42.419   6.894   1.358
79754W        W39257  13.336   7.270   2.254
79755W        W39258   9.749   1.885   3.312
79756W        W39259   4.702  26.975   3.869
79757W        W39260  32.424  33.431  13.012
79758W        W39261  37.504  19.553  13.035
79759W        W39262   2.724   5.815  13.524
79760W        W39263  34.095  32.630   0.282
79761W        W39264  20.648  32.008  14.348
79762W        W39265  33.413  10.806  12.928
79763W        W39266  28.086  18.267  12.489
79764W        W39267  25.565  30.562  14.438
79765W        W39268  26.059  15.650   2.892
79766W        W39269  20.037   6.279   4.220
79767W        W39270  33.516   2.378  11.011
79768W        W39271  16.136  11.322   3.331
79769W        W39272   7.249   9.729  12.460
79770W        W39273  26.964  28.540  13.459
79771W        W39274  19.681  30.150   4.243
79772W        W39275  40.540  27.108  11.879
79773W        W39276   2.945  22.594  14.929
79774W        W39277  37.908  31.908  13.038
79775W        W39278  33.967  23.578  13.518
79776W        W39279  11.333   3.365  11.027
79777W        W39280  42.411   2.260   3.365
79778W        W39281  33.410   0.743  14.814
79779W        W39282   7.185  43.989  14.460
79780W        W39283  22.655   8.666   4.221
79781W        W39284  36.535  28.476  12.987
79782W        W39285  27.062  39.889   1.340
79783W        W39286  37.999   6.286  14.424
79784W        W39287  15.216  13.223  13.870
79785W        W39288   8.331  43.509  12.957
79786W        W39289   9.677  22.565   2.901
79787W        W39290  44.841  39.334  10.926
79788W        W39291  41.898  32.139  13.402
79789W        W39292   2.330  32.464  13.404
79790W        W39293  34.471  28.566  13.014
79791W        W39294  31.540  18.630   4.616
79792W        W39295  26.592  10.299  10.432
79793W        W39296  12.192  43.778   1.881
79794W        W39297   4.876  33.944   1.353
79795W        W39298  27.085  23.539  14.029
79796W        W39299  29.473  40.999   4.640
79797W        W39300  40.981  35.587   1.400
79798W        W39301  31.144  27.624   3.383
79799W        W39302   1.832  32.395  12.057
79800W        W39303   5.423   5.381  12.888
79801W        W39304  19.566   9.375   0.924
79802W        W39305  28.948  26.670   3.277
79803W        W39306   1.429   2.312  10.997
79804W        W39307  31.935   0.359   3.851
79805W        W39308  31.139  42.306  10.408
79806W        W39309  32.608  22.676   4.611
79807W        W39310  33.382  16.718  13.969
79808W        W39311  12.315   5.428   2.277
79809W        W39312   5.925  41.487  13.468
79810W        W39313   9.217  33.415  13.546
79811W        W39314  18.170  43.863  13.431
79812W        W39315   3.442  13.643  12.552
79813W        W39316  34.896  44.383  12.045
79814W        W39317  23.061  15.773   2.892
79815W        W39318   8.402  27.636   2.830
79816W        W39319  44.314  26.098  12.014
79817W        W39320  22.550  31.145   0.743
79818W        W39321   1.946  10.660   0.865
79819W        W39322  13.620  28.523  13.526
79820W        W39323  17.789  26.469   3.339
79821W        W39324   6.736  16.133  12.353
79822W        W39325  17.207   5.746   0.285
79823W        W39326  20.231  21.573   0.853
79824W        W39327  19.270   6.261   4.322
79825W        W39328  20.055  18.633  12.407
79826W        W39329  33.906   5.788   1.723
79827W        W39330  37.003  19.772   4.792
79828W        W39331  28.623   7.320   2.793
79829W        W39332  20.640   6.403   1.374
79830W        W39333  20.637  16.588   2.868
79831W        W39334   6.271  17.200   1.326
79832W        W39335  12.295  22.027   1.707
79833W        W39336  30.524  42.011  13.424
79834W        W39337   6.878   2.396  14.313
79835W        W39338  27.689  37.427  11.406
79836W        W39339  11.368  18.781   3.740
79837W        W39340  34.514  26.109   9.453
79838W        W39341  14.339   6.900  10.518
79839W        W39342  16.198  44.836  14.308
79840W        W39343  14.232  38.334  14.921
79841W        W39344  30.130  25.055  14.468
79842W        W39345  13.739  18.137   0.887
79843W        W39346   6.912  10.231  13.384
79844W        W39347  19.708  22.249   3.196
79845W        W39348  37.549  32.928   4.245
79846W        W39349   4.882  18.633   3.226
79847W        W39350  26.560   3.825   4.268
79848W        W39351   9.231  21.243  11.533
79849W        W39352  17.714  21.210  10.472
79850W        W39353  10.836  18.273  11.038
79851W        W39354  18.080  41.959   1.281
79852W        W39355  19.270  44.935  13.970
79853W        W39356  36.580  20.538  11.439
79854W        W39357  40.922   7.233  13.474
79855W        W39358   6.840  40.855   0.462
79856W        W39359  14.244  43.419  10.626
79857W        W39360  11.716  30.507   3.199
79858W        W39361  16.735   8.857   2.869
79859W        W39362  29.667  33.989   3.303
79860W        W39363  41.977  44.337  11.075
79861W        W39364  17.726  19.207  12.460
79862W        W39365   5.698  38.502  13.423
79863W        W39366  44.008   6.323  13.951
79864W        W39367   0.391   2.342   3.833
79865W        W39368  29.078   4.785  10.570
79866W        W39369   5.823  12.695  11.993
79867W        W39370  23.140  44.875   3.249
79868W        W39371  33.999  33.050   4.233
79869W        W39372  21.115  26.673  10.946
79870W        W39373  40.020  13.224   4.834
79871W        W39374   1.336   5.901  11.028
79872W        W39375  34.515  13.245   1.358
79873W        W39376  11.726  14.707   5.594
79874W        W39377  20.179  44.275  11.425
79875W        W39378  34.413  10.300   4.774
79876W        W39379  33.544   2.843  14.379
79877W        W39380  43.794   8.295   2.702
79878W        W39381  29.928   7.360   2.792
79879W        W39382  34.532  41.991  12.436
79880W        W39383  28.601   5.848   3.382
79881W        W39384   7.736   9.394  12.070
79882W        W39385  16.712  12.284   1.737
79883W        W39386  13.151  11.764   1.437
79884W        W39387  42.469  26.175  14.907
79885W        W39388  30.540  34.442   2.182
79886W        W39389  14.268  26.124   4.714
79887W        W39390  31.496   0.842   0.938
79888W        W39391  25.654   9.785  13.353
79889W        W39392   1.739  11.213   3.215
79890W        W39393  10.651   5.737  12.846
79891W        W39394  20.587  28.092  12.470
79892W        W39395   9.770   1.382  11.508
79893W        W39396  27.560  20.034   4.278
79894W        W39397  36.908  14.710  10.564
79895W        W39398   8.392  12.152   1.808
79896W        W39399  31.147  33.527   2.822
79897W        W39400  22.048  39.442   2.859
79898W        W39401  19.223   3.835  12.028
79899W        W39402   6.280   3.352  14.408
79900W        W39403  13.278   4.435   4.823
79901W        W39404  37.472  23.489   0.368
79902W        W39405  15.676   0.295  12.028
79903W        W39406  18.098  12.256   0.739
79904W        W39407  25.111  26.624   0.326
79905W        W39408  39.430  30.426   2.305
79906W        W39409  35.902  31.058  10.487
79907W        W39410  25.597  32.402   1.404
79908W        W39411  15.155  41.349   0.416
79909W        W39412  29.497  21.142  14.849
79910W        W39413  37.516  13.830  12.045
79911W        W39414  39.453  43.278   1.411
79912W        W39415  19.224  14.329  13.810
79913W        W39416  36.473  27.015  11.908
79914W        W39417  26.610  44.296  10.977
79915W        W39418  24.056  13.247   2.874
79916W        W39419  10.794  23.086   4.795
79917W        W39420   5.354  18.057   5.091
79918W        W39421  15.750   5.749  12.958
79919W        W39422  16.663  43.275   1.369
79920W        W39423   4.271   1.881   0.950
79921W        W39424  38.457  42.425   4.670
79922W        W39425  19.551  33.970   0.903
79923W        W39426  22.117  42.341   0.395
79924W        W39427  34.431  19.700  12.533
79925W        W39428   3.899  30.572  11.124
79926W        W39429  42.478  39.017  10.911
79927W        W39430   6.244  22.566   2.290
79928W        W39431  16.177  18.579   0.327
79929W        W39432  21.545  41.012   0.956
79930W        W39433   2.267  23.707  13.861
79931W        W39434  24.980   2.406  13.901
79932W        W39435  43.294   0.896   0.266
79933W        W39436  33.971  37.462  14.948
79934W        W39437  33.938   8.731   3.339
79935W        W39438  11.766   9.719  14.285
79936W        W39439  17.190   6.886   0.823
79937W        W39440  33.414  43.365  14.911
79938W        W39441  14.280   6.795   2.882
79939W        W39442   9.197  38.449  12.376
79940W        W39443  40.052  28.011   0.390
79941W        W39444  14.314  13.690   1.361
79942W        W39445  13.167   7.859  12.394
79943W        W39446  10.228  42.284   3.219
79944W        W39447  14.635   4.249   0.740
79945W        W39448   9.769   2.912   2.358
79946W        W39449  36.489   4.375  14.381
79947W        W39450  35.102  26.628   2.685
79948W        W39451  10.731   6.810   1.244
79949W        W39452   6.678  32.627  13.809
79950W        W39453  27.603  44.850  13.797
79951W        W39454  11.753  32.394   1.810
79952W        W39455  21.082  32.103  13.313
79953W        W39456  36.896  30.592   0.445
79954W        W39457  33.001  42.285  14.892
79955W        W39458  21.113  13.672  14.771
79956W        W39459  35.387   5.203   1.822
79957W        W39460  39.543  38.922   3.202
79958W        W39461  13.625  13.340   1.771
79959W        W39462  13.803  42.423  13.315
79960W        W39463  19.551  30.004  13.497
79961W        W39464  29.535  37.048  13.792
79962W        W39465  11.798  44.308   0.287
79963W        W39466  18.582  40.419   2.266
79964W        W39467  20.131  37.557  10.126
79965W        W39468  39.964  25.088  12.839
79966W        W39469  34.522  28.994  14.831
79967W        W39470  10.165  44.352   1.857
79968W        W39471  25.518  18.173  14.301
79969W        W39472  13.196  29.542  10.970
79970W        W39473  18.704  29.443   4.819
79971W        W39474   7.673  16.238  13.358
79972W        W39475   8.772  25.988   1.867
79973W        W39476  13.812   7.340  11.986
79974W        W39477  19.097  38.878   4.804
79975W        W39478  22.242   6.840   1.323
79976W        W39479  14.680  22.550   3.811
79977W        W39480  34.456   1.272  11.009
79978W        W39481  23.094  29.936   3.192
79979W        W39482  20.730  28.589  11.128
79980W        W39483   6.732  34.029   4.809
79981W        W39484  14.678  25.045  10.612
79982W        W39485   3.883   1.785   4.340
79983W        W39486  22.567   0.326   3.348
79984W        W39487  26.152  42.817  11.962
79985W        W39488  19.682  17.174  12.567
79986W        W39489  38.393  34.016   3.794
79987W        W39490   8.361  28.673   3.685
79988W        W39491  35.989  13.745  10.498
79989W        W39492  38.549  34.422   2.371
79990W        W39493  32.439  23.046   1.695
79991W        W39494   0.471  33.071   2.731
79992W        W39495  32.082   0.795  13.510
79993W        W39496  10.690  35.961  13.487
79994W        W39497   7.361  39.995   1.854
79995W        W39498  11.268  24.491   0.321
79996W        W39499  40.307  38.401   3.283
79997W        W39500  20.069  20.096   3.795
79998W        W39501   7.400  39.326  12.495
79999W        W39502  32.927   5.825   4.340
80000W        W39503  27.178  38.837   0.339
80001W        W39504  37.916   7.818   3.800
80002W        W39505  23.615   4.394   0.807
80003W        W39506  15.285  30.114  13.374
80004W        W39507  31.605  10.709  12.903
80005W        W39508  41.451  27.594   2.752
80006W        W39509  27.515  10.153  10.912
80007W        W39510  27.537  44.394  10.896
80008W        W39511  17.168  22.736  10.061
80009W        W39512  23.231  26.099  10.498
80010W        W39513   5.324  17.258   0.469
80011W        W39514  43.818  34.565  13.913
80012W        W39515  39.482   7.731  10.959
80013W        W39516   3.371   2.376   1.363
80014W        W39517  40.947  15.818   1.698
80015W        W39518  36.966   7.867   0.808
80016W        W39519  35.604  31.132  14.807
80017W        W39520  26.018  19.039  11.105
80018W        W39521   1.878  35.416   3.151
80019W        W39522   4.334  25.502  11.487
80020W        W39523  28.024  23.989  14.430
80021W        W39524  12.204  41.033   1.263
80022W        W39525  25.608  38.556  11.108
80023W        W39526  18.233   1.261  11.878
80024W        W39527  18.666  18.703  14.810
80025W        W39528   9.341  40.501  13.854
80026W        W39529   9.391  34.524   1.423
80027W        W39530  12.284  44.759  14.362
80028W        W39531  27.505  18.691   0.906
80029W        W39532  31.461  11.210   3.274
80030W        W39533  11.753   7.412  14.835
80031W        W39534  11.137  37.876   3.828
80032W        W39535  20.723  23.011   4.352
80033W        W39536  43.008   7.761   1.772
80034W        W39537  43.910   7.850  14.853
80035W        W39538  24.000  33.594   2.838
80036W        W39539  15.164  34.871  11.508
80037W        W39540  40.444  13.695  13.832
80038W        W39541  18.635  17.204   1.284
80039W        W39542  21.700  41.024  13.426
80040W        W39543   6.873   3.303   1.773
80041W        W39544  12.362   5.372   1.783
80042W        W39545  13.748  27.008   0.463
80043W        W39546  27.602   9.342   2.801
80044W        W39547  16.799   3.409  13.943
80045W        W39548  44.443  29.511   4.218
80046W        W39549   3.283  39.813   3.777
80047W        W39550  16.276   2.727  10.922
80048W        W39551  22.022   6.873  12.082
80049W        W39552  35.894  19.198  12.864
80050W        W39553  34.503  33.516   2.356
80051W        W39554  21.652  28.679   0.327
80052W        W39555  30.605  27.054   0.364
80053W        W39556  32.114   1.799  12.025
80054W        W39557  13.185   0.432  10.484
80055W        W39558  15.180  13.292   1.697
80056W        W39559  39.324  43.439  12.097
80057W        W39560  29.558  42.007   5.253
80058W        W39561  18.293   9.168   0.347
80059W        W39562  25.115   8.347  12.858
80060W        W39563  23.567  39.345  14.909
80061W        W39564  18.230   2.741  13.400
80062W        W39565  37.558  22.243   3.741
80063W        W39566  42.335   0.275   1.274
80064W        W39567  38.327   4.933  14.422
80065W        W39568  26.569  38.912  10.894
80066W        W39569  37.440  12.171  10.627
80067W        W39570   0.362  42.900   5.681
80068W        W39571  17.195  33.122   4.761
80069W        W39572  11.741   5.841   3.370
80070W        W39573  25.494  41.497  11.030
80071W        W39574  15.759  28.134  12.830
80072W        W39575   8.689  37.953  14.444
80073W        W39576  15.809   3.219  10.892
80074W        W39577  38.391  16.235   4.822
80075W        W39578  15.805   9.873  14.345
80076W        W39579  23.733   6.833   4.151
80077W        W39580  43.944  25.101  13.360
80078W        W39581  10.806  20.156  14.952
80079W        W39582  19.570  19.042  14.823
80080W        W39583   1.349  24.522  11.402
80081W        W39584  20.718  11.238   3.834
80082W        W39585  43.455  13.298   0.931
80083W        W39586  13.689  31.578   3.158
80084W        W39587  22.622  24.688  11.955
80085W        W39588   1.263  21.619  12.490
80086W        W39589  21.022  18.085  11.044
80087W        W39590  23.141  41.860  10.475
80088W        W39591   6.382  31.121   2.680
80089W        W39592  17.259   4.388  12.496
80090W        W39593  21.099  37.852   4.299
80091W        W39594  26.592  15.179   4.304
80092W        W39595  28.981  21.161   1.393
80093W        W39596  27.112  30.465  11.472
80094W        W39597  26.600  20.170   4.320
80095W        W39598  26.039   5.407   4.126
80096W        W39599  11.840  41.458  13.864
80097W        W39600  24.179  29.470   0.754
80098W        W39601  16.725  40.027   0.469
80099W        W39602   1.956  25.148   2.256
80100W        W39603  31.485  29.489  14.514
80101W        W39604   5.719  41.001  14.893
80102W        W39605  11.140   2.863   0.451
80103W        W39606  15.753  41.917  11.979
80104W        W39607  11.825  14.730  10.064
80105W        W39608  31.105  33.959  14.790
80106W        W39609  35.415  22.565  11.594
80107W        W39610   6.701  37.901  11.081
80108W        W39611  26.151  43.486  11.866
80109W        W39612  38.070  35.484  12.989
80110W        W39613  17.103  43.008   0.863
80111W        W39614  32.505  14.332  14.411
80112W        W39615  43.431  42.473  14.841
80113W        W39616   0.829  40.865  12.918
80114W        W39617   7.810  13.637  12.875
80115W        W39618  43.001   6.740  10.042
80116W        W39619  38.911  14.773  12.361
80117W        W39620  23.173   6.739  13.837
80118W        W39621  18.753  19.609  11.091
80119W        W39622  29.926  22.239  12.067
80120W        W39623   9.270  26.518   1.342
80121W        W39624  32.046  34.487   1.732
80122W        W39625   3.273  41.384  10.556
80123W        W39626  10.753  37.072  13.308
80124W        W39627  32.449  33.547   1.698
80125W        W39628  14.699  16.738  14.974
80126W        W39629  37.570  29.921  12.020
80127W        W39630  16.316  38.367   0.298
80128W        W39631  28.155  30.060   4.810
80129W        W39632  31.098  28.181   3.809
80130W        W39633  31.429  21.069   1.861
80131W        W39634  24.117   3.241   1.882
80132W        W39635  17.613  35.400  13.980
80133W        W39636  10.144   8.735   0.435
80134W        W39637  36.519  18.117  12.074
80135W        W39638  20.237  19.185   1.764
80136W        W39639  44.813  17.785  11.048
80137W        W39640  11.773  30.442   9.935
80138W        W39641  32.987   6.776   1.699
80139W        W39642   2.803  42.828   0.243
80140W        W39643  20.767  10.691  11.545
80141W        W39644   8.241  29.534   4.753
80142W        W39645  44.481  33.893   4.334
80143W        W39646  42.797  15.299  10.420
80144W        W39647  28.579   5.315  14.862
80145W        W39648  43.768   3.935   2.402
80146W        W39649  20.139  29.490  12.996
80147W        W39650  32.932   5.789   2.226
80148W        W39651   7.892  30.470  10.923
80149W        W39652  18.254   5.827  14.516
80150W        W39653  30.986  37.544   1.870
80151W        W39654  25.561   3.779  12.996
80152W        W39655   7.783   0.844  11.905
80153W        W39656  37.973  33.039  14.759
80154W        W39657  11.353   0.952   3.721
80155W        W39658  41.320  41.391  13.991
80156W        W39659   9.222  26.106   0.746
80157W        W39660  31.506  42.991   1.425
80158W        W39661  28.515  20.234   1.376
80159W        W39662  14.256   7.694   3.671
80160W        W39663  41.338  29.427   1.285
80161W        W39664  27.972   2.951  11.973
80162W        W39665  24.603  22.584  13.819
80163W        W39666  25.504  36.875  13.432
80164W        W39667  26.689  43.271   2.392
80165W        W39668  20.187  20.238   2.813
80166W        W39669   4.871   9.755  12.455
80167W        W39670  26.669  28.990  11.097
80168W        W39671  16.151  26.577  10.953
80169W        W39672  35.390  19.723  12.090
80170W        W39673  39.881  24.076  14.304
80171W        W39674  11.197  31.148   2.178
80172W        W39675  13.160  13.729   4.152
80173W        W39676  38.418  36.548  10.980
80174W        W39677  44.779  41.425  12.863
80175W        W39678  39.406  37.013   1.894
80176W        W39679  19.536  39.491  13.905
80177W        W39680  19.691   9.218  11.381
80178W        W39681  35.476   6.837  12.547
80179W        W39682  20.170  14.286   1.906
80180W        W39683  38.452  41.829   2.367
80181W        W39684  17.608  42.299   3.301
80182W        W39685  26.110  40.886  12.922
80183W        W39686  44.865  14.638  12.025
80184W        W39687  20.587  24.165   0.449
80185W        W39688  34.606  17.266  12.976
80186W        W39689  19.724  40.360  10.404
80187W        W39690  14.123  25.497  14.437
80188W        W39691  14.669   3.912   0.871
80189W        W39692  21.523  15.128   4.205
80190W        W39693   5.294  16.621  13.898
80191W        W39694  39.509  42.434  11.940
80192W        W39695  36.916  22.131   4.224
80193W        W39696  20.728  17.763  14.371
80194W        W39697  15.724  20.732  14.896
80195W        W39698  25.160  22.038   1.749
80196W        W39699  36.486  37.840  12.468
80197W        W39700   9.810  22.234   3.749
80198W        W39701  20.212  14.190  13.880
80199W        W39702  26.031   4.939  12.962
80200W        W39703   1.449  40.002   2.330
80201W        W39704  29.004  38.457   5.749
80202W        W39705  23.711  22.036   3.323
80203W        W39706  40.355  44.424   2.741
80204W        W39707  10.160  15.156  14.379
80205W        W39708  32.485  14.649   0.838
80206W        W39709   3.832  11.784  11.957
80207W        W39710   6.734   6.369   0.299
80208W        W39711  33.901  28.181   2.682
80209W        W39712  24.698  18.058  12.508
80210W        W39713   4.422  30.073  11.892
80211W        W39714  38.866  39.442   1.391
80212W        W39715  11.827  31.081  14.909
80213W        W39716  35.022  31.930   1.827
80214W        W39717  32.119  31.939  10.948
80215W        W39718  16.284  31.982   5.118
80216W        W39719  30.131  26.565   0.742
80217W        W39720  12.245   0.910   4.244
80218W        W39721  16.132   0.764  10.553
80219W        W39722  21.609  36.556   3.243
80220W        W39723   7.381  25.069   4.692
80221W        W39724   5.777   5.838  14.480
80222W        W39725  20.709  33.917  12.907
80223W        W39726  38.463  23.132   0.348
80224W        W39727  22.042  32.086  11.517
80225W        W39728  13.738   1.876   1.867
80226W        W39729  30.643  15.637  11.105
80227W        W39730  34.569  22.141  14.784
80228W        W39731  11.148  40.041  10.576
80229W        W39732  24.704   1.307  10.963
80230W        W39733  43.794  20.209  12.049
80231W        W39734  30.085  38.880   2.328
80232W        W39735  39.884  13.678   4.615
80233W        W39736  10.195  37.522   5.281
80234W        W39737  12.742  27.640  13.794
80235W        W39738  16.689  43.448   4.667
80236W        W39739  20.728  21.598  11.459
80237W        W39740  39.552  21.751   4.126
80238W        W39741  34.464   4.815  13.316
80239W        W39742   4.228  28.179   0.368
80240W        W39743  25.701  10.865   0.741
80241W        W39744  14.236  18.788   0.771
80242W        W39745  12.784  11.673  12.463
80243W        W39746  38.949  15.083  13.327
80244W        W39747  20.650  33.027  10.592
80245W        W39748  20.540  41.372  13.042
80246W        W39749  26.001  24.191  14.394
80247W        W39750  27.686  40.931   1.242
80248W        W39751   7.794  33.926  12.344
80249W        W39752  40.833   5.398   1.285
80250W        W39753  35.495   7.389  13.360
80251W        W39754  34.488  14.723  13.015
80252W        W39755   6.921  18.099   0.820
80253W        W39756  22.557   2.795   2.714
80254W        W39757   1.280  25.709  13.492
80255W        W39758  26.078  12.804  13.986
80256W        W39759  42.499  16.091   1.912
80257W        W39760  28.527  15.140  12.351
80258W        W39761   2.861  16.176  10.435
80259W        W39762  30.566  23.572  12.030
80260W        W39763   6.750  22.021   4.606
80261W        W39764  40.335  29.139  11.391
80262W        W39765  38.387  26.537  11.910
80263W        W39766  19.244   3.447   0.435
80264W        W39767  42.881  34.430   2.703
80265W        W39768   2.842  31.040  11.455
80266W        W39769  14.184   6.216   0.462
80267W        W39770  31.985   4.220  10.967
80268W        W39771  42.369  16.232   3.268
80269W        W39772  30.452  38.013   1.259
80270W        W39773  44.432  26.014  12.893
80271W        W39774  16.139  44.324  10.438
80272W        W39775  18.110   4.448   4.213
80273W        W39776   4.449  41.345  11.480
80274W        W39777  14.672  29.054  10.618
80275W        W39778  35.548  18.094  12.979
80276W        W39779  37.009  30.007   0.754
80277W        W39780  13.732  12.801  12.979
80278W        W39781  30.909   7.265   1.713
80279W        W39782  32.943  32.391   3.294
80280W        W39783  17.292  28.669   4.138
80281W        W39784  18.698  23.734   2.244
80282W        W39785  24.988  32.912  13.439
80283W        W39786  29.660  12.752   4.223
80284W        W39787  38.349   4.858   1.736
80285W        W39788  28.072  13.809  10.135
80286W        W39789  27.664  21.677  14.460
80287W        W39790  27.109  23.558   4.698
80288W        W39791  24.561  36.359   1.280
80289W        W39792  34.457  31.113  13.815
80290W        W39793  12.219  44.916  14.953
80291W        W39794   4.937   4.284  14.990
80292W        W39795  30.427  44.981  13.029
80293W        W39796   9.682  28.958   3.672
80294W        W39797   5.402  27.609   4.129
80295W        W39798  26.164  11.176  13.995
80296W        W39799   7.227  37.409   3.223
80297W        W39800   0.922   4.434  13.924
80298W        W39801  22.547   7.304   1.387
80299W        W39802   6.285  10.826   1.388
80300W        W39803  26.005  13.756  10.589
80301W        W39804   7.203   8.764   3.797
80302W        W39805  23.141  19.775   4.295
80303W        W39806  11.811  34.979  10.913
80304W        W39807  32.562  34.484   3.734
80305W        W39808   6.259   0.776   3.656
80306W        W39809  21.235   4.284   3.208
80307W        W39810  15.106  30.975  13.416
80308W        W39811  19.770  14.738  12.514
80309W        W39812  10.824  14.787   4.825
80310W        W39813   4.738  14.094   0.872
80311W        W39814  39.931   4.757  14.353
80312W        W39815  25.631  37.411  14.937
80313W        W39816  21.201  33.092  13.497
80314W        W39817  41.957  16.624   3.303
80315W        W39818  17.739   3.241  10.452
80316W        W39819  37.048  42.415  11.424
80317W        W39820  22.095  39.899  11.440
80318W        W39821  36.569   3.381   0.847
80319W        W39822   6.794  27.656  11.575
80320W        W39823  10.245  31.593   0.763
80321W        W39824  13.253  21.039  10.416
80322W        W39825  20.103  17.578  10.491
80323W        W39826  18.184  24.515   2.272
80324W        W39827  44.926  22.163  11.906
80325W        W39828  35.926  14.301   1.859
80326W        W39829  26.532  28.506   3.774
80327W        W39830  15.600  42.980   1.757
80328W        W39831  35.948   5.720   3.259
80329W        W39832  34.070  40.328   1.277
80330W        W39833  37.349  26.696   0.281
80331W        W39834  19.141   0.810   1.358
80332W        W39835  30.105   0.371  12.838
80333W        W39836   3.281  36.020   3.192
80334W        W39837   8.729  21.641   3.295
80335W        W39838   3.353  26.131   0.802
80336W        W39839   2.412   2.773  10.414
80337W        W39840  31.411  13.635   0.409
80338W        W39841  10.674  43.508   4.174
80339W        W39842  12.333  12.649  12.370
80340W        W39843  31.051  39.520  14.370
80341W        W39844   0.334   5.213   4.185
80342W        W39845  39.056  34.500  14.903
80343W        W39846  43.899  26.959  14.875
80344W        W39847  14.757   5.368  13.974
80345W        W39848  24.701  38.859   1.731
80346W        W39849  35.892  41.365  14.347
80347W        W39850   1.344   6.881   2.265
80348W        W39851  39.894  15.118  13.495
80349W        W39852   6.257  43.020   1.271
80350W        W39853  39.884  33.404   0.364
80351W        W39854  33.436  15.279   1.429
80352W        W39855   8.344   2.242  12.576
80353W        W39856  16.650  17.303  14.462
80354W        W39857  25.066  40.454   0.452
80355W        W39858  43.459  10.261   0.407
80356W        W39859   7.836  21.662  13.883
80357W        W39860  43.327  17.192  11.012
80358W        W39861  30.119  12.327   4.734
80359W        W39862  32.014  25.088  13.943
80360W        W39863  37.352  17.176  13.813
80361W        W39864  24.040  14.199   2.853
80362W        W39865  19.645  24.511  12.508
80363W        W39866   5.695  12.856   3.853
80364W        W39867  14.203  31.645  13.902
80365W        W39868  23.616   2.290   2.201
80366W        W39869  37.890   5.360   5.788
80367W        W39870  36.086   2.318  11.969
80368W        W39871   9.216  27.141   1.355
80369W        W39872  43.896   2.403  12.394
80370W        W39873  40.365  19.562   4.624
80371W        W39874  19.058   0.249   2.893
80372W        W39875  16.669   8.317   0.792
80373W        W39876  33.488   9.652  10.087
80374W        W39877  26.957   1.847   2.304
80375W        W39878  36.998  41.981  13.366
80376W        W39879  16.765  13.226  14.016
80377W        W39880  36.560  43.465  14.899
80378W        W39881  13.158  35.366  14.790
80379W        W39882  13.180  33.505  10.499
80380W        W39883  30.993  10.155  12.035
80381W        W39884  20.111  14.146   4.703
80382W        W39885  31.033  20.169   0.448
80383W        W39886   5.410  14.701   1.343
80384W        W39887   6.266   5.281  13.064
80385W        W39888  34.923  38.996   9.540
80386W        W39889   6.922   6.720   3.759
80387W        W39890  41.814  32.085  10.598
80388W        W39891  26.110  15.786   0.265
80389W        W39892  15.773  14.245  11.082
80390W        W39893   0.855  33.055   2.861
80391W        W39894  43.859  23.165   2.698
80392W        W39895   9.758  14.674  11.906
80393W        W39896  36.057  11.337   0.408
80394W        W39897   3.949   5.264   1.393
80395W        W39898  24.489  27.017  11.373
80396W        W39899  10.857  18.594   4.680
80397W        W39900  29.945  28.622  11.541
80398W        W39901  34.440  21.212  10.907
80399W        W39902  43.810  29.540  11.993
80400W        W39903  41.901  33.883   3.247
80401W        W39904  29.967  12.361   2.255
80402W        W39905  18.211   6.687   4.608
80403W        W39906  20.626  19.258   0.727
80404W        W39907  14.280  17.293  14.953
80405W        W39908   1.359  35.052   3.176
80406W        W39909  27.952   8.196   4.148
80407W        W39910   1.941  17.124  14.364
80408W        W39911  34.578   6.398   0.303
80409W        W39912  14.196  10.143   1.897
80410W        W39913  15.638  39.838  13.341
80411W        W39914  21.675   8.253  12.560
80412W        W39915   5.712   3.417   0.468
80413W        W39916  43.018  22.702  13.927
80414W        W39917  36.842   8.767   1.859
80415W        W39918   7.787  32.136   4.202
80416W        W39919  32.921  30.094  13.039
80417W        W39920  24.564  15.247  12.484
80418W        W39921  33.392  20.579   4.156
80419W        W39922   5.914  34.546   0.393
80420W        W39923   2.349   8.793  13.017
80421W        W39924  38.352  43.910   1.346
80422W        W39925  10.768  28.120   0.814
80423W        W39926  43.282  27.621   2.897
80424W        W39927  27.013  35.067   1.446
80425W        W39928  42.886  15.809  12.391
80426W        W39929   5.918  11.732  14.423
80427W        W39930  22.714   7.886  14.459
80428W        W39931  20.543  17.581  12.085
80429W        W39932  18.282  28.098   3.718
80430W        W39933  24.508  40.853  14.925
80431W        W39934   3.223  41.536  13.332
80432W        W39935  21.030  33.936  12.008
80433W        W39936   8.244  36.475  13.907
80434W        W39937   5.702   2.966  14.462
80435W        W39938   2.265  21.594   1.336
80436W        W39939  24.479   1.440   2.338
80437W        W39940   8.710  32.453   5.136
80438W        W39941  42.505   8.250  13.064
80439W        W39942  38.425  17.296   0.244
80440W        W39943  26.962  22.649   0.944
80441W        W39944  25.679   8.197  14.862
80442W        W39945  24.670  43.310  13.800
80443W        W39946  24.981  18.144  10.631
80444W        W39947  30.076   1.464  10.411
80445W        W39948   2.230   7.295  11.383
80446W        W39949  16.210   3.794   2.179
80447W        W39950   7.217   7.679   3.746
80448W        W39951  16.121   4.211  11.396
80449W        W39952  38.334   1.955  10.611
80450W        W39953  28.645  42.953   3.775
80451W        W39954  34.391  29.143   0.416
80452W        W39955  22.581  17.096  13.307
80453W        W39956   6.263  27.104   3.653
80454W        W39957   8.169  16.087   2.387
80455W        W39958  21.525   8.351   0.376
80456W        W39959  26.609  42.464   1.700
80457W        W39960  25.576  42.990   1.340
80458W        W39961  30.020   9.294  10.913
80459W        W39962   8.280  20.092  10.519
80460W        W39963   5.272  40.816  13.864
80461W        W39964  23.541  11.336   2.349
80462W        W39965  26.996   1.808  10.918
80463W        W39966  42.817  38.849   0.945
80464W        W39967   8.707  27.546  10.974
80465W        W39968  27.652   5.852   2.207
80466W        W39969  13.217  20.080  12.042
80467W        W39970   8.863  24.038  14.906
80468W        W39971  28.171  17.179  13.409
80469W        W39972   8.684  32.601  14.441
80470W        W39973  19.131  37.506  14.423
80471W        W39974  21.117  27.114  10.601
80472W        W39975  35.877  30.529   1.934
80473W        W39976   3.448  41.494  14.020
80474W        W39977  33.587  34.986   4.149
80475W        W39978   3.754  18.072  11.558
80476W        W39979  26.060  25.624  11.479
80477W        W39980  16.097  21.147  10.032
80478W        W39981   0.952  43.340   0.252
80479W        W39982  41.977   1.348   4.344
80480W        W39983  24.641   4.704  12.482
80481W        W39984  35.012  30.609  11.519
80482W        W39985  33.014  43.941  14.893
80483W        W39986  38.968  19.058   2.205
80484W        W39987  17.655  17.106   4.830
80485W        W39988   4.426  21.573  10.955
80486W        W39989  28.465  12.654  12.391
80487W        W39990   5.416  27.185   1.388
80488W        W39991  22.712  18.192   0.929
80489W        W39992   0.272  18.589   9.493
80490W        W39993   3.862  24.503  11.926
80491W        W39994  22.193  13.162  12.014
80492W        W39995   8.184   7.847  14.355
80493W        W39996  15.270  27.624  12.396
80494W        W39997   9.295  32.930  13.938
80495W        W39998  21.041  19.276  11.399
80496W        W39999   6.353  21.520   3.730
80497W        W40000  40.821   8.237  13.457
80498W        W40001  44.816   6.189   1.301
80499W        W40002  12.803  40.445  14.807
80500W        W40003  25.585  38.397   4.696
80501W        W40004  34.494  33.932  11.396
80502W        W40005  27.087  22.014   2.671
80503W        W40006  12.348  38.948   1.901
80504W        W40007   2.314   1.960   0.923
80505W        W40008  18.244  31.076  14.453
80506W        W40009   2.933  22.142  11.495
80507W        W40010  25.027   3.367  12.446
80508W        W40011  21.540  33.980  11.471
80509W        W40012   0.779  17.297   1.882
80510W        W40013  17.722  13.822   0.858
80511W        W40014  24.214   2.801   4.342
80512W        W40015  43.298   1.901  14.992
80513W        W40016  31.443  22.656   3.654
80514W        W40017   4.428  32.968  13.953
80515W        W40018  44.890  37.071  14.857
80516W        W40019   4.827  21.162  13.817
80517W        W40020  23.050  29.437   3.384
80518W        W40021  14.742  21.067  14.870
80519W        W40022  39.422  41.853   1.301
80520W        W40023  27.101  43.768   4.598
80521W        W40024  35.458  24.549  14.974
80522W        W40025  37.385  41.859   4.247
80523W        W40026  11.245   0.743  13.045
80524W        W40027  36.914  10.330  11.394
80525W        W40028  18.063  20.145  14.825
80526W        W40029   8.321   7.314  12.421
80527W        W40030  24.155  34.427   0.419
80528W        W40031   1.814  36.917   0.731
80529W        W40032  39.913  42.388  12.039
80530W        W40033  12.762  16.799  14.458
80531W        W40034  12.144  18.071   0.328
80532W        W40035  40.412  12.189  12.458
80533W        W40036  16.749   0.306   4.782
80534W        W40037  29.640  16.234   3.795
80535W        W40038   2.317   4.244  14.414
80536W        W40039   6.375   6.257   4.287
80537W        W40040  23.985   3.885   1.323
80538W        W40041   5.409  32.050  12.927
80539W        W40042  44.777   7.672  12.834
80540W        W40043   6.704  43.432   5.168
80541W        W40044  13.162  19.040  11.097
80542W        W40045  32.578  33.617   2.276
80543W        W40046  16.655   2.390  14.426
80544W        W40047  37.520  39.895  14.308
80545W        W40048  34.481  21.516  14.344
80546W        W40049  24.202   3.434  11.105
80547W        W40050  29.007  40.906   1.755
80548W        W40051  42.993   1.896  14.289
80549W        W40052   7.229  25.617   2.184
80550W        W40053  21.096  28.044   5.244
80551W        W40054  35.942  33.996  13.881
80552W        W40055  41.307  30.535  12.373
80553W        W40056  20.527  13.281   4.240
80554W        W40057  41.861  35.504   0.848
80555W        W40058  26.115  12.633  10.417
80556W        W40059   3.804  18.563  14.970
80557W        W40060  29.598   7.687   3.830
80558W        W40061  43.373  42.900  14.414
80559W        W40062  25.625   0.394   3.670
80560W        W40063  20.067  28.025   0.470
80561W        W40064   8.853   1.848   1.229
80562W        W40065  10.633  34.023   2.354
80563W        W40066   4.878  39.809  12.888
80564W        W40067  23.644  32.621   1.721
80565W        W40068  10.747  42.897  11.085
80566W        W40069   9.351  43.472   4.349
80567W        W40070  43.959  16.705   2.868
80568W        W40071   3.746  25.179  10.498
80569W        W40072  19.587  24.722   3.213
80570W        W40073  21.717   9.832  11.975
80571W        W40074  28.181   6.231  14.320
80572W        W40075  44.946   7.754  11.127
80573W        W40076   5.708  12.348  11.119
80574W        W40077  27.034   7.700   1.727
80575W        W40078  37.541  17.173  11.907
80576W        W40079  34.032  38.553   3.751
80577W        W40080  17.624  32.523  14.811
80578W        W40081  15.159  44.969  10.977
80579W        W40082  22.131  38.372  11.513
80580W        W40083  34.932  25.529  10.528
80581W        W40084  13.325   1.399  13.805
80582W        W40085  25.135  19.756   0.810
80583W        W40086  14.668  31.002   2.665
80584W        W40087  25.663  21.071   2.726
80585W        W40088  10.804  14.204  12.507
80586W        W40089  23.554  16.783  13.315
80587W        W40090  36.354   7.730   2.696
80588W        W40091  36.471  13.617  10.952
80589W        W40092  17.230   4.925   5.090
80590W        W40093  40.969   1.339   2.819
80591W        W40094  36.038  36.995  12.971
80592W        W40095  12.189  13.239  12.542
80593W        W40096  24.131  38.957  14.399
80594W        W40097   9.352   0.850  12.908
80595W        W40098  40.478  41.023   4.598
80596W        W40099   5.700  23.113   2.347
80597W        W40100  35.895  29.093  14.312
80598W        W40101  23.710  40.473   0.340
80599W        W40102   7.822  34.539  13.404
80600W        W40103  26.583  23.016   3.343
80601W        W40104   9.175  19.111   0.745
80602W        W40105  36.013  17.069   4.668
80603W        W40106  37.507   3.815   1.402
80604W        W40107   6.191   8.889  11.435
80605W        W40108  38.475  39.038  11.028
80606W        W40109  32.028  30.631   2.363
80607W        W40110  42.977  17.232   3.264
80608W        W40111  21.556   0.321  13.474
80609W        W40112  33.915  30.522  10.493
80610W        W40113  34.576  10.229  13.973
80611W        W40114  34.003  36.099  12.873
80612W        W40115   8.779   5.795   2.275
80613W        W40116   6.279  43.460   1.246
80614W        W40117  43.900  15.198   3.746
80615W        W40118   1.276  36.096   2.285
80616W        W40119  25.093  28.536  13.309
80617W        W40120  39.039  21.107   1.253
80618W        W40121  22.504   7.217  10.416
80619W        W40122  31.093  23.558   3.372
80620W        W40123  20.564  16.797   3.346
80621W        W40124   2.394  27.665  13.331
80622W        W40125  18.102  31.002   0.738
80623W        W40126   8.711   9.767  10.560
80624W        W40127   1.357  33.879  12.456
80625W        W40128  12.680   6.778   2.298
80626W        W40129  14.329  15.803  11.895
80627W        W40130  24.044  20.258   4.274
80628W        W40131  26.005   8.730  14.803
80629W        W40132  35.557  30.003  13.033
80630W        W40133   3.257   5.693   3.853
80631W        W40134  11.684  31.439  10.016
80632W        W40135   0.314  25.591   0.340
80633W        W40136  12.819  10.267   0.862
80634W        W40137  33.950  24.652  14.354
80635W        W40138  36.899  21.738   2.662
80636W        W40139   4.873  13.315   1.378
80637W        W40140  13.750  44.886  12.422
80638W        W40141   7.856  22.167  14.426
80639W        W40142  39.027  30.161   3.333
80640W        W40143   0.876  23.157  12.406
80641W        W40144   3.882   7.339  12.991
80642W        W40145  25.087  10.367  14.026
80643W        W40146  31.610  20.251   0.465
80644W        W40147  25.483   4.434  10.629
80645W        W40148  27.588  40.959  11.008
80646W        W40149   7.303   2.331   2.668
80647W        W40150   1.455  18.769   3.788
80648W        W40151   4.213  18.595  14.503
80649W        W40152  25.532   4.450  12.459
80650W        W40153  26.107   6.262  13.427
80651W        W40154   5.362  29.107   2.190
80652W        W40155  35.040  42.786  14.498
80653W        W40156  14.681  15.092   3.348
80654W        W40157  40.513  36.473   4.676
80655W        W40158  38.067  42.433   3.805
80656W        W40159  10.223   2.297  14.496
80657W        W40160   0.402  15.816  13.035
80658W        W40161  31.951  38.850   3.183
80659W        W40162   3.896   8.660  14.386
80660W        W40163  18.178  16.106  13.837
80661W        W40164  28.937  23.007   3.188
80662W        W40165  28.005   4.863  11.372
80663W        W40166  11.728  15.634  11.469
80664W        W40167   6.350  39.369   3.147
80665W        W40168  11.733  17.645   4.681
80666W        W40169  30.010  11.810   0.835
80667W        W40170  26.001  39.326   4.189
80668W        W40171  35.871   4.930   2.754
80669W        W40172  19.269   8.392   2.351
80670W        W40173  20.200  13.221   0.801
80671W        W40174   7.829  23.123   2.807
80672W        W40175  10.832  33.095   1.890
80673W        W40176  11.208  34.966   1.706
80674W        W40177  22.684  14.246  13.407
80675W        W40178  13.153  35.855  13.402
80676W        W40179  43.453  10.193  12.010
80677W        W40180  29.594  22.570  13.016
80678W        W40181   9.661  31.464   4.343
80679W        W40182  24.045  31.124  12.496
80680W        W40183  27.032  30.494   3.295
80681W        W40184  10.785   9.760  13.539
80682W        W40185  23.596  13.279   1.930
80683W        W40186   1.372  32.538  14.515
80684W        W40187  34.045  31.931   3.214
80685W        W40188   0.752  38.827   3.746
80686W        W40189  16.192  26.009  12.392
80687W        W40190  20.226  24.668  13.879
80688W        W40191   5.312  35.877   4.684
80689W        W40192  34.500  29.998  14.849
80690W        W40193  28.079  18.548  10.542
80691W        W40194  21.026   7.364   0.314
80692W        W40195  43.801   6.385   4.225
80693W        W40196  33.545  41.794  11.074
80694W        W40197   0.765  29.932  13.030
80695W        W40198   1.732  22.006  13.473
80696W        W40199  13.320  27.021   4.811
80697W        W40200   8.820   2.300  10.931
80698W        W40201   6.209  28.484  13.929
80699W        W40202  29.039   5.243  10.606
80700W        W40203  26.998  37.855   4.284
80701W        W40204  32.092  43.417   3.289
80702W        W40205  12.117  25.125   0.395
80703W        W40206  35.592   0.493   3.764
80704W        W40207  43.333  27.190  11.113
80705W        W40208  21.090  29.931  13.792
80706W        W40209  25.204  32.896   1.318
80707W        W40210  36.974  17.061   2.830
80708W        W40211  33.070  34.087  11.403
80709W        W40212  29.665  28.165   0.410
80710W        W40213  39.464  29.596  12.925
80711W        W40214  14.177  24.643  12.087
80712W        W40215  20.702   5.274   1.313
80713W        W40216   5.416  43.807  13.858
80714W        W40217   2.411  40.493   0.436
80715W        W40218  28.074   6.823   0.948
80716W        W40219  31.492  30.021  13.370
80717W        W40220  32.104   9.329   0.822
80718W        W40221  27.478  35.013  12.075
80719W        W40222   0.981  37.852  13.472
80720W        W40223  33.896  33.538   1.319
80721W        W40224  20.097  33.074  12.479
80722W        W40225  20.691  28.932  13.477
80723W        W40226  16.106  29.066   4.221
80724W        W40227  10.158  34.557  10.416
80725W        W40228   1.791  13.264   2.413
80726W        W40229   5.770  26.678  10.157
80727W        W40230   3.878  40.911   4.337
80728W        W40231  28.028   0.956   3.806
80729W        W40232   0.904  40.012   4.161
80730W        W40233   2.418   1.800  11.952
80731W        W40234   1.850  31.982  14.383
80732W        W40235  30.606  27.081  14.783
80733W        W40236   9.887  11.656   3.201
80734W        W40237  17.557  28.582  10.569
80735W        W40238   7.324  10.247  14.854
80736W        W40239  36.551  12.163  13.500
80737W        W40240   1.929  30.643  14.943
80738W        W40241  31.486  30.155   3.652
80739W        W40242  15.661  38.910  12.089
80740W        W40243  18.148  21.137  13.433
80741W        W40244   5.351  41.878  10.926
80742W        W40245  31.485  33.967  12.012
80743W        W40246  11.180  12.802   1.882
80744W        W40247  33.098  24.149   1.240
80745W        W40248  34.898  14.806  12.453
80746W        W40249  32.928   7.200   4.295
80747W        W40250  40.997  12.187   0.941
80748W        W40251  15.607  41.868  11.459
80749W        W40252  12.218  32.531   2.851
80750W        W40253   5.912  11.337  13.483
80751W        W40254  19.093  21.569   0.345
80752W        W40255  12.235   6.200   0.246
80753W        W40256  39.901   5.333   3.182
80754W        W40257  18.161   3.834  13.872
80755W        W40258  41.814  34.038  13.382
80756W        W40259   9.334   4.258  14.285
80757W        W40260   6.707  26.161  12.363
80758W        W40261  35.096   4.320  10.624
80759W        W40262  22.706  43.782  13.321
80760W        W40263  22.042  24.684   1.217
80761W        W40264  10.171   5.692   0.854
80762W        W40265  18.177  35.369  12.580
80763W        W40266  20.612  24.603   1.296
80764W        W40267  22.023  37.582  14.447
80765W        W40268  19.576  21.224   3.662
80766W        W40269   4.361  39.544   3.305
80767W        W40270  15.236  19.158  11.127
80768W        W40271  44.964  21.539  10.149
80769W        W40272  27.463  35.095  13.949
80770W        W40273  29.966   6.875  12.407
80771W        W40274  20.734   2.776  14.923
80772W        W40275  27.487  24.072  14.029
80773W        W40276  13.269  27.126   1.392
80774W        W40277  16.653   3.902   2.872
80775W        W40278   2.326  11.189  14.917
80776W        W40279  13.617  42.018   1.422
80777W        W40280  24.561  38.384  10.581
80778W        W40281   9.277   0.249  13.026
80779W        W40282  36.484  18.686   2.413
80780W        W40283  31.955  38.377   0.857
80781W        W40284  32.045  26.028   1.379
80782W        W40285   0.479  31.615   2.843
80783W        W40286  26.687  24.588  13.892
80784W        W40287  42.798  24.016  14.980
80785W        W40288  27.549  42.345  11.446
80786W        W40289  38.062  26.694  12.555
80787W        W40290  34.101  20.539   0.448
80788W        W40291  29.060  21.515  12.399
80789W        W40292  33.442  11.348   3.736
80790W        W40293  24.093  15.707   0.404
80791W        W40294  28.551  10.296  13.444
80792W        W40295  13.608  42.323  14.290
80793W        W40296  27.093  17.139  12.980
80794W        W40297  40.954  41.391  12.923
80795W        W40298  12.787  32.091  14.807
80796W        W40299  22.076   7.236  10.439
80797W        W40300   4.419  21.631  14.785
80798W        W40301  14.285  44.486   3.163
80799W        W40302  20.550  24.485  14.770
80800W        W40303  25.554  38.398  12.974
80801W        W40304  14.120  43.014   1.387
80802W        W40305  25.615  20.525   1.273
80803W        W40306   6.326  27.461  11.541
80804W        W40307   3.365  17.715  14.291
80805W        W40308  19.607   9.675   2.251
80806W        W40309   0.833  16.093   0.749
80807W        W40310  30.044  36.475   0.743
80808W        W40311  21.545  16.216  12.499
80809W        W40312  38.494   3.268  13.470
80810W        W40313  27.144   0.832  10.127
80811W        W40314   2.396  18.099   2.842
80812W        W40315   8.859  25.110   3.721
80813W        W40316  27.598  41.405  12.379
80814W        W40317  33.078  40.841  11.977
80815W        W40318  31.472   4.890  12.993
80816W        W40319   6.699  21.164  10.625
80817W        W40320  41.814   2.276   4.120
80818W        W40321  15.266  42.918  13.023
80819W        W40322  16.091  23.668   3.166
80820W        W40323  16.684  37.554  13.374
80821W        W40324  30.106  20.579   2.180
80822W        W40325   6.756   2.792   0.898
80823W        W40326  19.204  38.045   3.203
80824W        W40327  30.920  17.710  10.539
80825W        W40328  41.386  30.415   0.277
80826W        W40329  35.050  25.028   0.780
80827W        W40330  33.454  27.657   0.460
80828W        W40331  36.046  28.084  12.079
80829W        W40332  31.923  27.025  14.511
80830W        W40333  28.021  23.003   4.745
80831W        W40334  25.525  12.299   1.821
80832W        W40335  41.806  43.397   1.915
80833W        W40336  14.114  18.579   2.826
80834W        W40337  31.903  22.695  14.012
80835W        W40338  13.669  15.612   3.719
80836W        W40339  22.129  15.653   4.820
80837W        W40340  37.404  35.474  11.932
80838W        W40341  32.616  34.891   3.355
80839W        W40342  19.543  39.560  12.971
80840W        W40343  20.222   1.257   2.280
80841W        W40344   3.821  11.248  11.548
80842W        W40345  36.878  43.380  10.909
80843W        W40346  16.658  12.207  10.618
80844W        W40347  20.136   7.876   1.380
80845W        W40348  13.169  31.537  13.439
80846W        W40349  26.624   8.679   4.645
80847W        W40350  10.326  13.175   2.268
80848W        W40351  15.109  37.508  13.942
80849W        W40352  41.872   9.358   0.747
80850W        W40353  21.082   9.323   0.320
80851W        W40354  27.119  30.488   4.132
80852W        W40355  13.652  16.577  12.904
80853W        W40356  19.725  35.474  11.375
80854W        W40357   1.241   5.378   2.346
80855W        W40358  21.591  10.283   4.696
80856W        W40359  23.148  16.073  14.327
80857W        W40360   6.356  19.245  12.514
80858W        W40361  21.137  28.546  12.496
80859W        W40362  13.216  18.283  13.502
80860W        W40363  21.234   8.745  12.870
80861W        W40364  15.598  24.144  12.539
80862W        W40365  34.997  13.803  13.336
80863W        W40366  26.165  38.025   1.416
80864W        W40367  24.062   5.230   2.684
80865W        W40368  13.753  35.382  13.946
80866W        W40369  39.852  32.107   2.720
80867W        W40370  23.159   1.809  13.506
80868W        W40371  28.077  31.481  14.778
80869W        W40372  43.301  34.493  12.829
80870W        W40373  28.995  25.017  12.435
80871W        W40374  44.359  21.572   0.798
80872W        W40375  12.789  41.016   4.321
80873W        W40376  36.870   2.301   4.271
80874W        W40377   2.727  11.137  14.494
80875W        W40378  25.530  20.091   0.305
80876W        W40379   1.816   0.273  11.979
80877W        W40380  31.921   3.887   2.240
80878W        W40381  11.256  22.216   3.729
80879W        W40382  20.257   1.295   4.724
80880W        W40383   9.382  33.424   0.761
80881W        W40384  15.200  32.619   1.934
80882W        W40385  43.475  28.532   9.956
80883W        W40386   4.871  40.982  10.995
80884W        W40387  30.628  37.904  12.096
80885W        W40388   7.215  22.615   0.317
80886W        W40389   7.863   4.739  10.583
80887W        W40390   8.863  32.486   2.268
80888W        W40391  32.589  23.041  14.001
80889W        W40392   3.304   1.447  12.916
80890W        W40393   2.401  25.544  10.552
80891W        W40394  25.521  14.791  14.995
80892W        W40395  13.738   1.824  11.037
80893W        W40396   9.340   3.800   1.835
80894W        W40397  10.656  31.014   3.753
80895W        W40398  38.330   4.765   0.792
80896W        W40399  44.842  28.114  12.536
80897W        W40400  40.863   3.378   0.347
80898W        W40401  20.167  37.967  10.452
80899W        W40402   9.680  38.325  12.441
80900W        W40403  33.000  44.979   1.353
80901W        W40404  20.108  31.512   3.253
80902W        W40405  18.141  27.152   0.353
80903W        W40406  39.426   0.840   2.762
80904W        W40407   9.667   1.954  13.321
80905W        W40408  10.864  36.502  11.946
80906W        W40409   4.425   1.760   2.375
80907W        W40410   2.412  37.382   2.862
80908W        W40411  41.014   5.257  13.515
80909W        W40412   7.398  17.276  14.880
80910W        W40413   4.708  23.068   0.759
80911W        W40414  17.232  23.109  12.918
80912W        W40415  33.396  18.586  10.904
80913W        W40416  36.876  20.028  10.606
80914W        W40417  40.446  27.624   0.893
80915W        W40418  40.014  27.177   0.840
80916W        W40419  37.546  10.876  13.886
80917W        W40420  17.105   3.828  11.562
80918W        W40421   0.804   8.267  14.438
80919W        W40422  16.590  14.246   4.127
80920W        W40423  19.120  35.025  12.872
80921W        W40424   8.769  42.465  14.343
80922W        W40425  24.066  24.083   2.762
80923W        W40426  43.496  33.879  12.524
80924W        W40427  13.161   2.866   1.922
80925W        W40428  26.644  12.233   4.200
80926W        W40429  27.015   6.384   4.216
80927W        W40430  38.062  21.172  14.964
80928W        W40431   9.683   1.792   1.756
80929W        W40432  44.966  33.586  12.413
80930W        W40433  42.029  20.158   1.781
80931W        W40434  24.052  31.116   3.189
80932W        W40435  22.100   0.258   3.813
80933W        W40436  31.016   7.261   5.287
80934W        W40437  44.761   7.743   1.376
80935W        W40438   5.901   9.311  12.046
80936W        W40439  39.393   2.232   0.728
80937W        W40440  23.131  29.986  14.340
80938W        W40441  14.660   6.412  12.499
80939W        W40442  33.610  23.680   0.816
80940W        W40443  20.177  35.932   1.745
80941W        W40444  26.464   1.295  13.895
80942W        W40445  26.551  13.622  14.438
80943W        W40446  23.072   5.748   3.366
80944W        W40447  37.540  13.787   1.926
80945W        W40448  18.097  36.363  14.903
80946W        W40449  23.172  23.606  12.883
80947W        W40450  19.269  39.345  11.546
80948W        W40451  12.213  22.638   4.152
80949W        W40452  11.759  10.302   9.979
80950W        W40453  26.018  35.047   1.786
80951W        W40454  19.546  28.057  13.363
80952W        W40455  35.862   0.369   0.836
80953W        W40456  19.077  20.565   0.727
80954W        W40457   8.847  22.607   0.934
80955W        W40458  40.369  37.064   1.721
80956W        W40459  26.676  34.883   5.090
80957W        W40460  27.087  38.892   3.637
80958W        W40461  29.021   3.241   4.753
80959W        W40462  28.468  28.010   4.291
80960W        W40463  16.809  32.591   3.697
80961W        W40464  19.109   2.437  12.856
80962W        W40465   3.245  23.561  12.829
80963W        W40466  36.545  34.064  12.512
80964W        W40467  27.064  17.653  13.971
80965W        W40468  21.697  39.456  12.390
80966W        W40469  14.810  19.058   2.829
80967W        W40470  38.062  38.879   3.321
80968W        W40471  20.662  28.663  12.513
80969W        W40472  15.661  35.425   4.133
80970W        W40473  42.866  38.399   4.113
80971W        W40474   4.845  30.938   0.296
80972W        W40475   0.411  38.503   1.450
80973W        W40476  27.568   3.869  10.090
80974W        W40477  12.270  34.917   2.893
80975W        W40478  32.470  23.649  13.036
80976W        W40479  44.353   5.439   0.862
80977W        W40480  26.659   2.374  13.861
80978W        W40481   1.373  13.164  11.460
80979W        W40482  43.983  10.207   2.360
80980W        W40483   9.225  31.523   2.882
80981W        W40484  16.581  36.411  14.336
80982W        W40485  30.531  39.947   3.208
80983W        W40486   0.475  24.636  13.397
80984W        W40487   5.897   5.884   2.396
80985W        W40488  29.078  29.951  12.837
80986W        W40489  13.649   2.460  14.469
80987W        W40490  30.913   9.272  14.968
80988W        W40491  26.010  14.629  11.578
80989W        W40492  22.045  13.703  14.785
80990W        W40493  31.128  35.530   3.772
80991W        W40494  42.986  10.235   3.797
80992W        W40495   5.782  14.227  13.841
80993W        W40496  39.897  24.627   2.666
80994W        W40497  30.076  30.034  14.277
80995W        W40498  10.336  12.239   4.618
80996W        W40499  37.401  37.006   0.252
80997W        W40500  43.802  24.999   1.343
80998W        W40501  42.378   2.345   0.851
80999W        W40502  19.711  38.413  11.489
81000W        W40503  33.543  24.006   1.321
81001W        W40504  11.825  10.143   1.801
81002W        W40505  42.384  31.511  10.596
81003W        W40506  25.672  30.911  14.974
81004W        W40507  21.757  40.416   3.360
81005W        W40508  16.311  12.756  13.476
81006W        W40509  25.614  24.140  14.792
81007W        W40510  19.186   1.772  11.518
81008W        W40511  16.577  21.215  11.399
81009W        W40512  13.149  31.063  12.967
81010W        W40513  43.404   0.855   1.737
81011W        W40514  18.557  29.487   1.338
81012W        W40515  18.051   2.966  11.025
81013W        W40516  25.610  21.047   2.264
81014W        W40517  31.515  32.931   2.711
81015W        W40518  43.872  20.093   0.757
81016W        W40519  40.008  20.082   2.779
81017W        W40520  34.440  36.353  12.095
81018W        W40521  39.974   7.271   1.753
81019W        W40522   1.322  29.155   4.644
81020W        W40523  38.879  43.289  12.580
81021W        W40524   4.399  35.061   1.703
81022W        W40525  22.213   4.395  14.783
81023W        W40526  34.893  21.733  14.857
81024W        W40527   7.767  22.048   1.301
81025W        W40528  40.799  37.528  10.519
81026W        W40529  23.073  43.966  14.511
81027W        W40530   1.819  16.784   1.400
81028W        W40531  35.855  10.284  13.397
81029W        W40532  18.607  17.198  14.800
81030W        W40533  23.702   2.315  10.417
81031W        W40534  10.814  13.796  13.379
81032W        W40535  25.627  28.603  13.856
81033W        W40536  13.770   9.704   2.718
81034W        W40537  30.591  23.574   9.956
81035W        W40538  41.532  39.897   1.729
81036W        W40539  17.795  30.140  13.536
81037W        W40540   5.856  26.971   1.371
81038W        W40541  17.197   5.240   2.801
81039W        W40542  26.174  25.167  11.480
81040W        W40543  36.862  26.116   0.372
81041W        W40544  19.272  40.978  11.995
81042W        W40545  25.017  33.528   4.299
81043W        W40546  40.006  23.217   4.818
81044W        W40547  43.437  44.445  10.088
81045W        W40548  41.923  14.322  12.852
81046W        W40549  17.217  20.249  11.068
81047W        W40550  41.382   1.292  11.928
81048W        W40551   7.686  17.712   4.813
81049W        W40552  43.431  25.011  13.837
81050W        W40553   2.871  43.856   2.808
81051W        W40554  15.798  20.579   4.297
81052W        W40555  41.391  24.188   4.808
81053W        W40556  27.136   0.749  13.900
81054W        W40557  37.555  32.495  12.844
81055W        W40558  17.243  37.542   0.336
81056W        W40559  40.911  14.704  13.508
81057W        W40560  32.066  29.009  14.283
81058W        W40561   3.888  25.121   3.634
81059W        W40562  15.802  24.189  12.978
81060W        W40563  26.573  30.522   4.672
81061W        W40564   6.364   4.339   1.801
81062W        W40565  15.643  18.160   2.719
81063W        W40566  41.304  17.199  11.068
81064W        W40567  37.049  25.541   3.695
81065W        W40568  11.342  30.967   5.589
81066W        W40569  23.234  23.504   0.791
81067W        W40570   8.164   5.887   3.750
81068W        W40571  33.387  25.501   3.841
81069W        W40572  16.747   5.371  10.464
81070W        W40573  36.976  16.622  12.938
81071W        W40574  23.545  40.982   3.333
81072W        W40575  32.889  24.635   1.903
81073W        W40576  34.890   0.485  11.535
81074W        W40577  37.064  29.462  12.081
81075W        W40578   4.826  25.087  13.972
81076W        W40579  33.003   6.794  14.907
81077W        W40580   3.811  21.114  13.043
81078W        W40581   6.839  32.011   4.695
81079W        W40582  37.535  23.103   2.901
81080W        W40583  44.277  23.077  11.393
81081W        W40584  41.478  25.707   2.191
81082W        W40585  29.175  22.719   4.608
81083W        W40586  34.072  43.321  10.923
81084W        W40587  20.240  22.596   1.874
81085W        W40588   6.897  44.760   2.327
81086W        W40589   3.258  42.324  12.531
81087W        W40590  11.203  37.519  13.498
81088W        W40591  20.071  13.313  12.860
81089W        W40592  16.570  32.957  13.372
81090W        W40593  41.500   9.723   2.367
81091W        W40594   7.887  30.565  10.001
81092W        W40595  36.363  41.534  13.369
81093W        W40596  22.178   9.228   4.192
81094W        W40597   9.276  34.495   3.835
81095W        W40598   8.196  31.103   1.853
81096W        W40599   2.246  38.846  13.502
81097W        W40600  26.619   7.265  14.844
81098W        W40601   7.744  17.282   4.733
81099W        W40602  24.065  43.449   1.218
81100W        W40603  15.654  23.603  14.279
81101W        W40604  30.435  19.632  12.536
81102W        W40605  11.852  14.804   0.827
81103W        W40606   9.846  25.514  12.543
81104W        W40607  25.063  28.440  10.506
81105W        W40608  34.480   3.726  13.528
81106W        W40609  30.523  26.542  11.994
81107W        W40610  22.617  17.736   2.691
81108W        W40611   2.737  27.582   1.366
81109W        W40612  24.163  30.645   0.775
81110W        W40613   2.909   8.665  14.365
81111W        W40614  34.930  41.351  13.430
81112W        W40615  14.771  40.870  10.944
81113W        W40616   1.735   7.278  14.934
81114W        W40617  29.059  35.440  10.487
81115W        W40618   5.401   4.298   4.721
81116W        W40619  20.249   9.281   0.729
81117W        W40620  10.762   8.830   3.768
81118W        W40621  19.164   2.337   3.261
81119W        W40622   7.200  41.790  14.869
81120W        W40623  34.980  42.785  12.895
81121W        W40624  41.791  31.896  13.836
81122W        W40625  31.016  38.541  14.934
81123W        W40626  15.258   2.964  14.813
81124W        W40627  23.224  40.470   0.824
81125W        W40628  25.101  25.492   0.252
81126W        W40629  38.413  43.897  11.923
81127W        W40630  40.885   1.801   4.227
81128W        W40631   0.404  29.063  13.404
81129W        W40632  33.009   8.846  14.360
81130W        W40633   2.460  15.162  10.452
81131W        W40634   9.197  32.484   1.265
81132W        W40635  38.431   2.334  12.499
81133W        W40636   4.814  27.008   0.285
81134W        W40637  42.017  34.381  13.792
81135W        W40638  18.636  10.638   4.153
81136W        W40639  30.421   8.321  11.041
81137W        W40640  21.126   3.780  10.097
81138W        W40641  29.655  20.635   2.323
81139W        W40642  41.824  24.166  10.984
81140W        W40643  16.713  30.965  13.856
81141W        W40644   8.354  33.529  11.372
81142W        W40645  17.676  13.691  14.352
81143W        W40646  21.222  38.973  12.827
81144W        W40647   0.906  37.365  10.047
81145W        W40648  39.384  33.465  12.393
81146W        W40649  19.104  26.576  10.100
81147W        W40650   9.759  28.179  10.619
81148W        W40651   1.334  20.762   4.812
81149W        W40652  34.460  16.758   1.273
81150W        W40653  43.982  30.627  12.847
81151W        W40654  13.316  36.405   1.864
81152W        W40655  18.656  16.732   2.286
81153W        W40656  12.285  26.696   2.359
81154W        W40657  37.023  40.042  12.062
81155W        W40658  13.764   9.275   4.780
81156W        W40659  14.222  27.528   3.734
81157W        W40660  28.555  36.582   1.293
81158W        W40661  17.698  21.543  13.050
81159W        W40662  31.036  32.114   4.632
81160W        W40663  42.934   3.270   0.288
81161W        W40664  34.084  12.710   1.828
81162W        W40665  39.517  39.410  14.886
81163W        W40666  16.159  16.201   4.306
81164W        W40667   3.430   2.361   0.778
81165W        W40668   7.208   1.451  12.383
81166W        W40669  16.282  42.445  10.984
81167W        W40670  43.480   9.157   2.300
81168W        W40671  13.135  36.912  10.072
81169W        W40672  16.113  38.869  13.407
81170W        W40673  38.071  41.970   3.277
81171W        W40674   5.774  26.507   1.891
81172W        W40675  33.983  37.912   2.805
81173W        W40676  41.807  11.146  13.830
81174W        W40677  35.584  31.565   2.760
81175W        W40678  13.835  13.236   3.270
81176W        W40679  33.387  25.134   1.230
81177W        W40680  16.213  41.483   0.419
81178W        W40681  16.603   3.873  14.807
81179W        W40682  30.062  22.747   3.742
81180W        W40683  19.583  39.937  11.018
81181W        W40684  40.830  22.186   2.354
81182W        W40685  17.706   3.374  11.592
81183W        W40686   7.308  20.218   2.762
81184W        W40687  27.030   9.284   3.183
81185W        W40688  28.488  25.557  13.317
81186W        W40689   4.351  38.998  11.020
81187W        W40690   6.408  39.320  10.944
81188W        W40691  12.809  42.014  13.524
81189W        W40692  39.906  38.402  14.462
81190W        W40693  14.095  39.469  10.455
81191W        W40694  10.661  29.086   1.416
81192W        W40695   3.725  41.393   1.882
81193W        W40696   8.880  11.163  11.512
81194W        W40697  29.486  24.194  14.363
81195W        W40698  42.951  28.471   0.734
81196W        W40699  35.378  22.647  13.890
81197W        W40700  14.110  18.065   2.391
81198W        W40701   0.404  18.058  14.498
81199W        W40702  33.390  12.622  11.536
81200W        W40703   3.809   2.822  11.125
81201W        W40704  44.270  41.325   1.449
81202W        W40705  34.369  14.782  10.927
81203W        W40706  35.856  21.730  14.361
81204W        W40707  14.676  33.454  12.824
81205W        W40708   3.448  27.126   1.780
81206W        W40709  27.085  12.156  13.829
81207W        W40710  35.872   2.240  11.084
81208W        W40711  14.786  16.697   0.481
81209W        W40712  23.073   6.391   3.697
81210W        W40713  33.914  25.647   9.506
81211W        W40714   3.742  19.741  12.978
81212W        W40715  18.567  21.534  14.818
81213W        W40716  12.293  19.675  10.907
81214W        W40717  30.931   6.917  11.592
81215W        W40718  20.236  30.483  10.502
81216W        W40719  35.449  14.813   2.236
81217W        W40720  37.906  44.854  13.803
81218W        W40721  25.487   7.724   1.914
81219W        W40722  35.549  15.591  12.034
81220W        W40723  35.961  37.039   0.928
81221W        W40724   4.861   8.350   0.444
81222W        W40725  13.264  35.036   5.658
81223W        W40726  39.880  38.912   0.381
81224W        W40727  32.422  20.768   3.712
81225W        W40728   1.429  38.383   1.299
81226W        W40729   0.350  39.415  13.806
81227W        W40730  10.771   3.714  10.427
81228W        W40731  23.514  21.757  12.414
81229W        W40732  22.236  14.258   4.203
81230W        W40733  30.498  22.229  14.830
81231W        W40734   2.811   3.875   4.221
81232W        W40735  23.636  12.627   3.312
81233W        W40736   7.897  16.236  13.032
81234W        W40737  11.188  37.967   1.893
81235W        W40738  18.139  43.273   3.690
81236W        W40739   8.684  26.182  12.521
81237W        W40740  10.226  34.401  14.425
81238W        W40741  21.552  23.662   1.919
81239W        W40742  28.435  11.145  11.923
81240W        W40743  42.343   2.383   3.847
81241W        W40744  39.437   0.883  11.568
81242W        W40745  18.740  21.668  12.959
81243W        W40746   2.743  26.495  12.885
81244W        W40747  39.392  30.931   4.305
81245W        W40748  38.042  10.274   0.243
81246W        W40749  33.397  32.470   3.757
81247W        W40750  17.764  26.126   1.862
81248W        W40751  29.480  24.160   3.249
81249W        W40752  34.519  29.974   2.665
81250W        W40753  13.750   1.283  10.480
81251W        W40754  12.149  15.234   1.220
81252W        W40755  39.532   5.237   5.220
81253W        W40756  26.098  20.236   0.830
81254W        W40757   2.950  42.494  11.573
81255W        W40758  21.614  44.450   1.302
81256W        W40759  30.606  26.485  12.506
81257W        W40760   8.387  17.095   1.294
81258W        W40761   2.966   2.766  12.919
81259W        W40762  14.642  11.366   2.804
81260W        W40763  36.535  43.473  12.580
81261W        W40764  15.787  33.408  11.037
81262W        W40765  38.365   0.863  12.865
81263W        W40766  35.516  24.010  11.434
81264W        W40767   8.876  41.344   1.704
81265W        W40768  33.554   2.814  12.364
81266W        W40769  16.584   8.662   0.846
81267W        W40770  33.976  39.046  11.422
81268W        W40771  35.412  39.815   0.454
81269W        W40772   7.783  19.227   1.823
81270W        W40773  27.513   5.770   4.632
81271W        W40774  28.160   8.248  14.931
81272W        W40775   6.725  11.317   0.873
81273W        W40776  13.651   2.231   4.832
81274W        W40777  40.041  37.415   0.787
81275W        W40778  14.608  27.603   1.248
81276W        W40779  39.882   2.308  12.522
81277W        W40780  24.199   2.848   1.299
81278W        W40781  15.583  24.206  10.514
81279W        W40782  38.033   0.816   0.897
81280W        W40783  36.453  39.000  14.011
81281W        W40784  17.294  38.463   2.238
81282W        W40785  25.710  41.468  12.566
81283W        W40786   1.876  24.019  11.387
81284W        W40787  33.523  42.005   1.856
81285W        W40788  18.738  31.599   1.408
81286W        W40789   1.827  25.657   2.325
81287W        W40790  35.550  34.374  10.448
81288W        W40791  16.622  18.788   1.726
81289W        W40792  20.036  31.009  14.797
81290W        W40793  44.784  35.403  11.954
81291W        W40794  28.606  35.886   2.301
81292W        W40795  41.910   2.247  12.575
81293W        W40796   8.204  44.346   4.667
81294W        W40797  36.482   3.883  14.358
81295W        W40798  28.133   4.811   5.285
81296W        W40799  26.150  25.570  13.972
81297W        W40800   4.262  38.510  13.399
81298W        W40801  20.132  23.530   4.735
81299W        W40802   3.810  28.484   2.733
81300W        W40803   3.788   9.362   0.250
81301W        W40804   8.870  21.164   3.748
81302W        W40805  18.708  37.540  12.007
81303W        W40806  15.583   6.378   0.295
81304W        W40807   5.213   4.767   4.125
81305W        W40808  21.698  30.971   1.252
81306W        W40809   0.988  12.670  12.004
81307W        W40810  22.111  30.027  11.896
81308W        W40811   9.822  41.963  10.994
81309W        W40812  11.274   1.887   4.182
81310W        W40813  35.428  20.143   2.679
81311W        W40814  28.134  42.398  14.335
81312W        W40815  26.200  41.891   2.370
81313W        W40816  35.473   1.835  10.460
81314W        W40817  11.743  40.544   2.878
81315W        W40818  42.945   1.841   3.276
81316W        W40819  38.873  12.298   3.714
81317W        W40820  31.977  34.468   4.348
81318W        W40821  17.777  21.197   3.367
81319W        W40822  21.567  13.321  12.533
81320W        W40823  14.243  29.963  12.049
81321W        W40824  20.554  11.286   1.737
81322W        W40825  29.456  38.056  11.487
81323W        W40826  19.750  35.911  14.492
81324W        W40827  13.718  32.634   2.290
81325W        W40828  39.045  27.546   1.213
81326W        W40829  36.538  32.124   3.856
81327W        W40830  30.653   1.407  13.890
81328W        W40831  39.392   7.706  13.007
81329W        W40832  11.311  42.793  12.533
81330W        W40833  19.538  11.650  11.128
81331W        W40834   6.262   0.895   0.338
81332W        W40835  33.517   1.796  10.925
81333W        W40836  39.026  21.253  14.476
81334W        W40837   9.207  44.329  13.505
81335W        W40838   0.279   0.866  13.802
81336W        W40839  24.633  35.372   4.763
81337W        W40840   8.355   7.849   4.113
81338W        W40841  44.805  23.090   1.897
81339W        W40842   9.267  16.193   5.088
81340W        W40843  24.513  37.043   3.817
81341W        W40844  34.968  21.606   0.254
81342W        W40845   3.277   8.775  13.494
81343W        W40846  10.356   1.940   3.168
81344W        W40847   0.904   5.304   4.796
81345W        W40848  42.869  12.313  13.023
81346W        W40849  13.629  21.757  11.383
81347W        W40850   5.284   1.310  12.467
81348W        W40851  42.783   1.445   4.307
81349W        W40852   9.805  39.420   1.265
81350W        W40853  12.166   8.787  13.399
81351W        W40854  33.973  10.322   0.807
81352W        W40855   3.782   2.815   5.685
81353W        W40856  39.906  43.940  12.839
81354W        W40857  15.228   6.377  11.056
81355W        W40858  12.744  27.157   2.380
81356W        W40859  39.045   3.931  14.986
81357W        W40860   2.361  14.644  11.982
81358W        W40861  28.043  10.715  13.547
81359W        W40862   6.247   1.845   2.196
81360W        W40863  32.941  16.221   1.791
81361W        W40864  24.111  12.217  14.015
81362W        W40865   9.755  43.336  14.999
81363W        W40866  13.666   9.381   1.837
81364W        W40867  40.935   2.398  11.612
81365W        W40868  21.535  10.197  14.948
81366W        W40869   5.853  36.941  10.436
81367W        W40870  12.247  28.100  13.477
81368W        W40871  37.969  32.418   4.258
81369W        W40872  34.898   0.895   3.694
81370W        W40873  37.452   9.884   4.795
81371W        W40874  18.150  39.877  14.281
81372W        W40875  43.896   0.845  14.514
81373W        W40876   1.439   9.751  11.379
81374W        W40877  18.729   9.257   4.252
81375W        W40878  15.207   4.910  13.391
81376W        W40879  20.629   0.277  10.492
81377W        W40880  15.778  20.211   4.772
81378W        W40881  22.654  44.755   4.682
81379W        W40882  22.173  17.734   4.256
81380W        W40883  25.090  15.242   4.250
81381W        W40884  10.731  26.593   1.426
81382W        W40885  10.668  10.690   1.713
81383W        W40886  21.174  33.956  10.954
81384W        W40887  19.670  31.506  14.425
81385W        W40888   2.285  13.198  12.556
81386W        W40889  12.810  41.812   2.720
81387W        W40890  23.014  24.156   0.752
81388W        W40891  22.146  21.223   2.675
81389W        W40892  16.138  37.973   3.734
81390W        W40893  18.247  34.001  11.428
81391W        W40894   8.683  38.858   3.242
81392W        W40895  37.402  26.675  11.914
81393W        W40896  17.092  21.046  10.016
81394W        W40897  39.534  44.951   0.342
81395W        W40898  29.967  23.647  11.402
81396W        W40899  10.662  39.971   0.293
81397W        W40900  15.109  15.666  12.451
81398W        W40901  13.234  34.012   4.747
81399W        W40902  20.212  30.067  10.412
81400W        W40903  21.711  33.897   0.249
81401W        W40904  35.962  19.709  14.880
81402W        W40905  26.481  11.191  13.945
81403W        W40906  31.513  29.483   2.344
81404W        W40907   5.812  35.918   3.760
81405W        W40908  29.495   6.349   1.920
81406W        W40909   8.831  32.629  11.083
81407W        W40910  14.662  43.974  12.461
81408W        W40911   6.335  43.380  12.923
81409W        W40912  40.798   9.269  11.444
81410W        W40913   5.765  21.673   0.423
81411W        W40914  42.371  10.189  11.457
81412W        W40915  17.737  15.645  13.926
81413W        W40916  42.301  33.900  14.838
81414W        W40917  20.064  20.195   4.598
81415W        W40918  23.984   3.266  12.378
81416W        W40919  42.906   9.654   2.679
81417W        W40920  29.107   3.312  11.088
81418W        W40921  32.939  36.382   0.882
81419W        W40922  41.352   6.768  11.510
81420W        W40923  36.953   6.897  14.770
81421W        W40924  30.491  34.500   3.868
81422W        W40925  27.515  40.011  14.779
81423W        W40926  42.455   1.973  14.343
81424W        W40927  37.030  18.704  13.016
81425W        W40928  41.875   6.336  10.145
81426W        W40929  24.528  14.632  12.844
81427W        W40930  39.495   9.752   1.272
81428W        W40931  11.693   9.806   1.787
81429W        W40932  15.138  32.613  13.401
81430W        W40933  29.033  18.553  13.030
81431W        W40934  43.006  14.700   2.717
81432W        W40935  39.923   6.740   3.846
81433W        W40936  32.102  19.073   4.165
81434W        W40937  10.645  20.666  13.419
81435W        W40938  28.469   0.469   2.721
81436W        W40939   5.316  36.468   4.610
81437W        W40940  44.935  22.624  10.520
81438W        W40941  24.985   2.800  14.806
81439W        W40942  28.051   2.851   3.312
81440W        W40943  15.769  11.200  10.023
81441W        W40944  13.279  21.029  11.453
81442W        W40945  26.966  24.099  10.526
81443W        W40946  34.538   0.907   1.299
81444W        W40947   3.457  35.430  12.048
81445W        W40948  17.200  22.061  14.812
81446W        W40949  30.981  11.702   1.758
81447W        W40950  33.009  42.907  12.907
81448W        W40951  39.536   6.829  11.534
81449W        W40952  35.566   4.826  13.523
81450W        W40953  28.008  19.278  15.000
81451W        W40954  29.053  25.093   4.230
81452W        W40955  15.098   3.874   3.319
81453W        W40956  26.046  23.522   2.738
81454W        W40957  31.618  19.246   3.278
81455W        W40958  10.185  12.748   4.231
81456W        W40959   3.731   5.318   0.913
81457W        W40960  17.766  20.240  12.922
81458W        W40961  23.704  36.349  14.867
81459W        W40962  30.084   9.821   4.283
81460W        W40963  23.661   3.732   1.288
81461W        W40964   3.954   0.295   3.229
81462W        W40965  27.122  11.196   3.333
81463W        W40966  23.619  22.559  14.389
81464W        W40967  38.822  16.570   1.782
81465W        W40968  14.676  26.488   2.823
81466W        W40969  25.103  36.093  13.793
81467W        W40970  24.531  40.974  12.913
81468W        W40971  39.883  15.590  12.553
81469W        W40972   7.704  17.715   0.788
81470W        W40973  40.873  32.913   3.202
81471W        W40974   0.854  31.609   2.353
81472W        W40975   0.793   8.681  11.891
81473W        W40976  18.556   6.356  14.861
81474W        W40977  33.034  32.448  10.957
81475W        W40978   3.854   2.414  13.428
81476W        W40979  27.985  11.733   3.711
81477W        W40980  36.479  44.934   4.135
81478W        W40981   0.864  43.016  13.026
81479W        W40982  15.326  30.573   2.278
81480W        W40983  11.303  22.009  13.047
81481W        W40984  41.507  14.613  11.541
81482W        W40985  27.533  19.568   2.754
81483W        W40986  35.551   7.365  11.023
81484W        W40987  36.552  14.835   2.673
81485W        W40988  31.570  12.129  13.508
81486W        W40989  44.759  13.654  13.015
81487W        W40990   5.331  11.665  12.563
81488W        W40991  43.890   9.366   1.442
81489W        W40992  10.327  16.314  14.332
81490W        W40993  16.160  27.068  13.025
81491W        W40994  15.805   6.894   3.648
81492W        W40995  43.378   3.379  13.480
81493W        W40996  33.103   2.426   2.825
81494W        W40997  39.819  40.005  12.458
81495W        W40998   6.897   6.784   2.889
81496W        W40999   5.767  38.374  14.454
81497W        W41000  37.551  39.943  10.603
81498W        W41001  10.837   7.912   2.336
81499W        W41002  18.106  33.419  13.407
81500W        W41003  23.179  28.176   3.680
81501W        W41004  19.664  16.645   1.913
81502W        W41005  30.041  23.065  12.495
81503W        W41006   6.688  36.472   2.763
81504W        W41007  27.038  27.554   3.828
81505W        W41008   9.229  38.874   4.223
81506W        W41009  26.197  13.294  14.778
81507W        W41010  36.593  28.001   5.180
81508W        W41011   3.227  18.786  12.984
81509W        W41012  19.758  44.382   0.804
81510W        W41013   2.373   9.282   2.864
81511W        W41014  29.644   5.902  12.001
81512W        W41015   6.274  37.923  13.019
81513W        W41016  28.945  13.256   3.855
81514W        W41017  41.933   4.860  14.769
81515W        W41018   6.188  43.475  11.496
81516W        W41019  37.899  20.233  11.059
81517W        W41020  24.669  34.394  14.759
81518W        W41021  35.068  34.605   5.304
81519W        W41022  23.008   2.952   0.439
81520W        W41023  37.497  22.584   0.421
81521W        W41024  43.392  32.453   4.673
81522W        W41025  42.010   6.292  13.360
81523W        W41026   3.225  12.820   4.284
81524W        W41027  37.430   3.236  14.346
81525W        W41028  44.903  27.634  12.421
81526W        W41029  28.531  18.718   2.263
81527W        W41030  32.954  11.721  13.845
81528W        W41031   8.245  22.721  12.472
81529W        W41032  44.929   9.743   1.786
81530W        W41033  17.137   6.725  14.867
81531W        W41034  28.013  38.338   2.677
81532W        W41035  26.962  40.958   3.727
81533W        W41036  35.106  22.610  11.088
81534W        W41037   5.434  21.264   3.639
81535W        W41038  41.498  28.567  13.313
81536W        W41039   8.658  11.353  14.805
81537W        W41040  35.052  20.721  10.995
81538W        W41041  24.612  10.200   4.338
81539W        W41042  32.942  17.196  12.430
81540W        W41043   5.428  33.055  14.368
81541W        W41044  11.663  36.099   3.151
81542W        W41045   5.722   0.297  12.977
81543W        W41046  11.650  43.506   4.733
81544W        W41047  22.624   1.791   1.782
81545W        W41048  22.573  26.597  10.999
81546W        W41049   3.760  36.375   2.353
81547W        W41050  27.011   8.696  14.032
81548W        W41051   5.315   6.805  10.428
81549W        W41052   0.959   4.240  11.383
81550W        W41053  31.417  32.392  11.087
81551W        W41054  19.129  15.609   1.928
81552W        W41055  27.596   0.478   3.711
81553W        W41056  44.002  22.653   1.890
81554W        W41057  40.854  20.202  14.003
81555W        W41058  28.974   8.253  12.489
81556W        W41059   5.212   2.834   3.329
81557W        W41060  24.217  21.629   4.735
81558W        W41061  39.888  32.910   4.316
81559W        W41062  30.142   3.844  11.110
81560W        W41063  42.282  21.024  12.983
81561W        W41064  30.996  31.541   5.296
81562W        W41065   6.383  36.928   3.834
81563W        W41066   6.351   7.866  13.447
81564W        W41067  43.801  41.302   1.934
81565W        W41068  12.164  12.352   4.234
81566W        W41069  18.557  18.689   4.238
81567W        W41070  23.541   4.375   1.338
81568W        W41071  34.112  24.107   1.284
81569W        W41072  26.199  43.020  11.009
81570W        W41073  30.033   0.800   2.749
81571W        W41074   5.865  38.489   0.903
81572W        W41075  39.422  26.984  10.507
81573W        W41076  12.257  29.630   4.303
81574W        W41077  23.994  31.082   1.383
81575W        W41078  24.636  10.335   1.351
81576W        W41079  12.281  10.647  11.518
81577W        W41080  32.001  14.734   2.195
81578W        W41081  13.681  26.702   3.221
81579W        W41082   3.831   6.810   4.823
81580W        W41083   7.778  11.235   2.400
81581W        W41084  13.833   8.901   4.332
81582W        W41085  25.189   5.706  14.955
81583W        W41086  12.793  40.868  14.008
81584W        W41087   3.287   2.394  13.002
81585W        W41088  33.048  19.662  11.449
81586W        W41089  11.728  13.348   3.201
81587W        W41090  25.156  43.461   0.339
81588W        W41091  27.058  12.340  12.986
81589W        W41092   4.753   7.396   0.951
81590W        W41093  11.622  37.952  12.379
81591W        W41094  33.451  38.429  13.820
81592W        W41095  19.707   7.714  11.093
81593W        W41096   5.922  43.303   9.641
81594W        W41097  27.624  40.505   3.264
81595W        W41098  14.306  22.166  13.869
81596W        W41099  14.209  41.946   1.226
81597W        W41100  27.172  10.257  11.927
81598W        W41101  32.082  40.920  12.038
81599W        W41102  13.113  11.168  10.526
81600W        W41103  44.490  41.302   4.621
81601W        W41104  33.947  16.200  11.462
81602W        W41105  17.237  18.546   3.824
81603W        W41106   0.886  41.882   3.685
81604W        W41107  44.767   0.869   3.708
81605W        W41108  32.109  24.223   0.929
81606W        W41109  20.030  24.091  10.975
81607W        W41110  15.578  34.047  12.398
81608W        W41111  15.702  30.562   4.836
81609W        W41112  17.289   4.883  11.470
81610W        W41113  31.616  42.417  11.977
81611W        W41114  20.028  38.449  12.039
81612W        W41115   5.782  18.272  12.964
81613W        W41116   8.222  29.502   1.735
81614W        W41117   7.217   0.870   3.734
81615W        W41118  27.601  27.074   4.326
81616W        W41119  30.918  20.641   0.314
81617W        W41120   6.836  30.036   1.911
81618W        W41121  24.670  32.552   0.439
81619W        W41122  25.069  32.511  13.002
81620W        W41123  43.355  41.861   1.846
81621W        W41124   9.157  42.878   0.460
81622W        W41125  43.915  42.823  13.432
81623W        W41126  25.544  12.173  12.408
81624W        W41127  17.267  39.440   2.734
81625W        W41128  36.561   5.694   2.751
81626W        W41129  37.949   3.306  12.972
81627W        W41130  18.655  40.006   2.287
81628W        W41131  29.173  20.250  14.399
81629W        W41132   1.753  23.538  10.959
81630W        W41133  44.864   2.869  11.888
81631W        W41134   9.839  10.772  13.891
81632W        W41135   4.804  28.028   1.728
81633W        W41136   6.293  18.071  11.441
81634W        W41137  43.930   4.388  13.326
81635W        W41138  25.471  23.070  14.322
81636W        W41139   3.838   5.840   1.813
81637W        W41140  39.465  32.950   2.200
81638W        W41141  38.472  25.151   3.646
81639W        W41142  18.193  11.692   2.229
81640W        W41143  17.128   9.792  11.574
81641W        W41144   1.741  26.152   2.830
81642W        W41145  22.186   6.391  14.826
81643W        W41146   3.280  20.574  12.538
81644W        W41147  29.090  13.770   5.117
81645W        W41148  22.521  23.587  10.640
81646W        W41149  35.493  16.263   2.383
81647W        W41150  14.634  22.530  13.472
81648W        W41151  18.110  36.842  10.609
81649W        W41152   4.806  39.333   4.165
81650W        W41153   4.280  23.170  13.975
81651W        W41154  43.995  35.378   4.256
81652W        W41155   7.720  19.644  10.893
81653W        W41156  31.967  22.063  12.416
81654W        W41157  25.644   5.818  12.423
81655W        W41158  23.659   2.729   4.216
81656W        W41159   1.796  41.021  11.127
81657W        W41160  32.399  37.387   2.684
81658W        W41161  38.062  27.083  13.848
81659W        W41162   7.890  27.462   3.721
81660W        W41163  15.776  16.799   0.930
81661W        W41164   4.722   6.331   2.837
81662W        W41165  25.063  42.965   4.642
81663W        W41166  22.595  19.692  14.931
81664W        W41167  23.142  11.264   2.361
81665W        W41168  12.767  13.348  13.493
81666W        W41169  28.052  12.711  12.969
81667W        W41170  31.937  10.810  10.624
81668W        W41171  29.987  16.738  10.420
81669W        W41172  12.126  18.275  12.554
81670W        W41173  43.329  41.000  12.500
81671W        W41174  15.671  29.067  13.932
81672W        W41175   5.237  27.075   0.256
81673W        W41176  23.009  43.410  14.486
81674W        W41177  15.704  12.273  14.806
81675W        W41178   4.294   6.275   3.279
81676W        W41179  14.273  29.620  11.119
81677W        W41180  31.648  35.439   4.132
81678W        W41181  23.689  35.536   1.307
81679W        W41182  28.626  39.352  14.902
81680W        W41183  10.867  13.718  14.947
81681W        W41184  31.055  26.951   1.450
81682W        W41185  21.528  20.138  14.869
81683W        W41186  23.622  42.510  10.638
81684W        W41187   0.369  11.349  13.420
81685W        W41188  24.047  38.469  12.981
81686W        W41189  40.365  21.131   3.721
81687W        W41190  37.351  34.979   3.770
81688W        W41191  23.593  11.348   3.182
81689W        W41192  37.410   9.760  13.403
81690W        W41193  12.180  22.252  12.547
81691W        W41194  31.455  31.476  14.774
81692W        W41195  28.062  11.807   0.330
81693W        W41196  20.747  33.422  14.362
81694W        W41197   4.768   8.406  10.990
81695W        W41198   8.747  32.443  13.847
81696W        W41199  40.392  35.391  13.831
81697W        W41200  11.705  27.495  10.527
81698W        W41201  23.104  37.481   3.804
81699W        W41202  42.387  38.442  13.522
81700W        W41203  31.138  37.061  13.435
81701W        W41204  25.662  43.930   4.222
81702W        W41205   4.819  25.139  14.803
81703W        W41206   3.224  11.352  13.826
81704W        W41207  19.589  40.547  13.833
81705W        W41208  22.692   7.672   4.728
81706W        W41209  29.599  12.325  13.537
81707W        W41210   9.663   1.241   0.410
81708W        W41211  23.052  32.456  12.089
81709W        W41212  42.312  35.599   0.301
81710W        W41213  38.381  28.544  14.899
81711W        W41214   6.298  37.564   3.845
81712W        W41215   2.422  22.660   0.891
81713W        W41216  15.649  13.659  12.408
81714W        W41217   1.263  27.018  11.003
81715W        W41218   5.438  26.169   1.741
81716W        W41219  41.989  25.137  10.125
81717W        W41220  36.967  34.549   0.457
81718W        W41221   9.841   4.758   1.935
81719W        W41222  19.275  30.524   3.712
81720W        W41223  33.944  38.010  12.006
81721W        W41224  22.040  12.180  12.381
81722W        W41225   6.270  11.693  12.409
81723W        W41226   9.697  41.310   3.298
81724W        W41227  10.876   3.381  14.953
81725W        W41228  44.459  36.983   3.696
81726W        W41229  44.497  38.821   4.796
81727W        W41230   4.333  13.621  14.489
81728W        W41231  19.210  12.133   3.843
81729W        W41232   9.206  27.182   3.857
81730W        W41233  30.016  35.018   0.926
81731W        W41234  27.566   9.370   1.229
81732W        W41235  40.867   8.705  12.859
81733W        W41236  19.050  17.220   0.784
81734W        W41237  44.266   8.242  11.929
81735W        W41238  23.662  10.139  12.024
81736W        W41239  19.079  33.044   1.758
81737W        W41240  10.670  37.337   2.361
81738W        W41241  11.641   7.770   4.324
81739W        W41242  27.982  36.496   3.147
81740W        W41243  14.635  30.489  12.969
81741W        W41244  12.331  23.116  11.417
81742W        W41245  15.330  21.199  10.968
81743W        W41246  39.866  15.180   3.835
81744W        W41247   1.768   1.922   3.790
81745W        W41248   2.766   3.443   2.337
81746W        W41249  24.711   4.852  12.086
81747W        W41250  29.164  30.922  11.518
81748W        W41251  30.649  35.054   4.290
81749W        W41252  32.433  10.641   3.688
81750W        W41253  20.749  35.391  14.915
81751W        W41254  16.574  39.953  11.553
81752W        W41255   3.877  22.596  12.987
81753W        W41256  15.324  11.778   2.351
81754W        W41257   2.350  20.649  11.899
81755W        W41258  31.002  12.733   2.819
81756W        W41259  25.155   5.341  11.094
81757W        W41260   0.347  37.409   1.885
81758W        W41261  22.134  41.515  13.423
81759W        W41262  20.748   8.398  12.930
81760W        W41263  10.730  22.229  12.887
81761W        W41264  38.964  18.122  14.416
81762W        W41265   0.892  30.077   4.335
81763W        W41266  32.577   4.727   0.889
81764W        W41267  24.653  12.782  11.915
81765W        W41268  41.444  44.438   2.758
81766W        W41269  17.607  27.982   2.809
81767W        W41270  34.943  26.666  11.018
81768W        W41271  18.112  38.363  14.411
81769W        W41272  16.092  10.162   1.345
81770W        W41273  13.193  21.561  13.956
81771W        W41274  35.862  36.500  11.376
81772W        W41275   2.246   1.299   4.229
81773W        W41276  38.062   9.714  11.379
81774W        W41277   6.406  35.595   4.713
81775W        W41278  44.265  39.053  11.089
81776W        W41279  20.132  26.046   4.751
81777W        W41280  24.488  43.806  11.008
81778W        W41281  29.584  27.168   0.774
81779W        W41282  38.976  26.013   4.803
81780W        W41283   0.901  11.627   0.808
81781W        W41284  44.912   8.782  11.963
81782W        W41285  43.359  40.017   3.724
81783W        W41286   7.764  29.646  10.468
81784W        W41287   3.739  12.216   3.181
81785W        W41288  28.931  35.960  11.084
81786W        W41289  19.070  34.574  13.950
81787W        W41290  20.578  10.235   2.788
81788W        W41291  30.918  13.726  13.998
81789W        W41292   0.397  42.448   4.197
81790W        W41293  27.968  32.939   3.742
81791W        W41294  39.901  24.538  10.541
81792W        W41295  32.428  34.984   1.298
81793W        W41296  13.111   3.917  14.966
81794W        W41297  42.310  26.600  10.976
81795W        W41298  36.904  25.180   3.644
81796W        W41299   2.804  36.552  14.491
81797W        W41300  43.436  15.637  13.437
81798W        W41301   8.780  23.068  12.546
81799W        W41302  26.535  41.821  11.373
81800W        W41303  24.664  10.751  11.954
81801W        W41304   9.151  41.506  12.543
81802W        W41305  39.546  37.892  14.455
81803W        W41306  12.795  13.215  11.558
81804W        W41307  37.425  22.702  12.563
81805W        W41308  19.547  11.334  12.826
81806W        W41309  34.421   9.848   3.168
81807W        W41310  37.496   1.896  13.462
81808W        W41311  31.102  38.057   0.939
81809W        W41312  44.277  44.888  14.031
81810W        W41313  20.535  34.385   2.786
81811W        W41314  38.470  31.094  14.345
81812W        W41315   3.710  43.502   3.271
81813W        W41316  23.009  10.181  13.472
81814W        W41317   8.329  34.378  14.866
81815W        W41318  30.446  24.638  13.411
81816W        W41319  25.587  39.011   1.422
81817W        W41320   3.371   7.815   4.175
81818W        W41321   7.898  40.806  13.931
81819W        W41322   5.292  15.301   3.675
81820W        W41323  19.069  13.284  14.464
81821W        W41324  44.848  27.560   0.895
81822W        W41325  36.399  22.211  11.036
81823W        W41326  24.516   9.378  14.899
81824W        W41327   8.709  41.313  12.574
81825W        W41328   8.329  37.967   0.333
81826W        W41329  21.667   5.270   3.205
81827W        W41330  15.775  17.743  10.535
81828W        W41331  33.986   5.197  11.377
81829W        W41332  37.509  12.676  13.062
81830W        W41333   8.843  13.118  10.623
81831W        W41334  23.055  44.998   5.157
81832W        W41335  41.990   9.844  12.458
81833W        W41336   5.212  16.313   1.701
81834W        W41337  39.394  38.045  10.552
81835W        W41338  20.551  18.224  13.476
81836W        W41339  30.968  11.680   9.610
81837W        W41340  38.833  35.029   0.446
81838W        W41341  19.183   6.683  14.904
81839W        W41342  25.601   6.377   2.662
81840W        W41343  11.289  38.438   2.247
81841W        W41344  40.380  28.086   3.281
81842W        W41345  11.633  24.124   4.703
81843W        W41346  36.881  20.120   0.253
81844W        W41347   6.199  43.845   1.450
81845W        W41348  12.678  13.761   4.662
81846W        W41349  44.853  10.829  14.870
81847W        W41350  37.548  40.523  11.997
81848W        W41351  41.299  12.256   3.649
81849W        W41352  35.107  27.940  10.104
81850W        W41353  42.930  30.004  14.514
81851W        W41354  16.268  28.544   1.716
81852W        W41355   2.745  33.413   2.289
81853W        W41356  42.516  17.142   4.123
81854W        W41357  27.000  39.043   0.756
81855W        W41358  11.812  11.804  11.075
81856W        W41359  13.623  29.020  12.554
81857W        W41360  27.097  43.280   0.449
81858W        W41361  28.509   6.287   0.739
81859W        W41362  37.008  23.095   2.364
81860W        W41363  32.083  12.652   0.883
81861W        W41364  21.035  39.379   0.803
81862W        W41365   8.744   4.278   2.754
81863W        W41366  29.669  41.949  12.915
81864W        W41367   2.459  23.554   3.790
81865W        W41368  20.233  28.123  13.958
81866W        W41369  42.433  32.522   1.792
81867W        W41370  30.140  25.491   2.887
81868W        W41371  22.649  40.808  10.623
81869W        W41372  32.029   0.415   0.838
81870W        W41373  40.972  11.175   1.924
81871W        W41374  36.048  19.283   1.763
81872W        W41375  10.723  10.266   4.125
81873W        W41376  33.448   2.321   1.444
81874W        W41377  41.394  38.469  13.910
81875W        W41378  28.085  38.956  12.535
81876W        W41379   9.813  32.515   0.945
81877W        W41380  27.095   7.321  12.507
81878W        W41381   2.410  10.710   3.649
81879W        W41382  24.983  32.017  14.311
81880W        W41383  36.902  18.773   0.957
81881W        W41384  26.474  19.549   0.730
81882W        W41385  19.203  11.751  11.042
81883W        W41386  13.144   8.656   4.597
81884W        W41387  35.024   9.286   0.406
81885W        W41388   4.738  13.324  14.466
81886W        W41389  12.650  11.302   2.179
81887W        W41390  41.455  38.453   0.866
81888W        W41391  25.135  35.971   3.316
81889W        W41392  14.730  25.599  13.063
81890W        W41393  38.898  43.010  12.572
81891W        W41394  21.593  15.165   3.150
81892W        W41395   4.429   5.878   3.811
81893W        W41396  38.921   9.381   4.713
81894W        W41397  27.098  22.601  11.128
81895W        W41398  40.420  42.895  14.026
81896W        W41399  18.552   1.916  13.395
81897W        W41400  36.033   4.860  12.423
81898W        W41401  27.962   6.849  14.880
81899W        W41402  36.444  28.994   4.192
81900W        W41403  17.306  20.762   3.679
81901W        W41404   8.857  22.141   3.204
81902W        W41405  25.484  35.542   3.351
81903W        W41406  42.308  21.057   2.206
81904W        W41407  44.359  25.610  11.908
81905W        W41408  34.965  33.081  13.432
81906W        W41409  26.116   7.799  12.006
81907W        W41410  28.577   9.303   3.327
81908W        W41411  15.199   6.329   0.325
81909W        W41412   8.886   5.351  14.933
81910W        W41413  39.966  27.684  13.414
81911W        W41414  41.032  23.078   2.729
81912W        W41415  13.767   7.693  12.070
81913W        W41416  24.079  18.290   4.834
81914W        W41417  14.100  33.902  11.857
81915W        W41418  34.473  10.772   0.425
81916W        W41419   3.840  18.663  11.394
81917W        W41420  31.031  16.796  12.365
81918W        W41421  10.345  24.553  10.573
81919W        W41422  18.730  27.155   1.340
81920W        W41423  10.699  29.972  10.495
81921W        W41424   6.309  18.272   2.391
81922W        W41425  36.894  10.809  10.577
81923W        W41426  31.483  44.804   2.305
81924W        W41427  10.366  36.059  10.093
81925W        W41428   8.250  27.559  10.446
81926W        W41429  17.140   6.416  13.030
81927W        W41430  36.586  33.904   1.934
81928W        W41431   7.218   6.693  12.867
81929W        W41432   8.379  27.116   2.673
81930W        W41433  36.387   3.296   4.187
81931W        W41434  17.796  22.113   3.305
81932W        W41435  30.155  19.280   1.361
81933W        W41436   2.754   3.368   0.282
81934W        W41437  31.438  26.069   0.454
81935W        W41438  37.933   3.429  13.541
81936W        W41439  23.020  32.974   0.789
81937W        W41440  44.374   0.914  14.513
81938W        W41441  41.884   7.872   4.627
81939W        W41442  10.708  21.052  11.953
81940W        W41443   4.399  15.206  12.975
81941W        W41444  18.634  14.235   1.292
81942W        W41445   4.216   2.920  13.882
81943W        W41446  10.355  37.999   2.311
81944W        W41447  42.970  33.418  13.969
81945W        W41448  36.944  11.667  13.454
81946W        W41449  26.509   0.779  13.829
81947W        W41450  21.242  38.877   2.351
81948W        W41451  43.439  37.485   1.792
81949W        W41452  23.628  31.141  11.391
81950W        W41453  33.542  26.973  14.837
81951W        W41454  18.602   2.795   3.308
81952W        W41455  18.135  36.567  10.899
81953W        W41456  33.383  37.457  14.875
81954W        W41457  11.233  37.576   1.374
81955W        W41458  12.218  37.985  13.970
81956W        W41459  34.907  14.229   1.789
81957W        W41460   8.350   5.275  13.480
81958W        W41461  31.135  32.575   2.730
81959W        W41462  42.921   6.898  11.539
81960W        W41463   1.832   4.881   3.743
81961W        W41464   1.968  12.668   3.380
81962W        W41465  27.171  22.184   3.148
81963W        W41466  36.931  18.050   2.770
81964W        W41467  36.864  33.105  12.068
81965W        W41468   3.363  11.864  13.813
81966W        W41469   0.334  31.609  13.951
81967W        W41470  33.905  16.259   2.288
81968W        W41471  21.710   7.722   0.324
81969W        W41472  33.563  30.041  10.968
81970W        W41473  30.075  35.108   1.270
81971W        W41474   8.226   6.776   3.803
81972W        W41475  11.726  42.293   4.666
81973W        W41476  43.902  16.593   2.212
81974W        W41477  22.125  29.054   0.877
81975W        W41478  20.734  44.765  13.535
81976W        W41479  14.167  10.692   1.397
81977W        W41480  42.833  15.103  12.455
81978W        W41481  25.035  26.093  13.387
81979W        W41482  20.543  44.365  11.984
81980W        W41483  14.335  10.638  12.946
81981W        W41484  21.247  43.410  14.296
81982W        W41485  32.391  14.269   0.426
81983W        W41486  29.586  37.962   2.202
81984W        W41487  25.088  27.488  12.906
81985W        W41488  34.507  32.101   2.751
81986W        W41489  30.457  40.023   3.779
81987W        W41490  20.264  41.925  10.637
81988W        W41491  31.053  25.032   2.879
81989W        W41492  28.126   0.898  11.574
81990W        W41493  20.029  23.641  14.320
81991W        W41494   2.955   3.255  12.873
81992W        W41495  24.037   4.325  14.365
81993W        W41496  32.068   6.778   4.171
81994W        W41497  32.451  26.589  14.317
81995W        W41498  43.852  26.566   1.306
81996W        W41499   8.330   7.339   4.301
81997W        W41500   1.262  26.029   5.220
81998W        W41501  25.113  14.782  14.472
81999W        W41502  21.614  43.856   0.304
82000W        W41503  17.266  12.847  12.426
82001W        W41504  38.564   4.382   5.103
82002W        W41505  25.179  41.438  14.475
82003W        W41506  35.966   6.331  13.533
82004W        W41507  17.074   9.272   0.785
82005W        W41508  43.789  31.068   4.643
82006W        W41509  36.372  21.681  11.408
82007W        W41510  40.884  40.892  13.530
82008W        W41511  23.988  23.202   1.294
82009W        W41512  39.510  31.000   0.867
82010W        W41513  36.905  34.050  13.337
82011W        W41514   7.224  11.321  11.462
82012W        W41515   1.314  22.111  14.395
82013W        W41516  18.721  33.563   1.409
82014W        W41517  42.516  31.950  10.118
82015W        W41518   1.462  30.002  13.414
82016W        W41519   8.220  26.584  13.993
82017W        W41520   6.879  24.552  10.625
82018W        W41521  11.299  23.150  13.546
82019W        W41522   1.358  10.669   0.364
82020W        W41523  34.611  30.641   4.641
82021W        W41524  15.752  22.684   1.348
82022W        W41525   6.719  41.965   4.672
82023W        W41526  25.072  15.315  14.434
82024W        W41527  21.041  44.965  11.052
82025W        W41528  44.810  22.516   1.828
82026W        W41529  35.530  20.540  13.889
82027W        W41530  35.093  31.560  14.502
82028W        W41531  33.611  41.477  11.597
82029W        W41532   6.416  17.610  14.946
82030W        W41533  22.052  36.483   3.793
82031W        W41534  35.505  40.926  11.039
82032W        W41535   4.215  39.915   2.868
82033W        W41536  39.546  37.847  11.901
82034W        W41537  11.315  43.313  13.355
82035W        W41538  33.384  28.563   1.366
82036W        W41539  12.626  29.966   1.715
82037W        W41540  30.115  18.157   1.420
82038W        W41541  26.522  42.988   1.923
82039W        W41542   6.275   6.921   3.198
82040W        W41543  20.603  17.697   4.770
82041W        W41544  31.097  17.686  11.127
82042W        W41545  42.791  24.103  12.013
82043W        W41546   1.777  35.517  11.411
82044W        W41547  44.486  31.467   4.811
82045W        W41548  28.170  12.685  12.566
82046W        W41549  22.206  24.536   2.268
82047W        W41550   7.887   5.272   0.953
82048W        W41551   9.824  11.755   2.822
82049W        W41552  37.851  42.918  12.340
82050W        W41553  13.243   2.434   0.878
82051W        W41554  42.479  14.142   0.825
82052W        W41555   1.838  27.465   2.336
82053W        W41556  43.813  35.960   0.397
82054W        W41557  33.037  27.152   3.218
82055W        W41558   9.889  23.043   4.298
82056W        W41559   8.290  43.301   0.471
82057W        W41560   0.469  37.563   4.229
82058W        W41561  29.134  14.614   0.478
82059W        W41562   0.489   8.811  14.361
82060W        W41563  32.918   2.833   4.759
82061W        W41564  36.076  24.585  12.846
82062W        W41565  34.877  27.998  12.573
82063W        W41566  40.030  41.006  13.963
82064W        W41567  25.996  44.331  12.944
82065W        W41568  27.171  13.736  12.932
82066W        W41569   2.240   2.293   4.771
82067W        W41570  17.746  19.118   1.792
82068W        W41571  24.653  22.033  12.361
82069W        W41572  13.297   4.271   2.731
82070W        W41573  20.253   2.464   3.153
82071W        W41574   5.408  25.062   4.297
82072W        W41575  24.555   8.783  11.584
82073W        W41576  37.362  43.441  12.358
82074W        W41577  39.919  32.117  14.378
82075W        W41578   2.740   3.795  12.541
82076W        W41579  19.666  17.624  12.470
82077W        W41580  42.880  13.176   0.269
82078W        W41581   3.238  37.971  10.915
82079W        W41582  35.366  18.101   2.375
82080W        W41583   2.932  37.427  12.036
82081W        W41584   5.783  23.505  14.498
82082W        W41585  37.892  17.219   3.852
82083W        W41586  34.095  34.441   3.722
82084W        W41587  41.882  14.821  10.588
82085W        W41588  34.400  35.992   1.744
82086W        W41589  41.317  33.385   0.265
82087W        W41590   8.370  30.420  11.503
82088W        W41591  31.969  14.292   9.549
82089W        W41592   6.335  19.259  14.998
82090W        W41593  22.113  10.271  12.562
82091W        W41594  13.159  11.373   4.308
82092W        W41595  22.155  23.005   0.927
82093W        W41596  33.477  25.559   2.406
82094W        W41597   6.843   3.388   2.853
82095W        W41598  33.086  38.480   4.166
82096W        W41599   5.334  10.370   9.997
82097W        W41600  37.566  43.926   4.280
82098W        W41601  20.718  24.157  10.557
82099W        W41602   2.259  11.204   4.196
82100W        W41603  14.160  13.762  14.277
82101W        W41604  36.573  42.398  13.804
82102W        W41605  41.853  23.153   0.855
82103W        W41606  43.312  17.237  11.458
82104W        W41607  13.604  21.167   3.313
82105W        W41608  21.087   3.790  12.969
82106W        W41609  21.172  22.244  11.476
82107W        W41610   5.240  38.870  11.404
82108W        W41611  23.237  43.912  13.831
82109W        W41612  32.905  27.507  14.466
82110W        W41613   7.839   3.314   2.287
82111W        W41614  24.676  35.379  13.930
82112W        W41615   7.769   9.729   4.183
82113W        W41616  11.763  25.590   3.343
82114W        W41617   2.842  14.277  12.861
82115W        W41618  22.202   9.846   3.343
82116W        W41619  34.956  28.460  11.969
82117W        W41620   0.782  22.020  12.398
82118W        W41621  42.941   7.821   4.298
82119W        W41622   7.202  24.210   4.741
82120W        W41623  24.216  34.474   4.771
82121W        W41624  44.346  39.344  14.297
82122W        W41625  28.946  42.910   4.606
82123W        W41626  17.649  31.417  14.291
82124W        W41627  17.657   5.736   4.793
82125W        W41628  17.265  21.662   0.807
82126W        W41629  29.000  30.009   4.121
82127W        W41630   5.240  34.372  10.963
82128W        W41631  19.233  23.727  11.418
82129W        W41632  36.430   3.862   4.771
82130W        W41633  24.130  25.626   4.178
82131W        W41634  13.147  24.165   1.859
82132W        W41635   8.242  29.147   3.308
82133W        W41636   9.208  44.422  11.968
82134W        W41637   6.695  36.975  14.466
82135W        W41638  17.584  30.124   2.347
82136W        W41639  25.505  31.055   1.427
82137W        W41640  27.067  40.030   2.872
82138W        W41641  29.018   3.364   4.207
82139W        W41642  37.484  29.558  11.927
82140W        W41643  15.247   3.901   0.953
82141W        W41644   8.330  42.875  12.040
82142W        W41645  12.332  44.869   4.133
82143W        W41646  33.514   2.963  13.853
82144W        W41647  26.176   2.369   1.790
82145W        W41648  23.013  29.456  10.421
82146W        W41649   9.246  28.124   0.855
82147W        W41650  11.269  44.501   4.664
82148W        W41651  41.841  43.911  12.082
82149W        W41652  23.147  30.598   0.312
82150W        W41653  15.750  25.072  11.594
82151W        W41654  10.739  21.518   4.618
82152W        W41655  17.215   6.305  10.014
82153W        W41656  35.881  20.558  13.939
82154W        W41657  28.622  22.224  14.855
82155W        W41658  43.770  27.598  10.512
82156W        W41659  10.363  39.396   3.240
82157W        W41660  31.152  10.373  14.007
82158W        W41661  31.014  36.516   0.865
82159W        W41662  34.431   5.764   3.278
82160W        W41663  34.925  44.888   3.678
82161W        W41664  12.851  39.558  14.475
82162W        W41665  35.386  17.269  13.894
82163W        W41666  14.742  11.662  11.927
82164W        W41667  40.419   4.405  12.859
82165W        W41668  21.141   2.286   4.690
82166W        W41669  32.088  21.701   3.264
82167W        W41670  11.769  35.086   1.701
82168W        W41671  38.934  21.609   4.188
82169W        W41672   3.443  12.621   3.270
82170W        W41673  12.725  18.219  14.023
82171W        W41674  14.772  38.938  10.492
82172W        W41675  20.239  18.788   2.735
82173W        W41676  31.933  27.520   2.214
82174W        W41677  11.784   2.413   0.275
82175W        W41678  40.927   9.391   3.708
82176W        W41679  25.139  40.341   0.744
82177W        W41680  14.815  18.724   3.250
82178W        W41681  11.776  37.541  12.914
82179W        W41682   8.227   6.407  12.912
82180W        W41683  31.445  18.767   4.159
82181W        W41684   2.331  15.601   4.681
82182W        W41685   2.355   9.831  14.444
82183W        W41686  13.824  16.705   1.745
82184W        W41687  10.317  12.659   0.899
82185W        W41688  32.099   7.388  12.080
82186W        W41689  43.497   2.751  14.830
82187W        W41690  41.836  37.964   0.867
82188W        W41691  40.326  28.480  13.321
82189W        W41692  33.882  25.146  12.841
82190W        W41693  42.319   0.872  13.819
82191W        W41694   9.707  10.831  10.946
82192W        W41695  41.486   0.747  14.499
82193W        W41696  33.514  41.532   3.178
82194W        W41697  27.013  43.819  10.905
82195W        W41698  34.412  32.133   4.650
82196W        W41699  39.556  20.645   3.172
82197W        W41700   2.423  33.443  10.622
82198W        W41701  43.969  36.533  12.842
82199W        W41702  37.971   3.900  12.575
82200W        W41703  26.193  36.039   0.912
82201W        W41704  31.144   9.186   1.889
82202W        W41705  13.249   8.708  10.543
82203W        W41706  27.003  15.090  13.348
82204W        W41707   1.908  29.593  12.042
82205W        W41708  18.608  10.176   1.895
82206W        W41709   4.859  30.650   5.300
82207W        W41710  24.510   5.884   4.165
82208W        W41711  40.987  15.806   4.203
82209W        W41712  13.303  11.237  13.056
82210W        W41713  26.537  24.067  11.588
82211W        W41714  19.726  31.542   2.393
82212W        W41715  38.942  36.559  12.924
82213W        W41716  18.549  19.613   3.677
82214W        W41717  40.923  38.352  14.511
82215W        W41718  24.502  22.596   1.893
82216W        W41719  19.217  36.461  10.915
82217W        W41720   8.204  33.067  10.998
82218W        W41721  24.705  18.781  13.469
82219W        W41722  36.567  42.451  11.023
82220W        W41723  31.577  17.294   1.715
82221W        W41724  29.600  37.002   0.885
82222W        W41725  10.746   3.817   3.841
82223W        W41726  23.665  44.763   3.709
82224W        W41727  13.170  12.629  11.900
82225W        W41728  30.051  10.662  11.610
82226W        W41729  35.905  28.532   2.803
82227W        W41730  20.577  24.622   2.192
82228W        W41731   5.782  41.947  12.478
82229W        W41732   1.934  30.647   0.323
82230W        W41733  25.127  32.127   0.261
82231W        W41734  21.253   8.691  11.898
82232W        W41735  11.309  30.023   2.795
82233W        W41736  30.981  12.673   0.464
82234W        W41737  39.354  42.947   3.170
82235W        W41738  13.776  44.832   3.708
82236W        W41739  31.099   6.208   0.363
82237W        W41740  15.681  36.930   5.156
82238W        W41741  35.063   9.273   3.691
82239W        W41742  24.687  17.672   2.414
82240W        W41743  10.784  41.387   1.828
82241W        W41744  12.267   6.704   1.430
82242W        W41745  40.420   2.865  14.289
82243W        W41746   6.230  16.094   0.465
82244W        W41747  25.689  14.122  10.159
82245W        W41748  27.598  38.491   5.322
82246W        W41749  29.612   5.732   1.717
82247W        W41750  24.131  17.653  13.827
82248W        W41751  36.920  19.174   0.408
82249W        W41752  30.087  27.558  14.490
82250W        W41753  29.538  43.877   4.837
82251W        W41754   1.249   1.899  12.470
82252W        W41755  21.089  32.124  12.857
82253W        W41756  39.495  37.841  12.930
82254W        W41757  29.470   1.864  11.376
82255W        W41758  10.733  23.087  13.027
82256W        W41759  22.021  44.953  10.981
82257W        W41760  10.155  41.305   9.939
82258W        W41761  32.541  26.077  13.509
82259W        W41762  44.416   2.313  11.035
82260W        W41763  31.513  40.400   4.333
82261W        W41764   9.196  19.266   2.205
82262W        W41765  33.536   4.358  12.868
82263W        W41766   8.731  30.566   4.189
82264W        W41767  21.606   3.434  12.455
82265W        W41768  33.874   6.814   0.292
82266W        W41769   6.840  14.660   3.267
82267W        W41770  27.173  17.587  11.036
82268W        W41771  35.554  44.946   2.743
82269W        W41772  26.964  32.950   0.812
82270W        W41773  14.598  22.028  10.573
82271W        W41774  40.319  29.173   4.149
82272W        W41775  25.981  33.909   3.782
82273W        W41776   7.731   8.754   3.350
82274W        W41777  33.013  40.375  13.039
82275W        W41778  13.206  33.087   1.266
82276W        W41779  19.680  42.989   4.598
82277W        W41780  17.714  35.965  12.830
82278W        W41781  26.480  44.983  12.945
82279W        W41782   6.678  33.440  12.512
82280W        W41783   3.815  21.134   0.303
82281W        W41784   9.705  20.129  14.785
82282W        W41785   8.813   7.713  12.087
82283W        W41786  15.178  27.061  14.315
82284W        W41787   9.860   2.961  11.906
82285W        W41788  41.850  37.576  11.015
82286W        W41789  22.103   1.848  12.370
82287W        W41790  16.615  17.586   0.326
82288W        W41791  28.670  27.590   3.732
82289W        W41792  42.485  21.594   0.853
82290W        W41793  40.805  39.877   3.854
82291W        W41794  36.377  21.610   0.842
82292W        W41795  22.174  20.563  11.394
82293W        W41796   4.906  21.582  12.026
82294W        W41797  24.226  35.592   1.259
82295W        W41798  12.230  44.968  13.037
82296W        W41799  42.964  14.790   3.653
82297W        W41800  16.643  34.586  13.992
82298W        W41801  41.788  26.609  10.453
82299W        W41802  24.500  30.511   0.852
82300W        W41803  23.595  30.524   3.234
82301W        W41804  43.806  30.483   2.219
82302W        W41805  27.195  24.556  14.792
82303W        W41806  18.771   8.356   4.327
82304W        W41807  21.108  17.087   0.813
82305W        W41808  20.090  23.025   4.614
82306W        W41809   2.308  10.714  10.894
82307W        W41810  18.133  35.467  12.015
82308W        W41811  26.699  42.948   2.745
82309W        W41812  32.581  28.500   0.938
82310W        W41813   3.390  31.097  10.576
82311W        W41814  44.415  21.036   4.800
82312W        W41815  28.441  34.084  14.957
82313W        W41816  14.695  44.791  11.903
82314W        W41817   3.799  14.136  11.577
82315W        W41818   9.805  17.272  11.437
82316W        W41819  39.880  19.066  14.373
82317W        W41820  37.417  24.497   4.279
82318W        W41821  40.039   5.934   1.866
82319W        W41822  30.586  33.521  12.562
82320W        W41823   0.302  23.522   3.813
82321W        W41824  31.932  24.216   3.725
82322W        W41825  31.115  35.928   9.489
82323W        W41826  32.896   9.774  13.905
82324W        W41827  11.194  18.598  10.928
82325W        W41828  33.094  23.112  11.484
82326W        W41829  10.174  38.066  14.284
82327W        W41830  16.719  21.633   4.229
82328W        W41831   2.318  41.943   9.438
82329W        W41832  18.139  22.097  12.509
82330W        W41833  37.929  28.598  10.434
82331W        W41834  42.863  19.285  12.070
82332W        W41835  12.206  17.619   4.304
82333W        W41836   5.869  34.428   4.173
82334W        W41837   2.280   1.969  12.970
82335W        W41838  20.208  39.520  14.905
82336W        W41839  32.572  22.199  11.884
82337W        W41840  37.446  32.982   1.263
82338W        W41841  15.784   8.261  13.502
82339W        W41842  32.391  32.555  13.988
82340W        W41843  13.645   0.337  11.976
82341W        W41844   1.445  18.189  14.504
82342W        W41845  16.073  20.738  14.865
82343W        W41846  17.644  15.288  12.487
82344W        W41847  31.559  20.185   2.880
82345W        W41848  39.333   8.836   3.853
82346W        W41849  22.742  37.476  12.496
82347W        W41850  42.341  34.435   1.856
82348W        W41851   6.801  23.537  13.452
82349W        W41852  14.307  37.542   1.747
82350W        W41853  21.227  10.340  12.847
82351W        W41854  20.224  21.252   4.306
82352W        W41855  34.412  14.206  14.771
82353W        W41856   3.216   8.849  10.055
82354W        W41857  21.611  15.822   4.354
82355W        W41858   4.813  41.479  12.093
82356W        W41859   1.786  22.745  14.339
82357W        W41860  16.316  25.705  12.973
82358W        W41861  43.489  25.046  14.477
82359W        W41862  29.118  15.136  12.442
82360W        W41863  16.803  16.170   3.146
82361W        W41864  12.831  40.513   3.631
82362W        W41865  42.902  44.009  11.471
82363W        W41866  17.798  33.477  14.433
82364W        W41867  30.118   7.377   4.758
82365W        W41868  43.306  17.580  11.912
82366W        W41869  23.025  36.003   2.231
82367W        W41870  15.795  20.746  12.908
82368W        W41871  40.376  41.495   2.755
82369W        W41872  33.033  40.435  10.981
82370W        W41873  23.054  11.148   2.731
82371W        W41874  28.099  21.107  13.322
82372W        W41875   5.311  44.316   9.999
82373W        W41876  37.571   2.327   3.381
82374W        W41877   7.381  11.701  13.855
82375W        W41878  16.273  11.846  12.955
82376W        W41879  40.918   1.376  13.816
82377W        W41880  17.288  14.139   2.234
82378W        W41881  15.753  31.455  11.878
82379W        W41882   0.766  32.945   1.285
82380W        W41883  26.154  12.346   0.321
82381W        W41884  14.184  14.700  12.075
82382W        W41885  40.850  30.930  13.492
82383W        W41886  26.541  22.681   4.706
82384W        W41887  19.604  21.078   4.813
82385W        W41888   8.841   7.771   2.200
82386W        W41889  12.315  32.577   0.372
82387W        W41890  16.731  41.900  11.519
82388W        W41891  42.411  43.421   0.894
82389W        W41892  37.068  11.780   0.760
82390W        W41893  13.681  12.833   4.186
82391W        W41894  38.952  15.707   0.457
82392W        W41895  27.049  25.142   0.862
82393W        W41896  31.586  12.724  14.799
82394W        W41897  43.941  35.057  10.900
82395W        W41898   9.219  20.561   4.762
82396W        W41899   1.265   4.924  10.643
82397W        W41900  35.585  17.279  13.308
82398W        W41901  30.417  41.434  10.048
82399W        W41902  39.819   6.329   1.390
82400W        W41903  13.801  20.703  13.924
82401W        W41904  11.690  33.401   3.855
82402W        W41905  44.859  11.209   3.223
82403W        W41906  37.860  34.466  11.957
82404W        W41907   6.415  36.441   1.746
82405W        W41908  28.041  29.138   2.220
82406W        W41909  35.888  42.004  10.940
82407W        W41910   8.363  43.891   0.411
82408W        W41911  27.493  36.591  14.295
82409W        W41912  28.564   4.852   2.394
82410W        W41913  19.620  25.632   3.871
82411W        W41914  31.957   6.335   3.658
82412W        W41915   3.831  20.103   2.356
82413W        W41916  32.952  14.303  12.479
82414W        W41917  43.764  14.630  12.510
82415W        W41918  20.712  37.414   0.921
82416W        W41919   5.807  33.511  12.493
82417W        W41920  14.769  35.438  12.872
82418W        W41921  18.066  10.218  12.910
82419W        W41922  18.064  44.369  12.932
82420W        W41923  18.596   5.693  13.823
82421W        W41924  22.737   3.411  12.448
82422W        W41925   8.869  42.313   3.751
82423W        W41926  42.363  21.518  14.323
82424W        W41927  19.627  28.990   1.778
82425W        W41928  24.616  42.318  10.030
82426W        W41929   3.240  42.462  12.899
82427W        W41930  32.598   5.428  14.892
82428W        W41931   5.247  30.160   2.804
82429W        W41932  43.384   0.366  10.915
82430W        W41933  40.396  30.500   1.305
82431W        W41934  14.793  26.974  12.561
82432W        W41935  28.446  41.902   4.771
82433W        W41936  10.154   0.257  10.558
82434W        W41937  43.471  31.616   1.807
82435W        W41938  10.235   9.193   3.235
82436W        W41939   4.241  25.124  13.345
82437W        W41940  15.635  25.541   3.184
82438W        W41941   1.414  41.363   4.345
82439W        W41942  40.531  26.628  14.514
82440W        W41943  17.105   2.311  14.399
82441W        W41944  23.504  40.377  11.468
82442W        W41945  35.868  40.822   1.336
82443W        W41946  12.784   7.857  13.820
82444W        W41947  29.166  35.491  13.500
82445W        W41948  30.030  35.896   2.683
82446W        W41949  16.763   0.921   1.737
82447W        W41950  36.921  29.958  11.494
82448W        W41951   8.359  22.164   4.814
82449W        W41952  20.528   0.774  13.977
82450W        W41953  27.037  14.650  13.016
82451W        W41954  37.049  22.112  14.487
82452W        W41955  18.610  22.009  10.569
82453W        W41956  34.504  31.578  10.470
82454W        W41957  38.038  44.791  12.843
82455W        W41958  43.508  34.598  14.415
82456W        W41959  10.718  14.209   1.445
82457W        W41960  27.020   2.819  14.977
82458W        W41961  38.934   5.258  13.970
82459W        W41962   2.408  24.592  12.995
82460W        W41963  31.057  43.451   1.926
82461W        W41964  16.196   4.243   3.350
82462W        W41965  13.674  40.516   1.817
82463W        W41966  21.531  40.438  14.295
82464W        W41967  11.722  14.763  12.548
82465W        W41968  22.078   6.285   3.239
82466W        W41969   3.320  41.881   1.935
82467W        W41970  27.571   2.279   2.675
82468W        W41971  21.244  12.783  13.798
82469W        W41972  33.478  10.209   2.869
82470W        W41973  14.156  40.882   1.308
82471W        W41974   6.917   6.221   3.214
82472W        W41975  22.584  28.663  10.896
82473W        W41976  34.589  29.063   4.224
82474W        W41977  39.955  42.842  10.574
82475W        W41978  26.202  44.386   2.822
82476W        W41979  11.131  11.634  13.023
82477W        W41980  16.610  16.754  12.536
82478W        W41981  34.581  27.005   1.855
82479W        W41982  25.182  44.403   0.314
82480W        W41983  14.816  42.348  13.059
82481W        W41984  27.665  16.253  12.971
82482W        W41985  38.058  30.463   4.237
82483W        W41986  44.967  18.239   1.796
82484W        W41987  17.587  32.553  14.342
82485W        W41988  25.548  16.724  14.303
82486W        W41989  38.392  11.274   2.713
82487W        W41990  43.816   3.835   2.736
82488W        W41991  38.946  18.743   2.330
82489W        W41992  44.846   3.921  13.388
82490W        W41993   3.363  22.251   4.144
82491W        W41994  15.094  11.774   3.697
82492W        W41995   2.435  40.988   0.938
82493W        W41996  14.205  35.958  13.043
82494W        W41997  37.850  20.177  14.906
82495W        W41998  42.973  17.100  13.973
82496W        W41999  30.502   0.907   2.753
82497W        W42000  42.968  43.372   1.737
82498W        W42001  16.168  34.109   4.775
82499W        W42002   3.285  31.485  10.643
82500W        W42003  35.036  18.098   3.660
82501W        W42004  12.226  37.572   3.788
82502W        W42005   3.400  22.131  10.507
82503W        W42006  37.560  29.487   1.337
82504W        W42007   3.755  17.211  12.021
82505W        W42008   8.299  43.288  11.528
82506W        W42009  20.634  32.977   1.363
82507W        W42010  36.368  42.835   9.991
82508W        W42011  17.714  35.431  14.426
82509W        W42012  25.577   2.375  13.405
82510W        W42013  28.106  10.354   2.888
82511W        W42014  23.047   8.323  14.831
82512W        W42015  19.263  33.093   4.152
82513W        W42016  15.645   1.836  14.448
82514W        W42017  29.670  26.694   2.811
82515W        W42018  44.911  30.536   0.424
82516W        W42019   1.396  31.102  12.367
82517W        W42020  15.136  32.606   5.652
82518W        W42021  27.482  27.597   3.756
82519W        W42022   6.807   5.805  12.398
82520W        W42023  15.646  10.852  14.805
82521W        W42024  39.899  30.014   2.278
82522W        W42025  35.382  30.101   1.266
82523W        W42026  44.408  26.680   1.425
82524W        W42027  35.869   7.213  13.907
82525W        W42028  12.670  29.096   2.901
82526W        W42029  27.941  28.121   2.333
82527W        W42030  19.696  27.505   3.684
82528W        W42031  10.706  33.092   2.732
82529W        W42032  39.841  36.412  10.488
82530W        W42033   2.463  19.134  13.804
82531W        W42034  26.457  16.599  10.115
82532W        W42035  11.815  20.626   3.217
82533W        W42036  33.387  32.513   2.269
82534W        W42037  29.159   8.395   1.805
82535W        W42038   7.279  42.454   2.289
82536W        W42039  28.543   7.743  11.589
82537W        W42040   0.831  31.960   2.260
82538W        W42041  33.078  20.670   1.335
82539W        W42042   5.260   3.371  14.284
82540W        W42043   2.262  24.123  11.002
82541W        W42044  26.096  24.519   0.332
82542W        W42045  17.277  18.228   3.196
82543W        W42046   3.940  43.823  11.041
82544W        W42047  23.615   4.450  10.979
82545W        W42048  18.084  19.745  14.460
82546W        W42049  41.311  16.709  12.354
82547W        W42050  23.039  27.022  13.496
82548W        W42051  31.499  19.763   1.299
82549W        W42052  31.904  31.643  11.923
82550W        W42053  26.124  43.001   4.708
82551W        W42054   5.906  23.589  10.615
82552W        W42055  12.761   8.357  13.896
82553W        W42056  44.390   3.720   1.398
82554W        W42057  20.761  13.672   1.358
82555W        W42058  26.693   8.199  12.871
82556W        W42059  33.074  41.406   1.872
82557W        W42060  17.732  14.120   2.717
82558W        W42061  32.137  19.557  10.082
82559W        W42062   4.867  24.018   5.259
82560W        W42063  27.630  19.764  10.569
82561W        W42064  31.567  32.531  13.837
82562W        W42065  33.386  30.953  11.469
82563W        W42066  20.171  17.213   0.729
82564W        W42067  10.727  34.494   4.175
82565W        W42068  21.054  13.691   0.782
82566W        W42069  40.810   1.403   0.380
82567W        W42070   2.438  14.236   4.127
82568W        W42071  13.282   6.831   1.434
82569W        W42072  39.428  42.439  12.829
82570W        W42073  15.753  43.893   5.180
82571W        W42074  11.845  38.363  12.928
82572W        W42075  19.630   0.249   1.805
82573W        W42076  13.801   7.298   1.889
82574W        W42077  38.535  24.043  13.837
82575W        W42078   3.404  22.712   5.108
82576W        W42079  28.175  27.452   1.857
82577W        W42080  18.221  18.255  10.536
82578W        W42081  13.751  20.052   4.618
82579W        W42082  34.485  31.044   1.377
82580W        W42083  29.140  43.832  14.941
82581W        W42084   2.913  36.562   4.687
82582W        W42085  17.231  28.171   2.757
82583W        W42086  28.933  44.940   2.378
82584W        W42087  14.769  37.839   3.263
82585W        W42088   5.295  15.162   0.912
82586W        W42089  28.521  16.700  11.907
82587W        W42090  31.921   6.707   0.746
82588W        W42091  29.642  26.110  11.559
82589W        W42092   7.692  27.179   1.889
82590W        W42093  43.390   2.272  10.560
82591W        W42094   8.309   0.477  10.514
82592W        W42095  39.817  24.183   1.846
82593W        W42096  27.019  37.406   1.424
82594W        W42097  41.514   9.162   0.946
82595W        W42098  10.785  33.451  10.616
82596W        W42099  18.748  20.766  10.586
82597W        W42100   2.316   3.761   1.246
82598W        W42101  35.567  34.002  13.903
82599W        W42102  11.304  24.103  14.422
82600W        W42103  37.837  18.227  11.507
82601W        W42104  15.637  13.178   1.832
82602W        W42105  34.058  22.056  11.972
82603W        W42106  44.908  22.531  12.484
82604W        W42107   2.767  24.144  11.473
82605W        W42108  25.025  36.385  14.893
82606W        W42109  28.124   5.422  10.916
82607W        W42110  22.182  29.016  11.554
82608W        W42111  30.053   3.294   4.197
82609W        W42112  30.945  11.862   9.932
82610W        W42113   5.335  35.406  14.961
82611W        W42114   0.288  33.613   4.267
82612W        W42115  42.028  23.679  14.814
82613W        W42116  15.705  32.022   9.978
82614W        W42117  23.997  10.659  10.426
82615W        W42118   6.847   1.334  11.126
82616W        W42119  19.766  14.745   1.713
82617W        W42120  32.127   9.737  12.542
82618W        W42121  44.276  21.553   4.786
82619W        W42122  33.013  27.473  12.011
82620W        W42123  38.073  39.911   2.793
82621W        W42124  26.607  27.536  10.974
82622W        W42125  14.323   4.756   4.218
82623W        W42126  12.692  14.822   4.120
82624W        W42127  20.129  39.950   2.306
82625W        W42128  12.714  22.137   2.792
82626W        W42129  35.528  19.255  12.536
82627W        W42130   4.423  29.945   4.611
82628W        W42131  29.612  15.147   0.753
82629W        W42132  28.971  44.764   1.302
82630W        W42133  20.094  19.726  13.886
82631W        W42134  19.163  42.339  10.415
82632W        W42135  16.595  41.345   0.440
82633W        W42136   7.771   9.191  11.395
82634W        W42137  20.645  41.036  13.942
82635W        W42138  26.109  40.352   2.812
82636W        W42139  17.571  24.700   2.700
82637W        W42140  15.788  34.960   4.189
82638W        W42141  20.701  32.957  11.516
82639W        W42142  14.715  34.074   1.730
82640W        W42143   8.805   4.891  14.881
82641W        W42144  19.643  41.886  11.596
82642W        W42145   7.877  29.028  12.388
82643W        W42146  31.597  15.261  14.847
82644W        W42147  40.386   0.877   3.170
82645W        W42148   2.925  40.448   0.406
82646W        W42149  20.650   9.167  13.535
82647W        W42150  34.053   7.858   0.299
82648W        W42151  13.666  22.639   3.382
82649W        W42152   6.712   4.208   1.712
82650W        W42153  25.140   4.759  12.869
82651W        W42154  15.153  37.845   2.831
82652W        W42155  30.501  18.087  14.361
82653W        W42156  12.699  40.863   3.243
82654W        W42157  25.535  24.990  11.489
82655W        W42158  31.568  32.111   4.708
82656W        W42159  43.807  12.355   0.245
82657W        W42160  22.563  41.788   0.897
82658W        W42161  44.947  30.595  13.043
82659W        W42162  10.379   3.329  11.887
82660W        W42163  24.672   5.725   2.194
82661W        W42164  35.567  21.222   0.295
82662W        W42165  18.782  36.492  10.412
82663W        W42166  28.649  18.253  13.438
82664W        W42167  28.012  15.315   0.741
82665W        W42168  31.005  30.544  14.311
82666W        W42169  13.308  15.211  14.478
82667W        W42170  16.108  35.102  13.416
82668W        W42171  43.405  10.673  13.897
82669W        W42172   5.296  30.027   1.790
82670W        W42173  23.177  10.364  14.397
82671W        W42174  15.111  19.270  14.404
82672W        W42175  12.844   3.907  14.786
82673W        W42176  20.218  35.441  12.560
82674W        W42177  28.448  17.589   2.791
82675W        W42178  11.782  27.187  11.035
82676W        W42179  29.087  11.169  14.312
82677W        W42180   4.720   0.782   0.346
82678W        W42181  15.145  32.605   9.527
82679W        W42182  11.773  37.917  14.311
82680W        W42183  18.110  42.508   2.412
82681W        W42184   4.700  19.159   1.723
82682W        W42185  27.656  25.709  14.768
82683W        W42186   3.756  42.008  11.503
82684W        W42187   5.308  12.810   0.432
82685W        W42188  11.179  33.914  12.566
82686W        W42189   7.698  37.379  12.454
82687W        W42190  31.454  42.847  10.901
82688W        W42191  37.460  27.679  10.485
82689W        W42192  36.402  21.216   3.812
82690W        W42193  10.815  23.072   3.825
82691W        W42194  34.471  40.483   1.723
82692W        W42195  41.884  40.853  11.857
82693W        W42196  37.867  12.233  11.857
82694W        W42197  24.564  41.954  14.952
82695W        W42198   4.217  34.407  13.856
82696W        W42199   8.806  42.382   2.341
82697W        W42200  32.531  35.528  14.837
82698W        W42201  33.588  27.147   2.271
82699W        W42202  17.755  23.613   4.611
82700W        W42203  39.942   8.844  11.120
82701W        W42204  14.256  20.650   2.677
82702W        W42205  13.127  17.690  12.054
82703W        W42206  18.611   4.915   4.126
82704W        W42207  19.572  25.472  13.945
82705W        W42208   8.659   3.367  10.907
82706W        W42209   8.177  42.823  14.319
82707W        W42210  19.620   1.772  11.489
82708W        W42211   5.306  11.259   0.403
82709W        W42212  10.280  36.846   1.369
82710W        W42213  23.038   6.839  14.955
82711W        W42214  14.688  16.702  13.309
82712W        W42215  15.123  19.606  10.488
82713W        W42216   3.723  32.921  13.792
82714W        W42217  43.893  14.697  14.790
82715W        W42218  19.121  42.379   3.168
82716W        W42219  37.582  23.121   0.466
82717W        W42220  39.989   9.842  13.416
82718W        W42221  30.111  27.540   1.760
82719W        W42222  38.006  44.397  12.936
82720W        W42223  17.636  22.182  11.502
82721W        W42224  40.932   0.377  10.443
82722W        W42225  33.970  26.122   2.878
82723W        W42226  42.929  36.882   1.444
82724W        W42227   0.323   9.256   3.159
82725W        W42228  13.188  36.358  10.455
82726W        W42229  31.448  24.632  10.542
82727W        W42230  39.021  24.526  14.507
82728W        W42231  27.994  24.198   1.403
82729W        W42232  37.963  42.777  10.619
82730W        W42233  36.361   7.885   1.335
82731W        W42234   3.378   9.746   0.852
82732W        W42235  42.352  15.160   1.896
82733W        W42236  12.778  29.156   0.282
82734W        W42237  40.896  42.918   1.247
82735W        W42238  34.892  21.116   2.740
82736W        W42239   3.342  29.024  11.599
82737W        W42240   9.879  37.338  12.025
82738W        W42241  27.688  34.031  13.345
82739W        W42242  13.637  36.432  10.961
82740W        W42243  24.179  30.075  14.855
82741W        W42244  11.361  17.283   2.820
82742W        W42245   5.270  33.505  14.010
82743W        W42246   4.923   5.249  14.014
82744W        W42247   4.789  35.399  13.824
82745W        W42248  16.097   7.250   2.750
82746W        W42249  33.042   8.400   1.242
82747W        W42250  12.302  16.707  12.854
82748W        W42251  29.561   8.168   3.634
82749W        W42252  36.008  29.448   3.194
82750W        W42253  39.518  18.632  10.637
82751W        W42254  19.675  10.690  11.108
82752W        W42255   4.440   5.344  13.024
82753W        W42256   2.471  15.186   2.312
82754W        W42257  12.729   4.708   1.715
82755W        W42258   2.808  21.627   3.181
82756W        W42259   5.311  41.914  14.511
82757W        W42260   9.857  33.625  14.814
82758W        W42261  27.075   7.328  12.856
82759W        W42262  30.058  38.870   0.932
82760W        W42263  29.643  43.289  10.509
82761W        W42264  41.413  44.956   0.952
82762W        W42265   0.834  16.250   2.326
82763W        W42266  32.620   9.183  10.550
82764W        W42267  16.136  24.518  14.316
82765W        W42268  43.336  30.909  11.006
82766W        W42269   5.421  44.788   0.349
82767W        W42270   5.913  34.033   2.291
82768W        W42271  12.188  13.277   3.679
82769W        W42272  38.956   8.257  14.969
82770W        W42273  18.104  24.564   2.780
82771W        W42274  13.634  20.712  12.557
82772W        W42275  37.428   8.178  12.848
82773W        W42276   7.271  20.220   0.750
82774W        W42277  20.065   9.889   2.721
82775W        W42278   6.343  21.192   1.386
82776W        W42279  37.861  34.000  11.562
82777W        W42280  12.331  34.029   5.307
82778W        W42281  25.512   8.803   3.212
82779W        W42282  41.869  27.093  14.900
82780W        W42283   4.208  29.619  11.588
82781W        W42284  38.563   3.317  12.963
82782W        W42285  42.402   3.385   4.114
82783W        W42286  44.354   8.249   3.256
82784W        W42287  44.897  28.623  12.441
82785W        W42288  21.540  20.612   0.322
82786W        W42289  33.618  44.772  12.494
82787W        W42290  31.046  31.034  13.911
82788W        W42291  25.600  14.116  12.932
82789W        W42292  10.651   2.820   1.301
82790W        W42293   6.839  14.200  11.418
82791W        W42294  19.113  14.302  11.893
82792W        W42295  29.568  27.537  12.070
82793W        W42296  26.656   9.242  13.983
82794W        W42297  27.094  39.456   0.902
82795W        W42298  43.973  41.466   3.806
82796W        W42299  24.078  32.513   0.921
82797W        W42300   0.761  14.593   1.245
82798W        W42301   9.249  12.639   3.228
82799W        W42302  39.441  31.599  13.862
82800W        W42303  28.961  37.028  11.094
82801W        W42304   0.795  32.420  11.897
82802W        W42305  26.126  16.237  12.931
82803W        W42306  24.616  36.939   4.187
82804W        W42307   1.813  15.765  14.024
82805W        W42308  13.303  16.782  10.945
82806W        W42309   9.245   4.941   0.476
82807W        W42310  12.255  24.021  13.497
82808W        W42311  36.936  43.781  13.474
82809W        W42312  31.947  41.336   2.300
82810W        W42313  20.618  11.742  11.384
82811W        W42314   7.305  44.872  13.975
82812W        W42315  25.183  36.934  14.789
82813W        W42316  11.852   7.240   5.111
82814W        W42317  37.008   1.906  14.916
82815W        W42318  12.706  20.205   2.184
82816W        W42319  40.825  40.030   4.791
82817W        W42320   3.726  31.559   4.758
82818W        W42321  15.221  39.023   0.300
82819W        W42322  10.864  23.504  14.440
82820W        W42323  21.519  28.934   4.231
82821W        W42324   7.173  14.275  12.558
82822W        W42325  18.545  40.524  10.142
82823W        W42326  41.835  20.155  13.465
82824W        W42327   7.273  38.837   2.852
82825W        W42328  22.013  28.147   3.315
82826W        W42329   5.376   0.468  12.880
82827W        W42330  16.300  26.990   2.707
82828W        W42331  37.500  37.401  11.435
82829W        W42332  31.001  17.567   3.239
82830W        W42333  35.951   4.390  13.064
82831W        W42334   0.402  42.011  12.394
82832W        W42335   7.742  25.640   4.598
82833W        W42336  42.302  32.918   2.250
82834W        W42337  14.289   7.759   1.444
82835W        W42338  30.540   9.662   4.606
82836W        W42339  20.057  16.134  14.773
82837W        W42340   4.835   6.885  13.379
82838W        W42341  42.472  26.080  11.605
82839W        W42342  23.102  26.480  11.969
82840W        W42343  32.990  22.711   0.840
82841W        W42344   2.876   9.208  10.894
82842W        W42345  43.895   6.295   2.739
82843W        W42346  28.535  18.683   1.333
82844W        W42347   6.421  32.530   1.725
82845W        W42348  31.066   8.818   5.239
82846W        W42349  10.814   2.830  14.951
82847W        W42350   8.207  41.885  12.357
82848W        W42351  23.569  38.841   2.305
82849W        W42352  40.390  18.566  13.815
82850W        W42353  20.268  23.038  10.550
82851W        W42354  31.585  18.562   1.389
82852W        W42355   8.324   8.867   2.851
82853W        W42356  21.163  34.614  12.455
82854W        W42357   6.727   8.185  11.092
82855W        W42358   8.160  16.575   0.860
82856W        W42359   2.244  18.620  12.991
82857W        W42360  11.655  42.031   3.682
82858W        W42361  27.527   9.300   3.799
82859W        W42362  15.599  16.670  14.970
82860W        W42363   2.886  34.047   4.225
82861W        W42364   7.703  10.141  11.493
82862W        W42365  19.100  13.742  11.077
82863W        W42366  13.254   0.329   2.339
82864W        W42367  28.622  28.070  13.541
82865W        W42368  28.048  38.459  13.366
82866W        W42369  19.283   9.798   2.388
82867W        W42370   9.728  16.751  12.354
82868W        W42371  31.403  14.765  13.032
82869W        W42372   1.391  13.786   2.823
82870W        W42373  19.666  16.308   0.848
82871W        W42374   9.282  44.327  10.513
82872W        W42375  39.385   8.170   5.270
82873W        W42376  30.573  12.196  10.929
82874W        W42377  14.314  10.846  12.053
82875W        W42378  29.456  24.550   3.701
82876W        W42379  31.549  25.578   5.180
82877W        W42380  38.005  21.700   2.393
82878W        W42381  20.184  31.444  13.960
82879W        W42382  29.665  18.249   0.455
82880W        W42383   6.197  26.103  14.939
82881W        W42384   1.860  40.018   1.804
82882W        W42385  15.290  16.183  13.799
82883W        W42386  37.391  14.328   3.235
82884W        W42387  30.540   2.283  10.578
82885W        W42388  43.454  17.612  11.522
82886W        W42389   1.753  23.228   3.652
82887W        W42390   7.240  41.317  12.885
82888W        W42391  42.503   3.871   0.958
82889W        W42392  13.290   8.811   2.780
82890W        W42393  30.422  20.635  10.628
82891W        W42394  31.471  22.562  11.557
82892W        W42395   3.426  15.762  12.451
82893W        W42396   9.858   5.863   4.736
82894W        W42397  19.688  10.379  13.940
82895W        W42398  23.204  42.299   4.747
82896W        W42399  28.540  20.542  11.975
82897W        W42400  40.497  37.906   2.737
82898W        W42401   1.477  19.130   0.425
82899W        W42402   5.870   9.658  14.456
82900W        W42403  35.090  22.110  13.911
82901W        W42404   3.417  44.927  13.007
82902W        W42405  30.434  21.171  10.998
82903W        W42406  10.745  22.690  10.055
82904W        W42407  35.473  18.727   2.385
82905W        W42408  23.049   5.898   0.394
82906W        W42409  17.158   3.365  11.484
82907W        W42410   2.953  37.464   2.665
82908W        W42411   8.747  17.769  12.031
82909W        W42412  42.007  11.830   9.972
82910W        W42413  12.240   7.199  12.897
82911W        W42414  32.448   1.386  12.967
82912W        W42415  26.105  32.936   0.319
82913W        W42416   8.234  35.997  12.567
82914W        W42417   1.349  39.053  13.806
82915W        W42418  25.131  28.604  13.014
82916W        W42419  35.928  23.596   2.389
82917W        W42420   0.323  23.152   4.698
82918W        W42421  41.365   1.939   1.717
82919W        W42422  20.199  34.560   4.756
82920W        W42423   7.869   6.220  14.940
82921W        W42424  36.957  30.432   4.730
82922W        W42425   3.392  31.973  11.534
82923W        W42426  10.195  41.858   3.304
82924W        W42427  37.946  22.715  12.397
82925W        W42428  18.134  20.703  11.581
82926W        W42429  37.892  25.513   2.687
82927W        W42430  41.899   3.251   5.319
82928W        W42431   4.912  12.648  12.576
82929W        W42432   7.417  43.323   2.738
82930W        W42433  31.944  42.484  13.925
82931W        W42434  39.315  43.383  10.458
82932W        W42435  36.842   4.347   4.664
82933W        W42436   3.373  32.494   1.714
82934W        W42437   3.394  29.982  12.923
82935W        W42438   2.902  31.406   1.284
82936W        W42439  35.874  21.224   0.345
82937W        W42440  34.545   4.288  12.050
82938W        W42441  29.056  23.066   1.302
82939W        W42442  22.252  21.090  12.979
82940W        W42443  21.694  39.350   4.761
82941W        W42444  36.526   3.357  12.386
82942W        W42445  23.086   8.345  13.995
82943W        W42446  18.607  42.525  12.506
82944W        W42447   5.247  43.323  12.943
82945W        W42448  31.417  27.172  14.845
82946W        W42449   0.882  30.421  13.540
82947W        W42450  13.807  16.196  13.868
82948W        W42451   2.957  18.715   4.259
82949W        W42452  10.368   3.317   1.775
82950W        W42453  41.530   4.280   4.224
82951W        W42454  34.598  10.876   2.293
82952W        W42455  42.425   0.895  12.042
82953W        W42456  37.432  25.064  14.455
82954W        W42457  23.056  12.221  12.963
82955W        W42458  42.816  25.128  13.916
82956W        W42459  10.140  41.305  10.555
82957W        W42460  12.122   6.901  10.614
82958W        W42461   2.729  10.179  11.384
82959W        W42462   0.950   9.155   2.306
82960W        W42463  38.035  40.963   3.182
82961W        W42464  40.353  11.209  11.902
82962W        W42465  13.269   6.755  14.281
82963W        W42466  31.617  24.121   5.235
82964W        W42467  14.757  17.248  12.008
82965W        W42468  15.251  14.152   2.772
82966W        W42469  23.631   5.896   0.963
82967W        W42470  37.925  38.934  14.867
82968W        W42471  34.546  37.541   0.308
82969W        W42472  10.754  39.932  11.448
82970W        W42473   2.825  28.486  13.376
82971W        W42474  40.969   6.922   1.311
82972W        W42475  39.404  16.203  13.889
82973W        W42476  13.139  43.296   0.866
82974W        W42477  33.910  28.495  13.436
82975W        W42478  15.660   8.376  13.007
82976W        W42479  15.657  31.455   3.673
82977W        W42480   2.919  11.155  14.801
82978W        W42481   9.739  27.490  11.989
82979W        W42482  39.403  16.649  13.917
82980W        W42483  10.738  33.934   1.280
82981W        W42484  29.661  33.934   2.761
82982W        W42485  36.569  19.568   0.887
82983W        W42486  38.969  15.674   3.836
82984W        W42487  17.228   0.305  11.490
82985W        W42488  36.857  29.109  11.423
82986W        W42489  32.095  32.531   3.666
82987W        W42490  22.731   2.818  13.415
82988W        W42491  26.097  33.003   3.750
82989W        W42492  29.509  13.639  14.305
82990W        W42493  25.697  29.497  12.520
82991W        W42494  32.989  35.954   3.336
82992W        W42495  18.168  38.330  12.552
82993W        W42496  18.757  30.041   2.333
82994W        W42497   7.855  31.498   3.222
82995W        W42498  28.455  40.832   4.142
82996W        W42499  14.729  11.763  13.374
82997W        W42500   2.378   0.357  13.325
82998W        W42501   3.413  19.253  12.048
82999W        W42502  23.501  13.831  14.912
83000W        W42503  42.474   7.841  14.027
83001W        W42504  12.138  18.687   4.826
83002W        W42505  40.960   1.911   4.794
83003W        W42506   7.398  38.408  10.455
83004W        W42507   0.294  30.596  12.902
83005W        W42508   9.385  29.937  14.904
83006W        W42509  12.702  11.182  11.405
83007W        W42510   1.336   5.692  13.060
83008W        W42511  11.281   1.779  13.467
83009W        W42512   1.977  26.035  12.350
83010W        W42513   2.296  18.699   5.202
83011W        W42514  11.200  27.687  11.499
83012W        W42515  13.772  27.182   2.390
83013W        W42516  36.890  30.973   4.261
83014W        W42517  18.140  32.620   1.422
83015W        W42518  39.557   3.360  10.144
83016W        W42519  30.044  39.058  14.976
83017W        W42520  39.483  11.643   4.186
83018W        W42521  21.748  43.857  12.061
83019W        W42522  15.245  27.109   2.411
83020W        W42523  19.189  23.686  10.993
83021W        W42524  27.640  32.397  11.515
83022W        W42525  34.108  36.500  11.464
83023W        W42526   1.752  20.620  10.606
83024W        W42527  34.429   1.464   3.263
83025W        W42528  41.403  31.957   3.676
83026W        W42529  22.546   8.370   2.205
83027W        W42530  26.457  44.824  13.362
83028W        W42531  15.688  29.042  14.288
83029W        W42532  39.993  19.648   3.182
83030W        W42533  26.071  23.605  13.542
83031W        W42534  32.590   3.743  13.369
83032W        W42535  13.806  29.103   1.844
83033W        W42536   9.732  16.214   1.869
83034W        W42537  36.436   6.333   1.445
83035W        W42538  40.437  44.298   4.620
83036W        W42539  30.504  12.792  12.361
83037W        W42540  34.509  36.482   4.705
83038W        W42541   5.760  18.649   0.330
83039W        W42542  21.651  24.084  10.952
83040W        W42543  19.118  20.233   0.326
83041W        W42544   6.371  18.605   2.308
83042W        W42545   0.471  18.093  11.047
83043W        W42546   2.363  27.135  13.007
83044W        W42547  10.877  20.748  11.111
83045W        W42548  37.901  22.570   3.233
83046W        W42549   4.824  35.954  10.072
83047W        W42550  32.543  20.739   2.367
83048W        W42551   4.305  12.353   2.253
83049W        W42552  34.913  42.459   1.417
83050W        W42553  33.121  41.865   1.369
83051W        W42554  13.627  28.485   2.714
83052W        W42555   4.222  15.719   0.935
83053W        W42556  34.420  43.919   3.722
83054W        W42557  30.459   4.345  11.910
83055W        W42558   7.864  37.373  14.779
83056W        W42559  21.206  26.046   4.663
83057W        W42560  43.295  38.047  13.319
83058W        W42561  19.253  41.925  14.871
83059W        W42562   1.966  17.585  11.592
83060W        W42563  18.178  10.655   1.883
83061W        W42564   6.370  13.842   0.890
83062W        W42565  17.600  21.063   0.271
83063W        W42566  18.087  39.407   1.442
83064W        W42567  10.833  14.676   9.484
83065W        W42568  38.420  27.566   1.718
83066W        W42569  29.967  26.060  12.489
83067W        W42570  44.002  14.329   2.786
83068W        W42571  31.024  42.315   3.384
83069W        W42572  30.095   0.344   3.813
83070W        W42573   1.937  22.723  12.568
83071W        W42574  13.771   1.341   1.330
83072W        W42575  32.462  40.905   4.113
83073W        W42576   4.388   0.408   0.919
83074W        W42577   3.222  21.686   1.223
83075W        W42578  33.455  33.913   3.301
83076W        W42579  38.956  40.532  11.488
83077W        W42580   6.194   9.267   1.827
83078W        W42581  13.152  17.149  14.301
83079W        W42582   1.348  25.603  11.508
83080W        W42583  33.452  40.968   2.837
83081W        W42584  14.259  17.783   3.657
83082W        W42585   3.224  42.009   4.612
83083W        W42586  27.082   6.730   0.388
83084W        W42587  31.513  21.720  12.374
83085W        W42588  43.385  14.780   0.865
83086W        W42589  32.604  22.239  10.962
83087W        W42590  24.100  38.869   3.830
83088W        W42591  38.993  29.540  10.581
83089W        W42592  32.620  12.236   1.266
83090W        W42593  40.413   5.703   2.750
83091W        W42594  41.950   2.860  14.986
83092W        W42595   2.287  35.480   3.285
83093W        W42596  11.631  24.980  11.426
83094W        W42597  18.165  34.958  10.453
83095W        W42598   4.364   8.877  14.349
83096W        W42599  40.306  21.526   0.890
83097W        W42600  35.463  37.970  12.026
83098W        W42601  13.707  17.226   1.358
83099W        W42602  27.497   5.283   3.734
83100W        W42603  16.651  21.548   3.785
83101W        W42604  34.986   8.243  14.956
83102W        W42605  20.184  12.711  14.335
83103W        W42606  10.332  13.771  13.489
83104W        W42607  19.160  29.531  12.907
83105W        W42608   0.335  30.963   4.627
83106W        W42609   6.222   9.844  13.428
83107W        W42610  37.874  12.231  13.395
83108W        W42611   8.879  42.839  14.952
83109W        W42612  11.755  31.105   3.739
83110W        W42613  31.944  24.614   4.133
83111W        W42614  19.585  17.260  13.308
83112W        W42615   4.904  22.741   0.833
83113W        W42616  14.187  14.159  11.429
83114W        W42617  11.627  10.641  14.997
83115W        W42618   0.265  39.500   1.394
83116W        W42619  32.494  32.609  11.128
83117W        W42620  32.063  23.095   4.739
83118W        W42621  35.957  17.137   3.653
83119W        W42622   0.301  17.155   9.549
83120W        W42623  31.129  39.422   2.419
83121W        W42624  28.096   7.336  11.398
83122W        W42625  44.809  24.714  13.421
83123W        W42626  37.062  19.138  14.291
83124W        W42627  33.007  43.427  11.577
83125W        W42628  29.036  32.900  12.355
83126W        W42629  27.660   4.364   1.299
83127W        W42630  19.618  39.525  11.446
83128W        W42631   3.293  37.574   3.286
83129W        W42632  33.620  44.933   2.836
83130W        W42633  26.491  39.400  11.058
83131W        W42634   6.304  16.245  10.557
83132W        W42635  11.139  42.431  10.995
83133W        W42636  21.185  28.578   1.321
83134W        W42637   9.827  15.760   2.196
83135W        W42638  39.469   6.333  12.566
83136W        W42639   2.800  26.049   3.314
83137W        W42640   2.314   1.770   2.279
83138W        W42641  43.405  42.846   0.402
83139W        W42642  19.273  22.624   3.337
83140W        W42643  21.185  28.521  14.513
83141W        W42644   7.748   6.864   3.367
83142W        W42645  35.380  13.743   4.124
83143W        W42646  17.308  21.592   2.191
83144W        W42647  44.367  43.320   0.302
83145W        W42648  28.037  43.467   1.280
83146W        W42649  41.827  29.029  10.098
83147W        W42650   6.182   6.902  10.625
83148W        W42651  23.735  40.830   4.296
83149W        W42652  15.316   0.312  13.387
83150W        W42653  10.795  36.958   4.776
83151W        W42654   5.840  37.979   3.157
83152W        W42655   3.280  41.514   1.720
83153W        W42656  16.282  28.123  12.030
83154W        W42657  44.924  38.364   3.741
83155W        W42658  17.633  39.925   1.217
83156W        W42659  40.487  21.581   3.857
83157W        W42660  14.657  12.631  13.973
83158W        W42661   4.352  40.392  11.867
83159W        W42662  16.147  23.197   4.810
83160W        W42663  35.859  40.392  14.463
83161W        W42664  40.325  40.393  13.052
83162W        W42665   6.391  18.050  14.475
83163W        W42666  38.423   3.779   1.410
83164W        W42667  36.470  10.741   3.794
83165W        W42668  15.126  25.122   0.304
83166W        W42669  33.979  31.451  13.980
83167W        W42670  40.512  27.197  11.393
83168W        W42671  16.610  28.976  14.414
83169W        W42672  13.340  11.761   5.248
83170W        W42673  37.542  37.085  12.003
83171W        W42674  29.529  21.063  14.483
83172W        W42675  16.705  17.741  12.882
83173W        W42676   4.868  36.410  14.332
83174W        W42677  43.905  17.569   5.713
83175W        W42678  12.802  14.188   2.264
83176W        W42679  38.409  38.053   0.902
83177W        W42680  39.951  30.651  13.363
83178W        W42681  15.095  30.109   4.737
83179W        W42682  32.392  11.718  11.863
83180W        W42683  44.331  44.339   3.222
83181W        W42684  39.920  20.673   3.855
83182W        W42685  24.589  29.448  14.289
83183W        W42686  38.853  12.245  12.995
83184W        W42687  16.111  35.907   3.716
83185W        W42688   5.749  26.082  13.512
83186W        W42689  21.726  10.851  11.006
83187W        W42690  30.622  42.962  14.457
83188W        W42691   4.877  16.104   2.853
83189W        W42692   5.417  14.634   4.650
83190W        W42693  30.499   8.659   1.264
83191W        W42694  21.550  11.780   4.191
83192W        W42695  30.090  43.876  14.337
83193W        W42696   4.851  44.404  11.967
83194W        W42697  11.248  20.672   3.336
83195W        W42698   7.849  44.934  12.868
83196W        W42699  11.708   5.898   2.181
83197W        W42700   2.916   9.769  13.419
83198W        W42701  31.618  24.621   4.783
83199W        W42702  34.427   2.927  14.419
83200W        W42703  17.176  14.670  13.899
83201W        W42704  23.644  26.129  13.928
83202W        W42705  40.025  37.431   4.710
83203W        W42706  12.634  20.071   0.964
83204W        W42707  30.162  14.721  14.355
83205W        W42708  22.507   1.382   2.241
83206W        W42709   3.378  33.913   4.217
83207W        W42710  28.012  34.433  11.091
83208W        W42711   6.326  24.120   4.231
83209W        W42712  25.548  25.023  11.050
83210W        W42713   2.363  24.076   0.426
83211W        W42714  33.427  20.684  12.075
83212W        W42715  38.999  18.102  12.513
83213W        W42716  20.249  28.026  11.928
83214W        W42717   2.304  34.402   4.643
83215W        W42718   5.392  39.346  11.027
83216W        W42719  14.632  32.528  12.533
83217W        W42720  39.065   4.749   0.758
83218W        W42721  19.227  11.165   1.271
83219W        W42722  27.567  39.011   4.208
83220W        W42723  41.895  26.091   0.753
83221W        W42724  37.904  26.011   3.166
83222W        W42725  34.107  26.554  12.839
83223W        W42726  34.067  35.522  13.538
83224W        W42727  43.310  19.278   2.193
83225W        W42728  22.618  31.925   4.205
83226W        W42729  30.439   5.829  11.424
83227W        W42730  15.188  17.246  14.906
83228W        W42731  23.629   3.823   5.669
83229W        W42732  35.953  29.148  10.495
83230W        W42733   9.850   5.219  12.839
83231W        W42734   4.832   4.838  12.868
83232W        W42735  27.646  28.636   2.669
83233W        W42736   4.945  15.191  13.374
83234W        W42737   6.717   9.830   3.162
83235W        W42738  34.605   1.273  10.547
83236W        W42739  27.601  43.299  10.444
83237W        W42740   1.277  40.355   4.756
83238W        W42741  13.669  21.663  13.928
83239W        W42742   1.805  35.372   0.424
83240W        W42743  17.272   6.269  14.932
83241W        W42744  44.390  38.419   3.177
83242W        W42745  18.229  39.919  12.925
83243W        W42746  44.395  28.533   0.281
83244W        W42747  17.673  28.004  10.937
83245W        W42748  27.035   0.379  13.511
83246W        W42749   3.896   2.368   1.744
83247W        W42750  10.331  24.522   3.163
83248W        W42751  27.995   0.392  11.886
83249W        W42752   9.334   2.913  12.509
83250W        W42753  12.296  13.164  12.940
83251W        W42754  30.094  10.243   5.769
83252W        W42755  14.293  40.966   3.367
83253W        W42756  26.204  32.513  14.413
83254W        W42757  14.824   3.279  12.901
83255W        W42758  16.679  22.189  11.890
83256W        W42759  37.976  15.140   1.929
83257W        W42760  33.024  19.691   1.400
83258W        W42761   8.403  16.798   1.748
83259W        W42762  29.640   3.225   5.141
83260W        W42763   3.803   1.922  13.357
83261W        W42764  25.200  38.469   1.254
83262W        W42765  29.470  15.244   3.370
83263W        W42766  29.646  38.840  14.314
83264W        W42767  37.918  18.246  14.772
83265W        W42768   6.247  13.306  11.948
83266W        W42769  18.206  41.362  10.994
83267W        W42770  36.911  24.997  14.342
83268W        W42771  42.825  38.008  11.896
83269W        W42772  22.179  14.658   4.629
83270W        W42773  19.099  18.195   0.964
83271W        W42774  39.552  38.932  13.899
83272W        W42775  21.564  12.751   3.155
83273W        W42776   3.452   7.815   1.792
83274W        W42777  17.600  11.254  11.457
83275W        W42778  30.997  20.612   3.866
83276W        W42779  33.109   2.344   3.319
83277W        W42780  24.677  39.523   1.874
83278W        W42781  14.663  27.572   1.788
83279W        W42782  12.638  28.500   1.768
83280W        W42783  25.144  36.546   0.883
83281W        W42784  10.189  26.552  12.423
83282W        W42785   3.298  12.304  11.438
83283W        W42786  21.136   9.765   1.824
83284W        W42787  22.233   6.882   2.348
83285W        W42788  26.567  34.944  10.496
83286W        W42789  26.185  40.543   0.262
83287W        W42790  27.964  38.563  12.468
83288W        W42791  17.251   2.251   0.474
83289W        W42792  18.199  31.973   4.658
83290W        W42793  23.551  23.064  10.461
83291W        W42794  16.707  39.339  14.985
83292W        W42795  34.478  32.477  13.041
83293W        W42796   6.885  22.509   2.390
83294W        W42797  19.196  33.934   4.683
83295W        W42798   2.432   3.355   3.664
83296W        W42799  34.000  31.421   4.835
83297W        W42800  19.149  11.193  10.421
83298W        W42801  19.197  26.031  11.991
83299W        W42802   5.874   1.751   2.778
83300W        W42803  44.391  27.136   0.781
83301W        W42804  44.773  18.156   3.856
83302W        W42805  44.434   5.203   1.298
83303W        W42806  40.517  26.146   1.914
83304W        W42807  11.332  28.464  12.064
83305W        W42808  32.919  29.149  14.814
83306W        W42809   9.335  32.897  14.899
83307W        W42810  30.102  42.458   0.317
83308W        W42811  14.094  33.556  11.504
83309W        W42812  27.525  20.120   2.874
83310W        W42813  23.047  33.574   0.964
83311W        W42814  35.982   3.711   3.732
83312W        W42815  11.650  17.714  10.128
83313W        W42816  38.867  34.543   2.786
83314W        W42817  24.600   8.765  12.853
83315W        W42818   1.755   5.837   4.740
83316W        W42819   3.720  34.964   4.735
83317W        W42820  40.988   8.733   0.844
83318W        W42821  23.085  18.107   1.273
83319W        W42822  28.952   4.908  10.058
83320W        W42823   9.817   4.794   4.685
83321W        W42824  22.242  36.506  12.031
83322W        W42825   8.403  28.020  13.011
83323W        W42826   8.689  34.613   9.588
83324W        W42827   3.773  23.036  13.825
83325W        W42828  39.888  12.700  11.930
83326W        W42829  40.491  42.019  13.972
83327W        W42830  26.536  28.518  12.839
83328W        W42831  14.319  43.858  11.957
83329W        W42832  17.154  34.375   1.761
83330W        W42833  36.916  27.995   4.267
83331W        W42834   9.347  28.491   2.780
83332W        W42835  34.543  35.603  10.434
83333W        W42836  34.977  33.520  11.467
83334W        W42837  29.476   4.372   4.145
83335W        W42838  17.225  42.843   4.837
83336W        W42839   3.397  24.710   3.862
83337W        W42840   7.269  13.835   2.338
83338W        W42841  11.673  12.803  11.058
83339W        W42842   1.924  33.586   4.785
83340W        W42843  12.659  39.019   2.805
83341W        W42844  31.413  35.019   3.775
83342W        W42845  39.462   5.907  14.002
83343W        W42846   4.937  19.624  11.058
83344W        W42847  22.071  33.915   2.701
83345W        W42848  13.287  17.666   0.913
83346W        W42849   2.805  28.571   0.853
83347W        W42850  37.858  43.921  13.357
83348W        W42851  16.120  21.122   4.647
83349W        W42852  10.336  15.678  14.493
83350W        W42853  29.043   4.881  13.043
83351W        W42854  42.801   1.770   2.274
83352W        W42855  17.658  20.617  10.442
83353W        W42856  41.041  13.275   2.260
83354W        W42857  39.534  27.455   4.606
83355W        W42858  18.064   6.210  11.999
83356W        W42859  23.724  32.987  11.885
83357W        W42860   0.348  22.246  11.534
83358W        W42861   9.835   9.381  12.939
83359W        W42862   9.230  15.663  14.508
83360W        W42863  28.573  42.369   0.322
83361W        W42864  39.502   4.207  11.596
83362W        W42865  21.151  26.702  14.952
83363W        W42866  10.751  36.978  13.904
83364W        W42867  19.110  33.469  13.880
83365W        W42868  14.830   8.723  10.998
83366W        W42869  29.080  18.215   1.879
83367W        W42870   6.914  10.280   3.283
83368W        W42871  31.896   9.735  14.773
83369W        W42872  17.564   4.741  11.495
83370W        W42873  18.737  25.098  13.848
83371W        W42874  19.536   0.433   4.749
83372W        W42875  22.628  30.018  14.834
83373W        W42876  42.874  32.111  13.486
83374W        W42877  35.913  13.669   1.820
83375W        W42878  10.354  43.293   4.654
83376W        W42879  31.102  32.955   1.794
83377W        W42880  23.134  40.312  10.414
83378W        W42881  29.151   0.397   3.184
83379W        W42882  10.655  34.109  14.474
83380W        W42883   5.794  10.669  11.123
83381W        W42884  23.668  13.322  12.508
83382W        W42885  31.567  35.061  10.093
83383W        W42886  28.132  14.806  13.491
83384W        W42887  36.492  11.201  12.938
83385W        W42888  16.582  28.003  10.527
83386W        W42889  22.510  41.349   2.811
83387W        W42890   4.361  31.958  13.417
83388W        W42891   8.759  24.624  11.064
83389W        W42892  11.696  13.811  12.571
83390W        W42893  34.073  19.622  13.859
83391W        W42894  44.932  14.790  12.944
83392W        W42895  43.931  43.807  13.810
83393W        W42896  15.797  11.284  12.911
83394W        W42897  25.052  28.154   1.401
83395W        W42898  41.388  38.921   0.336
83396W        W42899   5.853   8.176  14.877
83397W        W42900   2.890   8.706  10.432
83398W        W42901  34.523   6.328   2.413
83399W        W42902  20.082  29.951   3.324
83400W        W42903  31.997  35.918   3.788
83401W        W42904  21.083  14.097  11.062
83402W        W42905  44.842  13.776  12.084
83403W        W42906  43.937   8.703   1.815
83404W        W42907  32.535  21.608   0.368
83405W        W42908  21.544  18.243  12.489
83406W        W42909  18.197  30.019   2.190
83407W        W42910  16.299  18.547   3.736
83408W        W42911   3.850  25.983   0.415
83409W        W42912  38.863  35.563  13.815
83410W        W42913  33.956   2.383   2.413
83411W        W42914  43.994   9.711   4.598
83412W        W42915  12.221  33.933  11.856
83413W        W42916  22.706  16.706  13.403
83414W        W42917  18.614  32.423  14.835
83415W        W42918  39.054  38.025  12.419
83416W        W42919  16.749   4.361   2.396
83417W        W42920   8.302  25.649  12.542
83418W        W42921  39.370  18.290  11.077
83419W        W42922  19.246  33.113   1.313
83420W        W42923  20.105  22.204   3.174
83421W        W42924   1.428   5.885   1.770
83422W        W42925   5.834  18.227   3.315
83423W        W42926  25.169  44.433  13.872
83424W        W42927   6.808  33.930   3.385
83425W        W42928  29.118  20.183   2.248
83426W        W42929   3.794  29.091   4.353
83427W        W42930  35.474   5.239   3.692
83428W        W42931  39.530   0.392   3.861
83429W        W42932  30.639  35.359   4.217
83430W        W42933  14.673  43.812   3.240
83431W        W42934  28.515  26.553  14.392
83432W        W42935  27.152  26.598  11.429
83433W        W42936  44.351  29.136   3.815
83434W        W42937   2.400   5.796  13.924
83435W        W42938  26.166  43.447   2.853
83436W        W42939  34.028  10.145  11.593
83437W        W42940  23.104  26.159  13.881
83438W        W42941   3.762  19.078  11.578
83439W        W42942  27.548   2.857  14.316
83440W        W42943  43.954   0.848   3.238
83441W        W42944  44.806  24.562   1.245
83442W        W42945  38.821   9.682  13.384
83443W        W42946  17.759   3.433  13.807
83444W        W42947  40.010  40.386   3.322
83445W        W42948  15.749  22.232   0.440
83446W        W42949   1.833   3.216   3.866
83447W        W42950  21.716  10.174   3.331
83448W        W42951   5.862  33.113  12.575
83449W        W42952  42.498  44.992   2.707
83450W        W42953  33.595   9.226   4.616
83451W        W42954   0.400  44.448  13.412
83452W        W42955  12.613   2.831   0.279
83453W        W42956  34.592  13.606  13.813
83454W        W42957   0.363  43.394  14.887
83455W        W42958  38.972  21.129   2.383
83456W        W42959  11.702   1.317  12.050
83457W        W42960  15.712  26.956  10.493
83458W        W42961  11.788   3.396   3.773
83459W        W42962  37.867  35.933  14.331
83460W        W42963   8.707  24.181   4.262
83461W        W42964  20.677  42.485  11.581
83462W        W42965  25.032  21.132  13.019
83463W        W42966  31.128  36.881   1.730
83464W        W42967  31.505   8.209  11.539
83465W        W42968  31.995  27.597  12.428
83466W        W42969   8.239  21.174   2.879
83467W        W42970   8.370  23.166   0.475
83468W        W42971  19.093   4.923   4.197
83469W        W42972  36.955  35.948  12.004
83470W        W42973  44.759  20.223  12.031
83471W        W42974  12.260  42.828   0.459
83472W        W42975  25.700  21.190  11.043
83473W        W42976  18.554  44.301   0.831
83474W        W42977  42.983  41.913  10.953
83475W        W42978  41.921  44.886   3.699
83476W        W42979   4.287  27.450   4.286
83477W        W42980  41.015   6.773   1.721
83478W        W42981   7.727  35.879  12.390
83479W        W42982   0.353   5.921  10.947
83480W        W42983  40.498  16.631  10.138
83481W        W42984  29.062  34.550   5.247
83482W        W42985  34.933  37.867   9.437
83483W        W42986  26.567  16.683  11.976
83484W        W42987  11.322  17.133  10.445
83485W        W42988  44.317  29.562  12.879
83486W        W42989   6.343  26.649   4.308
83487W        W42990  36.978   3.790  12.894
83488W        W42991   7.370  17.711  12.406
83489W        W42992  31.632  40.806   3.335
83490W        W42993   7.862  39.420  12.356
83491W        W42994  13.757  43.451  13.439
83492W        W42995   8.215  24.670  10.537
83493W        W42996  21.680  41.931  13.383
83494W        W42997  18.773  41.843   2.334
83495W        W42998  17.616  31.628   2.209
83496W        W42999  28.673  28.555   0.849
83497W        W43000  40.871  23.160  13.399
83498W        W43001   0.836  24.551   4.660
83499W        W43002  29.071   0.930   0.384
83500W        W43003  44.817  43.864   5.635
83501W        W43004  38.371  27.997   0.966
83502W        W43005  22.555   6.877  13.524
83503W        W43006   1.924  30.948   3.173
83504W        W43007  17.306  19.613  12.044
83505W        W43008   3.731  11.155   2.670
83506W        W43009  29.658  28.547   0.267
83507W        W43010  38.030  17.293   3.179
83508W        W43011  10.800  13.600  12.525
83509W        W43012  28.571  27.119  10.122
83510W        W43013  21.732  44.464   3.166
83511W        W43014  21.151   1.953   3.668
83512W        W43015  31.939   4.879  12.476
83513W        W43016  44.891  29.010   4.670
83514W        W43017  22.091  28.573   3.756
83515W        W43018  38.362  29.625  12.824
83516W        W43019  42.019  19.722  14.919
83517W        W43020  15.249  35.038  12.933
83518W        W43021  15.083  22.550   3.684
83519W        W43022  41.425   2.252  13.430
83520W        W43023   6.916  40.378  13.473
83521W        W43024  37.978   9.876  10.573
83522W        W43025  37.399   9.790   3.704
83523W        W43026  36.992  26.540   0.927
83524W        W43027  34.441  12.681   0.935
83525W        W43028  10.185  26.618  14.498
83526W        W43029  17.636   2.394   4.650
83527W        W43030  13.163   5.807   2.266
83528W        W43031  20.672  43.894   3.274
83529W        W43032  32.056  35.387  11.526
83530W        W43033   3.711  18.168   4.182
83531W        W43034  28.488  13.241   0.943
83532W        W43035  40.964  35.078  14.492
83533W        W43036  18.263   5.246  10.528
83534W        W43037  12.243  29.918  10.421
83535W        W43038  28.165  19.694   3.808
83536W        W43039  35.526  27.571   4.187
83537W        W43040  10.212  41.476   2.287
83538W        W43041  16.786  42.822  14.897
83539W        W43042   5.388  44.502  12.411
83540W        W43043   6.281   6.712   4.795
83541W        W43044  40.833  32.538  13.998
83542W        W43045  30.443  17.255  12.039
83543W        W43046   0.767   8.860   4.824
83544W        W43047  18.600  21.677   2.191
83545W        W43048  23.188  27.654  10.583
83546W        W43049  35.538   0.321  10.596
83547W        W43050  17.189  27.590  11.867
83548W        W43051  33.535  40.995   1.853
83549W        W43052   8.838   4.776   1.381
83550W        W43053  14.304   7.248   2.337
83551W        W43054  37.947  35.981  14.760
83552W        W43055  10.664  29.117  13.471
83553W        W43056   9.313  38.349   4.295
83554W        W43057  22.535   9.690  12.046
83555W        W43058   8.690  35.371  13.864
83556W        W43059  17.247  24.998  11.070
83557W        W43060  44.919  11.186   1.260
83558W        W43061  17.611   4.702   3.318
83559W        W43062  17.565   3.435  14.927
83560W        W43063  40.413  32.550  11.893
83561W        W43064  43.979  32.141  12.487
83562W        W43065  12.287   9.270  13.489
83563W        W43066  14.633  11.698  14.770
83564W        W43067  40.515   7.290   2.409
83565W        W43068  33.083  21.582   4.663
83566W        W43069  12.267  13.206  12.005
83567W        W43070  24.686  38.891  13.352
83568W        W43071   7.413  17.231   0.272
83569W        W43072  14.708  28.140  13.381
83570W        W43073  29.603  36.352   5.659
83571W        W43074  12.839  13.703   0.858
83572W        W43075   4.940   2.345   2.712
83573W        W43076   5.260  41.800  13.858
83574W        W43077  30.043  24.689  11.595
83575W        W43078   7.269  43.962  11.392
83576W        W43079  41.466   6.707   1.323
83577W        W43080  19.091  10.708  10.903
83578W        W43081  14.150   1.304   1.910
83579W        W43082  32.445   6.799   0.463
83580W        W43083  13.677  33.027  13.803
83581W        W43084   0.475   7.290  13.803
83582W        W43085   4.880  13.827   4.673
83583W        W43086  16.145  15.616  14.942
83584W        W43087  34.424   3.281   1.431
83585W        W43088  23.731  44.440   0.822
83586W        W43089   8.729  29.027  10.947
83587W        W43090  13.254   6.268   0.947
83588W        W43091  44.815   6.807   1.329
83589W        W43092  14.738  23.615   2.887
83590W        W43093   0.365   4.810   4.251
83591W        W43094  14.605  25.698   2.387
83592W        W43095  23.576   4.289  14.473
83593W        W43096  16.281  33.990  14.320
83594W        W43097   9.184  35.978   4.642
83595W        W43098   7.313   1.901  12.008
83596W        W43099   9.659  18.127  12.369
83597W        W43100  23.213  23.658   3.825
83598W        W43101   6.843  21.180   5.190
83599W        W43102  28.601  30.452  14.843
83600W        W43103  36.480  14.732   4.826
83601W        W43104   5.852  34.406  11.998
83602W        W43105  10.792  41.458  11.107
83603W        W43106  37.868  15.785  12.553
83604W        W43107  31.624  14.829  13.933
83605W        W43108  22.717  15.639  14.810
83606W        W43109  21.655  30.095  14.321
83607W        W43110  13.748  40.370  12.074
83608W        W43111  40.472  25.519   3.702
83609W        W43112  15.130  14.156   1.701
83610W        W43113  21.634  22.569   0.304
83611W        W43114  42.891  43.335   0.757
83612W        W43115   7.873   9.873  11.403
83613W        W43116  20.745  20.673   4.256
83614W        W43117   8.843   8.890  11.376
83615W        W43118  23.090  15.241  13.349
83616W        W43119  43.982   0.413  13.019
83617W        W43120  15.159  44.970  13.336
83618W        W43121  18.770  34.393  13.018
83619W        W43122  18.655  44.321  14.975
83620W        W43123  36.441  13.723   2.290
83621W        W43124  18.285  30.153   2.808
83622W        W43125  40.357  29.494   4.222
83623W        W43126  43.370  22.583  14.816
83624W        W43127  41.425  21.655   1.219
83625W        W43128   6.188   7.177  10.108
83626W        W43129  30.637   6.770   3.346
83627W        W43130  28.508  32.550  14.828
83628W        W43131  25.505  18.272   5.084
83629W        W43132  39.444  12.615  13.035
83630W        W43133   0.378  13.733   1.380
83631W        W43134  17.295  20.076  13.969
83632W        W43135   3.246  23.225  13.919
83633W        W43136  31.090  42.874   0.855
83634W        W43137  21.076  10.644  13.494
83635W        W43138  22.116  21.749   3.639
83636W        W43139  20.219  26.103  10.626
83637W        W43140  39.051  13.215  12.548
83638W        W43141   4.816   2.832   3.835
83639W        W43142  21.514   7.796   3.306
83640W        W43143  21.646  15.619  12.072
83641W        W43144  16.711   6.345  13.043
83642W        W43145  41.482  26.125  11.084
83643W        W43146  42.477  12.182  10.417
83644W        W43147  12.127  17.769   1.878
83645W        W43148   8.336  25.479  13.998
83646W        W43149  34.572  23.010   4.142
83647W        W43150   1.361  18.710   2.298
83648W        W43151  22.564   0.802   1.303
83649W        W43152   7.713   9.330  13.349
83650W        W43153   9.295  38.368  11.102
83651W        W43154  36.037   6.288  10.437
83652W        W43155  42.874  11.318  14.297
83653W        W43156   2.735  25.191  10.887
83654W        W43157  15.273  40.534   1.407
83655W        W43158  19.224  42.858   0.405
83656W        W43159   5.224   6.861   3.806
83657W        W43160  20.696   7.178  11.998
83658W        W43161  40.308   0.357   0.258
83659W        W43162  22.526  13.810   1.922
83660W        W43163   0.803  14.606  12.993
83661W        W43164  40.373  40.481   0.835
83662W        W43165  38.544  44.430  12.933
83663W        W43166  44.975   4.784  13.030
83664W        W43167  36.953  16.208   0.443
83665W        W43168  27.617  10.745  12.531
83666W        W43169  22.633  32.573   2.803
83667W        W43170   3.781  41.894   1.407
83668W        W43171  38.336  28.666   0.431
83669W        W43172  17.195   5.919   4.319
83670W        W43173  35.422  20.554   1.827
83671W        W43174  13.658  13.141  13.997
83672W        W43175  36.443  27.450  11.517
83673W        W43176  32.513   2.319  10.562
83674W        W43177  21.107  26.175   2.355
83675W        W43178  13.689  14.703  13.822
83676W        W43179  26.489  22.523   3.814
83677W        W43180  44.463  18.713   3.650
83678W        W43181   3.318  16.238   1.871
83679W        W43182  39.902  16.698  14.995
83680W        W43183  39.890  36.448  14.461
83681W        W43184  19.139  36.050  12.575
83682W        W43185  31.599  20.210   1.885
83683W        W43186  23.001  18.065  13.409
83684W        W43187  35.936  22.680  10.409
83685W        W43188  24.500  27.648  13.440
83686W        W43189  10.848   9.381  14.806
83687W        W43190  37.883  16.661   2.200
83688W        W43191  12.307  33.509   1.230
83689W        W43192   2.901  33.900  11.862
83690W        W43193   4.266  29.124   0.298
83691W        W43194  42.403  20.109   9.493
83692W        W43195   8.768  38.482  11.900
83693W        W43196  36.395  30.548   0.873
83694W        W43197  11.763  13.268  11.918
83695W        W43198  20.099  13.682  11.405
83696W        W43199   2.729  23.690  12.065
83697W        W43200   9.669  38.548   3.870
83698W        W43201   6.741  20.593  11.946
83699W        W43202  39.814  16.607   2.403
83700W        W43203  12.742   1.331   3.649
83701W        W43204  16.221   6.396  13.542
83702W        W43205  39.883  35.930  10.896
83703W        W43206  32.481  32.393  14.358
83704W        W43207  14.311  19.049  14.301
83705W        W43208  36.992  26.599  11.093
83706W        W43209  14.787  27.640   4.180
83707W        W43210  35.109  34.370  14.508
83708W        W43211  41.419  38.017  10.562
83709W        W43212   5.332  12.796   4.149
83710W        W43213  39.422  42.804   0.781
83711W        W43214  33.559  11.147  13.905
83712W        W43215  36.592  18.097  14.833
83713W        W43216  31.619  24.494  12.512
83714W        W43217   7.244  13.139  13.004
83715W        W43218  39.448  38.940   0.829
83716W        W43219  36.918   3.726  12.490
83717W        W43220   7.715  33.537   3.318
83718W        W43221   4.898   4.849   1.348
83719W        W43222   2.419   4.884  12.956
83720W        W43223   5.419  13.129   4.782
83721W        W43224  33.891  20.165  13.035
83722W        W43225  25.519  15.198  12.578
83723W        W43226  37.566  15.623   2.794
83724W        W43227  40.538  24.124  14.328
83725W        W43228   4.411  43.964   1.272
83726W        W43229  38.041  14.702  12.826
83727W        W43230  29.563  32.510  12.066
83728W        W43231   0.808  41.474  11.084
83729W        W43232  11.635  16.129   4.207
83730W        W43233  10.731  25.967  12.560
83731W        W43234   9.710   8.777   0.945
83732W        W43235  21.597   4.834   4.184
83733W        W43236  39.906  23.731  13.407
83734W        W43237   0.862  42.423   0.320
83735W        W43238  18.732   8.736   0.268
83736W        W43239  43.327  28.610  13.478
83737W        W43240  18.638   8.306   1.363
83738W        W43241  18.776  43.994   0.314
83739W        W43242  28.091  20.029   3.640
83740W        W43243  42.870  20.725   0.820
83741W        W43244  43.768  43.505   0.286
83742W        W43245  44.938  36.478  14.777
83743W        W43246  12.771  28.000   3.174
83744W        W43247  44.783   7.761  10.462
83745W        W43248   9.383  30.650   5.153
83746W        W43249   3.800   7.374  11.973
83747W        W43250  21.238   3.915   2.391
83748W        W43251  11.341   4.848  10.036
83749W        W43252   4.784  17.639  14.422
83750W        W43253  24.674   7.332   2.665
83751W        W43254  29.543  19.140  11.981
83752W        W43255  41.514  42.308  12.557
83753W        W43256  44.317  19.132  14.474
83754W        W43257  39.859  14.315   2.676
83755W        W43258   3.840  31.630   1.328
83756W        W43259   2.304   1.952  11.450
83757W        W43260  14.676  39.413  11.859
83758W        W43261   5.389   3.431   2.349
83759W        W43262  39.412  21.125  11.863
83760W        W43263  27.057  19.703   4.248
83761W        W43264  20.125   4.827   3.679
83762W        W43265  20.194  21.602  10.436
83763W        W43266  20.560  38.906  11.123
83764W        W43267  30.589  23.048   0.417
83765W        W43268  10.185  34.026   4.164
83766W        W43269  37.886   7.807  13.456
83767W        W43270  27.049  15.321  12.833
83768W        W43271   2.927  32.615  14.350
83769W        W43272   4.290  14.262  12.462
83770W        W43273  36.024  16.179  14.797
83771W        W43274   4.276   7.710   4.293
83772W        W43275  38.842  31.934   5.109
83773W        W43276  37.447   8.256  13.417
83774W        W43277  11.329  21.024  11.972
83775W        W43278  44.369  14.244   1.856
83776W        W43279  41.006   4.891  13.404
83777W        W43280  12.171  36.468   1.442
83778W        W43281  42.796  17.172   0.458
83779W        W43282  29.164   2.838   1.716
83780W        W43283  25.216  23.636   2.813
83781W        W43284  24.556   8.811   1.211
83782W        W43285   0.439  28.095  12.930
83783W        W43286  30.419  43.363  13.965
83784W        W43287  43.909  43.314   2.841
83785W        W43288  35.080  13.683   0.338
83786W        W43289  40.396  14.306  11.923
83787W        W43290   8.701  42.403   1.885
83788W        W43291   0.981  33.892  14.852
83789W        W43292  34.598  25.678   2.244
83790W        W43293  17.645  14.719   3.747
83791W        W43294  22.568  29.539  10.902
83792W        W43295  36.912  24.529  11.041
83793W        W43296  37.523  10.839   4.739
83794W        W43297  14.318  15.625   2.208
83795W        W43298  12.806  22.721   4.230
83796W        W43299   0.459   8.654  13.857
83797W        W43300   2.236  31.621  10.418
83798W        W43301   7.807  18.697  12.550
83799W        W43302  43.327  17.102  13.466
83800W        W43303  37.005  29.088  10.972
83801W        W43304  24.050  23.670  12.449
83802W        W43305  22.123   7.253   1.390
83803W        W43306  26.007  16.133  11.549
83804W        W43307  24.491   8.249  11.493
83805W        W43308  25.628   8.360  11.982
83806W        W43309  15.117  40.398   1.734
83807W        W43310  22.187  39.466  10.601
83808W        W43311  12.671  22.243  10.943
83809W        W43312  26.520  16.073   4.341
83810W        W43313  30.160  33.916   0.297
83811W        W43314   2.253  37.483   0.800
83812W        W43315  26.458  12.646  13.515
83813W        W43316  37.060  36.032   2.859
83814W        W43317   5.857  14.741  11.592
83815W        W43318  18.189  41.816  10.451
83816W        W43319  25.127  15.285   1.230
83817W        W43320   4.713  40.054  13.873
83818W        W43321  28.169  13.192  11.875
83819W        W43322  14.690   4.806  10.156
83820W        W43323   4.365  43.861  14.808
83821W        W43324   3.752  29.151  10.980
83822W        W43325   6.801  23.125  14.293
83823W        W43326  11.721  19.624   1.301
83824W        W43327  21.515  16.231  13.827
83825W        W43328   9.276  27.049  12.465
83826W        W43329  27.084  21.255   1.801
83827W        W43330  18.784  32.552   1.422
83828W        W43331  20.264  44.842  11.595
83829W        W43332  15.179   6.766  11.050
83830W        W43333  24.092  15.205  10.425
83831W        W43334  13.160  14.296  10.994
83832W        W43335  24.683   5.700   3.324
83833W        W43336  26.136   2.368   3.280
83834W        W43337   5.394  21.596   1.370
83835W        W43338  24.611  39.030  10.099
83836W        W43339  42.424  34.117   0.429
83837W        W43340  31.439   7.835  11.952
83838W        W43341  20.212  30.480  14.380
83839W        W43342   0.935  44.322  14.999
83840W        W43343  37.062  27.113  10.494
83841W        W43344  28.564  19.150  13.307
83842W        W43345   8.759  21.120   4.290
83843W        W43346   1.375  25.999  11.531
83844W        W43347  15.083  33.615  11.952
83845W        W43348  11.153  10.268   2.412
83846W        W43349  35.978  36.381   1.353
83847W        W43350  10.670  25.541  10.417
83848W        W43351   4.736   5.742  11.985
83849W        W43352  19.714  32.619  11.430
83850W        W43353  41.986  40.859   3.375
83851W        W43354   5.932  26.985  12.911
83852W        W43355  17.755  36.386  11.507
83853W        W43356  11.796  40.440   1.847
83854W        W43357   1.944  22.504   0.772
83855W        W43358  12.351  27.546  13.869
83856W        W43359  31.418  37.423  12.495
83857W        W43360  38.431  40.805   1.890
83858W        W43361   6.899  27.650   3.164
83859W        W43362   6.898   7.322  13.922
83860W        W43363  29.026  32.889   2.392
83861W        W43364  42.527  18.179  11.950
83862W        W43365   6.874  39.913  10.454
83863W        W43366  35.380  41.501   4.191
83864W        W43367  36.845   1.379   1.239
83865W        W43368  32.892  43.375   4.120
83866W        W43369  38.947  28.117   3.337
83867W        W43370   1.745   1.954  12.977
83868W        W43371  19.080   1.837  10.613
83869W        W43372  22.137  20.578   4.186
83870W        W43373  35.961   5.827  11.872
83871W        W43374  22.591  41.301   3.341
83872W        W43375  26.113   5.290  10.981
83873W        W43376   9.378  26.634  11.596
83874W        W43377  12.640  42.023  13.907
83875W        W43378  21.599  12.263   4.777
83876W        W43379  14.303  13.301   1.390
83877W        W43380  22.662   5.761  12.936
83878W        W43381  40.361  17.647  13.921
83879W        W43382   8.837   4.318  11.103
83880W        W43383  21.531  37.017  13.497
83881W        W43384  28.571  13.109   3.178
83882W        W43385  18.254   2.765   2.677
83883W        W43386  21.631  15.605  13.055
83884W        W43387  31.101  18.727  14.382
83885W        W43388  31.131  35.101  12.558
83886W        W43389  44.333  35.051  11.575
83887W        W43390  42.014  43.882  11.056
83888W        W43391  33.515  12.120   4.314
83889W        W43392   8.730  33.413   0.373
83890W        W43393  22.554   7.369   3.867
83891W        W43394  42.964  20.768  12.861
83892W        W43395  43.284  26.117   4.235
83893W        W43396   0.898  25.630   2.801
83894W        W43397  28.474  21.161   0.901
83895W        W43398  40.943  43.468  14.854
83896W        W43399  38.368  32.905  11.540
83897W        W43400  32.905  34.105   3.313
83898W        W43401  11.843  31.562  14.025
83899W        W43402  23.533  33.541   1.401
83900W        W43403  25.095  24.679   4.307
83901W        W43404  41.806  44.770  11.914
83902W        W43405   4.407   0.488  13.822
83903W        W43406  19.675   6.269   3.660
83904W        W43407  19.239  21.735   0.732
83905W        W43408  44.943  16.581  12.567
83906W        W43409  24.694  37.016   4.705
83907W        W43410  27.100  33.973   0.443
83908W        W43411   9.383  23.648  11.609
83909W        W43412  25.579  40.013  11.125
83910W        W43413  20.143  32.091  12.041
83911W        W43414  39.370  43.511   0.314
83912W        W43415  29.584  42.461   4.245
83913W        W43416   3.223   7.181   0.812
83914W        W43417  22.559  43.319  12.441
83915W        W43418  44.932  42.889   4.326
83916W        W43419  29.488  40.020   1.903
83917W        W43420  39.989  37.036  11.584
83918W        W43421  24.224  16.131  14.390
83919W        W43422  18.168  35.071  11.495
83920W        W43423  27.050  35.986  12.057
83921W        W43424  32.105  26.659   2.748
83922W        W43425  23.609  18.156   1.740
83923W        W43426  10.222  40.382  14.466
83924W        W43427  21.072  41.320   2.757
83925W        W43428  13.840  19.145  11.585
83926W        W43429   0.901   5.831  12.429
83927W        W43430  29.487  20.664   1.870
83928W        W43431  29.963  16.751   0.431
83929W        W43432  23.117  25.146   3.196
83930W        W43433  36.467  19.779  11.928
83931W        W43434  11.840   1.941  13.880
83932W        W43435  28.623  41.340   3.385
83933W        W43436  10.823  31.506  14.875
83934W        W43437  34.092  27.949  14.405
83935W        W43438   6.858  29.598  11.053
83936W        W43439  15.266   7.325  14.398
83937W        W43440  39.896  36.011  10.482
83938W        W43441   5.920  14.224   4.802
83939W        W43442  28.018  43.786  14.811
83940W        W43443   5.696   3.885   2.362
83941W        W43444  44.956  41.399  13.958
83942W        W43445   6.289   8.728   5.096
83943W        W43446  43.863  24.225  11.111
83944W        W43447  31.440  16.136  11.066
83945W        W43448  12.183   6.182  12.893
83946W        W43449  41.359  30.071  13.940
83947W        W43450   7.408  20.145   2.273
83948W        W43451  43.815  39.032  14.858
83949W        W43452  42.517  40.348   4.774
83950W        W43453   8.214  25.118  12.042
83951W        W43454  34.524   6.842  13.801
83952W        W43455  36.416   5.431  14.507
83953W        W43456  35.543   8.262   3.307
83954W        W43457   5.931  31.587  12.377
83955W        W43458  39.870  11.362   2.776
83956W        W43459  27.649  23.707  11.512
83957W        W43460   2.937   1.802   4.347
83958W        W43461   4.390  26.545   3.732
83959W        W43462   0.442  12.349  11.442
83960W        W43463  17.716  11.806   2.243
83961W        W43464  30.514   1.256  12.845
83962W        W43465   8.820  44.493  11.040
83963W        W43466  15.192   9.643   3.701
83964W        W43467   8.207  11.254  14.770
83965W        W43468  17.609   7.203  14.895
83966W        W43469  13.240  44.958  10.427
83967W        W43470   0.471   7.309  10.436
83968W        W43471   6.293   9.226  10.479
83969W        W43472  18.102  19.231   4.152
83970W        W43473  34.406  14.246  11.978
83971W        W43474  28.093  40.960   1.916
83972W        W43475  14.822  17.718   4.769
83973W        W43476  34.969  21.205   4.707
83974W        W43477  41.949   4.358   2.829
83975W        W43478   1.774  13.116  12.481
83976W        W43479  37.964  29.525  10.573
83977W        W43480   8.799   1.960  14.847
83978W        W43481  11.174  19.039   2.269
83979W        W43482   2.890  25.543   0.424
83980W        W43483  35.494   0.375   2.832
83981W        W43484  33.444  13.218   2.664
83982W        W43485  26.627  41.415  13.002
83983W        W43486  11.198  42.465  13.979
83984W        W43487  27.522  39.888   0.846
83985W        W43488  10.738  37.920   3.848
83986W        W43489  31.075  10.846   3.243
83987W        W43490  13.340  11.315  14.936
83988W        W43491  33.613  30.992  13.996
83989W        W43492   1.423  17.064  11.869
83990W        W43493  36.055  22.016   1.291
83991W        W43494   8.857  23.514   3.746
83992W        W43495   8.678  40.373   2.745
83993W        W43496  38.936   8.894   1.806
83994W        W43497   9.876  10.793  13.398
83995W        W43498   5.367  44.888  12.050
83996W        W43499   5.858  32.897   1.698
83997W        W43500   1.977   2.359   2.859
83998W        W43501  38.060   7.877   4.232
83999W        W43502  25.058  24.713   2.409
84000W        W43503  12.747   5.236   0.434
84001W        W43504  24.185  21.186   1.264
84002W        W43505   5.323  22.709  14.761
84003W        W43506  30.631   5.331   2.193
84004W        W43507  34.606  28.995   0.948
84005W        W43508  31.639  36.492  13.409
84006W        W43509  10.201  40.356   3.800
84007W        W43510  23.729  25.709   3.341
84008W        W43511  16.285  33.594   3.190
84009W        W43512  18.244   3.888   2.785
84010W        W43513  41.500  40.493   3.215
84011W        W43514  11.788  36.490   0.265
84012W        W43515  28.528  10.878   0.897
84013W        W43516  36.068  16.611   3.735
84014W        W43517  36.871  21.263  14.296
84015W        W43518   7.689  29.579  14.333
84016W        W43519   8.172  41.537   1.389
84017W        W43520   7.333   6.182   2.251
84018W        W43521  41.882  38.407   3.243
84019W        W43522  40.953   0.895   4.761
84020W        W43523  17.080  19.562   1.286
84021W        W43524  14.327  41.914   5.111
84022W        W43525   6.243  33.096  13.526
84023W        W43526  16.161  26.637   5.186
84024W        W43527  15.180  29.614  13.979
84025W        W43528  26.073   4.937  12.480
84026W        W43529   9.848  25.668  10.442
84027W        W43530  12.286  19.701   5.122
84028W        W43531   5.814  19.066   3.824
84029W        W43532   0.987  16.283   4.138
84030W        W43533  16.075   7.217  14.916
84031W        W43534  23.093  21.546   4.150
84032W        W43535  32.463  12.817   5.280
84033W        W43536  26.092  23.207   0.368
84034W        W43537  20.562   9.193   0.923
84035W        W43538  11.226   5.213   1.767
84036W        W43539  14.589  13.666   3.776
84037W        W43540  11.717  21.543  11.015
84038W        W43541  44.377  14.277  11.052
84039W        W43542   4.387  18.629   1.263
84040W        W43543  28.048   6.781   4.708
84041W        W43544  11.706  43.885  12.916
84042W        W43545  36.994  14.602   0.766
84043W        W43546  36.881  30.478  13.377
84044W        W43547  40.409  42.857   2.704
84045W        W43548  35.103  10.740  13.361
84046W        W43549  18.293  13.841   3.816
84047W        W43550  42.932   7.374   0.906
84048W        W43551  26.953   3.946  14.462
84049W        W43552   3.410  34.596   0.370
84050W        W43553  27.576  32.090  10.918
84051W        W43554  21.654  29.120  12.981
84052W        W43555  26.069  17.306   3.214
84053W        W43556   8.167  43.884   4.744
84054W        W43557   0.492  14.122   0.327
84055W        W43558  25.626  42.379  13.852
84056W        W43559   9.712  33.583   5.660
84057W        W43560  33.065  11.131  11.952
84058W        W43561   8.844  17.282   1.215
84059W        W43562   5.812  43.002  12.435
84060W        W43563  27.194  12.665  13.518
84061W        W43564  15.640  41.903  13.969
84062W        W43565  27.027  36.539  13.833
84063W        W43566  22.514  30.541  10.473
84064W        W43567  37.398   1.862   2.876
84065W        W43568   6.872  26.533   4.279
84066W        W43569  27.983   1.471   4.253
84067W        W43570   1.879  42.431   2.267
84068W        W43571  44.387  13.349  12.542
84069W        W43572  20.766   5.828   4.309
84070W        W43573   5.198  35.888  13.014
84071W        W43574   1.845  19.775  10.491
84072W        W43575   0.751  43.407  14.836
84073W        W43576   0.956  43.924  14.414
84074W        W43577  20.061  11.367   3.835
84075W        W43578  23.663  23.580  12.428
84076W        W43579  31.412  44.935  13.527
84077W        W43580   8.786  31.026   4.795
84078W        W43581  11.217  11.164   3.379
84079W        W43582  22.157   6.685  10.969
84080W        W43583  15.125  42.496  11.012
84081W        W43584  44.824  37.930  13.438
84082W        W43585  17.303  43.335   2.379
84083W        W43586  26.035   6.193  12.376
84084W        W43587  23.150  17.250   0.892
84085W        W43588  41.538  25.062  14.471
84086W        W43589  28.153  27.641   3.255
84087W        W43590  18.605  12.352  11.459
84088W        W43591   3.878  40.521   1.921
84089W        W43592  36.011   3.436  13.414
84090W        W43593  38.945  18.248   2.352
84091W        W43594  40.404  32.596  13.496
84092W        W43595  36.513  32.088   3.164
84093W        W43596  32.479  15.168  12.347
84094W        W43597  18.278  20.041   3.717
84095W        W43598   4.383  15.640  12.093
84096W        W43599  18.769   0.876   0.913
84097W        W43600  42.421  23.009  10.915
84098W        W43601  15.289  14.290  14.334
84099W        W43602  29.030  28.174  12.003
84100W        W43603  39.466  41.869   1.884
84101W        W43604  24.711  36.466  10.522
84102W        W43605  43.499   0.856  10.921
84103W        W43606  24.049  24.536   2.667
84104W        W43607  21.667   2.790  11.058
84105W        W43608  18.746  15.657   2.769
84106W        W43609  17.645  11.142   2.860
84107W        W43610   0.746   3.237  14.341
84108W        W43611   4.929  28.100  13.369
84109W        W43612  28.090   5.871  13.359
84110W        W43613  25.123  33.408  11.440
84111W        W43614  32.072  30.450   3.689
84112W        W43615  34.592  31.112   3.846
84113W        W43616  11.838  23.995   1.800
84114W        W43617  44.953  31.544  14.767
84115W        W43618  34.487  34.567  11.118
84116W        W43619  32.114  21.634  13.346
84117W        W43620   3.763  28.625   3.284
84118W        W43621  14.292  39.479   1.332
84119W        W43622  31.987  37.447   2.828
84120W        W43623   2.345  34.978   1.865
84121W        W43624  21.587  32.900  14.924
84122W        W43625   2.811  25.168   0.368
84123W        W43626  19.144  36.058   1.769
84124W        W43627  32.621  22.068  13.992
84125W        W43628  32.546  26.565   1.249
84126W        W43629  24.077  38.908  10.445
84127W        W43630  43.861  43.364  11.976
84128W        W43631   5.895  39.814  14.012
84129W        W43632  29.928   3.430  11.061
84130W        W43633  26.103  13.788   3.840
84131W        W43634  15.106  30.593  11.441
84132W        W43635  12.634  22.647   2.340
84133W        W43636  41.847   3.899  13.018
84134W        W43637   5.202   5.346  11.374
84135W        W43638   2.908  41.336   0.809
84136W        W43639  40.467  36.872  11.937
84137W        W43640   0.817  44.478   2.877
84138W        W43641   9.159  26.531   4.772
84139W        W43642  40.808  20.747   3.768
84140W        W43643  20.543  34.592   3.716
84141W        W43644  26.081   8.777  13.825
84142W        W43645  43.825   6.341  11.077
84143W        W43646   5.261  25.479  14.449
84144W        W43647  17.168  32.552   2.698
84145W        W43648  14.202   2.941  14.347
84146W        W43649  23.029   8.253   0.816
84147W        W43650  41.452  39.525  12.881
84148W        W43651  13.293  36.021   3.827
84149W        W43652   9.251  13.845   1.247
84150W        W43653  16.128  38.926   2.280
84151W        W43654  37.895   2.403   2.847
84152W        W43655  42.493  35.981   4.661
84153W        W43656   8.739   8.406   4.784
84154W        W43657   7.340  32.103  13.870
84155W        W43658   5.413   8.277  11.448
84156W        W43659  41.519   2.765   1.796
84157W        W43660  19.753  24.008  14.829
84158W        W43661  40.991  40.461  11.384
84159W        W43662  12.708  29.051   4.644
84160W        W43663  18.706   5.290  14.979
84161W        W43664  26.051  35.592  14.493
84162W        W43665   2.875  23.022   4.615
84163W        W43666   2.744   5.912   3.178
84164W        W43667  38.922  20.213   3.246
84165W        W43668   4.731  24.145  11.525
84166W        W43669  22.224  15.786   1.732
84167W        W43670  13.680  40.800  14.499
84168W        W43671  35.479  37.558  10.015
84169W        W43672  25.117  40.935  12.018
84170W        W43673  12.222  21.146  14.819
84171W        W43674  44.396  43.948   3.727
84172W        W43675   7.230  24.614   1.442
84173W        W43676   9.714  26.562  13.430
84174W        W43677  12.245  34.919  13.332
84175W        W43678  38.368   3.886   3.259
84176W        W43679   7.684   5.774  13.933
84177W        W43680  15.147  31.053   3.647
84178W        W43681   9.675  37.534  12.463
84179W        W43682  10.635  10.223  13.935
84180W        W43683  30.620  28.570  11.417
84181W        W43684   1.387   4.248  13.838
84182W        W43685  30.509  29.664   2.207
84183W        W43686  43.821   2.908  12.035
84184W        W43687  26.617  15.167   1.732
84185W        W43688  42.934  33.892   2.728
84186W        W43689  37.517  13.228   5.125
84187W        W43690  24.083  14.096   3.688
84188W        W43691   7.210  25.656  13.529
84189W        W43692  41.292  38.829  11.604
84190W        W43693   5.424  21.147  14.803
84191W        W43694  24.992  31.137   2.202
84192W        W43695   1.314  13.268  11.997
84193W        W43696  30.441  44.851   2.761
84194W        W43697  32.495  43.407   1.773
84195W        W43698  12.833  28.468  14.339
84196W        W43699   2.456  27.102  12.536
84197W        W43700  28.612   1.442  10.896
84198W        W43701  17.606  23.549   2.338
84199W        W43702  19.199  19.694   3.381
84200W        W43703  36.551  12.179  11.509
84201W        W43704  15.308   1.822   1.355
84202W        W43705  31.422  24.648   3.759
84203W        W43706   4.875  33.891   0.461
84204W        W43707  20.552  23.120  13.467
84205W        W43708   4.912  15.231   2.226
84206W        W43709  24.144  44.881   2.233
84207W        W43710  25.532   6.912  13.479
84208W        W43711   5.259   0.493  13.792
84209W        W43712  40.988   0.371   1.431
84210W        W43713  17.128  22.097   4.249
84211W        W43714   7.705  10.800  13.388
84212W        W43715  28.044  16.129   2.869
84213W        W43716  11.257  23.209  10.453
84214W        W43717  16.197  43.865   0.782
84215W        W43718  33.390   5.776   2.864
84216W        W43719  32.616  43.284   0.791
84217W        W43720   8.803  31.575   2.236
84218W        W43721  29.535  31.008   4.680
84219W        W43722  22.144  41.854  14.772
84220W        W43723  39.030  28.531   4.216
84221W        W43724   2.339  39.369   2.338
84222W        W43725  41.429  33.540  11.558
84223W        W43726  25.025  19.672  14.020
84224W        W43727  20.759  12.154  14.338
84225W        W43728  18.686  33.495  12.521
84226W        W43729   6.217  30.441   2.692
84227W        W43730  30.453  25.520  10.159
84228W        W43731  36.053   3.263   1.423
84229W        W43732   8.188   3.296   4.160
84230W        W43733  27.089  27.094   3.256
84231W        W43734   0.945   4.735   0.272
84232W        W43735   6.204  21.567  11.088
84233W        W43736  33.476  13.721  14.481
84234W        W43737  26.179  34.871   2.725
84235W        W43738  23.493   5.355   1.261
84236W        W43739  29.513  14.159  11.877
84237W        W43740  25.185  25.674   5.181
84238W        W43741  33.991  21.029   2.745
84239W        W43742  15.210   2.425  14.970
84240W        W43743  31.602   0.800  10.929
84241W        W43744   6.742  10.746  14.426
84242W        W43745  28.485  11.742   4.734
84243W        W43746  20.141   9.314   4.130
84244W        W43747   0.271  36.524   3.338
84245W        W43748  12.619   3.218  14.463
84246W        W43749  34.475  25.522  13.796
84247W        W43750  42.518  26.076   2.228
84248W        W43751  42.950  32.121   0.840
84249W        W43752  29.051  26.584   3.855
84250W        W43753  14.124  19.282  11.939
84251W        W43754  41.388  37.430  14.503
84252W        W43755  35.982  44.396   0.957
84253W        W43756  36.939  34.112  12.519
84254W        W43757  10.369   3.297   4.354
84255W        W43758  12.357  18.574  10.970
84256W        W43759  16.093  34.506  11.394
84257W        W43760  19.173  32.039   4.749
84258W        W43761  11.326  35.022   3.848
84259W        W43762   6.366  26.032   0.283
84260W        W43763  12.209  16.594  14.869
84261W        W43764  17.293  35.024  13.873
84262W        W43765  34.007  36.364   4.239
84263W        W43766  36.848  30.114  12.862
84264W        W43767   6.234  13.227  13.830
84265W        W43768  15.644  11.323  14.926
84266W        W43769  24.114   7.902  11.893
84267W        W43770   0.801  29.461   1.395
84268W        W43771   7.351  33.121   3.703
84269W        W43772  41.015  42.867   4.700
84270W        W43773   6.362  14.185   4.234
84271W        W43774  17.095  34.983   1.359
84272W        W43775  12.278   8.741   3.354
84273W        W43776   2.356  22.178   3.163
84274W        W43777  28.659  24.650   3.269
84275W        W43778  42.812   0.393  14.494
84276W        W43779   8.657  31.910  11.029
84277W        W43780  28.136  14.636   3.294
84278W        W43781  35.919   5.809   4.178
84279W        W43782  41.967  42.444   1.840
84280W        W43783  30.131  22.023   3.287
84281W        W43784  22.062  16.728   2.742
84282W        W43785  37.390   9.754   1.322
84283W        W43786  12.773   0.270   4.600
84284W        W43787  31.560  44.367   3.787
84285W        W43788  16.777  35.575   0.747
84286W        W43789  16.248   0.473  10.629
84287W        W43790  20.043  24.157  14.867
84288W        W43791  18.592  33.614   0.272
84289W        W43792  14.636  20.578  10.593
84290W        W43793  13.277  33.966   1.423
84291W        W43794   6.737  19.217  14.796
84292W        W43795  15.640   1.354  11.439
84293W        W43796  25.603   5.833  11.038
84294W        W43797  25.211  29.160   1.825
84295W        W43798  24.104  44.951   3.304
84296W        W43799  30.097  21.711   1.886
84297W        W43800   6.707  31.900   1.814
84298W        W43801  40.534  38.863   3.163
84299W        W43802  17.801  28.675  14.296
84300W        W43803  37.918  37.928  14.887
84301W        W43804  29.166  37.532   3.355
84302W        W43805   0.480  40.957   3.641
84303W        W43806   0.777  34.102  14.394
84304W        W43807  20.040   9.843   3.752
84305W        W43808  38.833  11.648   5.251
84306W        W43809  26.589  22.653   4.147
84307W        W43810  39.386  14.143   4.199
84308W        W43811   4.220  44.936  13.458
84309W        W43812  18.205   1.395  13.372
84310W        W43813  15.153  30.512  13.331
84311W        W43814  26.204  14.592  12.384
84312W        W43815  32.078   4.274   1.757
84313W        W43816  30.532   0.353  12.548
84314W        W43817  30.502   6.361  12.852
84315W        W43818   6.404  12.641  11.474
84316W        W43819  14.234  43.417  14.391
84317W        W43820  25.003  40.432  13.970
84318W        W43821  24.604  13.773  11.980
84319W        W43822  10.839  20.547   3.175
84320W        W43823  42.005  40.966   0.830
84321W        W43824  22.124  33.420  14.855
84322W        W43825  14.149  43.816  13.366
84323W        W43826   4.893  10.687  14.871
84324W        W43827  33.910   5.266  10.923
84325W        W43828  31.057  30.059  13.334
84326W        W43829  19.128  12.239  11.004
84327W        W43830  31.097  20.189   4.763
84328W        W43831  35.100   7.296  11.513
84329W        W43832  40.511  18.551  12.077
84330W        W43833  15.124  42.843  13.980
84331W        W43834  29.462  32.508  14.313
84332W        W43835  40.435  22.529  11.085
84333W        W43836  22.507   6.316  12.505
84334W        W43837   4.910  26.460  11.549
84335W        W43838   6.413  17.199   2.894
84336W        W43839  29.628  16.305  13.494
84337W        W43840  30.628  35.540   0.848
84338W        W43841  32.455   5.339   3.225
84339W        W43842   6.905  20.689  11.519
84340W        W43843  21.049  29.050  13.035
84341W        W43844   6.376  41.427   3.748
84342W        W43845   4.343  34.046   2.333
84343W        W43846   4.378  33.120   1.925
84344W        W43847  29.666  38.891   3.201
84345W        W43848   1.248  23.141   5.622
84346W        W43849  37.058   7.220   1.856
84347W        W43850  16.261  30.920  10.920
84348W        W43851  37.570  31.526  13.802
84349W        W43852  25.193  36.406   1.853
84350W        W43853  12.129  11.738   0.404
84351W        W43854  26.601  37.848  14.875
84352W        W43855  10.229  36.516  13.974
84353W        W43856   5.834  35.954   1.210
84354W        W43857  24.181  32.894  10.497
84355W        W43858  13.732  16.691  10.454
84356W        W43859   8.732   0.265   0.836
84357W        W43860  25.712  18.602   4.338
84358W        W43861  39.907  13.619   3.724
84359W        W43862  26.990  38.377  13.509
84360W        W43863  23.034  25.491  11.564
84361W        W43864  32.520  14.195   0.912
84362W        W43865  13.170  25.631  14.760
84363W        W43866  21.568   2.813  14.357
84364W        W43867  17.731   7.808  10.420
84365W        W43868   4.831   8.878   1.723
84366W        W43869   3.296   0.470   0.745
84367W        W43870  33.912  39.388  12.399
84368W        W43871  21.063   2.391   1.407
84369W        W43872  36.414  15.106  10.410
84370W        W43873   9.716  39.908   3.695
84371W        W43874  32.993   0.343   0.386
84372W        W43875  38.570  38.043   0.431
84373W        W43876   6.428  17.692   1.812
84374W        W43877  32.113   1.855  12.369
84375W        W43878  43.444  38.018   0.833
84376W        W43879  26.960  39.356  11.437
84377W        W43880   4.207  29.472  11.917
84378W        W43881   2.892   1.923  11.043
84379W        W43882  26.988  31.900  12.546
84380W        W43883  38.973   6.838   0.478
84381W        W43884  28.168  35.993   3.191
84382W        W43885   7.259   5.288  14.876
84383W        W43886  14.266  24.484   0.763
84384W        W43887  43.355  38.332   4.647
84385W        W43888  13.729   0.270   4.247
84386W        W43889  42.328  28.054  14.916
84387W        W43890  41.497  20.125  12.523
84388W        W43891   4.761   4.787   1.885
84389W        W43892  43.808   9.768  12.897
84390W        W43893  19.106   7.904   2.409
84391W        W43894   3.443  40.971  11.955
84392W        W43895  34.520  17.732   4.241
84393W        W43896  43.869  12.297   2.846
84394W        W43897  14.755  42.969   0.845
84395W        W43898  18.188  28.960  12.435
84396W        W43899  18.643  31.429   4.737
84397W        W43900  16.129  17.693   2.276
84398W        W43901  23.029  15.240  13.792
84399W        W43902  18.770  26.005   4.211
84400W        W43903  33.004  23.086   3.702
84401W        W43904  32.090   5.334  13.403
84402W        W43905  26.042  11.629   1.386
84403W        W43906  29.027  38.014   3.246
84404W        W43907  33.482  43.776   0.445
84405W        W43908  19.606  14.269   4.342
84406W        W43909  43.507  40.981   2.211
84407W        W43910  11.644  15.788  14.329
84408W        W43911  41.011   2.316  14.856
84409W        W43912  42.783  28.489  13.444
84410W        W43913  31.464  40.342   1.798
84411W        W43914  12.195  18.191  14.961
84412W        W43915   9.647  39.963  12.063
84413W        W43916   5.798  22.175   0.463
84414W        W43917  27.516   6.362   1.827
84415W        W43918  43.299  16.684   3.820
84416W        W43919  26.204  24.547   3.746
84417W        W43920  24.685  20.122   0.242
84418W        W43921  19.683   2.880   2.204
84419W        W43922   1.397   8.397   2.793
84420W        W43923   8.306  17.717   4.117
84421W        W43924  18.285  37.060  12.937
84422W        W43925  33.466  37.339   1.267
84423W        W43926  25.505  36.871   1.916
84424W        W43927   5.771  12.696  11.448
84425W        W43928  39.525   8.240   0.823
84426W        W43929  29.487   2.888  11.514
84427W        W43930  27.068  23.076   1.370
84428W        W43931   1.870  14.141  11.519
84429W        W43932   1.417   5.758  12.533
84430W        W43933  29.026  11.210   3.165
84431W        W43934   1.972  24.664  12.413
84432W        W43935  13.716  35.601  13.027
84433W        W43936  12.291   1.432   2.754
84434W        W43937   7.276  19.202  12.394
84435W        W43938  37.575  17.675  11.046
84436W        W43939  36.491  17.156   0.273
84437W        W43940  34.563  14.236   0.769
84438W        W43941   7.391  33.991  12.345
84439W        W43942  10.785  12.610   4.337
84440W        W43943  16.665   7.813  12.953
84441W        W43944   5.207  28.504   5.604
84442W        W43945  12.291  12.733  14.905
84443W        W43946  41.815  39.854  10.586
84444W        W43947   5.687  13.664   1.421
84445W        W43948   1.431  27.109  11.422
84446W        W43949  25.020  26.145  14.993
84447W        W43950   4.914  15.628  13.042
84448W        W43951  18.675  15.139  13.357
84449W        W43952  16.751  36.955  13.854
84450W        W43953   0.937   0.325  12.857
84451W        W43954  22.548  28.102  12.869
84452W        W43955  16.809  39.346  10.534
84453W        W43956   6.906  23.594  10.887
84454W        W43957   0.269  38.950  12.544
84455W        W43958  20.681  16.255   0.779
84456W        W43959  20.532  35.996  12.014
84457W        W43960  32.593  24.541  14.465
84458W        W43961  15.138  37.946  10.914
84459W        W43962  28.078  10.296   1.358
84460W        W43963   2.441  14.771  14.327
84461W        W43964  21.129  34.409   0.851
84462W        W43965  23.240  19.244  11.953
84463W        W43966  19.710  19.724  11.125
84464W        W43967  14.146  22.195   1.838
84465W        W43968  26.665  38.975  14.310
84466W        W43969   7.782  27.679  12.082
84467W        W43970  17.706   8.824   2.248
84468W        W43971  20.191  25.595  14.482
84469W        W43972  21.665   4.404   4.683
84470W        W43973  22.706  39.539   1.801
84471W        W43974  33.582  18.278  10.051
84472W        W43975  33.905  14.607   3.179
84473W        W43976  14.682  42.005  10.433
84474W        W43977  34.448  29.615   4.733
84475W        W43978  16.719   3.919   4.800
84476W        W43979  21.727  14.319  11.575
84477W        W43980  16.730  21.024  12.999
84478W        W43981  38.968  11.772   0.883
84479W        W43982  22.058  15.660   0.308
84480W        W43983  27.673  29.947   3.736
84481W        W43984  31.951  43.992   5.101
84482W        W43985   1.287  17.783   3.186
84483W        W43986  34.556  42.521  14.472
84484W        W43987  25.011  13.168  10.544
84485W        W43988   7.815   8.168  13.948
84486W        W43989   7.784   6.846  11.584
84487W        W43990  40.476  17.244  10.426
84488W        W43991  40.942  14.328   0.338
84489W        W43992  23.657  32.402  14.825
84490W        W43993  32.625  40.858  11.554
84491W        W43994  44.449  11.830   9.929
84492W        W43995  10.694  23.211   4.128
84493W        W43996  39.974  43.511  10.893
84494W        W43997   6.268  33.605   0.908
84495W        W43998  23.525  39.329   4.809
84496W        W43999  24.655  40.541   4.632
84497W        W44000  14.104   0.265  13.517
84498W        W44001   5.826  12.265   1.377
84499W        W44002  21.025  24.203   2.181
84500W        W44003   3.446  17.125  13.432
84501W        W44004  11.181   7.885   1.318
84502W        W44005  13.341  44.368  14.354
84503W        W44006  17.148  32.047  11.027
84504W        W44007  16.138   9.713  12.883
84505W        W44008  23.196  39.871   3.263
84506W        W44009  21.086  26.672  13.347
84507W        W44010  34.429   8.737  14.952
84508W        W44011   5.847  34.875   1.911
84509W        W44012  35.081   8.287  11.855
84510W        W44013  16.737  30.122  12.443
84511W        W44014   6.844  19.096   2.270
84512W        W44015  18.661  14.309   3.255
84513W        W44016  37.979  11.836   2.891
84514W        W44017  40.332  20.166   0.359
84515W        W44018  39.387  20.693   1.914
84516W        W44019  26.632   1.306  10.966
84517W        W44020   2.768  16.796   0.398
84518W        W44021  18.226  29.071  11.449
84519W        W44022  20.076  28.000  12.547
84520W        W44023   5.702  40.398  14.031
84521W        W44024   1.283  36.432  14.927
84522W        W44025  15.143  40.430  11.546
84523W        W44026   6.298  33.401   5.320
84524W        W44027  26.462  39.936   3.237
84525W        W44028  19.126  16.254   0.888
84526W        W44029  30.421   4.223  14.977
84527W        W44030  22.062   7.381  13.477
84528W        W44031  31.042   1.473  13.465
84529W        W44032  17.277  44.383   3.372
84530W        W44033  17.679  16.198   1.284
84531W        W44034  29.427  37.553  14.863
84532W        W44035  38.442  39.413   4.149
84533W        W44036   2.419  14.265  11.397
84534W        W44037  33.626  31.514  10.475
84535W        W44038  15.728  20.189  13.915
84536W        W44039  15.754  41.862   4.168
84537W        W44040  30.542  19.254  13.914
84538W        W44041  12.340   5.756   1.428
84539W        W44042  37.082  13.338   0.919
84540W        W44043  15.689  30.482   4.234
84541W        W44044  25.600   4.807   4.683
84542W        W44045  25.195   9.830   2.227
84543W        W44046  14.623  32.057  11.495
84544W        W44047  14.705  37.533   3.326
84545W        W44048  42.959  23.207  13.002
84546W        W44049  33.026  37.984   2.842
84547W        W44050  19.222  16.753  13.861
84548W        W44051  15.306  37.885   3.244
84549W        W44052   2.780  10.139   0.940
84550W        W44053  24.716   7.252  12.400
84551W        W44054   7.265  36.467   0.412
84552W        W44055  39.339   7.777  11.388
84553W        W44056  31.904  24.531  11.931
84554W        W44057  39.336  28.470   0.960
84555W        W44058  43.390  27.543  14.391
84556W        W44059  35.073  15.785  11.944
84557W        W44060  30.596  41.507   0.360
84558W        W44061  32.913  24.663   4.119
84559W        W44062  24.082  21.094   3.816
84560W        W44063  29.514  19.158   1.786
84561W        W44064  33.063  12.235   0.328
84562W        W44065  16.747  36.378   4.813
84563W        W44066  34.493  21.255   2.307
84564W        W44067  26.082  44.766  12.996
84565W        W44068  36.038   0.440   0.247
84566W        W44069   8.714   6.723  14.004
84567W        W44070   8.351  20.087  13.933
84568W        W44071   4.853   1.264   2.717
84569W        W44072  34.584  24.077   2.331
84570W        W44073  20.602   4.357  13.033
84571W        W44074   0.844   8.709  13.536
84572W        W44075   2.343  24.582   9.481
84573W        W44076  21.562  32.483  14.475
84574W        W44077  20.247  21.176   0.301
84575W        W44078  29.564  11.258   0.433
84576W        W44079  33.016  14.169   2.269
84577W        W44080  26.112   5.257  14.417
84578W        W44081  10.257  32.057  13.512
84579W        W44082   5.348   1.925   1.702
84580W        W44083  35.361  32.411  11.586
84581W        W44084  39.493  25.095  10.975
84582W        W44085  25.012  15.099  12.062
84583W        W44086  16.663   9.201  10.618
84584W        W44087  33.920  39.843   3.343
84585W        W44088  21.535   5.362  10.495
84586W        W44089  25.991  34.043  12.029
84587W        W44090  42.826  23.026  10.501
84588W        W44091   8.834  18.646  11.431
84589W        W44092  21.582   2.339   0.250
84590W        W44093  22.222  23.059  13.800
84591W        W44094  29.022  32.928  11.435
84592W        W44095  19.249  25.634  11.121
84593W        W44096  26.963  17.193   2.228
84594W        W44097  42.323  24.722   2.785
84595W        W44098  13.620  31.992  11.956
84596W        W44099   8.346  30.506   0.728
84597W        W44100  40.856  15.134   1.754
84598W        W44101  27.944   2.400   2.231
84599W        W44102  41.860  22.734  12.016
84600W        W44103  25.149  34.925   0.888
84601W        W44104  19.163  20.212   4.835
84602W        W44105   2.355  32.551   1.705
84603W        W44106  12.256  36.866  10.516
84604W        W44107  33.129   8.173  11.867
84605W        W44108  22.071  44.307   0.300
84606W        W44109   7.274  12.821  13.477
84607W        W44110  28.611  17.210   4.353
84608W        W44111   2.874  22.627  13.473
84609W        W44112  12.688  40.405   0.261
84610W        W44113  17.087   7.332  12.897
84611W        W44114  12.226   9.316  14.989
84612W        W44115  17.080  37.526   3.248
84613W        W44116  27.603  42.913   1.708
84614W        W44117  25.992  26.512   2.705
84615W        W44118   8.402   0.487   4.326
84616W        W44119  20.245  38.876  10.622
84617W        W44120  12.643  35.444  10.070
84618W        W44121   0.976  31.449  14.360
84619W        W44122  34.090  21.217   0.940
84620W        W44123  15.605  42.442   4.166
84621W        W44124  29.170  20.712  10.453
84622W        W44125   6.360  39.406   1.408
84623W        W44126  38.880  41.326   0.412
84624W        W44127  22.136  17.610   3.791
84625W        W44128  41.517  29.444   0.269
84626W        W44129   2.313  32.001  14.430
84627W        W44130   9.344  14.097  11.106
84628W        W44131  16.123  33.063  13.012
84629W        W44132  11.814  24.177   3.861
84630W        W44133  39.951  13.126   1.696
84631W        W44134  25.199  27.943   3.300
84632W        W44135  22.680  10.653   2.342
84633W        W44136  40.521  18.634   0.929
84634W        W44137  35.386  32.605   0.775
84635W        W44138   5.722  33.604  12.901
84636W        W44139   4.938  37.532  11.064
84637W        W44140  14.772  17.066   4.274
84638W        W44141  26.035   5.805  10.642
84639W        W44142  12.348  16.574  13.415
84640W        W44143  13.791  36.934   1.313
84641W        W44144  42.019  24.128  11.919
84642W        W44145  42.011   1.263  10.925
84643W        W44146  33.926  33.072   1.406
84644W        W44147  15.269   8.195  11.122
84645W        W44148  16.653  14.774   0.769
84646W        W44149  17.295  37.429   4.735
84647W        W44150  43.315  44.995  12.020
84648W        W44151  32.506  15.090   4.210
84649W        W44152  22.607  34.606   4.138
84650W        W44153  14.283  21.677   2.664
84651W        W44154  34.002  35.359  10.924
84652W        W44155  33.521  43.859  12.516
84653W        W44156  27.126  43.781   2.248
84654W        W44157  39.559  41.960   0.756
84655W        W44158  37.985  33.615   2.342
84656W        W44159  40.037  23.576   2.240
84657W        W44160  33.556   8.848  10.522
84658W        W44161  18.159   8.723  10.520
84659W        W44162  13.843   8.208   4.277
84660W        W44163   6.717  40.896  13.491
84661W        W44164  37.968  18.592  14.462
84662W        W44165   6.315  27.495  11.018
84663W        W44166  28.648  12.226   3.696
84664W        W44167  43.354  37.559  12.537
84665W        W44168  11.186  43.494  10.463
84666W        W44169  27.509  14.732  14.799
84667W        W44170  16.253  15.188   4.611
84668W        W44171  13.146  13.268  11.974
84669W        W44172   6.422   3.955   0.959
84670W        W44173  22.145  27.142   3.170
84671W        W44174  15.304  29.003   0.373
84672W        W44175   0.949  32.419   2.692
84673W        W44176   9.265  24.482  11.984
84674W        W44177   1.732  32.560  12.882
84675W        W44178  41.037  16.186  11.535
84676W        W44179  41.837  34.072   4.721
84677W        W44180  27.117  28.069   3.195
84678W        W44181   8.748   6.217   0.457
84679W        W44182   3.280   6.707   1.822
84680W        W44183  18.078   4.834   1.393
84681W        W44184  40.000   5.316  13.418
84682W        W44185  44.430  32.514  12.451
84683W        W44186   2.810  21.223  10.413
84684W        W44187   2.237   2.917   1.308
84685W        W44188  32.097  13.828  10.966
84686W        W44189  35.086  41.798   0.409
84687W        W44190   9.159  36.513  12.378
84688W        W44191  40.498  41.378  14.314
84689W        W44192  28.148   7.252  12.833
84690W        W44193  36.012  16.577   0.771
84691W        W44194  43.330   5.309  14.890
84692W        W44195  44.987  29.173   2.216
84693W        W44196  27.948  30.501   1.304
84694W        W44197  36.054  17.101  11.977
84695W        W44198  13.170  28.971  10.925
84696W        W44199  37.999   8.806  12.924
84697W        W44200   2.444  13.276  13.410
84698W        W44201  26.565  37.049  10.620
84699W        W44202   8.216  40.838   0.905
84700W        W44203  22.134  23.622  12.465
84701W        W44204  15.220   5.222   0.290
84702W        W44205  10.333  23.609   0.965
84703W        W44206  12.279  15.251  11.511
84704W        W44207  25.118  39.926  11.937
84705W        W44208  40.528  30.550  10.054
84706W        W44209  31.051  30.557  13.307
84707W        W44210  24.067  27.582   4.827
84708W        W44211  12.843  21.604   1.429
84709W        W44212  21.551  14.763   4.163
84710W        W44213   1.949  23.151  14.851
84711W        W44214   0.348  36.542   3.847
84712W        W44215  38.009  23.199  13.451
84713W        W44216  22.554  33.039   1.303
84714W        W44217  12.714  14.733  14.430
84715W        W44218  24.063  38.352   3.180
84716W        W44219  40.888  26.194   0.353
84717W        W44220   0.280  42.321  14.368
84718W        W44221   0.961  36.354  12.508
84719W        W44222   7.897  18.252  13.976
84720W        W44223  35.059  29.437   2.226
84721W        W44224  33.945   8.262   0.473
84722W        W44225  18.711  17.109   4.609
84723W        W44226   9.754  30.066   2.293
84724W        W44227   8.303  14.755  10.953
84725W        W44228   1.937  19.543  12.011
84726W        W44229  43.848  20.722  10.557
84727W        W44230  28.067   2.918   0.863
84728W        W44231  38.857  26.192   2.382
84729W        W44232  26.690  33.469   0.269
84730W        W44233  15.214  29.975   3.798
84731W        W44234  16.226  26.062   0.818
84732W        W44235  30.957  16.178   0.756
84733W        W44236  39.056  28.984  10.615
84734W        W44237  16.243  23.631   2.298
84735W        W44238  43.956  35.438   2.673
84736W        W44239   8.354  29.057  14.937
84737W        W44240  25.219  27.963  12.424
84738W        W44241  12.815  36.528  13.547
84739W        W44242  43.875   6.240   4.804
84740W        W44243   2.761   0.935   9.929
84741W        W44244  38.329  41.912  11.500
84742W        W44245  30.159  42.354   1.917
84743W        W44246  42.513  26.457   3.299
84744W        W44247  16.182  31.574   4.641
84745W        W44248   5.369   1.892   3.629
84746W        W44249  20.136  31.044   2.670
84747W        W44250   9.390  44.431   2.272
84748W        W44251  33.929   3.249  10.924
84749W        W44252  12.150  34.415   1.383
84750W        W44253  27.165  32.544  12.557
84751W        W44254  28.440  25.491  12.434
84752W        W44255  16.666   6.292   2.890
84753W        W44256  20.156  30.937  11.105
84754W        W44257  13.290  37.067  14.950
84755W        W44258  16.720  32.107  13.324
84756W        W44259   7.248  21.248   4.251
84757W        W44260  37.556   9.856  10.116
84758W        W44261  30.044  43.473  13.541
84759W        W44262  20.645  44.387  14.310
84760W        W44263  15.118   9.684   1.708
84761W        W44264  17.193  30.484   2.295
84762W        W44265   5.269  42.343  13.542
84763W        W44266  14.127  21.672   2.241
84764W        W44267  22.105  14.178  13.861
84765W        W44268  15.194  34.590   3.653
84766W        W44269  12.663   2.415  11.528
84767W        W44270  26.183   1.897  10.109
84768W        W44271  16.135  34.513  12.500
84769W        W44272  41.449   6.697  13.377
84770W        W44273  16.703   8.308   3.359
84771W        W44274  13.612  18.763   3.701
84772W        W44275  30.623  12.635  13.837
84773W        W44276   5.695  27.641  11.963
84774W        W44277  33.906  22.534   1.232
84775W        W44278  13.121   1.762  14.865
84776W        W44279  23.651  39.015   3.255
84777W        W44280  13.348   9.341  12.554
84778W        W44281  26.066   1.967  13.035
84779W        W44282  33.030  21.118   2.206
84780W        W44283  18.113  15.155  12.427
84781W        W44284   4.803   7.270  10.613
84782W        W44285  33.582   9.836   1.793
84783W        W44286  39.554  39.512  11.093
84784W        W44287   3.941  29.995  14.310
84785W        W44288  28.136   9.299   4.630
84786W        W44289  42.387  27.543  13.542
84787W        W44290  36.868  41.297   4.834
84788W        W44291  34.927  15.593   3.257
84789W        W44292  26.564  41.479  13.982
84790W        W44293  31.092   1.938   4.237
84791W        W44294   4.904  11.278   3.742
84792W        W44295  15.192  44.814   0.416
84793W        W44296  13.665  27.613  12.051
84794W        W44297   6.385  19.619  10.990
84795W        W44298   4.710  34.050   3.778
84796W        W44299   5.387  10.736   2.690
84797W        W44300  32.125  27.622   1.923
84798W        W44301   8.170  10.772  11.920
84799W        W44302  28.645  21.158   3.370
84800W        W44303  37.868  31.584   1.243
84801W        W44304  31.063  23.572  11.373
84802W        W44305  28.646  35.464  14.895
84803W        W44306  10.785  14.139   4.740
84804W        W44307  37.920  33.113  11.028
84805W        W44308  21.041   0.469   1.447
84806W        W44309   7.183  17.623   4.217
84807W        W44310  18.113  27.447  13.456
84808W        W44311   0.874  21.628  10.910
84809W        W44312  31.494  16.183   1.304
84810W        W44313   1.969  26.477   2.405
84811W        W44314  32.039  20.081  13.818
84812W        W44315  15.724  27.101   4.276
84813W        W44316   4.233  41.513   3.768
84814W        W44317   3.282  24.039   0.828
84815W        W44318   2.952  26.658  12.012
84816W        W44319  35.932   7.409  14.868
84817W        W44320  27.549  27.551  11.994
84818W        W44321  10.219  38.041   4.817
84819W        W44322   3.717   9.189   2.239
84820W        W44323  22.056  29.068  13.318
84821W        W44324  40.542  28.659   1.771
84822W        W44325  23.673  30.106  10.563
84823W        W44326  29.617   2.308  10.504
84824W        W44327  19.703  32.057   5.161
84825W        W44328  37.395  12.231  13.044
84826W        W44329  16.156  34.465   4.653
84827W        W44330  30.459  24.631   4.665
84828W        W44331  39.046  25.468  10.444
84829W        W44332   4.802  14.149   3.750
84830W        W44333  26.477  17.705   3.214
84831W        W44334  18.610  26.522   4.209
84832W        W44335  13.708  12.844   0.791
84833W        W44336  17.148  43.012  10.436
84834W        W44337  24.227   6.810  13.017
84835W        W44338  30.934  15.287   4.756
84836W        W44339  39.413  35.917  14.974
84837W        W44340  40.944  44.952  10.445
84838W        W44341  24.680  29.158  10.532
84839W        W44342  21.617  19.217  13.426
84840W        W44343   1.757  11.288   4.221
84841W        W44344  26.523  16.614  12.370
84842W        W44345  14.783  42.903  12.480
84843W        W44346  38.032  11.696  12.368
84844W        W44347  32.405  17.172   3.800
84845W        W44348   3.357  33.420  14.498
84846W        W44349   0.261  31.954   0.728
84847W        W44350  12.726  20.699   4.184
84848W        W44351  37.400   8.679  14.796
84849W        W44352  34.903  33.105   0.304
84850W        W44353   9.332  24.089   4.703
84851W        W44354  36.354   5.299  12.825
84852W        W44355   3.382  25.210   1.797
84853W        W44356  25.487   9.301   1.816
84854W        W44357  34.594   2.360  12.926
84855W        W44358   1.915   5.285  14.901
84856W        W44359  36.073   9.273  14.348
84857W        W44360  28.969  15.797  11.533
84858W        W44361  20.556  43.428  12.445
84859W        W44362   2.413  37.844  14.023
84860W        W44363  16.804  13.748   1.901
84861W        W44364   8.250  39.553  13.501
84862W        W44365   4.740  24.190  12.384
84863W        W44366  39.373  26.979   2.748
84864W        W44367  43.459  23.042  14.849
84865W        W44368  29.506  21.027   4.818
84866W        W44369  29.013   9.731  12.372
84867W        W44370  38.516  22.049  12.991
84868W        W44371  44.432  19.263  13.537
84869W        W44372  40.397   4.833  13.820
84870W        W44373   4.788   4.248   1.898
84871W        W44374  38.852  13.135   0.389
84872W        W44375   7.309  27.061   2.412
84873W        W44376   6.830  33.431   2.751
84874W        W44377  13.326  21.519  13.361
84875W        W44378  22.613  19.277   1.850
84876W        W44379  19.121   3.453  11.511
84877W        W44380  28.077  16.719   4.240
84878W        W44381  15.247  18.634  12.520
84879W        W44382  41.895  44.006  13.861
84880W        W44383  24.070  18.788   2.226
84881W        W44384   0.493  11.159  10.464
84882W        W44385   4.356   3.770   3.153
84883W        W44386  28.013   4.866  12.406
84884W        W44387  20.052  19.750   4.175
84885W        W44388  44.862  28.511  14.951
84886W        W44389  36.513  42.479   1.279
84887W        W44390  24.551  30.918   3.702
84888W        W44391  23.597  22.997  14.359
84889W        W44392  25.090  16.725   0.341
84890W        W44393  10.725  16.128  14.953
84891W        W44394  16.780  18.259   1.348
84892W        W44395  44.441  13.259   3.198
84893W        W44396  20.255  25.100   4.248
84894W        W44397  41.421   5.421  14.490
84895W        W44398  35.010   8.897  10.040
84896W        W44399  22.188  25.557   3.840
84897W        W44400   7.204   2.903  14.320
84898W        W44401  12.279  30.413   4.190
84899W        W44402   2.771   5.814   0.917
84900W        W44403  11.734  42.424  13.325
84901W        W44404  32.048  15.791   4.683
84902W        W44405  33.467  42.894   0.424
84903W        W44406  11.845  33.399  13.316
84904W        W44407  42.499  33.437   1.398
84905W        W44408  35.882  41.381   0.412
84906W        W44409   0.485  38.426   4.698
84907W        W44410   1.917  13.816  11.981
84908W        W44411   6.823  20.107   4.118
84909W        W44412  10.140  25.696   0.938
84910W        W44413  31.642  41.940   0.803
84911W        W44414  40.422  33.031  13.904
84912W        W44415  18.284  42.490   0.261
84913W        W44416   2.394  33.112   3.310
84914W        W44417  40.047  44.501  13.957
84915W        W44418  40.053  31.486  12.566
84916W        W44419   4.449  30.981   1.329
84917W        W44420   6.696  43.284  11.509
84918W        W44421   1.824   6.232   4.115
84919W        W44422  40.440  42.817   0.914
84920W        W44423  27.507   4.856   1.416
84921W        W44424  34.581   4.726  14.853
84922W        W44425  11.633   7.344  11.469
84923W        W44426   1.385   1.445   2.900
84924W        W44427  25.123  34.527   0.926
84925W        W44428  11.820  19.140  10.483
84926W        W44429  35.022  23.098  13.538
84927W        W44430  28.145  33.079  10.983
84928W        W44431  31.572  40.525   1.308
84929W        W44432  29.167  36.545  11.454
84930W        W44433   4.861  15.277   0.739
84931W        W44434   3.747  21.239  10.015
84932W        W44435  32.077  38.472  14.318
84933W        W44436  43.810   3.422   1.805
84934W        W44437   8.712  28.078   0.429
84935W        W44438  21.174  44.389  13.034
84936W        W44439  36.020   5.797  10.612
84937W        W44440  11.671  34.568  10.514
84938W        W44441   9.279  20.524  13.372
84939W        W44442  10.345  29.466  11.946
84940W        W44443  33.959   3.227   3.325
84941W        W44444  30.920  21.549   1.395
84942W        W44445   1.246  10.373  14.379
84943W        W44446  36.952  39.915  13.359
84944W        W44447  27.562   9.826   3.650
84945W        W44448  42.382  16.662   1.269
84946W        W44449  27.195   4.214  12.488
84947W        W44450  39.508  30.604  10.902
84948W        W44451   1.898   7.742   3.746
84949W        W44452  11.696   6.835  12.916
84950W        W44453  30.933  24.718   0.881
84951W        W44454  44.463  10.332   0.863
84952W        W44455  28.555  27.111   5.657
84953W        W44456  38.326   6.742  13.979
84954W        W44457  17.118   7.826   0.428
84955W        W44458  19.125  38.385  14.873
84956W        W44459  31.997  37.352   1.408
84957W        W44460   1.758   3.788  13.867
84958W        W44461  18.651   8.305  14.363
84959W        W44462  37.034   1.434  10.506
84960W        W44463  10.868  10.752  12.501
84961W        W44464  39.374  39.363   2.877
84962W        W44465  22.239  36.381  11.598
84963W        W44466  20.150  14.735   4.249
84964W        W44467   3.855  32.461  12.959
84965W        W44468  44.303   9.677   0.376
84966W        W44469   1.924  10.265  13.523
84967W        W44470   4.912  10.250  14.298
84968W        W44471  38.477  37.050  14.867
84969W        W44472  34.958   3.953  11.501
84970W        W44473  29.441   6.215  14.314
84971W        W44474  10.219  13.204   3.654
84972W        W44475  22.071  12.665   3.691
84973W        W44476  17.277  22.526  14.005
84974W        W44477  10.660  17.674   0.898
84975W        W44478  11.682  25.514   2.295
84976W        W44479  26.474   6.358   5.280
84977W        W44480  13.760  37.932   4.792
84978W        W44481   8.219  14.144  11.957
84979W        W44482  43.516  24.599   0.449
84980W        W44483   2.793  40.952   2.377
84981W        W44484  37.952   7.386  11.512
84982W        W44485   3.953  28.503   2.410
84983W        W44486  31.066  43.804   4.117
84984W        W44487  33.897  20.562   2.819
84985W        W44488  28.157  41.940  12.062
84986W        W44489  27.102  43.407   3.711
84987W        W44490  26.964  38.502  14.929
84988W        W44491   4.410  26.562  14.423
84989W        W44492  30.624  39.379  11.025
84990W        W44493  26.698  26.048   3.249
84991W        W44494  18.689  15.278  14.812
84992W        W44495  44.972  16.083  12.826
84993W        W44496  28.491  38.544   1.256
84994W        W44497  20.179  36.568  14.015
84995W        W44498  42.441  12.252   2.758
84996W        W44499  34.929   0.889   5.200
84997W        W44500  31.148  32.889   2.198
84998W        W44501   0.324  37.878   3.702
84999W        W44502  29.102  26.588   2.764
85000W        W44503  39.905  44.262  12.404
85001W        W44504  18.726  16.226  11.455
85002W        W44505  20.558  24.023  11.386
85003W        W44506   0.332  44.330  12.454
85004W        W44507  28.455  15.779   1.701
85005W        W44508  28.048   8.805  13.025
85006W        W44509  24.002  35.906  12.374
85007W        W44510   6.843  38.887  14.425
85008W        W44511  13.115  43.804  11.896
85009W        W44512  44.876   1.349  11.524
85010W        W44513  11.702  35.019   4.827
85011W        W44514  29.157  25.556   2.376
85012W        W44515  22.517   6.398  10.959
85013W        W44516  20.068   0.861  11.052
85014W        W44517   8.401   1.844   1.873
85015W        W44518  19.193  40.490   0.868
85016W        W44519  31.561  35.479  10.115
85017W        W44520  39.022  26.203  10.631
85018W        W44521  12.345  28.042   0.321
85019W        W44522  38.387  37.897   2.191
85020W        W44523  30.909  24.514   4.782
85021W        W44524   7.331  37.963  14.859
85022W        W44525  12.662  39.487   3.210
85023W        W44526  27.979  36.871   3.852
85024W        W44527   9.259   1.875   2.669
85025W        W44528  17.752  30.537  14.919
85026W        W44529  36.976   2.941   3.746
85027W        W44530   3.457  33.533  12.940
85028W        W44531  44.290  11.804  13.022
85029W        W44532  11.672  39.408  14.477
85030W        W44533  35.409  26.992  12.968
85031W        W44534  28.106   7.338   0.958
85032W        W44535   4.394  29.009  12.569
85033W        W44536  41.473  44.832   2.831
85034W        W44537  29.174  39.452  12.058
85035W        W44538   4.770  15.584   3.317
85036W        W44539   7.387   4.744  11.900
85037W        W44540  43.828  37.882  12.558
85038W        W44541  15.725   5.832   1.374
85039W        W44542  35.464   7.801   3.823
85040W        W44543  29.430  33.613  14.952
85041W        W44544   8.832   1.387   1.769
85042W        W44545  11.197  10.228  10.612
85043W        W44546  40.860  40.045   2.383
85044W        W44547  43.465  35.884  12.558
85045W        W44548  15.100  28.520  14.471
85046W        W44549  41.536   5.705  13.859
85047W        W44550  13.796  43.988   0.344
85048W        W44551   9.820  28.641   2.380
85049W        W44552  32.904  25.572  14.781
85050W        W44553   0.276  14.332  12.569
85051W        W44554  38.055   2.346   2.376
85052W        W44555   8.320   2.384   0.856
85053W        W44556   5.758   7.395   2.180
85054W        W44557  27.000  13.703   4.352
85055W        W44558  22.524  25.710   4.180
85056W        W44559   5.329   6.342  14.419
85057W        W44560  34.414  35.982   3.260
85058W        W44561  28.069   2.412   1.352
85059W        W44562  26.974   0.833   0.349
85060W        W44563  25.532  44.304  10.941
85061W        W44564  13.815  33.022  11.904
85062W        W44565  11.787  37.475   4.332
85063W        W44566  41.434   9.333  11.987
85064W        W44567  37.070  17.066   2.344
85065W        W44568  20.132  43.810  13.425
85066W        W44569  41.449  17.568   1.810
85067W        W44570  19.728  38.561  10.593
85068W        W44571  22.226  34.614  13.363
85069W        W44572  30.648  37.443  14.470
85070W        W44573   4.730  31.482   0.774
85071W        W44574  20.272   8.838   1.752
85072W        W44575  43.330  10.766   2.216
85073W        W44576  10.375  19.131  14.989
85074W        W44577  40.394   2.808   2.684
85075W        W44578  36.573  24.492   1.777
85076W        W44579  34.081  33.427   0.474
85077W        W44580  32.094  23.988  12.826
85078W        W44581  31.022  27.029  14.901
85079W        W44582   0.971   7.735  10.419
85080W        W44583  37.074  32.529  12.965
85081W        W44584  17.088   1.350  14.960
85082W        W44585   5.367  10.854   1.302
85083W        W44586  28.941  42.786   3.273
85084W        W44587  11.744   8.858   4.351
85085W        W44588  38.491  13.751   2.681
85086W        W44589   9.295  21.566  11.038
85087W        W44590   5.694  39.454  14.428
85088W        W44591  14.150   3.728   0.908
85089W        W44592  22.227  30.550   0.954
85090W        W44593  17.199  10.760  12.844
85091W        W44594   0.420  15.305   2.250
85092W        W44595  23.022  15.196  12.574
85093W        W44596  10.635  10.240  12.509
85094W        W44597   2.345  27.447   0.368
85095W        W44598  35.893  15.587   0.849
85096W        W44599  24.053   5.252   5.762
85097W        W44600  29.055  15.310   1.271
85098W        W44601  28.988  20.079   4.223
85099W        W44602  40.417  14.321  14.943
85100W        W44603  19.082   3.903  13.947
85101W        W44604  28.166  39.508   1.909
85102W        W44605  42.523  30.581   0.357
85103W        W44606   5.415  25.180   3.210
85104W        W44607  23.514  22.699   2.852
85105W        W44608   9.715  20.159  11.486
85106W        W44609  37.035  14.198   1.734
85107W        W44610  12.346  10.657  10.629
85108W        W44611   0.819   3.375  11.589
85109W        W44612   2.957  34.998  12.464
85110W        W44613  37.992  11.203  13.023
85111W        W44614  41.359  30.926   1.777
85112W        W44615  19.585  20.593  12.002
85113W        W44616  32.914  26.968  14.000
85114W        W44617  24.975  23.638   1.715
85115W        W44618   6.820  16.566   1.278
85116W        W44619  20.572  21.017   1.828
85117W        W44620  12.804   9.797   4.699
85118W        W44621  17.614  31.973   0.292
85119W        W44622  20.230   0.981  12.458
85120W        W44623  12.270   3.916   3.323
85121W        W44624  24.613   4.224  13.434
85122W        W44625  24.151  24.483  13.974
85123W        W44626   8.278  35.921  12.909
85124W        W44627  44.839  40.411   4.188
85125W        W44628   7.862  27.178   0.271
85126W        W44629   3.271  20.255  12.480
85127W        W44630  18.204  38.523  13.404
85128W        W44631   7.223  34.941  12.450
85129W        W44632  31.134  12.195  14.920
85130W        W44633  18.157  26.091   3.385
85131W        W44634  31.567  38.821  14.431
85132W        W44635   6.904  19.123   1.289
85133W        W44636   5.769  14.818  11.941
85134W        W44637  32.545  38.428   0.871
85135W        W44638  39.499  26.150   0.431
85136W        W44639  16.584  18.565  14.829
85137W        W44640  31.497  16.642   4.194
85138W        W44641   2.807   9.375   0.451
85139W        W44642  25.972   5.866   3.710
85140W        W44643  11.774  31.499   0.824
85141W        W44644  24.172  34.447  11.496
85142W        W44645  29.546  35.906   3.325
85143W        W44646  29.944  26.612  14.315
85144W        W44647  41.453  17.114  11.415
85145W        W44648  36.526  25.067  12.050
85146W        W44649  21.585  41.822  14.338
85147W        W44650   2.276  24.199  10.508
85148W        W44651  21.021  44.935   3.244
85149W        W44652  11.666  44.928  14.417
85150W        W44653  42.486  44.332   0.871
85151W        W44654  24.132   1.783  11.103
85152W        W44655  16.102  35.378  14.911
85153W        W44656   4.847  12.760   0.812
85154W        W44657   0.859  36.995  12.900
85155W        W44658  18.198   2.328  13.855
85156W        W44659  14.152  20.221  10.438
85157W        W44660  16.740  26.135   3.384
85158W        W44661  17.737   0.482   3.309
85159W        W44662  20.736  31.147   1.718
85160W        W44663  13.332  15.109  14.830
85161W        W44664   0.942  15.812   0.330
85162W        W44665   4.848  22.189   1.408
85163W        W44666   5.932  39.344   4.607
85164W        W44667  17.686  30.136   0.434
85165W        W44668  43.774  17.776   1.275
85166W        W44669  20.580  17.104  14.952
85167W        W44670  34.412  15.108   0.413
85168W        W44671  26.066   1.313   9.437
85169W        W44672  16.721   0.448   1.327
85170W        W44673  29.554  29.528   0.304
85171W        W44674   9.717  29.933   4.241
85172W        W44675  31.009  27.023  12.935
85173W        W44676  27.576  12.685  12.823
85174W        W44677  40.326  26.043   4.266
85175W        W44678  13.141  42.953  11.410
85176W        W44679   3.716  33.025  11.105
85177W        W44680   2.245  20.203  10.506
85178W        W44681  13.633  23.517   1.822
85179W        W44682  24.498  20.571   1.804
85180W        W44683   1.333  36.428  13.959
85181W        W44684  20.647   5.864  12.092
85182W        W44685  38.844  40.856  14.998
85183W        W44686  29.172  40.826   3.770
85184W        W44687  19.738  36.576   4.650
85185W        W44688  17.593   4.905  12.067
85186W        W44689  43.894  39.007   0.436
85187W        W44690   7.831  24.172  12.075
85188W        W44691   4.712  13.329  11.046
85189W        W44692  25.592   5.354   3.166
85190W        W44693  34.934   3.805   4.754
85191W        W44694  41.923  20.693  14.802
85192W        W44695  16.183  37.438   1.327
85193W        W44696  28.573  17.111  12.833
85194W        W44697  20.148  14.667  13.371
85195W        W44698   8.251  22.682   2.835
85196W        W44699   1.901  12.800   4.228
85197W        W44700  22.669  24.484   3.864
85198W        W44701  44.303   8.169  10.609
85199W        W44702  34.028   9.679   0.946
85200W        W44703  28.476   1.795  10.562
85201W        W44704  14.682  38.367   2.293
85202W        W44705  40.463   7.682  14.759
85203W        W44706  20.562   1.819  14.392
85204W        W44707  42.866  18.281  12.577
85205W        W44708   3.754  24.723  11.390
85206W        W44709   2.740   5.692  10.519
85207W        W44710  11.667   5.694  10.963
85208W        W44711   7.404  34.396   3.725
85209W        W44712  18.173  32.103   3.345
85210W        W44713   4.264   2.420  13.415
85211W        W44714  20.128  15.797  12.398
85212W        W44715   1.899  16.271   0.376
85213W        W44716   2.246  29.545  10.136
85214W        W44717  22.056  43.488   4.348
85215W        W44718   3.721  25.002  11.043
85216W        W44719   8.183  36.433   0.926
85217W        W44720  20.210  25.676   4.123
85218W        W44721  14.326  31.486   2.851
85219W        W44722  13.846  30.624   1.898
85220W        W44723  43.788  43.003   1.828
85221W        W44724  38.987  43.784   0.863
85222W        W44725  10.819  39.419   1.707
85223W        W44726  10.294   4.872  12.448
85224W        W44727   6.286  10.844   0.307
85225W        W44728  19.670  30.909   2.742
85226W        W44729  40.031  38.344  10.477
85227W        W44730  22.150  11.154  13.944
85228W        W44731  16.165  44.773  11.553
85229W        W44732  30.165  17.751  11.910
85230W        W44733  33.917  16.726   5.166
85231W        W44734  40.900  11.224   3.385
85232W        W44735  25.078  43.764   4.207
85233W        W44736  35.003  33.568  13.954
85234W        W44737   5.850  26.675   2.686
85235W        W44738  30.104  36.021  13.908
85236W        W44739  20.049  22.742  12.070
85237W        W44740  35.899  22.227   2.767
85238W        W44741  12.189  33.006   0.362
85239W        W44742  14.302  33.564  10.542
85240W        W44743  21.047  13.660  10.616
85241W        W44744  19.120  11.229   4.208
85242W        W44745  12.691  24.995   3.152
85243W        W44746  38.451  35.019   3.811
85244W        W44747   2.358  23.154   1.312
85245W        W44748  29.093  33.534  10.623
85246W        W44749  42.899  32.420   1.275
85247W        W44750  40.031  22.142   3.387
85248W        W44751  25.048  20.611  10.620
85249W        W44752   4.713  25.501  11.101
85250W        W44753  20.089  28.676   1.323
85251W        W44754  21.578   0.488   2.307
85252W        W44755   2.935  17.238   4.171
85253W        W44756  34.606   9.318   2.666
85254W        W44757  33.922  34.980  10.930
85255W        W44758  42.849  41.309  12.443
85256W        W44759  32.441  32.896   0.467
85257W        W44760  37.907   6.894   0.304
85258W        W44761  25.516  32.516  12.358
85259W        W44762  10.845  32.518  13.027
85260W        W44763  25.997  35.896  11.445
85261W        W44764  35.395  17.144   0.761
85262W        W44765  16.270  17.695   3.751
85263W        W44766   3.457  18.235  14.313
85264W        W44767  41.468  44.337   4.202
85265W        W44768  32.898  24.006  14.299
85266W        W44769  35.395   9.313   4.649
85267W        W44770  16.080  27.567  14.836
85268W        W44771  23.623   9.219   0.393
85269W        W44772  44.935  41.342  12.530
85270W        W44773  43.799  19.706  14.444
85271W        W44774   7.268  36.038  13.378
85272W        W44775  19.604  26.586  10.920
85273W        W44776  23.620   8.268   2.413
85274W        W44777  31.982  28.672   1.854
85275W        W44778   1.426  29.118   1.247
85276W        W44779  23.690  25.478  10.542
85277W        W44780  41.860  39.900   1.813
85278W        W44781  36.393  39.358   2.233
85279W        W44782  38.072  41.531   1.855
85280W        W44783  26.007  37.908  12.497
85281W        W44784   4.740  14.764  12.921
85282W        W44785  35.076  42.793  11.123
85283W        W44786   8.883  13.799   1.697
85284W        W44787  43.986  23.498  11.603
85285W        W44788  10.272  24.036   2.668
85286W        W44789  23.008   0.337   1.262
85287W        W44790  41.790  43.349  12.961
85288W        W44791  20.244   2.289   1.711
85289W        W44792  22.622  38.981   5.250
85290W        W44793  20.159  37.486  13.945
85291W        W44794   4.439  37.991   1.246
85292W        W44795  31.055  12.645  14.341
85293W        W44796  23.506  37.895  11.398
85294W        W44797  32.996   1.462   0.865
85295W        W44798  20.059   4.213   4.624
85296W        W44799  28.936   9.381   1.390
85297W        W44800   1.312   8.717  12.830
85298W        W44801  22.657  41.863  10.972
85299W        W44802  10.331   9.666  13.926
85300W        W44803  30.091   7.337  13.382
85301W        W44804   1.927  10.295   1.296
85302W        W44805  33.094  11.241   4.283
85303W        W44806   6.762  32.505  13.397
85304W        W44807  12.745  12.855   1.263
85305W        W44808   8.295  28.656   1.812
85306W        W44809  42.901  43.781  13.340
85307W        W44810  19.712  30.967   0.955
85308W        W44811   8.200  15.803   0.962
85309W        W44812  10.358  23.645   0.311
85310W        W44813  40.495  20.738   0.426
85311W        W44814  34.068   7.253  11.979
85312W        W44815  18.058  16.203   0.354
85313W        W44816  29.564  12.271  14.950
85314W        W44817  43.437  21.578  13.854
85315W        W44818  22.136  14.595  12.552
85316W        W44819  23.642  36.069   4.779
85317W        W44820   9.367  38.417   2.886
85318W        W44821  36.460   9.298   0.726
85319W        W44822   1.836  25.017  14.401
85320W        W44823  19.171  43.376  10.931
85321W        W44824  32.018  44.348   4.802
85322W        W44825  31.039  11.774  14.779
85323W        W44826  29.607  37.980   1.921
85324W        W44827  40.900  36.065  11.498
85325W        W44828  26.634  23.588  10.118
85326W        W44829  34.566   6.840   1.379
85327W        W44830   2.854   9.836   3.771
85328W        W44831  29.117   4.789   2.835
85329W        W44832  44.317  19.210  14.885
85330W        W44833   5.930   8.318   1.413
85331W        W44834  21.649  28.480  12.966
85332W        W44835  41.378  26.987  11.522
85333W        W44836  24.110  18.161  14.870
85334W        W44837  13.806   4.935   1.214
85335W        W44838   3.724  17.208  14.902
85336W        W44839  42.027  12.793  10.050
85337W        W44840  10.213  37.071   2.794
85338W        W44841  30.945  29.573   1.255
85339W        W44842  31.592  32.068  12.861
85340W        W44843  31.946  17.573   0.765
85341W        W44844  33.460   1.741  13.931
85342W        W44845  43.442  11.173   2.738
85343W        W44846   5.388  27.156  13.890
85344W        W44847  42.891  41.954   4.665
85345W        W44848  27.975  16.612  11.434
85346W        W44849  36.916   8.824   9.951
85347W        W44850  24.112  10.199   1.846
85348W        W44851  11.344  32.497  12.480
85349W        W44852  14.716  12.327   3.378
85350W        W44853  18.175   4.342  12.973
85351W        W44854  38.864  24.670   3.170
85352W        W44855  25.997  11.161  14.965
85353W        W44856  10.687   3.942  13.350
85354W        W44857  20.085   4.821   3.289
85355W        W44858   2.855  15.781   3.175
85356W        W44859  26.997  13.698  10.888
85357W        W44860   8.170  15.696  10.517
85358W        W44861  10.355  12.197  13.396
85359W        W44862  44.361  43.399  13.037
85360W        W44863  41.396  20.115  10.439
85361W        W44864  41.520  18.550   2.346
85362W        W44865   0.874  21.561   2.791
85363W        W44866  43.505  12.629   4.650
85364W        W44867  12.679  43.468   3.160
85365W        W44868  11.631  22.628  14.857
85366W        W44869  17.713  31.967   1.405
85367W        W44870  36.402  22.142  14.823
85368W        W44871   7.686  42.802   2.399
85369W        W44872  34.054  41.410   0.280
85370W        W44873   8.853  28.002  11.577
85371W        W44874  17.205  15.098  12.492
85372W        W44875  16.758  11.672   1.769
85373W        W44876  18.777  35.027  13.947
85374W        W44877  15.272  15.736   4.778
85375W        W44878  14.675  25.586  13.398
85376W        W44879   2.310  26.030   3.735
85377W        W44880  39.377   5.767   4.115
85378W        W44881  19.580  38.561  12.438
85379W        W44882  38.887  13.168  10.475
85380W        W44883  12.131  39.540  11.516
85381W        W44884  23.632   4.225  12.402
85382W        W44885  13.602  21.573   0.381
85383W        W44886  31.945   5.893   4.339
85384W        W44887  15.696  27.102  11.547
85385W        W44888  28.933  31.963   4.228
85386W        W44889   2.300   8.863  13.498
85387W        W44890  10.175  36.489  13.349
85388W        W44891  27.452  11.308   4.713
85389W        W44892  25.133   0.795  12.879
85390W        W44893   1.832  39.500  14.004
85391W        W44894  19.700   0.325   3.376
85392W        W44895  42.479  41.792   1.720
85393W        W44896   3.748   7.288   4.226
85394W        W44897   2.291  15.259   4.786
85395W        W44898   3.891  35.358   1.712
85396W        W44899   5.843  43.887  11.419
85397W        W44900  23.157   7.177  12.039
85398W        W44901  15.091   1.459  14.974
85399W        W44902  19.242  11.227  11.008
85400W        W44903  38.426  10.723   2.203
85401W        W44904  40.477  33.556  13.946
85402W        W44905  43.890   5.763   0.924
85403W        W44906  35.935  29.648   4.608
85404W        W44907  26.467   4.290  11.595
85405W        W44908  27.171  35.861   1.900
85406W        W44909  25.620  14.204   3.673
85407W        W44910  39.326   6.374   0.766
85408W        W44911  16.161   9.237  14.843
85409W        W44912  11.290   3.825  10.472
85410W        W44913  25.545  32.005   3.303
85411W        W44914  41.417  35.057   1.882
85412W        W44915  30.133   9.724   1.246
85413W        W44916  44.964  15.816  12.535
85414W        W44917   3.955  16.577  10.502
85415W        W44918  27.019  18.294   3.322
85416W        W44919  13.316  37.910  14.467
85417W        W44920  15.786  24.494  14.468
85418W        W44921  14.339  34.382   1.926
85419W        W44922  39.379   4.891  11.492
85420W        W44923  27.949  19.275   0.303
85421W        W44924   7.269  31.151   0.477
85422W        W44925  16.077  29.978  10.432
85423W        W44926  11.280   2.803  10.964
85424W        W44927  41.896   2.925   3.365
85425W        W44928  30.072  29.424  13.355
85426W        W44929  39.921  14.594  12.989
85427W        W44930  35.040  21.546   1.237
85428W        W44931  12.643   6.424   3.723
85429W        W44932  10.708  37.532   4.277
85430W        W44933   8.869  29.962  12.085
85431W        W44934   9.347  21.230   1.746
85432W        W44935   0.852  32.980  10.553
85433W        W44936  25.146  31.600  11.865
85434W        W44937  12.132  17.158  12.356
85435W        W44938  15.648  32.070  13.533
85436W        W44939  37.421  28.592  11.493
85437W        W44940  41.503  28.078   2.886
85438W        W44941  20.756  34.514  13.378
85439W        W44942   4.240  31.635   0.883
85440W        W44943  27.074  27.532  11.061
85441W        W44944  20.685  27.669   3.858
85442W        W44945   0.852  30.416   2.264
85443W        W44946  40.035   7.889   1.744
85444W        W44947  15.581  19.224  14.346
85445W        W44948  29.590   5.810   1.313
85446W        W44949  29.610  40.953  12.831
85447W        W44950  17.257  21.680   1.250
85448W        W44951  10.278  22.608   4.136
85449W        W44952   8.251  24.113   0.480
85450W        W44953   3.445   5.232  13.433
85451W        W44954  35.555  27.950   1.317
85452W        W44955  22.607   1.958   1.402
85453W        W44956  22.528  33.965   0.287
85454W        W44957  13.674   1.391   3.272
85455W        W44958  39.837   0.468  14.511
85456W        W44959   4.301  39.500   0.325
85457W        W44960  27.587  18.144   4.206
85458W        W44961  22.717  28.001   4.271
85459W        W44962   3.850   3.865   1.369
85460W        W44963  18.734  37.834  14.017
85461W        W44964  11.640  37.056  11.424
85462W        W44965  43.477  16.595   3.339
85463W        W44966  36.086  24.050  11.552
85464W        W44967  39.867   0.372   0.302
85465W        W44968  42.505  34.971   1.436
85466W        W44969  40.910  16.782   2.860
85467W        W44970  24.108  31.990   2.870
85468W        W44971  33.079  24.642  14.012
85469W        W44972  20.568  14.266   2.319
85470W        W44973  25.590  26.558  10.159
85471W        W44974   8.812  17.663  10.924
85472W        W44975  10.150  10.828   1.236
85473W        W44976  20.203  24.482  13.520
85474W        W44977  36.526   6.853   3.370
85475W        W44978  38.858  43.456   1.262
85476W        W44979   6.305  27.590   2.304
85477W        W44980  30.637  27.109   0.966
85478W        W44981  38.047  44.476   0.756
85479W        W44982  35.395  27.648   3.859
85480W        W44983  18.124   1.321   0.762
85481W        W44984  24.221  42.784  12.939
85482W        W44985  31.988  17.069   3.304
85483W        W44986  16.191  20.645  14.485
85484W        W44987  32.596   8.805   3.296
85485W        W44988  36.469   4.799  12.342
85486W        W44989   8.657  29.658  12.096
85487W        W44990   3.285   5.874  14.983
85488W        W44991  25.192   3.331   4.792
85489W        W44992   7.325  13.686   2.822
85490W        W44993   0.742  18.053   0.777
85491W        W44994   3.736  43.283  14.358
85492W        W44995  30.926  24.676  12.485
85493W        W44996  27.132  19.176   4.649
85494W        W44997  16.684   6.225   3.671
85495W        W44998   1.442  13.276  14.424
85496W        W44999  31.026  14.794   2.184
85497W        W45000  33.592   7.728   1.287
85498W        W45001  34.555  19.116  11.068
85499W        W45002   4.876   8.717  12.888
85500W        W45003  32.534  28.161  14.465
85501W        W45004  42.423  44.010  13.529
85502W        W45005  20.180   0.384   0.433
85503W        W45006  14.796  36.088   5.187
85504W        W45007  30.475  19.540   2.253
85505W        W45008  39.485  36.398   1.879
85506W        W45009  27.471  15.769  13.308
85507W        W45010  29.928  35.064   2.834
85508W        W45011  33.581  16.244  13.800
85509W        W45012  33.981  18.593   1.920
85510W        W45013  19.283  41.824   2.812
85511W        W45014   5.796  27.947  10.484
85512W        W45015  23.237  23.044   1.777
85513W        W45016  43.411   6.295  14.921
85514W        W45017  15.777  41.952   0.313
85515W        W45018  28.624  36.394  10.536
85516W        W45019   1.303  19.264   2.187
85517W        W45020  22.741  42.359  14.411
85518W        W45021  38.940  34.510  12.863
85519W        W45022  31.044  12.626  10.444
85520W        W45023  33.492  41.373  12.029
85521W        W45024  35.927  25.500   5.238
85522W        W45025  13.230  35.979   1.242
85523W        W45026  12.708  26.478  13.512
85524W        W45027   9.750   7.742  13.808
85525W        W45028  20.702   9.365  11.384
85526W        W45029  34.985  40.399  13.839
85527W        W45030  37.440  30.583   1.288
85528W        W45031   9.864  23.038  13.374
85529W        W45032  44.918  27.086   0.358
85530W        W45033  15.626  41.418   2.268
85531W        W45034  17.255  29.531   2.723
85532W        W45035  17.289  39.064  14.825
85533W        W45036  15.298  20.758   1.369
85534W        W45037   8.388  20.260  12.831
85535W        W45038   0.904  37.467   4.807
85536W        W45039  29.581  13.721   1.799
85537W        W45040  41.298  22.091  14.875
85538W        W45041  42.513  32.501   2.695
85539W        W45042  12.772  38.896   3.717
85540W        W45043  35.383  34.114   2.345
85541W        W45044  33.382  20.153   3.277
85542W        W45045  14.278  35.600   0.771
85543W        W45046  39.330  29.585   3.290
85544W        W45047   1.381  30.089   4.670
85545W        W45048  42.826  14.230   2.265
85546W        W45049  43.327  15.090  11.468
85547W        W45050   0.972  37.417   4.188
85548W        W45051  23.594   1.908   0.748
85549W        W45052   6.326  40.941   0.734
85550W        W45053  41.329  17.188  13.339
85551W        W45054  38.025   5.868   1.392
85552W        W45055   8.209   9.708   1.840
85553W        W45056  41.511  18.223  11.489
85554W        W45057   6.324  24.643  14.788
85555W        W45058  19.701  17.127   4.757
85556W        W45059  19.194  34.112  12.834
85557W        W45060  44.467  10.710   3.175
85558W        W45061  41.533  36.996  11.858
85559W        W45062  37.559   4.847   4.824
85560W        W45063  13.702  41.852   2.678
85561W        W45064   0.377  44.769   4.599
85562W        W45065  32.947  27.568   0.951
85563W        W45066  36.884  24.670   1.770
85564W        W45067  29.954   2.965  14.475
85565W        W45068  28.671  15.599  14.337
85566W        W45069  13.143  37.015  13.484
85567W        W45070  40.811  24.708  12.037
85568W        W45071   2.428  38.399   1.905
85569W        W45072  30.418  23.163   3.370
85570W        W45073   5.897  38.512   3.199
85571W        W45074  44.490   8.831  13.325
85572W        W45075   7.839  30.444   1.395
85573W        W45076  17.211  25.150  12.903
85574W        W45077  25.124  17.568  11.377
85575W        W45078   7.215  29.018  11.564
85576W        W45079  41.494  13.332   0.840
85577W        W45080  10.737  30.135  14.779
85578W        W45081  34.889   5.210   0.382
85579W        W45082  30.999  42.952   4.662
85580W        W45083   3.252  24.171  14.381
85581W        W45084  42.777  23.621   2.261
85582W        W45085   0.432  42.833   4.665
85583W        W45086  21.591  34.449  12.452
85584W        W45087   6.698  20.740   3.369
85585W        W45088  23.697  42.486  10.945
85586W        W45089  22.671  37.446   4.275
85587W        W45090  42.313   7.262   3.257
85588W        W45091  31.546   6.262   3.201
85589W        W45092  16.674  32.595  11.577
85590W        W45093  30.470  11.803  12.450
85591W        W45094  25.652  15.729   3.311
85592W        W45095  43.320  31.121   3.633
85593W        W45096  23.196   4.711  14.029
85594W        W45097  15.210  19.586   3.750
85595W        W45098  27.174  43.326  14.459
85596W        W45099  15.624  39.391  10.455
85597W        W45100   0.446  13.612   4.333
85598W        W45101  40.341  21.693  10.551
85599W        W45102  27.015  30.607  12.444
85600W        W45103   3.301  29.121  12.902
85601W        W45104  16.629  20.150  13.024
85602W        W45105   0.412  32.986   1.756
85603W        W45106   7.301  13.214  10.464
85604W        W45107  44.375  28.612   3.330
85605W        W45108  21.237   7.221   0.852
85606W        W45109  12.780  31.069   2.891
85607W        W45110  44.775  19.691  13.965
85608W        W45111  32.628  30.089   1.734
85609W        W45112  17.235  19.153   1.801
85610W        W45113  34.530  19.128   2.285
85611W        W45114  41.044  19.262  13.355
85612W        W45115  30.627   8.403   2.836
85613W        W45116   4.286  28.575  11.467
85614W        W45117  37.399  28.564  13.028
85615W        W45118   7.907  34.420  14.344
85616W        W45119   8.273  43.479  13.883
85617W        W45120  27.028  44.778   2.773
85618W        W45121  44.381  43.922   0.849
85619W        W45122  34.006  36.022  14.791
85620W        W45123  37.569  15.743   3.832
85621W        W45124  21.647   2.866  14.976
85622W        W45125  35.394  25.582   2.821
85623W        W45126  38.954  20.194  14.395
85624W        W45127   0.354   1.830  13.013
85625W        W45128  13.772  17.716  10.628
85626W        W45129  10.756  37.841   1.349
85627W        W45130  13.653  24.180  13.887
85628W        W45131   9.243  10.184   4.193
85629W        W45132  23.180  22.542  10.907
85630W        W45133  21.022  24.986  14.324
85631W        W45134  11.726   8.695  10.992
85632W        W45135  36.526  14.783  12.381
85633W        W45136  24.666  44.444  12.947
85634W        W45137  23.060  35.926   4.132
85635W        W45138   1.947   4.740   3.196
85636W        W45139  35.372  11.647  12.003
85637W        W45140  21.155  33.447   1.715
85638W        W45141  28.933  21.135  13.006
85639W        W45142  35.464   0.323   1.248
85640W        W45143  37.545  19.648   4.706
85641W        W45144  32.088  30.554  10.451
85642W        W45145  20.531  41.859   3.270
85643W        W45146  15.316  21.123   4.269
85644W        W45147  19.048  19.673  10.990
85645W        W45148  12.852  42.408   1.305
85646W        W45149   9.394   4.848  10.624
85647W        W45150  28.445   0.475  14.842
85648W        W45151  43.415  44.484  12.910
85649W        W45152  33.960   7.873  13.845
85650W        W45153  19.684  43.887  11.058
85651W        W45154  18.232  38.555   4.326
85652W        W45155   6.355   6.376  10.585
85653W        W45156  22.650  41.505   3.854
85654W        W45157  16.637  15.665  10.517
85655W        W45158  26.496  41.966   1.899
85656W        W45159   3.390  39.345  12.490
85657W        W45160  22.188  24.188   2.813
85658W        W45161  33.126  31.570  14.392
85659W        W45162  22.077   7.754  10.467
85660W        W45163  12.143  36.092   2.896
85661W        W45164  11.746  21.692  11.590
85662W        W45165  15.240  31.020  13.870
85663W        W45166  35.897  11.317   4.131
85664W        W45167  36.584   0.866  13.021
85665W        W45168  37.851  42.873   5.254
85666W        W45169  24.171  34.420   1.835
85667W        W45170   2.237  15.722  10.936
85668W        W45171  24.694  29.503  12.004
85669W        W45172  40.861  41.299  14.347
85670W        W45173  42.948  25.519   2.762
85671W        W45174  44.988  10.764  11.602
85672W        W45175  37.475  23.012  11.420
85673W        W45176  10.278  44.011  10.525
85674W        W45177  16.246  12.839  11.931
85675W        W45178  32.520  11.231   2.714
85676W        W45179  36.493  37.543  12.845
85677W        W45180  19.666   3.365  12.842
85678W        W45181  10.815  11.215   3.208
85679W        W45182  43.963  41.043   4.813
85680W        W45183  11.348   8.666   3.362
85681W        W45184   4.889   5.857  14.923
85682W        W45185  42.314  32.925  10.493
85683W        W45186  38.838   3.814  10.486
85684W        W45187  20.090  31.517   4.718
85685W        W45188  15.717  40.437   5.221
85686W        W45189  25.481  36.888  14.937
85687W        W45190  31.580  38.899  13.904
85688W        W45191  44.785  17.214   2.772
85689W        W45192   9.724  25.091  13.828
85690W        W45193  22.023  26.524  13.015
85691W        W45194  39.442  16.628   1.761
85692W        W45195  31.500  23.658   0.402
85693W        W45196  26.667  19.186   4.296
85694W        W45197  11.752  17.061  14.032
85695W        W45198  20.207   2.767  11.008
85696W        W45199  44.005   5.403   1.754
85697W        W45200  15.175  30.087  12.871
85698W        W45201  30.422   9.688   2.183
85699W        W45202  30.129  27.691   2.895
85700W        W45203  10.712  23.594   0.815
85701W        W45204  13.123  11.698   2.832
85702W        W45205  14.589  30.475   4.119
85703W        W45206  22.581  32.101   3.653
85704W        W45207  34.868  13.669  12.909
85705W        W45208  26.995  38.404  12.838
85706W        W45209  15.242  30.529  11.007
85707W        W45210   0.494  42.490  10.441
85708W        W45211  12.657  18.602  13.916
85709W        W45212  14.816  43.333  13.052
85710W        W45213  32.138   6.400   1.276
85711W        W45214  28.978  16.166  11.868
85712W        W45215  31.632  17.602   4.679
85713W        W45216  29.563   9.222  10.597
85714W        W45217  14.795  26.502   4.719
85715W        W45218   6.767  39.884  12.490
85716W        W45219  29.495  36.560  10.934
85717W        W45220  13.751   2.394  11.924
85718W        W45221  17.203   9.676   0.425
85719W        W45222   1.879  40.523   0.304
85720W        W45223  35.891   5.901   1.784
85721W        W45224  40.044   2.776  13.894
85722W        W45225  22.109  22.093   0.452
85723W        W45226  39.495  27.621  12.433
85724W        W45227  35.516  31.123   3.291
85725W        W45228  34.377   3.346  11.561
85726W        W45229  43.833  38.952  13.445
85727W        W45230   3.786  42.420  11.428
85728W        W45231  13.796  35.959  11.459
85729W        W45232  14.671  32.911  14.465
85730W        W45233  22.999  43.821   5.595
85731W        W45234  40.048   4.330  14.483
85732W        W45235  43.358  42.441   1.422
85733W        W45236  42.784  16.730  12.540
85734W        W45237  16.225  12.649   0.908
85735W        W45238  34.391  29.108  11.529
85736W        W45239  33.518   3.853   3.191
85737W        W45240  19.244   0.785  14.440
85738W        W45241  44.350  21.194   5.102
85739W        W45242  17.669   3.368   0.863
85740W        W45243  32.534  33.964   1.446
85741W        W45244  18.673  42.858  12.027
85742W        W45245  29.081  11.260  11.059
85743W        W45246  40.446   1.744   5.107
85744W        W45247  25.550  20.767  13.881
85745W        W45248  32.043   1.299   4.611
85746W        W45249   5.289  15.781   0.302
85747W        W45250  22.092  38.053   1.313
85748W        W45251  23.699  12.293   3.699
85749W        W45252  19.054  19.125   2.681
85750W        W45253  40.334  38.465  12.006
85751W        W45254  42.457   2.440  10.488
85752W        W45255  12.142  24.514   2.694
85753W        W45256  19.761  18.135   4.209
85754W        W45257  40.003   7.249   3.370
85755W        W45258  34.038   1.477   1.804
85756W        W45259  33.401  29.977  11.457
85757W        W45260  27.954  38.454  10.156
85758W        W45261  28.611  22.675  13.942
85759W        W45262  31.944  28.620   0.288
85760W        W45263   6.683   6.377  10.424
85761W        W45264   7.321  12.316   5.195
85762W        W45265  40.023   4.257   0.359
85763W        W45266  14.280   9.232   4.214
85764W        W45267  34.566   7.352   0.790
85765W        W45268  32.436  19.662   5.295
85766W        W45269  37.992  10.219   1.698
85767W        W45270  17.629  42.811  14.001
85768W        W45271  35.096  34.566   3.308
85769W        W45272  24.086  39.865   1.278
85770W        W45273  24.543   4.909   4.746
85771W        W45274  13.139  41.943   3.249
85772W        W45275  14.103   5.855   1.436
85773W        W45276  34.081   8.326   0.810
85774W        W45277  42.792  11.850  14.277
85775W        W45278  36.553  33.081  13.980
85776W        W45279  31.620   4.872   0.871
85777W        W45280  33.464   3.226  13.910
85778W        W45281  40.535   5.805  12.005
85779W        W45282   7.817   2.861  13.493
85780W        W45283  41.036  40.362  12.417
85781W        W45284  41.364  20.522   1.835
85782W        W45285  32.885  15.150   4.147
85783W        W45286  11.335  24.076   3.736
85784W        W45287  40.376  12.827  11.965
85785W        W45288  27.088   5.769   3.343
85786W        W45289  36.850   0.341  11.524
85787W        W45290  21.695  36.434   0.751
85788W        W45291  18.136   6.228   4.342
85789W        W45292   8.854   9.294  13.538
85790W        W45293  27.538  18.742  12.925
85791W        W45294  43.281   8.781   2.724
85792W        W45295  28.116  28.133   2.836
85793W        W45296  15.179  11.287  10.603
85794W        W45297  39.533  33.939  14.986
85795W        W45298  34.584   1.905   2.798
85796W        W45299  42.370   1.802   0.364
85797W        W45300  40.925   0.455  13.836
85798W        W45301  39.943   8.822   1.842
85799W        W45302  40.041  20.727   1.756
85800W        W45303  43.313  43.990  14.893
85801W        W45304  37.024  41.798  13.824
85802W        W45305   2.800  42.331   4.275
85803W        W45306   1.921  14.826   5.093
85804W        W45307  18.194  20.146  12.363
85805W        W45308  22.041   2.746   1.895
85806W        W45309  33.962  22.070  13.416
85807W        W45310  29.083  31.904  14.876
85808W        W45311  40.863   4.440   3.684
85809W        W45312  37.451  19.642   1.728
85810W        W45313  17.136   6.259  10.529
85811W        W45314  12.199  32.919  11.024
85812W        W45315   5.277  17.659  12.350
85813W        W45316  18.684   9.802  11.569
85814W        W45317  44.972  13.618  12.402
85815W        W45318  43.808  21.570  13.887
85816W        W45319  18.648   0.260  12.372
85817W        W45320  17.767  25.684  12.084
85818W        W45321  38.875  37.899  13.961
85819W        W45322  24.512  34.026   3.204
85820W        W45323  31.488  38.048   4.127
85821W        W45324  17.139  31.110  11.046
85822W        W45325   4.859  27.639  14.768
85823W        W45326  36.901   9.334  11.467
85824W        W45327  33.452  32.489   0.955
85825W        W45328  25.124  27.610   1.426
85826W        W45329  22.024  37.360   0.894
85827W        W45330  39.824  15.810   0.846
85828W        W45331  21.626  22.643  14.370
85829W        W45332   3.825  27.510  12.957
85830W        W45333  15.201  12.293  11.998
85831W        W45334  28.615   3.401   0.387
85832W        W45335  25.102  32.085   4.208
85833W        W45336  37.060  14.326  13.444
85834W        W45337  36.099  31.452   2.873
85835W        W45338  12.200  14.651   2.694
85836W        W45339  10.260  23.061  12.001
85837W        W45340  32.501  16.749  11.024
85838W        W45341  43.007  14.262  14.812
85839W        W45342  24.675  44.381   0.953
85840W        W45343  33.561  16.726  11.049
85841W        W45344  26.178  21.559  13.932
85842W        W45345  29.066  20.178  14.780
85843W        W45346  32.624  41.892  10.636
85844W        W45347  35.008  36.487   0.478
85845W        W45348  23.107  16.773  14.919
85846W        W45349  27.993  35.467   4.239
85847W        W45350  10.779  21.034  13.376
85848W        W45351  29.615  35.043   2.697
85849W        W45352   3.847   6.885   1.391
85850W        W45353  41.028  36.077   4.314
85851W        W45354  27.185   4.311  11.954
85852W        W45355   2.371  43.296   0.871
85853W        W45356   8.249  38.328   4.604
85854W        W45357  17.107  24.058   2.894
85855W        W45358  34.464   3.279  14.508
85856W        W45359  36.993  10.311  12.086
85857W        W45360  32.141  23.054   4.348
85858W        W45361   2.349   3.881  13.921
85859W        W45362  23.663  33.412   2.794
85860W        W45363  30.553  17.194  14.804
85861W        W45364   9.228  24.101   2.382
85862W        W45365  30.008  22.502  14.384
85863W        W45366  33.543  18.260   0.773
85864W        W45367   7.861  16.705  10.926
85865W        W45368  13.770   6.326   1.298
85866W        W45369  23.686  27.608  13.992
85867W        W45370   0.984  16.289   1.921
85868W        W45371   1.793  16.723  12.008
85869W        W45372   6.372  33.469  11.927
85870W        W45373   8.268   6.219  11.492
85871W        W45374  36.912  36.908   4.123
85872W        W45375  14.752  15.721  13.443
85873W        W45376   8.253   2.736  11.517
85874W        W45377  23.542  14.220  12.881
85875W        W45378  23.084  10.271  14.817
85876W        W45379  13.110  27.446  10.901
85877W        W45380  39.540  12.270   0.932
85878W        W45381   8.344  11.685   0.405
85879W        W45382  39.449  26.988  11.585
85880W        W45383  17.290  37.875   0.946
85881W        W45384   1.759  26.988  13.355
85882W        W45385  37.055   5.206   2.383
85883W        W45386  21.714  22.188  10.505
85884W        W45387  38.415  26.176   3.809
85885W        W45388  37.034   8.186  12.408
85886W        W45389  37.531  30.629  10.996
85887W        W45390  41.926   3.837   3.279
85888W        W45391  17.233  15.733  13.915
85889W        W45392  22.008  11.302   3.308
85890W        W45393  28.466  21.044   3.680
85891W        W45394  11.757  44.898   0.841
85892W        W45395  41.333  16.203   2.214
85893W        W45396  23.237  25.971  13.050
85894W        W45397  33.602  35.973  11.864
85895W        W45398  36.009  42.996   0.302
85896W        W45399  20.207  43.384   2.235
85897W        W45400  26.467  43.017  10.490
85898W        W45401   1.903  25.570   4.329
85899W        W45402  13.712   7.206  14.924
85900W        W45403  32.420   3.719   2.722
85901W        W45404   9.739  27.051  12.552
85902W        W45405  38.050  21.562  11.472
85903W        W45406  28.038  43.828  13.056
85904W        W45407  16.136  22.674  12.848
85905W        W45408  40.894  32.490   2.247
85906W        W45409  20.549  21.701  13.404
85907W        W45410  38.045  37.084   4.643
85908W        W45411  44.361  28.581  12.429
85909W        W45412  29.050  37.963   2.338
85910W        W45413  38.978  18.548  13.995
85911W        W45414  44.834  44.406   2.865
85912W        W45415   0.357  14.317  10.950
85913W        W45416  10.217  36.031  13.875
85914W        W45417  27.004  32.950  12.933
85915W        W45418  43.439   7.842   2.320
85916W        W45419   1.914  24.520  12.066
85917W        W45420  43.873  27.987   9.619
85918W        W45421  21.039  33.602   3.734
85919W        W45422   1.246  22.128   3.310
85920W        W45423  18.264  27.046   3.870
85921W        W45424  23.707  35.511  14.840
85922W        W45425  11.675  21.694   0.958
85923W        W45426  35.427  33.533   3.278
85924W        W45427  19.235  20.091   3.353
85925W        W45428  15.653  20.720  14.299
85926W        W45429   6.870  10.306  13.000
85927W        W45430  18.174   0.832  13.835
85928W        W45431   5.882   5.803  14.885
85929W        W45432  36.033  32.997  13.864
85930W        W45433  15.264   2.436  11.872
85931W        W45434   6.765  10.798   2.763
85932W        W45435  19.154   5.883  12.420
85933W        W45436  31.126   7.315   0.813
85934W        W45437  31.000  28.998  11.062
85935W        W45438   2.242  43.477  11.993
85936W        W45439  22.602  42.521   2.762
85937W        W45440   5.698   6.380   4.662
85938W        W45441  37.515  34.032  11.443
85939W        W45442  21.556  13.617   2.388
85940W        W45443   0.914  34.435   4.648
85941W        W45444  10.360  21.742  10.065
85942W        W45445  28.483  10.719  14.453
85943W        W45446   4.240   6.293   1.244
85944W        W45447  40.307  20.058  10.567
85945W        W45448  31.585  13.744   9.537
85946W        W45449  35.555  23.032   1.736
85947W        W45450   8.212  30.049  12.092
85948W        W45451  34.112  17.634  12.083
85949W        W45452  11.182   4.276   0.405
85950W        W45453  13.788  22.247   2.380
85951W        W45454  36.507  25.524  11.026
85952W        W45455  40.980  15.200  13.434
85953W        W45456  26.551  34.593   4.116
85954W        W45457   1.302  10.682  14.786
85955W        W45458   3.414  27.675   2.314
85956W        W45459  22.247  35.998  11.547
85957W        W45460  43.985  42.935   2.407
85958W        W45461   8.194   9.173   0.935
85959W        W45462  25.569  18.125   1.255
85960W        W45463  43.993   1.949   2.246
85961W        W45464  38.442  36.052   0.316
85962W        W45465   2.820  35.890   2.742
85963W        W45466  25.512  11.655  10.896
85964W        W45467  29.015  21.731   1.411
85965W        W45468  32.088  42.842  11.579
85966W        W45469  20.745  38.892  14.842
85967W        W45470  17.560   7.338  13.829
85968W        W45471   1.469  37.973  10.969
85969W        W45472  23.185   3.919  11.508
85970W        W45473   7.292   7.856   3.240
85971W        W45474  39.922  28.598   2.242
85972W        W45475  44.855  34.464   3.283
85973W        W45476  17.227  36.534  13.442
85974W        W45477  17.717  43.898  10.422
85975W        W45478   1.748   0.373   0.945
85976W        W45479  21.702  16.227  14.895
85977W        W45480   1.873  20.229  14.989
85978W        W45481  28.495   7.307  14.957
85979W        W45482  15.650   0.922   2.343
85980W        W45483   3.785  28.518   1.369
85981W        W45484   7.780  33.490  14.327
85982W        W45485  41.329   3.400   2.750
85983W        W45486  25.672  44.944  10.545
85984W        W45487  16.130  16.280   0.818
85985W        W45488  41.796   5.262   5.083
85986W        W45489  13.702   0.366  14.808
85987W        W45490  35.008  30.017  12.929
85988W        W45491  13.731  26.633  12.417
85989W        W45492   8.696  44.449  13.332
85990W        W45493   3.736  40.050   0.339
85991W        W45494  38.934  37.340   1.913
85992W        W45495  25.207   4.206   3.223
85993W        W45496  28.567  30.637   3.151
85994W        W45497   7.750  13.773  10.512
85995W        W45498   7.322   9.769   4.163
85996W        W45499  22.140  33.437   4.294
85997W        W45500   4.285  35.420   2.663
85998W        W45501  28.934  21.651  12.937
85999W        W45502  28.980   1.731  11.031
86000W        W45503  27.085  17.240   0.360
86001W        W45504  38.822   5.409   2.180
86002W        W45505  24.677  12.191  10.476
86003W        W45506  37.072  41.451  14.009
86004W        W45507  16.208  44.894  14.855
86005W        W45508   3.247  41.500   0.446
86006W        W45509  13.787  18.138  10.576
86007W        W45510  41.373  36.096  10.929
86008W        W45511  24.199  39.910  10.569
86009W        W45512  17.620   6.327  12.071
86010W        W45513  19.677   4.906   4.229
86011W        W45514  15.648  21.090  12.571
86012W        W45515  25.624  10.672  10.563
86013W        W45516  32.087  24.119   1.784
86014W        W45517  34.979  31.899   0.730
86015W        W45518  26.106  13.201  10.579
86016W        W45519  36.848  29.075   2.704
86017W        W45520   0.880   0.293  13.968
86018W        W45521   1.277  15.313  14.949
86019W        W45522   0.425   5.316  10.974
86020W        W45523  11.297  24.110  12.851
86021W        W45524  32.023  18.092   0.742
86022W        W45525  22.232  17.127   1.744
86023W        W45526  29.923   5.697  11.855
86024W        W45527  39.997  37.430  10.600
86025W        W45528  26.022   1.976  14.411
86026W        W45529  33.507  10.374  12.513
86027W        W45530  43.301   1.734   5.082
86028W        W45531  32.926  26.541  12.988
86029W        W45532  23.204  22.657  11.863
86030W        W45533   0.806  42.332   5.717
86031W        W45534  38.946  26.152  10.986
86032W        W45535  43.356  43.308   1.433
86033W        W45536   2.805  36.910  13.319
86034W        W45537  11.246  39.034  11.895
86035W        W45538   2.444   6.692   4.708
86036W        W45539  27.059  42.294  14.996
86037W        W45540  12.139  18.565   1.742
86038W        W45541  30.526  20.174   1.863
86039W        W45542  14.763   1.842  11.377
86040W        W45543  28.531  19.157   3.294
86041W        W45544  37.559  13.837   2.890
86042W        W45545  23.520   1.355  14.999
86043W        W45546   7.315  12.675   2.816
86044W        W45547  22.743   9.870  14.777
86045W        W45548   9.839   5.263   4.354
86046W        W45549   3.346  19.752   2.827
86047W        W45550  10.148   1.773  14.828
86048W        W45551   9.727  20.094  12.962
86049W        W45552  13.293  44.004  13.309
86050W        W45553   3.428  34.395   1.838
86051W        W45554  34.091   6.794   2.344
86052W        W45555  23.131   5.217  13.982
86053W        W45556  33.021  23.997  12.986
86054W        W45557  16.314  40.501  10.611
86055W        W45558   9.877   4.434  14.770
86056W        W45559   4.405   1.796  13.459
86057W        W45560  41.452  44.949   3.356
86058W        W45561  40.898  16.099   1.423
86059W        W45562  14.273  28.967  12.500
86060W        W45563  38.461  27.657  11.959
86061W        W45564   7.294  39.414  11.907
86062W        W45565  32.432  20.598  11.388
86063W        W45566  13.174   4.937  14.508
86064W        W45567  11.337  16.315   3.346
86065W        W45568  36.008   4.359  12.439
86066W        W45569  41.534  38.044  12.060
86067W        W45570  33.412  10.679   1.324
86068W        W45571  36.973  35.011   2.778
86069W        W45572  34.907  29.522  10.504
86070W        W45573   5.293  31.490  10.486
86071W        W45574  21.577   9.719  10.473
86072W        W45575   3.940  28.036   0.747
86073W        W45576  31.450   0.901  10.512
86074W        W45577  27.689   1.456  14.871
86075W        W45578  24.173   1.320   1.262
86076W        W45579  25.970  26.040   0.439
86077W        W45580   1.299  39.047   3.314
86078W        W45581  36.856  17.276  14.382
86079W        W45582  31.038   2.324  12.057
86080W        W45583  27.057   9.828  12.914
86081W        W45584  40.920  39.558  11.598
86082W        W45585  29.435  39.385  12.510
86083W        W45586  34.883  37.437  13.019
86084W        W45587  39.973  36.981  11.897
86085W        W45588  34.900  11.197   0.887
86086W        W45589  43.783   2.343   3.322
86087W        W45590  33.579  42.460   0.316
86088W        W45591  40.812  21.556   3.739
86089W        W45592  12.718  13.229  12.992
86090W        W45593  39.323  24.524   0.262
86091W        W45594   0.953  24.618  12.520
86092W        W45595  44.926  16.734   0.263
86093W        W45596   9.849  34.558  13.396
86094W        W45597  35.955   6.901   2.214
86095W        W45598  16.095  35.882  11.481
86096W        W45599   7.672  26.045  10.898
86097W        W45600  16.582  37.388  14.945
86098W        W45601  22.704  30.610  13.542
86099W        W45602  42.885  17.306   1.244
86100W        W45603  24.679  14.145   1.348
86101W        W45604  22.519   5.349  14.989
86102W        W45605  32.420  35.401   2.213
86103W        W45606  22.171   2.931  10.960
86104W        W45607  26.477   6.918  14.938
86105W        W45608  26.137  41.471  12.894
86106W        W45609  14.156  13.241  13.514
86107W        W45610  17.144   6.231   5.272
86108W        W45611  16.095  12.824  11.512
86109W        W45612  33.095  38.522   1.814
86110W        W45613   7.670  39.970   0.435
86111W        W45614  12.178   0.854  12.508
86112W        W45615  29.047   7.815  10.563
86113W        W45616  29.523  17.687  13.516
86114W        W45617  43.020  44.807   3.212
86115W        W45618  34.985  17.608  12.438
86116W        W45619   3.950  14.329   1.374
86117W        W45620  12.617  11.636  12.986
86118W        W45621  17.169  39.968   1.912
86119W        W45622  33.620  15.290   0.424
86120W        W45623  39.476  33.966   3.331
86121W        W45624  42.502  11.865   1.284
86122W        W45625  10.863  16.199  11.060
86123W        W45626  12.298  29.482  14.325
86124W        W45627  25.633  36.415   4.169
86125W        W45628  24.589  13.817  10.474
86126W        W45629  31.097  14.162  13.446
86127W        W45630   9.207  12.206  12.885
86128W        W45631   8.290  35.445   1.234
86129W        W45632  26.594  40.371  11.092
86130W        W45633  44.939  35.902  13.018
86131W        W45634  41.444   7.311  13.535
86132W        W45635  38.545  40.328   2.746
86133W        W45636  20.031  16.708   4.197
86134W        W45637  16.241  40.305  10.044
86135W        W45638  23.053  11.178  12.347
86136W        W45639  27.136  14.120   3.208
86137W        W45640  40.829  12.232  13.541
86138W        W45641  27.005  13.694   1.403
86139W        W45642   6.784   0.411  11.875
86140W        W45643  32.992  32.942   0.481
86141W        W45644  27.969  15.722  12.502
86142W        W45645   6.728  25.676  14.291
86143W        W45646   0.492  37.057  13.518
86144W        W45647   0.903  12.651   4.734
86145W        W45648  29.479   3.364   2.359
86146W        W45649  38.062  12.698  11.534
86147W        W45650  40.844  16.153   3.716
86148W        W45651  33.508  44.316  12.443
86149W        W45652  10.711  31.425  13.408
86150W        W45653   2.350  21.579  11.471
86151W        W45654  16.143  16.107   1.714
86152W        W45655  32.141  34.429   3.328
86153W        W45656  10.165  36.035  10.892
86154W        W45657   1.381  34.044  13.313
86155W        W45658   9.222  10.141   1.750
86156W        W45659   4.223  17.602  14.771
86157W        W45660  15.703  21.515   2.858
86158W        W45661   6.246  29.471  13.828
86159W        W45662  26.993  10.864  10.523
86160W        W45663  34.541  10.226   0.283
86161W        W45664  39.832   0.809   1.221
86162W        W45665   0.447  24.975   1.212
86163W        W45666  37.528  38.383  14.911
86164W        W45667  42.329   9.169  12.456
86165W        W45668  27.682  42.398   0.347
86166W        W45669  42.020   1.734  10.633
86167W        W45670  43.877  21.251   4.318
86168W        W45671  21.540   5.835  11.600
86169W        W45672  36.030   7.196   5.135
86170W        W45673  21.204  44.464  11.058
86171W        W45674  10.775  20.728   4.724
86172W        W45675  14.648  36.418   4.188
86173W        W45676   6.253  17.673  13.326
86174W        W45677  25.503   7.372   3.807
86175W        W45678  36.846  14.243   0.415
86176W        W45679  24.650  11.854   1.447
86177W        W45680  19.628  33.491   3.755
86178W        W45681  43.378   5.234   9.456
86179W        W45682  35.603  35.978  12.945
86180W        W45683  43.844   9.699   0.823
86181W        W45684  32.511   4.323   0.374
86182W        W45685  18.731  38.994   2.353
86183W        W45686  21.744  38.445  10.465
86184W        W45687  28.141  36.422  10.083
86185W        W45688   5.276  19.196   0.308
86186W        W45689   8.776  36.456  13.036
86187W        W45690  17.292  14.096  13.355
86188W        W45691   8.288  44.881  12.062
86189W        W45692  11.168  28.108  11.391
86190W        W45693   5.259   1.238  11.987
86191W        W45694  19.673  19.710   4.146
86192W        W45695  38.063  25.032   4.173
86193W        W45696  13.647  30.478  13.373
86194W        W45697  27.150  29.424   3.776
86195W        W45698   0.425  18.762   0.887
86196W        W45699   0.479  16.164  10.627
86197W        W45700   3.935  18.744  13.446
86198W        W45701  24.135  44.855  14.917
86199W        W45702  38.401  36.380  14.344
86200W        W45703  25.528  30.137   3.629
86201W        W45704  20.685   2.792   9.926
86202W        W45705  41.507   2.792  13.910
86203W        W45706   4.267  24.040  12.341
86204W        W45707  30.569   9.721   1.935
86205W        W45708  20.032  29.586  11.438
86206W        W45709  33.535  17.217  14.901
86207W        W45710  25.001   7.703   4.666
86208W        W45711  33.115  26.699  11.501
86209W        W45712  41.376  42.888   0.417
86210W        W45713  30.925  29.035   0.481
86211W        W45714  22.203  41.818  11.972
86212W        W45715  16.127  24.061  12.874
86213W        W45716  19.712  38.373   2.741
86214W        W45717  30.016  21.115   2.325
86215W        W45718  19.123  34.977  14.449
86216W        W45719  21.522  25.702   2.845
86217W        W45720   7.343   8.194   2.195
86218W        W45721  15.314  34.115  12.349
86219W        W45722  21.208  33.091  12.568
86220W        W45723  36.386  21.039   2.808
86221W        W45724  13.761  21.229  12.006
86222W        W45725  38.879  35.444  12.008
86223W        W45726   9.177  14.191   0.372
86224W        W45727  36.948  15.766   1.699
86225W        W45728  30.164  30.453  12.947
86226W        W45729  31.551  38.545   3.317
86227W        W45730  20.545  12.754  10.910
86228W        W45731   5.739  42.976   0.282
86229W        W45732  22.696  33.612   4.189
86230W        W45733  29.049   7.868   3.692
86231W        W45734  32.415   3.288  14.800
86232W        W45735  39.846  29.616  13.447
86233W        W45736  17.265  37.491   2.252
86234W        W45737  17.619   5.272   0.796
86235W        W45738  36.062  18.579   1.433
86236W        W45739  29.960  39.443  13.409
86237W        W45740  33.517  29.920  12.869
86238W        W45741  32.628  36.884   1.267
86239W        W45742  11.652  40.522   4.333
86240W        W45743  29.483  14.636  14.456
86241W        W45744  38.049   6.845   4.646
86242W        W45745   5.825  31.448   4.267
86243W        W45746   3.405   6.218  12.989
86244W        W45747   6.230   6.231  13.393
86245W        W45748  44.410  10.292   4.703
86246W        W45749   2.907   9.349  12.095
86247W        W45750   7.288  15.756  11.919
86248W        W45751  19.536  37.939  11.546
86249W        W45752  13.314   9.365   0.300
86250W        W45753   1.281  20.527   2.790
86251W        W45754   0.488  16.124  12.414
86252W        W45755   0.984  25.519  10.537
86253W        W45756  21.585  18.677   2.694
86254W        W45757   4.402  12.280   2.736
86255W        W45758  19.193  40.317  11.399
86256W        W45759  11.204  19.678   2.243
86257W        W45760  22.052  34.082  10.611
86258W        W45761  29.941   1.447  11.908
86259W        W45762  39.925  16.229   3.635
86260W        W45763  24.136   2.776  10.920
86261W        W45764  41.889  28.485   0.777
86262W        W45765   1.468   5.810  14.823
86263W        W45766   1.947  33.535  11.424
86264W        W45767  35.362  34.604   2.180
86265W        W45768  27.614  20.572   1.832
86266W        W45769  42.321   2.935   2.725
86267W        W45770   4.307  18.738   2.858
86268W        W45771  19.620  13.187  11.542
86269W        W45772  20.265   4.759  11.054
86270W        W45773  15.104  17.641  10.608
86271W        W45774   0.345  22.207  10.527
86272W        W45775  21.746  44.808  12.989
86273W        W45776  14.639  27.036   2.863
86274W        W45777  16.582   5.375  12.021
86275W        W45778  25.219   2.850   1.907
86276W        W45779   3.744  26.583   0.811
86277W        W45780  35.537  17.248  14.874
86278W        W45781  18.750  16.106  13.844
86279W        W45782   5.856  34.453   3.657
86280W        W45783  18.609   3.319   2.674
86281W        W45784  42.527  42.385   0.938
86282W        W45785   2.742  30.118  11.379
86283W        W45786  30.071  39.879  13.420
86284W        W45787  23.117  31.076   2.797
86285W        W45788   9.753  21.111  10.508
86286W        W45789  35.957  38.496   1.242
86287W        W45790  22.186  41.342   4.735
86288W        W45791   5.790   6.877  12.990
86289W        W45792  28.110  10.808  11.973
86290W        W45793  22.221  38.423  14.893
86291W        W45794  12.145  43.972  10.619
86292W        W45795  32.548  21.543  12.071
86293W        W45796  33.907  10.681   2.805
86294W        W45797  42.484  43.832  10.954
86295W        W45798   6.323  33.522   3.695
86296W        W45799  40.495  23.497  13.026
86297W        W45800  38.415   0.343  14.359
86298W        W45801  16.811  23.013  13.795
86299W        W45802  13.137  10.693  10.584
86300W        W45803  19.575  22.009  11.426
86301W        W45804  23.681  38.468  10.898
86302W        W45805  42.362  12.646  13.398
86303W        W45806   5.233  18.722  12.440
86304W        W45807   9.772  20.610  10.922
86305W        W45808  17.286  19.599  13.913
86306W        W45809  12.645  44.906  11.400
86307W        W45810  28.185  35.372   3.756
86308W        W45811   1.877  15.784   2.688
86309W        W45812  32.072  40.879  10.451
86310W        W45813  33.546  22.565  13.903
86311W        W45814  11.138  29.427  10.571
86312W        W45815   9.702   6.884   1.779
86313W        W45816  17.163  25.981   2.352
86314W        W45817  26.584   1.913   2.894
86315W        W45818  42.335  35.863   3.836
86316W        W45819  35.073  32.104  12.413
86317W        W45820  36.956  41.363   2.413
86318W        W45821   4.723   2.965   1.259
86319W        W45822   6.713  30.499   2.871
86320W        W45823   6.363  37.054  10.584
86321W        W45824  27.056   5.848  14.303
86322W        W45825   1.766  33.428  10.997
86323W        W45826  19.749   8.389   1.248
86324W        W45827  39.901   3.943  14.991
86325W        W45828   1.898  35.372   1.341
86326W        W45829  37.031   0.862   3.727
86327W        W45830   8.894  14.824   3.283
86328W        W45831   8.697  20.603   4.704
86329W        W45832  30.578   7.196  14.861
86330W        W45833  37.052  22.098   4.782
86331W        W45834   0.295  32.976   0.266
86332W        W45835  25.485  17.063  13.335
86333W        W45836  44.757  40.432   2.788
86334W        W45837  16.692  37.834  12.377
86335W        W45838  19.754  33.626   0.898
86336W        W45839  12.136   8.212   4.175
86337W        W45840   1.864   8.747  13.815
86338W        W45841  10.156  28.445   1.248
86339W        W45842  21.731   4.799  10.142
86340W        W45843   2.369   5.872   4.771
86341W        W45844  29.556   7.905   3.366
86342W        W45845   0.940  41.357  12.537
86343W        W45846  15.682   0.407   0.753
86344W        W45847  28.548  13.110   5.178
86345W        W45848  38.873   1.897  12.555
86346W        W45849  24.033   2.854  12.989
86347W        W45850  32.106  26.098   0.335
86348W        W45851  13.260  44.300   3.195
86349W        W45852  22.582  36.562   1.742
86350W        W45853   1.337  13.796   0.281
86351W        W45854  13.781  17.573  12.971
86352W        W45855  15.581   4.728  10.559
86353W        W45856  43.390   9.857  12.892
86354W        W45857   9.319  36.022  14.330
86355W        W45858   6.866  26.062   4.669
86356W        W45859  16.123  31.608   3.270
86357W        W45860  11.315  21.625   1.245
86358W        W45861  35.949   7.843  13.433
86359W        W45862  30.444  20.665   4.701
86360W        W45863  20.666   3.370  10.937
86361W        W45864  17.087  26.488  10.138
86362W        W45865  39.367  43.428  11.389
86363W        W45866  36.073  43.961  10.445
86364W        W45867  43.463  44.791   2.675
86365W        W45868   8.333  40.863   2.340
86366W        W45869  35.526  32.019  12.386
86367W        W45870   0.375   7.706   2.205
86368W        W45871  11.716   9.755  10.130
86369W        W45872  36.949  39.335  13.902
86370W        W45873  40.912  40.441  13.857
86371W        W45874   4.361   4.758   2.397
86372W        W45875  15.171  11.369  12.871
86373W        W45876   3.392  24.625   1.697
86374W        W45877   5.428  34.452   3.832
86375W        W45878  30.118  20.109   1.822
86376W        W45879   7.202   3.396   3.171
86377W        W45880  35.415  40.437   4.833
86378W        W45881  36.564   1.280   0.330
86379W        W45882  33.429  40.459   1.795
86380W        W45883   6.778  40.418  14.849
86381W        W45884  34.884  39.936  13.523
86382W        W45885  43.776  16.694  13.875
86383W        W45886  30.509  33.420  14.797
86384W        W45887  26.652   1.385  13.449
86385W        W45888   0.451  14.680   1.761
86386W        W45889  28.456  27.153  12.035
86387W        W45890   2.807  44.767   0.374
86388W        W45891  26.960  14.329  14.796
86389W        W45892   0.352   9.884  14.023
86390W        W45893   6.691  26.483  13.845
86391W        W45894  21.175  28.161   3.153
86392W        W45895  17.100  28.535  11.063
86393W        W45896  28.032  32.131  12.853
86394W        W45897   7.890  31.595   0.257
86395W        W45898  44.497  24.504  10.571
86396W        W45899  24.578  32.116  14.308
86397W        W45900   3.953  10.671   3.265
86398W        W45901  44.914  35.982  11.887
86399W        W45902  20.684  18.134  14.912
86400W        W45903   1.326  20.716   4.328
86401W        W45904  25.185  29.040   3.834
86402W        W45905  34.610  15.680  13.059
86403W        W45906  24.515  33.449  11.401
86404W        W45907  19.097   0.338   2.385
86405W        W45908  27.627  19.111   0.356
86406W        W45909  31.105  22.667   2.204
86407W        W45910   4.782  31.127   2.850
86408W        W45911  36.029   0.816   2.874
86409W        W45912  24.195  39.063  11.040
86410W        W45913  44.333  39.441  11.470
86411W        W45914  27.692  25.705  11.936
86412W        W45915  37.894  16.172   3.241
86413W        W45916  15.701  11.823   3.350
86414W        W45917   5.931  25.612   4.335
86415W        W45918   5.350  20.108  13.843
86416W        W45919  23.031  43.904  12.356
86417W        W45920  13.180   3.302   5.292
86418W        W45921   5.340   7.814  13.846
86419W        W45922  37.466  16.291   4.777
86420W        W45923  19.070  22.999  14.954
86421W        W45924  31.456  43.379  11.482
86422W        W45925  15.733   1.252   2.886
86423W        W45926  37.981  17.729  14.887
86424W        W45927  21.022   5.253   4.343
86425W        W45928   1.805  40.948   0.892
86426W        W45929  41.338  41.524   3.241
86427W        W45930  16.683  28.512   2.332
86428W        W45931  37.901  10.172  14.476
86429W        W45932   7.895  42.483   4.299
86430W        W45933  16.647  40.999   3.219
86431W        W45934  16.790   0.774   2.847
86432W        W45935  33.588   7.395   5.085
86433W        W45936  31.047   5.831  10.933
86434W        W45937  42.420  20.073  12.441
86435W        W45938  25.035  16.604   3.226
86436W        W45939  34.997  20.726  14.930
86437W        W45940   0.789  15.809   1.329
86438W        W45941  36.509   9.235  11.882
86439W        W45942  34.521  28.140   4.727
86440W        W45943   5.906  43.915   3.854
86441W        W45944  44.280  26.598   1.822
86442W        W45945  17.259  28.654  12.364
86443W        W45946  29.657  40.801  12.489
86444W        W45947  31.584  24.544   1.858
86445W        W45948  43.827  42.290  10.888
86446W        W45949  35.970  27.067   2.776
86447W        W45950  39.813  28.558   2.845
86448W        W45951  44.495  20.727  12.872
86449W        W45952  43.869  14.607   2.735
86450W        W45953  36.540  42.826   1.887
86451W        W45954  13.682  14.686  10.550
86452W        W45955   9.271  31.999   5.305
86453W        W45956  22.745  23.638  11.018
86454W        W45957  12.821  27.973   2.187
86455W        W45958   6.725  43.315  14.474
86456W        W45959  23.593   2.298   4.158
86457W        W45960  26.164   4.286   3.819
86458W        W45961  28.186  33.499   1.309
86459W        W45962  29.947  33.935  13.454
86460W        W45963  32.582  32.615  10.522
86461W        W45964  19.198  24.025   3.159
86462W        W45965  35.070   0.916  13.518
86463W        W45966  18.068   8.390   4.769
86464W        W45967  29.969  14.593  10.637
86465W        W45968  44.433  42.779   2.211
86466W        W45969   6.208   3.215   2.733
86467W        W45970  35.499  28.158   2.718
86468W        W45971  30.497   7.380   1.814
86469W        W45972   9.743  41.878   2.362
86470W        W45973  21.645  41.811  11.947
86471W        W45974   6.782  37.867  12.525
86472W        W45975  17.642  35.542   3.246
86473W        W45976   5.772  39.484  13.511
86474W        W45977  26.094  16.775   2.776
86475W        W45978  21.753  44.352   0.332
86476W        W45979   9.172  35.469  13.891
86477W        W45980   7.735  19.187   3.384
86478W        W45981  18.628  19.607  12.445
86479W        W45982  41.514  24.666  14.379
86480W        W45983  30.069  26.095   0.269
86481W        W45984  21.064  16.105  12.899
86482W        W45985  22.602  40.460   9.982
86483W        W45986  37.876  10.326  11.053
86484W        W45987  41.471  40.849   1.255
86485W        W45988   1.312   1.745   2.338
86486W        W45989  11.781  16.101  11.536
86487W        W45990   6.711  22.637  10.628
86488W        W45991  23.650  14.186   1.899
86489W        W45992   6.921  28.044   1.766
86490W        W45993  11.280  21.556  14.964
86491W        W45994  24.098  42.519   0.415
86492W        W45995  43.893   6.714   1.302
86493W        W45996  23.615  30.585  10.536
86494W        W45997   1.372  37.084  11.863
86495W        W45998  36.481  34.908   2.310
86496W        W45999  16.795  40.799  10.485
86497W        W46000  17.689  20.147  14.901
86498W        W46001   9.218  43.331   2.199
86499W        W46002  21.241  29.171  11.537
86500W        W46003  12.742  27.649  10.970
86501W        W46004  30.458  17.623  14.899
86502W        W46005  35.097  26.465   0.474
86503W        W46006  43.773   4.854  13.797
86504W        W46007  24.664  41.525  11.014
86505W        W46008  37.550   9.887   1.823
86506W        W46009  28.950   4.749  14.782
86507W        W46010  22.683  44.467   2.192
86508W        W46011  23.149  20.160  10.963
86509W        W46012  44.771  37.451  14.801
86510W        W46013  29.487  42.449  14.364
86511W        W46014  28.106   2.879  14.862
86512W        W46015  36.957   2.251  14.444
86513W        W46016  20.567  15.803  10.538
86514W        W46017  16.296   5.723  10.466
86515W        W46018  24.022  20.167  12.357
86516W        W46019  39.557   9.316  11.416
86517W        W46020  24.059   6.335  14.414
86518W        W46021  27.583  39.852   4.599
86519W        W46022  24.996   6.226  13.028
86520W        W46023  34.587  40.494  12.460
86521W        W46024  36.081  21.091   1.337
86522W        W46025  42.522  24.160   0.951
86523W        W46026  36.073   4.832  11.877
86524W        W46027  10.763  22.536   1.303
86525W        W46028  15.120   5.386   0.943
86526W        W46029  18.574  37.892  10.624
86527W        W46030   9.153   2.407  10.635
86528W        W46031  22.134  40.038  14.885
86529W        W46032  32.439  31.147  12.343
86530W        W46033  40.372  22.715  14.012
86531W        W46034  27.151  31.947   1.239
86532W        W46035  22.667   8.242  14.350
86533W        W46036  31.540  13.611  12.875
86534W        W46037  17.575  38.063  13.946
86535W        W46038  18.680  32.118  13.876
86536W        W46039  41.961  11.338  12.899
86537W        W46040  31.468  27.971   5.782
86538W        W46041  20.557  18.734   4.667
86539W        W46042  26.536  16.304  12.042
86540W        W46043  14.280   3.340   3.826
86541W        W46044   8.187  16.776   2.897
86542W        W46045  24.137  21.720   0.273
86543W        W46046   1.460  19.131  14.421
86544W        W46047  41.448  38.482   3.286
86545W        W46048  18.671  12.271  10.518
86546W        W46049  25.047  33.032  14.845
86547W        W46050  29.605  30.163  10.137
86548W        W46051  25.049   7.193  14.776
86549W        W46052  40.941   1.751   2.820
86550W        W46053  16.789  34.545   1.437
86551W        W46054   3.918   1.905   2.813
86552W        W46055  15.238   8.714  14.515
86553W        W46056  35.385  26.199   3.839
86554W        W46057  18.199  31.456  12.969
86555W        W46058  10.145  12.818  10.920
86556W        W46059  17.752  16.709   1.382
86557W        W46060  10.166  25.526  14.854
86558W        W46061   8.732  27.142  11.476
86559W        W46062  22.244   9.665  10.910
86560W        W46063  27.615  21.722   4.202
86561W        W46064  25.604   4.260   0.938
86562W        W46065  28.009  31.118  13.816
86563W        W46066   4.339  21.062   2.357
86564W        W46067   8.311  23.625   2.739
86565W        W46068  10.349   5.922  12.563
86566W        W46069  18.259  22.141  11.986
86567W        W46070  20.523  17.084   2.711
86568W        W46071  36.026  26.016  13.441
86569W        W46072  18.578  42.896  10.120
86570W        W46073  21.714  11.203  10.559
86571W        W46074  37.504  13.817   2.274
86572W        W46075   5.833  38.883   3.328
86573W        W46076  19.181  24.643  13.336
86574W        W46077   6.382  41.524   0.350
86575W        W46078  27.065  35.976   1.295
86576W        W46079  37.932  25.060  13.325
86577W        W46080  39.452   8.857  11.009
86578W        W46081  37.975  42.991   1.756
86579W        W46082  38.921  21.260  10.448
86580W        W46083  23.558   2.332  14.465
86581W        W46084   3.874  39.531  14.308
86582W        W46085  16.095  33.005   1.816
86583W        W46086  27.012  38.010   2.311
86584W        W46087  16.809  24.133  14.982
86585W        W46088  44.761  27.069   1.933
86586W        W46089   9.699  31.585  11.373
86587W        W46090  31.513   5.402  14.821
86588W        W46091  17.678  12.811   2.225
86589W        W46092  38.023  26.570  13.880
86590W        W46093   8.382  38.067  11.910
86591W        W46094  39.372   1.800   0.474
86592W        W46095   3.822  38.945   2.800
86593W        W46096  34.548  10.167  11.012
86594W        W46097  10.262   6.322  12.987
86595W        W46098  44.971  30.506   1.867
86596W        W46099  34.409  34.041  14.997
86597W        W46100  15.583  21.618  11.992
86598W        W46101  44.259  24.033   0.365
86599W        W46102  38.397  41.465  11.099
86600W        W46103  26.996  25.027  12.384
86601W        W46104  24.566   7.786   4.313
86602W        W46105  14.650  42.294   2.315
86603W        W46106  35.867  28.608  10.933
86604W        W46107  27.584  21.564   3.860
86605W        W46108   0.775  28.090  14.398
86606W        W46109  32.538   4.901   3.768
86607W        W46110  13.292  21.100   0.271
86608W        W46111  21.546  31.138  12.063
86609W        W46112  18.731  28.995  14.030
86610W        W46113  22.179  37.001   2.241
86611W        W46114  26.153  34.013  13.064
86612W        W46115  32.004   1.358   3.786
86613W        W46116  28.041   7.171  14.388
86614W        W46117   7.900  26.619  14.975
86615W        W46118  36.579  44.797   1.280
86616W        W46119  33.614  15.754  13.870
86617W        W46120  40.993  27.068   4.196
86618W        W46121  22.713  38.927  12.950
86619W        W46122  37.547  25.974   4.746
86620W        W46123  24.118  24.138  11.104
86621W        W46124  36.035  19.643  10.987
86622W        W46125  25.474  33.419   4.322
86623W        W46126  12.361  18.128   4.264
86624W        W46127  28.550  34.108   2.815
86625W        W46128  18.238  25.629  12.446
86626W        W46129  21.706  22.514  11.968
86627W        W46130  29.931  13.701  14.302
86628W        W46131  10.754  20.135   2.854
86629W        W46132  24.594  27.131  14.765
86630W        W46133  33.415   6.404   2.281
86631W        W46134  25.509  12.787   3.835
86632W        W46135  28.971  32.120   4.680
86633W        W46136  13.730  40.837  12.903
86634W        W46137   3.729  23.646   0.938
86635W        W46138  27.654  21.176   4.305
86636W        W46139  23.579   9.864   2.247
86637W        W46140  16.080  44.901  11.872
86638W        W46141  25.622  35.089  10.625
86639W        W46142  28.654  40.930   2.702
86640W        W46143  12.821  18.736   0.383
86641W        W46144  27.484  30.628  10.488
86642W        W46145  20.221  33.017   4.234
86643W        W46146  30.909  24.534   9.968
86644W        W46147  23.158   9.645  11.494
86645W        W46148  29.437  19.124  10.577
86646W        W46149  20.525   2.961  13.817
86647W        W46150   2.891  13.122  10.918
86648W        W46151  28.157  22.563  14.314
86649W        W46152  39.954   7.371   4.202
86650W        W46153  31.645  20.548   1.277
86651W        W46154  39.844  39.370  12.397
86652W        W46155  25.642   0.775   0.258
86653W        W46156  23.136  14.801  12.038
86654W        W46157  16.256  19.621   3.283
86655W        W46158  14.725   3.430  12.428
86656W        W46159   0.413   7.688   1.932
86657W        W46160   8.215   6.308  13.337
86658W        W46161  35.377  43.985  11.553
86659W        W46162  31.127  26.642   0.468
86660W        W46163   3.425  43.926  14.885
86661W        W46164  19.125   9.153  12.539
86662W        W46165  21.101  25.208   2.220
86663W        W46166   3.326  28.145   5.284
86664W        W46167  35.426  14.795   2.880
86665W        W46168  40.334  13.635   2.799
86666W        W46169   2.887  27.991   2.814
86667W        W46170   3.725  43.844   1.391
86668W        W46171   5.364  25.100  12.952
86669W        W46172  31.411   9.384  12.387
86670W        W46173  14.596  33.571   3.808
86671W        W46174  38.374   4.714  14.924
86672W        W46175  14.199  41.487   1.724
86673W        W46176  21.114  31.066  12.519
86674W        W46177  27.683   6.242  12.842
86675W        W46178  34.034  17.679   2.364
86676W        W46179  16.226  15.176  12.950
86677W        W46180  32.084  31.528   2.369
86678W        W46181  29.102  25.496  12.469
86679W        W46182  39.862  31.596  11.892
86680W        W46183  24.973  39.842   3.828
86681W        W46184  13.212  27.459   3.669
86682W        W46185  34.029  12.120  14.963
86683W        W46186  38.343  32.587   4.695
86684W        W46187   8.701   4.792  10.472
86685W        W46188  13.192  37.511  11.942
86686W        W46189  35.866  21.537  11.572
86687W        W46190  20.735  19.129   3.800
86688W        W46191  20.711   3.290   4.644
86689W        W46192  11.236  11.161  11.527
86690W        W46193  34.921  42.914   1.294
86691W        W46194  27.578  15.773  11.038
86692W        W46195  32.452  18.201   0.408
86693W        W46196  34.574  33.093  10.628
86694W        W46197   2.412  30.021   4.716
86695W        W46198  40.528  14.100  14.309
86696W        W46199  16.675   5.919  14.014
86697W        W46200  14.176  41.884   2.312
86698W        W46201   2.783  11.625  13.018
86699W        W46202  10.634  26.123   1.344
86700W        W46203  36.471  33.512  14.476
86701W        W46204  30.991  12.235   5.607
86702W        W46205  36.874  13.699   4.669
86703W        W46206  27.465  13.675  11.129
86704W        W46207  19.712  34.010   3.784
86705W        W46208  41.955  29.512   2.706
86706W        W46209   5.375  16.302  12.903
86707W        W46210  13.291   7.904  14.970
86708W        W46211  27.100  41.506  14.814
86709W        W46212  17.669  39.372   4.122
86710W        W46213  11.186  44.866  10.441
86711W        W46214  37.049   3.846   4.144
86712W        W46215  13.259  19.535   5.225
86713W        W46216  37.337   6.388   0.312
86714W        W46217  11.274  42.895  13.468
86715W        W46218  11.719  18.183   0.341
86716W        W46219  16.712  16.598  13.842
86717W        W46220  21.561  14.212   2.382
86718W        W46221  34.929  20.053  13.387
86719W        W46222  19.583  38.911   2.745
86720W        W46223  43.820  28.161   2.900
86721W        W46224  43.801  42.317   0.827
86722W        W46225  36.383  44.372   4.261
86723W        W46226  12.285  25.693   2.815
86724W        W46227  13.113  11.650  11.993
86725W        W46228  12.118  39.477   2.197
86726W        W46229   2.930  34.512  12.049
86727W        W46230  24.482  38.330   3.334
86728W        W46231  33.606   1.417   1.912
86729W        W46232  29.498  29.125  12.569
86730W        W46233  31.010   7.254  12.507
86731W        W46234  33.519  24.568  10.449
86732W        W46235  42.520   4.289  11.894
86733W        W46236  15.144  38.557   4.766
86734W        W46237  26.535  16.723  13.341
86735W        W46238  20.585  44.858   4.113
86736W        W46239  18.650  15.158   4.754
86737W        W46240  19.666  40.882  11.017
86738W        W46241  32.398  25.673  14.880
86739W        W46242  26.013   7.682   4.726
86740W        W46243   2.303  19.094  10.939
86741W        W46244   8.767   5.391   2.883
86742W        W46245   6.194  16.720   4.307
86743W        W46246  24.101  20.546  14.469
86744W        W46247  41.416  39.007   0.803
86745W        W46248  14.682   7.286   1.798
86746W        W46249  23.058  20.762  13.331
86747W        W46250  38.359  42.475   0.256
86748W        W46251  17.797  43.021   1.320
86749W        W46252  13.629  39.522   2.355
86750W        W46253  17.168  30.061  13.000
86751W        W46254  34.925   6.777   3.369
86752W        W46255  30.613  29.991  11.485
86753W        W46256  30.118   3.374   1.710
86754W        W46257  19.620   0.386  14.354
86755W        W46258   7.351  13.182   0.842
86756W        W46259   5.349  12.780   3.722
86757W        W46260  22.197  14.610  13.989
86758W        W46261   6.864  25.701   3.735
86759W        W46262   2.905  22.146   2.830
86760W        W46263   1.774  19.778   4.647
86761W        W46264   1.876  34.506  11.418
86762W        W46265  16.801  31.084   0.873
86763W        W46266  31.092  14.758  13.372
86764W        W46267  13.128  38.879  14.779
86765W        W46268  21.577  44.356   1.907
86766W        W46269  10.367  11.855   2.703
86767W        W46270  34.985   3.710  12.452
86768W        W46271  31.074  16.163  13.990
86769W        W46272  24.649  29.659  13.351
86770W        W46273  28.553  29.990   3.306
86771W        W46274  29.134  34.924  13.354
86772W        W46275  31.017  42.976  13.457
86773W        W46276  18.713   4.924  11.576
86774W        W46277  30.966  14.260   3.730
86775W        W46278   9.256   8.745   0.777
86776W        W46279  19.649  24.066   2.672
86777W        W46280  35.495  33.411  11.954
86778W        W46281   8.372  11.779  12.438
86779W        W46282  17.605   6.316   1.300
86780W        W46283  22.047  38.059   3.656
86781W        W46284  26.466  35.991   4.127
86782W        W46285  16.092  23.036  10.971
86783W        W46286  43.775  42.301   2.738
86784W        W46287  43.001   4.887  10.946
86785W        W46288  10.697  15.646   1.773
86786W        W46289  25.710  26.652  11.904
86787W        W46290  28.034  17.599  11.901
86788W        W46291   2.312  15.175   0.761
86789W        W46292  31.622  44.304  12.005
86790W        W46293  28.973  27.972  14.429
86791W        W46294  13.663  27.689   1.856
86792W        W46295   2.353  32.529   4.747
86793W        W46296   9.234  43.354  13.426
86794W        W46297  28.139  11.198   4.142
86795W        W46298  29.041  34.082  10.949
86796W        W46299  41.373   2.313   0.903
86797W        W46300  37.072  31.101  12.580
86798W        W46301  13.652  22.026  14.895
86799W        W46302  19.201  17.060  10.519
86800W        W46303  11.833   0.874   3.227
86801W        W46304  32.137   0.487  10.959
86802W        W46305   8.197   9.773  13.327
86803W        W46306  35.108  17.638  13.981
86804W        W46307  37.869  10.633   1.820
86805W        W46308  28.002  34.894   1.696
86806W        W46309  18.092  43.512  13.891
86807W        W46310  23.567  26.572   3.158
86808W        W46311  31.601  31.034   4.610
86809W        W46312  28.929  13.107  12.060
86810W        W46313  37.541  17.079   2.680
86811W        W46314  43.472  18.296   9.474
86812W        W46315  28.652  30.084  14.497
86813W        W46316   3.346  12.295  13.925
86814W        W46317  19.137  43.418   0.353
86815W        W46318  24.607  34.380   4.315
86816W        W46319   6.807  16.673   0.360
86817W        W46320  37.480  36.552   5.274
86818W        W46321   0.894  40.827  13.356
86819W        W46322  43.018  20.645  13.837
86820W        W46323   6.319  13.297   0.472
86821W        W46324  25.530  26.659  11.005
86822W        W46325  14.263   3.315   0.254
86823W        W46326  10.279  37.518   4.145
86824W        W46327  22.231  44.449  13.911
86825W        W46328  17.576  14.240   2.227
86826W        W46329  42.877   4.761   1.923
86827W        W46330  31.534  23.100  12.076
86828W        W46331  21.066  29.562  13.968
86829W        W46332  16.150  23.172  14.293
86830W        W46333   5.895  14.599   2.411
86831W        W46334   9.341  26.130  12.923
86832W        W46335  39.444  11.842  14.009
86833W        W46336  31.940   8.855   4.147
86834W        W46337  32.106  20.104   2.670
86835W        W46338  17.733  15.107   4.668
86836W        W46339  35.539  39.445  14.469
86837W        W46340   8.698  33.569   3.689
86838W        W46341  20.252   0.949   3.806
86839W        W46342  29.033  21.152  13.435
86840W        W46343  14.135  17.581   0.873
86841W        W46344  28.111   5.434   2.812
86842W        W46345  35.977  18.642   0.787
86843W        W46346  28.439  23.493   3.258
86844W        W46347  12.152   3.238   0.347
86845W        W46348  35.460  44.317  14.380
86846W        W46349   4.728  33.479   3.268
86847W        W46350  16.788   3.316   4.650
86848W        W46351  29.603  23.696   0.793
86849W        W46352   1.377  21.253  14.812
86850W        W46353  20.041   8.783  11.910
86851W        W46354  31.019  40.507  11.473
86852W        W46355  26.571  26.586  13.803
86853W        W46356  22.251  36.382   4.217
86854W        W46357  41.301  20.153   4.725
86855W        W46358  43.490  34.948  13.347
86856W        W46359   8.890  21.627  10.568
86857W        W46360   2.858  22.064   4.301
86858W        W46361   7.344  25.550   2.832
86859W        W46362  43.510  31.998   4.785
86860W        W46363   3.806   4.867  14.310
86861W        W46364  29.440  35.396  14.894
86862W        W46365  22.667  11.303   1.911
86863W        W46366  37.004   0.337  12.956
86864W        W46367   9.366  15.218  12.930
86865W        W46368   3.333  18.072   0.934
86866W        W46369   1.749   4.332   1.328
86867W        W46370   8.672   1.837   0.397
86868W        W46371  40.952   2.915   1.870
86869W        W46372  22.036   6.883  10.604
86870W        W46373   1.957  21.706  10.508
86871W        W46374   5.258   7.814   0.897
86872W        W46375  16.728   8.274  14.857
86873W        W46376  33.484  29.172  11.543
86874W        W46377   7.267  43.848   2.206
86875W        W46378  31.964   8.165  10.496
86876W        W46379  16.197   7.218   1.895
86877W        W46380  19.233  37.378  12.483
86878W        W46381  40.446   8.188   5.301
86879W        W46382  42.367  38.402  14.437
86880W        W46383  26.460  38.409   4.136
86881W        W46384  12.209  28.156   1.373
86882W        W46385  32.906  35.425  14.833
86883W        W46386  43.383  34.098   3.720
86884W        W46387  14.108  42.990  10.987
86885W        W46388  40.365  14.612   0.863
86886W        W46389  37.947  23.544   4.722
86887W        W46390  36.443  11.316  14.821
86888W        W46391  31.140  27.090  11.876
86889W        W46392  25.070  16.193  13.490
86890W        W46393   5.215  39.465   1.845
86891W        W46394   1.376  22.714  14.376
86892W        W46395  17.252  13.328  10.896
86893W        W46396  37.525  10.315  12.908
86894W        W46397  21.107   1.282   1.331
86895W        W46398   9.233   7.232   2.308
86896W        W46399   8.868  17.142   1.837
86897W        W46400  27.679   6.807  13.898
86898W        W46401  43.983  20.672   2.338
86899W        W46402  16.286  10.221  13.053
86900W        W46403  17.134  15.085  11.931
86901W        W46404  44.279  34.521  13.484
86902W        W46405  35.528  38.047   5.631
86903W        W46406  40.836  35.433   3.333
86904W        W46407  16.676   1.418   0.291
86905W        W46408  19.692   2.426   3.244
86906W        W46409  39.383  16.158   3.216
86907W        W46410  13.199  40.544  13.834
86908W        W46411  31.520  35.420   1.275
86909W        W46412  38.867  16.193   3.173
86910W        W46413   8.186  35.429  14.937
86911W        W46414  41.822  27.594   2.893
86912W        W46415  12.146  36.024  14.458
86913W        W46416  43.416  33.079  10.991
86914W        W46417   2.799  23.231   1.266
86915W        W46418   6.833  38.984  10.159
86916W        W46419  22.634  27.480  10.496
86917W        W46420  27.182  25.071   3.694
86918W        W46421  35.865  17.793   0.819
86919W        W46422   0.858  10.209   2.218
86920W        W46423   5.710  26.686  13.476
86921W        W46424  12.166  35.029  12.385
86922W        W46425  18.731   0.281  11.993
86923W        W46426  43.916  11.698  11.404
86924W        W46427  36.554  13.601  13.851
86925W        W46428   4.226  24.496   3.697
86926W        W46429   8.240  12.180  11.569
86927W        W46430  16.746  39.955  11.884
86928W        W46431  22.110  32.913  13.841
86929W        W46432   6.390  36.958   2.403
86930W        W46433  22.037  10.182  11.891
86931W        W46434  24.017  14.117   3.151
86932W        W46435  35.042  23.210   2.269
86933W        W46436  30.610   6.244   3.760
86934W        W46437  25.596  11.714  11.898
86935W        W46438   3.796  16.114   4.653
86936W        W46439   4.808  28.582   3.771
86937W        W46440  43.958  43.862  12.512
86938W        W46441  24.532  15.098   4.228
86939W        W46442  27.676   0.743   2.850
86940W        W46443  29.976  28.045   5.209
86941W        W46444  21.079  10.784   1.440
86942W        W46445   0.918  23.205   2.184
86943W        W46446  14.163  24.219  12.883
86944W        W46447  22.077   7.823   3.274
86945W        W46448  11.266   1.968  13.858
86946W        W46449  15.237   2.816   1.312
86947W        W46450  29.576  36.879   3.673
86948W        W46451   0.357  12.257   3.791
86949W        W46452  10.272  32.484  14.434
86950W        W46453   2.257  39.030   0.331
86951W        W46454  22.051  13.659   4.307
86952W        W46455  22.590  13.660  10.578
86953W        W46456  38.430  44.431  14.886
86954W        W46457   6.824   4.390  12.362
86955W        W46458  19.211   5.208   3.669
86956W        W46459  37.346  19.559   4.277
86957W        W46460  33.024   2.345  10.618
86958W        W46461  12.166  37.348   1.283
86959W        W46462  35.948   8.816  13.308
86960W        W46463  39.472  14.269   3.824
86961W        W46464   7.301  12.697   0.276
86962W        W46465  26.069  43.390   3.319
86963W        W46466  36.591  34.495   4.636
86964W        W46467  40.965  17.158   0.458
86965W        W46468  15.245   8.359  12.949
86966W        W46469   8.776   5.709  14.323
86967W        W46470  30.444  43.793   2.677
86968W        W46471  22.533  29.130   0.877
86969W        W46472  35.859  35.417   0.484
86970W        W46473  10.238  11.847   3.248
86971W        W46474   9.295  22.526  14.911
86972W        W46475  19.106  41.362  14.436
86973W        W46476  20.536  15.791  10.160
86974W        W46477  27.654   1.854  14.850
86975W        W46478   2.918  17.708  12.921
86976W        W46479  14.807  27.029  12.077
86977W        W46480  38.944  18.076  14.809
86978W        W46481  40.390  30.626  13.877
86979W        W46482   9.753  43.894   3.285
86980W        W46483   0.305   2.823   2.327
86981W        W46484  36.909  26.643   1.362
86982W        W46485  16.260  29.156  10.630
86983W        W46486  44.287  12.280  13.836
86984W        W46487  12.817  15.716  12.052
86985W        W46488  34.602  20.167  12.089
86986W        W46489  22.022  37.020   1.756
86987W        W46490  42.420  24.210   2.389
86988W        W46491   7.812  40.928   2.348
86989W        W46492  23.507  30.450   4.697
86990W        W46493  29.010   3.434  14.930
86991W        W46494  14.319  39.014  12.955
86992W        W46495  37.346  42.466   2.409
86993W        W46496   0.820  30.559  11.521
86994W        W46497  42.956  24.583   3.263
86995W        W46498  36.056   2.256  13.473
86996W        W46499  31.426   0.259   1.714
86997W        W46500  14.217  15.159  12.540
86998W        W46501  13.204  27.578  14.947
86999W        W46502  36.054  17.245   1.224
87000W        W46503  40.476  35.009   3.680
87001W        W46504   7.216  42.778   1.438
87002W        W46505  27.974   6.388  10.444
87003W        W46506  31.528  32.588   0.311
87004W        W46507   2.385  39.988  14.830
87005W        W46508  25.217  14.688   2.246
87006W        W46509  38.890  36.377   0.319
87007W        W46510  16.153  10.793   0.849
87008W        W46511  35.432  33.473  14.018
87009W        W46512   5.885  11.778   3.758
87010W        W46513  25.607  20.259   1.787
87011W        W46514   2.783  36.492   2.187
87012W        W46515  26.555   3.294  12.075
87013W        W46516  33.540  23.000  14.846
87014W        W46517   2.776  35.057  10.449
87015W        W46518  17.284  10.329   2.341
87016W        W46519  15.811  19.666  13.851
87017W        W46520  19.128  19.759   3.816
87018W        W46521  16.201  15.728  13.037
87019W        W46522  19.096  15.216   3.290
87020W        W46523  32.912  33.079   4.710
87021W        W46524  37.537  40.868   0.250
87022W        W46525   7.297   4.860   1.741
87023W        W46526   3.710  32.608   1.725
87024W        W46527  19.767   3.291  13.395
87025W        W46528   2.933  42.493  10.904
87026W        W46529  25.191   5.767   2.666
87027W        W46530  26.004  37.938  13.918
87028W        W46531   6.677  34.417   2.877
87029W        W46532  36.395  42.023  11.553
87030W        W46533  31.509  35.570   3.335
87031W        W46534  13.137  16.749   1.319
87032W        W46535  25.615  25.219  14.806
87033W        W46536  38.431  27.683  12.848
87034W        W46537  12.121  39.902  11.589
87035W        W46538  17.224  29.083   4.770
87036W        W46539  25.067  27.007   2.851
87037W        W46540  11.219  44.361   3.699
87038W        W46541  44.502  38.931   2.403
87039W        W46542  17.757   6.216  14.815
87040W        W46543  27.507  20.564  14.319
87041W        W46544  43.867  22.149  12.088
87042W        W46545  32.623  21.186  13.347
87043W        W46546   6.712  26.694  13.373
87044W        W46547   1.765  44.833   1.808
87045W        W46548  16.236  13.814   1.256
87046W        W46549  12.194  24.480  13.321
87047W        W46550  41.328  39.418  13.343
87048W        W46551  30.064   8.251  13.473
87049W        W46552  18.098  17.184  14.917
87050W        W46553  20.714  12.809   1.319
87051W        W46554  22.220  26.647   2.244
87052W        W46555  23.997  23.032  14.941
87053W        W46556  23.039  44.263   2.699
87054W        W46557  15.636  43.391   0.351
87055W        W46558  31.589  34.905   0.425
87056W        W46559   8.863  21.214   0.287
87057W        W46560  31.572  10.704   3.287
87058W        W46561   4.853  27.642   2.685
87059W        W46562  12.751  37.530   1.854
87060W        W46563   3.376  40.044   0.919
87061W        W46564  37.424  34.380  14.292
87062W        W46565  29.042  27.562  11.865
87063W        W46566   4.724  20.750   2.393
87064W        W46567  41.317   8.322  14.469
87065W        W46568  38.465  29.961  13.330
87066W        W46569  28.626   4.727  13.804
87067W        W46570  15.205   7.840   2.721
87068W        W46571  13.737  44.376  10.555
87069W        W46572  41.986  39.408   0.440
87070W        W46573  25.675  19.654   3.161
87071W        W46574  18.131   8.170   4.345
87072W        W46575  31.045  22.243   1.817
87073W        W46576  21.664  12.682  14.864
87074W        W46577  12.179  23.537  12.406
87075W        W46578  29.163  31.945   0.841
87076W        W46579  16.628  21.027  12.451
87077W        W46580  29.928  30.050  12.455
87078W        W46581  23.608   6.423  12.016
87079W        W46582   7.820  14.801   2.233
87080W        W46583  13.669  10.682  12.412
87081W        W46584  21.749  28.664  10.904
87082W        W46585  33.510  14.604   2.287
87083W        W46586  37.363  27.563  13.804
87084W        W46587  26.639   7.765  10.415
87085W        W46588   1.336  39.485   1.245
87086W        W46589   6.763  43.764   3.248
87087W        W46590  29.453  40.361  11.013
87088W        W46591  36.050  27.446   2.665
87089W        W46592  19.252  43.018  14.868
87090W        W46593   3.945  38.403  10.639
87091W        W46594  10.381  37.866   4.322
87092W        W46595  44.949  18.160  10.988
87093W        W46596  17.199   9.393  12.053
87094W        W46597  13.334  42.417   4.640
87095W        W46598  14.659   0.413  12.880
87096W        W46599  12.799   9.818  13.933
87097W        W46600  23.702   7.906   0.800
87098W        W46601  19.732  37.842   1.788
87099W        W46602   5.745  11.238   0.432
87100W        W46603  41.500   0.911   1.319
87101W        W46604   2.904  33.108  12.569
87102W        W46605  27.052  17.103   9.952
87103W        W46606  33.571  41.865  11.492
87104W        W46607   4.248   6.696  14.292
87105W        W46608   3.405   7.840  10.993
87106W        W46609  41.793  13.618   4.623
87107W        W46610  44.934  10.759  11.121
87108W        W46611  23.136  42.787   3.272
87109W        W46612  41.407  41.929  14.355
87110W        W46613   8.848  41.028  14.464
87111W        W46614  18.181   1.884  12.965
87112W        W46615   6.323  16.604  14.789
87113W        W46616  37.462  38.336  10.517
87114W        W46617  18.660  14.294  10.520
87115W        W46618  27.573  29.530  14.412
87116W        W46619  43.372  34.941  10.577
87117W        W46620  12.610  39.473   1.771
87118W        W46621  33.438  32.011  13.882
87119W        W46622  27.124  24.975   4.751
87120W        W46623  11.268  38.492   4.334
87121W        W46624  35.418  11.692  13.530
87122W        W46625  21.745  23.591  13.320
87123W        W46626  26.498   3.413  14.013
87124W        W46627  41.893  34.606   1.793
87125W        W46628  24.706   0.771   3.159
87126W        W46629  31.631   5.883   4.255
87127W        W46630  18.739  24.650  13.478
87128W        W46631  37.516  32.891  10.982
87129W        W46632  25.038  24.669  13.986
87130W        W46633  19.049  27.617   4.295
87131W        W46634  44.308  36.932   1.814
87132W        W46635  40.457  25.589  11.971
87133W        W46636  44.998  15.146  13.881
87134W        W46637   0.839   5.217   2.839
87135W        W46638   4.353  14.162   0.941
87136W        W46639   4.873  30.088  11.494
87137W        W46640  36.430   8.223  11.948
87138W        W46641   9.698   3.888  14.998
87139W        W46642  24.593  39.977   4.775
87140W        W46643  24.090  24.973  11.552
87141W        W46644   6.222  33.482   1.837
87142W        W46645  16.220  32.602   2.759
87143W        W46646  17.690   3.215   3.647
87144W        W46647  29.445  36.509   4.723
87145W        W46648  31.998  41.344   3.787
87146W        W46649  13.131  33.908  14.287
87147W        W46650   5.916  19.046  10.418
87148W        W46651  25.117  37.519   2.322
87149W        W46652  31.507  40.038   2.360
87150W        W46653  30.099  37.364  13.910
87151W        W46654  40.476  24.115  11.420
87152W        W46655   3.902  44.270   1.859
87153W        W46656  32.029  24.098   4.254
87154W        W46657  28.555  27.162   3.641
87155W        W46658  44.304  22.547  11.078
87156W        W46659  38.559   1.759  12.930
87157W        W46660   8.320  22.536  13.003
87158W        W46661  14.280  18.173  12.555
87159W        W46662   6.391  25.527   2.762
87160W        W46663  21.174  20.635   4.239
87161W        W46664  14.130   2.883  14.837
87162W        W46665  18.772  26.163  10.976
87163W        W46666  14.827  35.898   2.300
87164W        W46667   2.775  17.209   0.262
87165W        W46668   8.343  39.475   2.747
87166W        W46669  19.137  27.152  11.601
87167W        W46670   7.808  44.459   1.900
87168W        W46671   3.882  17.219   2.404
87169W        W46672  14.739  25.968   3.788
87170W        W46673  19.147  26.485  14.491
87171W        W46674  36.593  31.903  13.902
87172W        W46675  37.870  22.027   4.627
87173W        W46676   9.344  15.100   0.286
87174W        W46677  27.125  32.404  14.973
87175W        W46678  22.193  12.674   0.900
87176W        W46679  33.874  37.978   2.351
87177W        W46680   3.396  36.035  10.020
87178W        W46681  41.470  13.134  13.059
87179W        W46682  42.499  20.607   2.710
87180W        W46683  38.015  11.796   9.978
87181W        W46684  29.539  27.679   1.785
87182W        W46685  24.591  35.575  12.396
87183W        W46686  10.371   4.450  14.501
87184W        W46687   6.401  12.669  12.523
87185W        W46688  13.613  24.619  13.837
87186W        W46689  41.945  22.530  10.080
87187W        W46690  12.610   5.252   0.763
87188W        W46691  26.556  42.432   0.879
87189W        W46692  18.682  43.815  12.926
87190W        W46693  21.172  24.499  11.435
87191W        W46694  13.744   7.834  14.851
87192W        W46695  38.059  34.867  13.410
87193W        W46696  16.292  19.539   4.597
87194W        W46697  35.488   2.469  14.828
87195W        W46698  34.893  38.525  14.974
87196W        W46699  29.947  28.502   2.862
87197W        W46700  36.488  37.453  10.967
87198W        W46701  42.414  34.482   0.782
87199W        W46702  36.079  38.419  14.948
87200W        W46703  40.980  12.289  11.030
87201W        W46704  24.203   1.361   2.891
87202W        W46705  40.966  33.099   0.813
87203W        W46706  31.949  44.412  12.464
87204W        W46707  28.627  42.431  11.857
87205W        W46708  24.074  16.693  13.347
87206W        W46709  14.163  43.436  13.061
87207W        W46710  37.959  19.135   2.284
87208W        W46711  18.632  14.631  12.915
87209W        W46712  31.952   9.792  13.903
87210W        W46713  15.121  18.562   4.182
87211W        W46714  10.876  40.962  13.536
87212W        W46715  25.182  12.240   2.363
87213W        W46716  42.019  39.543  12.376
87214W        W46717   6.335   0.880  10.549
87215W        W46718  23.016   0.277  13.975
87216W        W46719  24.029  37.372  11.880
87217W        W46720  39.058  10.209  12.986
87218W        W46721  21.543  22.251  13.542
87219W        W46722  32.495  39.358   0.825
87220W        W46723  39.350   4.873  13.919
87221W        W46724  14.824  25.082  12.973
87222W        W46725   9.263  18.621   3.863
87223W        W46726   5.337  12.303  13.899
87224W        W46727  33.122  43.869  12.862
87225W        W46728  35.444   1.746   1.762
87226W        W46729  34.089  33.432  10.447
87227W        W46730  33.978   0.386   3.751
87228W        W46731  19.661  42.505   2.371
87229W        W46732  28.081  12.118   0.961
87230W        W46733   1.892  15.220   3.671
87231W        W46734  38.395  28.589   4.310
87232W        W46735  33.924   1.928   1.918
87233W        W46736   2.814  23.021  11.123
87234W        W46737  21.546  12.838  12.420
87235W        W46738  15.713  34.956   0.309
87236W        W46739  34.373  18.081  13.012
87237W        W46740   8.340  35.506  13.533
87238W        W46741  34.107  11.193  12.373
87239W        W46742  44.304  33.585  12.940
87240W        W46743   1.471  36.036   0.451
87241W        W46744  32.999  34.577   0.381
87242W        W46745  27.667   6.778   4.244
87243W        W46746  31.006  36.057   1.909
87244W        W46747  34.032  29.577   1.407
87245W        W46748   9.369  15.259   0.800
87246W        W46749  39.947   9.779  13.930
87247W        W46750  32.104  16.634  11.045
87248W        W46751  37.438  37.024  10.949
87249W        W46752  17.696  37.401   2.254
87250W        W46753  11.224  44.816   0.772
87251W        W46754  21.134  42.360   4.769
87252W        W46755  41.849  30.078  12.532
87253W        W46756  12.705  16.620   3.663
87254W        W46757  19.711   3.792   0.898
87255W        W46758   0.407  28.577  10.426
87256W        W46759  11.145  24.706  11.467
87257W        W46760   1.763   9.852  12.397
87258W        W46761  10.267   9.257  10.920
87259W        W46762  29.112   9.663  13.046
87260W        W46763   6.859   8.305  11.972
87261W        W46764  40.916  23.986  12.343
87262W        W46765  24.154  17.707  10.914
87263W        W46766   4.335  13.286   3.195
87264W        W46767  16.707   1.892  13.385
87265W        W46768  32.470   8.174  14.425
87266W        W46769  32.503   9.883  10.547
87267W        W46770  21.236   3.442   0.936
87268W        W46771   6.872  22.024   4.118
87269W        W46772  41.830  16.274   1.869
87270W        W46773   7.686  17.794   0.254
87271W        W46774  36.397   8.666   0.459
87272W        W46775  30.011  16.578  12.018
87273W        W46776  27.486  33.562   1.214
87274W        W46777  24.220  14.279   0.303
87275W        W46778  11.726   3.281   0.894
87276W        W46779  24.606   7.675   3.375
87277W        W46780  42.296  38.870   2.314
87278W        W46781  39.331   6.707   4.282
87279W        W46782  10.251  12.361   0.763
87280W        W46783  42.387  21.630   1.367
87281W        W46784  19.541   6.299   2.384
87282W        W46785  22.573  34.988   1.426
87283W        W46786  41.854  23.721   1.443
87284W        W46787  18.722  42.953   1.705
87285W        W46788  24.182  25.028  14.491
87286W        W46789  22.183  43.350  12.345
87287W        W46790   4.894   4.428  12.901
87288W        W46791  23.214  14.322  14.509
87289W        W46792   8.334  30.626   0.305
87290W        W46793  42.394  44.981   4.838
87291W        W46794   0.447  44.004  10.471
87292W        W46795   4.282  32.960  12.559
87293W        W46796  11.316  17.603   0.863
87294W        W46797  30.655  16.140  12.084
87295W        W46798  20.659  29.996  11.076
87296W        W46799  12.221  12.821   3.292
87297W        W46800  17.555  17.090   0.474
87298W        W46801  32.596  10.374  13.050
87299W        W46802  43.419  12.230   2.691
87300W        W46803   8.720   6.723   3.182
87301W        W46804  13.190  29.041   2.283
87302W        W46805   9.862   7.735  10.623
87303W        W46806  12.655  19.182   2.188
87304W        W46807   7.910  36.955  10.612
87305W        W46808  32.949   0.853   1.935
87306W        W46809  36.034  17.699   4.136
87307W        W46810  35.564  17.569  12.498
87308W        W46811  34.015  12.150  12.453
87309W        W46812  14.776  41.486  10.514
87310W        W46813   2.450  26.533   2.768
87311W        W46814  23.052  32.523   4.751
87312W        W46815  19.243  44.487   4.142
87313W        W46816  25.992  42.780   1.918
87314W        W46817  33.477  42.389   4.352
87315W        W46818   6.238  33.009   3.367
87316W        W46819   2.325  24.099   0.828
87317W        W46820  33.553  19.542  10.559
87318W        W46821   9.853  16.176  11.475
87319W        W46822   2.416  44.840   2.211
87320W        W46823   0.944  31.966  10.908
87321W        W46824   6.223  18.722  10.911
87322W        W46825  32.897  20.738  10.447
87323W        W46826  15.095   8.307  13.894
87324W        W46827  35.955  20.723  12.479
87325W        W46828  22.724   2.736   0.312
87326W        W46829   9.194   2.771  10.946
87327W        W46830  35.859  44.386   3.168
87328W        W46831  41.860  43.865  10.611
87329W        W46832  37.996  24.188  10.607
87330W        W46833  18.255  39.009   3.378
87331W        W46834  41.910  38.511   4.168
87332W        W46835  29.424  18.547  11.082
87333W        W46836  21.040  33.077   4.248
87334W        W46837  12.763  34.887  10.513
87335W        W46838  31.037  37.524   0.408
87336W        W46839  43.832  43.994   3.681
87337W        W46840  19.565  18.193  14.421
87338W        W46841  21.545  27.187   2.698
87339W        W46842  43.396   9.810  13.973
87340W        W46843  11.709  22.224   2.770
87341W        W46844  23.594   0.302  11.974
87342W        W46845  24.062  38.040  14.505
87343W        W46846  25.975  39.011   1.379
87344W        W46847  41.955  26.975  14.482
87345W        W46848   0.298  44.785   1.891
87346W        W46849  21.737  44.841   2.871
87347W        W46850  30.595  17.626   1.433
87348W        W46851  41.844  20.648  11.389
87349W        W46852  30.602  23.667   2.233
87350W        W46853  43.969  10.685  14.362
87351W        W46854  41.338  17.154  14.961
87352W        W46855  16.185   3.769  12.381
87353W        W46856  29.436   0.391   3.283
87354W        W46857  19.156  31.446   4.272
87355W        W46858  26.605  27.449   3.788
87356W        W46859  24.166   4.335  12.490
87357W        W46860  34.567  37.340   3.811
87358W        W46861  23.700  43.300  14.894
87359W        W46862  14.300  20.237   5.303
87360W        W46863   6.778   9.388  10.944
87361W        W46864  14.739  33.915   3.858
87362W        W46865   1.972  11.636   2.290
87363W        W46866  36.898   6.754  10.510
87364W        W46867  11.738  31.978   2.279
87365W        W46868   6.353  29.030   0.827
87366W        W46869   0.457  37.370   3.175
87367W        W46870  31.152  38.874   4.232
87368W        W46871  16.265  19.079   1.283
87369W        W46872  20.113   6.308  10.548
87370W        W46873  39.514  20.113  10.579
87371W        W46874   2.432  15.316  13.806
87372W        W46875  19.116  15.763  13.366
87373W        W46876  17.799   5.730  13.889
87374W        W46877  21.687  24.223   3.364
87375W        W46878  23.627  24.114  14.810
87376W        W46879  23.583  13.660   1.800
87377W        W46880  37.459  11.347   1.369
87378W        W46881  42.385  37.487  11.387
87379W        W46882  11.628   9.784  10.926
87380W        W46883  34.923  19.211   2.223
87381W        W46884   2.352  23.657   1.720
87382W        W46885   4.289  34.552  14.396
87383W        W46886  39.350  24.079  11.060
87384W        W46887  16.293  30.127   3.775
87385W        W46888   1.376  29.477  10.944
87386W        W46889  18.166  11.163  13.420
87387W        W46890  16.589  38.547   3.241
87388W        W46891  27.555   3.371   4.701
87389W        W46892   4.766  11.856   0.731
87390W        W46893  15.811  13.314   2.381
87391W        W46894  10.769  18.628  10.644
87392W        W46895   6.746  34.451  11.057
87393W        W46896   9.881   4.842  13.337
87394W        W46897  35.005  34.971   0.348
87395W        W46898  41.924   3.220   0.885
87396W        W46899  20.096  38.533  12.952
87397W        W46900  36.049  16.097   3.643
87398W        W46901  40.045  10.737  14.794
87399W        W46902  23.225  24.497  11.071
87400W        W46903  32.626  16.296   4.202
87401W        W46904  23.058   7.861  13.923
87402W        W46905  20.601  36.406   1.709
87403W        W46906   2.458  23.020   2.771
87404W        W46907  20.125  12.729   3.236
87405W        W46908   9.378  23.528   0.438
87406W        W46909  32.441  44.372   0.244
87407W        W46910   0.248   0.963   2.791
87408W        W46911   5.256  27.551  10.947
87409W        W46912  25.014  42.376   2.695
87410W        W46913  14.119   9.669  10.508
87411W        W46914  22.169  25.180  11.916
87412W        W46915   6.354  28.934   4.714
87413W        W46916   9.830   1.867   2.683
87414W        W46917  16.123   2.436   4.250
87415W        W46918  32.898  29.493  11.963
87416W        W46919  15.619  27.979   3.785
87417W        W46920  14.218  30.472   0.809
87418W        W46921   0.279  42.372  11.878
87419W        W46922  39.949  42.471  13.013
87420W        W46923   8.665  40.464   3.162
87421W        W46924  21.628   0.921   0.840
87422W        W46925  35.062  11.674   2.355
87423W        W46926  16.223   8.254   2.180
87424W        W46927  12.675  21.125   5.091
87425W        W46928   2.231   3.249   4.216
87426W        W46929  16.711   2.787   2.773
87427W        W46930  33.566  23.020   1.439
87428W        W46931  17.696  36.535  10.899
87429W        W46932  11.350  16.231   1.361
87430W        W46933  32.524  18.780  10.491
87431W        W46934  16.152  20.079  11.929
87432W        W46935  31.969  38.979  12.505
87433W        W46936  35.383  27.542   0.756
87434W        W46937  24.709  28.983   1.855
87435W        W46938   2.919  31.462   3.840
87436W        W46939  40.046  19.242   2.818
87437W        W46940  13.151  43.009   2.419
87438W        W46941  29.583  35.906  12.930
87439W        W46942  38.525  15.750  10.979
87440W        W46943   9.241  35.868  10.930
87441W        W46944   5.320   0.443   4.284
87442W        W46945  41.397  31.044   3.787
87443W        W46946  21.714  42.321   4.740
87444W        W46947  40.414  12.221   0.895
87445W        W46948  43.307  15.282   3.223
87446W        W46949  41.354  13.624   3.633
87447W        W46950  17.705  31.930  13.350
87448W        W46951  22.177  40.478   1.345
87449W        W46952  32.559  17.237  10.000
87450W        W46953  44.372  27.676   0.821
87451W        W46954  24.544  10.875  10.613
87452W        W46955  37.010  21.602  11.539
87453W        W46956  31.061  44.787  13.949
87454W        W46957  11.171  16.292   5.696
87455W        W46958   2.906  20.691  10.622
87456W        W46959  16.781  10.819   0.264
87457W        W46960  12.649  29.960  11.922
87458W        W46961  27.092   6.687  12.881
87459W        W46962   4.446  16.305  14.479
87460W        W46963  20.616   7.403  13.347
87461W        W46964  42.407  25.507  14.468
87462W        W46965  13.726  18.293  12.832
87463W        W46966  43.825  40.914  14.844
87464W        W46967  41.032  18.205   2.818
87465W        W46968   8.397   9.817  11.961
87466W        W46969  44.774  38.823   3.266
87467W        W46970  17.125  18.163  13.841
87468W        W46971  29.143  10.242  12.913
87469W        W46972  26.536  37.358   3.846
87470W        W46973  38.946  11.865  11.542
87471W        W46974  11.166  21.575  13.003
87472W        W46975  42.999  26.995  11.053
87473W        W46976  19.142  22.630  12.519
87474W        W46977  20.766  18.088   3.632
87475W        W46978  33.898  14.746   0.910
87476W        W46979  10.244  12.617   2.683
87477W        W46980  24.080   6.808   2.867
87478W        W46981   0.337  26.052   4.680
87479W        W46982  36.051  19.223  11.417
87480W        W46983  25.514  34.524  12.011
87481W        W46984   9.683  19.167  14.975
87482W        W46985  23.098  27.120   1.831
87483W        W46986  19.699  12.708   1.922
87484W        W46987  26.167  26.549   0.478
87485W        W46988  10.676  42.801  12.382
87486W        W46989  33.901  25.580  11.463
87487W        W46990  23.206   5.331   1.247
87488W        W46991   7.291  23.096  10.478
87489W        W46992  12.792  36.009  13.806
87490W        W46993   8.405  24.486   0.819
87491W        W46994  16.783  42.985   2.225
87492W        W46995   1.338  21.209   0.819
87493W        W46996  39.415  30.479   1.919
87494W        W46997  35.542  18.558   0.315
87495W        W46998  40.325  30.083   4.265
87496W        W46999  44.793  25.653  12.557
87497W        W47000  34.900  10.160  12.523
87498W        W47001  35.974   9.283   0.859
87499W        W47002  10.203  41.026  10.583
87500W        W47003   4.714  34.606  10.102
87501W        W47004  12.182  13.675   3.775
87502W        W47005   4.284  42.464   0.757
87503W        W47006   6.301  17.083   3.319
87504W        W47007  39.428  38.002   3.675
87505W        W47008  44.766  10.226  13.925
87506W        W47009  35.407  12.727  10.553
87507W        W47010  18.741  14.689   2.874
87508W        W47011  37.861  10.781   1.424
87509W        W47012  15.212   5.373  13.432
87510W        W47013  37.003  40.522  14.990
87511W        W47014   6.362  15.626   3.188
87512W        W47015  26.181   5.781  12.033
87513W        W47016  11.152  21.024   0.443
87514W        W47017   5.428  12.313   2.418
87515W        W47018   3.894  32.484  11.022
87516W        W47019  14.134  26.109  10.611
87517W        W47020   5.297  21.231   2.674
87518W        W47021  32.601   4.297  11.935
87519W        W47022  19.114  43.458   1.882
87520W        W47023  30.003   2.299   1.433
87521W        W47024  25.658  24.656   3.653
87522W        W47025   5.751  35.922  12.368
87523W        W47026   3.848  40.846  11.077
87524W        W47027  37.896  27.601  13.538
87525W        W47028   0.805   4.826  10.967
87526W        W47029  15.669  42.436   3.317
87527W        W47030  16.303  12.857  13.927
87528W        W47031  33.951  12.360   4.146
87529W        W47032  12.275   2.242   4.322
87530W        W47033   2.744  26.146   2.291
87531W        W47034  27.649  18.189   1.437
87532W        W47035  16.130   2.949   3.296
87533W        W47036  37.830  30.466  12.348
87534W        W47037  35.382  19.281   2.378
87535W        W47038  21.640  26.670   0.882
87536W        W47039  39.891   4.922   2.892
87537W        W47040  10.255  23.614  12.845
87538W        W47041   1.849  39.012   4.763
87539W        W47042   2.780  19.263  10.025
87540W        W47043  26.661  13.329  13.949
87541W        W47044  29.005  31.106   0.250
87542W        W47045  12.343  28.447   3.298
87543W        W47046   2.442  19.056   4.681
87544W        W47047  40.803  20.186   0.768
87545W        W47048  16.272  19.696   1.278
87546W        W47049  22.672   3.423   2.699
87547W        W47050  13.132  27.664   0.765
87548W        W47051   4.790   5.404   4.328
87549W        W47052  39.356  44.998  12.339
87550W        W47053  16.194   5.826  11.570
87551W        W47054  10.684  42.999  10.410
87552W        W47055  21.195   1.278   5.121
87553W        W47056  17.195  38.449   1.932
87554W        W47057  17.691  16.728  12.043
87555W        W47058  18.666  28.122   3.291
87556W        W47059  42.298   3.221  12.057
87557W        W47060  29.098  33.951  13.959
87558W        W47061   1.857  21.084   0.860
87559W        W47062  25.098   3.905   2.370
87560W        W47063  11.834  30.443   0.747
87561W        W47064  36.080  41.857  12.061
87562W        W47065  37.047   7.699   3.226
87563W        W47066  22.602  15.690   0.454
87564W        W47067   2.777  22.510   4.202
87565W        W47068  35.521   6.232   2.894
87566W        W47069  19.066  20.529  13.520
87567W        W47070   2.916  24.167  13.407
87568W        W47071  39.451  38.922   1.803
87569W        W47072  39.335  21.580  14.359
87570W        W47073  41.793  33.540   2.198
87571W        W47074  40.943   1.805  10.534
87572W        W47075  32.045  37.929   2.667
87573W        W47076   3.746  41.396  13.960
87574W        W47077  23.190   4.939   3.651
87575W        W47078  30.438   6.843  12.898
87576W        W47079  19.771  11.694   5.122
87577W        W47080  39.380  36.051   3.809
87578W        W47081  34.890  22.079   1.873
87579W        W47082  19.653   0.987   2.747
87580W        W47083   8.370  16.307  14.894
87581W        W47084  30.092  22.187  14.924
87582W        W47085  11.169  30.492   5.570
87583W        W47086  38.571  21.574  11.459
87584W        W47087   5.213  39.915  14.909
87585W        W47088  30.959  12.769   1.751
87586W        W47089   1.871  31.964  13.942
87587W        W47090   9.259  32.908   1.764
87588W        W47091   3.231  13.613  10.982
87589W        W47092  20.751  30.958  12.448
87590W        W47093   0.267   6.366   0.900
87591W        W47094   6.838  38.826   3.367
87592W        W47095  33.037  39.474   4.267
87593W        W47096   5.894  32.042  13.429
87594W        W47097  19.229  30.086  14.457
87595W        W47098  33.999  40.516   3.267
87596W        W47099  15.285  44.355   4.828
87597W        W47100   6.298   2.891   4.301
87598W        W47101  36.841  36.374  11.456
87599W        W47102  37.348   6.805   5.289
87600W        W47103  35.911  13.620  11.039
87601W        W47104  18.062  16.765  11.464
87602W        W47105  19.107  31.019   2.412
87603W        W47106  27.580  39.412   2.400
87604W        W47107   5.369  34.530  13.437
87605W        W47108   3.438  18.733   1.906
87606W        W47109   6.751   2.764   4.321
87607W        W47110  22.606  11.220  10.526
87608W        W47111  39.422  15.149   4.673
87609W        W47112  13.737  23.164   0.742
87610W        W47113  19.625  17.068  10.542
87611W        W47114   6.912   4.824   0.317
87612W        W47115  38.981  10.177   3.255
87613W        W47116  31.896  19.170  14.939
87614W        W47117  26.137  39.939  10.442
87615W        W47118  44.890  18.764   3.807
87616W        W47119  15.279   4.377  10.932
87617W        W47120  29.624  23.657  12.422
87618W        W47121  22.546  24.147   5.164
87619W        W47122  26.702   9.330   3.707
87620W        W47123  36.086  12.734  12.489
87621W        W47124   4.943  42.417   1.339
87622W        W47125  32.024  41.873   0.364
87623W        W47126   3.300  23.655   0.454
87624W        W47127  41.377  22.161   0.264
87625W        W47128  34.601   4.264  13.918
87626W        W47129  33.071  17.739   0.759
87627W        W47130  29.617  39.447  13.396
87628W        W47131  11.830  40.513   5.200
87629W        W47132   6.810  14.145  10.629
87630W        W47133  37.435  35.419   1.768
87631W        W47134  21.159  28.150   4.692
87632W        W47135  35.546  11.261   2.250
87633W        W47136  16.605  15.817  11.902
87634W        W47137  20.205  10.357   3.770
87635W        W47138  28.511  17.721   0.306
87636W        W47139  33.567  14.789   1.451
87637W        W47140   1.340   4.410   3.683
87638W        W47141  40.010  20.716  13.950
87639W        W47142  36.982  31.138  11.519
87640W        W47143  36.865   7.857   3.704
87641W        W47144  24.187  13.204   1.793
87642W        W47145   0.954  17.298  13.946
87643W        W47146  13.237  25.594   3.170
87644W        W47147  17.649  44.387  14.492
87645W        W47148  32.450  10.804  13.459
87646W        W47149  18.650  31.623  14.993
87647W        W47150  42.509  36.915  14.901
87648W        W47151   5.265  42.923  14.303
87649W        W47152  31.999  24.608   2.186
87650W        W47153  40.504  25.974  13.842
87651W        W47154  18.172  21.110   4.691
87652W        W47155  34.423  22.589   2.339
87653W        W47156   6.236  42.950   2.245
87654W        W47157  34.499  20.553   3.816
87655W        W47158   9.155  16.623   0.793
87656W        W47159  39.003   2.730  10.913
87657W        W47160  39.911  38.054   4.669
87658W        W47161  18.144   9.157  13.488
87659W        W47162  13.254  11.804  14.829
87660W        W47163  29.651  26.958   2.355
87661W        W47164  20.579  17.733   2.386
87662W        W47165  17.593  27.045   0.385
87663W        W47166  29.165  36.534   3.261
87664W        W47167   5.392  25.110   9.957
87665W        W47168   2.327  13.772  11.374
87666W        W47169  42.921  35.421   4.181
87667W        W47170   2.235  39.474   2.892
87668W        W47171   2.309  11.787   3.367
87669W        W47172   1.371  38.508   4.336
87670W        W47173   3.778  35.487  11.428
87671W        W47174  30.048  37.927  10.524
87672W        W47175  27.090  20.239   3.306
87673W        W47176  44.962  40.987  11.856
87674W        W47177   4.833  37.570  13.493
87675W        W47178   4.248  11.709   3.331
87676W        W47179  36.403  27.457  11.059
87677W        W47180  39.008  22.065   4.786
87678W        W47181  31.540  18.145  14.014
87679W        W47182   4.227   6.223  10.929
87680W        W47183  10.220  27.512  10.965
87681W        W47184   8.168  33.386   4.814
87682W        W47185  21.567  27.478   3.726
87683W        W47186  42.441  35.065   4.731
87684W        W47187  24.028  26.968  14.288
87685W        W47188  30.599  36.565   2.809
87686W        W47189  18.760  35.548  14.382
87687W        W47190   0.274  27.076  14.938
87688W        W47191  34.479  11.696   4.304
87689W        W47192  36.873  12.788  14.016
87690W        W47193  20.195   7.204  12.033
87691W        W47194  36.930  22.573  12.024
87692W        W47195  37.992  12.847   3.200
87693W        W47196  24.191  44.340   5.207
87694W        W47197   3.400  36.432  14.498
87695W        W47198  39.425  32.001  13.345
87696W        W47199  17.065   0.824  13.343
87697W        W47200   8.269  13.262   1.874
87698W        W47201  41.302   5.261   9.462
87699W        W47202  30.608  31.096   1.755
87700W        W47203  44.800  31.459  12.424
87701W        W47204  16.160   0.326   4.810
87702W        W47205  19.174  32.391   0.953
87703W        W47206  44.958  26.519   0.744
87704W        W47207  20.718  31.150   3.770
87705W        W47208  21.249   3.233  12.925
87706W        W47209   8.805  23.539  11.887
87707W        W47210  23.059  24.482  13.422
87708W        W47211  36.496   0.284   1.883
87709W        W47212  27.479   4.903   2.179
87710W        W47213  34.515  42.395   2.294
87711W        W47214  25.092  19.098  12.072
87712W        W47215  41.946  39.489  13.861
87713W        W47216   4.234  14.724   2.751
87714W        W47217  35.983  44.860  11.376
87715W        W47218   3.305   3.437   3.320
87716W        W47219  24.151  32.932   3.869
87717W        W47220  20.570  15.089  13.959
87718W        W47221  31.958  12.263   2.810
87719W        W47222  27.101  11.192   2.355
87720W        W47223   8.214   5.257  10.920
87721W        W47224   7.372  33.574   0.857
87722W        W47225   5.732   2.960  12.537
87723W        W47226  15.123   2.880   2.738
87724W        W47227  36.068   7.205  13.485
87725W        W47228  28.127  18.056   0.481
87726W        W47229  42.320  23.186  10.115
87727W        W47230  19.183  23.060  12.908
87728W        W47231  26.597  26.202  10.536
87729W        W47232  35.930  41.814   2.380
87730W        W47233  31.104  19.150  12.006
87731W        W47234  33.100   7.290  13.961
87732W        W47235  25.046  18.233   2.783
87733W        W47236  34.988  38.899  10.998
87734W        W47237  15.095   1.338   1.743
87735W        W47238  44.352  25.033  14.895
87736W        W47239  29.055  28.662   0.311
87737W        W47240   0.437  30.533  13.531
87738W        W47241  22.586  16.707   0.818
87739W        W47242  38.898  36.922  11.403
87740W        W47243   0.376  16.243  11.091
87741W        W47244   0.908  14.619  14.876
87742W        W47245  11.249  19.534   2.783
87743W        W47246   3.789  11.349  11.061
87744W        W47247   5.694  17.067   4.322
87745W        W47248  18.773  34.894   5.183
87746W        W47249   9.669  43.485   2.745
87747W        W47250  29.143   8.773   2.882
87748W        W47251  28.647   6.273   1.878
87749W        W47252   6.833  24.661  13.909
87750W        W47253  43.008   3.229  10.995
87751W        W47254  20.141  26.601  13.327
87752W        W47255   1.276  44.374  13.982
87753W        W47256  39.988  12.196   0.404
87754W        W47257  34.393  36.871  10.447
87755W        W47258  44.973  10.808  11.906
87756W        W47259  25.593  44.421  12.084
87757W        W47260  33.924  29.069   4.804
87758W        W47261   9.803  19.272  11.096
87759W        W47262   4.790  19.118   1.223
87760W        W47263   1.939  22.144  14.804
87761W        W47264  33.053  38.989   4.627
87762W        W47265   0.853  30.083   0.876
87763W        W47266  35.010  40.019  14.890
87764W        W47267  36.919  18.585   3.865
87765W        W47268  29.043   6.774  11.379
87766W        W47269   6.421  43.282  14.983
87767W        W47270  26.197   0.487   3.372
87768W        W47271  18.566  10.309   0.828
87769W        W47272  33.970  19.047  12.916
87770W        W47273  32.440  27.987  11.889
87771W        W47274  42.009  41.035   2.325
87772W        W47275   3.808   9.292  11.896
87773W        W47276  12.842  19.158   0.883
87774W        W47277  24.998  28.590   2.382
87775W        W47278  23.081  43.851  10.578
87776W        W47279  25.607  11.310   2.225
87777W        W47280  10.661  10.860  11.468
87778W        W47281  28.663   1.339  12.929
87779W        W47282  11.265  23.064   2.703
87780W        W47283  26.198  29.931   1.364
87781W        W47284   4.730  26.531  12.848
87782W        W47285  13.756  18.737  13.876
87783W        W47286  24.057   8.757   4.299
87784W        W47287  14.103  28.651   1.887
87785W        W47288  22.701  23.577  13.321
87786W        W47289  37.337   2.902   4.755
87787W        W47290  13.794  37.029  12.870
87788W        W47291  27.591  18.645  10.991
87789W        W47292  29.508   0.777   3.372
87790W        W47293  32.012  41.310  11.422
87791W        W47294  36.013  28.079  14.397
87792W        W47295   7.222   3.940  11.391
87793W        W47296  17.290  26.669   4.735
87794W        W47297  32.568  24.530   0.816
87795W        W47298  33.897  23.543   4.159
87796W        W47299  41.008  10.802  10.990
87797W        W47300  44.887   8.176   1.771
87798W        W47301  11.689  12.846   0.762
87799W        W47302  28.486  39.340  12.972
87800W        W47303  44.814  33.973   1.234
87801W        W47304  15.622  35.580  11.404
87802W        W47305  25.681  11.352  14.995
87803W        W47306  30.056  31.099  14.802
87804W        W47307   8.375  10.847  11.567
87805W        W47308   4.797  36.591  12.469
87806W        W47309  32.922  23.124   0.915
87807W        W47310  39.330  35.382  12.577
87808W        W47311  26.524   9.192   4.732
87809W        W47312  39.346  19.264  12.026
87810W        W47313  35.061  24.712  11.013
87811W        W47314  10.164  25.665  13.018
87812W        W47315  10.701  28.483  13.366
87813W        W47316  17.661   3.243  14.348
87814W        W47317  28.080  40.538  14.031
87815W        W47318   7.208  36.966  14.431
87816W        W47319  22.033  14.129  12.068
87817W        W47320  29.534  23.540   4.145
87818W        W47321  17.230  17.261   4.221
87819W        W47322  10.692   6.907   1.929
87820W        W47323  18.672  34.010   2.405
87821W        W47324   6.337  26.545   3.194
87822W        W47325  30.132  18.288   4.820
87823W        W47326  39.976   3.736  12.994
87824W        W47327   6.359  27.502  12.472
87825W        W47328   0.907   2.861   2.698
87826W        W47329  13.638   9.779  11.603
87827W        W47330  14.781  17.160   2.870
87828W        W47331  12.691  16.628  10.560
87829W        W47332   4.395  17.103  14.284
87830W        W47333   7.217  11.650   0.953
87831W        W47334  34.550  40.964  10.461
87832W        W47335   0.751  32.069   3.357
87833W        W47336  10.778  22.161   4.791
87834W        W47337  19.745  22.630  12.856
87835W        W47338  14.250  42.284   4.168
87836W        W47339  31.425  31.616   2.753
87837W        W47340  12.265   5.751   3.788
87838W        W47341   1.843  23.497  13.014
87839W        W47342  23.540  29.546   2.262
87840W        W47343   6.272  22.651   0.265
87841W        W47344  26.951  24.064   0.357
87842W        W47345   4.794  29.539   3.858
87843W        W47346  34.599  16.259   3.232
87844W        W47347  14.711  23.035  14.898
87845W        W47348   0.252   6.828  11.081
87846W        W47349  15.108  37.020  12.056
87847W        W47350   2.420   7.219   3.338
87848W        W47351   0.435  40.433   3.650
87849W        W47352  42.483  24.048   4.182
87850W        W47353   8.784  21.544  14.899
87851W        W47354  38.356   2.899   0.443
87852W        W47355  18.291  28.091  13.515
87853W        W47356  31.428  39.340   9.620
87854W        W47357  10.831  33.399   4.219
87855W        W47358  13.751   1.904   1.238
87856W        W47359   3.744  35.976  10.406
87857W        W47360  40.516  18.265   2.314
87858W        W47361  11.360  28.954   5.166
87859W        W47362  12.262   8.197  11.996
87860W        W47363   9.252  10.198  12.566
87861W        W47364  43.791   2.853   1.400
87862W        W47365   7.800  37.027  14.399
87863W        W47366  12.797  25.613   3.322
87864W        W47367   3.806   0.435   1.432
87865W        W47368   2.321   0.931   3.823
87866W        W47369  27.047  20.171  14.920
87867W        W47370   3.264  38.953  13.891
87868W        W47371  40.422  40.936  11.987
87869W        W47372  13.798   2.844  10.589
87870W        W47373  19.085  24.098   1.290
87871W        W47374  31.122  23.020   2.350
87872W        W47375  41.893  43.779  12.905
87873W        W47376  10.270   7.256  12.498
87874W        W47377  18.193  29.092   2.182
87875W        W47378  44.269  16.185  11.563
87876W        W47379  11.626  11.822  12.983
87877W        W47380  36.932  37.374   3.869
87878W        W47381   3.316   8.392   1.904
87879W        W47382  12.812  27.541  11.924
87880W        W47383  11.137  25.999   4.330
87881W        W47384  12.224  31.048  14.869
87882W        W47385  37.392  44.322  13.941
87883W        W47386  21.095  36.059   0.875
87884W        W47387   1.266  20.177   0.252
87885W        W47388  21.229  29.506   0.288
87886W        W47389  35.045  19.588  12.352
87887W        W47390  23.003  18.574   2.788
87888W        W47391  31.514   3.910  13.843
87889W        W47392  24.107  10.849   4.826
87890W        W47393  38.056   7.399   0.811
87891W        W47394  13.204  41.513   0.361
87892W        W47395  32.615  30.070  14.483
87893W        W47396  38.510  42.018   4.115
87894W        W47397  11.258   4.222   4.164
87895W        W47398  26.522  18.201   3.322
87896W        W47399   0.428  34.589   0.379
87897W        W47400  32.506  44.310  10.417
87898W        W47401   8.205  24.555  13.812
87899W        W47402  37.002  19.773  13.401
87900W        W47403  21.044  38.966  11.421
87901W        W47404  40.448  44.327   3.755
87902W        W47405  21.140  18.779   4.757
87903W        W47406  28.108  44.824   4.228
87904W        W47407  12.817  18.688   0.733
87905W        W47408  22.113  39.870   3.655
87906W        W47409  39.423  31.509   2.230
87907W        W47410   2.230  34.443  13.523
87908W        W47411   8.728   1.364  13.826
87909W        W47412  40.951  44.954  11.061
87910W        W47413   6.341   1.816  14.771
87911W        W47414  34.085  17.146  14.325
87912W        W47415  43.368  22.699   2.294
87913W        W47416  44.334   7.299   0.438
87914W        W47417   5.933  24.127  11.487
87915W        W47418  16.576  35.922  10.527
87916W        W47419  29.453  20.226   3.317
87917W        W47420  33.434   8.835  12.001
87918W        W47421  33.115  28.659  12.930
87919W        W47422  29.506  18.636  14.298
87920W        W47423  44.490  37.892  12.035
87921W        W47424  12.682  23.653  14.791
87922W        W47425   8.350  24.075   3.145
87923W        W47426  19.597  26.081   3.693
87924W        W47427  26.204  19.573   0.759
87925W        W47428  22.634  19.129  13.438
87926W        W47429  25.673  22.033   1.222
87927W        W47430   6.297  37.558  12.351
87928W        W47431  17.799  18.058   4.297
87929W        W47432  34.050  15.298   2.690
87930W        W47433   3.285   6.825  11.380
87931W        W47434  39.053  40.518  13.988
87932W        W47435   6.399  27.167  13.860
87933W        W47436  19.191  36.946  10.630
87934W        W47437  28.541   7.712   0.833
87935W        W47438  13.656  32.552  12.877
87936W        W47439   6.262  13.729  11.994
87937W        W47440  41.465  22.542   0.795
87938W        W47441   2.241  30.975  14.402
87939W        W47442  12.213  19.546  11.415
87940W        W47443  33.380   5.218   4.343
87941W        W47444   7.897  21.638   4.342
87942W        W47445   8.305  40.829  11.430
87943W        W47446   0.812  31.075   3.718
87944W        W47447  33.895  30.997  14.024
87945W        W47448  24.171  13.611   4.308
87946W        W47449  17.255  13.295   9.949
87947W        W47450  14.739   4.316  12.097
87948W        W47451  37.901  19.578  10.948
87949W        W47452  20.528   5.289  11.481
87950W        W47453  26.502   4.925  12.890
87951W        W47454   4.276  26.079   4.274
87952W        W47455   8.290   4.921  13.853
87953W        W47456   5.856  14.167  13.529
87954W        W47457  43.016  38.047   3.725
87955W        W47458  28.124  41.400  10.641
87956W        W47459   0.411  11.665  13.405
87957W        W47460  39.985  27.082  13.817
87958W        W47461  14.634   9.267   4.686
87959W        W47462  40.511   0.938  14.767
87960W        W47463  41.012  37.072   1.307
87961W        W47464  41.901  31.447  11.465
87962W        W47465   8.183  11.206  13.382
87963W        W47466   1.431  27.001  14.413
87964W        W47467  16.662  20.165  10.947
87965W        W47468  26.596  23.639  13.451
87966W        W47469  34.983  40.998  14.767
87967W        W47470  13.839   5.746   4.706
87968W        W47471  15.594  37.497   4.769
87969W        W47472  27.958  26.661   3.182
87970W        W47473  38.457  40.842   1.251
87971W        W47474   6.210  39.379  12.539
87972W        W47475  40.917  14.789   4.165
87973W        W47476  34.090   1.964  11.559
87974W        W47477   4.879  33.585   0.455
87975W        W47478  34.416  25.519  14.938
87976W        W47479  43.400   8.711  14.923
87977W        W47480  30.086  39.349  11.958
87978W        W47481  42.838  33.952  14.375
87979W        W47482  44.785   5.718   1.416
87980W        W47483  12.808  13.274   0.808
87981W        W47484  24.108   3.217   0.951
87982W        W47485  39.975  17.219   0.302
87983W        W47486   6.880  40.408   2.797
87984W        W47487  17.677  40.330   4.675
87985W        W47488  36.941   5.760  13.955
87986W        W47489  38.872   8.234   4.620
87987W        W47490  41.462  13.777   2.414
87988W        W47491   5.869  33.397   1.822
87989W        W47492  43.851  20.609   9.968
87990W        W47493  12.329  33.070  13.358
87991W        W47494  34.072  31.450  12.573
87992W        W47495  44.458  40.396  12.012
87993W        W47496  29.999  13.167   1.435
87994W        W47497  37.888  37.989   4.811
87995W        W47498  40.319  24.072  14.964
87996W        W47499   8.406  33.927  13.996
87997W        W47500  41.893  41.807  12.058
87998W        W47501   0.905  13.714  10.480
87999W        W47502  13.755  23.209   1.742
88000W        W47503   6.410  36.375   0.424
88001W        W47504  22.107   5.929  14.984
88002W        W47505  15.622   3.854  13.365
88003W        W47506  29.464  31.489  13.005
88004W        W47507  20.709   2.428  10.565
88005W        W47508   5.213  29.077   2.753
88006W        W47509  28.154  31.152   3.717
88007W        W47510  33.111  17.258  14.964
88008W        W47511  41.022  16.618   4.623
88009W        W47512   6.333  11.233  11.554
88010W        W47513  33.986  25.199  14.766
88011W        W47514   6.301  34.116  13.024
88012W        W47515  15.813  26.004   1.394
88013W        W47516   6.712  37.400  10.503
88014W        W47517   2.746  14.245   1.714
88015W        W47518  35.420  19.113  13.913
88016W        W47519  22.023   7.389   1.926
88017W        W47520  32.513  27.992   0.251
88018W        W47521  11.196  41.527   1.382
88019W        W47522  24.707   8.665   2.294
88020W        W47523  37.426   1.370   4.274
88021W        W47524  44.362   1.884   2.298
88022W        W47525  10.147  17.117   4.274
88023W        W47526  16.613  13.294   3.658
88024W        W47527  13.711  21.526   3.220
88025W        W47528   3.254  44.285  13.946
88026W        W47529  28.996   6.411   0.737
88027W        W47530  16.117  32.569   9.585
88028W        W47531  21.074  20.216   3.789
88029W        W47532  43.852  18.608   1.714
88030W        W47533   5.858  28.129  13.967
88031W        W47534  17.771  39.809  11.942
88032W        W47535   8.351  39.885  13.831
88033W        W47536  13.203  19.157   1.749
88034W        W47537  15.233  37.576  13.415
88035W        W47538  41.326   4.435  12.551
88036W        W47539  34.979  23.151  11.608
88037W        W47540  43.494   4.403   2.370
88038W        W47541  37.969   0.336   3.191
88039W        W47542  15.654  29.505  12.038
88040W        W47543   1.747  11.651   3.779
88041W        W47544  13.128  30.976   2.706
88042W        W47545  38.957   9.377  10.990
88043W        W47546  35.053  17.701   0.364
88044W        W47547  38.923   0.877   0.921
88045W        W47548  14.247  40.896  13.368
88046W        W47549  36.980   2.471   1.317
88047W        W47550  28.082  15.815  10.530
88048W        W47551   6.826  11.676  11.906
88049W        W47552   5.797  20.132   1.803
88050W        W47553  18.629  32.409   4.208
88051W        W47554  15.273  33.970   1.776
88052W        W47555  44.887  17.104   5.213
88053W        W47556   7.865  24.102   3.195
88054W        W47557  14.589  34.993  12.455
88055W        W47558  25.636  40.432   4.758
88056W        W47559  22.180  28.503  12.544
88057W        W47560  14.221  40.034  10.554
88058W        W47561  33.121  18.679  13.432
88059W        W47562  36.036  13.113  11.867
88060W        W47563  37.513  25.000  13.492
88061W        W47564   3.778  12.731  10.961
88062W        W47565   0.850   3.235   2.189
88063W        W47566  25.166   1.310  11.461
88064W        W47567   8.683  15.616   1.867
88065W        W47568  31.951  41.478  11.020
88066W        W47569  16.652  13.172   0.854
88067W        W47570   1.471  32.610  13.999
88068W        W47571  21.229  29.593  13.530
88069W        W47572  11.707  26.117  10.457
88070W        W47573  15.607  32.963  11.506
88071W        W47574  26.695   7.799  12.486
88072W        W47575  38.925  30.938   3.263
88073W        W47576  28.525  28.663   1.298
88074W        W47577  19.564  11.715  11.527
88075W        W47578  37.051  25.127  12.012
88076W        W47579   2.414  39.339  10.631
88077W        W47580  43.432  42.302  13.498
88078W        W47581  37.039   2.733   0.401
88079W        W47582   5.349  37.544  10.498
88080W        W47583  39.011  38.403  11.389
88081W        W47584  31.013  17.802  14.345
88082W        W47585  44.332   4.286   2.202
88083W        W47586  41.827  21.586  12.019
88084W        W47587  29.066  39.461   2.886
88085W        W47588  42.884  10.201  13.462
88086W        W47589  44.263   7.275   2.328
88087W        W47590  10.863   7.905  12.913
88088W        W47591   3.725  38.950  11.044
88089W        W47592  37.876  15.600   3.260
88090W        W47593   4.222   4.208  10.448
88091W        W47594   4.303  34.441   1.907
88092W        W47595  19.168  27.941   0.402
88093W        W47596  29.031  29.454  11.102
88094W        W47597  15.236  18.549   4.633
88095W        W47598  36.996  39.444  10.965
88096W        W47599  17.765   0.794  13.332
88097W        W47600  20.108  25.482  12.541
88098W        W47601  32.598   0.284  11.613
88099W        W47602  32.465  29.986   3.673
88100W        W47603  43.019  42.824  13.952
88101W        W47604  37.550  29.450   0.402
88102W        W47605  23.140  26.033   0.784
88103W        W47606  17.783  33.971  12.067
88104W        W47607   1.410  10.201   0.409
88105W        W47608  23.585  10.345  13.356
88106W        W47609  28.987  18.251  12.477
88107W        W47610  21.733   8.301  14.294
88108W        W47611  17.089  21.730   2.787
88109W        W47612  14.651  16.585   4.161
88110W        W47613  43.433  26.473   0.770
88111W        W47614  11.764  14.626  13.033
88112W        W47615   5.761   5.356   1.820
88113W        W47616  22.709  23.223  12.417
88114W        W47617  14.669  16.251  14.943
88115W        W47618   1.767  38.361   2.359
88116W        W47619  21.142  30.035  11.431
88117W        W47620  32.065  40.369  10.957
88118W        W47621  42.358  11.240  11.465
88119W        W47622   5.268  26.204  14.457
88120W        W47623  27.144  14.833   3.852
88121W        W47624  36.462  15.792   1.764
88122W        W47625  29.444  14.789  11.970
88123W        W47626  12.247  36.933  13.045
88124W        W47627  34.996  37.355   2.339
88125W        W47628  13.751   7.872   2.257
88126W        W47629   0.263  11.220  12.343
88127W        W47630  15.790  28.141   4.723
88128W        W47631  35.480  33.560   2.818
88129W        W47632  37.016  41.937  12.580
88130W        W47633  43.485  32.031   2.850
88131W        W47634  30.480   1.469   1.778
88132W        W47635  39.358  43.458  13.871
88133W        W47636  22.233  15.750  14.301
88134W        W47637  33.534  35.404  11.938
88135W        W47638  25.705  34.051  11.896
88136W        W47639  24.720  38.474  11.977
88137W        W47640   2.241   9.376  10.564
88138W        W47641   1.858  13.639   1.764
88139W        W47642  24.529   7.290  12.022
88140W        W47643  40.310  26.458   2.710
88141W        W47644   9.342  13.767   4.781
88142W        W47645  19.589  37.852  14.952
88143W        W47646  24.035   0.951  13.836
88144W        W47647   3.385   1.479  11.450
88145W        W47648  12.325  39.390  14.026
88146W        W47649  32.405  43.504  12.549
88147W        W47650  26.070  18.149  13.805
88148W        W47651  40.866  12.667  14.875
88149W        W47652  21.623  17.272   2.188
88150W        W47653  15.643  21.552  12.846
88151W        W47654  19.690  33.046  11.474
88152W        W47655   2.823  12.137  13.959
88153W        W47656  28.608   0.340  14.353
88154W        W47657  35.947   2.898  12.526
88155W        W47658  37.342  15.707  13.020
88156W        W47659   1.783  24.016  13.353
88157W        W47660   8.798  22.562  12.929
88158W        W47661   5.781  18.160   1.745
88159W        W47662  33.410  20.061  13.903
88160W        W47663   7.286  37.865  10.897
88161W        W47664  42.947  25.121   0.873
88162W        W47665  36.939  19.055   3.203
88163W        W47666  38.481  20.553   0.295
88164W        W47667  27.149  32.516   0.740
88165W        W47668  20.215  37.567   2.704
88166W        W47669  12.217   7.403  12.063
88167W        W47670  28.972  23.660  11.464
88168W        W47671  14.210   8.723   4.188
88169W        W47672   6.251   2.466   3.759
88170W        W47673   8.182  13.807   5.591
88171W        W47674   7.301  38.962  14.873
88172W        W47675   0.920  21.094  13.796
88173W        W47676  34.403  19.686  14.502
88174W        W47677  26.113  20.530  13.795
88175W        W47678  34.460   7.262  11.548
88176W        W47679  26.629  31.497  10.962
88177W        W47680  26.506  40.862  13.423
88178W        W47681   8.900  31.475   0.742
88179W        W47682  44.380  14.783   2.833
88180W        W47683  25.473  18.579  11.604
88181W        W47684  10.289  10.675  13.052
88182W        W47685   9.379  18.133   0.428
88183W        W47686  18.678  37.903  13.510
88184W        W47687   9.390  38.358   0.442
88185W        W47688  41.931  37.835   2.787
88186W        W47689  12.723  38.827  10.494
88187W        W47690  24.081   2.392  11.004
88188W        W47691  28.604  32.437  12.353
88189W        W47692  43.966   2.835   3.263
88190W        W47693  10.175   7.363  12.031
88191W        W47694  28.028  34.991  11.416
88192W        W47695  22.217   0.810   2.786
88193W        W47696  24.672  24.117   3.651
88194W        W47697  26.641  23.526  12.498
88195W        W47698  25.541  32.527  13.870
88196W        W47699  30.435   1.416  11.079
88197W        W47700  12.829  34.930   1.775
88198W        W47701   0.913   6.735  11.063
88199W        W47702  26.963  28.449   3.163
88200W        W47703  12.792  27.539   1.354
88201W        W47704  41.478   4.717   2.738
88202W        W47705  14.593  30.527   1.298
88203W        W47706   2.429  30.093  12.352
88204W        W47707  12.241  29.546  10.463
88205W        W47708  22.077  19.178   0.353
88206W        W47709  36.490  34.020  11.579
88207W        W47710  21.744  32.108  11.401
88208W        W47711  36.975  31.471  13.837
88209W        W47712  32.131  16.775  12.529
88210W        W47713   8.681  25.498  13.048
88211W        W47714  41.841  43.869  14.516
88212W        W47715  37.348   7.887   1.890
88213W        W47716  25.484  40.906  12.919
88214W        W47717  24.665  17.669  13.498
88215W        W47718  28.931  20.642   1.887
88216W        W47719  42.514   5.324  13.976
88217W        W47720   1.464   3.387  12.565
88218W        W47721  43.925  19.544   1.370
88219W        W47722  30.552  41.531  13.316
88220W        W47723   3.893   7.861  14.976
88221W        W47724  20.719  32.009  14.889
88222W        W47725  11.201  27.601  12.935
88223W        W47726  25.566  21.080   4.751
88224W        W47727  38.979  10.868   1.367
88225W        W47728   9.325   0.470  14.297
88226W        W47729  24.580  40.873   4.146
88227W        W47730  24.183  27.078  14.900
88228W        W47731  30.544  44.944  12.441
88229W        W47732  40.963  21.226  11.864
88230W        W47733  10.369  27.158   1.771
88231W        W47734   7.728  18.173  12.093
88232W        W47735  23.728  13.254   2.736
88233W        W47736  28.619  14.659  10.427
88234W        W47737  25.679  16.112   1.767
88235W        W47738  24.075  37.553   4.608
88236W        W47739  34.553   9.286   4.740
88237W        W47740  40.462   9.219  14.380
88238W        W47741  30.109  31.994   2.405
88239W        W47742  37.963  32.036   0.469
88240W        W47743   2.338  32.620  14.363
88241W        W47744  26.099  42.372  13.422
88242W        W47745  32.494  25.523  13.414
88243W        W47746  19.190  13.234  10.641
88244W        W47747  31.504  41.302   4.618
88245W        W47748   9.706  42.022   2.749
88246W        W47749   7.807  10.239  11.045
88247W        W47750  40.903  39.403  12.838
88248W        W47751  27.947  41.523   3.256
88249W        W47752  15.203  40.835   2.706
88250W        W47753   6.729   0.848   2.210
88251W        W47754  24.032  31.020  11.028
88252W        W47755   3.840  33.498   2.271
88253W        W47756   7.402  20.068  12.445
88254W        W47757  37.406  17.294   2.268
88255W        W47758   7.340   8.728   0.907
88256W        W47759   3.797   0.807   3.853
88257W        W47760  34.407   2.931  11.090
88258W        W47761  19.669   4.932  10.004
88259W        W47762  23.060  26.176   1.253
88260W        W47763  12.817   0.851  12.080
88261W        W47764  30.596  34.115  12.834
88262W        W47765  14.733  32.117   2.350
88263W        W47766  36.914  24.000   4.742
88264W        W47767  29.486  26.010  14.759
88265W        W47768  20.546  38.357  11.602
88266W        W47769  25.128   6.404   2.371
88267W        W47770   1.798  13.189   3.349
88268W        W47771   2.314  41.019  12.457
88269W        W47772  42.967  24.980   4.335
88270W        W47773  27.665  29.065  13.316
88271W        W47774   6.891  16.151   1.843
88272W        W47775   6.358  30.160  14.895
88273W        W47776  34.386   1.316  12.861
88274W        W47777  17.251  42.977  13.474
88275W        W47778  14.234  10.796  13.911
88276W        W47779  35.540  40.913   3.386
88277W        W47780  44.758  35.874   4.772
88278W        W47781  23.617  21.594   3.850
88279W        W47782  29.059  41.391   2.313
88280W        W47783  37.465  44.352  10.017
88281W        W47784  12.769   8.899   3.654
88282W        W47785  19.709   6.370   2.780
88283W        W47786  17.082  10.640  10.522
88284W        W47787  19.279  29.620  10.914
88285W        W47788  43.383   2.818   1.845
88286W        W47789  11.229  17.255  12.453
88287W        W47790  16.760  37.369   3.679
88288W        W47791  20.588   5.855  13.026
88289W        W47792  39.520  15.578  13.384
88290W        W47793  19.176  14.773   3.368
88291W        W47794   9.791  38.846  12.456
88292W        W47795  21.108  37.528  11.032
88293W        W47796   4.745  43.804  12.514
88294W        W47797  41.990   7.410  12.496
88295W        W47798  35.376  12.264   4.625
88296W        W47799  26.643  23.712   0.420
88297W        W47800   5.301  28.584  14.445
88298W        W47801  24.990  37.447  12.045
88299W        W47802  24.983  18.732   2.388
88300W        W47803   7.188  40.015   0.376
88301W        W47804   7.392  31.067   2.341
88302W        W47805  43.849  11.801   0.965
88303W        W47806  22.507  19.769  11.564
88304W        W47807  44.974   4.867   9.925
88305W        W47808  35.929  11.287   1.725
88306W        W47809  34.870   3.382  10.935
88307W        W47810  41.386  24.173  10.519
88308W        W47811  25.575  11.225   3.713
88309W        W47812   2.334  11.717   1.885
88310W        W47813  44.274  20.581  13.453
88311W        W47814  15.283  44.994   4.231
88312W        W47815   4.283  19.157   0.966
88313W        W47816  10.379  41.494  12.862
88314W        W47817  26.667  17.125  12.031
88315W        W47818  14.117  35.952  11.987
88316W        W47819  30.930  11.300  10.517
88317W        W47820  27.654  33.409   4.824
88318W        W47821   0.768  31.470   1.270
88319W        W47822  12.355  16.809  10.891
88320W        W47823  35.897   9.222   2.325
88321W        W47824  44.418  13.172   0.294
88322W        W47825  23.173   5.798  13.316
88323W        W47826   5.908  24.539   4.648
88324W        W47827   4.234  12.795   3.808
88325W        W47828  10.369  31.120   4.351
88326W        W47829  13.722  26.570  11.915
88327W        W47830   0.948  18.726  12.554
88328W        W47831  22.066  10.164  13.846
88329W        W47832  21.544   6.360  11.933
88330W        W47833  20.727   5.804   3.262
88331W        W47834  12.276   9.828   3.716
88332W        W47835   1.324  40.388  11.100
88333W        W47836   2.924  25.063   3.685
88334W        W47837  34.511  26.075  13.545
88335W        W47838   5.290   9.390   4.639
88336W        W47839   7.723   8.874   1.819
88337W        W47840  16.668  43.294  13.318
88338W        W47841  36.003  27.560  13.906
88339W        W47842   1.320  27.620  14.287
88340W        W47843  43.373   9.750  11.555
88341W        W47844  37.035  30.491   0.752
88342W        W47845  20.532   2.452  12.005
88343W        W47846  15.693  38.419  13.408
88344W        W47847  29.116   8.762  11.569
88345W        W47848  13.145  15.684  12.967
88346W        W47849   4.865  17.098  11.033
88347W        W47850  17.272  21.149  11.895
88348W        W47851  30.987  17.106  10.409
88349W        W47852  23.672  12.626   2.268
88350W        W47853  17.659  20.604  11.900
88351W        W47854  12.228  34.953  14.362
88352W        W47855   4.229  38.992   3.847
88353W        W47856  28.440  44.280  13.017
88354W        W47857  40.886  32.431   2.695
88355W        W47858  37.849  16.723   1.246
88356W        W47859  10.795   8.323   4.679
88357W        W47860   8.347  35.545   0.925
88358W        W47861  14.218  35.970   1.297
88359W        W47862  21.202  30.147   4.823
88360W        W47863  38.546  26.951   2.899
88361W        W47864  39.507  23.148   2.896
88362W        W47865  22.167  38.978   4.635
88363W        W47866  12.242  24.078   3.371
88364W        W47867  34.052  12.614  14.300
88365W        W47868  31.455   2.326   2.684
88366W        W47869  39.896  39.994   3.644
88367W        W47870  40.926  42.797   2.296
88368W        W47871  30.482  33.010   1.247
88369W        W47872  44.319  17.655   9.543
88370W        W47873  32.076  35.398  12.996
88371W        W47874  15.083  35.513   3.287
88372W        W47875  18.289  31.448   2.400
88373W        W47876  25.658   4.385   3.760
88374W        W47877  12.621  33.608   2.853
88375W        W47878   3.710  16.749   3.324
88376W        W47879   3.394   6.723  13.510
88377W        W47880  38.367  42.382   2.352
88378W        W47881  20.240  38.554  14.895
88379W        W47882   3.923  26.465   9.606
88380W        W47883  31.545  10.273   0.415
88381W        W47884  41.486  36.077  12.543
88382W        W47885  36.032  32.968  12.986
88383W        W47886   2.949   9.715   2.679
88384W        W47887  36.555  34.966   4.225
88385W        W47888  22.552  24.062  12.555
88386W        W47889  33.927  33.922  12.368
88387W        W47890  20.150   2.348  11.597
88388W        W47891  11.722   8.674  11.504
88389W        W47892  44.768   5.320   0.344
88390W        W47893  43.444  22.688   0.895
88391W        W47894  11.295  36.868  11.491
88392W        W47895  27.028  28.074  14.308
88393W        W47896  41.944  28.938  13.365
88394W        W47897  12.700  36.378   1.743
88395W        W47898  29.970  35.063  11.122
88396W        W47899   4.737  12.126  12.569
88397W        W47900  37.834  20.626   4.317
88398W        W47901  14.628  25.216  11.961
88399W        W47902   4.432   7.189   1.913
88400W        W47903  18.268  12.632  14.455
88401W        W47904  43.943  15.276  11.431
88402W        W47905  25.029  12.146  11.898
88403W        W47906  14.283  24.717   4.308
88404W        W47907  12.135  12.655   2.712
88405W        W47908  37.842  21.586  11.088
88406W        W47909  17.623  31.403  11.057
88407W        W47910  39.359  22.690   0.459
88408W        W47911  36.472  31.515   3.700
88409W        W47912   8.807   3.932  14.411
88410W        W47913   3.389   0.883  13.812
88411W        W47914  19.144  22.720   2.399
88412W        W47915  29.157  20.744   2.260
88413W        W47916   8.226  29.562   2.742
88414W        W47917  32.555  17.555  12.390
88415W        W47918   7.676  25.976   4.176
88416W        W47919  10.834  41.917   2.741
88417W        W47920  43.853   3.249   0.344
88418W        W47921  41.335   9.179   3.661
88419W        W47922  14.829  29.163  12.837
88420W        W47923  22.233   1.956  14.384
88421W        W47924  43.387  21.184  13.509
88422W        W47925  12.762  17.566  12.388
88423W        W47926  42.458  44.286   1.371
88424W        W47927  31.572  31.642  13.911
88425W        W47928  34.937   1.355  10.961
88426W        W47929  31.504  32.898  14.946
88427W        W47930  35.050  18.281  14.295
88428W        W47931   8.777  42.966   1.736
88429W        W47932  10.867  37.063   0.875
88430W        W47933  12.237  38.492   0.389
88431W        W47934  43.446  29.570   4.142
88432W        W47935  21.553  44.995  14.798
88433W        W47936  21.697   6.822  11.489
88434W        W47937  31.573  44.877   0.882
88435W        W47938   5.389  12.683   3.322
88436W        W47939  11.637  32.440  14.007
88437W        W47940   5.298   8.827  14.959
88438W        W47941  16.272  29.995   0.402
88439W        W47942  16.131  19.660   3.859
88440W        W47943  25.689  19.569  13.437
88441W        W47944  11.831  21.682   0.391
88442W        W47945  28.165  35.892  10.940
88443W        W47946  21.707  36.539  13.466
88444W        W47947  44.822  17.656  13.873
88445W        W47948  39.430  30.004   4.271
88446W        W47949   3.282  25.976  10.020
88447W        W47950   0.976  26.146  14.830
88448W        W47951  22.684  31.462   4.818
88449W        W47952  29.001  31.515  13.959
88450W        W47953  25.691  18.234   3.251
88451W        W47954  25.195  44.979   1.394
88452W        W47955  30.429  10.663   2.322
88453W        W47956  29.633  30.927   1.425
88454W        W47957  43.332  33.499   4.294
88455W        W47958   3.237  38.873  14.412
88456W        W47959   3.796  39.446  12.833
88457W        W47960  20.533  36.866   0.914
88458W        W47961  12.632  31.417  13.971
88459W        W47962  16.092  10.317   4.721
88460W        W47963  21.598  25.514  11.098
88461W        W47964  24.553  39.919   2.872
88462W        W47965  18.271   5.757   0.767
88463W        W47966   5.929  43.970  12.079
88464W        W47967  14.636  43.808   1.210
88465W        W47968  20.703   3.217  11.400
88466W        W47969  16.724  22.049   3.783
88467W        W47970   5.207  23.569  11.119
88468W        W47971  13.262  12.170   0.450
88469W        W47972  14.221   0.406  12.055
88470W        W47973  30.137  25.070  10.558
88471W        W47974   3.924  35.432   4.817
88472W        W47975   3.295  16.273   0.416
88473W        W47976  19.712  19.128  12.846
88474W        W47977  16.179  16.738  14.870
88475W        W47978  25.080  30.425  14.894
88476W        W47979  12.613  40.919   0.884
88477W        W47980  31.093  44.799   3.283
88478W        W47981  42.508  13.626   3.359
88479W        W47982  12.631  15.730  13.350
88480W        W47983   9.162   6.748   1.443
88481W        W47984  40.988  39.343  13.998
88482W        W47985  17.799  27.649  12.365
88483W        W47986  43.423  30.525   3.651
88484W        W47987  34.883  15.739  13.042
88485W        W47988  25.005  31.559  14.772
88486W        W47989  24.063  25.495  13.398
88487W        W47990   2.893   1.753   3.303
88488W        W47991  12.663  43.900  10.928
88489W        W47992   6.244  24.145   1.343
88490W        W47993  12.265  12.299   1.886
88491W        W47994  24.692   5.731   2.675
88492W        W47995   7.836  11.351   3.838
88493W        W47996   0.452   4.228  11.517
88494W        W47997  35.483  22.588   0.842
88495W        W47998  10.724   9.777  14.962
88496W        W47999   7.818  14.657  14.305
88497W        W48000  26.967   0.857   3.857
88498W        W48001  41.997  21.564  13.009
88499W        W48002   2.820  14.109  12.557
88500W        W48003   4.209   8.233  11.964
88501W        W48004  28.967   9.180  10.479
88502W        W48005  19.726  35.913   1.427
88503W        W48006  23.634  17.692   3.707
88504W        W48007  17.283  44.896   0.891
88505W        W48008  24.511  11.800  12.402
88506W        W48009  20.718  34.449  12.462
88507W        W48010  29.980   6.310  11.602
88508W        W48011  23.617  42.364  11.516
88509W        W48012  33.592  14.282  10.561
88510W        W48013  37.518  14.712  13.399
88511W        W48014  25.711  32.068   1.375
88512W        W48015   1.396  15.629   0.398
88513W        W48016   6.853  29.465  12.871
88514W        W48017  12.152  31.632   3.681
88515W        W48018  35.501  38.903   2.179
88516W        W48019   7.246   2.940  13.319
88517W        W48020  31.046  14.157   3.292
88518W        W48021  20.703   7.306   3.272
88519W        W48022  25.180   3.877  10.517
88520W        W48023  43.310   2.938   1.415
88521W        W48024  15.622  24.979   0.458
88522W        W48025   2.268  40.992   2.329
88523W        W48026  43.459  14.593  12.860
88524W        W48027  33.441  38.445   4.298
88525W        W48028  23.145  29.456  13.912
88526W        W48029  35.544  39.818   1.840
88527W        W48030  28.464  11.639  14.447
88528W        W48031  35.432  23.993  12.472
88529W        W48032   8.299  14.166   2.687
88530W        W48033  16.663   9.834   1.319
88531W        W48034  11.836  13.674  13.798
88532W        W48035  26.685  42.821   3.761
88533W        W48036   1.364  36.032  13.384
88534W        W48037   3.833  25.014  13.916
88535W        W48038  29.999  29.032   3.659
88536W        W48039  36.035  19.675   2.339
88537W        W48040  31.142  38.407   3.305
88538W        W48041  30.087  29.099   0.483
88539W        W48042  22.543  14.831   4.807
88540W        W48043  31.103  15.759  10.889
88541W        W48044  37.973  14.293  12.862
88542W        W48045  16.738  30.418   1.833
88543W        W48046   4.802  35.030   1.803
88544W        W48047  12.233  10.151   4.795
88545W        W48048   4.228  16.285   0.341
88546W        W48049  19.082  28.056  11.923
88547W        W48050  16.764   5.761   4.150
88548W        W48051  39.426   5.374  13.350
88549W        W48052  21.555  24.004  10.595
88550W        W48053   4.770  37.546   3.174
88551W        W48054  21.582  33.604   4.132
88552W        W48055  43.923  39.369  13.813
88553W        W48056  44.984  23.699   1.347
88554W        W48057  31.975   0.833   2.349
88555W        W48058  13.706   1.334   2.210
88556W        W48059  40.399  44.357  13.814
88557W        W48060   1.945   9.791   0.468
88558W        W48061  24.078  36.449   4.351
88559W        W48062  28.104  31.145  11.410
88560W        W48063  26.109  43.867  13.954
88561W        W48064  33.898  30.101  11.100
88562W        W48065  12.362   5.361  10.638
88563W        W48066  29.547   5.412  11.554
88564W        W48067  33.421   3.944  14.916
88565W        W48068  33.068  11.722  11.513
88566W        W48069   9.656  29.942   1.427
88567W        W48070   2.866  44.808   0.774
88568W        W48071  27.531  31.580  11.049
88569W        W48072  44.896  38.561  14.826
88570W        W48073  24.576  40.027  14.961
88571W        W48074   0.918  34.081  13.029
88572W        W48075  33.924  24.995  10.052
88573W        W48076  27.099  22.079   4.169
88574W        W48077   0.298  42.384   3.744
88575W        W48078  15.289   1.963  13.462
88576W        W48079  11.175  10.711  10.492
88577W        W48080  38.552   4.898  10.969
88578W        W48081   8.190  23.116  11.412
88579W        W48082  33.534  21.017   2.286
88580W        W48083  18.265  43.494  13.036
88581W        W48084  36.528  27.475   0.939
88582W        W48085  28.159  23.568   5.127
88583W        W48086  37.870  26.200   0.326
88584W        W48087  27.457  35.600  10.645
88585W        W48088   8.201  41.439  12.069
88586W        W48089   3.781  28.108   5.125
88587W        W48090  20.524   8.185  14.831
88588W        W48091  39.900  44.270  11.506
88589W        W48092  41.894  34.874  13.824
88590W        W48093   2.439  23.685   4.338
88591W        W48094  42.311   6.908  14.857
88592W        W48095  28.674  16.085   0.807
88593W        W48096   5.873  21.747  10.919
88594W        W48097  29.658   3.840  11.381
88595W        W48098  22.188  11.297  12.931
88596W        W48099  22.560  22.671   0.765
88597W        W48100  34.420  39.374   3.299
88598W        W48101  16.655   8.720  14.419
88599W        W48102  22.244  44.468  13.429
88600W        W48103  32.036  39.406  14.492
88601W        W48104  15.589  22.695   2.837
88602W        W48105  25.527  44.898  14.356
88603W        W48106   8.848  11.335  12.050
88604W        W48107  13.178  15.759   3.637
88605W        W48108  26.203  20.626   2.239
88606W        W48109  39.438  39.428   4.716
88607W        W48110  39.877  17.212  14.358
88608W        W48111  23.664  17.291   3.324
88609W        W48112  19.562  16.316  14.322
88610W        W48113  27.162  32.999  14.844
88611W        W48114  31.463  40.927   2.249
88612W        W48115  17.249  36.587   2.209
88613W        W48116  12.314  16.312  11.914
88614W        W48117  28.121  33.603  14.896
88615W        W48118  11.179   9.797   3.373
88616W        W48119   6.353   6.184   1.747
88617W        W48120   2.240   1.924   4.775
88618W        W48121  25.102   1.779  13.931
88619W        W48122  26.129  30.945   1.235
88620W        W48123   0.262  16.698   1.218
88621W        W48124   0.800  43.280   3.784
88622W        W48125  39.460  24.662   0.872
88623W        W48126  37.912   4.447   4.152
88624W        W48127  40.347  44.321   5.110
88625W        W48128   0.308  21.735  11.543
88626W        W48129  16.075  42.830  13.472
88627W        W48130   6.816  12.655   2.304
88628W        W48131  22.176  34.025   1.218
88629W        W48132  36.874  37.065   1.324
88630W        W48133  32.451   4.772   0.308
88631W        W48134  39.919  28.441  13.889
88632W        W48135  22.076  14.141  11.481
88633W        W48136   0.324  31.577  10.596
88634W        W48137  12.664   9.281  13.319
88635W        W48138   3.892   9.672   4.794
88636W        W48139  42.316  37.579   2.352
88637W        W48140  28.166   1.879   4.657
88638W        W48141  16.803  27.110  11.601
88639W        W48142  37.935   9.151   0.896
88640W        W48143  23.721  25.650  14.934
88641W        W48144  16.783  44.879  14.497
88642W        W48145  38.400  37.559  14.778
88643W        W48146   3.805  33.389   3.822
88644W        W48147   8.768  17.733   0.279
88645W        W48148  36.523  42.875   3.838
88646W        W48149  18.752  30.434  12.569
88647W        W48150  17.742  36.869   2.364
88648W        W48151  12.637  44.329  10.926
88649W        W48152  16.689  39.396  12.836
88650W        W48153  40.909  12.182   4.785
88651W        W48154  11.331  44.923   4.649
88652W        W48155  38.515  16.626   0.823
88653W        W48156   2.758  32.597  13.950
88654W        W48157  34.609  10.633  14.776
88655W        W48158  11.227  23.669   2.293
88656W        W48159  40.520  20.148  14.317
88657W        W48160  18.723   4.343  10.614
88658W        W48161   1.343  17.588  13.330
88659W        W48162  41.354  40.342  13.903
88660W        W48163  35.986  12.267  13.046
88661W        W48164   5.261  11.278  13.400
88662W        W48165   0.782  19.662  13.797
88663W        W48166  38.558   3.258   4.649
88664W        W48167   6.184  37.082  12.913
88665W        W48168   7.250  41.013   3.837
88666W        W48169  31.437   7.899  11.036
88667W        W48170  33.466  25.141  12.022
88668W        W48171  37.408  32.067  14.395
88669W        W48172  14.116  14.120   3.221
88670W        W48173   3.801   9.890   1.701
88671W        W48174  18.170  20.604   0.389
88672W        W48175  40.922  16.212   2.227
88673W        W48176   7.327  24.545   2.313
88674W        W48177  17.583  15.085   3.369
88675W        W48178  43.903  36.996  13.425
88676W        W48179   6.275  18.276  14.857
88677W        W48180  24.672   0.295  12.048
88678W        W48181  36.865  11.677  14.328
88679W        W48182  32.470   0.352  13.960
88680W        W48183  42.340  42.475  11.396
88681W        W48184  21.141  23.686   0.334
88682W        W48185   4.705   5.309   3.205
88683W        W48186   1.308   0.836  14.937
88684W        W48187  23.079   2.767  13.444
88685W        W48188   9.161  11.701   3.848
88686W        W48189  33.564  19.205  13.032
88687W        W48190   5.322   4.836  10.483
88688W        W48191  26.109  20.273   0.364
88689W        W48192  43.990  32.442   2.193
88690W        W48193  25.706  13.725  11.539
88691W        W48194   6.291   0.766   4.772
88692W        W48195  23.054  31.580  11.057
88693W        W48196  29.058  18.190   0.394
88694W        W48197  40.468   9.178   1.396
88695W        W48198  30.148  44.460  13.052
88696W        W48199  43.802  25.191   9.934
88697W        W48200   0.963  30.979   4.619
88698W        W48201  41.844  36.844   3.217
88699W        W48202  10.792  17.660   0.416
88700W        W48203  29.147   6.416   1.695
88701W        W48204  36.417  22.176  10.538
88702W        W48205   3.884  19.171   2.877
88703W        W48206  21.568  30.530   1.860
88704W        W48207  20.031  11.734  12.903
88705W        W48208   6.183   9.657  13.031
88706W        W48209  32.514  38.009  14.462
88707W        W48210  12.248  25.601  13.532
88708W        W48211  21.679  30.455   2.702
88709W        W48212  41.884  40.501   0.426
88710W        W48213   8.859  25.561   2.271
88711W        W48214  12.756  29.128  14.465
88712W        W48215   6.700  37.882   3.825
88713W        W48216  44.391   0.375   2.709
88714W        W48217  12.131   5.304   4.294
88715W        W48218  33.470  39.327  11.952
88716W        W48219  27.021   5.335  14.771
88717W        W48220  34.574  37.953  13.911
88718W        W48221   1.283  24.192   3.821
88719W        W48222  23.027  11.215   1.871
88720W        W48223  19.682   9.733  11.912
88721W        W48224  38.019  22.059   2.269
88722W        W48225  29.112  40.905  12.023
88723W        W48226  25.546  37.063   1.295
88724W        W48227  16.618  40.001   3.803
88725W        W48228  40.888  16.605  12.022
88726W        W48229  25.048  11.150   3.768
88727W        W48230  15.608  15.164  14.340
88728W        W48231  28.587   2.737  14.434
88729W        W48232  38.369  17.631   0.940
88730W        W48233  27.550   4.807   3.858
88731W        W48234  22.232  19.749  11.919
88732W        W48235  29.007  41.410  14.884
88733W        W48236   0.374  30.164   0.739
88734W        W48237  24.199  40.014   4.826
88735W        W48238  41.795  11.317  12.439
88736W        W48239  24.144  10.141  10.536
88737W        W48240  36.853   1.387   3.204
88738W        W48241  24.015  43.957   1.813
88739W        W48242   7.669  22.625   3.750
88740W        W48243  22.049   3.256   1.854
88741W        W48244  41.881   6.678   2.757
88742W        W48245  24.582  10.806   1.378
88743W        W48246  10.828   7.720  10.551
88744W        W48247  17.642  23.205   3.234
88745W        W48248  19.661  12.120  14.988
88746W        W48249  13.230   9.810  10.514
88747W        W48250  42.402  27.084  13.950
88748W        W48251   2.880  44.990  11.382
88749W        W48252   1.762  35.516   4.795
88750W        W48253  34.464   9.186   3.260
88751W        W48254  20.640  44.894  14.966
88752W        W48255   8.745  36.508  11.053
88753W        W48256  33.557  35.499   2.891
88754W        W48257   4.812  11.856   1.878
88755W        W48258  10.222  33.014  14.866
88756W        W48259  26.498  43.778  12.984
88757W        W48260  10.650  41.893  14.392
88758W        W48261   1.820  38.072   4.139
88759W        W48262   1.266   2.741   1.435
88760W        W48263  14.772  44.260  12.887
88761W        W48264  11.355  21.064   2.415
88762W        W48265  10.308  32.097   4.228
88763W        W48266  33.607  25.971   3.221
88764W        W48267  36.884   5.911  11.440
88765W        W48268  21.162  13.732   1.733
88766W        W48269  29.634   9.814   3.635
88767W        W48270  34.370  12.848  10.121
88768W        W48271   3.431   9.346  11.570
88769W        W48272  14.760  41.381  14.468
88770W        W48273  25.589  35.371  10.919
88771W        W48274  26.032  29.002   4.776
88772W        W48275  44.993  11.330  10.547
88773W        W48276  42.868  41.869   2.400
88774W        W48277  18.237  12.842  12.430
88775W        W48278  22.019  39.542  11.869
88776W        W48279  21.675  33.584  10.968
88777W        W48280  36.977   5.239  14.921
88778W        W48281  15.687  33.974   0.826
88779W        W48282  19.166  12.676   2.198
88780W        W48283  24.194   5.927   3.738
88781W        W48284  37.900  43.364  12.504
88782W        W48285  34.607  29.635  10.598
88783W        W48286  31.634  31.404   2.380
88784W        W48287   9.864  15.752   0.429
88785W        W48288  33.436   3.358   4.179
88786W        W48289  25.530  16.706   2.774
88787W        W48290  34.965   4.388   1.807
88788W        W48291  30.968  44.406  12.342
88789W        W48292  15.796   5.705   1.733
88790W        W48293  40.437  29.594   0.731
88791W        W48294  44.872  12.123  12.871
88792W        W48295  29.613  38.379  14.466
88793W        W48296   0.473  44.812  10.468
88794W        W48297  12.668   3.833   1.444
88795W        W48298  11.135  23.084   2.257
88796W        W48299  42.914  12.828  13.374
88797W        W48300  15.754  43.428   3.823
88798W        W48301   7.207  14.267   9.563
88799W        W48302  16.695   6.881   4.117
88800W        W48303   6.826  35.572  10.445
88801W        W48304   3.318  23.581   1.399
88802W        W48305   8.825  31.458  10.504
88803W        W48306  24.703   2.752   2.731
88804W        W48307  19.609   3.879  12.964
88805W        W48308  28.579   0.884  11.426
88806W        W48309  19.120   7.904   4.609
88807W        W48310  22.181  21.124  14.952
88808W        W48311  27.140  18.655   0.378
88809W        W48312  26.052  17.584   0.459
88810W        W48313   9.291  36.544   4.827
88811W        W48314  29.017  38.366   4.149
88812W        W48315  13.823   4.219  13.327
88813W        W48316  28.084  21.633  11.985
88814W        W48317  31.912  44.352  13.923
88815W        W48318  24.542  29.975  11.570
88816W        W48319  31.019   3.931   3.157
88817W        W48320  14.228  42.379  13.369
88818W        W48321  16.282  15.599   0.373
88819W        W48322  16.696  28.595  12.076
88820W        W48323  19.703  17.785  11.595
88821W        W48324   5.853  11.163   1.272
88822W        W48325   7.687  38.532  12.963
88823W        W48326  25.571  32.928  13.982
88824W        W48327  24.065   0.743   2.878
88825W        W48328  28.599  15.821  12.020
88826W        W48329  15.132  43.464   4.753
88827W        W48330  34.980  26.206  11.556
88828W        W48331  21.521  31.054   0.954
88829W        W48332  26.640  15.803   4.305
88830W        W48333   6.423  21.611   4.781
88831W        W48334   3.354   7.877  13.854
88832W        W48335  39.321  44.822  14.510
88833W        W48336  26.171   5.260  11.377
88834W        W48337  33.532   4.302  10.612
88835W        W48338  36.947  11.247   3.788
88836W        W48339   1.371   9.186  14.378
88837W        W48340  14.295  40.388   2.728
88838W        W48341  27.133  11.673   4.706
88839W        W48342  43.956   9.283   0.839
88840W        W48343  26.147  29.581  14.380
88841W        W48344  10.792   5.783  10.485
88842W        W48345  30.629  19.225  14.944
88843W        W48346   6.205  23.231   2.254
88844W        W48347  16.770   0.396  13.476
88845W        W48348  38.897  12.821  10.415
88846W        W48349   7.845   5.757   4.774
88847W        W48350  35.442  42.425  14.898
88848W        W48351  21.177  38.488   0.339
88849W        W48352  39.013   2.745   2.871
88850W        W48353  10.688  10.658  12.910
88851W        W48354  34.021  43.510  11.966
88852W        W48355  40.305  20.158  11.954
88853W        W48356  42.837  38.560  13.498
88854W        W48357  31.583  34.022   2.801
88855W        W48358  19.169   0.347  10.581
88856W        W48359  14.778  44.817  10.457
88857W        W48360  12.782   8.265   2.853
88858W        W48361  40.901   2.329  13.026
88859W        W48362   1.785   4.257  12.051
88860W        W48363  41.945  35.032   1.251
88861W        W48364   3.735   3.783   4.218
88862W        W48365  39.394  24.577  13.033
88863W        W48366  19.724   2.466  11.954
88864W        W48367  33.411  29.528   3.848
88865W        W48368  19.283  40.897   2.222
88866W        W48369   4.789  43.832  12.027
88867W        W48370   3.295   5.847  12.400
88868W        W48371  41.849  37.009  12.564
88869W        W48372  35.937  21.572  11.077
88870W        W48373  28.678  18.291   4.646
88871W        W48374  36.502  26.561  13.465
88872W        W48375  14.145   3.728  11.114
88873W        W48376  19.743  41.477  12.841
88874W        W48377  20.710  31.553   0.966
88875W        W48378  12.208   1.469   1.696
88876W        W48379  16.632  15.695   1.259
88877W        W48380  40.537  36.910   4.328
88878W        W48381  24.093  10.239   4.193
88879W        W48382   1.889  30.506   3.742
88880W        W48383   7.743  13.833   4.739
88881W        W48384  35.545  18.239   4.646
88882W        W48385  23.040  43.951   0.924
88883W        W48386  20.644  25.567  13.463
88884W        W48387   6.406  15.807  14.508
88885W        W48388  17.555  40.932   1.878
88886W        W48389  25.106  33.041  14.300
88887W        W48390   5.732  24.998   1.313
88888W        W48391  31.017  33.423   1.848
88889W        W48392  32.467  30.458  12.504
88890W        W48393  22.699  40.544  13.433
88891W        W48394  24.033  10.670  13.880
88892W        W48395  39.465  26.545   0.446
88893W        W48396  10.230  38.893   0.393
88894W        W48397  21.576   0.473  11.100
88895W        W48398  24.208  31.018  13.463
88896W        W48399   9.839  32.947   0.856
88897W        W48400  19.212   5.374  13.978
88898W        W48401   1.282   3.829   4.623
88899W        W48402  12.165   4.331  10.488
88900W        W48403  28.650  14.104   9.923
88901W        W48404  29.664  35.396   0.767
88902W        W48405  17.688  43.786   4.739
88903W        W48406  30.542   2.433   2.189
88904W        W48407   6.861  25.151   4.759
88905W        W48408  19.642  36.852   4.641
88906W        W48409  30.433   6.382   4.348
88907W        W48410  20.057  18.056   1.745
88908W        W48411  27.530  21.050  10.417
88909W        W48412  41.843   5.268   0.825
88910W        W48413  40.303  43.791  13.506
88911W        W48414  32.445   4.761   2.302
88912W        W48415   5.817  33.029  13.412
88913W        W48416   1.366  41.937   1.448
88914W        W48417  38.505  12.329  13.476
88915W        W48418  21.737  36.544  12.828
88916W        W48419  29.173   5.252   4.180
88917W        W48420   3.785  14.815  11.007
88918W        W48421  38.446  14.802   4.121
88919W        W48422   9.783   1.267  14.383
88920W        W48423   7.205  23.991   3.692
88921W        W48424  26.151  28.166   0.810
88922W        W48425  38.833   3.402  11.994
88923W        W48426  18.585  13.331   3.256
88924W        W48427  42.976  39.057  12.578
88925W        W48428  32.904   9.336   1.287
88926W        W48429  38.844  13.202  11.598
88927W        W48430  20.651  10.693  12.487
88928W        W48431  14.733   2.883  14.996
88929W        W48432  18.618  40.339   3.851
88930W        W48433  15.325  30.566   3.243
88931W        W48434   7.700  13.671   5.288
88932W        W48435  36.919  42.968   4.785
88933W        W48436  41.302  39.374  13.858
88934W        W48437  24.992  20.713   9.926
88935W        W48438  26.593  25.665  12.934
88936W        W48439  30.021   0.473  13.318
88937W        W48440  44.816  19.051   1.878
88938W        W48441  35.425  14.785   0.435
88939W        W48442  32.538  40.484   2.694
88940W        W48443   6.371  28.551   2.330
88941W        W48444  15.597   0.965   2.729
88942W        W48445   5.913  29.566   2.814
88943W        W48446  24.168   1.901   0.934
88944W        W48447   0.864   4.212  11.895
88945W        W48448  14.590  13.630  13.516
88946W        W48449  33.963  42.378  13.804
88947W        W48450   8.743  33.577  13.022
88948W        W48451  16.577  16.621  13.411
88949W        W48452  43.418   0.418  13.447
88950W        W48453   8.863  23.731  12.385
88951W        W48454  14.834   5.355  14.351
88952W        W48455  34.458   0.477   1.712
88953W        W48456  18.099  19.686  14.912
88954W        W48457  25.558  25.615  12.946
88955W        W48458  16.624   0.430  12.413
88956W        W48459  38.554  37.550   2.284
88957W        W48460  33.497   7.407   1.428
88958W        W48461  10.170  20.077  13.475
88959W        W48462   9.775  44.350   3.731
88960W        W48463   7.186  31.428  14.936
88961W        W48464  27.580  12.634  13.794
88962W        W48465   5.399  10.686   0.358
88963W        W48466  26.094  39.923  12.558
88964W        W48467  36.490  44.934  14.994
88965W        W48468  33.066  33.558   4.167
88966W        W48469  19.560  39.372   0.923
88967W        W48470  25.967  44.755  10.636
88968W        W48471  34.103   1.742   2.893
88969W        W48472  30.160  21.180  12.545
88970W        W48473  24.490  39.430  12.004
88971W        W48474  10.289   2.241  10.614
88972W        W48475  18.292   1.835   0.366
88973W        W48476   8.843  44.967   0.855
88974W        W48477  35.888  22.135   2.400
88975W        W48478  22.219  22.035   4.818
88976W        W48479  39.910  43.911   2.346
88977W        W48480  27.530  16.740   3.244
88978W        W48481  24.179  35.983   1.300
88979W        W48482  16.157  14.801   1.788
88980W        W48483   5.356   2.830  14.481
88981W        W48484  16.765  23.226  12.845
88982W        W48485  39.516   2.293  13.896
88983W        W48486   0.387  36.484   4.137
88984W        W48487  23.554  22.513   2.324
88985W        W48488  37.868  18.747   4.819
88986W        W48489  44.279  44.368  13.884
88987W        W48490  43.384  15.256   4.712
88988W        W48491  35.407  28.078  13.939
88989W        W48492  40.373  15.085  13.850
88990W        W48493  25.160  27.640   3.336
88991W        W48494  21.105  18.140  14.985
88992W        W48495  39.493   2.779   2.198
88993W        W48496  23.614  17.594   0.351
88994W        W48497  42.891  26.474   0.447
88995W        W48498   3.397  31.632  12.877
88996W        W48499  33.969  19.240  12.541
88997W        W48500  30.978  14.166   5.110
88998W        W48501  13.627  40.933   4.342
88999W        W48502  30.937  28.435   1.709
89000W        W48503  37.940   3.849   3.312
89001W        W48504  11.756  35.433   1.836
89002W        W48505  44.956  36.059   0.872
89003W        W48506  28.966  36.918   3.670
89004W        W48507  43.426  13.748  11.921
89005W        W48508  22.666  20.605  14.963
89006W        W48509  32.519  11.632  13.454
89007W        W48510   1.921  10.755   4.229
89008W        W48511  44.908  20.123   2.354
89009W        W48512  31.559  37.530   3.279
89010W        W48513  10.833   6.326   2.341
89011W        W48514  41.800   3.305  11.872
89012W        W48515  35.492  30.034  13.414
89013W        W48516  27.658  31.478  13.852
89014W        W48517  15.715  13.253  14.931
89015W        W48518  44.261   7.901   4.632
89016W        W48519  41.420  39.022   2.253
89017W        W48520  23.544  30.966   3.711
89018W        W48521  28.039  32.433   2.179
89019W        W48522  21.170  36.003   4.147
89020W        W48523  44.401  21.216   0.944
89021W        W48524   0.249  33.526  14.939
89022W        W48525   9.664   4.792  11.026
89023W        W48526  39.004  10.170   0.945
89024W        W48527  16.775  34.088   1.317
89025W        W48528  39.825  27.526   0.900
89026W        W48529  22.224  19.165   0.930
89027W        W48530  11.259  19.157   0.759
89028W        W48531  30.618  10.713   3.737
89029W        W48532  22.208  35.999   2.237
89030W        W48533  43.275  41.385  10.488
89031W        W48534  14.301   7.322  10.622
89032W        W48535   8.249  24.694  13.533
89033W        W48536   3.428   2.827   1.878
89034W        W48537  28.563  23.597   2.179
89035W        W48538  30.513   0.876  13.831
89036W        W48539   4.252  30.151   1.872
89037W        W48540   4.916  12.264   0.956
89038W        W48541  27.579  22.508   4.665
89039W        W48542  39.958  35.879  12.552
89040W        W48543  44.917  36.069  12.517
89041W        W48544  22.184  21.198  10.980
89042W        W48545   6.706   2.935   1.844
89043W        W48546   0.758  42.890  10.519
89044W        W48547  16.740  34.871   4.785
89045W        W48548  32.985  16.287  14.435
89046W        W48549   8.349   4.277  10.506
89047W        W48550  33.405  33.915   1.923
89048W        W48551   4.337  17.720   3.352
89049W        W48552  13.251  40.001  14.774
89050W        W48553   1.262   6.765   1.758
89051W        W48554  18.748   6.227  11.595
89052W        W48555   1.827  19.658   0.737
89053W        W48556   3.280  43.984   0.806
89054W        W48557  43.355   4.800  11.995
89055W        W48558  21.103  14.110   5.094
89056W        W48559  39.418  25.488   4.348
89057W        W48560  26.571  21.710  11.926
89058W        W48561   4.292  34.007  14.934
89059W        W48562  42.354  40.505  14.851
89060W        W48563   7.871  12.776  13.382
89061W        W48564   7.872  33.424  14.884
89062W        W48565  37.863   4.805   1.362
89063W        W48566  42.963  10.731   1.739
89064W        W48567  14.664  42.401  13.365
89065W        W48568   6.697  37.404  14.334
89066W        W48569  10.379  35.600  12.518
89067W        W48570  29.525   3.953  11.860
89068W        W48571  42.857  15.248  10.962
89069W        W48572  40.989  41.910   3.309
89070W        W48573  23.569  14.123   0.911
89071W        W48574  16.300  44.375  12.345
89072W        W48575   6.288   0.494  12.577
89073W        W48576  34.495  41.963  14.443
89074W        W48577  12.820  29.444  10.980
89075W        W48578  29.926  27.165  13.982
89076W        W48579  36.509   8.286   9.447
89077W        W48580  39.050  12.724   3.768
89078W        W48581   4.757  35.393  12.847
89079W        W48582  37.403   1.759  14.345
89080W        W48583   8.238  15.129  12.059
89081W        W48584   9.701   2.924   0.410
89082W        W48585  11.818   1.441   4.308
89083W        W48586  43.920  17.095   0.899
89084W        W48587   7.734  30.555  13.424
89085W        W48588  12.119  38.999   4.758
89086W        W48589  19.272  30.074   0.726
89087W        W48590  39.431  42.493  13.803
89088W        W48591  10.304  27.955   3.385
89089W        W48592  16.805   0.978  13.868
89090W        W48593  26.146  24.063   4.701
89091W        W48594   9.166  13.310  10.540
89092W        W48595  43.364  27.064  12.479
89093W        W48596  28.031  41.044   2.387
89094W        W48597  37.485  26.536   5.186
89095W        W48598  26.534  25.510  10.473
89096W        W48599  41.982  10.175  10.638
89097W        W48600  29.620  15.089   1.228
89098W        W48601  19.055  21.520   2.220
89099W        W48602  38.418  39.560   1.253
89100W        W48603   9.311  22.583   0.465
89101W        W48604  41.849  13.274   4.283
89102W        W48605  27.632  10.636   1.394
89103W        W48606  27.588  28.622   0.300
89104W        W48607   8.233  17.683  12.390
89105W        W48608  21.151  14.133   0.252
89106W        W48609  36.038   2.955  14.973
89107W        W48610  34.460  16.695  13.810
89108W        W48611  20.149   1.753   2.200
89109W        W48612   2.394  33.090  10.892
89110W        W48613  17.697  34.457   3.382
89111W        W48614  38.514  10.715   2.823
89112W        W48615  25.692  15.204   4.810
89113W        W48616  39.397  13.845  12.556
89114W        W48617  43.822  34.599   4.695
89115W        W48618  26.015   0.812   1.402
89116W        W48619  39.488   1.356  10.917
89117W        W48620  18.728   7.327  10.508
89118W        W48621  23.230  39.022   2.718
89119W        W48622  30.630   9.712   2.834
89120W        W48623  11.161  21.216  14.808
89121W        W48624  20.606  42.484   3.824
89122W        W48625  35.447  34.949   0.377
89123W        W48626  15.615  38.041   4.216
89124W        W48627   4.291  30.094  12.878
89125W        W48628  35.991  11.160   1.271
89126W        W48629  27.149  28.952  13.942
89127W        W48630  17.071   2.887  10.928
89128W        W48631  29.487   4.820   2.224
89129W        W48632  18.695  14.759  11.422
89130W        W48633  44.391  33.387  13.344
89131W        W48634  22.501  16.751  12.862
89132W        W48635  34.034  31.566  13.365
89133W        W48636   3.376   3.430  13.989
89134W        W48637   5.857  14.128  14.431
89135W        W48638  26.644  19.194   3.303
89136W        W48639  31.064  21.679   0.942
89137W        W48640  43.861  21.597   3.276
89138W        W48641  40.909   9.729   0.285
89139W        W48642  11.826  21.551  14.389
89140W        W48643  43.932  19.140   1.357
89141W        W48644   7.672  23.528  10.984
89142W        W48645   1.307  22.566   3.325
89143W        W48646   1.334  15.824  12.962
89144W        W48647  41.980  24.142  13.018
89145W        W48648  13.258  29.939  13.890
89146W        W48649  22.730  34.899   5.267
89147W        W48650   7.827  36.963  11.935
89148W        W48651   5.795  30.612  11.116
89149W        W48652   5.391  21.535   2.213
89150W        W48653  11.202  11.778   4.290
89151W        W48654   0.893  12.356   1.266
89152W        W48655  21.540   4.322  13.363
89153W        W48656  39.440  29.016  10.942
89154W        W48657  28.081  44.500   0.479
89155W        W48658   9.241   1.962  11.559
89156W        W48659   6.698  27.947  11.950
89157W        W48660  39.497  41.992   2.238
89158W        W48661  28.961  30.635   3.817
89159W        W48662  33.966  36.578   4.693
89160W        W48663   6.294  43.924  10.491
89161W        W48664  33.504  21.135  13.318
89162W        W48665  39.315  29.920   2.780
89163W        W48666  37.559  41.299   3.197
89164W        W48667  16.693  28.953   2.241
89165W        W48668  15.672  33.482   0.424
89166W        W48669  39.850  41.433  12.536
89167W        W48670  28.998  32.044  11.392
89168W        W48671  25.030  43.313   5.249
89169W        W48672  23.234   4.395  10.498
89170W        W48673  31.621  32.072   5.171
89171W        W48674  23.194  32.448  13.881
89172W        W48675  27.049  10.636  11.110
89173W        W48676  18.153   0.406   3.199
89174W        W48677  17.596  30.629   3.319
89175W        W48678  43.374  42.352  10.510
89176W        W48679  39.037   4.250   1.709
89177W        W48680  44.001  39.930  12.925
89178W        W48681  38.358   2.926   1.242
89179W        W48682   5.409  40.831  14.283
89180W        W48683  28.460  23.079  14.767
89181W        W48684   6.189   9.812   1.861
89182W        W48685  39.883  44.911   2.899
89183W        W48686   7.327  26.976   1.408
89184W        W48687  31.124  20.744  10.548
89185W        W48688  21.676  42.520   2.236
89186W        W48689   7.301  35.585  13.851
89187W        W48690  35.546  21.162  10.945
89188W        W48691  43.451  35.437  14.283
89189W        W48692  24.144  36.037  14.468
89190W        W48693  14.658  20.095  13.029
89191W        W48694  31.899  24.099   4.618
89192W        W48695   4.699   3.390   3.172
89193W        W48696   7.289   2.411  12.092
89194W        W48697  40.440  25.557  12.415
89195W        W48698   1.283  27.098  13.404
89196W        W48699  43.296  15.245   2.385
89197W        W48700  13.337  41.319   1.817
89198W        W48701  13.132  34.434   2.346
89199W        W48702  28.013  11.733  13.950
89200W        W48703  16.166  29.633  12.880
89201W        W48704  43.450   7.408  13.470
89202W        W48705   3.825   1.242   1.883
89203W        W48706  22.712  34.575   1.753
89204W        W48707  18.253  36.593   0.300
89205W        W48708  23.166  16.164  14.785
89206W        W48709   0.772  26.190  12.353
89207W        W48710  32.588   9.731  14.848
89208W        W48711  19.282  40.427   3.706
89209W        W48712   9.230   7.291   0.455
89210W        W48713  18.065  38.069   2.324
89211W        W48714  33.949  20.571   3.303
89212W        W48715  17.788   1.334   1.734
89213W        W48716  28.080  26.198  10.540
89214W        W48717  35.876  35.050   3.291
89215W        W48718   3.371  22.722  13.957
89216W        W48719  23.056  33.101   3.165
89217W        W48720  18.663  30.489  13.353
89218W        W48721  12.759  44.872   0.315
89219W        W48722  18.229  31.646   0.822
89220W        W48723  29.499  29.654   3.853
89221W        W48724   1.767  28.134  10.452
89222W        W48725   8.788  14.828  14.400
89223W        W48726  18.262  41.463   1.829
89224W        W48727  27.668  44.993   0.379
89225W        W48728  33.106   5.757   2.758
89226W        W48729  17.152  29.592   4.141
89227W        W48730  23.707   4.437   2.295
89228W        W48731   2.290  31.563  14.820
89229W        W48732   3.911  11.757  10.585
89230W        W48733  30.104   0.445  10.446
89231W        W48734  12.204  15.696  12.879
89232W        W48735   9.188  11.240   1.410
89233W        W48736  10.178   0.411   4.826
89234W        W48737   6.368  20.163  14.784
89235W        W48738  19.548  16.275  10.450
89236W        W48739  30.023   2.815  12.558
89237W        W48740  25.698   0.490  11.959
89238W        W48741  30.636  40.842   4.705
89239W        W48742  25.659  37.465  11.453
89240W        W48743  36.444  41.456   2.765
89241W        W48744   1.849  11.867  11.568
89242W        W48745  16.250  22.509  13.985
89243W        W48746  27.592   7.710  14.455
89244W        W48747  27.596  10.344   1.242
89245W        W48748  19.230  25.969  11.379
89246W        W48749   3.292  39.314  13.871
89247W        W48750  38.056   4.257   2.780
89248W        W48751  37.547   7.675  13.470
89249W        W48752  42.366  14.750  12.449
89250W        W48753  25.653  11.646   5.085
89251W        W48754  39.330  44.972   1.737
89252W        W48755  13.671  35.865  14.842
89253W        W48756  44.379  17.601   1.897
89254W        W48757  29.160  21.529   2.281
89255W        W48758  10.272  43.366  13.806
89256W        W48759  30.945  35.569  13.819
89257W        W48760  39.050   9.353  10.603
89258W        W48761  15.680  37.070   0.482
89259W        W48762  24.698   0.900  13.348
89260W        W48763  27.152  10.342   2.215
89261W        W48764  12.748  27.088  10.911
89262W        W48765  22.510   5.752  14.806
89263W        W48766  24.134  38.025   0.928
89264W        W48767  22.048  43.343  10.585
89265W        W48768  26.563  23.987  13.362
89266W        W48769  19.672  32.485  14.863
89267W        W48770   5.339  36.409  12.530
89268W        W48771   1.246   2.962  13.410
89269W        W48772  23.148   8.166  11.474
89270W        W48773  11.259  20.275  12.072
89271W        W48774  18.599  43.788   4.209
89272W        W48775  20.223  23.108  13.054
89273W        W48776  40.800   4.730   4.601
89274W        W48777  44.008  42.856  11.101
89275W        W48778  28.626  28.553  12.442
89276W        W48779  15.796   3.234   2.208
89277W        W48780  27.986  39.907   3.727
89278W        W48781  42.424  28.645   2.269
89279W        W48782   7.276  41.450   3.692
89280W        W48783  25.526   6.331   3.284
89281W        W48784  21.163  16.737   3.808
89282W        W48785  37.083  20.208   1.767
89283W        W48786  30.111  32.448   2.353
89284W        W48787   4.784   5.734  14.280
89285W        W48788  37.047  30.429   3.870
89286W        W48789  21.152  44.935   3.673
89287W        W48790  37.984  42.890   2.785
89288W        W48791  17.799  24.058   4.189
89289W        W48792   5.436  14.327   0.374
89290W        W48793  11.149  28.510   2.846
89291W        W48794  27.025  18.078   2.188
89292W        W48795  13.256  31.513  13.861
89293W        W48796  10.371   3.853  10.570
89294W        W48797  32.136  27.520   2.682
89295W        W48798  17.245  13.325   2.395
89296W        W48799   6.273  16.774  11.417
89297W        W48800  16.298  29.144   1.372
89298W        W48801  38.819   7.751   4.207
89299W        W48802  43.842  38.488   0.333
89300W        W48803  33.616  28.072  10.494
89301W        W48804  13.242  39.467   2.234
89302W        W48805  24.700  38.842  14.307
89303W        W48806  25.590  36.443   0.317
89304W        W48807  35.436  28.998   4.667
89305W        W48808  35.051  27.087   2.192
89306W        W48809  10.315  27.985  13.446
89307W        W48810   1.970  12.362  13.431
89308W        W48811   5.271  26.574   1.346
89309W        W48812  28.563  37.901   0.756
89310W        W48813   0.749  17.556   2.776
89311W        W48814   4.802  17.749  10.575
89312W        W48815  27.972  14.820  14.305
89313W        W48816  13.239  14.132   4.196
89314W        W48817  36.573  31.477  12.992
89315W        W48818  33.512  26.686   3.690
89316W        W48819   9.288   9.354   2.751
89317W        W48820  12.847  40.959  11.010
89318W        W48821  14.700   7.228   3.275
89319W        W48822  19.283  34.003   3.640
89320W        W48823  11.817  27.114  14.381
89321W        W48824  16.654  39.935   1.782
89322W        W48825  40.304  14.326   3.176
89323W        W48826  40.021  41.490   0.830
89324W        W48827   7.805  37.085   2.900
89325W        W48828   5.347  43.864   4.667
89326W        W48829  23.202   9.861  14.784
89327W        W48830  30.141  21.542   0.776
89328W        W48831  27.668  38.006   1.870
89329W        W48832   0.254  24.170   3.161
89330W        W48833  42.960   4.306  14.340
89331W        W48834  30.040  10.839  12.420
89332W        W48835  16.300   1.942  14.301
89333W        W48836  30.917  31.953   5.205
89334W        W48837  43.306  11.721   3.851
89335W        W48838  23.125  37.083   3.383
89336W        W48839  40.053  15.122  12.429
89337W        W48840   0.855  31.411   4.761
89338W        W48841  38.018   3.404  13.924
89339W        W48842  21.199  21.579  10.161
89340W        W48843  35.440  31.429  14.836
89341W        W48844   7.328  31.478  12.091
89342W        W48845  15.259   4.772   1.292
89343W        W48846   9.795   5.791  14.341
89344W        W48847   2.261  39.486  14.513
89345W        W48848  26.584  32.942  11.125
89346W        W48849  11.169  22.125  13.955
89347W        W48850  12.696  14.692  10.976
89348W        W48851   5.352  22.248   3.785
89349W        W48852  19.149  42.833  10.461
89350W        W48853  41.934  20.036  14.403
89351W        W48854  41.535  14.830   3.698
89352W        W48855  42.336   1.318  11.503
89353W        W48856  29.019  32.620  13.829
89354W        W48857  33.893  14.296  11.883
89355W        W48858  42.482   0.754  11.094
89356W        W48859  22.214  33.881   3.757
89357W        W48860  33.519  24.230   5.249
89358W        W48861  41.818  35.552   2.364
89359W        W48862  17.599   1.441  10.954
89360W        W48863  31.551  32.585  13.511
89361W        W48864  26.088  34.405   1.411
89362W        W48865  19.063  17.140   2.416
89363W        W48866  14.831  37.077  14.801
89364W        W48867  27.118  31.911   3.225
89365W        W48868  26.187  42.010   1.776
89366W        W48869  28.617  11.233   3.256
89367W        W48870  33.124  22.596   2.779
89368W        W48871   1.424  24.106   1.283
89369W        W48872   7.334   2.937   1.902
89370W        W48873  16.639  38.371   2.762
89371W        W48874  42.912  26.986  10.060
89372W        W48875  16.106  12.346  13.969
89373W        W48876  31.960  34.110   1.932
89374W        W48877   9.377  32.592  14.817
89375W        W48878  30.440  17.640  12.464
89376W        W48879   0.808  25.982   9.473
89377W        W48880  30.584   2.818  11.500
89378W        W48881  42.907   7.374   1.733
89379W        W48882  22.651  26.022  12.982
89380W        W48883  42.777  32.493  14.468
89381W        W48884  29.009  39.345  13.837
89382W        W48885  21.163  29.623   3.866
89383W        W48886  32.517  44.788  14.853
89384W        W48887  15.618  23.083  11.424
89385W        W48888  44.755  19.133  13.371
89386W        W48889  21.684  33.087  12.491
89387W        W48890  12.617  36.557   4.137
89388W        W48891  44.928  36.398  10.559
89389W        W48892  16.666  20.731   3.193
89390W        W48893  44.274  11.750  14.377
89391W        W48894   4.435  12.807  13.319
89392W        W48895  43.993  11.812   4.712
89393W        W48896   4.911  42.896  14.515
89394W        W48897  21.071   5.774   9.956
89395W        W48898   0.255   5.818   2.706
89396W        W48899  26.027  35.975  13.509
89397W        W48900  11.731  17.759   5.256
89398W        W48901  34.088  39.501  11.435
89399W        W48902  13.133  17.174   4.659
89400W        W48903  40.905  14.266   2.729
89401W        W48904  15.580  18.623  11.579
89402W        W48905  42.011  13.272   2.277
89403W        W48906  41.322  22.078  11.544
89404W        W48907  38.329  26.692  13.830
89405W        W48908  11.819  12.337   0.903
89406W        W48909  37.541   7.273  13.002
89407W        W48910   0.770   4.390   1.819
89408W        W48911   7.889  31.486  12.041
89409W        W48912   4.706  16.245  10.632
89410W        W48913  28.503  36.455   3.289
89411W        W48914  23.222  29.934  12.040
89412W        W48915  35.976  21.600  12.991
89413W        W48916   8.296  32.987   3.339
89414W        W48917  18.779  10.309   2.203
89415W        W48918  10.326  13.791  14.871
89416W        W48919  10.165  40.512   1.216
89417W        W48920  36.017  24.138   1.847
89418W        W48921  40.390   6.381  13.985
89419W        W48922  43.329  13.673  12.531
89420W        W48923  26.094   8.684  14.457
89421W        W48924  37.515  39.414  14.378
89422W        W48925  40.307  33.946  13.377
89423W        W48926  16.073   2.380   1.763
89424W        W48927  13.326   1.469  14.311
89425W        W48928  14.121  17.120  11.538
89426W        W48929  43.281  29.027  10.551
89427W        W48930  32.423  34.424   3.224
89428W        W48931  19.271  27.603   2.348
89429W        W48932  40.447  27.099   2.242
89430W        W48933  25.515  40.408   0.296
89431W        W48934  42.522  42.800   1.305
89432W        W48935  13.252  16.140  13.317
89433W        W48936  27.980  35.893   2.890
89434W        W48937   2.841  27.034  11.972
89435W        W48938   3.329  25.097  12.486
89436W        W48939  40.449  40.900  11.492
89437W        W48940  44.274  20.727  10.549
89438W        W48941   1.785  23.094   3.276
89439W        W48942   2.468   7.724  13.356
89440W        W48943  24.193  23.991  12.961
89441W        W48944  13.206  28.603  12.034
89442W        W48945   9.366   6.697  14.312
89443W        W48946   5.827   8.318   2.397
89444W        W48947  20.657  19.054  13.837
89445W        W48948   6.368  23.084   3.342
89446W        W48949   0.247  44.388   3.238
89447W        W48950  42.852  28.947   0.399
89448W        W48951  31.492  30.613   0.943
89449W        W48952   8.309  13.820  13.323
89450W        W48953   1.292  14.813  14.423
89451W        W48954   7.341  16.658   3.258
89452W        W48955  37.465  11.330  13.393
89453W        W48956   2.827  14.138   3.840
89454W        W48957  39.039  17.780  11.493
89455W        W48958  35.100  13.782  11.592
89456W        W48959  34.965  15.112  12.065
89457W        W48960  42.457  31.643  11.378
89458W        W48961  15.275   3.291  11.457
89459W        W48962  28.674  36.369  12.915
89460W        W48963  25.696  37.537   3.362
89461W        W48964  28.974  30.950  14.383
89462W        W48965   2.873  14.158  11.106
89463W        W48966   0.862  39.977  11.548
89464W        W48967   6.841  43.783   2.885
89465W        W48968  41.429   6.755   1.901
89466W        W48969  12.662  25.690   4.121
89467W        W48970  32.455  44.317  11.109
89468W        W48971  39.421   9.212  10.405
89469W        W48972  39.894  42.018   2.867
89470W        W48973   7.807  27.991   4.637
89471W        W48974  15.628  32.897  12.364
89472W        W48975  21.660  17.263   1.881
89473W        W48976   3.743   6.900   4.275
89474W        W48977  26.548  34.484  12.554
89475W        W48978   5.744   9.379  12.918
89476W        W48979  20.137  44.924   1.366
89477W        W48980  21.100   4.225  10.560
89478W        W48981   2.956  25.132  12.474
89479W        W48982  25.540  18.158   2.217
89480W        W48983  23.010  38.989  13.913
89481W        W48984  18.202  15.138  13.495
89482W        W48985  37.873  18.193   2.303
89483W        W48986  11.712  43.325  10.069
89484W        W48987   6.846  33.041  11.946
89485W        W48988  29.646  13.135   0.854
89486W        W48989   7.868  20.727  10.930
89487W        W48990  40.474  20.601   1.313
89488W        W48991  42.921  13.794   3.183
89489W        W48992  44.904  18.699  14.427
89490W        W48993  35.065  20.271  13.046
89491W        W48994  32.896  17.160   0.749
89492W        W48995  21.195  31.470  11.517
89493W        W48996   7.888  43.793  11.911
89494W        W48997  32.403  32.128  14.370
89495W        W48998   8.716  21.063  10.613
89496W        W48999  25.663  32.072  10.005
89497W        W49000  24.500   2.231   5.319
89498W        W49001   7.394   1.327   3.161
89499W        W49002  28.086  27.688  10.960
89500W        W49003  31.052  28.127  13.869
89501W        W49004   9.697   0.854   0.839
89502W        W49005  19.758  11.645   0.480
89503W        W49006  18.231  36.941  14.379
89504W        W49007  29.644  29.136   1.281
89505W        W49008  34.098  44.460   2.220
89506W        W49009  32.988  43.318   2.697
89507W        W49010  22.722  28.055   4.652
89508W        W49011  42.487   8.838   3.724
89509W        W49012  32.546  25.064   3.278
89510W        W49013  14.095   3.775  12.385
89511W        W49014  39.875  40.010  14.471
89512W        W49015  16.078  38.911  13.965
89513W        W49016  11.622  25.111  10.074
89514W        W49017  40.854  12.618   0.747
89515W        W49018  16.597  28.071   2.830
89516W        W49019  28.661  44.775   1.264
89517W        W49020  16.293   2.284   2.839
89518W        W49021   3.828  44.433   1.313
89519W        W49022  19.131  27.605   0.371
89520W        W49023  10.681  34.459   0.874
89521W        W49024  40.026  23.600  12.898
89522W        W49025   3.321  31.014  12.896
89523W        W49026   4.899  35.926  11.856
89524W        W49027  13.702  40.542   2.677
89525W        W49028  25.170   6.713  14.306
89526W        W49029   5.779   0.860   0.895
89527W        W49030  23.726   8.352  12.852
89528W        W49031  36.386  35.858  10.515
89529W        W49032  35.507  18.733  14.411
89530W        W49033  17.716   6.885  12.991
89531W        W49034   7.868  38.027  14.970
89532W        W49035  28.998  26.167   4.300
89533W        W49036  31.547   1.775   1.838
89534W        W49037  36.951   9.274   4.692
89535W        W49038  30.983   3.456  10.928
89536W        W49039  42.399  23.602   3.334
89537W        W49040   0.447  23.595   0.484
89538W        W49041   0.423  10.654   1.280
89539W        W49042   2.416  24.578   3.222
89540W        W49043  42.817  40.359  14.807
89541W        W49044  21.565   5.192  11.574
89542W        W49045  22.531  20.177  14.909
89543W        W49046  37.911  41.469  12.478
89544W        W49047  36.065  11.707   3.665
89545W        W49048  19.222  42.986  13.324
89546W        W49049  28.565  32.134  11.589
89547W        W49050  40.944  41.507   1.713
89548W        W49051  25.060  34.899   2.313
89549W        W49052  42.952   1.395   2.247
89550W        W49053  39.425   5.821  14.950
89551W        W49054   2.947  37.943   2.691
89552W        W49055  21.615  28.489   2.390
89553W        W49056   1.269  42.015  14.862
89554W        W49057   7.848   2.255  12.824
89555W        W49058  25.591   1.832   0.292
89556W        W49059  25.588  32.057   2.311
89557W        W49060  40.406  11.169   2.750
89558W        W49061  37.407  19.626  13.457
89559W        W49062  36.404  19.180   4.627
89560W        W49063  35.381  43.373   3.187
89561W        W49064  38.004  13.128  11.935
89562W        W49065  13.287  44.494  13.809
89563W        W49066  13.341  40.045   1.272
89564W        W49067  20.091  13.699  12.423
89565W        W49068  11.739  11.647   4.192
89566W        W49069  44.944  29.931   0.428
89567W        W49070  22.253   6.256  14.450
89568W        W49071  14.209  21.049   1.434
89569W        W49072   7.355  28.453  12.504
89570W        W49073  15.611  15.264   0.737
89571W        W49074   9.217  35.393   9.592
89572W        W49075   5.799  22.727  12.907
89573W        W49076  40.814   6.686  12.911
89574W        W49077  30.039  18.214   0.243
89575W        W49078  28.438  27.086   2.272
89576W        W49079   3.908   1.396   9.993
89577W        W49080   7.181  13.115  10.116
89578W        W49081   5.744   6.706  10.485
89579W        W49082  38.846   1.425  10.901
89580W        W49083   7.901  22.091   3.326
89581W        W49084  14.652   3.389  14.308
89582W        W49085  10.185  33.508   3.655
89583W        W49086  43.509  31.433  12.492
89584W        W49087  15.301  23.653  14.348
89585W        W49088   9.192   8.342  11.423
89586W        W49089  13.710  25.091   4.669
89587W        W49090   5.713  40.380  14.997
89588W        W49091  43.997  28.052   1.368
89589W        W49092  20.605  43.510   3.234
89590W        W49093  39.030  15.128   4.677
89591W        W49094  14.272  10.730   0.775
89592W        W49095  18.727   5.780   1.382
89593W        W49096   8.160  11.654  10.498
89594W        W49097  13.674  17.790   4.305
89595W        W49098  13.231  11.735  10.139
89596W        W49099  16.141   7.225  10.988
89597W        W49100  10.182  41.038   4.829
89598W        W49101  16.619  14.243   3.689
89599W        W49102  42.824  28.134   1.261
89600W        W49103  40.358  31.455   1.404
89601W        W49104   1.240  18.131   3.289
89602W        W49105  15.320  13.811  11.425
89603W        W49106  31.613  22.029   0.800
89604W        W49107  26.531  23.193   3.723
89605W        W49108   3.793  36.028  13.000
89606W        W49109  27.519   1.973   4.806
89607W        W49110  40.310  32.998  12.839
89608W        W49111  35.973  17.777   3.275
89609W        W49112   2.902  23.080  11.529
89610W        W49113  12.740  39.318   4.182
89611W        W49114  31.986  19.584  14.342
89612W        W49115  19.565  32.535   1.347
89613W        W49116  13.735  27.008   4.782
89614W        W49117  43.436  26.535  13.394
89615W        W49118   4.385   4.302  14.028
89616W        W49119  19.747   5.217   1.830
89617W        W49120  25.194  43.420   1.220
89618W        W49121  30.974   8.302  13.817
89619W        W49122  35.963   5.227  12.542
89620W        W49123  33.545  17.094  12.931
89621W        W49124  25.538  28.108  10.963
89622W        W49125  15.713  21.020   0.302
89623W        W49126  42.894  39.993   1.859
89624W        W49127  23.030   5.386  14.908
89625W        W49128  20.721   3.383   0.855
89626W        W49129  42.972   0.482   1.301
89627W        W49130   6.351  14.794   0.419
89628W        W49131  26.670   8.234  14.922
89629W        W49132  33.467   1.305  11.949
89630W        W49133  37.039  20.133  14.364
89631W        W49134  14.776   8.303  13.313
89632W        W49135   9.694   8.742  10.531
89633W        W49136  42.516  36.498   3.261
89634W        W49137  26.699   5.706   1.354
89635W        W49138  28.132   2.775  13.981
89636W        W49139  29.478  21.625  14.993
89637W        W49140  32.058  14.622   4.762
89638W        W49141  20.694  18.131  14.302
89639W        W49142  31.084  21.553  13.526
89640W        W49143   1.301  24.573  10.460
89641W        W49144  28.559  14.782   0.923
89642W        W49145  25.570  33.410  10.504
89643W        W49146  12.618  17.674   2.403
89644W        W49147  27.980  42.486  10.926
89645W        W49148  33.929   8.776   9.932
89646W        W49149  30.495  31.448  12.893
89647W        W49150  36.904   8.831  14.329
89648W        W49151  32.130  29.624  14.367
89649W        W49152   4.895   7.703   1.283
89650W        W49153  28.938   5.225  13.939
89651W        W49154  43.977  35.508  13.904
89652W        W49155  28.482  15.120   1.257
89653W        W49156  17.094  41.318  14.832
89654W        W49157   6.275  41.933   0.788
89655W        W49158  39.895   9.664  12.459
89656W        W49159  11.333   2.338   2.215
89657W        W49160   9.667   4.893   0.734
89658W        W49161  40.396  19.281   4.307
89659W        W49162  14.209  35.915   4.179
89660W        W49163  34.582  23.127   2.687
89661W        W49164  13.661  39.842   1.786
89662W        W49165   0.955  15.782   2.827
89663W        W49166  33.064  16.638   4.746
89664W        W49167  34.010  26.029  11.394
89665W        W49168  19.761  25.492  11.526
89666W        W49169  20.214  44.311   1.888
89667W        W49170   7.417   0.871  11.505
89668W        W49171   4.319  18.108   1.727
89669W        W49172  19.638  17.087   0.320
89670W        W49173  10.293  27.511   3.735
89671W        W49174  16.150  10.157  11.003
89672W        W49175  40.932  21.221  12.399
89673W        W49176  31.407  10.826   3.837
89674W        W49177  36.898  41.906   0.430
89675W        W49178   1.758  41.016   3.817
89676W        W49179  42.516  30.541   2.800
89677W        W49180  16.764   3.328   3.635
89678W        W49181  40.946   8.196   3.165
89679W        W49182   2.796  23.490   0.944
89680W        W49183  33.599  19.556   1.875
89681W        W49184  44.447  17.616  14.389
89682W        W49185  29.612  21.622  10.535
89683W        W49186   0.374  15.582   3.801
89684W        W49187  27.173  21.716   3.236
89685W        W49188   9.232  13.346   4.601
89686W        W49189  38.506  28.668   0.773
89687W        W49190   7.221  10.369  12.858
89688W        W49191  40.041  14.140  12.939
89689W        W49192  35.499  40.501   1.924
89690W        W49193  10.280  30.468   3.687
89691W        W49194  28.457  26.579   0.728
89692W        W49195  43.305   3.726  10.513
89693W        W49196   7.859  15.795   0.371
89694W        W49197  20.056  33.545  13.454
89695W        W49198  11.331  33.937  10.469
89696W        W49199  14.709  27.019  14.424
89697W        W49200  38.525  19.114  11.000
89698W        W49201  32.959  19.226   0.927
89699W        W49202  12.192  29.927  10.961
89700W        W49203  32.445  25.651   1.779
89701W        W49204  40.945  42.956   5.284
89702W        W49205  36.459  34.888  11.974
89703W        W49206  40.520  40.943  10.917
89704W        W49207  25.588  15.705   2.802
89705W        W49208   1.854  12.826  11.533
89706W        W49209  30.992  39.059  13.026
89707W        W49210  37.869  14.240   5.302
89708W        W49211  23.135   6.265   4.775
89709W        W49212  30.030  44.268  11.884
89710W        W49213  41.973  39.457  10.577
89711W        W49214  15.806   1.411   2.353
89712W        W49215  36.065  21.644   2.257
89713W        W49216  34.941   6.303   2.807
89714W        W49217  18.691  20.074  12.578
89715W        W49218  42.361  29.547   4.831
89716W        W49219  37.871  43.288   0.884
89717W        W49220   6.368  20.184   1.324
89718W        W49221  43.509  35.428   4.161
89719W        W49222  24.529  34.396  12.960
89720W        W49223   6.245  13.776  11.471
89721W        W49224   7.185   2.772   4.714
89722W        W49225  26.468  38.443   1.384
89723W        W49226  44.468  27.985  13.402
89724W        W49227  36.876   2.787  14.903
89725W        W49228  37.024  29.104  12.544
89726W        W49229  44.489  40.880  10.612
89727W        W49230  17.120   9.859   9.980
89728W        W49231   4.436  32.915  14.937
89729W        W49232  22.161  40.309  14.918
89730W        W49233  40.806   6.738   4.617
89731W        W49234  40.911   3.774   0.895
89732W        W49235  10.375  23.539   1.219
89733W        W49236  37.453  21.045   3.744
89734W        W49237  40.450  38.342  13.527
89735W        W49238  12.846   4.766  14.987
89736W        W49239  15.753   2.352   3.294
89737W        W49240  36.558   1.869  10.408
89738W        W49241  11.769   0.814  13.472
89739W        W49242  14.766  12.138   2.900
89740W        W49243  15.745  43.799   1.904
89741W        W49244  20.586  42.032   2.708
89742W        W49245  24.055   7.822   3.735
89743W        W49246  16.244   3.787   1.438
89744W        W49247  39.850  33.520   1.339
89745W        W49248  35.488  41.944  13.873
89746W        W49249   2.966  22.079   4.656
89747W        W49250  10.724   7.746  14.858
89748W        W49251   0.838  42.975   3.199
89749W        W49252  23.545  13.161   4.247
89750W        W49253  17.090  17.769   0.471
89751W        W49254  27.651  13.672  12.387
89752W        W49255  15.150  32.115   5.164
89753W        W49256  24.559  28.171   3.212
89754W        W49257  13.602  16.696  11.424
89755W        W49258  39.024  16.155   4.826
89756W        W49259  21.249  21.163  14.788
89757W        W49260   0.407   6.688  14.374
89758W        W49261   6.330  30.926   2.370
89759W        W49262  12.323   3.271   1.828
89760W        W49263  34.923  27.051   1.380
89761W        W49264  44.899  19.116  14.937
89762W        W49265  20.728  25.962  13.548
89763W        W49266  44.813  33.619  14.897
89764W        W49267  14.596  13.321  12.000
89765W        W49268  17.742  34.027  11.498
89766W        W49269  22.216  30.435  14.021
89767W        W49270  43.795   1.296   2.277
89768W        W49271  36.557  17.784   2.877
89769W        W49272  33.906  21.668  12.919
89770W        W49273  19.627   9.745  13.864
89771W        W49274   3.921   6.234  13.841
89772W        W49275  42.346   8.682   3.328
89773W        W49276   7.884   8.679   5.197
89774W        W49277  24.725  17.159   2.874
89775W        W49278  18.776  27.170   0.930
89776W        W49279  34.038  31.913   1.694
89777W        W49280  21.236  21.571   4.195
89778W        W49281  42.302  32.107  10.497
89779W        W49282   2.406  17.612  11.904
89780W        W49283  10.853  32.584   2.885
89781W        W49284  28.023   0.274   3.853
89782W        W49285  24.569  33.413  12.412
89783W        W49286  42.321  18.098   2.791
89784W        W49287  40.885  18.597   3.757
89785W        W49288   2.328  31.440  12.384
89786W        W49289   5.292   5.728  13.021
89787W        W49290  44.801  38.919   0.333
89788W        W49291  43.308  31.435  14.909
89789W        W49292  40.910  22.550  10.517
89790W        W49293  30.528   0.461   0.463
89791W        W49294  16.208  24.048  11.534
89792W        W49295   0.362  34.894  14.425
89793W        W49296  44.405   4.794  14.847
89794W        W49297  16.231  35.439  13.051
89795W        W49298   3.282  30.041  13.809
89796W        W49299  35.496  15.202  11.112
89797W        W49300  27.494  25.187  14.970
89798W        W49301   8.362  13.346   3.709
89799W        W49302   5.411   7.382   4.189
89800W        W49303  40.467  44.882  13.046
89801W        W49304  27.684  42.860  13.923
89802W        W49305  30.506   4.759   4.169
89803W        W49306   9.688  32.451   3.251
89804W        W49307  36.573  37.467   0.408
89805W        W49308  41.360  14.711   3.193
89806W        W49309  10.811  24.575   2.370
89807W        W49310  40.884  11.673  10.906
89808W        W49311  30.473  39.043  13.808
89809W        W49312  32.030   4.246   3.378
89810W        W49313  28.521  14.260  13.315
89811W        W49314  42.340  11.157   1.848
89812W        W49315  20.214  17.305   1.236
89813W        W49316   8.171  13.769  12.970
89814W        W49317  26.003   0.447   5.239
89815W        W49318  25.112  23.531   3.691
89816W        W49319  37.922  25.216   0.375
89817W        W49320   9.773  28.618   1.298
89818W        W49321  26.559  15.599  12.974
89819W        W49322  41.476  15.764   1.930
89820W        W49323   6.351  26.177  11.427
89821W        W49324  34.493  29.174   9.664
89822W        W49325  13.741  38.069  11.064
89823W        W49326  42.413   2.819   3.309
89824W        W49327  23.154  36.066  14.832
89825W        W49328  41.514  32.067   1.865
89826W        W49329  11.329  40.433   0.919
89827W        W49330  35.934  16.783   1.827
89828W        W49331   6.810  30.561  14.009
89829W        W49332  18.605  29.127  12.406
89830W        W49333  29.608  41.413  10.630
89831W        W49334  44.345  31.094  11.491
89832W        W49335  39.980  10.734  11.858
89833W        W49336   1.343   2.423   3.847
89834W        W49337  40.418  25.202  10.017
89835W        W49338   0.425  27.581   3.702
89836W        W49339  32.597  31.907   9.995
89837W        W49340  40.904  21.649   0.462
89838W        W49341   1.434  25.147  12.874
89839W        W49342  19.573  37.909   0.765
89840W        W49343  11.728  16.629  14.441
89841W        W49344  25.569  29.139  11.970
89842W        W49345  42.463   3.384   1.926
89843W        W49346  18.717  15.236   0.879
89844W        W49347  19.148  32.987  11.424
89845W        W49348   3.931  37.471   2.841
89846W        W49349  24.643  36.012  14.924
89847W        W49350  35.033   6.871  14.302
89848W        W49351  23.230   4.264  12.558
89849W        W49352   1.766  22.155  12.526
89850W        W49353  37.504  31.953  10.550
89851W        W49354  12.736  34.112  13.397
89852W        W49355  17.298  38.448  13.396
89853W        W49356  17.185  23.166   3.674
89854W        W49357  28.142  38.473   2.185
89855W        W49358   2.721   8.248   3.308
89856W        W49359  21.731  42.370  11.585
89857W        W49360  13.349  23.567  10.042
89858W        W49361   8.389  32.590  12.970
89859W        W49362  15.578  20.540   1.833
89860W        W49363   3.731  44.442  13.925
89861W        W49364  35.603  10.289   2.269
89862W        W49365  23.117  44.878  12.827
89863W        W49366  34.466  33.427  11.885
89864W        W49367  29.995   5.259  13.998
89865W        W49368   6.889  16.142   5.204
89866W        W49369  40.871  38.038  12.948
89867W        W49370  34.403  29.983   2.375
89868W        W49371  21.065  16.782  10.945
89869W        W49372  40.916  10.235  10.644
89870W        W49373   8.897   5.912   0.879
89871W        W49374   9.768  26.554   3.672
89872W        W49375  31.414  18.619  11.011
89873W        W49376   9.380  35.063  11.913
89874W        W49377  42.521  24.053  12.458
89875W        W49378  19.267   9.342  14.785
89876W        W49379  38.964  14.307  14.926
89877W        W49380  15.131  37.436   4.143
89878W        W49381  10.381  34.380   3.169
89879W        W49382  12.749  21.088   9.997
89880W        W49383  28.095  41.972  10.516
89881W        W49384  29.946  22.112   2.329
89882W        W49385  34.377  13.144  12.041
89883W        W49386   3.894  44.267  12.067
89884W        W49387   1.930  43.820  13.340
89885W        W49388   7.307  15.167  13.891
89886W        W49389  29.956  43.486  11.119
89887W        W49390   4.438  25.974  14.867
89888W        W49391  34.004  17.114  11.474
89889W        W49392  20.251  30.447   1.331
89890W        W49393   2.887  27.079   0.854
89891W        W49394  14.796  36.512  11.049
89892W        W49395   5.393  17.245  11.546
89893W        W49396  34.473  24.662  12.396
89894W        W49397  19.076  36.851   2.290
89895W        W49398  37.998  37.470  13.967
89896W        W49399   8.809  39.389  11.463
89897W        W49400  20.590  27.976  12.924
89898W        W49401  28.157  30.023   1.265
89899W        W49402  11.181  23.721   1.316
89900W        W49403  11.212  14.769  13.326
89901W        W49404   5.291  35.045   4.332
89902W        W49405  19.538  14.334   0.849
89903W        W49406  22.097   4.771   3.202
89904W        W49407  38.398  17.272  12.878
89905W        W49408  20.746  29.460   0.303
89906W        W49409  34.973  12.249   4.246
89907W        W49410   3.716  18.704  11.001
89908W        W49411  11.280   7.665  12.056
89909W        W49412  22.563  31.959  12.347
89910W        W49413  43.936  22.160   5.225
89911W        W49414   9.267  34.604  12.029
89912W        W49415   3.800  15.225  13.316
89913W        W49416  42.783   8.242   1.443
89914W        W49417   6.247  44.440   2.408
89915W        W49418  30.481  36.057   1.225
89916W        W49419  19.593  18.615   1.391
89917W        W49420  23.054  41.834  13.800
89918W        W49421  10.828  42.521  12.384
89919W        W49422  11.666  41.922  11.437
89920W        W49423  12.690  11.198  11.869
89921W        W49424  29.543  12.128   0.730
89922W        W49425  17.303  13.156  15.000
89923W        W49426  38.476  33.429   3.146
89924W        W49427  29.001  16.805   1.285
89925W        W49428  15.686  42.308   0.857
89926W        W49429  14.096   2.426  13.472
89927W        W49430  33.409  19.723  11.931
89928W        W49431   7.754   5.266   1.308
89929W        W49432  25.132  31.124  11.593
89930W        W49433  16.281  10.695   1.839
89931W        W49434  35.419  41.827  11.019
89932W        W49435  14.699   6.223  14.804
89933W        W49436   3.375  39.456   1.760
89934W        W49437  26.089  44.794   1.370
89935W        W49438  39.352  43.294   1.878
89936W        W49439  37.467  29.057  14.008
89937W        W49440  25.705   6.328  11.605
89938W        W49441  11.213  21.119   1.905
89939W        W49442  20.211  34.959  12.984
89940W        W49443  26.664  26.570  14.783
89941W        W49444  33.535   3.815   0.895
89942W        W49445  26.690  10.205   2.748
89943W        W49446  42.438  30.953   2.304
89944W        W49447  12.156  35.885   4.269
89945W        W49448  23.076   4.816  14.777
89946W        W49449  24.546  29.534   4.656
89947W        W49450  37.952   1.359  14.469
89948W        W49451  32.938  12.247   5.244
89949W        W49452  27.114  21.712   2.417
89950W        W49453  29.067   1.905  11.581
89951W        W49454  35.856  14.205  14.357
89952W        W49455  42.414  18.743   5.261
89953W        W49456  11.731  26.661   5.269
89954W        W49457  35.600  27.617   0.315
89955W        W49458   9.746  31.524  10.968
89956W        W49459   0.288  20.137   2.855
89957W        W49460   2.415  40.318  13.007
89958W        W49461  10.674   5.737   2.191
89959W        W49462  22.537   7.697  14.907
89960W        W49463  42.324  13.273  14.810
89961W        W49464  43.418  40.345   1.248
89962W        W49465   2.471   9.216  11.054
89963W        W49466  12.301  13.785   0.814
89964W        W49467  37.954  14.145  10.405
89965W        W49468  39.952  13.659   0.933
89966W        W49469   5.436  32.914  13.366
89967W        W49470  33.065  23.987   3.790
89968W        W49471  40.994   7.805   4.114
89969W        W49472  13.789   4.228   3.753
89970W        W49473  18.172  42.873  12.554
89971W        W49474  38.875  35.041  12.435
89972W        W49475  17.555   7.208   4.244
89973W        W49476   4.759  41.017  12.823
89974W        W49477  39.924   1.794  10.458
89975W        W49478  27.516  28.169   2.757
89976W        W49479  15.162  27.657   3.808
89977W        W49480   4.849  38.443   4.690
89978W        W49481  38.379   2.858   5.174
89979W        W49482  36.531  27.107   1.714
89980W        W49483  16.166  37.908  13.058
89981W        W49484  36.052  30.426   1.398
89982W        W49485   8.763  12.718  10.492
89983W        W49486  33.494  19.709   3.867
89984W        W49487  11.734  43.000  11.890
89985W        W49488  11.204   5.753  12.969
89986W        W49489  27.501  12.135  13.966
89987W        W49490  21.114  15.170   1.331
89988W        W49491  13.161  43.924   4.236
89989W        W49492  43.420   7.724   2.777
89990W        W49493  21.654   0.980  12.954
89991W        W49494  29.614  18.075   2.778
89992W        W49495  26.664  15.313   0.740
89993W        W49496  18.266  20.084   1.769
89994W        W49497  13.299  16.615  14.900
89995W        W49498  32.897  40.335   0.324
89996W        W49499  25.682   2.831  12.395
89997W        W49500  15.600  34.914   3.380
89998W        W49501   7.201  14.293  12.081
89999W        W49502  17.292   5.436   0.906
90000W        W49503  30.084  13.724   1.262
90001W        W49504  17.238  21.691  12.401
90002W        W49505  41.387  10.215   1.836
90003W        W49506  19.549  34.496  14.458
90004W        W49507  31.092  14.633  11.017
90005W        W49508  21.178   9.223   5.206
90006W        W49509  15.802   3.223   3.843
90007W        W49510  43.917  24.509  14.006
90008W        W49511   2.471  32.932   3.775
90009W        W49512  10.647  30.536  14.444
90010W        W49513   4.913  16.110  13.858
90011W        W49514  39.488  26.544  14.449
90012W        W49515  42.917  38.413  10.512
90013W        W49516  43.969   6.843  10.611
90014W        W49517   5.236   3.719  12.949
90015W        W49518   3.895  44.993   1.221
90016W        W49519  37.855  15.260  12.420
90017W        W49520  21.557   3.851   0.897
90018W        W49521  31.443  11.217  11.443
90019W        W49522  30.009  31.962   0.463
90020W        W49523   4.380  38.446  13.874
90021W        W49524  27.996   3.789   0.248
90022W        W49525  37.965  34.090  12.557
90023W        W49526  15.198  25.602  12.548
90024W        W49527  33.521  36.013   2.662
90025W        W49528   9.691  22.056  14.860
90026W        W49529  22.022   9.314  12.859
90027W        W49530  12.216  14.196  13.499
90028W        W49531  16.594  43.429   1.880
90029W        W49532  27.656   1.870  13.470
90030W        W49533  34.885   7.741  12.005
90031W        W49534   1.341  10.294   4.247
90032W        W49535   6.864  39.062  13.477
90033W        W49536  34.904   4.249  10.943
90034W        W49537  28.063  13.830  12.902
90035W        W49538  40.006   4.350  13.900
90036W        W49539  40.308  16.080  10.433
90037W        W49540  31.083  43.321   0.387
90038W        W49541   9.870  12.789  11.856
90039W        W49542  39.442  34.387  13.502
90040W        W49543  37.406  14.806   0.444
90041W        W49544   2.358  29.958  10.605
90042W        W49545  38.507  41.983   0.728
90043W        W49546   3.267  28.102  11.991
90044W        W49547   7.670  17.294   3.787
90045W        W49548  29.621   1.908  13.867
90046W        W49549  17.230  35.880   3.790
90047W        W49550  42.838  13.239  12.847
90048W        W49551  35.987   7.319  10.991
90049W        W49552  30.524  18.125  13.898
90050W        W49553  14.330  23.990   0.271
90051W        W49554  40.847   8.298   0.944
90052W        W49555   8.897  18.777   4.731
90053W        W49556  11.333  43.436  13.003
90054W        W49557  24.600  22.142   1.696
90055W        W49558  21.736  16.188   2.837
90056W        W49559  34.896  29.959  11.492
90057W        W49560  29.053  21.177  14.287
90058W        W49561   1.860  29.522   0.350
90059W        W49562  15.624  15.243  10.971
90060W        W49563  31.049  40.455   1.811
90061W        W49564  29.055   3.785   0.862
90062W        W49565  41.962  13.329  13.022
90063W        W49566  41.014   3.902  13.852
90064W        W49567   0.274  25.537   0.845
90065W        W49568  36.089  34.438  10.494
90066W        W49569  39.373  15.774  12.346
90067W        W49570  29.659  31.403  12.434
90068W        W49571  19.652  39.916   2.791
90069W        W49572  26.497   4.427  10.601
90070W        W49573  24.598  17.273   0.361
90071W        W49574  17.204  18.617  11.377
90072W        W49575  19.723  38.839  12.058
90073W        W49576  18.207  28.452  12.024
90074W        W49577  37.445   3.727   0.453
90075W        W49578  37.946  36.408  13.003
90076W        W49579  38.021   6.361   1.754
90077W        W49580  28.007  43.489   2.346
90078W        W49581   0.922  36.470  11.922
90079W        W49582   8.657  13.749  12.874
90080W        W49583   1.886   1.952   2.372
90081W        W49584  22.696   6.707   0.929
90082W        W49585   3.429  10.728   3.361
90083W        W49586  14.767   9.733   0.256
90084W        W49587  24.562   7.391  14.418
90085W        W49588  44.757   4.363   3.772
90086W        W49589  43.436  31.572   0.367
90087W        W49590  15.159  43.803   0.340
90088W        W49591   7.708   2.916  13.817
90089W        W49592  21.576   1.932  11.987
90090W        W49593  34.923  26.647   1.818
90091W        W49594  14.195   9.760   1.860
90092W        W49595  30.944  27.528  11.608
90093W        W49596  39.962  27.941  10.627
90094W        W49597   8.250  20.644   0.878
90095W        W49598  11.175  31.138   0.934
90096W        W49599  42.482  39.356  13.429
90097W        W49600   0.308  18.686  14.419
90098W        W49601  17.650  19.174   2.766
90099W        W49602  27.161  35.021   1.737
90100W        W49603  29.013   8.378  11.985
90101W        W49604  43.880  18.548   3.811
90102W        W49605   4.305   6.311  13.357
90103W        W49606  27.064  29.535  12.089
90104W        W49607  15.222  23.700  12.981
90105W        W49608  44.341  25.614   5.188
90106W        W49609  43.856  29.939  11.542
90107W        W49610  18.218   0.860  14.415
90108W        W49611  17.267  30.928   2.274
90109W        W49612  28.568  23.185  12.445
90110W        W49613  32.095  26.045  12.472
90111W        W49614   4.287  34.884  14.514
90112W        W49615  33.583  28.631   2.349
90113W        W49616   9.810  32.948  11.593
90114W        W49617  44.297  10.275  11.421
90115W        W49618   5.384  37.875  12.350
90116W        W49619  30.131  27.529  13.880
90117W        W49620  18.245  41.859  12.558
90118W        W49621  27.155  40.414   0.924
90119W        W49622  17.070  36.490  11.533
90120W        W49623  20.535  40.017  13.352
90121W        W49624  23.632  19.105  11.523
90122W        W49625  17.562  44.773  13.019
90123W        W49626  42.992  39.946   4.632
90124W        W49627  18.227  33.528   3.152
90125W        W49628  18.182  19.080  11.942
90126W        W49629  42.987  14.309  12.451
90127W        W49630  34.925   6.296  13.880
90128W        W49631  36.353  43.429   4.765
90129W        W49632   2.815  33.518   2.786
90130W        W49633  10.739  32.521  14.338
90131W        W49634  13.168   7.267   5.259
90132W        W49635  31.079  18.742   4.607
90133W        W49636  31.124  15.781  10.431
90134W        W49637  35.985   8.881  11.521
90135W        W49638  21.255   4.307  13.345
90136W        W49639   8.712  36.059  10.007
90137W        W49640  17.636   4.868  13.317
90138W        W49641  23.636  29.642   1.286
90139W        W49642  10.832  23.209  10.577
90140W        W49643  37.580  37.058   0.848
90141W        W49644  38.008  18.587   0.795
90142W        W49645  31.601  32.951   1.810
90143W        W49646   9.856   9.650  12.550
90144W        W49647  21.583  34.888  10.896
90145W        W49648   7.791  21.078   5.229
90146W        W49649   9.749  35.943  14.402
90147W        W49650  13.125  14.280   3.179
90148W        W49651  42.316  31.444  11.945
90149W        W49652   7.904  24.562  11.598
90150W        W49653  27.071  20.187  12.558
90151W        W49654   0.342  43.814  10.126
90152W        W49655  19.700  42.805   4.138
90153W        W49656  44.878  38.336   1.270
90154W        W49657  42.906  38.861   2.279
90155W        W49658  41.538  10.675  13.853
90156W        W49659  23.700  35.093  14.796
90157W        W49660   2.239  26.618  14.826
90158W        W49661  38.848   2.342  13.002
90159W        W49662  36.937  10.230   2.888
90160W        W49663  40.399   6.329   0.961
90161W        W49664  43.301  23.552   3.259
90162W        W49665  16.799  38.433  11.893
90163W        W49666   9.824  40.012   0.424
90164W        W49667  36.446   5.794  11.940
90165W        W49668  11.753  15.309  14.453
90166W        W49669  30.561  18.710   0.808
90167W        W49670  18.581  42.968   2.818
90168W        W49671  25.202  32.885  11.008
90169W        W49672  24.043  11.226   0.776
90170W        W49673  23.203   1.948   0.335
90171W        W49674   6.694  42.365   1.339
90172W        W49675  17.101  38.939   1.846
90173W        W49676  31.441  39.867  11.383
90174W        W49677   3.221  11.748   3.815
90175W        W49678  40.447   3.934   0.360
90176W        W49679   3.277   7.831   0.446
90177W        W49680   2.825  14.146   0.749
90178W        W49681   9.250  31.981  11.096
90179W        W49682   5.366   3.385  13.527
90180W        W49683   4.255   6.856  13.004
90181W        W49684  26.183  14.654  12.010
90182W        W49685  21.072  12.667  14.466
90183W        W49686  24.660  21.053  11.459
90184W        W49687   8.394   0.787   1.766
90185W        W49688  21.187  37.988   0.933
90186W        W49689  18.648  21.224  11.980
90187W        W49690  14.597  12.673   0.314
90188W        W49691   7.251  24.995   3.777
90189W        W49692  40.878  32.633   1.845
90190W        W49693  31.493  24.162   0.349
90191W        W49694  23.635  44.993  13.453
90192W        W49695  15.090  25.103   4.776
90193W        W49696   3.828  15.233   3.748
90194W        W49697   2.830  10.327  13.466
90195W        W49698  11.363  35.926   1.380
90196W        W49699   6.216  15.709   0.278
90197W        W49700  32.421  36.542   1.751
90198W        W49701   5.886  38.484  12.515
90199W        W49702  42.828  14.822  10.952
90200W        W49703  26.596  17.234  12.388
90201W        W49704  39.878  13.246   2.767
90202W        W49705  11.323  15.309  13.416
90203W        W49706  36.551   2.772   1.371
90204W        W49707  35.031  10.148  11.389
90205W        W49708  27.119  44.260   9.639
90206W        W49709  28.115   0.908  12.076
90207W        W49710  25.187  36.906  13.457
90208W        W49711  39.938   4.342   4.711
90209W        W49712  14.097  12.168   0.294
90210W        W49713   6.422  10.804  12.439
90211W        W49714  36.367   2.849   3.192
90212W        W49715   0.398  23.071   9.674
90213W        W49716  15.813  44.402  10.523
90214W        W49717   5.850  31.425  13.816
90215W        W49718  19.534  32.938  10.406
90216W        W49719  28.676  42.808  14.950
90217W        W49720  41.907  40.928   3.708
90218W        W49721  10.306   9.854   3.189
90219W        W49722   1.477  38.977  14.385
90220W        W49723  10.162  40.979   3.374
90221W        W49724  17.120  12.628  14.988
90222W        W49725  41.339  12.310  11.991
90223W        W49726  27.035  20.611   4.790
90224W        W49727  15.231  30.012  11.929
90225W        W49728  44.438  12.275   2.773
90226W        W49729  37.012   5.746   3.757
90227W        W49730  30.593  25.976  14.871
90228W        W49731   6.796   7.715   4.129
90229W        W49732   3.951   5.250   2.275
90230W        W49733  44.297  43.876   4.124
90231W        W49734  33.108  41.007  14.804
90232W        W49735   6.851  23.104   0.448
90233W        W49736  32.458   5.856  13.359
90234W        W49737  16.632  43.820   0.341
90235W        W49738  11.634  36.039   4.352
90236W        W49739  31.129  30.113  11.860
90237W        W49740  22.744  26.489   0.448
90238W        W49741  18.260  20.725  14.886
90239W        W49742  23.497  37.863  14.906
90240W        W49743  23.014  12.149  11.962
90241W        W49744  31.905  29.466   4.642
90242W        W49745  30.008  40.378   4.750
90243W        W49746  21.644  18.707  14.905
90244W        W49747   0.463  21.191  11.905
90245W        W49748  33.579   9.786  11.918
90246W        W49749  27.163  15.732   9.973
90247W        W49750  25.490  13.603  11.903
90248W        W49751  42.496  20.127   2.693
90249W        W49752  18.723   6.816  11.089
90250W        W49753  21.259  27.651   3.231
90251W        W49754  42.425  28.009  13.053
90252W        W49755   5.316   9.350  14.773
90253W        W49756   9.842  28.533  11.491
90254W        W49757   6.189  15.779  12.427
90255W        W49758  17.210  39.438   1.883
90256W        W49759  39.491  10.362  14.280
90257W        W49760  13.116   3.427   3.238
90258W        W49761   4.387  39.042  12.884
90259W        W49762  11.866  38.530   0.884
90260W        W49763  40.546  13.219  11.052
90261W        W49764  38.387  22.674   3.198
90262W        W49765  16.772   7.388   0.916
90263W        W49766  26.463  29.033  11.566
90264W        W49767  26.642  39.962  12.445
90265W        W49768   6.736  15.156   2.270
90266W        W49769   8.330  16.192   1.900
90267W        W49770   9.385   0.796  14.316
90268W        W49771  17.199  19.093   3.632
90269W        W49772   8.205  28.600   4.786
90270W        W49773  27.052  14.250   0.772
90271W        W49774   0.398  42.387  13.372
90272W        W49775  18.754  33.891  14.341
90273W        W49776   7.186  24.215   2.868
90274W        W49777  17.142  43.415   0.262
90275W        W49778   3.747  20.647  11.486
90276W        W49779  10.259   9.676   0.430
90277W        W49780  44.833  31.140   4.198
90278W        W49781  29.980   3.877  12.867
90279W        W49782  17.291  33.884   0.940
90280W        W49783   6.852   1.289  11.907
90281W        W49784  13.301   8.172  13.365
90282W        W49785  23.598  43.299   3.317
90283W        W49786   3.402  12.310   4.288
90284W        W49787   4.890  24.060  13.860
90285W        W49788  22.570  44.003  14.000
90286W        W49789  23.656  41.871   3.345
90287W        W49790   2.856  44.272   5.095
90288W        W49791  36.507  19.216  11.092
90289W        W49792  39.994  22.053   1.860
90290W        W49793  17.712  34.080   0.431
90291W        W49794  13.841  19.641   0.767
90292W        W49795  25.145  17.073  14.306
90293W        W49796  22.235  29.083  12.876
90294W        W49797  22.718   4.245  13.859
90295W        W49798  20.187  26.077   1.883
90296W        W49799  31.044  13.164  10.049
90297W        W49800  25.702  39.956   2.815
90298W        W49801  44.985  10.752  14.411
90299W        W49802  27.068   7.800   3.763
90300W        W49803   7.865  24.984  13.406
90301W        W49804  21.226   4.788   0.358
90302W        W49805  33.416  11.172  12.407
90303W        W49806  11.193  23.730   4.328
90304W        W49807  31.049  39.012   1.713
90305W        W49808   1.881   2.949  13.052
90306W        W49809   5.354   7.238   3.349
90307W        W49810   8.160  14.628  10.531
90308W        W49811  41.993  19.222   4.602
90309W        W49812  32.970  21.652  13.961
90310W        W49813  25.681  25.117   1.929
90311W        W49814  10.332  24.209  14.894
90312W        W49815   7.275  23.690  11.007
90313W        W49816  17.566  29.644  11.093
90314W        W49817   5.908  38.917   2.403
90315W        W49818  15.125  37.033   1.387
90316W        W49819  22.722  43.950   4.310
90317W        W49820  13.163  15.622  14.760
90318W        W49821   6.794  40.473   4.775
90319W        W49822  42.485  32.904  14.393
90320W        W49823   1.807   3.956  11.023
90321W        W49824  13.650  38.333  12.354
90322W        W49825  44.760  39.962   2.298
90323W        W49826  18.766  20.740   3.222
90324W        W49827  29.034  22.024   0.797
90325W        W49828  25.604   9.695  13.892
90326W        W49829  17.727  37.376   2.883
90327W        W49830  18.167  16.666   1.342
90328W        W49831  21.233  30.067  11.059
90329W        W49832   3.263  19.049  14.853
90330W        W49833  15.210  34.502  11.858
90331W        W49834  38.011  25.540  12.569
90332W        W49835  15.818  26.589   3.694
90333W        W49836   9.720  20.128   4.298
90334W        W49837   8.768  39.387   1.267
90335W        W49838  15.292  23.047   3.236
90336W        W49839   5.929  17.711  13.814
90337W        W49840   8.852   8.807   4.343
90338W        W49841   7.870  38.020   3.381
90339W        W49842  44.411  15.271   4.163
90340W        W49843   8.277  40.906   3.734
90341W        W49844  32.498   4.284  10.985
90342W        W49845  15.727   5.872  11.106
90343W        W49846  43.299  26.578  13.944
90344W        W49847  17.247  22.692   1.225
90345W        W49848  13.326   7.405   1.238
90346W        W49849  20.067  17.773   3.207
90347W        W49850   4.442  38.539   0.754
90348W        W49851  34.489   9.644  11.095
90349W        W49852  35.911  25.145   0.953
90350W        W49853  24.107  33.477  12.450
90351W        W49854  37.382   8.165   3.766
90352W        W49855  35.419  27.063  10.602
90353W        W49856  38.027  18.626   3.310
90354W        W49857  38.062  11.317  14.828
90355W        W49858  25.507   5.393   4.712
90356W        W49859  10.256  27.074   3.165
90357W        W49860  28.671   5.221  13.022
90358W        W49861   1.443   3.290   3.640
90359W        W49862  19.138  41.907  14.501
90360W        W49863  10.289  11.139   3.832
90361W        W49864  10.149  24.613  14.297
90362W        W49865  40.927  14.115  10.960
90363W        W49866  10.222   1.934  10.609
90364W        W49867  13.123  35.886   5.789
90365W        W49868   7.289  21.545  11.500
90366W        W49869  30.624  12.660  11.873
90367W        W49870  38.821  28.553   1.297
90368W        W49871  19.622   1.383   3.759
90369W        W49872   8.237   4.915  13.350
90370W        W49873  36.976  29.441   2.714
90371W        W49874  28.104  10.682   2.867
90372W        W49875  19.655  37.894   2.293
90373W        W49876  32.436  25.700  12.990
90374W        W49877  31.907  44.935   0.342
90375W        W49878  31.406  13.845  11.419
90376W        W49879   0.857  35.092   4.752
90377W        W49880  37.908   1.816  11.112
90378W        W49881  33.012  33.031   4.167
90379W        W49882   0.479  15.766  14.936
90380W        W49883  43.890  12.672   3.261
90381W        W49884  24.675  42.474  14.975
90382W        W49885  19.570   2.782   4.816
90383W        W49886  25.516  31.580  11.050
90384W        W49887  35.901  21.617   1.374
90385W        W49888  16.303  29.544  13.321
90386W        W49889  25.621   7.205  14.335
90387W        W49890  39.347  32.580   4.164
90388W        W49891  17.679  44.812   1.887
90389W        W49892  37.949  26.015  14.283
90390W        W49893  27.063  29.932   2.355
90391W        W49894  25.035  26.060  10.977
90392W        W49895  43.464  25.472   4.269
90393W        W49896  44.770   7.767   1.909
90394W        W49897  42.000  36.920  13.379
90395W        W49898  23.570   6.277   4.743
90396W        W49899  43.913  12.253   1.739
90397W        W49900  39.976   8.254  10.923
90398W        W49901  26.484  14.222   1.301
90399W        W49902   7.910  10.703  14.416
90400W        W49903  12.684  17.302  14.387
90401W        W49904  44.946  21.675   0.826
90402W        W49905   9.230  19.285   5.688
90403W        W49906   3.428   1.354  14.358
90404W        W49907  10.784  16.172   4.161
90405W        W49908  25.096  35.954  12.445
90406W        W49909  37.478   8.730   2.716
90407W        W49910  27.075  13.774   0.478
90408W        W49911  17.733  30.578   1.336
90409W        W49912   6.755   8.680   0.386
90410W        W49913  33.893  27.642   1.260
90411W        W49914   8.831  37.843  12.401
90412W        W49915  41.789  30.044   1.251
90413W        W49916   7.231  17.289  13.462
90414W        W49917  35.996  21.091   2.875
90415W        W49918  33.447  35.000   1.450
90416W        W49919  14.602   7.401  12.892
90417W        W49920  22.089  20.261   2.243
90418W        W49921  10.766  28.585   3.867
90419W        W49922  12.842  12.255   3.659
90420W        W49923   5.913  29.941  10.629
90421W        W49924   9.177   6.815   2.206
90422W        W49925  25.029  40.883   4.147
90423W        W49926  33.580  27.106  11.890
90424W        W49927  38.984  33.938   4.629
90425W        W49928  43.272  23.634   4.332
90426W        W49929  26.499  23.996   1.780
90427W        W49930  41.884  22.129   2.773
90428W        W49931   4.856   8.824   5.302
90429W        W49932  18.554   4.845  11.079
90430W        W49933  26.505  28.583  11.435
90431W        W49934  31.973  32.992   2.318
90432W        W49935  23.213  28.150  11.546
90433W        W49936   3.445  25.090   1.229
90434W        W49937  24.568  33.084  12.468
90435W        W49938  30.112  30.011  13.358
90436W        W49939  38.939   3.455  13.391
90437W        W49940   4.872   5.317  14.404
90438W        W49941  37.420  33.053   3.148
90439W        W49942  42.989   4.412  13.311
90440W        W49943  32.093  11.710   0.831
90441W        W49944  35.383  22.618   1.726
90442W        W49945  19.607  12.832  11.976
90443W        W49946  19.681  40.898   2.305
90444W        W49947  44.917  36.065  10.540
90445W        W49948   4.914  34.570   3.378
90446W        W49949  11.190  25.678   0.380
90447W        W49950  35.913  20.634   0.415
90448W        W49951  18.273   6.731  14.025
90449W        W49952  33.430  41.023  12.491
90450W        W49953  39.047  42.785  13.806
90451W        W49954  37.873  38.928  10.620
90452W        W49955   8.265  25.575  10.441
90453W        W49956  13.764  22.239  10.405
90454W        W49957  20.221  14.790   4.754
90455W        W49958   5.417  41.822   4.151
90456W        W49959   6.798   6.730   4.125
90457W        W49960  39.468   5.336   0.945
90458W        W49961  25.142   3.840   2.746
90459W        W49962  25.188  33.960  11.961
90460W        W49963  24.537  22.574   0.254
90461W        W49964   3.711  37.878  12.416
90462W        W49965  44.998  37.893   2.894
90463W        W49966  41.496  25.129   0.855
90464W        W49967   8.716   9.349  14.390
90465W        W49968  30.647  20.097   1.251
90466W        W49969  10.296  28.576   1.697
90467W        W49970   2.738  17.085  12.567
90468W        W49971  31.074  23.131  14.338
90469W        W49972   9.787  25.544   0.404
90470W        W49973  36.918   4.752   4.653
90471W        W49974   6.723  12.250  13.427
90472W        W49975  18.208   1.831   4.329
90473W        W49976   0.327  30.613   1.908
90474W        W49977  22.631   4.863  13.942
90475W        W49978   5.689  19.743  12.960
90476W        W49979  12.296   5.926   2.715
90477W        W49980   0.805  34.970   1.885
90478W        W49981   3.321  25.669   3.205
90479W        W49982  13.619  42.353   3.865
90480W        W49983   7.319  36.399   2.775
90481W        W49984   6.891  25.486   2.878
90482W        W49985   2.742  37.415   4.177
90483W        W49986  11.139   0.470  11.435
90484W        W49987   7.906  28.564  10.424
90485W        W49988  16.185  36.933  14.924
90486W        W49989  13.348  32.898   0.399
90487W        W49990  34.913  10.349   4.243
90488W        W49991  19.224   3.426   2.226
90489W        W49992   6.761  34.885  11.100
90490W        W49993  44.332   8.339   1.349
90491W        W49994  38.969  36.512   0.924
90492W        W49995  29.091  30.096   1.864
90493W        W49996  30.447   6.350   3.268
90494W        W49997  32.930  36.412  13.921
90495W        W49998  11.181  12.322  14.778
90496W        W49999  15.197  30.051  11.012
90497W        W50000  37.979  37.420   2.302
90498W        W50001  41.533  23.491  10.612
90499W        W50002  44.794  24.197  13.806
90500W        W50003  41.333  12.726   1.260
90501W        W50004  33.435  39.950   3.687
90502W        W50005  44.436  20.649   2.334
90503W        W50006   2.259  22.692   4.182
90504W        W50007  44.355  19.715   0.816
90505W        W50008  44.465   2.937  14.345
90506W        W50009   8.656  43.510  10.453
90507W        W50010  22.237   3.847  11.395
90508W        W50011  31.120  42.487   4.614
90509W        W50012  29.105  17.755   0.289
90510W        W50013   2.260  13.757   3.800
90511W        W50014  14.768  20.543   3.237
90512W        W50015  28.452  19.169  10.479
90513W        W50016   5.370  13.727  12.468
90514W        W50017   4.752  26.964   0.791
90515W        W50018   6.192  32.636  12.906
90516W        W50019   2.787   3.854   2.870
90517W        W50020   3.383  32.505  11.382
90518W        W50021  17.756   1.876  12.027
90519W        W50022  15.767  17.079   4.695
90520W        W50023   4.735  21.065   4.675
90521W        W50024  30.588  41.933   4.792
90522W        W50025  16.308  30.011  14.014
90523W        W50026   5.743  27.122   3.351
90524W        W50027   7.202  26.151  10.639
90525W        W50028   7.351  20.579   0.475
90526W        W50029  17.566   2.449   4.284
90527W        W50030  16.767  30.622  14.381
90528W        W50031  37.917   8.231   1.735
90529W        W50032  33.981   7.759   2.286
90530W        W50033  15.774  16.103  13.378
90531W        W50034  16.175  26.612   2.786
90532W        W50035  14.185  28.604  12.409
90533W        W50036  43.853  19.131  12.870
90534W        W50037  26.505  23.597   3.241
90535W        W50038  36.578  43.914  13.861
90536W        W50039  41.389  40.482   0.892
90537W        W50040  11.685  10.707   2.229
90538W        W50041  39.374  10.734   0.948
90539W        W50042  43.811  28.564  11.108
90540W        W50043  15.241  11.268  11.460
90541W        W50044   0.491   6.323   0.400
90542W        W50045   9.661  16.798  13.959
90543W        W50046  23.229  28.616  12.960
90544W        W50047  13.342  19.070   1.264
90545W        W50048  26.192  26.545  13.431
90546W        W50049   9.692  32.550  14.290
90547W        W50050  25.052  20.210  11.112
90548W        W50051  43.468  21.186  14.475
90549W        W50052  39.832  29.547  12.573
90550W        W50053   2.825  18.581  13.792
90551W        W50054  18.721  31.030  14.442
90552W        W50055  39.816  42.450   0.879
90553W        W50056  22.146  32.532  14.773
90554W        W50057  40.443  22.679  14.304
90555W        W50058  41.997  28.931  12.547
90556W        W50059   1.811  42.946   2.415
90557W        W50060   4.859  32.964  14.916
90558W        W50061  19.738  18.660  14.845
90559W        W50062  31.896  37.564  12.864
90560W        W50063  21.757  22.721  10.927
90561W        W50064   8.750  18.589  13.960
90562W        W50065  41.870   9.385   0.295
90563W        W50066  25.486  15.710  14.472
90564W        W50067  13.642  15.271   3.327
90565W        W50068   7.690   9.187  12.865
90566W        W50069  39.860  40.899   0.781
90567W        W50070  18.554   2.452  12.369
90568W        W50071   7.212  10.771  13.819
90569W        W50072  39.021  19.658   1.717
90570W        W50073  17.647  26.191   2.227
90571W        W50074  41.470  25.700  13.886
90572W        W50075  39.837  36.043  13.412
90573W        W50076  24.975  43.468  14.905
90574W        W50077  26.634   6.410   1.880
90575W        W50078  15.187  10.332  14.817
90576W        W50079  44.781  31.469  11.537
90577W        W50080  11.222  13.667   4.787
90578W        W50081   9.250  29.659   2.398
90579W        W50082  13.827  38.354  14.922
90580W        W50083  24.979   8.899   2.755
90581W        W50084   3.831  17.176   0.860
90582W        W50085  34.951  40.448   4.788
90583W        W50086  34.910  18.567   4.723
90584W        W50087  19.776   8.331  12.491
90585W        W50088  31.531  15.753  14.767
90586W        W50089  10.380  13.730  11.528
90587W        W50090  15.814  35.532  12.392
90588W        W50091  11.697  30.454   2.783
90589W        W50092  27.606  26.599  11.036
90590W        W50093  13.765  42.003   0.264
90591W        W50094  13.344  28.527   1.923
90592W        W50095  20.164  20.729  12.381
90593W        W50096  16.745   4.346  11.081
90594W        W50097  20.235  14.645   3.708
90595W        W50098  35.895   6.422   5.208
90596W        W50099  31.591  19.202   3.745
90597W        W50100  21.172  12.132  14.976
90598W        W50101  17.699   8.164   2.896
90599W        W50102  24.126  27.059   0.440
90600W        W50103  17.196  12.790   2.708
90601W        W50104  36.847  40.001  10.960
90602W        W50105  20.733  19.594   2.332
90603W        W50106  32.487  28.461  12.862
90604W        W50107   1.817  42.284  13.811
90605W        W50108  29.099  18.165   0.876
90606W        W50109  14.237  26.646   3.719
90607W        W50110  40.318   8.393  11.116
90608W        W50111  44.776   5.343  11.043
90609W        W50112   5.772   1.306  10.895
90610W        W50113  34.472  36.966   2.190
90611W        W50114   2.373   6.798  14.770
90612W        W50115  35.103  10.254   2.401
90613W        W50116  44.372  14.822   4.114
90614W        W50117  15.115  14.610   1.267
90615W        W50118  17.298  13.295  12.948
90616W        W50119  20.213  40.485   3.750
90617W        W50120   0.444  36.962   3.664
90618W        W50121  24.035  14.748  12.840
90619W        W50122  16.726   9.216   2.809
90620W        W50123  30.919  29.614   3.720
90621W        W50124  20.035  23.056   0.911
90622W        W50125  15.318  40.936  14.485
90623W        W50126  15.243  44.843  12.345
90624W        W50127  39.344  42.871  11.515
90625W        W50128   9.385   2.366   0.331
90626W        W50129   2.252  32.015   1.851
90627W        W50130  13.231  40.463  11.426
90628W        W50131  22.246  12.235   1.421
90629W        W50132  37.503   1.367  12.368
90630W        W50133  21.107  40.509  11.060
90631W        W50134   4.785  19.205  10.517
90632W        W50135  20.571  25.001   3.647
90633W        W50136   9.805   0.401  11.426
90634W        W50137  38.871  36.058  11.388
90635W        W50138  33.939  35.914   3.793
90636W        W50139  25.626   8.205  12.891
90637W        W50140   5.821  35.592  12.357
90638W        W50141   2.229  26.674  14.466
90639W        W50142   2.928  10.170  12.020
90640W        W50143  10.175  40.475  12.481
90641W        W50144   6.762  34.979   0.443
90642W        W50145  34.116  32.457   3.202
90643W        W50146  42.473  44.926  11.510
90644W        W50147  37.875  19.097  11.573
90645W        W50148   5.216  28.635   4.787
90646W        W50149  34.045  44.758   3.250
90647W        W50150  41.293  23.578  13.994
90648W        W50151  26.184  39.988   3.153
90649W        W50152  35.488  39.855  11.543
90650W        W50153  34.564  17.302  11.409
90651W        W50154  35.976  35.968  11.998
90652W        W50155   7.900  43.422  13.435
90653W        W50156  30.467  12.218   5.132
90654W        W50157  24.201  13.607   1.849
90655W        W50158  41.797  15.818   3.776
90656W        W50159  22.110  37.070  13.990
90657W        W50160   4.383   3.249   0.918
90658W        W50161   1.372  15.241  13.365
90659W        W50162   0.866   8.761  14.476
90660W        W50163  40.450  38.536   2.336
90661W        W50164  19.550  25.112  14.931
90662W        W50165  38.529  22.725  11.080
90663W        W50166  23.613   8.701  10.968
90664W        W50167   9.768  40.521   3.635
90665W        W50168  32.064  32.034   2.899
90666W        W50169  11.715  17.305   4.235
90667W        W50170  10.707  22.245  14.393
90668W        W50171  20.173  24.589  12.359
90669W        W50172  39.007  10.274  12.047
90670W        W50173  30.161   6.835  10.415
90671W        W50174   0.473  21.093   4.121
90672W        W50175   2.459   6.336   1.907
90673W        W50176  17.657  28.113  13.501
90674W        W50177  12.661  13.110   2.798
90675W        W50178  37.076   0.475   2.710
90676W        W50179   8.704  26.579  12.565
90677W        W50180  22.069  18.292   2.307
90678W        W50181   1.363  27.485   3.317
90679W        W50182   6.265  29.569  10.414
90680W        W50183   1.327  44.491   0.916
90681W        W50184  14.721  29.111  10.117
90682W        W50185  18.088  34.863   0.957
90683W        W50186  21.747   8.293   2.883
90684W        W50187   3.443   7.749   0.791
90685W        W50188  20.216  16.258   3.817
90686W        W50189  39.339   5.252  11.565
90687W        W50190  27.189  28.663  11.093
90688W        W50191  31.025  23.524  13.449
90689W        W50192  33.053  33.584   3.189
90690W        W50193  38.462  21.611   4.217
90691W        W50194  32.426  16.605   2.681
90692W        W50195  26.000  37.074  11.098
90693W        W50196   3.929  22.659   4.666
90694W        W50197  38.047   2.423  12.943
90695W        W50198  14.622   1.771  14.900
90696W        W50199  23.564  42.285   2.805
90697W        W50200  19.773  37.387   4.748
90698W        W50201  14.678  44.928   3.328
90699W        W50202  21.548  41.017  13.884
90700W        W50203  33.034  22.242  11.912
90701W        W50204  36.889   6.683   1.845
90702W        W50205   0.264  25.707  12.086
90703W        W50206  38.474  11.303  14.775
90704W        W50207   4.373  22.644  12.357
90705W        W50208  40.837  22.129  11.106
90706W        W50209  13.204  20.146   3.201
90707W        W50210  23.063  33.420  10.974
90708W        W50211   8.217  12.339  14.855
90709W        W50212  27.569  43.882   0.399
90710W        W50213  36.541  23.066  11.006
90711W        W50214   7.297  21.612   1.935
90712W        W50215  22.514  34.445  12.057
90713W        W50216  31.524  13.126   2.674
90714W        W50217   0.749  22.543   0.855
90715W        W50218  34.945  26.959  10.535
90716W        W50219   5.226   6.356   4.325
90717W        W50220  23.511   4.752  10.960
90718W        W50221  14.801  19.759   2.199
90719W        W50222  39.029  26.039   4.206
90720W        W50223  32.139  15.116   3.347
90721W        W50224  38.327  19.250  11.403
90722W        W50225  43.331   5.803  11.522
90723W        W50226  38.339  23.720   2.244
90724W        W50227   3.423  28.950   0.449
90725W        W50228  19.770  11.227   1.929
90726W        W50229  13.750  13.340   0.793
90727W        W50230  20.188  13.768  14.792
90728W        W50231   8.816  14.717   3.766
90729W        W50232   2.807  38.488   2.775
90730W        W50233  15.701  19.573  10.517
90731W        W50234  23.121  30.446   2.844
90732W        W50235  39.973  35.948   3.831
90733W        W50236   3.910   7.703  12.967
90734W        W50237  41.438  10.739   2.263
90735W        W50238  12.311   8.348   3.767
90736W        W50239   7.767  34.985   3.852
90737W        W50240   7.697  15.764   1.353
90738W        W50241  13.283  31.086  13.910
90739W        W50242  13.606  19.687   1.446
90740W        W50243  33.100  26.090   0.375
90741W        W50244  40.827  15.724   4.749
90742W        W50245  34.938  40.429  14.367
90743W        W50246  22.042  37.336   1.926
90744W        W50247   6.374  36.508  12.563
90745W        W50248  23.077  42.311   2.375
90746W        W50249  25.025  34.983  14.913
90747W        W50250   3.215  44.496  13.517
90748W        W50251  27.194  21.617  13.847
90749W        W50252  32.550  12.818  10.446
90750W        W50253  28.100   3.238   0.865
90751W        W50254  41.297   5.194   0.423
90752W        W50255  12.784  25.028  14.834
90753W        W50256  42.415  24.021   0.366
90754W        W50257  13.701  35.363  13.525
90755W        W50258  14.240  14.336  14.340
90756W        W50259  41.410   7.327  13.794
90757W        W50260   0.888  31.413  12.503
90758W        W50261  19.636  42.836   0.381
90759W        W50262   7.279  12.174  14.762
90760W        W50263  36.881  36.074   4.134
90761W        W50264  22.539  17.234   5.179
90762W        W50265  17.711   2.345  10.599
90763W        W50266   9.691  22.656   0.833
90764W        W50267  33.413   7.324   2.896
90765W        W50268   9.184  28.156  14.993
90766W        W50269   1.352  27.656  11.884
90767W        W50270   5.914   8.344  12.527
90768W        W50271  27.134  26.036   3.211
90769W        W50272  13.754  15.742  13.958
90770W        W50273  38.821  18.140  13.374
90771W        W50274  34.004  22.744  13.318
90772W        W50275   5.691  13.724  14.289
90773W        W50276  42.413  39.492  11.888
90774W        W50277  28.081  34.542  13.426
90775W        W50278  31.611   6.740   4.610
90776W        W50279  24.482  39.345  12.898
90777W        W50280  11.848  11.168  11.890
90778W        W50281  37.924   4.278   0.423
90779W        W50282   6.219  37.468  13.425
90780W        W50283  39.539   1.413   4.619
90781W        W50284  19.157  16.682   2.409
90782W        W50285  36.042  11.717   2.179
90783W        W50286  38.570   2.267  13.873
90784W        W50287   1.844  14.717   2.727
90785W        W50288  39.962  13.748  13.372
90786W        W50289  36.491  29.050   1.408
90787W        W50290  24.549   9.857   2.712
90788W        W50291  39.334   7.285  14.827
90789W        W50292   1.255  11.706  13.930
90790W        W50293  31.630  10.378   0.846
90791W        W50294  40.898   9.341  13.023
90792W        W50295  13.638   4.747   3.285
90793W        W50296   3.367  38.544  14.947
90794W        W50297  30.944   2.764   3.651
90795W        W50298  44.418   6.215  14.458
90796W        W50299  39.481   3.837   2.386
90797W        W50300  13.320  42.515  12.354
90798W        W50301   6.231  43.820  12.376
90799W        W50302  15.700  22.077   0.936
90800W        W50303  20.149  34.107  11.479
90801W        W50304  16.268   9.149  10.508
90802W        W50305  33.573  27.068  11.390
90803W        W50306  32.402  39.903  11.473
90804W        W50307   5.933  38.532   2.787
90805W        W50308  23.598   2.240   5.270
90806W        W50309  30.122  42.418  12.482
90807W        W50310  16.726   8.286   2.708
90808W        W50311  43.395  31.411  14.328
90809W        W50312  16.139   7.877  12.397
90810W        W50313   5.376   9.649  14.841
90811W        W50314  31.540  10.268  10.976
90812W        W50315  33.042  20.658   0.880
90813W        W50316   1.337  16.681  12.082
90814W        W50317   6.801  29.621   0.908
90815W        W50318  10.636  26.017  13.352
90816W        W50319   9.658   5.418  10.982
90817W        W50320   3.222  16.795  11.512
90818W        W50321   1.932   6.301   4.625
90819W        W50322  39.491  34.533   3.358
90820W        W50323  10.379   9.769  14.370
90821W        W50324  31.062  27.116   1.776
90822W        W50325  35.362  37.991  14.862
90823W        W50326  12.333  39.921  14.447
90824W        W50327  29.621  36.937   5.174
90825W        W50328  13.691  43.017  13.008
90826W        W50329   8.396  20.646  12.555
90827W        W50330  41.401   1.867  12.037
90828W        W50331  25.516  38.447  11.431
90829W        W50332  40.480  21.714   1.841
90830W        W50333  28.525  31.107   4.337
90831W        W50334  32.952  21.206  13.442
90832W        W50335  40.346   7.709  14.026
90833W        W50336  20.182  12.251  13.461
90834W        W50337   9.342  26.059  11.439
90835W        W50338  30.997   5.744  12.440
90836W        W50339   3.298  21.712   2.901
90837W        W50340  39.820  10.648  14.368
90838W        W50341  44.824   8.873   1.854
90839W        W50342   5.705  14.821  12.412
90840W        W50343  14.270   1.413   2.859
90841W        W50344  28.112   0.487  14.826
90842W        W50345  34.942  21.713   2.285
90843W        W50346  32.629  42.941  14.844
90844W        W50347   6.246  11.675   3.166
90845W        W50348  41.903  32.951  12.346
90846W        W50349  15.231   2.243  10.602
90847W        W50350   5.784  12.321  12.562
90848W        W50351  34.585  36.922  11.855
90849W        W50352  24.672   1.817  12.837
90850W        W50353   4.847  26.064  12.896
90851W        W50354  23.629  21.693  11.372
90852W        W50355  29.435  27.128   1.930
90853W        W50356  11.701  32.484  11.519
90854W        W50357  41.031  32.486   3.646
90855W        W50358  29.520  18.289  12.043
90856W        W50359   5.886  23.169   3.368
90857W        W50360  30.040  18.103  13.031
90858W        W50361  31.435  16.668  11.098
90859W        W50362  18.083  16.081   1.819
90860W        W50363  38.967  31.080  13.961
90861W        W50364  37.429  31.491  13.424
90862W        W50365  40.885   2.893  13.535
90863W        W50366  22.597  43.447   4.765
90864W        W50367  14.204  15.205  11.089
90865W        W50368  30.951  23.093  14.786
90866W        W50369   7.350  35.929  12.366
90867W        W50370  10.270  29.648  13.542
90868W        W50371  18.615  21.142   5.144
90869W        W50372   8.744  31.606  14.817
90870W        W50373  40.807  17.099  12.569
90871W        W50374  26.097  30.981  13.435
90872W        W50375  11.348  44.398  14.953
90873W        W50376  38.865  24.704   0.284
90874W        W50377   9.310  25.651   4.315
90875W        W50378  43.296  22.231  12.491
90876W        W50379   6.275  19.677  12.473
90877W        W50380   1.923  44.260   5.182
90878W        W50381  22.104  26.692  10.934
90879W        W50382  35.539  40.925  12.852
90880W        W50383  36.569  11.740   4.674
90881W        W50384  13.253  18.756   1.362
90882W        W50385  28.582  25.012   2.184
90883W        W50386   4.446   2.876  13.543
90884W        W50387  16.599   8.668  13.502
90885W        W50388   8.255  39.875   3.829
90886W        W50389  25.194   4.795   0.774
90887W        W50390  43.811   3.892   1.263
90888W        W50391  15.766  34.543  13.543
90889W        W50392  40.320  12.832   0.333
90890W        W50393   0.913   1.809  10.553
90891W        W50394  17.754   4.789   0.838
90892W        W50395  43.996  42.316  11.562
90893W        W50396  30.462  27.561  13.977
90894W        W50397  35.992   7.877  12.395
90895W        W50398  30.128   6.221   2.289
90896W        W50399  28.676  29.160  11.090
90897W        W50400  19.077  13.623   2.682
90898W        W50401   7.729  29.610  10.938
90899W        W50402  21.137   9.724  13.525
90900W        W50403  26.693  12.840  12.843
90901W        W50404  16.236  28.522   2.368
90902W        W50405   7.230  27.128  14.852
90903W        W50406  27.657  29.110  12.039
90904W        W50407   8.397  40.828   0.302
90905W        W50408  14.314  12.694  14.310
90906W        W50409   8.806   4.803  14.317
90907W        W50410  14.333  24.513   0.315
90908W        W50411   8.203  29.024   0.822
90909W        W50412  35.931  22.695  11.390
90910W        W50413   1.403   2.231  14.792
90911W        W50414   5.698   0.418   4.154
90912W        W50415  16.212  32.444  11.570
90913W        W50416  28.121   9.208   4.227
90914W        W50417  20.268  29.634  14.866
90915W        W50418  39.534  15.091  14.311
90916W        W50419  42.357   9.363   1.875
90917W        W50420  27.970  15.775   4.278
90918W        W50421  41.794  42.476   1.434
90919W        W50422  14.689  44.371   4.805
90920W        W50423  15.322   4.226   3.676
90921W        W50424  25.534  13.654  14.958
90922W        W50425  29.579  29.630   2.401
90923W        W50426  33.017  30.115  12.041
90924W        W50427  12.205  12.322  14.010
90925W        W50428  29.945  18.061   2.384
90926W        W50429   8.722  28.542  13.315
90927W        W50430   1.761  29.439  11.552
90928W        W50431   9.832   4.861  10.542
90929W        W50432   6.380   1.348   2.770
90930W        W50433  39.063  31.991  13.441
90931W        W50434  22.531  28.011  14.873
90932W        W50435   3.909  35.894   2.350
90933W        W50436  37.929  31.602   2.261
90934W        W50437  12.769  39.861  13.346
90935W        W50438  27.193  27.041  10.455
90936W        W50439   8.839  38.349  11.547
90937W        W50440  33.895  44.370  11.112
90938W        W50441  10.255  31.957  12.923
90939W        W50442   8.290  28.562  13.891
90940W        W50443  34.103  36.404   0.264
90941W        W50444  26.176  13.733   3.330
90942W        W50445   2.319  11.859  12.085
90943W        W50446  20.713   2.460   2.369
90944W        W50447  17.272  21.205  14.409
90945W        W50448  11.797  41.526   4.823
90946W        W50449  14.633  41.407   0.731
90947W        W50450  18.585  37.581  14.309
90948W        W50451  41.969  24.018   1.703
90949W        W50452  44.816   5.721   3.816
90950W        W50453  12.653  26.675   3.190
90951W        W50454  40.928   1.937  12.446
90952W        W50455  18.787  15.123   4.188
90953W        W50456   5.729  18.663  11.417
90954W        W50457   4.920  20.076  12.898
90955W        W50458  34.540  36.546  14.317
90956W        W50459   9.849  24.574  14.912
90957W        W50460  23.583  36.084  11.480
90958W        W50461  11.755  25.127   3.738
90959W        W50462   4.758  34.049   4.811
90960W        W50463  35.581  14.261   1.720
90961W        W50464  25.047  37.441   5.184
90962W        W50465  40.033  36.394  13.319
90963W        W50466  24.099  24.554   4.614
90964W        W50467  14.615  26.208  12.884
90965W        W50468   1.314  17.792   2.874
90966W        W50469  15.209  28.500  12.837
90967W        W50470   6.389   4.351   1.425
90968W        W50471   7.174   5.382   2.310
90969W        W50472  35.364  12.828  11.398
90970W        W50473  33.999   4.806  13.991
90971W        W50474  21.128  39.440   2.862
90972W        W50475  29.080  37.444  10.626
90973W        W50476  31.051  43.296  14.875
90974W        W50477  33.935   0.343  12.980
90975W        W50478  28.452  42.502  11.549
90976W        W50479  14.334  21.740  12.465
90977W        W50480  18.140  37.395  11.527
90978W        W50481  16.213   7.298   0.253
90979W        W50482  38.362  40.331   4.714
90980W        W50483  16.684  32.507  11.896
90981W        W50484  42.837   0.928  11.587
90982W        W50485  29.102   2.423  11.029
90983W        W50486  25.581  41.916  10.923
90984W        W50487  31.586  44.429  13.534
90985W        W50488   5.348  19.758  10.973
90986W        W50489  13.323  24.017  14.847
90987W        W50490  19.086   0.849  10.579
90988W        W50491   5.924  34.917  14.783
90989W        W50492  32.137   7.280  11.392
90990W        W50493  14.824  14.301   2.857
90991W        W50494   3.378  29.065   0.852
90992W        W50495  23.239  41.296  12.442
90993W        W50496  40.326   7.357  12.948
90994W        W50497  26.164  12.666   4.350
90995W        W50498  20.204  20.273   3.180
90996W        W50499   9.200  21.059  13.524
90997W        W50500  16.107   3.826  13.522
90998W        W50501   4.284  37.064   2.701
90999W        W50502  37.875  33.879   3.753
91000W        W50503   2.879   2.233   3.677
91001W        W50504  23.658  41.519  14.339
91002W        W50505   6.395   0.368  12.022
91003W        W50506  17.287  10.878   4.167
91004W        W50507  28.179  20.752  11.898
91005W        W50508  20.659  20.642   4.824
91006W        W50509  23.070  26.036   2.416
91007W        W50510  15.163  15.682   2.878
91008W        W50511  44.447  16.670   1.333
91009W        W50512   7.829  39.557   0.414
91010W        W50513  14.674  32.082  14.791
91011W        W50514  39.386   5.843   3.257
91012W        W50515  10.849  25.679   4.294
91013W        W50516  27.102  42.505  11.040
91014W        W50517  24.684   6.897   0.919
91015W        W50518  37.971  29.126  11.543
91016W        W50519  44.395  32.399   2.216
91017W        W50520   9.850  42.798   0.803
91018W        W50521  12.765  24.531  14.453
91019W        W50522   4.331  20.597  13.504
91020W        W50523  27.675  10.709   1.889
91021W        W50524  13.778  28.128   1.421
91022W        W50525   8.373  19.584   3.308
91023W        W50526  21.118  22.628   0.731
91024W        W50527   9.299  28.140   4.267
91025W        W50528  28.951  31.024   3.293
91026W        W50529  42.978  35.098   2.264
91027W        W50530  17.589   0.963   3.205
91028W        W50531  30.036  31.903   3.269
91029W        W50532   2.446  39.029  11.445
91030W        W50533  13.192  35.413  13.871
91031W        W50534  12.650  37.362   1.360
91032W        W50535  26.468  33.423  13.839
91033W        W50536   7.795  42.020  12.561
91034W        W50537  32.538  14.270   9.444
91035W        W50538  40.461   2.321  12.444
91036W        W50539  36.935  13.310  14.979
91037W        W50540  14.313  11.245  10.077
91038W        W50541  33.999  12.134  12.911
91039W        W50542  12.135  17.597  14.969
91040W        W50543  42.910  39.478   4.249
91041W        W50544  18.781  33.974   3.380
91042W        W50545  33.379  36.558   3.675
91043W        W50546  22.581  43.793   3.210
91044W        W50547   2.966  37.575   4.617
91045W        W50548  43.419   6.204   0.851
91046W        W50549  42.283  15.679   4.811
91047W        W50550  25.538  38.915   4.757
91048W        W50551  35.455   5.396  12.867
91049W        W50552   6.326  15.749   0.825
91050W        W50553   2.373  35.883   1.754
91051W        W50554   3.292  14.112  10.581
91052W        W50555  22.643  20.168   4.195
91053W        W50556  40.031  26.660   4.188
91054W        W50557  14.788  30.920   1.897
91055W        W50558   4.366  25.664  14.002
91056W        W50559  16.095   7.749   1.747
91057W        W50560  35.056  17.112   4.295
91058W        W50561   6.293  27.466   1.382
91059W        W50562  18.688  23.212  13.403
91060W        W50563  13.209   6.246  14.309
91061W        W50564   9.196  24.032   2.790
91062W        W50565  11.833  35.494  12.904
91063W        W50566  41.990  10.262   4.339
91064W        W50567  15.170  22.530   2.815
91065W        W50568  36.096  38.952   1.763
91066W        W50569  38.008  25.495   1.429
91067W        W50570  39.370  24.152  14.371
91068W        W50571  10.182  31.914  10.027
91069W        W50572  28.629  16.208   1.308
91070W        W50573  33.073   1.784  13.865
91071W        W50574  30.958  22.213   3.283
91072W        W50575  12.342  13.712  14.336
91073W        W50576  40.521  44.334  10.981
91074W        W50577   2.924  26.656   0.859
91075W        W50578   9.357   5.252  12.533
91076W        W50579   0.416  27.640  12.856
91077W        W50580   2.753   8.247  11.558
91078W        W50581   7.744  16.767  12.908
91079W        W50582  42.840  31.091  11.477
91080W        W50583  16.782  17.585  12.522
91081W        W50584  34.414  16.749  14.474
91082W        W50585  25.047  27.573  14.937
91083W        W50586  38.986  41.935  12.394
91084W        W50587   4.883  21.043  12.396
91085W        W50588  31.581  38.363  10.546
91086W        W50589   7.415  10.240  11.517
91087W        W50590  27.020  26.587  12.887
91088W        W50591   7.393  23.000   3.152
91089W        W50592  27.533  40.866  14.503
91090W        W50593  33.996  43.775  10.894
91091W        W50594  20.216  14.146   2.325
91092W        W50595  12.338  38.071  14.957
91093W        W50596  41.989   1.965  11.108
91094W        W50597  18.746  38.392   0.775
91095W        W50598  34.966  32.425  12.073
91096W        W50599  24.160  38.532  11.121
91097W        W50600   6.805  31.434  13.954
91098W        W50601  41.484  32.624   3.288
91099W        W50602  17.670  33.024   1.785
91100W        W50603  44.848  28.568  12.951
91101W        W50604  13.599  32.590   0.330
91102W        W50605  34.606  39.061  11.998
91103W        W50606  12.806  18.169  14.430
91104W        W50607  10.232  13.694   2.335
91105W        W50608  29.123   4.702   2.194
91106W        W50609  12.648  19.630  10.600
91107W        W50610  24.223  43.963   5.311
91108W        W50611  34.595   9.182  12.533
91109W        W50612  29.989  16.305  11.508
91110W        W50613  25.635  41.822   2.253
91111W        W50614   5.296  23.017  11.860
91112W        W50615  10.719  16.226   0.924
91113W        W50616  14.174   3.458  12.881
91114W        W50617  14.231  37.997  11.531
91115W        W50618  37.942  38.041  12.533
91116W        W50619   0.787  36.851  10.419
91117W        W50620  35.997   0.883  13.828
91118W        W50621  44.401  20.215  12.877
91119W        W50622  31.477  23.733  13.061
91120W        W50623  37.981  35.471  11.539
91121W        W50624  15.161  31.002  11.861
91122W        W50625  13.297  15.102   1.234
91123W        W50626  30.006  15.708  10.943
91124W        W50627  26.000  15.640   4.828
91125W        W50628  23.183   0.772   3.326
91126W        W50629   8.791  31.149   2.806
91127W        W50630  36.435  25.060   0.934
91128W        W50631  43.021   6.700   3.732
91129W        W50632  28.047  27.992  13.319
91130W        W50633   0.792   6.182  10.599
91131W        W50634  41.991  14.781  10.916
91132W        W50635  22.126   4.907  10.403
91133W        W50636  26.017  15.717   3.344
91134W        W50637  12.639   0.831   1.355
91135W        W50638  31.482   6.321   4.639
91136W        W50639  13.636  17.071   2.340
91137W        W50640  31.921  16.148  10.078
91138W        W50641  17.071  15.662   0.862
91139W        W50642  33.004  41.433   2.241
91140W        W50643  41.926   3.267   3.151
91141W        W50644  18.150  11.823  12.018
91142W        W50645   4.827  17.133   3.669
91143W        W50646  17.174  42.481  11.066
91144W        W50647  29.559  28.165  13.947
91145W        W50648  30.427  30.943   0.916
91146W        W50649  17.593  32.966  12.044
91147W        W50650  15.272  36.026   0.401
91148W        W50651   9.158  35.386   2.402
91149W        W50652  30.936   3.288   0.454
91150W        W50653   9.300  39.322  13.942
91151W        W50654  30.613   5.426  12.508
91152W        W50655  10.309   7.674   4.735
91153W        W50656  38.926  18.592  11.860
91154W        W50657  42.820  25.199   2.410
91155W        W50658   2.840  21.551   0.424
91156W        W50659  28.558  35.522   2.257
91157W        W50660  43.272   1.955  11.961
91158W        W50661  11.781   8.219  12.491
91159W        W50662   6.777   9.783  12.084
91160W        W50663  35.510   4.921  14.280
91161W        W50664   9.321   3.449  14.010
91162W        W50665   9.814  28.158   0.316
91163W        W50666  22.521  33.091  11.397
91164W        W50667  19.194   4.738  13.870
91165W        W50668  32.994  23.580  11.579
91166W        W50669  42.885  38.371  12.950
91167W        W50670  27.957   8.290  14.371
91168W        W50671  15.267  19.243   4.290
91169W        W50672  44.964  13.151  12.463
91170W        W50673  44.820  33.036  11.373
91171W        W50674  18.701  19.207   3.818
91172W        W50675  18.648  15.286   0.368
91173W        W50676   2.307  30.461   2.799
91174W        W50677  11.745  39.898  11.105
91175W        W50678  30.006  39.959  12.864
91176W        W50679  41.348  37.953   3.175
91177W        W50680   2.845  22.675   3.859
91178W        W50681  38.892  33.622   0.404
91179W        W50682  18.217  23.114  13.818
91180W        W50683   6.839  28.678  13.523
91181W        W50684  26.959  11.627   2.306
91182W        W50685  30.993  11.669  13.311
91183W        W50686  41.522   5.411   0.837
91184W        W50687  20.691  41.787   3.692
91185W        W50688  27.167  12.326   2.763
91186W        W50689  21.099  26.049  10.421
91187W        W50690  44.270   0.398   4.202
91188W        W50691  44.962   5.299  11.929
91189W        W50692  33.494   3.761  13.921
91190W        W50693  32.552  41.405  12.873
91191W        W50694  27.577   2.900  13.479
91192W        W50695  41.367  26.953  11.069
91193W        W50696  36.521   0.842   9.962
91194W        W50697   3.730  22.120   2.819
91195W        W50698  21.055  12.633   1.841
91196W        W50699  33.948  17.604  10.555
91197W        W50700  11.838   4.758  12.894
91198W        W50701  19.696   6.389  14.435
91199W        W50702   9.286  41.954   1.696
91200W        W50703   2.740  40.856  13.478
91201W        W50704  22.733  15.739   2.817
91202W        W50705  40.924  23.695  14.483
91203W        W50706   9.669   6.222   0.423
91204W        W50707  22.124  10.139   0.826
91205W        W50708  20.591  28.103   3.684
91206W        W50709  36.520  41.431   0.266
91207W        W50710  10.287  26.499   5.286
91208W        W50711  22.105   4.725   2.312
91209W        W50712   6.722  17.697   3.869
91210W        W50713   3.722  35.041  11.095
91211W        W50714  11.355  16.653  12.042
91212W        W50715  33.120  23.654   1.919
91213W        W50716  10.142  26.598  13.866
91214W        W50717  25.195  23.042  13.913
91215W        W50718  42.973  24.075  10.642
91216W        W50719  28.563  43.951  14.433
91217W        W50720  23.009   3.717  13.360
91218W        W50721  39.901   0.844  11.471
91219W        W50722  33.509   8.242   2.340
91220W        W50723  10.364  38.870  11.118
91221W        W50724  10.150  39.550   1.344
91222W        W50725  16.674  15.594  14.416
91223W        W50726   9.845  24.629  14.434
91224W        W50727  32.925   0.776  14.947
91225W        W50728  10.301  19.069   3.706
91226W        W50729   4.211  12.348   3.178
91227W        W50730  23.130   4.257   0.918
91228W        W50731  27.503   3.816  13.919
91229W        W50732  31.121  15.796  14.510
91230W        W50733  41.498  34.088  11.106
91231W        W50734  10.766  29.454   4.176
91232W        W50735  32.453  23.197   0.945
91233W        W50736  40.359  23.579   3.687
91234W        W50737   9.196  29.114  13.046
91235W        W50738  42.784  42.459   2.783
91236W        W50739  35.427   0.483   4.730
91237W        W50740  28.185  17.120  13.850
91238W        W50741  28.446  12.667   0.815
91239W        W50742   6.751  38.562   3.716
91240W        W50743  32.087  15.804  14.964
91241W        W50744  26.502   8.173   1.851
91242W        W50745   5.796  43.930   0.755
91243W        W50746  44.858  40.481   4.669
91244W        W50747  44.409  27.678   5.573
91245W        W50748  29.480  13.124  13.382
91246W        W50749   3.905  42.960  14.300
91247W        W50750  39.387   9.668   4.282
91248W        W50751  27.104  15.712  11.966
91249W        W50752  19.240   6.731   2.195
91250W        W50753  18.225  17.762  11.911
91251W        W50754  26.524  31.471  13.960
91252W        W50755  25.186  24.670   2.781
91253W        W50756  24.053  34.084   0.323
91254W        W50757  39.830  39.439  11.576
91255W        W50758  29.943   4.381  13.024
91256W        W50759  28.081  35.005   0.793
91257W        W50760   7.194  35.406   3.761
91258W        W50761  17.775  20.680  10.901
91259W        W50762  20.090  39.008   4.136
91260W        W50763  21.524  31.953  12.946
91261W        W50764  30.537  10.195   0.906
91262W        W50765  24.557  21.030   3.852
91263W        W50766  38.930  31.548   3.794
91264W        W50767  18.708  26.606  13.413
91265W        W50768  17.571   9.740  10.550
91266W        W50769  31.521  33.415   2.701
91267W        W50770   2.869   4.783   3.256
91268W        W50771   7.237  28.612  10.613
91269W        W50772  32.555  42.462   2.323
91270W        W50773  19.750   4.736  14.813
91271W        W50774  32.100  18.258  11.034
91272W        W50775  26.641  41.417   3.332
91273W        W50776   1.933  39.909  10.444
91274W        W50777  38.396  13.145  11.980
91275W        W50778  36.392  25.098  10.420
91276W        W50779  28.115  19.186  14.322
91277W        W50780   4.836  28.140  13.854
91278W        W50781   0.345   3.950  12.457
91279W        W50782  37.063  18.705  14.919
91280W        W50783  43.334   2.240   3.800
91281W        W50784  19.713   6.200  12.441
91282W        W50785  35.475   1.440  11.566
91283W        W50786  24.675  19.739   0.766
91284W        W50787  42.816  38.038  11.478
91285W        W50788  20.065  42.895  14.426
91286W        W50789   6.344   2.901   3.833
91287W        W50790  39.399  19.536   2.228
91288W        W50791  39.500  33.013   3.297
91289W        W50792  11.719  28.030   4.237
91290W        W50793  39.470  29.657   2.347
91291W        W50794  26.132  15.184  11.002
91292W        W50795  29.158  12.122  10.417
91293W        W50796  24.030  38.925   5.209
91294W        W50797  19.616  12.689   1.445
91295W        W50798  30.436  23.573  14.956
91296W        W50799  39.325  30.132  12.937
91297W        W50800  10.770  23.561   2.351
91298W        W50801  35.467  30.967   1.754
91299W        W50802  23.694  41.444   3.304
91300W        W50803  39.856  28.134  12.893
91301W        W50804   7.215  23.078   2.712
91302W        W50805  24.999  33.039   3.853
91303W        W50806  34.411  21.056  14.895
91304W        W50807  31.630  20.754  10.564
91305W        W50808  10.348  13.178   0.244
91306W        W50809  44.281  44.297  10.980
91307W        W50810  34.062  43.846   1.784
91308W        W50811  28.148  16.724  10.553
91309W        W50812  22.609   0.936   2.833
91310W        W50813  33.996  34.369   1.813
91311W        W50814   4.925  40.870  12.507
91312W        W50815  18.066  18.205   2.877
91313W        W50816  29.153  17.593  13.854
91314W        W50817  19.570  33.471  14.340
91315W        W50818  37.080  35.601  13.341
91316W        W50819  38.041  14.827  11.537
91317W        W50820  21.735   5.426   2.288
91318W        W50821  35.435  24.623   1.710
91319W        W50822   4.911   6.207  14.350
91320W        W50823  27.118  13.321   3.313
91321W        W50824  19.569  33.607   3.383
91322W        W50825  29.002  34.867   0.426
91323W        W50826  35.420  31.918  11.880
91324W        W50827   4.232  32.426   2.791
91325W        W50828  44.887  18.057   4.307
91326W        W50829  39.972  20.106  11.459
91327W        W50830  16.165  37.420  14.301
91328W        W50831  40.027  26.101   0.800
91329W        W50832   3.805  44.938   0.303
91330W        W50833  40.974  39.352   3.723
91331W        W50834   4.763  11.130  13.481
91332W        W50835  35.570  40.823   0.881
91333W        W50836   8.327   2.916   2.868
91334W        W50837   6.682  24.578   2.246
91335W        W50838  38.843  36.887   0.437
91336W        W50839  11.678  32.133   1.357
91337W        W50840  39.893  20.171   1.871
91338W        W50841  40.347   0.416  13.818
91339W        W50842  27.170  15.185  14.363
91340W        W50843  14.253   3.797   0.263
91341W        W50844  13.768  12.173  12.064
91342W        W50845  11.146  36.999  14.806
91343W        W50846  16.245  22.626   3.760
91344W        W50847  17.622   4.321  11.927
91345W        W50848   9.783  10.321  11.864
91346W        W50849  25.507  39.002  14.770
91347W        W50850  44.008  18.563   4.653
91348W        W50851   3.434   5.289  13.930
91349W        W50852  23.056  30.998   3.219
91350W        W50853  10.651  18.098   1.214
91351W        W50854   7.803   0.747   4.150
91352W        W50855  12.135  15.720  10.935
91353W        W50856  40.932   1.935   2.226
91354W        W50857   8.361  30.912   0.820
91355W        W50858   0.437  41.513   4.296
91356W        W50859  34.490  19.622   2.258
91357W        W50860  29.578  25.547  13.401
91358W        W50861  19.250   2.872  10.938
91359W        W50862  14.624  24.203  13.470
91360W        W50863  25.123   5.405  13.472
91361W        W50864  32.078   3.787  14.774
91362W        W50865   3.232   1.899   0.412
91363W        W50866  10.354  29.121  12.024
91364W        W50867  37.955  31.636   2.835
91365W        W50868  23.213  38.364   0.823
91366W        W50869   3.249  29.521  14.467
91367W        W50870  24.633  38.501   2.248
91368W        W50871  42.775   0.416   1.796
91369W        W50872  10.265  14.338   3.361
91370W        W50873  18.791  43.395  11.878
91371W        W50874  37.484  28.069   5.321
91372W        W50875   7.678   1.295   3.798
91373W        W50876   0.790  35.504   4.165
91374W        W50877  26.126  39.531  12.911
91375W        W50878  37.372  37.945   4.664
91376W        W50879  37.046  18.702   1.910
91377W        W50880   3.406  36.925   3.220
91378W        W50881  31.441  11.649   1.406
91379W        W50882   4.287  34.577  12.537
91380W        W50883  33.553  31.475  13.883
91381W        W50884  14.796  38.836   0.959
91382W        W50885   3.862  17.290   3.717
91383W        W50886  28.579  37.389   4.305
91384W        W50887  31.982  17.142   1.349
91385W        W50888  10.295  24.120  13.973
91386W        W50889  13.280  41.352  11.905
91387W        W50890  10.800  14.304  12.093
91388W        W50891  12.208  39.374  13.339
91389W        W50892  26.139   6.889  14.005
91390W        W50893  35.081  18.633   2.257
91391W        W50894  14.835  32.074  13.544
91392W        W50895  30.915   0.457  10.540
91393W        W50896  44.442  25.497  14.498
91394W        W50897  14.809  29.505   2.410
91395W        W50898   4.293  41.023  13.527
91396W        W50899  37.855   9.819  13.861
91397W        W50900   6.241   5.785  10.950
91398W        W50901  12.145  42.811  13.500
91399W        W50902   5.820  42.945   3.706
91400W        W50903   7.674  37.462   4.662
91401W        W50904  43.913   3.810  13.452
91402W        W50905  19.246   5.388  11.858
91403W        W50906   2.949  19.071  11.878
91404W        W50907   5.736  36.858   0.381
91405W        W50908   7.776   9.718  12.933
91406W        W50909  27.652  25.185  11.457
91407W        W50910  17.148   0.985  12.031
91408W        W50911  26.694  39.401   2.879
91409W        W50912  32.599   9.349   3.243
91410W        W50913  26.563  18.719  14.840
91411W        W50914  27.629  32.572  13.424
91412W        W50915   7.770  39.506   2.825
91413W        W50916  35.974  29.958   4.328
91414W        W50917  34.944  25.630   1.866
91415W        W50918  30.606  11.858  11.482
91416W        W50919   3.942   6.694   0.461
91417W        W50920  11.231  13.710  13.051
91418W        W50921  20.708   6.272  13.398
91419W        W50922  28.930  39.400   0.419
91420W        W50923   9.325  21.520  14.331
91421W        W50924   5.782   5.341   3.676
91422W        W50925  25.101  28.552  12.487
91423W        W50926  20.100  24.220  11.459
91424W        W50927  22.250  33.470  13.891
91425W        W50928  15.779  41.974  13.382
91426W        W50929  30.416   6.378  11.070
91427W        W50930  32.089  26.014  10.427
91428W        W50931   1.380  29.071  12.435
91429W        W50932  22.569  41.837  11.600
91430W        W50933   5.876  11.754   2.413
91431W        W50934  43.484   2.769   2.184
91432W        W50935  31.090  32.035  10.445
91433W        W50936  28.565  35.968  12.370
91434W        W50937  28.071  26.575   9.986
91435W        W50938  44.973  35.388  15.000
91436W        W50939  15.320  35.068  11.106
91437W        W50940  14.272  30.920   1.347
91438W        W50941   8.351   4.738   1.276
91439W        W50942  30.127   1.946   2.366
91440W        W50943  27.643  37.935   3.695
91441W        W50944   2.471  35.940  11.055
91442W        W50945  19.188  44.794   2.852
91443W        W50946  37.537   5.333   4.728
91444W        W50947   9.217  27.058   2.368
91445W        W50948  13.765  40.522   0.391
91446W        W50949  32.596  21.545   1.836
91447W        W50950  44.339   1.876   3.869
91448W        W50951   2.937  39.380  11.456
91449W        W50952  24.547  18.686   1.252
91450W        W50953  44.431  27.117   5.111
91451W        W50954  30.994  44.813   1.255
91452W        W50955  26.519  21.537  14.473
91453W        W50956   0.467  21.563  12.982
91454W        W50957  31.469  44.780  12.489
91455W        W50958   6.221   0.942  13.981
91456W        W50959  11.297  41.295  10.567
91457W        W50960  33.110  13.803  12.904
91458W        W50961  41.968  36.075   1.246
91459W        W50962   7.676  13.706   4.268
91460W        W50963  13.177  40.517  14.361
91461W        W50964  18.253  29.985   4.262
91462W        W50965  19.271   1.810  12.924
91463W        W50966  36.023   2.762  10.541
91464W        W50967  35.009  27.578   2.804
91465W        W50968  16.263  26.037   2.331
91466W        W50969  33.496   4.376   2.784
91467W        W50970  13.180  18.727  11.954
91468W        W50971   5.393   8.400   4.174
91469W        W50972  36.036  19.215   0.844
91470W        W50973  41.919  25.496  13.468
91471W        W50974  40.998  30.569  10.577
91472W        W50975  36.535  32.949   3.256
91473W        W50976  25.668  38.544   2.667
91474W        W50977  19.077  29.591  13.406
91475W        W50978   1.912  26.958  11.417
91476W        W50979   7.352  22.564   3.797
91477W        W50980  23.147   0.255  14.292
91478W        W50981  35.070  39.927   1.253
91479W        W50982  42.826  36.567  12.944
91480W        W50983  24.121   0.249   3.257
91481W        W50984  13.325   6.903   1.708
91482W        W50985  14.677  35.594  14.474
91483W        W50986  16.095  36.079   0.925
91484W        W50987  39.545   9.253   3.359
91485W        W50988  21.106  42.017  14.840
91486W        W50989  38.958   0.387   4.813
91487W        W50990  17.133  12.686   3.849
91488W        W50991  37.007  42.811  12.954
91489W        W50992  27.993  30.635  11.577
91490W        W50993  17.086  26.096  12.514
91491W        W50994   0.871   3.231   4.260
91492W        W50995   9.856  22.198  13.386
91493W        W50996  29.444   3.935  13.369
91494W        W50997  31.034  27.541   2.224
91495W        W50998  34.023  19.227   3.850
91496W        W50999  11.701  27.958  10.101
91497W        W51000   7.891  25.998  14.452
91498W        W51001  37.561  10.249  10.494
91499W        W51002  40.971  25.145  14.396
91500W        W51003  35.389   3.720  14.837
91501W        W51004  21.624   4.738   4.826
91502W        W51005  23.988  15.198  12.982
91503W        W51006   2.257  21.513   0.796
91504W        W51007  22.157  35.989  10.565
91505W        W51008   1.911  28.658  12.082
91506W        W51009  20.686   9.798   1.827
91507W        W51010  39.845  39.962  10.444
91508W        W51011   8.709  23.550   0.780
91509W        W51012  22.746   6.205   4.160
91510W        W51013  10.720  29.946  11.542
91511W        W51014  13.676  32.918   0.305
91512W        W51015  20.103   2.369   2.295
91513W        W51016  26.064  38.940  11.563
91514W        W51017  25.489  32.952   2.212
91515W        W51018  36.582  44.999   1.929
91516W        W51019  31.408  40.948   4.606
91517W        W51020  27.167  30.923   3.288
91518W        W51021  12.311  30.916   9.941
91519W        W51022  43.495   4.938   2.282
91520W        W51023  34.972  25.076   5.319
91521W        W51024  43.365  42.342   1.726
91522W        W51025  41.401  30.458   0.830
91523W        W51026  26.678  39.063  14.766
91524W        W51027   1.302  37.055  10.466
91525W        W51028  13.639   7.870  12.859
91526W        W51029  21.751  42.783   3.341
91527W        W51030   8.390  18.699   4.162
91528W        W51031  41.480   0.938  13.333
91529W        W51032  41.477  14.159   0.421
91530W        W51033  41.935  42.022   1.833
91531W        W51034  44.787   4.699   2.276
91532W        W51035   1.977   0.305   3.866
91533W        W51036  36.989  20.592   2.836
91534W        W51037   0.391  42.286   1.435
91535W        W51038  31.055  12.218  11.118
91536W        W51039  44.360   4.415   4.745
91537W        W51040  23.014  25.551  12.365
91538W        W51041  38.046  40.531   2.258
91539W        W51042  18.736  39.498  14.387
91540W        W51043  13.798   7.870   0.879
91541W        W51044  37.477  12.675  14.366
91542W        W51045  26.081   2.403  12.561
91543W        W51046  19.605   9.747  14.982
91544W        W51047  22.158   9.689  12.565
91545W        W51048  13.786  20.679   2.384
91546W        W51049   2.367  43.931   3.692
91547W        W51050   3.216  36.443   3.685
91548W        W51051  32.407  23.730   2.779
91549W        W51052  34.958  12.294   1.728
91550W        W51053   1.277   1.429  11.932
91551W        W51054  17.559  28.589  13.461
91552W        W51055   9.749   0.778   1.844
91553W        W51056  35.519  43.772  14.447
91554W        W51057   9.340   7.764  14.976
91555W        W51058   1.324   3.306  11.500
91556W        W51059  32.962   1.291   1.749
91557W        W51060  17.605  18.236   1.239
91558W        W51061   8.750  38.354  11.104
91559W        W51062  38.848  33.983   0.905
91560W        W51063  33.483  28.161  12.050
91561W        W51064  14.228  16.791   2.220
91562W        W51065  39.038   1.804  10.997
91563W        W51066  41.884  31.128  13.482
91564W        W51067   0.813   2.767  12.960
91565W        W51068  30.011  30.620  10.553
91566W        W51069  21.031   3.444  12.425
91567W        W51070  39.896  31.462  13.807
91568W        W51071  22.995  38.070  12.916
91569W        W51072  15.756  36.544   4.305
91570W        W51073   1.936  40.509  14.303
91571W        W51074  35.939  22.072  10.908
91572W        W51075  35.045   4.434  12.464
91573W        W51076  20.688  38.928  13.863
91574W        W51077  12.851  18.608  14.301
91575W        W51078  16.791  33.980   0.784
91576W        W51079  11.230  28.452   0.934
91577W        W51080  11.287  36.405  11.415
91578W        W51081   4.938  21.095   1.808
91579W        W51082  14.704  39.830   3.741
91580W        W51083  31.991  17.274  11.568
91581W        W51084  24.166  43.844   0.966
91582W        W51085  35.923  10.660   3.347
91583W        W51086  37.414  39.433   1.309
91584W        W51087  30.029   2.437  10.929
91585W        W51088  36.360  31.489   0.941
91586W        W51089  25.134  33.452   0.312
91587W        W51090  35.559   5.815   1.230
91588W        W51091  41.874  44.846  12.496
91589W        W51092   7.865   4.822  11.907
91590W        W51093   8.260  38.964   4.637
91591W        W51094  29.144  40.896  10.514
91592W        W51095   2.816   0.447  10.486
91593W        W51096  35.581  35.592  12.835
91594W        W51097  25.548  21.701  10.426
91595W        W51098  28.584  13.131   5.633
91596W        W51099  22.030  17.593  13.937
91597W        W51100  34.964  39.911  12.019
91598W        W51101  14.696  16.142   0.251
91599W        W51102  42.346  20.082   9.967
91600W        W51103  21.694  13.309   1.243
91601W        W51104  34.899  39.827  13.035
91602W        W51105  15.645  13.648  11.956
91603W        W51106  32.027  23.094  10.420
91604W        W51107   5.886   4.710   0.870
91605W        W51108  39.823  29.451   1.694
91606W        W51109  41.519  31.441  13.027
91607W        W51110  38.366  27.619   3.203
91608W        W51111  26.972   5.235  10.493
91609W        W51112   4.215   2.317   1.737
91610W        W51113   0.753  42.433  10.964
91611W        W51114  34.928  43.355  14.965
91612W        W51115  13.765   9.224  11.398
91613W        W51116  41.878  35.381  11.493
91614W        W51117   4.358  16.207   1.873
91615W        W51118  29.548   7.388   3.696
91616W        W51119  13.162  30.928   1.918
91617W        W51120  39.984  19.667   2.755
91618W        W51121   7.384  27.186  13.465
91619W        W51122  37.940  28.170  12.491
91620W        W51123   7.382   6.786  12.083
91621W        W51124  24.631  24.553   3.228
91622W        W51125   5.220  33.481   2.668
91623W        W51126   1.830  24.091  14.399
91624W        W51127  44.920  32.421   0.332
91625W        W51128  25.026  39.828  12.480
91626W        W51129  14.304  30.482  10.909
91627W        W51130  37.519  16.159  13.045
91628W        W51131  25.103  41.005   1.366
91629W        W51132  28.018  24.596  11.430
91630W        W51133  29.492  24.697   2.846
91631W        W51134  10.746  34.607  13.018
91632W        W51135   4.299  31.144   4.606
91633W        W51136  30.987  27.455   5.118
91634W        W51137  24.553  12.801   2.200
91635W        W51138  36.040   4.761   3.187
91636W        W51139  13.739  40.333   3.705
91637W        W51140  17.150  21.094  11.002
91638W        W51141   8.167  27.093   4.634
91639W        W51142  42.415  30.644   1.864
91640W        W51143  36.873  20.594  10.443
91641W        W51144  41.450  44.811  13.382
91642W        W51145  43.287   3.816   3.830
91643W        W51146   0.981  33.069   0.298
91644W        W51147  29.510  32.986  10.622
91645W        W51148  35.578   3.828  14.506
91646W        W51149  21.239  25.082  12.910
91647W        W51150  43.892   7.780  13.939
91648W        W51151  39.521  31.070  10.975
91649W        W51152   8.688  11.332  13.061
91650W        W51153  39.479  17.122   4.789
91651W        W51154  34.060  27.135   0.898
91652W        W51155  18.640  25.211  10.039
91653W        W51156  14.115  42.873   0.246
91654W        W51157  38.410  34.965  13.855
91655W        W51158  41.984  27.510   3.685
91656W        W51159  32.980  16.229  13.004
91657W        W51160  11.819  37.433   3.223
91658W        W51161  22.063  31.126   2.747
91659W        W51162  24.570  11.299  14.954
91660W        W51163  10.784  12.305  13.829
91661W        W51164   0.404  12.190   3.200
91662W        W51165  28.156   8.741  10.108
91663W        W51166  36.841  33.575   2.675
91664W        W51167  22.685  19.134   2.844
91665W        W51168   4.292  16.754  13.957
91666W        W51169  23.724  14.738  12.361
91667W        W51170  19.533  10.832  13.375
91668W        W51171  28.175  42.932   9.983
91669W        W51172  29.920  30.605   1.874
91670W        W51173  40.931  39.357   1.741
91671W        W51174  25.985  31.561  12.453
91672W        W51175  36.550  27.063  11.026
91673W        W51176   1.245  33.582  12.387
91674W        W51177  22.597  37.873  12.382
91675W        W51178   2.407  28.499  13.793
91676W        W51179   0.412  30.501   2.739
91677W        W51180  15.704  19.263  10.512
91678W        W51181  38.471  24.501  11.602
91679W        W51182  27.018   4.364   3.237
91680W        W51183   5.903  30.598   2.828
91681W        W51184  26.590  39.451  14.881
91682W        W51185  35.949  34.046  13.024
91683W        W51186  19.720  30.953   1.408
91684W        W51187  21.181  26.102   3.286
91685W        W51188  26.959  36.995   0.464
91686W        W51189  41.968  15.628  10.635
91687W        W51190  31.118  10.342   2.284
91688W        W51191   9.329  42.032   4.636
91689W        W51192  32.543  40.488  14.986
91690W        W51193   9.170  13.177   3.696
91691W        W51194   4.931  19.250   0.785
91692W        W51195  24.150   7.746  13.820
91693W        W51196   7.340   9.255   1.696
91694W        W51197  18.776   8.292  12.554
91695W        W51198  14.095  44.926  13.398
91696W        W51199  35.863  13.311  10.949
91697W        W51200  12.154  24.560   4.335
91698W        W51201  41.787  10.874  12.548
91699W        W51202  27.196  14.720  13.464
91700W        W51203  17.721  31.452   3.245
91701W        W51204  15.622  42.409   3.748
91702W        W51205  19.047  25.663   0.812
91703W        W51206  34.074  22.029  10.615
91704W        W51207  15.607   4.389  13.008
91705W        W51208  29.652  22.578  11.391
91706W        W51209  17.284  43.878   1.717
91707W        W51210  12.328   1.968  12.915
91708W        W51211   4.376  32.530   3.790
91709W        W51212  21.041  14.269  11.582
91710W        W51213  12.316   5.370  13.906
91711W        W51214  23.050  33.475  10.540
91712W        W51215  41.869  34.974   2.756
91713W        W51216   9.743  29.045  11.064
91714W        W51217  31.608  27.469  11.421
91715W        W51218  22.539  26.152  11.895
91716W        W51219   9.294  35.561  11.887
91717W        W51220  23.663   5.404  11.961
91718W        W51221  13.272  41.803  13.308
91719W        W51222  10.723  36.522  10.977
91720W        W51223  30.029  31.421  11.045
91721W        W51224  26.111   8.347   0.799
91722W        W51225  37.361  31.921   3.219
91723W        W51226  29.595  42.797   2.247
91724W        W51227  44.765  31.439  12.856
91725W        W51228  26.961  23.171   4.807
91726W        W51229  24.690  18.206  11.965
91727W        W51230  26.975  23.632  12.505
91728W        W51231  30.648  42.818   0.818
91729W        W51232  20.153   0.748  11.594
91730W        W51233  10.189  28.552  10.571
91731W        W51234   9.285   4.423   0.916
91732W        W51235  35.896   6.256   3.853
91733W        W51236  28.516  21.581   3.263
91734W        W51237   9.327  20.126  11.377
91735W        W51238  17.621  41.378   0.835
91736W        W51239  23.986  19.189   4.686
91737W        W51240  43.367   3.713  12.092
91738W        W51241   7.737  37.006  12.355
91739W        W51242  13.599  17.716   2.358
91740W        W51243  27.128  42.369   0.376
91741W        W51244   1.239   0.290   9.619
91742W        W51245  21.176  17.657  13.513
91743W        W51246  36.480  19.259   1.231
91744W        W51247  16.685  24.060   0.296
91745W        W51248  39.842  18.093   3.667
91746W        W51249   5.236  16.164   4.189
91747W        W51250  15.170   5.741  11.443
91748W        W51251  36.565  12.353  14.782
91749W        W51252  35.022  18.103  10.449
91750W        W51253  18.790  23.171   0.370
91751W        W51254  13.147  30.412   1.777
91752W        W51255  39.491  36.459   1.429
91753W        W51256  24.091  35.875   2.189
91754W        W51257   3.824   6.371  13.364
91755W        W51258   4.801   7.897  13.494
91756W        W51259  25.977  40.537  10.487
91757W        W51260  43.270   3.331   1.846
91758W        W51261  28.577   9.809  14.511
91759W        W51262  18.751   8.784  10.588
91760W        W51263  41.388   4.879  14.392
91761W        W51264   2.820  42.469   5.760
91762W        W51265  10.311  15.817  12.026
91763W        W51266  22.512  11.646   4.203
91764W        W51267  23.140  28.183  10.543
91765W        W51268  10.686  19.125  14.379
91766W        W51269  40.546  15.287   3.188
91767W        W51270  33.596  11.195   4.763
91768W        W51271  15.626  33.002   1.231
91769W        W51272  43.326  44.449  12.419
91770W        W51273  39.868  34.449   3.720
91771W        W51274  39.362  18.198   4.352
91772W        W51275   3.853  30.648  10.552
91773W        W51276  33.972  36.853   2.196
91774W        W51277  35.077  16.084   4.261
91775W        W51278   8.840  12.359   0.939
91776W        W51279  19.663  38.956   4.616
91777W        W51280  34.024  15.768  11.910
91778W        W51281   4.294   8.312   0.323
91779W        W51282  36.960   6.923   3.155
91780W        W51283   1.357  10.678  11.586
91781W        W51284  26.640   7.852  12.933
91782W        W51285  20.141  18.653  12.040
91783W        W51286  42.365   0.762  14.467
91784W        W51287  14.218  42.982   3.290
91785W        W51288  40.464  35.489  12.954
91786W        W51289  27.106  18.217  11.938
91787W        W51290  44.491  42.456  10.630
91788W        W51291  33.488  41.866   3.275
91789W        W51292   3.325   4.810   0.388
91790W        W51293  24.112   9.262   2.267
91791W        W51294  27.121  40.932   4.168
91792W        W51295  43.860   9.727   3.196
91793W        W51296  37.564  32.010  13.801
91794W        W51297  34.953   8.782   2.768
91795W        W51298  27.153  14.763  11.538
91796W        W51299  34.525  43.504  14.318
91797W        W51300  37.919   0.289  12.972
91798W        W51301  21.625   1.415   2.333
91799W        W51302  36.874   1.384   0.457
91800W        W51303  10.684  31.602  10.478
91801W        W51304  12.772  43.006   3.738
91802W        W51305  38.893   7.189   1.220
91803W        W51306  31.898  19.111   2.808
91804W        W51307   5.433  24.648  13.334
91805W        W51308   4.766   1.243   1.700
91806W        W51309  39.419   5.336  11.870
91807W        W51310   6.704  44.844   1.417
91808W        W51311  34.556  10.640   2.671
91809W        W51312  23.116   1.932   1.812
91810W        W51313  22.533  14.751  12.992
91811W        W51314  17.668   8.368  10.585
91812W        W51315  39.403  14.595  10.967
91813W        W51316  15.757  43.903   0.963
91814W        W51317   9.261  43.973  13.519
91815W        W51318  29.948  24.604  14.469
91816W        W51319  23.032  15.107   2.727
91817W        W51320  23.206  42.936  14.462
91818W        W51321  32.917  39.529   1.928
91819W        W51322  10.818  25.100  13.792
91820W        W51323  32.983  40.315   0.757
91821W        W51324  35.570   0.459   2.375
91822W        W51325  29.919  42.824  11.127
91823W        W51326   2.401  27.503  11.515
91824W        W51327  44.362  36.962  12.429
91825W        W51328  31.092  20.168  13.534
91826W        W51329  33.412   6.230   1.795
91827W        W51330  10.306  22.721   4.808
91828W        W51331  10.248  21.046  10.564
91829W        W51332  34.494  36.522   3.734
91830W        W51333  35.453  17.735   2.393
91831W        W51334  28.610   0.323  12.067
91832W        W51335   4.278   8.162  12.449
91833W        W51336  18.623  14.797   3.867
91834W        W51337  12.165  15.704   4.674
91835W        W51338  31.020  25.690  10.468
91836W        W51339  16.703   5.786  12.899
91837W        W51340  26.012  36.979  13.062
91838W        W51341  39.913  32.543   1.365
91839W        W51342  37.901  36.893   0.293
91840W        W51343   9.741  33.482  12.523
91841W        W51344  29.438  27.068  13.460
91842W        W51345  22.667  37.567  13.458
91843W        W51346   5.365  14.312  14.009
91844W        W51347   6.194  23.041  12.977
91845W        W51348  25.157  25.968   4.742
91846W        W51349   9.317  11.246  13.057
91847W        W51350  30.512  23.643   1.297
91848W        W51351  31.596  17.171   2.727
91849W        W51352  41.829  13.193  11.017
91850W        W51353  32.499  38.514   1.291
91851W        W51354  21.097   5.235  13.413
91852W        W51355  27.647   5.742  14.931
91853W        W51356  44.495   1.966  12.378
91854W        W51357  32.996  10.811  11.399
91855W        W51358  27.091  24.157  11.504
91856W        W51359   4.271  34.022   0.882
91857W        W51360  42.327   9.318  14.386
91858W        W51361   2.813  19.609   3.228
91859W        W51362  15.814  18.078  12.047
91860W        W51363   8.746  15.261   3.862
91861W        W51364   4.238  30.055   5.148
91862W        W51365  22.609  28.657   3.671
91863W        W51366   0.275  37.524   0.359
91864W        W51367  40.500  10.178  14.865
91865W        W51368  28.660  28.537   4.316
91866W        W51369   4.874   6.329  13.989
91867W        W51370  28.930  29.079   1.236
91868W        W51371  13.111  21.026   0.843
91869W        W51372  16.150  40.859   1.901
91870W        W51373  33.485   4.216  14.825
91871W        W51374  25.681  16.297   4.784
91872W        W51375  31.903  41.014  14.968
91873W        W51376  21.637   3.335  13.449
91874W        W51377   2.914   7.261  10.616
91875W        W51378   2.771  37.565   3.633
91876W        W51379  34.956  15.682  11.497
91877W        W51380   8.762  38.883   4.129
91878W        W51381   4.944  27.146  13.450
91879W        W51382   8.747   1.944   4.690
91880W        W51383  19.579  15.165  14.315
91881W        W51384   5.265  36.865   0.962
91882W        W51385  17.286   8.376   0.257
91883W        W51386  35.418  35.015   3.785
91884W        W51387  18.100   3.872   0.283
91885W        W51388  33.472  42.872   5.197
91886W        W51389  24.494  20.137  12.982
91887W        W51390  16.259   1.289   4.796
91888W        W51391  36.410  31.020  13.064
91889W        W51392  38.556   3.418  12.344
91890W        W51393   8.208  30.584   4.156
91891W        W51394   9.692   6.241  13.964
91892W        W51395  32.539  24.202   3.259
91893W        W51396  24.997   8.248   2.369
91894W        W51397  25.136  33.996  10.452
91895W        W51398  29.949  21.757   0.345
91896W        W51399  41.967  16.574   0.268
91897W        W51400  43.988   4.747   4.147
91898W        W51401  42.464  35.525  12.425
91899W        W51402  26.151  24.179  14.780
91900W        W51403  19.226   9.888   3.162
91901W        W51404  23.595  30.597  12.090
91902W        W51405  40.314  42.502  12.570
91903W        W51406  41.315   8.835  11.909
91904W        W51407   1.798  17.612   9.542
91905W        W51408  38.839  33.498  12.566
91906W        W51409  28.132   9.154   3.727
91907W        W51410  25.582  29.526   1.374
91908W        W51411   0.793  44.503  12.062
91909W        W51412   6.815  13.111   3.216
91910W        W51413  14.242  13.684  10.984
91911W        W51414  23.055  15.584   3.760
91912W        W51415  20.055  29.469  11.074
91913W        W51416   3.828  37.856  12.054
91914W        W51417   2.361  44.491  13.366
91915W        W51418   4.879  33.115  12.876
91916W        W51419  17.704  12.763   0.946
91917W        W51420  22.564   6.834  12.925
91918W        W51421  39.996   6.352   9.470
91919W        W51422  37.902   9.734   2.823
91920W        W51423  33.985  18.705  12.501
91921W        W51424   4.857   1.371  14.866
91922W        W51425  23.635  20.686   1.896
91923W        W51426  21.065   9.218   0.750
91924W        W51427   1.898  20.534   0.377
91925W        W51428  17.567  30.034   3.699
91926W        W51429  10.380   7.720   0.792
91927W        W51430  37.440   5.269   2.356
91928W        W51431   7.229  35.604  14.461
91929W        W51432  35.513  14.664   0.885
91930W        W51433  34.948  13.161  10.613
91931W        W51434  29.160  42.318   4.246
91932W        W51435  30.537   2.841   2.853
91933W        W51436   6.233   5.705  11.423
91934W        W51437  26.530  34.882  10.914
91935W        W51438  29.170  22.571   1.294
91936W        W51439  31.615   0.251  13.861
91937W        W51440  10.215  44.776   3.632
91938W        W51441   4.385  37.962  14.396
91939W        W51442   0.987  39.339   2.740
91940W        W51443  15.084  25.712   4.164
91941W        W51444  41.415  13.289   1.911
91942W        W51445   2.323  27.625  10.505
91943W        W51446  34.487   3.879  12.562
91944W        W51447   2.881  15.163   3.149
91945W        W51448  10.846  39.495  14.308
91946W        W51449  32.485  44.780  12.012
91947W        W51450  11.339   7.228  10.527
91948W        W51451   7.807  23.112   0.450
91949W        W51452  10.170  22.081   1.721
91950W        W51453   0.934   2.774  10.073
91951W        W51454  21.732  29.655   1.253
91952W        W51455   8.873  39.337   4.333
91953W        W51456   1.761  19.117  11.096
91954W        W51457  32.115  38.416   4.153
91955W        W51458   9.839  38.425   2.397
91956W        W51459   9.870   4.307  13.396
91957W        W51460  15.766   0.744   5.231
91958W        W51461  44.915   1.421  12.368
91959W        W51462  42.470  28.675  13.361
91960W        W51463  41.812   4.349  12.090
91961W        W51464   7.875  21.717  11.374
91962W        W51465  15.123  15.620  13.403
91963W        W51466  20.697  16.712   0.465
91964W        W51467  27.558  18.702   1.785
91965W        W51468  21.173  27.519  12.541
91966W        W51469  36.091  15.168  11.405
91967W        W51470  37.367  16.286  14.006
91968W        W51471  28.953  41.811  12.961
91969W        W51472   7.734   7.821  13.045
91970W        W51473  39.390  30.517   0.271
91971W        W51474  29.602  35.003  13.918
91972W        W51475  39.891  37.921  11.978
91973W        W51476  26.051  35.905   0.442
91974W        W51477  27.066  40.881  14.824
91975W        W51478  33.571  41.380   4.210
91976W        W51479  23.999  35.065   0.893
91977W        W51480  44.487  16.121  12.983
91978W        W51481  43.905   9.776  10.434
91979W        W51482  22.667  26.507   1.388
91980W        W51483  28.609  31.995  14.330
91981W        W51484   8.248  44.295  13.391
91982W        W51485  34.560   8.389  13.905
91983W        W51486  13.154  38.521  12.956
91984W        W51487  23.608  30.140   3.810
91985W        W51488  15.155   5.771  10.615
91986W        W51489   9.662  19.616  13.055
91987W        W51490  41.031  37.337   0.423
91988W        W51491  43.415   7.777   0.283
91989W        W51492   7.891  35.936  13.346
91990W        W51493  24.155  31.506   4.823
91991W        W51494   2.458  34.454   3.849
91992W        W51495  39.919  36.952   3.714
91993W        W51496  40.314  24.592  11.475
91994W        W51497  42.348   6.692  11.974
91995W        W51498  36.879  16.308   3.859
91996W        W51499  25.536  34.938  12.993
91997W        W51500  10.743  26.083   0.373
91998W        W51501  32.962  38.836   3.781
91999W        W51502   3.360  16.808  13.992
92000W        W51503  11.648   2.947   1.230
92001W        W51504   0.948  34.591  11.590
92002W        W51505  42.439  22.138   2.280
92003W        W51506  18.664  20.647  12.979
92004W        W51507  19.218  39.440   1.326
92005W        W51508  29.555   2.821   4.280
92006W        W51509  13.321  26.172   2.348
92007W        W51510  41.295  29.925   1.868
92008W        W51511  16.775  41.831   0.878
92009W        W51512  39.416  27.946  10.639
92010W        W51513  21.649  21.568  13.367
92011W        W51514  13.214  30.449  11.535
92012W        W51515  26.136  37.932   3.281
92013W        W51516  11.624  16.803  11.910
92014W        W51517   9.187  26.523  13.350
92015W        W51518   0.866  17.273  14.945
92016W        W51519  25.534   5.781   3.306
92017W        W51520  29.578  39.010   1.722
92018W        W51521  22.514   0.470   1.240
92019W        W51522   8.888  23.669   2.677
92020W        W51523   0.402  28.043   5.223
92021W        W51524  41.009   2.354  14.306
92022W        W51525  40.417   7.739  12.000
92023W        W51526  31.603  36.369   4.272
92024W        W51527  42.896  24.145   5.284
92025W        W51528  16.743  36.486  12.421
92026W        W51529  13.120  21.676  12.454
92027W        W51530  41.864   7.279  10.538
92028W        W51531  31.954  12.269  10.955
92029W        W51532  26.961  26.104   0.798
92030W        W51533  23.627  45.000   0.387
92031W        W51534  24.560  14.289   3.203
92032W        W51535  17.134   6.406  12.435
92033W        W51536  41.931  42.031   0.271
92034W        W51537  42.012  42.889   5.209
92035W        W51538  17.668  19.220  13.470
92036W        W51539  26.531  21.536   3.795
92037W        W51540  23.187  27.171   3.852
92038W        W51541  13.724  21.729   2.826
92039W        W51542  12.795  39.011  11.463
92040W        W51543  30.945  22.533   4.669
92041W        W51544  25.661  19.274  13.487
92042W        W51545  29.536  33.018   4.749
92043W        W51546  13.133  40.310   1.292
92044W        W51547  37.033   0.964   2.843
92045W        W51548   8.240  18.058   1.266
92046W        W51549  17.128   8.901   2.669
92047W        W51550  14.281  41.442   2.411
92048W        W51551   7.407  20.102   1.933
92049W        W51552  32.471   1.315  11.860
92050W        W51553  19.208  30.415   2.850
92051W        W51554  37.983   6.921  11.075
92052W        W51555  16.614  31.127  12.375
92053W        W51556  11.639   3.934  14.302
92054W        W51557  18.645  42.874  13.921
92055W        W51558   8.663  34.917   3.348
92056W        W51559   4.895  23.689  11.086
92057W        W51560  13.345  17.100   0.253
92058W        W51561  29.955  44.886  12.035
92059W        W51562  10.861  44.295  10.013
92060W        W51563  15.200  40.477  10.406
92061W        W51564  43.898   1.437  10.460
92062W        W51565   6.889   7.828  14.865
92063W        W51566  21.235  33.457   5.222
92064W        W51567  11.819   4.234  13.912
92065W        W51568  37.834  38.440  12.004
92066W        W51569  31.064  41.006  11.451
92067W        W51570   1.962  32.615   4.701
92068W        W51571  23.198   8.316   4.664
92069W        W51572  26.042  39.506  12.459
92070W        W51573  28.486  11.848  14.824
92071W        W51574  22.048  25.679   1.898
92072W        W51575  37.831  22.047   3.700
92073W        W51576  16.696   7.357  10.634
92074W        W51577   2.739  37.023   0.793
92075W        W51578  41.471  33.441   3.713
92076W        W51579   0.401  28.662  13.018
92077W        W51580  26.955  36.385  14.453
92078W        W51581   0.768  30.151  14.943
92079W        W51582  26.158  32.459  11.420
92080W        W51583  13.783  10.168  12.862
92081W        W51584  34.515   4.871  12.366
92082W        W51585  18.085   4.699   2.233
92083W        W51586  27.524  24.521  14.969
92084W        W51587   4.207  35.952   4.711
92085W        W51588  34.889   1.865  13.410
92086W        W51589  37.501  21.216   3.196
92087W        W51590  32.995  19.709   0.855
92088W        W51591  23.703  37.575  11.960
92089W        W51592  16.169   9.790  11.426
92090W        W51593  18.219  41.355   3.200
92091W        W51594  27.682  41.502  11.422
92092W        W51595   6.681  12.296   2.843
92093W        W51596  42.911  12.683   3.190
92094W        W51597  36.943  22.076   3.291
92095W        W51598  10.300  27.081  13.381
92096W        W51599  43.281   0.472   0.825
92097W        W51600  31.615  26.197   1.398
92098W        W51601  31.405  39.526   1.909
92099W        W51602   1.454  42.527   2.378
92100W        W51603  36.491   4.943  11.518
92101W        W51604  11.286   7.342  13.943
92102W        W51605  21.586  35.387   1.273
92103W        W51606  24.137  42.962  11.546
92104W        W51607  34.883  12.668  12.536
92105W        W51608  44.984  40.457  12.550
92106W        W51609  14.200  39.555   3.844
92107W        W51610   0.257  40.004   3.831
92108W        W51611  28.046  42.992   4.643
92109W        W51612   0.924   2.327  12.454
92110W        W51613  41.341  19.594   1.311
92111W        W51614  30.047  32.947  14.448
92112W        W51615  10.351  20.248  12.001
92113W        W51616  37.537  14.286   0.965
92114W        W51617  40.328  29.423   1.794
92115W        W51618  10.799  39.841   2.244
92116W        W51619   2.875  40.841  12.884
92117W        W51620  37.057  15.203   3.699
92118W        W51621  22.697  30.481  14.861
92119W        W51622  29.526   7.258   1.879
92120W        W51623  35.884  17.612   2.374
92121W        W51624  17.773  27.568  12.842
92122W        W51625  30.960  14.673   3.654
92123W        W51626  12.225   2.243  13.394
92124W        W51627  32.509  40.859   5.236
92125W        W51628  14.164   3.863   4.333
92126W        W51629  37.935   8.388  12.962
92127W        W51630  41.006  25.675  12.518
92128W        W51631  38.005  38.946   2.860
92129W        W51632   1.803  43.495  13.876
92130W        W51633  36.558  15.629  12.905
92131W        W51634  35.535  41.331   2.700
92132W        W51635  29.144  10.767  11.414
92133W        W51636  14.677  20.633  12.545
92134W        W51637  21.203  36.903  14.833
92135W        W51638  20.688  29.431   2.727
92136W        W51639  16.143   6.789  10.983
92137W        W51640  30.422  37.551  12.432
92138W        W51641   8.711  20.630   1.269
92139W        W51642  33.013   0.966   0.386
92140W        W51643  30.655  29.468   0.796
92141W        W51644  36.487  12.776  12.391
92142W        W51645  38.551  36.468   4.266
92143W        W51646  16.268   6.763  12.411
92144W        W51647  25.519  34.014   3.754
92145W        W51648  18.688  35.367  14.008
92146W        W51649  25.637  17.584  13.504
92147W        W51650   7.699  19.575  13.049
92148W        W51651  39.418  31.943   3.790
92149W        W51652  29.989  13.779   0.364
92150W        W51653  20.121  18.280  10.107
92151W        W51654  34.060   0.273  10.569
92152W        W51655   2.433   0.370   0.766
92153W        W51656  28.133   1.409   1.339
92154W        W51657  24.492  39.355  10.490
92155W        W51658   0.825  11.277   2.834
92156W        W51659   1.362  35.491   2.204
92157W        W51660  38.966  27.616   5.150
92158W        W51661  22.545  11.300   0.899
92159W        W51662  42.291  40.476   3.161
92160W        W51663  39.436  18.694   0.452
92161W        W51664   7.336   5.397  13.981
92162W        W51665  36.425   2.253   4.823
92163W        W51666  42.015  18.763  12.543
92164W        W51667  10.672   4.373  10.958
92165W        W51668  30.529  39.390   0.263
92166W        W51669  25.516  28.488   3.169
92167W        W51670  24.042  37.085   4.344
92168W        W51671  30.490  43.826   0.367
92169W        W51672  38.966   3.773   1.782
92170W        W51673   1.838   9.218   5.132
92171W        W51674  33.910  28.111   3.675
92172W        W51675  38.881  38.023  14.499
92173W        W51676  30.964  40.359  14.981
92174W        W51677  37.965  41.475  11.077
92175W        W51678  25.566  21.695   3.179
92176W        W51679  44.409  17.620   3.164
92177W        W51680  21.708  35.556   4.236
92178W        W51681   3.901   0.250  14.997
92179W        W51682  15.124  41.880  11.062
92180W        W51683  18.594  12.289   1.735
92181W        W51684  11.177  29.622   2.706
92182W        W51685  43.410  38.950  11.541
92183W        W51686  41.043  15.642  14.930
92184W        W51687  44.883  23.196  13.332
92185W        W51688  18.714  21.030   3.183
92186W        W51689  42.439  25.054  13.819
92187W        W51690  26.959  33.482   2.847
92188W        W51691  36.506  30.157   4.838
92189W        W51692  37.987  35.502  14.283
92190W        W51693  34.042  41.919  11.992
92191W        W51694  33.566  26.546   0.942
92192W        W51695  43.352  36.395  14.758
92193W        W51696  16.771   4.291   0.275
92194W        W51697  25.623  16.143  13.855
92195W        W51698  27.547  36.365   4.252
92196W        W51699   5.395   3.917   2.864
92197W        W51700   0.788  38.405  11.880
92198W        W51701  11.838  40.981   1.447
92199W        W51702   4.400  27.184  10.496
92200W        W51703  17.096  22.239  14.450
92201W        W51704   9.349  32.432   0.967
92202W        W51705  22.663  32.045   2.334
92203W        W51706   6.288   8.833  10.927
92204W        W51707   0.357  27.084  14.423
92205W        W51708  15.233   1.801  10.444
92206W        W51709  22.218  11.176  10.932
92207W        W51710  22.523  30.950  13.394
92208W        W51711  16.093  35.100  14.285
92209W        W51712  36.438  14.733   3.650
92210W        W51713  19.560  16.233   4.172
92211W        W51714   0.760  44.857   4.274
92212W        W51715  35.383  28.504   4.196
92213W        W51716  35.514  19.578  13.019
92214W        W51717  28.024   9.832   3.637
92215W        W51718  37.903   5.308  10.136
92216W        W51719  39.359   8.808  12.001
92217W        W51720  38.846  15.609  10.519
92218W        W51721  38.444  11.853   2.753
92219W        W51722  30.553  38.454   5.155
92220W        W51723  39.808  24.097  11.411
92221W        W51724  34.513   5.834  14.958
92222W        W51725  14.716  28.144  11.436
92223W        W51726   3.235  13.703  14.917
92224W        W51727  38.523  31.535   2.790
92225W        W51728  18.647  22.613   0.781
92226W        W51729  38.501  40.055   3.691
92227W        W51730  22.745  36.396  10.070
92228W        W51731  31.505   1.446   0.889
92229W        W51732  26.105  21.175  14.833
92230W        W51733   3.892  15.726   0.928
92231W        W51734  17.659   8.794  10.008
92232W        W51735   1.400   2.469   2.782
92233W        W51736  26.999  12.733  13.862
92234W        W51737  42.892  18.660  13.351
92235W        W51738  34.014  24.197  14.942
92236W        W51739  38.924   1.436   4.611
92237W        W51740  42.374  29.134   2.739
92238W        W51741  36.012  35.053   2.290
92239W        W51742  10.252  44.916  11.406
92240W        W51743  32.631  40.984   1.423
92241W        W51744  26.456  31.453   2.735
92242W        W51745  24.216  42.321  14.454
92243W        W51746  18.684  15.243  12.518
92244W        W51747   6.429  18.545  14.341
92245W        W51748   8.264  24.508  11.034
92246W        W51749  42.394  36.013   3.267
92247W        W51750  44.753  35.017  12.030
92248W        W51751  42.336  28.038  13.850
92249W        W51752  10.762  22.063  13.925
92250W        W51753  13.636  18.701   0.265
92251W        W51754  39.956  29.934  11.946
92252W        W51755  35.898  36.425   4.733
92253W        W51756   3.883  38.880  10.025
92254W        W51757   5.867  33.944  13.912
92255W        W51758  26.628  16.699   4.762
92256W        W51759  34.447   8.872   1.304
92257W        W51760  33.013  18.103  13.463
92258W        W51761   8.873  32.571   0.813
92259W        W51762  41.935  16.077   4.602
92260W        W51763  41.983  25.216  12.416
92261W        W51764   6.321   9.246  12.573
92262W        W51765  24.668  28.043   4.304
92263W        W51766   9.288  40.329  12.880
92264W        W51767  10.637  41.313   0.469
92265W        W51768  43.943  10.354   2.888
92266W        W51769  34.000  36.016   1.813
92267W        W51770  19.169  44.943   3.179
92268W        W51771  17.280  39.050  11.089
92269W        W51772  24.198   9.697  12.406
92270W        W51773  36.080  32.057  10.508
92271W        W51774  17.164  44.867  11.941
92272W        W51775  24.983  28.133  11.375
92273W        W51776  44.306   9.681   2.387
92274W        W51777   9.311  39.972   3.288
92275W        W51778   1.320  16.730   0.928
92276W        W51779  17.757   8.281  11.063
92277W        W51780  11.828   6.423   9.967
92278W        W51781  43.350  36.858  12.883
92279W        W51782  25.982  21.107   4.781
92280W        W51783  38.389  26.595   1.867
92281W        W51784  16.171  25.557   3.344
92282W        W51785   8.729   2.803   2.839
92283W        W51786  34.511  41.307  10.995
92284W        W51787  20.607   5.765   0.726
92285W        W51788  40.025  35.456  11.865
92286W        W51789  17.304  13.180  10.622
92287W        W51790  18.748  14.671  12.360
92288W        W51791  40.046  35.970  11.371
92289W        W51792  25.050  17.718   4.625
92290W        W51793  34.478   8.330   1.719
92291W        W51794   0.427   0.316  12.486
92292W        W51795  31.462   1.933  10.543
92293W        W51796   2.249  24.635   4.714
92294W        W51797   3.876  12.267  14.397
92295W        W51798   7.379   4.885  11.421
92296W        W51799  44.263  42.024   2.679
92297W        W51800  31.906  32.590  11.907
92298W        W51801  14.752  26.675   1.724
92299W        W51802  21.028   7.693   0.843
92300W        W51803   3.819   8.322   0.421
92301W        W51804  12.786   4.204   0.729
92302W        W51805  24.490  42.935  11.434
92303W        W51806  30.561  22.504   1.848
92304W        W51807  13.294  39.400   3.749
92305W        W51808  37.020  25.153   3.322
92306W        W51809  40.893  30.909   1.885
92307W        W51810  38.897   7.787  11.085
92308W        W51811  14.221   6.393   3.800
92309W        W51812  32.637  11.342  11.960
92310W        W51813  33.006  19.670   2.685
92311W        W51814  35.056  15.697   5.153
92312W        W51815   3.289  13.646   1.211
92313W        W51816  33.008  21.648   1.294
92314W        W51817  33.061  23.170   1.371
92315W        W51818  32.902  10.667  11.110
92316W        W51819  37.463  25.666  12.898
92317W        W51820  17.592   9.181  11.990
92318W        W51821  36.362   3.242   3.260
92319W        W51822  35.548  13.765  12.461
92320W        W51823  41.300  39.557   1.783
92321W        W51824  26.483  12.850   4.717
92322W        W51825  20.706   8.708  12.396
92323W        W51826  26.979  35.019  14.953
92324W        W51827   3.888  18.204  10.923
92325W        W51828   3.850  24.158   4.598
92326W        W51829   6.187  44.757  12.946
92327W        W51830   9.379  29.967   1.854
92328W        W51831  30.967  34.518   2.886
92329W        W51832  12.258  25.617   1.782
92330W        W51833  18.189  12.185  10.486
92331W        W51834   3.807  24.712  10.513
92332W        W51835   4.360   1.824  11.424
92333W        W51836  31.006  24.632   2.799
92334W        W51837  33.580  34.470  11.933
92335W        W51838  29.103  33.944  14.316
92336W        W51839  31.463  23.593  11.124
92337W        W51840  21.234   2.755  12.509
92338W        W51841   2.876  18.670   2.191
92339W        W51842   3.774   6.254   1.416
92340W        W51843  42.886  10.692  13.979
92341W        W51844  21.667  28.091   4.759
92342W        W51845  28.063  15.129  14.956
92343W        W51846  13.171  24.680  11.082
92344W        W51847  12.166  13.809   1.383
92345W        W51848  13.711   4.840  12.480
92346W        W51849  41.422  17.286  11.882
92347W        W51850  36.389  34.982   0.349
92348W        W51851  34.390  14.335  14.004
92349W        W51852   3.257   8.759  14.909
92350W        W51853   7.869  31.121  14.951
92351W        W51854  13.327  29.920   0.808
92352W        W51855  38.383  31.134  13.362
92353W        W51856  23.537  32.585   3.723
92354W        W51857   9.869  26.144  12.047
92355W        W51858  23.696   7.782   2.752
92356W        W51859  41.333  38.903  14.333
92357W        W51860  42.833  10.758  14.357
92358W        W51861  32.970  30.563  11.968
92359W        W51862  25.648  27.661   0.909
92360W        W51863  29.614  27.446  14.865
92361W        W51864  32.029  16.571   1.700
92362W        W51865  16.077   6.709  14.883
92363W        W51866  38.503  39.020  13.015
92364W        W51867  19.282   1.857   0.907
92365W        W51868  17.793  30.509  14.320
92366W        W51869  16.738  36.546   4.309
92367W        W51870  39.931  19.606  12.556
92368W        W51871  32.413  39.375   1.437
92369W        W51872  13.232  28.127  11.520
92370W        W51873  16.172  30.114  14.861
92371W        W51874  23.701  42.026   3.631
92372W        W51875  42.992  34.491  10.416
92373W        W51876  23.004  28.519  10.438
92374W        W51877  15.614  32.632   2.850
92375W        W51878  34.993  23.707  14.846
92376W        W51879  37.011  27.067   1.930
92377W        W51880   9.707   2.402  11.604
92378W        W51881   0.828  33.024  13.962
92379W        W51882  14.600  40.882  11.939
92380W        W51883  36.538   4.444  13.816
92381W        W51884  44.371  23.012   3.252
92382W        W51885   3.886  15.733   0.289
92383W        W51886  30.145  16.268  12.940
92384W        W51887   5.767  29.045   0.343
92385W        W51888  19.613  21.158  12.553
92386W        W51889  13.247  37.050   0.305
92387W        W51890  21.130  43.283  10.599
92388W        W51891  15.285  25.650  12.993
92389W        W51892  31.141  41.442   3.712
92390W        W51893  37.920  19.603  13.845
92391W        W51894  33.546   1.798   4.701
92392W        W51895  36.011  44.435  13.899
92393W        W51896  27.119  34.902   4.800
92394W        W51897  40.514  22.196  13.534
92395W        W51898   3.837  34.414   1.783
92396W        W51899  17.303  40.987  12.865
92397W        W51900  32.415  12.194   4.222
92398W        W51901  44.868  36.037   2.340
92399W        W51902  32.431   5.423   3.672
92400W        W51903  17.081   2.948  12.561
92401W        W51904  26.035  43.019  14.315
92402W        W51905  44.970  15.295  12.032
92403W        W51906   0.960  42.299   1.903
92404W        W51907  10.738   8.288   2.381
92405W        W51908  36.456  21.161  13.409
92406W        W51909  10.201  41.385  14.450
92407W        W51910  12.246  22.687   3.717
92408W        W51911   3.825  13.286   1.792
92409W        W51912  20.704  14.670   2.781
92410W        W51913  16.615  12.161   1.322
92411W        W51914  20.061  12.705  12.449
92412W        W51915  24.591   6.276  14.467
92413W        W51916  29.104  35.988  10.421
92414W        W51917  33.050   1.865   0.807
92415W        W51918  44.920  22.178   4.153
92416W        W51919  24.143  34.495   2.399
92417W        W51920  17.727  24.547   0.298
92418W        W51921  25.171  18.745   4.194
92419W        W51922  30.576  37.061   0.351
92420W        W51923  21.691  31.111  14.423
92421W        W51924  27.626  42.964  11.039
92422W        W51925  37.036  39.939   4.824
92423W        W51926   6.248   0.480   5.661
92424W        W51927  43.005  18.071   1.912
92425W        W51928  20.639  37.356   3.207
92426W        W51929  18.070  22.042  13.366
92427W        W51930  27.004  12.840   4.165
92428W        W51931  31.572  10.300  12.047
92429W        W51932  36.350  17.774   3.328
92430W        W51933   6.905   2.279  14.818
92431W        W51934  13.265  34.520  13.828
92432W        W51935  21.758  11.799  12.572
92433W        W51936  10.199   0.967   0.323
92434W        W51937  26.074  11.254   0.356
92435W        W51938  37.013  24.181  13.518
92436W        W51939  22.730  41.450  10.574
92437W        W51940   1.406  23.155   3.799
92438W        W51941  31.052  23.691   5.092
92439W        W51942  43.465  35.067  13.894
92440W        W51943  17.789  27.988   4.817
92441W        W51944  39.520  22.676   2.329
92442W        W51945  18.655  41.879  13.993
92443W        W51946  14.133   9.869  14.814
92444W        W51947   9.355  33.538  14.308
92445W        W51948  24.593  37.991   3.375
92446W        W51949  31.905  39.494  12.013
92447W        W51950  34.993  17.771  13.380
92448W        W51951   2.944  37.856   4.114
92449W        W51952   8.753  14.819   0.917
92450W        W51953   3.393  41.514  11.567
92451W        W51954  34.029  36.982  13.349
92452W        W51955  21.111   6.795  10.625
92453W        W51956   1.262  14.591  10.927
92454W        W51957  17.675  13.234   2.740
92455W        W51958  17.109  29.450  14.889
92456W        W51959  20.678  25.153  14.878
92457W        W51960   6.754  43.493   2.400
92458W        W51961  43.936  39.840   1.837
92459W        W51962  19.675   8.820  10.449
92460W        W51963  15.654   3.258  13.444
92461W        W51964  21.750  24.151  12.878
92462W        W51965  24.648  40.409   4.262
92463W        W51966  18.721  36.990   3.258
92464W        W51967  18.615  39.333   1.378
92465W        W51968  39.017  35.868  13.355
92466W        W51969   0.308  42.809  12.410
92467W        W51970  11.166  35.506   2.345
92468W        W51971  22.559  28.144  13.807
92469W        W51972   5.694  14.749  13.538
92470W        W51973   4.713   6.294  12.008
92471W        W51974  14.214  17.167  14.504
92472W        W51975  17.202   5.206   3.822
92473W        W51976  39.955   8.297   1.918
92474W        W51977  36.587   4.837   2.253
92475W        W51978  12.172  26.601   4.785
92476W        W51979  26.964  40.007  14.489
92477W        W51980  22.505  26.079   4.205
92478W        W51981   7.699  40.474  14.900
92479W        W51982  36.883  40.479   3.837
92480W        W51983  13.192  23.707  13.540
92481W        W51984  40.012   9.288  13.367
92482W        W51985  38.390  10.735  14.365
92483W        W51986  36.551  18.737  10.641
92484W        W51987  43.420   6.307  12.091
92485W        W51988  42.385  27.174   0.950
92486W        W51989  19.055  31.478  13.343
92487W        W51990  15.662  40.464   2.411
92488W        W51991  16.309  43.341  14.426
92489W        W51992  31.504  25.095   1.892
92490W        W51993  14.655  43.276  10.515
92491W        W51994  22.620  22.065  12.520
92492W        W51995  37.972  23.537   3.664
92493W        W51996  42.406   8.797  12.005
92494W        W51997  37.504  37.339   0.481
92495W        W51998  32.480  26.652  13.798
92496W        W51999  12.616  31.638   0.271
92497W        W52000  41.020  29.658   0.289
92498W        W52001   2.964   7.715  14.779
92499W        W52002  17.711  32.113  13.803
92500W        W52003  43.841   6.368   2.319
92501W        W52004  30.459  32.063  10.630
92502W        W52005  27.113  39.344  10.899
92503W        W52006  22.525  36.851  14.308
92504W        W52007  11.672  39.943  11.412
92505W        W52008  20.711  41.979  12.424
92506W        W52009  22.592  23.522  10.036
92507W        W52010   5.873  20.627  11.051
92508W        W52011  23.677  40.867   1.800
92509W        W52012  43.367   7.357   5.726
92510W        W52013  28.113   6.428   3.795
92511W        W52014  39.032  30.590   2.234
92512W        W52015  34.021  20.233   0.845
92513W        W52016  28.005  32.999   0.329
92514W        W52017   5.351  29.658  13.940
92515W        W52018  13.293  27.559  13.372
92516W        W52019  21.686  25.498  13.445
92517W        W52020  41.975   8.854  13.043
92518W        W52021  21.611   7.866   1.389
92519W        W52022  19.744   1.283   2.419
92520W        W52023  23.210   3.720   3.377
92521W        W52024  21.543   4.772  12.886
92522W        W52025   8.380   7.362  13.966
92523W        W52026  35.903  24.134   2.746
92524W        W52027  16.599  36.436  14.959
92525W        W52028  31.435   0.931  14.383
92526W        W52029  39.942  18.580  11.124
92527W        W52030  29.528  39.913   0.832
92528W        W52031  44.828  40.492  14.817
92529W        W52032   0.962  23.612   4.327
92530W        W52033  40.970  28.110   4.682
92531W        W52034  12.152  17.589  12.403
92532W        W52035  19.558  21.084  11.949
92533W        W52036  28.588   4.832   0.775
92534W        W52037   3.448  18.255  14.916
92535W        W52038  24.628  42.381   2.737
92536W        W52039  37.370  28.164   3.163
92537W        W52040  27.979  44.433  14.874
92538W        W52041   8.699   1.266  13.447
92539W        W52042  37.457  44.412  13.507
92540W        W52043   9.190   4.337  10.553
92541W        W52044  14.217   1.925  14.492
92542W        W52045   4.322  37.361  14.327
92543W        W52046  41.040  29.116  13.888
92544W        W52047  41.832  10.201   1.443
92545W        W52048   1.848  16.662   1.781
92546W        W52049  15.806  15.814   1.738
92547W        W52050  12.277  16.165   4.834
92548W        W52051  31.527  39.866   1.212
92549W        W52052  41.959  26.473  11.564
92550W        W52053  20.089   7.325   1.444
92551W        W52054   0.947  16.746  14.811
92552W        W52055  34.411  26.463  12.577
92553W        W52056  33.607  18.190  13.460
92554W        W52057  14.695  41.009  13.985
92555W        W52058  13.201  28.182   9.963
92556W        W52059  22.094  16.244   3.226
92557W        W52060  33.411   0.899   0.778
92558W        W52061  30.137  41.859  14.990
92559W        W52062  40.037  33.921  13.314
92560W        W52063  16.778  25.656   0.478
92561W        W52064   9.253  37.465   1.376
92562W        W52065  10.138  18.762   4.186
92563W        W52066   2.456  28.180  14.917
92564W        W52067   3.317   7.255   0.342
92565W        W52068  12.281  15.251   2.830
92566W        W52069  41.919  32.919   3.384
92567W        W52070   9.291  33.984   4.749
92568W        W52071  34.093  32.103  13.398
92569W        W52072  18.566  11.237   0.949
92570W        W52073   0.347   5.924   3.305
92571W        W52074  37.857  37.986   1.386
92572W        W52075  28.976  26.488  13.315
92573W        W52076  19.075  36.000   3.336
92574W        W52077  21.203   5.758   3.835
92575W        W52078  12.240   1.434  13.364
92576W        W52079  21.624  15.601  12.342
92577W        W52080   2.258   2.316   0.939
92578W        W52081  34.988  16.763   0.956
92579W        W52082   6.412  40.506  10.589
92580W        W52083  10.644  38.415  13.050
92581W        W52084  20.582  24.030   3.836
92582W        W52085  34.504  33.130   4.144
92583W        W52086  40.478  30.964   1.323
92584W        W52087  21.163  28.951  10.095
92585W        W52088  40.904  19.046  12.526
92586W        W52089  36.914   7.370  14.903
92587W        W52090  25.219  12.301  11.611
92588W        W52091   2.772  11.747   2.880
92589W        W52092  35.506  12.758  13.432
92590W        W52093  23.601  20.543  13.406
92591W        W52094  26.980   5.262   4.638
92592W        W52095  30.925  33.894   1.744
92593W        W52096  33.507  16.781   4.343
92594W        W52097  26.141  44.443  12.528
92595W        W52098   1.431   9.348   1.429
92596W        W52099  43.927  26.524  10.487
92597W        W52100  24.978   7.810   1.295
92598W        W52101  38.925  26.176  13.018
92599W        W52102  16.678  27.973  12.562
92600W        W52103  42.861  11.207   1.908
92601W        W52104  43.302   9.695   1.871
92602W        W52105  25.681  23.732  12.017
92603W        W52106  14.601  28.936  11.022
92604W        W52107  32.618  11.724   2.843
92605W        W52108  40.962  43.949   3.810
92606W        W52109  28.956  31.427   4.351
92607W        W52110  19.555  21.593   3.235
92608W        W52111   5.256  16.245   1.294
92609W        W52112  17.630  36.925  13.308
92610W        W52113   1.344  19.074   3.811
92611W        W52114   1.336  11.361   0.860
92612W        W52115   8.732  39.839  10.554
92613W        W52116   7.735  28.497  14.793
92614W        W52117  26.106  17.112  14.467
92615W        W52118  26.526   2.797  13.809
92616W        W52119   0.874   4.714   5.232
92617W        W52120  22.132  24.126  13.803
92618W        W52121   3.871  26.207   3.232
92619W        W52122  32.490  39.012   2.317
92620W        W52123  41.329  23.700   4.670
92621W        W52124  41.852  16.105   2.702
92622W        W52125  22.724  12.788  13.460
92623W        W52126  25.533  12.172  11.486
92624W        W52127  29.050  30.084   3.360
92625W        W52128  10.226   2.924   0.430
92626W        W52129  34.479   3.393  10.890
92627W        W52130   1.835   3.844   0.369
92628W        W52131  35.060   3.309   1.358
92629W        W52132  22.197   4.842   4.244
92630W        W52133  42.920  40.005   9.969
92631W        W52134  11.260  33.954   1.219
92632W        W52135  42.299   8.308   2.240
92633W        W52136  33.525  43.941  10.133
92634W        W52137  35.894  43.880   2.260
92635W        W52138   2.863  42.332   9.498
92636W        W52139  38.990   5.852  13.407
92637W        W52140  42.999  36.490   5.158
92638W        W52141  17.171   9.872   1.416
92639W        W52142   2.720  24.528   1.717
92640W        W52143   7.378   4.225   3.250
92641W        W52144  26.479  41.013  13.976
92642W        W52145  21.741  11.280   2.305
92643W        W52146  11.638  23.676  14.311
92644W        W52147  17.175  29.166  14.910
92645W        W52148  35.505   9.385  11.983
92646W        W52149   1.941   6.255   0.732
92647W        W52150   9.863  32.474   4.165
92648W        W52151  41.799  21.512   3.737
92649W        W52152  14.129  12.759  14.835
92650W        W52153  34.583  41.409  14.406
92651W        W52154  36.090  33.411   3.214
92652W        W52155   0.292  13.780  10.555
92653W        W52156  10.779  43.877  14.319
92654W        W52157  34.453   9.251  13.025
92655W        W52158  21.244  26.077  14.766
92656W        W52159  17.784  18.179  13.924
92657W        W52160  43.346   6.293   2.875
92658W        W52161  36.958   9.801  14.966
92659W        W52162  31.586  24.987  14.373
92660W        W52163  44.379  19.733  12.072
92661W        W52164   7.908  13.120  10.434
92662W        W52165   0.949   9.230  14.334
92663W        W52166  38.903  44.417   3.310
92664W        W52167  41.486   4.918   3.288
92665W        W52168  37.086  41.405   1.716
92666W        W52169  11.213  40.982   1.293
92667W        W52170  32.450   2.391   1.327
92668W        W52171  16.654  40.825   4.136
92669W        W52172  22.632   9.245  13.474
92670W        W52173   7.215  30.614  12.926
92671W        W52174   3.305  36.381   1.390
92672W        W52175   7.267  11.847   2.233
92673W        W52176  37.381  17.771   0.260
92674W        W52177  13.248  31.584   5.260
92675W        W52178   4.937  14.296  14.987
92676W        W52179  40.515  34.018   0.934
92677W        W52180  10.736  20.615   3.767
92678W        W52181  33.533  37.883   2.858
92679W        W52182  14.717  19.712  11.418
92680W        W52183  12.756  21.214   1.733
92681W        W52184  15.100  42.489  14.364
92682W        W52185  43.417  41.901  14.316
92683W        W52186   2.802  41.493   1.361
92684W        W52187  37.945  14.747   4.336
92685W        W52188  19.102  39.435  10.964
92686W        W52189  37.416  22.202  11.895
92687W        W52190  35.991  23.705  12.031
92688W        W52191  14.672  38.041  11.116
92689W        W52192   4.775  16.675   1.739
92690W        W52193   2.463  27.158   1.298
92691W        W52194  12.798  12.144   2.243
92692W        W52195   1.413  34.042  13.888
92693W        W52196  23.209  38.944   4.612
92694W        W52197  39.547  37.389  12.497
92695W        W52198  26.605  25.660   0.903
92696W        W52199   2.229  40.040  10.967
92697W        W52200   7.713  41.956   3.252
92698W        W52201  15.257  20.640  12.441
92699W        W52202   8.319   0.355   2.679
92700W        W52203  39.421  32.937  14.313
92701W        W52204  33.968  28.121  14.762
92702W        W52205  12.284  14.652  14.777
92703W        W52206   0.761  34.443   0.345
92704W        W52207   4.811   4.887   0.431
92705W        W52208   5.695  37.843  13.859
92706W        W52209  42.957  29.562   4.309
92707W        W52210  11.731  24.540  14.437
92708W        W52211  15.655  27.073  11.077
92709W        W52212  30.456  26.993   3.232
92710W        W52213  31.943  19.580   1.272
92711W        W52214  32.959  30.527   0.256
92712W        W52215  40.403  15.163   1.354
92713W        W52216  33.986  11.128   4.704
92714W        W52217  29.490  22.083   1.875
92715W        W52218  23.621  32.473   0.876
92716W        W52219  40.958  39.990   4.179
92717W        W52220  21.180  41.452  11.014
92718W        W52221   4.814  39.325   0.769
92719W        W52222  44.004   7.744   3.827
92720W        W52223  25.080  38.951  11.510
92721W        W52224  19.226  10.702   1.424
92722W        W52225   0.835  43.823   2.324
92723W        W52226  41.534  20.578  14.934
92724W        W52227  37.357  13.205   1.890
92725W        W52228  11.266   5.397   3.307
92726W        W52229  14.117  33.567   0.920
92727W        W52230  36.052  32.976   4.245
92728W        W52231  33.476  28.093   3.705
92729W        W52232  23.070  12.734  10.513
92730W        W52233  31.435  20.598  11.890
92731W        W52234  44.426   2.894   4.207
92732W        W52235  20.252  40.400   0.937
92733W        W52236  42.478  35.042   2.203
92734W        W52237   9.704   6.837   0.473
92735W        W52238   5.354  14.221  11.874
92736W        W52239  39.029  18.272  13.794
92737W        W52240  42.821  30.551  12.350
92738W        W52241  20.038   8.224  12.474
92739W        W52242  29.054  28.037   0.860
92740W        W52243  11.840   5.439   2.281
92741W        W52244  23.562  43.411  14.513
92742W        W52245  26.997   8.710   4.173
92743W        W52246  22.722   9.225   1.763
92744W        W52247  42.941   2.724  12.416
92745W        W52248   6.680  37.417  12.894
92746W        W52249   8.681  38.346  12.496
92747W        W52250   2.937  29.979  11.989
92748W        W52251   1.764  28.636   4.118
92749W        W52252  29.085   5.354  11.489
92750W        W52253  27.494  29.632   3.152
92751W        W52254   4.425  32.601  13.337
92752W        W52255   8.720   5.876  10.930
92753W        W52256  10.207  43.867   1.259
92754W        W52257  42.899  42.959   1.838
92755W        W52258  11.198  11.302   1.418
92756W        W52259   9.864  40.401  13.327
92757W        W52260  27.948   9.266  12.048
92758W        W52261  30.504  24.573   3.289
92759W        W52262  37.877  44.888  14.341
92760W        W52263  14.660  10.303   5.210
92761W        W52264  26.968  31.549   2.741
92762W        W52265  14.631   9.673   4.775
92763W        W52266   7.726   9.197   1.245
92764W        W52267  44.459  14.741  10.478
92765W        W52268  13.345  10.350   0.797
92766W        W52269  42.878  14.298   4.803
92767W        W52270  38.974  41.325  12.965
92768W        W52271  12.823   4.732  11.521
92769W        W52272  30.067   9.292   0.354
92770W        W52273  21.615  31.907  14.473
92771W        W52274   7.397  25.677   1.445
92772W        W52275  43.881  27.456   9.556
92773W        W52276   2.810  37.363  10.003
92774W        W52277  12.232  13.262  10.609
92775W        W52278   8.323  34.932   0.326
92776W        W52279  26.488   7.384   1.360
92777W        W52280  25.196  32.524  11.493
92778W        W52281  10.174  22.098   4.268
92779W        W52282  31.096  20.730   1.387
92780W        W52283  37.504  28.000   4.690
92781W        W52284   2.301  42.801   4.289
92782W        W52285  31.414  23.086  13.036
92783W        W52286   1.418   3.775  12.563
92784W        W52287   4.719   2.801   0.329
92785W        W52288   6.196  34.559   2.754
92786W        W52289  38.336  42.319   2.856
92787W        W52290  22.603  17.212   4.257
92788W        W52291  26.542  17.753   1.314
92789W        W52292  22.045   2.226  11.545
92790W        W52293   2.255  12.709   1.359
92791W        W52294  13.738  26.189  12.846
92792W        W52295  41.454  19.262  11.946
92793W        W52296   7.227  17.193   3.667
92794W        W52297  40.003  44.307   9.979
92795W        W52298   3.928   1.909  10.981
92796W        W52299  32.890  10.203   3.649
92797W        W52300   0.801  20.550  12.984
92798W        W52301  25.027  11.137  14.776
92799W        W52302  20.202   0.968  12.076
92800W        W52303   2.809  19.186   1.263
92801W        W52304   0.358  15.656   1.814
92802W        W52305  14.255  12.668   1.234
92803W        W52306  42.975   3.296   3.170
92804W        W52307  38.860  28.534   1.742
92805W        W52308   5.915  19.280  13.340
92806W        W52309   0.965  32.024   0.310
92807W        W52310  35.430  31.506  12.947
92808W        W52311  19.233  28.539   4.346
92809W        W52312  25.585  24.213  13.951
92810W        W52313  23.059  35.927   0.790
92811W        W52314  22.506  19.552  13.308
92812W        W52315  22.733  10.242  14.843
92813W        W52316  44.780  26.062   2.295
92814W        W52317  26.136  26.160   4.188
92815W        W52318   8.826  24.059  12.025
92816W        W52319  32.427  34.021   9.662
92817W        W52320  12.712   6.306   4.661
92818W        W52321  42.395  32.519  12.920
92819W        W52322  30.625   4.437   1.825
92820W        W52323  15.701  34.613   4.739
92821W        W52324  43.907  26.546  12.485
92822W        W52325  37.531   1.878  11.378
92823W        W52326  42.426   8.681  14.424
92824W        W52327  13.242  36.958  10.506
92825W        W52328   4.785  23.114   3.795
92826W        W52329  37.928  14.776  12.011
92827W        W52330  19.271   7.818  11.122
92828W        W52331  14.123   8.268   1.382
92829W        W52332   4.333   4.873  12.422
92830W        W52333  25.623  10.139   1.731
92831W        W52334  12.194  20.692   1.807
92832W        W52335  33.527   1.775  12.876
92833W        W52336  43.486   4.354  14.804
92834W        W52337  38.441  21.225  13.318
92835W        W52338   6.412  29.502   2.271
92836W        W52339   9.260  34.965   4.158
92837W        W52340  26.472  33.529   2.368
92838W        W52341  30.584   4.811   1.442
92839W        W52342  27.043  38.907  10.920
92840W        W52343  25.102  15.085  13.492
92841W        W52344  11.205   3.889  14.375
92842W        W52345   0.256  41.424  14.397
92843W        W52346  42.909  10.227  11.928
92844W        W52347   9.156  43.401   1.845
92845W        W52348  15.198  22.704  10.511
92846W        W52349  30.165  17.099  11.011
92847W        W52350   8.788   4.220   4.823
92848W        W52351  28.931  24.038   0.783
92849W        W52352   2.336  14.811  10.998
92850W        W52353  14.686  35.559   1.307
92851W        W52354  24.524  35.524   3.774
92852W        W52355  13.785   5.264  11.868
92853W        W52356   2.443   0.919   0.778
92854W        W52357  26.678  37.932   4.313
92855W        W52358  34.452  22.733  12.554
92856W        W52359  12.188  22.032  10.634
92857W        W52360   0.970   5.800   4.827
92858W        W52361  42.812   1.417  14.887
92859W        W52362  12.122  31.067  14.400
92860W        W52363  27.045   6.884   0.748
92861W        W52364  13.199  18.544   4.725
92862W        W52365  26.960   8.403   0.372
92863W        W52366  28.592  40.418  13.839
92864W        W52367  19.541  42.388  14.788
92865W        W52368  18.086  18.752  14.771
92866W        W52369  17.160  15.655  10.637
92867W        W52370   7.214  39.971  10.930
92868W        W52371  42.436  18.693  10.556
92869W        W52372  23.130  33.933   1.280
92870W        W52373  22.102  29.987   2.212
92871W        W52374   0.377  36.487  14.374
92872W        W52375  31.026   2.841  11.448
92873W        W52376  29.651  29.470   1.214
92874W        W52377  16.729  42.312  12.578
92875W        W52378  22.537   2.348  14.032
92876W        W52379  40.437  30.505   1.799
92877W        W52380  13.761  15.089  13.351
92878W        W52381  27.138  23.164   4.144
92879W        W52382  40.925  10.203  10.893
92880W        W52383  36.948  20.526  11.471
92881W        W52384   7.756   0.755   0.472
92882W        W52385   3.856   1.763   2.327
92883W        W52386   8.831  33.955   2.223
92884W        W52387  37.068  27.512   3.145
92885W        W52388  27.494  12.201  14.774
92886W        W52389  10.373   2.254   0.798
92887W        W52390  37.968   8.870  11.980
92888W        W52391  27.089  11.794  14.893
92889W        W52392  41.391  41.916   2.215
92890W        W52393  44.417  33.528  11.035
92891W        W52394  21.024   9.174  11.994
92892W        W52395  40.350  12.781  14.760
92893W        W52396  12.242  44.486  10.891
92894W        W52397  34.456  26.511   4.126
92895W        W52398  30.502  32.555   2.838
92896W        W52399  30.011  10.190   0.318
92897W        W52400  36.909   5.238   4.777
92898W        W52401  17.220  21.053   4.599
92899W        W52402   7.336   9.841  10.637
92900W        W52403   8.875  28.466  11.503
92901W        W52404  11.626  40.874   0.361
92902W        W52405  31.413  23.557   2.800
92903W        W52406  17.083  22.167  11.475
92904W        W52407  35.052  35.449   3.726
92905W        W52408  24.718  33.891  11.558
92906W        W52409   3.427  20.084  11.878
92907W        W52410  39.930   6.345  14.476
92908W        W52411  25.086  38.997  11.028
92909W        W52412  27.079  42.432  13.948
92910W        W52413  43.822  42.288  12.343
92911W        W52414  25.582  19.674   5.107
92912W        W52415  41.431   4.343   1.413
92913W        W52416   9.216  13.609   3.196
92914W        W52417   9.859  34.928  13.804
92915W        W52418  26.047  20.041   3.209
92916W        W52419  40.432  25.219   2.269
92917W        W52420  23.203  19.185  10.467
92918W        W52421  26.649  14.789  13.010
92919W        W52422   6.386  21.109  10.616
92920W        W52423  12.855  36.363   3.148
92921W        W52424  11.200  28.507   1.779
92922W        W52425   8.830  37.571  12.072
92923W        W52426  28.933   9.795   0.784
92924W        W52427  13.843  16.080  12.508
92925W        W52428  41.926  31.944   1.852
92926W        W52429  19.650  14.829  13.848
92927W        W52430  17.258   9.309  13.853
92928W        W52431   9.672  26.065  14.020
92929W        W52432  30.942  44.490  14.454
92930W        W52433  10.633  26.490   0.940
92931W        W52434  34.991   4.283  11.863
92932W        W52435   6.236  21.182  12.512
92933W        W52436  22.636   8.741  10.900
92934W        W52437  20.198   5.924   1.448
92935W        W52438  16.274   2.255   4.669
92936W        W52439  43.316  42.435  11.121
92937W        W52440  17.065   9.219   0.294
92938W        W52441  41.331  34.590  12.547
92939W        W52442  11.360  43.367  13.963
92940W        W52443  34.472   7.376   4.199
92941W        W52444  12.142   6.821  13.823
92942W        W52445  28.463  35.485  10.576
92943W        W52446  40.444  32.527   0.444
92944W        W52447  38.887   6.725  13.323
92945W        W52448  15.662  16.265   0.262
92946W        W52449  23.091  29.001   4.265
92947W        W52450  38.492   9.342   1.802
92948W        W52451   3.941   4.409  11.887
92949W        W52452  21.647   6.236  11.051
92950W        W52453  28.080  33.515   5.314
92951W        W52454  36.354   2.399   2.839
92952W        W52455  43.870  35.935   3.842
92953W        W52456   3.751  11.138  13.482
92954W        W52457  13.275  32.416  14.012
92955W        W52458  34.587  32.891   4.733
92956W        W52459  34.897  22.189  14.369
92957W        W52460  41.786  20.718  10.534
92958W        W52461  25.561   7.752  13.881
92959W        W52462  26.024   1.319   9.929
92960W        W52463  26.473  26.462  13.450
92961W        W52464  17.650  36.060  11.978
92962W        W52465  22.199  34.607   1.716
92963W        W52466  15.139  23.680   0.765
92964W        W52467   0.274   5.340   2.243
92965W        W52468   8.746   4.778   2.351
92966W        W52469   6.233  19.084   4.141
92967W        W52470   0.380  32.098   2.268
92968W        W52471  12.342  17.209   2.322
92969W        W52472  31.926  28.088  10.152
92970W        W52473   8.364  29.534  14.279
92971W        W52474   2.309  11.251  10.448
92972W        W52475  10.677  18.607   4.147
92973W        W52476   7.753   5.223  11.981
92974W        W52477  36.439  26.491   0.854
92975W        W52478  32.593  41.533  12.025
92976W        W52479  22.714  41.827   2.747
92977W        W52480  26.683  27.459   4.806
92978W        W52481  16.318  18.561   2.203
92979W        W52482  34.990  24.598   0.398
92980W        W52483  42.806   1.753  11.596
92981W        W52484  22.542  20.732   4.295
92982W        W52485   4.246   3.762  12.873
92983W        W52486  35.364  37.002   2.388
92984W        W52487   3.390   0.769   4.794
92985W        W52488  21.110  12.227   1.712
92986W        W52489  10.858  20.045   4.330
92987W        W52490  35.380  10.350  12.899
92988W        W52491  34.444   7.298   4.829
92989W        W52492  35.596   1.380  10.532
92990W        W52493  13.810  34.083   1.906
92991W        W52494   4.905  19.238  12.022
92992W        W52495  28.443  18.131  12.860
92993W        W52496  11.242  37.981  11.961
92994W        W52497  14.754   9.879   4.212
92995W        W52498   9.660  14.796   2.844
92996W        W52499  19.569  40.346   4.273
92997W        W52500  30.623  26.538   3.334
92998W        W52501  18.692  31.040   3.181
92999W        W52502  43.323  25.619   3.814
93000W        W52503   4.710  30.043   0.848
93001W        W52504  43.404  28.518   1.829
93002W        W52505  14.720  10.775  10.424
93003W        W52506  44.412  43.769  10.139
93004W        W52507  12.626  30.485   9.963
93005W        W52508  17.065   0.965   2.703
93006W        W52509   9.802  43.008   1.392
93007W        W52510  34.564  18.656   0.290
93008W        W52511   0.874  30.097   2.333
93009W        W52512  31.997   1.845   3.221
93010W        W52513  13.826  24.061  12.081
93011W        W52514  38.025   4.437   2.201
93012W        W52515  42.454  40.324  12.052
93013W        W52516   1.459  17.670   0.298
93014W        W52517  31.945  34.519   0.811
93015W        W52518   9.683   5.305  13.799
93016W        W52519  31.522  20.646   2.366
93017W        W52520  30.646  20.233  14.331
93018W        W52521  37.393   5.265  11.501
93019W        W52522   4.305   7.768   3.746
93020W        W52523   7.780  25.691  13.853
93021W        W52524  33.456  23.021  12.054
93022W        W52525  25.557  29.530  12.035
93023W        W52526  34.582  32.095  10.576
93024W        W52527  23.636  25.212  10.406
93025W        W52528  15.289  28.072   0.816
93026W        W52529  16.227  13.840  11.991
93027W        W52530  30.465  27.545   0.301
93028W        W52531  23.221   5.331  12.444
93029W        W52532  42.901  22.651  10.943
93030W        W52533  42.929   3.946   0.958
93031W        W52534   4.278   2.399   2.756
93032W        W52535  29.534  36.389  10.154
93033W        W52536   2.832   7.373   4.651
93034W        W52537  44.396  35.488   0.812
93035W        W52538   4.403  42.348   5.147
93036W        W52539  21.680  25.083  10.636
93037W        W52540  43.320   1.745  13.911
93038W        W52541  25.627  21.575   1.879
93039W        W52542  22.599  28.619   2.325
93040W        W52543  18.080  15.640   2.416
93041W        W52544  26.141  22.028  11.913
93042W        W52545  42.802   1.298   3.309
93043W        W52546  40.032  21.606  14.419
93044W        W52547  35.373  38.347   4.257
93045W        W52548  34.432   1.391  12.433
93046W        W52549  10.204  28.103   1.444
93047W        W52550   2.964  34.104   1.782
93048W        W52551  29.046  22.744   2.833
93049W        W52552  25.486  19.641   3.793
93050W        W52553   2.882  24.102   4.621
93051W        W52554   4.715  10.252  10.477
93052W        W52555  43.879  32.552  13.376
93053W        W52556  10.651  23.555  10.894
93054W        W52557   9.780  43.478   1.423
93055W        W52558   9.754  16.624   3.789
93056W        W52559  39.437  22.654  12.994
93057W        W52560  34.506  20.624  14.773
93058W        W52561  42.305  34.372   3.373
93059W        W52562  39.820   8.379  12.494
93060W        W52563   7.250  16.309   0.260
93061W        W52564   7.857  25.553  12.927
93062W        W52565  37.884  28.031  10.988
93063W        W52566  14.228   0.862  14.779
93064W        W52567   9.752   9.776   0.844
93065W        W52568  33.579  38.976  10.982
93066W        W52569   3.856  36.014  11.955
93067W        W52570  24.012  30.555  11.503
93068W        W52571  20.579   0.377   3.286
93069W        W52572  22.555   5.195  12.345
93070W        W52573  18.149  38.557  12.096
93071W        W52574  10.681  38.405  14.917
93072W        W52575  19.562  41.834   1.843
93073W        W52576  43.938  25.711   0.373
93074W        W52577  11.144  14.817   1.728
93075W        W52578  42.449  11.252   0.732
93076W        W52579   2.285  18.112   1.760
93077W        W52580  40.991  31.408  13.939
93078W        W52581   3.818   5.261  11.102
93079W        W52582  34.016  13.143  10.644
93080W        W52583   6.816  34.962   4.341
93081W        W52584  24.533   8.236   1.257
93082W        W52585  44.499  43.767   0.480
93083W        W52586   4.843  25.085   1.848
93084W        W52587  29.065  17.583   4.811
93085W        W52588  21.130  15.807  11.954
93086W        W52589   7.301   0.469   2.369
93087W        W52590  15.626  28.555  11.398
93088W        W52591  29.498  36.862   1.444
93089W        W52592   8.182  44.943   4.193
93090W        W52593  38.437  43.313   4.351
93091W        W52594  36.024  13.122   4.205
93092W        W52595   9.663   3.927   2.749
93093W        W52596  14.781  39.840  14.862
93094W        W52597   6.425  24.628  13.965
93095W        W52598  24.543  25.084   0.741
93096W        W52599  29.602   1.331  10.582
93097W        W52600  34.988  33.977   4.825
93098W        W52601   5.753  24.581   1.372
93099W        W52602   0.857   8.271   2.248
93100W        W52603  21.623   7.284  14.024
93101W        W52604  14.227   4.937   1.789
93102W        W52605  37.061   2.388  13.312
93103W        W52606  44.777  29.515   1.777
93104W        W52607  16.778   0.957   2.214
93105W        W52608  24.157  16.757  11.386
93106W        W52609  43.798  44.821  14.996
93107W        W52610  34.094  24.191   3.342
93108W        W52611  35.578  40.005  10.508
93109W        W52612   1.266  41.489   2.331
93110W        W52613  25.096  12.727   4.834
93111W        W52614  44.798  43.456   4.232
93112W        W52615  18.286  16.188  11.022
93113W        W52616   0.943  40.882   2.866
93114W        W52617  13.809  29.495  13.808
93115W        W52618   6.793   6.866  14.377
93116W        W52619  44.757  17.668  12.350
93117W        W52620  31.001  15.177  12.858
93118W        W52621   3.879  24.177  13.835
93119W        W52622  40.973   7.322   2.190
93120W        W52623  42.296   1.372   3.311
93121W        W52624  41.937   7.902  12.023
93122W        W52625  33.968  24.991   0.865
93123W        W52626  22.069  19.228  13.970
93124W        W52627  16.184  14.628  13.975
93125W        W52628   2.360  41.343   9.982
93126W        W52629  28.085  15.751   0.312
93127W        W52630  17.643  40.920  11.063
93128W        W52631   1.823  38.565  13.331
93129W        W52632  44.380  31.986  11.054
93130W        W52633  20.224   1.966   0.447
93131W        W52634  38.405   1.280   1.909
93132W        W52635  41.903  31.095   1.920
93133W        W52636  21.589   7.329  14.944
93134W        W52637   5.745  36.849  14.500
93135W        W52638  12.343  32.585   2.310
93136W        W52639  41.365  26.046  11.593
93137W        W52640  29.442  22.218  14.781
93138W        W52641   1.908  18.286  12.419
93139W        W52642  30.633  20.701   3.169
93140W        W52643  31.567  18.248   4.647
93141W        W52644  39.505  18.714  11.117
93142W        W52645  17.108   9.389  13.423
93143W        W52646  40.326   9.274  10.138
93144W        W52647  35.045  27.047   4.837
93145W        W52648  30.541  28.478   0.356
93146W        W52649  17.110  41.030  12.569
93147W        W52650  12.118  10.157  14.989
93148W        W52651   9.764  37.952  10.541
93149W        W52652  39.329  21.648   3.630
93150W        W52653   6.781  41.482  10.510
93151W        W52654   4.282  27.096  13.044
93152W        W52655   0.788  25.643   0.384
93153W        W52656  33.537  10.832  10.953
93154W        W52657  23.720  33.097  13.348
93155W        W52658  27.098  28.970  11.972
93156W        W52659   9.378  11.685  13.955
93157W        W52660  14.799  13.254  14.396
93158W        W52661  43.504  39.369  12.436
93159W        W52662  36.382  38.452  11.992
93160W        W52663  36.348  32.112  12.854
93161W        W52664  20.666   1.284  11.006
93162W        W52665  29.098  11.802  13.821
93163W        W52666  39.552  33.483   1.760
93164W        W52667  26.118  34.541   0.924
93165W        W52668  17.085  33.090  12.579
93166W        W52669  23.597  37.460  13.477
93167W        W52670  10.641   6.785  14.880
93168W        W52671  17.153  38.822  14.025
93169W        W52672   1.892  15.804  14.299
93170W        W52673  31.547   0.340  11.582
93171W        W52674  44.918  37.955  10.505
93172W        W52675  41.473  20.268  11.551
93173W        W52676   8.319  26.186   4.151
93174W        W52677   8.696   3.291  12.340
93175W        W52678  16.226  34.989  12.915
93176W        W52679  22.099   8.759   3.685
93177W        W52680   4.449  14.815   1.438
93178W        W52681  39.851  24.982   4.750
93179W        W52682  39.029  24.173  13.418
93180W        W52683  14.783  37.940   2.265
93181W        W52684   6.806  21.179  14.953
93182W        W52685   6.337  11.319   2.417
93183W        W52686  26.012   7.376  11.560
93184W        W52687   5.365  17.279  10.486
93185W        W52688   6.382  20.624  14.344
93186W        W52689   9.179  20.573  14.339
93187W        W52690   3.913   0.927   1.443
93188W        W52691  28.620  25.998  10.953
93189W        W52692  35.408   5.897  14.441
93190W        W52693   2.259  42.016   0.453
93191W        W52694  16.227  42.975  14.427
93192W        W52695  23.669  21.052   0.435
93193W        W52696  26.639  17.110   3.271
93194W        W52697  34.077   4.268  12.888
93195W        W52698  29.453  29.571  11.900
93196W        W52699  36.855  31.407   4.147
93197W        W52700   2.876   0.799  14.417
93198W        W52701  16.786   0.379  14.828
93199W        W52702  12.757  25.543   0.482
93200W        W52703  12.812  23.072  11.040
93201W        W52704   4.936  39.880  13.460
93202W        W52705  10.719  33.616  13.374
93203W        W52706  16.133  37.496   0.804
93204W        W52707  13.721  43.947  13.528
93205W        W52708  43.831  38.484  12.858
93206W        W52709  29.924  31.057   0.729
93207W        W52710   7.672  40.362   2.690
93208W        W52711  26.543  33.900   0.938
93209W        W52712  23.199  32.898   2.238
93210W        W52713   9.864  43.408   4.354
93211W        W52714   0.939  39.443  13.825
93212W        W52715  36.464  23.519  11.375
93213W        W52716  15.694  41.487   0.781
93214W        W52717  26.625  21.713   1.785
93215W        W52718  39.933  35.520   4.169
93216W        W52719  29.537  28.449  14.908
93217W        W52720  28.014   2.735   1.342
93218W        W52721  20.755  24.170  13.840
93219W        W52722  41.896  37.348   1.275
93220W        W52723   0.392  29.548  13.363
93221W        W52724  15.208  40.847   3.383
93222W        W52725  28.463   1.758  12.406
93223W        W52726  33.545  34.568  14.931
93224W        W52727  35.858  43.398   0.435
93225W        W52728  13.747  31.531   2.775
93226W        W52729   8.356  17.620   3.261
93227W        W52730  27.626  42.821   2.202
93228W        W52731  30.101  24.631  12.984
93229W        W52732  13.692  21.691   1.435
93230W        W52733  14.146   1.479  12.363
93231W        W52734  36.394  17.257   1.325
93232W        W52735  19.164   7.824  10.460
93233W        W52736  24.223  18.259   0.481
93234W        W52737  40.403  22.534   2.787
93235W        W52738  38.951  27.167   4.196
93236W        W52739  15.108  42.825   4.149
93237W        W52740  16.699  33.593  13.328
93238W        W52741   4.758  17.698  11.964
93239W        W52742  17.657  17.625   1.805
93240W        W52743   3.808   6.203   3.353
93241W        W52744  12.693  25.615  10.531
93242W        W52745   5.824  24.157   2.307
93243W        W52746   5.814   5.411  12.963
93244W        W52747  44.356  11.318   1.905
93245W        W52748  31.114  28.444  13.913
93246W        W52749  29.942  28.574  11.929
93247W        W52750  25.488  35.405  14.939
93248W        W52751  41.025  44.289   0.747
93249W        W52752  11.233  26.663  11.987
93250W        W52753  15.311  29.552  13.005
93251W        W52754  16.306  28.677  12.402
93252W        W52755   5.697  15.241  14.446
93253W        W52756  28.023  30.432  11.980
93254W        W52757  11.740   2.457   2.291
93255W        W52758  11.689  44.996   1.267
93256W        W52759  37.953  29.616   4.819
93257W        W52760  36.458  10.686   2.761
93258W        W52761  33.088  41.963  13.458
93259W        W52762  43.936  41.931  10.958
93260W        W52763   4.921  11.713   1.436
93261W        W52764  34.614  28.117  12.547
93262W        W52765  30.604   3.394   0.250
93263W        W52766   2.440  36.499   3.708
93264W        W52767  13.209  29.173  12.547
93265W        W52768  19.076  14.113   1.765
93266W        W52769  22.154  27.687  12.057
93267W        W52770   7.178   9.812  14.371
93268W        W52771   6.413   6.680  11.557
93269W        W52772  20.274  10.382   4.709
93270W        W52773   4.267  12.166  11.068
93271W        W52774  18.695   9.156   3.181
93272W        W52775  24.588  29.615  11.464
93273W        W52776  10.826  19.560   3.750
93274W        W52777  32.055   9.814  11.973
93275W        W52778   5.298   8.269   3.663
93276W        W52779  24.072   6.746  11.607
93277W        W52780  21.026  43.799   1.716
93278W        W52781  36.970  34.429  13.870
93279W        W52782  36.409  25.597   1.344
93280W        W52783   6.220  21.070  13.820
93281W        W52784  32.617  16.283   5.733
93282W        W52785  11.235  23.645  10.491
93283W        W52786  34.399  41.019  13.929
93284W        W52787  31.412  12.161  10.081
93285W        W52788  20.139   6.768  13.454
93286W        W52789  20.648  33.557  13.818
93287W        W52790  22.214   7.902  14.945
93288W        W52791  41.337   9.726  14.954
93289W        W52792  22.206  13.739   3.653
93290W        W52793   3.798  19.574  14.422
93291W        W52794  18.696  33.430   2.209
93292W        W52795  21.595  10.357  12.459
93293W        W52796  21.227  39.929  14.287
93294W        W52797  39.000  13.610  10.112
93295W        W52798   2.370  33.983   3.191
93296W        W52799  31.030  11.764   0.373
93297W        W52800   3.770  17.725   1.259
93298W        W52801   4.838  20.114  14.867
93299W        W52802  23.545  21.181  14.927
93300W        W52803  18.130   1.780  14.487
93301W        W52804   0.920  37.990  14.465
93302W        W52805  44.764  11.199  12.926
93303W        W52806  32.554  37.419  13.537
93304W        W52807  36.364  43.335   3.236
93305W        W52808  14.782  31.048   3.148
93306W        W52809  44.260  26.490  13.352
93307W        W52810  29.436  44.502  13.051
93308W        W52811  30.611   0.332  12.884
93309W        W52812  17.175  40.937   1.792
93310W        W52813   5.429  38.430   0.787
93311W        W52814  15.240   1.302  12.824
93312W        W52815  32.967  33.422  14.310
93313W        W52816  33.061   3.761   4.616
93314W        W52817  27.185  35.986  13.346
93315W        W52818  23.014  37.504   0.318
93316W        W52819  12.663  27.126   1.793
93317W        W52820  25.670  18.739  14.763
93318W        W52821   3.745  31.565   2.887
93319W        W52822  21.740  28.521  11.521
93320W        W52823  18.732  19.258  11.385
93321W        W52824   1.282   8.840  10.436
93322W        W52825  16.253   2.741  13.341
93323W        W52826  15.811   6.892  12.453
93324W        W52827  17.778  33.391  14.995
93325W        W52828  10.662   2.424   4.604
93326W        W52829  26.633  14.104  11.413
93327W        W52830  19.063   5.759   0.417
93328W        W52831   6.798  11.219  10.908
93329W        W52832  16.143  28.997  14.477
93330W        W52833  40.964  37.374   1.365
93331W        W52834  28.655   7.188   4.802
93332W        W52835  25.145  32.119  11.019
93333W        W52836  18.127  29.623   0.844
93334W        W52837   7.226  25.136  10.946
93335W        W52838  17.208  15.805  12.987
93336W        W52839  17.195  25.062   0.932
93337W        W52840  16.114  37.900  12.495
93338W        W52841   5.831  15.285   3.230
93339W        W52842  29.563   1.840  14.915
93340W        W52843  18.186  12.254   3.792
93341W        W52844  42.994  39.379  10.888
93342W        W52845  25.486  44.458   4.155
93343W        W52846  40.037  41.484  13.538
93344W        W52847  41.374   5.419   4.604
93345W        W52848   9.692  12.135  12.986
93346W        W52849  26.013  40.919   0.877
93347W        W52850  39.837   7.214  11.986
93348W        W52851  44.451  18.120   0.872
93349W        W52852   5.360  29.535   4.354
93350W        W52853  41.435  32.066  11.400
93351W        W52854   0.884   6.245   0.758
93352W        W52855   7.703  31.147   4.657
93353W        W52856  17.626  38.953  11.077
93354W        W52857  27.641  14.116   0.765
93355W        W52858   6.741  14.701  14.361
93356W        W52859  20.260  28.631  13.036
93357W        W52860   2.375  24.175   4.237
93358W        W52861   5.424  35.494  13.817
93359W        W52862  20.103   6.183  12.442
93360W        W52863  26.666  16.773   3.349
93361W        W52864   2.853  28.958  13.334
93362W        W52865  26.153   3.730   1.772
93363W        W52866  23.034  32.476  13.034
93364W        W52867  23.113   3.350  11.600
93365W        W52868  10.674   9.372  11.415
93366W        W52869  44.392  13.134  13.450
93367W        W52870  17.563   6.864   0.483
93368W        W52871  29.608  15.237  14.965
93369W        W52872  30.645  34.569   4.206
93370W        W52873  24.985  43.930  14.796
93371W        W52874   2.412  34.035  11.982
93372W        W52875  42.797   9.335   2.757
93373W        W52876  20.093  29.502  14.323
93374W        W52877  38.957  35.501   0.799
93375W        W52878  44.003  32.986   1.403
93376W        W52879  23.537  23.519   4.179
93377W        W52880   9.732   1.258  10.919
93378W        W52881   8.709   4.841   3.350
93379W        W52882   9.742  10.706   2.868
93380W        W52883   9.876  40.410   0.254
93381W        W52884  32.951  30.072   4.175
93382W        W52885  42.033   3.449  10.085
93383W        W52886  33.880  44.938  12.405
93384W        W52887  42.294  24.085  11.966
93385W        W52888   5.202  30.972   3.242
93386W        W52889  23.569  14.157   4.813
93387W        W52890  31.134  12.329  14.298
93388W        W52891  43.430   8.348  11.425
93389W        W52892   4.243  25.659  12.906
93390W        W52893  21.624  19.544   1.446
93391W        W52894  28.038  16.207  10.002
93392W        W52895  11.801  19.204  13.913
93393W        W52896  37.480   1.449   1.376
93394W        W52897  40.852  16.077   4.789
93395W        W52898  38.430  19.638   2.812
93396W        W52899  16.269  11.793  10.418
93397W        W52900  13.268  23.544   4.153
93398W        W52901  34.599   2.264   4.345
93399W        W52902  21.672   9.847   3.803
93400W        W52903  41.351   9.233   4.820
93401W        W52904  22.570  29.520   1.789
93402W        W52905  34.451  21.652  13.933
93403W        W52906  32.971  41.891   2.230
93404W        W52907  34.463  39.538   1.713
93405W        W52908  20.057   9.246  11.375
93406W        W52909  25.116  17.699  12.481
93407W        W52910  32.032  22.547   1.898
93408W        W52911  20.649  20.550   2.380
93409W        W52912  20.092  11.146   3.220
93410W        W52913   8.660   5.800  13.365
93411W        W52914  26.133  16.805  13.880
93412W        W52915  18.286   1.773   0.810
93413W        W52916  12.763   6.376  11.389
93414W        W52917  20.605  36.904  10.492
93415W        W52918  23.124   7.809  14.887
93416W        W52919  43.778  20.256   2.337
93417W        W52920  14.112  44.272   5.230
93418W        W52921  35.103  28.147  11.547
93419W        W52922   1.922  27.089   0.759
93420W        W52923  10.224  34.091   3.291
93421W        W52924  29.166  30.916  13.831
93422W        W52925   3.886   6.336   4.339
93423W        W52926  31.048  23.098  11.057
93424W        W52927  26.021  13.255   3.654
93425W        W52928  22.080  38.516  14.276
93426W        W52929   7.722  38.547  14.384
93427W        W52930   6.698   8.319  12.448
93428W        W52931  18.265  34.562  14.850
93429W        W52932  19.042  12.632  12.493
93430W        W52933  27.452  42.491   4.286
93431W        W52934   6.729   5.748  11.514
93432W        W52935  41.905  10.853   1.402
93433W        W52936  22.625  26.995   2.791
93434W        W52937  37.480  39.008  14.945
93435W        W52938  35.972  30.077  13.533
93436W        W52939  15.299  31.977   1.318
93437W        W52940   6.351  42.963   9.922
93438W        W52941  17.161  20.715  13.400
93439W        W52942  13.776  21.513  14.994
93440W        W52943  27.676  21.169  13.364
93441W        W52944  36.844  13.777  14.499
93442W        W52945  39.373  16.701  12.884
93443W        W52946  40.312   9.337   2.774
93444W        W52947  20.243  27.615  13.815
93445W        W52948  28.126   1.774  10.952
93446W        W52949  24.555   1.287   3.721
93447W        W52950  28.458  24.203   1.404
93448W        W52951   2.742  13.132  13.436
93449W        W52952  36.951   4.920   0.808
93450W        W52953   5.355   3.230  12.016
93451W        W52954   4.909  14.773  11.919
93452W        W52955  34.576   8.740  12.380
93453W        W52956  23.092  41.968   0.254
93454W        W52957  14.290  18.227  13.047
93455W        W52958  40.366  39.868  13.507
93456W        W52959   9.747   9.375   3.376
93457W        W52960  22.666  17.271  13.804
93458W        W52961  24.614  41.025  14.443
93459W        W52962  24.659  20.156   1.406
93460W        W52963   0.813  10.695  11.570
93461W        W52964  14.719  34.963   4.631
93462W        W52965   0.954  34.089  11.580
93463W        W52966  42.020   3.266  13.025
93464W        W52967  35.544  30.542   1.905
93465W        W52968  40.815  11.710  14.940
93466W        W52969  10.871  22.123   3.701
93467W        W52970  12.677  15.239   4.197
93468W        W52971  15.230  44.450   2.204
93469W        W52972  10.635  26.663   3.356
93470W        W52973  19.137   2.237   1.210
93471W        W52974   6.832   5.920   1.795
93472W        W52975   1.270  25.196   4.265
93473W        W52976  20.632  42.498  13.889
93474W        W52977   4.944  18.239   1.303
93475W        W52978  38.402   9.709  12.067
93476W        W52979  40.927   9.258  12.450
93477W        W52980  13.628  11.755  11.500
93478W        W52981  31.460   4.718   3.186
93479W        W52982  35.929   7.691   3.867
93480W        W52983   4.332  43.321  11.458
93481W        W52984   1.807  15.581  10.132
93482W        W52985   4.795  12.253  10.423
93483W        W52986  23.984  19.610   1.706
93484W        W52987  41.495  32.593  10.413
93485W        W52988   3.916  36.440   2.705
93486W        W52989  14.335   8.755  12.023
93487W        W52990   2.833  19.758  10.525
93488W        W52991  31.564  11.166   0.314
93489W        W52992  45.000   1.858  13.948
93490W        W52993   4.313  30.076  12.353
93491W        W52994  22.220  21.244  13.339
93492W        W52995   9.157  29.158  12.016
93493W        W52996  27.596  26.588   2.343
93494W        W52997  33.099   3.236  13.421
93495W        W52998  42.787  19.086   2.741
93496W        W52999   6.751  24.025  10.501
93497W        W53000  32.934   0.432  11.008
93498W        W53001   6.334  31.457   2.762
93499W        W53002  17.177   0.823   3.818
93500W        W53003  20.695  43.819  12.886
93501W        W53004  14.689   0.323  12.362
93502W        W53005   4.224  10.371   0.923
93503W        W53006  39.380  38.555  11.989
93504W        W53007   4.762   3.852  14.429
93505W        W53008  14.154   2.311   2.830
93506W        W53009   9.706  27.194  13.971
93507W        W53010  10.346  35.040   2.758
93508W        W53011  31.430  28.089  11.889
93509W        W53012  42.900  35.584  11.442
93510W        W53013  21.615  26.099  14.937
93511W        W53014  25.517  43.774  11.087
93512W        W53015  22.218  32.972  14.878
93513W        W53016  41.303  42.947  14.986
93514W        W53017  19.680  22.049  12.520
93515W        W53018  36.881  31.053  14.355
93516W        W53019  24.152  27.035   1.814
93517W        W53020  24.140  24.679  11.118
93518W        W53021  40.388   4.780  10.635
93519W        W53022  11.303  12.674  13.469
93520W        W53023  40.817  10.169   2.369
93521W        W53024  11.682  37.515   5.320
93522W        W53025   2.270  44.956  12.876
93523W        W53026   4.922  36.398  14.951
93524W        W53027  11.365  14.206  11.478
93525W        W53028  16.621  43.876  13.387
93526W        W53029  13.177  44.380   2.664
93527W        W53030  19.104  25.999   0.369
93528W        W53031  12.665  39.525  12.989
93529W        W53032  35.014  24.587  11.994
93530W        W53033  11.256  29.622   5.590
93531W        W53034  36.991  37.908   3.750
93532W        W53035   0.317   0.830   2.345
93533W        W53036  10.313   9.177   2.321
93534W        W53037  16.090  19.648  11.978
93535W        W53038   6.898  16.198   1.347
93536W        W53039  21.210  27.615   4.195
93537W        W53040  32.060  25.617  13.334
93538W        W53041  38.424  25.162   2.388
93539W        W53042   3.842  17.230   1.848
93540W        W53043   8.771  31.593  13.953
93541W        W53044  18.235  23.086  11.573
93542W        W53045  25.036   8.771   2.316
93543W        W53046  25.700  29.445  10.456
93544W        W53047  19.753  40.890   1.376
93545W        W53048   7.685   6.213  11.113
93546W        W53049   0.363  16.687  14.334
93547W        W53050  18.118  39.916  10.978
93548W        W53051  17.297  39.841  12.340
93549W        W53052  41.835  40.018   3.164
93550W        W53053  20.613  24.522   4.835
93551W        W53054  37.868  12.328   2.365
93552W        W53055   9.816  17.744  13.881
93553W        W53056  23.227  23.723  11.431
93554W        W53057  12.296  22.142  14.000
93555W        W53058  37.457  28.581   3.257
93556W        W53059   4.366  16.170   3.312
93557W        W53060  38.859  40.413   0.282
93558W        W53061  23.531  16.582   2.888
93559W        W53062   7.221   0.855   4.821
93560W        W53063  18.691   8.299  12.069
93561W        W53064  17.704   7.277   1.379
93562W        W53065  24.189   7.200   0.326
93563W        W53066  29.543  43.800  10.927
93564W        W53067   5.211  20.548  14.790
93565W        W53068  30.062   4.310  10.493
93566W        W53069   1.447  31.435   3.711
93567W        W53070  21.079   8.874  10.056
93568W        W53071  10.767  14.685  12.996
93569W        W53072  16.277  31.480  13.815
93570W        W53073  43.972  26.181   4.275
93571W        W53074  41.969  32.005  14.472
93572W        W53075  16.655  31.559   1.334
93573W        W53076   4.786  30.161  10.404
93574W        W53077  40.535  33.398  12.425
93575W        W53078   7.398  35.520  13.446
93576W        W53079  16.182  37.489  14.844
93577W        W53080  21.212  35.854   1.779
93578W        W53081  22.737   8.396  10.928
93579W        W53082   1.242  39.925   2.819
93580W        W53083   4.874  23.564   3.655
93581W        W53084  36.949  25.077  12.910
93582W        W53085  22.585  18.571   0.864
93583W        W53086  11.860  27.529   2.742
93584W        W53087  32.445   0.397  11.064
93585W        W53088   0.775   1.897  14.897
93586W        W53089  23.217  11.215   4.625
93587W        W53090  24.223  25.028  14.945
93588W        W53091   1.413  35.082  12.578
93589W        W53092  11.756  17.295  12.427
93590W        W53093  29.521  42.517   0.946
93591W        W53094  26.683  34.475  13.529
93592W        W53095  11.730  27.071   2.178
93593W        W53096  13.720  13.652   3.213
93594W        W53097  41.800  25.084  13.808
93595W        W53098   2.255  16.677  14.932
93596W        W53099  32.886   9.282   2.871
93597W        W53100   9.825  34.090   2.209
93598W        W53101  35.959  12.261   2.777
93599W        W53102  26.026   3.800  14.376
93600W        W53103  17.726  25.552   0.939
93601W        W53104  26.693  16.248   3.695
93602W        W53105   1.298  16.664   4.182
93603W        W53106   8.394  40.975  14.875
93604W        W53107  34.888  35.411  10.597
93605W        W53108  41.899  21.589   1.435
93606W        W53109  22.071  31.973  12.064
93607W        W53110  24.579  33.042  14.305
93608W        W53111   6.191   6.387   3.263
93609W        W53112   3.290   1.766  11.924
93610W        W53113   1.430  33.471   2.818
93611W        W53114   8.855   4.334  14.482
93612W        W53115  13.144   1.428   0.907
93613W        W53116  13.213   5.315   0.803
93614W        W53117  35.543  20.543  14.904
93615W        W53118   7.668  36.948  10.999
93616W        W53119  24.567   9.219   3.233
93617W        W53120  18.701  36.000   2.778
93618W        W53121  38.000   7.296   4.611
93619W        W53122  32.895  10.320   1.221
93620W        W53123  31.955   8.825   5.161
93621W        W53124  34.581  22.202   2.806
93622W        W53125  31.614   8.885  10.603
93623W        W53126  10.820  15.198  12.471
93624W        W53127  40.437   0.413  10.418
93625W        W53128  37.455  22.194   2.751
93626W        W53129  17.178  41.383  10.542
93627W        W53130  14.326   0.358  12.977
93628W        W53131  40.490  31.567   2.764
93629W        W53132   7.863  37.384   1.797
93630W        W53133  41.810  27.684   3.238
93631W        W53134  16.741   5.819  12.034
93632W        W53135  11.341  15.654   4.663
93633W        W53136  16.805  28.976  11.556
93634W        W53137  35.084  21.122   0.273
93635W        W53138  25.189  32.028   1.873
93636W        W53139  13.214  12.817   1.339
93637W        W53140  10.183   2.452   0.350
93638W        W53141  32.563  17.631   9.440
93639W        W53142   6.233  26.523  10.937
93640W        W53143  19.778  16.124   2.377
93641W        W53144  33.623   0.418   3.190
93642W        W53145  38.522  39.821  10.604
93643W        W53146   3.254   9.719  13.310
93644W        W53147   2.953  11.816  11.591
93645W        W53148  25.060  28.112  14.977
93646W        W53149  11.644  11.293  11.443
93647W        W53150  38.365  31.116  10.926
93648W        W53151  37.347  25.102  14.887
93649W        W53152  21.726  35.912   1.855
93650W        W53153  30.494   8.885   4.278
93651W        W53154  22.646  40.438  10.568
93652W        W53155  43.324  22.997  14.457
93653W        W53156  40.826  31.095  10.545
93654W        W53157  23.596  29.554  12.823
93655W        W53158  28.066   7.908  14.452
93656W        W53159  15.320  38.870  10.902
93657W        W53160  25.477  35.412  12.453
93658W        W53161  41.831   6.868  14.808
93659W        W53162  33.070  43.300  14.351
93660W        W53163  12.818   5.316  14.344
93661W        W53164  17.237  17.248  14.775
93662W        W53165  16.732  30.522  12.541
93663W        W53166  29.487  37.530   1.880
93664W        W53167  33.538  34.380   3.866
93665W        W53168  19.278  23.597  11.934
93666W        W53169   8.720  30.565  11.594
93667W        W53170  39.061  23.188  10.098
93668W        W53171   4.272   2.379   1.319
93669W        W53172  30.985  23.098  13.515
93670W        W53173   8.233  14.677   2.412
93671W        W53174   8.707  28.681   1.223
93672W        W53175   0.400   5.404  10.549
93673W        W53176  40.855  16.207   0.813
93674W        W53177  15.228  22.030   0.324
93675W        W53178   5.432  32.922   1.892
93676W        W53179   3.836  22.582   4.335
93677W        W53180  41.534  15.578  11.925
93678W        W53181   2.877  38.070  14.763
93679W        W53182  12.247  35.032   0.248
93680W        W53183  17.187  38.429  14.758
93681W        W53184  36.049  10.753   0.361
93682W        W53185  29.570  25.664   0.445
93683W        W53186   0.899  18.192  14.514
93684W        W53187  13.335  35.914  11.984
93685W        W53188  37.483  27.135  11.125
93686W        W53189  31.032  11.251   0.857
93687W        W53190  34.120  19.693   4.621
93688W        W53191  14.749  24.610   2.345
93689W        W53192  11.316  30.535  12.911
93690W        W53193  11.864  10.729   4.700
93691W        W53194   0.806   7.310   4.196
93692W        W53195  15.619  17.259   0.328
93693W        W53196   8.162  22.675  11.890
93694W        W53197  19.114  21.597   1.880
93695W        W53198  25.543  13.244   0.394
93696W        W53199  34.083  40.973  14.858
93697W        W53200   2.268   8.247   2.842
93698W        W53201  24.564  19.218   3.309
93699W        W53202  15.599   2.294   1.778
93700W        W53203   1.431  27.028   1.781
93701W        W53204  24.599  22.006   0.874
93702W        W53205  21.134  42.031   0.397
93703W        W53206   2.369   6.427   0.777
93704W        W53207  14.623  15.184   2.885
93705W        W53208  15.763   0.745   4.641
93706W        W53209  30.605  25.004  11.526
93707W        W53210  35.070  41.991   3.319
93708W        W53211  38.888  44.900   0.399
93709W        W53212   9.323  17.288   3.649
93710W        W53213  37.057   1.473   2.737
93711W        W53214   0.417   0.453   0.266
93712W        W53215  30.950  24.219  13.472
93713W        W53216  24.514  14.338  14.818
93714W        W53217  26.583  33.990  11.431
93715W        W53218  26.549  20.569   0.305
93716W        W53219  37.499  41.889  13.436
93717W        W53220  14.266  26.609  14.424
93718W        W53221  41.854  34.100   1.934
93719W        W53222  44.500  31.122  12.927
93720W        W53223  17.640  31.038   2.350
93721W        W53224  38.547  32.597   2.413
93722W        W53225  16.737   6.691  12.943
93723W        W53226   3.418  11.193  13.525
93724W        W53227   5.355   8.305   1.421
93725W        W53228  22.102  41.404  12.449
93726W        W53229  19.180  27.450  13.407
93727W        W53230  33.608  37.559   3.158
93728W        W53231  44.986  10.231   0.925
93729W        W53232  29.966  22.631  10.489
93730W        W53233  16.211  34.019   0.730
93731W        W53234  35.376  15.287  14.975
93732W        W53235  15.660  28.577  11.999
93733W        W53236  24.070  38.862   4.280
93734W        W53237  13.186  12.706  14.452
93735W        W53238  21.204  15.094  11.424
93736W        W53239  27.636  23.122  10.938
93737W        W53240  19.674  21.589   0.950
93738W        W53241  23.150  13.737   4.133
93739W        W53242  27.586  22.558  14.833
93740W        W53243  35.912  15.133  10.417
93741W        W53244  34.994  38.399   2.356
93742W        W53245  41.008  13.250  11.443
93743W        W53246   5.705  32.560  14.361
93744W        W53247  33.561  10.247   1.356
93745W        W53248  22.143  32.031   4.607
93746W        W53249  20.183  32.140  11.572
93747W        W53250  25.507  43.008  14.842
93748W        W53251   6.405  23.068   4.266
93749W        W53252  17.109   3.459   2.307
93750W        W53253  21.060  38.393   1.736
93751W        W53254  17.141  13.622  13.485
93752W        W53255  27.636  22.059   2.771
93753W        W53256   3.440  23.206  12.867
93754W        W53257  41.365  15.620  14.834
93755W        W53258  37.550  29.660   2.690
93756W        W53259   5.396  33.062  11.385
93757W        W53260  17.064   8.341   3.632
93758W        W53261  30.070   2.960  10.556
93759W        W53262  34.967  14.157  11.500
93760W        W53263  26.611  33.880   3.683
93761W        W53264  33.472  31.550   2.311
93762W        W53265  29.587  25.582   2.851
93763W        W53266  26.193  40.808  13.449
93764W        W53267  28.011  13.315  10.929
93765W        W53268   8.277  15.284  13.530
93766W        W53269  15.812  33.410   2.329
93767W        W53270  17.679  16.653   4.618
93768W        W53271   9.767   3.372  14.871
93769W        W53272  44.885   0.927   2.848
93770W        W53273  38.039  40.866   4.655
93771W        W53274  33.583  19.133   0.746
93772W        W53275  43.499  41.940  12.830
93773W        W53276  36.444   7.343   3.730
93774W        W53277  35.362   8.181  13.327
93775W        W53278  11.826   8.862   3.155
93776W        W53279   1.781  11.347   2.845
93777W        W53280   0.437  35.090   3.694
93778W        W53281  17.063  22.178  13.369
93779W        W53282  43.905  14.764  10.450
93780W        W53283  25.199  27.171  14.460
93781W        W53284  23.013  19.569  14.819
93782W        W53285   9.149  35.044   1.419
93783W        W53286  37.912  37.036  14.481
93784W        W53287  43.984  22.715   3.757
93785W        W53288  15.612  43.290  14.960
93786W        W53289  31.962  18.181   3.860
93787W        W53290  18.626  10.830   0.906
93788W        W53291  17.761  24.215  12.479
93789W        W53292  26.624   6.919  12.486
93790W        W53293  12.254  21.111   4.251
93791W        W53294  16.608   1.481   1.724
93792W        W53295  26.193   4.302   0.943
93793W        W53296  13.769  29.516   3.169
93794W        W53297  19.537  43.816  12.341
93795W        W53298  22.211  29.982  14.403
93796W        W53299  29.053   8.768   1.842
93797W        W53300  34.037   4.410  14.348
93798W        W53301  11.146  11.255   0.467
93799W        W53302  38.923   2.415  11.865
93800W        W53303  26.027  44.356   3.632
93801W        W53304  13.190  32.970   3.796
93802W        W53305  16.782  22.736   1.324
93803W        W53306   5.304   2.869  13.362
93804W        W53307  42.789  44.772   4.768
93805W        W53308  10.641  29.530   2.900
93806W        W53309   8.334  34.987  12.977
93807W        W53310   8.841  20.617  10.977
93808W        W53311   3.841  27.023   0.303
93809W        W53312   7.334   4.882   2.695
93810W        W53313  12.257  16.193  12.340
93811W        W53314   7.873  18.074   1.433
93812W        W53315  32.545  43.954  11.458
93813W        W53316  11.661  29.582  11.034
93814W        W53317  11.281   3.229  14.358
93815W        W53318   8.873  18.694  13.367
93816W        W53319   0.816  42.525   3.850
93817W        W53320   7.751  41.352   2.786
93818W        W53321  27.527  16.740  12.483
93819W        W53322  38.515  33.441  14.001
93820W        W53323  40.307  32.504   1.835
93821W        W53324  33.383  26.516   2.810
93822W        W53325  24.518  27.630   0.855
93823W        W53326  40.889   3.743   3.158
93824W        W53327  29.464  44.482   1.438
93825W        W53328   1.281   3.323  10.979
93826W        W53329  10.700  25.118   4.640
93827W        W53330  12.668   5.856  14.483
93828W        W53331   0.810  36.579   4.331
93829W        W53332  44.449  22.697  13.325
93830W        W53333  21.168  12.137   4.621
93831W        W53334  42.350  19.146   4.306
93832W        W53335  43.346  11.745  14.431
93833W        W53336  31.573  40.471   3.357
93834W        W53337  27.663   2.821   4.670
93835W        W53338   3.843  26.035  14.330
93836W        W53339  42.369   2.932  12.358
93837W        W53340   7.892  26.029   3.350
93838W        W53341  43.909  24.614  12.512
93839W        W53342  36.881  24.573  12.356
93840W        W53343  22.692  10.764  13.503
93841W        W53344   6.780  39.898   4.660
93842W        W53345   0.444  22.674   5.786
93843W        W53346  42.288  34.898   1.931
93844W        W53347   2.294  22.028  12.909
93845W        W53348  36.062  11.770   0.814
93846W        W53349  39.973   7.891   2.695
93847W        W53350  19.600  19.178  12.068
93848W        W53351  24.119   7.222  13.531
93849W        W53352   5.911   1.358   4.731
93850W        W53353   4.447   3.787  14.324
93851W        W53354  34.090  19.086   2.228
93852W        W53355  12.698  10.173  13.951
93853W        W53356  10.375  33.894   3.795
93854W        W53357  25.027  22.102  11.044
93855W        W53358  20.241   9.183  12.438
93856W        W53359  18.607  18.229   1.224
93857W        W53360  23.004  17.146  12.531
93858W        W53361   9.267  32.633  14.307
93859W        W53362  39.493  29.119   0.293
93860W        W53363  13.287  42.328   1.750
93861W        W53364  38.423   4.702  13.310
93862W        W53365  29.563  26.163   0.283
93863W        W53366   4.802  25.493   5.236
93864W        W53367   4.943  42.304  14.768
93865W        W53368  23.693  14.626   4.137
93866W        W53369  40.026   4.819   1.932
93867W        W53370  14.182  37.562  12.408
93868W        W53371  13.164  38.492  11.896
93869W        W53372  27.534  20.692   3.340
93870W        W53373  14.170  24.018   5.288
93871W        W53374  37.467  16.809  10.440
93872W        W53375  23.723  36.562  13.340
93873W        W53376  21.511  31.993  10.963
93874W        W53377  16.588  35.420  13.023
93875W        W53378  20.754  30.005  11.549
93876W        W53379   0.300  15.119   4.203
93877W        W53380  42.975  27.998   5.246
93878W        W53381   2.866  21.755  10.408
93879W        W53382  40.544  22.735   2.189
93880W        W53383  28.465  38.995   2.224
93881W        W53384  37.008  29.043   3.644
93882W        W53385  31.067  13.842   1.427
93883W        W53386  21.258   2.307   9.932
93884W        W53387  24.572  36.889   3.374
93885W        W53388   1.784  36.578   1.800
93886W        W53389  32.987   0.798  13.815
93887W        W53390  40.461  21.587   4.627
93888W        W53391  35.587  35.031   3.314
93889W        W53392  12.624  21.214  11.575
93890W        W53393  10.819   0.868   3.791
93891W        W53394  37.560  23.654  10.930
93892W        W53395   4.766  31.152  13.419
93893W        W53396  38.394   6.385   0.839
93894W        W53397  11.768   9.691   2.333
93895W        W53398  43.355   0.317   2.802
93896W        W53399   4.880  12.176  11.957
93897W        W53400  13.334   7.883   4.752
93898W        W53401  36.983  15.161   4.654
93899W        W53402  15.651  34.973  11.014
93900W        W53403  10.343   9.813  10.938
93901W        W53404  27.640  27.957  14.405
93902W        W53405  33.932  35.467  14.831
93903W        W53406  41.015  33.013  10.418
93904W        W53407  30.497  16.270   4.791
93905W        W53408  19.546  31.919   0.299
93906W        W53409  26.067  26.090  11.927
93907W        W53410  24.703  44.325   3.844
93908W        W53411  10.642  25.641   1.751
93909W        W53412   1.887   7.395   0.836
93910W        W53413  38.904   1.374  13.345
93911W        W53414  41.538  11.267  12.823
93912W        W53415   4.718   8.888  11.077
93913W        W53416  14.623  37.392   1.917
93914W        W53417  10.649  26.610  12.565
93915W        W53418  20.613  12.752   3.375
93916W        W53419  11.191  40.457  13.486
93917W        W53420  27.067  29.526   2.785
93918W        W53421   0.871  23.529  10.952
93919W        W53422  24.716  16.672  14.327
93920W        W53423  42.869  13.128   3.656
93921W        W53424  23.514  27.641  14.470
93922W        W53425  15.203  43.365   4.276
93923W        W53426  43.979  34.068  13.866
93924W        W53427   4.726  44.805   3.152
93925W        W53428  17.593  14.610  12.438
93926W        W53429  24.084  39.439  12.871
93927W        W53430  20.731   0.439  14.365
93928W        W53431  23.157   9.189   1.243
93929W        W53432  20.231   4.832  10.568
93930W        W53433  36.508  17.153  11.913
93931W        W53434   1.917  13.316   0.322
93932W        W53435  31.623  43.964   1.408
93933W        W53436   9.813  41.455  13.010
93934W        W53437  15.769  10.189  12.983
93935W        W53438  35.446  42.818  14.303
93936W        W53439  42.829  30.029  13.976
93937W        W53440  14.785  36.002   0.882
93938W        W53441  25.507  19.211  10.491
93939W        W53442   6.832  22.249   2.764
93940W        W53443  42.823   6.687   3.344
93941W        W53444  41.518  38.941  14.949
93942W        W53445   1.347  18.195   1.431
93943W        W53446  27.684  44.402  12.996
93944W        W53447   4.419   3.945   3.837
93945W        W53448  36.873  19.100  11.977
93946W        W53449  28.040  44.900  11.081
93947W        W53450   7.753  29.118   5.152
93948W        W53451  32.057   0.407   4.139
93949W        W53452   3.794  42.486   0.840
93950W        W53453  23.140  39.011  11.002
93951W        W53454  15.302  39.907  11.990
93952W        W53455  37.369  30.446   3.332
93953W        W53456  33.460   6.754   0.315
93954W        W53457   0.356  32.500  12.851
93955W        W53458  14.298   4.376  12.083
93956W        W53459   6.289  24.577   1.852
93957W        W53460  34.078  12.290  13.848
93958W        W53461  22.732  38.338   3.642
93959W        W53462  16.255   2.358   3.799
93960W        W53463   8.207  22.193  10.466
93961W        W53464  29.952  35.044  11.483
93962W        W53465   8.889  44.948   4.740
93963W        W53466   2.810  21.022  12.985
93964W        W53467   4.874  18.282  13.818
93965W        W53468  28.578  35.466   4.605
93966W        W53469  38.931   2.267   4.121
93967W        W53470  12.711  18.767  11.485
93968W        W53471  18.698  10.258  14.821
93969W        W53472  11.266   3.300   2.384
93970W        W53473  25.145   1.468  14.479
93971W        W53474  16.241  19.194  12.861
93972W        W53475   8.346  37.406   5.216
93973W        W53476  20.191  17.277  13.494
93974W        W53477  42.827  29.144   3.349
93975W        W53478  12.832  36.461   2.280
93976W        W53479  37.993   0.946   3.751
93977W        W53480  36.902  25.047   1.761
93978W        W53481  17.794  41.314  11.588
93979W        W53482  29.161  28.089  11.097
93980W        W53483  16.127  31.124   3.301
93981W        W53484  12.632   9.332  10.983
93982W        W53485  17.572  12.649   3.276
93983W        W53486  42.414  11.741   0.729
93984W        W53487  18.058  15.787  14.772
93985W        W53488   2.356  18.779  13.501
93986W        W53489  11.738   9.718  11.954
93987W        W53490  17.069  41.337  11.448
93988W        W53491  28.517  38.437   3.678
93989W        W53492   6.208   7.295   5.278
93990W        W53493   5.248  23.589  11.560
93991W        W53494  15.793  40.971  11.914
93992W        W53495  26.150   5.716  14.875
93993W        W53496  23.217  11.668  13.456
93994W        W53497  16.183  12.195  12.992
93995W        W53498   4.901  44.919  11.396
93996W        W53499  43.463  36.408   2.743
93997W        W53500  24.690   5.360  10.049
93998W        W53501  41.799  32.076  12.845
93999W        W53502  22.549   3.365   1.278
94000W        W53503   2.882  32.098  12.872
94001W        W53504  10.782  36.035   1.743
94002W        W53505   0.296   3.217  12.053
94003W        W53506   4.385  35.070   0.404
94004W        W53507  37.880  24.530  11.957
94005W        W53508  35.987  26.576   3.787
94006W        W53509  21.148  41.860   2.338
94007W        W53510  17.194  29.046   2.833
94008W        W53511  44.307  32.927   3.355
94009W        W53512  10.865  13.270   4.298
94010W        W53513  31.899  40.517  13.403
94011W        W53514   0.774  12.342   4.646
94012W        W53515  41.516  23.574  13.519
94013W        W53516   0.899   3.880   1.918
94014W        W53517   6.362  36.865  12.414
94015W        W53518  18.684  37.986  13.040
94016W        W53519   0.965  24.687   4.179
94017W        W53520  25.586  19.656  14.465
94018W        W53521  39.994  35.507   3.644
94019W        W53522  20.070  25.114  12.513
94020W        W53523  16.705  24.047   4.187
94021W        W53524  16.584   7.205  13.856
94022W        W53525  30.019  44.439   0.895
94023W        W53526  33.575  11.177  10.941
94024W        W53527   1.966  40.405  14.884
94025W        W53528  41.889   2.745   1.328
94026W        W53529   6.679  18.618  13.053
94027W        W53530   4.749   8.781   1.213
94028W        W53531  30.430   1.299   2.777
94029W        W53532  29.163  35.462   0.334
94030W        W53533   7.382  24.056  13.371
94031W        W53534  31.137  14.108  14.474
94032W        W53535  10.692  31.007   3.278
94033W        W53536  41.412  25.602  14.768
94034W        W53537  34.440  26.617  10.932
94035W        W53538   3.419  22.060   3.251
94036W        W53539  38.958  14.327   2.257
94037W        W53540  35.050  20.222  12.516
94038W        W53541   7.704  39.504   4.188
94039W        W53542  38.965  11.826  14.413
94040W        W53543  14.623  43.379   0.825
94041W        W53544  38.069  34.954  11.491
94042W        W53545  25.624   9.657   4.305
94043W        W53546  28.180  30.092  11.442
94044W        W53547  21.222  12.731  11.584
94045W        W53548  17.638  24.004  13.865
94046W        W53549  30.025   1.821  13.043
94047W        W53550  41.939  32.625  13.015
94048W        W53551  38.013  39.482  13.899
94049W        W53552   8.777  33.548  12.361
94050W        W53553   7.218  30.946   3.158
94051W        W53554  21.736  12.756   1.308
94052W        W53555  24.026  42.465  10.893
94053W        W53556  31.507  22.133   3.236
94054W        W53557  22.996  19.184   0.967
94055W        W53558  17.264  39.921   1.243
94056W        W53559   2.232  33.518   3.640
94057W        W53560   2.468  14.325  10.926
94058W        W53561  26.011  23.117  12.492
94059W        W53562  14.662   3.792  11.415
94060W        W53563  31.146  19.176   2.323
94061W        W53564  38.496  28.464  10.986
94062W        W53565   3.780  14.802   1.316
94063W        W53566  18.156  18.075   0.467
94064W        W53567   1.403  11.772   0.344
94065W        W53568  33.910   2.230  13.525
94066W        W53569  23.063  10.649  13.040
94067W        W53570   6.397  11.227   4.273
94068W        W53571  18.168  15.751  13.053
94069W        W53572  13.693   2.780   1.763
94070W        W53573   5.902  36.520  12.555
94071W        W53574  25.111   3.829  13.317
94072W        W53575  19.260  43.948   3.825
94073W        W53576   2.241   5.378  12.995
94074W        W53577  23.176  29.071  13.980
94075W        W53578  15.642  16.752   3.693
94076W        W53579   3.953  31.077   0.262
94077W        W53580  12.713  33.936   4.795
94078W        W53581   2.931   5.351  11.577
94079W        W53582  42.949  38.329  14.427
94080W        W53583  32.526  31.092  11.546
94081W        W53584  26.474   0.376   4.336
94082W        W53585  44.491  38.891   5.166
94083W        W53586   5.288  12.160   4.688
94084W        W53587  36.554   5.251   2.901
94085W        W53588  41.794  38.928   4.789
94086W        W53589  41.020  34.474  11.095
94087W        W53590  11.716  38.917  12.408
94088W        W53591  20.764  22.592   0.850
94089W        W53592  27.533  29.532   1.845
94090W        W53593   7.733  17.302   0.329
94091W        W53594  11.127  37.497   4.699
94092W        W53595  32.548  23.156  13.060
94093W        W53596  10.380  17.599  12.909
94094W        W53597  31.996  38.982   4.140
94095W        W53598   6.416   1.361   0.248
94096W        W53599  24.583  32.469  11.413
94097W        W53600   5.223   1.483  11.379
94098W        W53601  22.657  10.733   0.286
94099W        W53602  23.545  19.068   0.910
94100W        W53603  26.040  40.368  12.468
94101W        W53604  29.016  36.890   2.855
94102W        W53605  40.336   4.265   0.877
94103W        W53606   8.689   0.263  11.992
94104W        W53607  32.925  41.803   3.835
94105W        W53608  35.395   9.693  12.358
94106W        W53609  30.518   5.254  12.826
94107W        W53610  32.436  22.165  11.523
94108W        W53611  41.490  24.221  12.544
94109W        W53612   8.278   3.725  10.481
94110W        W53613  41.460   1.426   4.133
94111W        W53614  38.062  22.670   1.810
94112W        W53615  44.428  12.767   0.340
94113W        W53616   8.702   7.399  12.383
94114W        W53617  23.515  41.311  12.013
94115W        W53618  34.533  34.524  14.377
94116W        W53619  15.746  14.796   2.313
94117W        W53620  30.929  12.236   4.702
94118W        W53621  26.585  16.147  13.430
94119W        W53622   9.167  20.078  11.067
94120W        W53623  15.822  22.154  12.044
94121W        W53624  23.570  31.547  10.455
94122W        W53625   9.760  31.051   4.697
94123W        W53626   8.315  42.862   0.844
94124W        W53627  41.417   4.900  13.885
94125W        W53628   5.773  29.658  11.433
94126W        W53629  32.944   9.262  11.025
94127W        W53630  28.647  23.010   3.232
94128W        W53631  21.124   9.828  11.077
94129W        W53632   4.225  38.949   4.350
94130W        W53633  25.682  42.330  13.537
94131W        W53634  24.004  32.920   2.225
94132W        W53635  20.678  30.622  10.981
94133W        W53636   3.837  30.437   0.285
94134W        W53637  38.404  10.757  13.367
94135W        W53638  33.016  12.125  11.899
94136W        W53639  27.516   4.841  10.910
94137W        W53640   9.650   5.850   2.221
94138W        W53641   0.480   7.900  10.969
94139W        W53642  20.558  39.043   0.818
94140W        W53643  35.526  31.053  12.952
94141W        W53644  28.088   2.318   2.851
94142W        W53645  29.431  18.566  12.541
94143W        W53646   5.253  13.165   1.811
94144W        W53647  33.096  35.063   1.297
94145W        W53648   7.859  25.677  14.454
94146W        W53649  14.233   3.332   2.180
94147W        W53650  26.141  16.697  12.026
94148W        W53651  33.059   5.863  12.449
94149W        W53652  35.021  37.944   3.351
94150W        W53653  44.417  26.972   9.442
94151W        W53654  16.576  14.746  13.940
94152W        W53655  31.498  39.431   5.169
94153W        W53656   2.726  12.128  12.000
94154W        W53657   5.297  39.496  13.916
94155W        W53658  18.728  40.959   0.875
94156W        W53659  44.271  14.191  13.312
94157W        W53660  43.818  17.288  13.909
94158W        W53661   9.786  29.050  14.907
94159W        W53662  32.950   2.887   0.900
94160W        W53663   7.389   4.807   4.237
94161W        W53664  14.804  13.262  13.363
94162W        W53665  33.611  12.737   9.598
94163W        W53666  19.258   5.348   3.221
94164W        W53667  28.993  37.083   1.880
94165W        W53668  44.348   2.407  10.430
94166W        W53669  35.046  37.014  10.534
94167W        W53670  34.084  26.994   3.182
94168W        W53671  24.031  35.395   4.282
94169W        W53672  42.891  25.637   3.747
94170W        W53673   4.254  35.418  14.513
94171W        W53674  42.421  34.032  13.547
94172W        W53675  41.389   4.432  13.431
94173W        W53676   4.824  36.089   2.867
94174W        W53677  20.141  14.663   2.832
94175W        W53678  34.530   3.216   3.333
94176W        W53679  21.608  11.171   3.684
94177W        W53680  27.684  35.521  12.999
94178W        W53681  32.603  20.751  14.995
94179W        W53682  23.683  42.372   1.217
94180W        W53683  25.564  43.412  14.829
94181W        W53684  40.446   3.930   2.186
94182W        W53685  24.495  41.828   2.717
94183W        W53686   1.899  42.293  14.894
94184W        W53687  43.006  34.014  11.517
94185W        W53688  29.450  22.566   4.790
94186W        W53689  11.185  28.645   3.701
94187W        W53690  24.629  16.581  14.828
94188W        W53691  28.591  12.691   1.323
94189W        W53692  11.333  34.105   3.281
94190W        W53693   2.898  32.962  13.507
94191W        W53694  15.320  11.362   2.680
94192W        W53695  26.618  26.192  11.125
94193W        W53696   0.746   4.308  11.040
94194W        W53697  14.715  39.886  12.470
94195W        W53698  10.190  16.291   4.253
94196W        W53699  30.926  22.233  10.893
94197W        W53700  13.678   7.272  12.539
94198W        W53701   1.949  10.237   0.804
94199W        W53702  44.281   2.370   3.766
94200W        W53703  21.745  26.012  13.958
94201W        W53704  40.337  18.173   4.636
94202W        W53705  43.278   2.270  14.389
94203W        W53706  10.788  11.139   2.243
94204W        W53707  35.460  31.546   0.424
94205W        W53708   3.946  38.941  10.580
94206W        W53709  15.202   3.759  11.556
94207W        W53710  21.572   3.380  13.887
94208W        W53711   5.807   9.287   1.273
94209W        W53712   7.259  27.475   2.788
94210W        W53713  33.876  30.589  12.082
94211W        W53714  19.767  24.081  10.478
94212W        W53715  33.386  18.197  11.052
94213W        W53716  26.555  33.120   4.136
94214W        W53717  40.922  13.152   2.745
94215W        W53718  29.976   7.862  14.939
94216W        W53719  16.300   5.801   3.151
94217W        W53720   7.818  26.513  12.926
94218W        W53721   0.913   7.250  11.038
94219W        W53722   3.751  38.925  11.589
94220W        W53723  19.212   8.736   3.181
94221W        W53724  36.983   2.422  13.941
94222W        W53725   9.165  12.802   2.672
94223W        W53726  44.291  11.147   5.129
94224W        W53727   7.763  38.000   4.126
94225W        W53728  16.577  30.918  11.892
94226W        W53729  11.281   4.886  14.920
94227W        W53730  27.196   5.318  12.476
94228W        W53731  26.471  22.148  10.552
94229W        W53732  39.407  26.593  10.960
94230W        W53733  20.079   6.852   3.299
94231W        W53734  17.562   6.703  10.894
94232W        W53735   7.905   8.246   0.746
94233W        W53736  10.376  30.927  14.921
94234W        W53737  27.549   3.283   1.833
94235W        W53738  40.813   9.352  10.520
94236W        W53739  17.236  42.861  12.825
94237W        W53740   3.368   9.203  10.414
94238W        W53741  42.975   8.857  10.573
94239W        W53742  33.415  44.901  14.337
94240W        W53743  27.557  44.401  14.514
94241W        W53744  33.995  17.657   3.342
94242W        W53745  25.970  42.798  10.082
94243W        W53746   5.405  33.930   0.373
94244W        W53747   0.900  40.836  10.443
94245W        W53748  37.979  16.669  14.297
94246W        W53749  36.360  24.067  10.984
94247W        W53750  25.568   0.364  12.356
94248W        W53751  15.802  19.250  12.029
94249W        W53752  22.681   7.379   1.791
94250W        W53753  20.239  14.224  11.494
94251W        W53754  19.220  21.055   3.268
94252W        W53755  32.997   9.773   4.224
94253W        W53756  23.695  28.122   1.321
94254W        W53757   3.364  35.455  13.040
94255W        W53758  34.945  25.172  14.027
94256W        W53759  18.758  42.458  12.032
94257W        W53760  38.339  19.065  12.043
94258W        W53761  33.536   5.749  14.861
94259W        W53762  22.583  35.084   3.188
94260W        W53763   2.394  36.080  10.019
94261W        W53764  40.327  22.720   0.774
94262W        W53765  39.356  44.805   0.810
94263W        W53766  27.620  12.803   1.848
94264W        W53767  42.475   3.275   4.669
94265W        W53768  18.680  24.723   1.786
94266W        W53769  21.118  38.926   1.742
94267W        W53770  37.059  11.266   1.438
94268W        W53771   0.820  21.635   1.730
94269W        W53772   4.266  43.922   1.814
94270W        W53773  11.760   7.834  11.113
94271W        W53774  24.159  17.747   0.788
94272W        W53775  33.485   9.828  11.482
94273W        W53776   3.938  10.806   4.262
94274W        W53777  11.152  25.112  13.437
94275W        W53778  35.006  31.046  10.439
94276W        W53779  21.602  32.055   4.615
94277W        W53780  39.934   8.312   5.229
94278W        W53781  38.957  13.809   1.380
94279W        W53782  42.972  31.622  10.642
94280W        W53783  40.833  44.475   4.719
94281W        W53784  15.173  26.111   1.290
94282W        W53785  27.090  23.674   0.339
94283W        W53786   9.656  22.630   2.308
94284W        W53787  29.128  14.668   1.872
94285W        W53788   1.822  19.112  14.333
94286W        W53789  31.555  38.502  11.555
94287W        W53790  42.799  27.059  11.605
94288W        W53791   4.248  33.446   0.376
94289W        W53792  15.205  29.528  11.054
94290W        W53793  13.125   3.905   4.711
94291W        W53794  34.952   7.796  12.823
94292W        W53795   1.910   8.327   3.696
94293W        W53796  21.165  43.868  10.889
94294W        W53797  28.593  17.600   3.351
94295W        W53798  28.658  20.241   0.248
94296W        W53799  23.490  17.757  11.493
94297W        W53800   3.743  33.095   4.250
94298W        W53801  40.926  25.986  10.426
94299W        W53802  25.069  18.153   3.278
94300W        W53803  42.359  13.132  11.999
94301W        W53804  17.682   9.748  11.454
94302W        W53805  14.333  29.938   4.240
94303W        W53806  39.824   6.781  11.048
94304W        W53807  15.303  35.947   1.910
94305W        W53808  42.301  36.391   0.462
94306W        W53809   6.231  43.468   2.815
94307W        W53810  43.982   0.360   3.798
94308W        W53811  18.267   5.858   1.809
94309W        W53812  28.549  39.349   0.729
94310W        W53813  26.990  12.328   4.694
94311W        W53814   4.323   9.308  14.414
94312W        W53815  18.728  11.287   2.394
94313W        W53816  32.501  24.641  12.523
94314W        W53817  36.429  21.716  14.956
94315W        W53818  23.115   5.812   2.725
94316W        W53819  44.857  42.505  10.545
94317W        W53820  26.581   4.945   1.294
94318W        W53821  16.750  25.595   4.193
94319W        W53822  11.306  17.762   9.460
94320W        W53823   6.305  33.030   0.446
94321W        W53824  35.556  23.670   2.229
94322W        W53825  24.568  44.370  14.373
94323W        W53826  37.044   7.394   0.814
94324W        W53827  27.969  34.997  10.525
94325W        W53828   1.914  24.027   2.369
94326W        W53829  39.012  16.305  10.944
94327W        W53830  12.139   7.735  13.007
94328W        W53831  31.455   2.456  14.790
94329W        W53832  13.223  37.554   1.291
94330W        W53833  32.508  42.033  11.574
94331W        W53834  20.151   9.800   4.722
94332W        W53835  41.868  28.155  10.550
94333W        W53836  35.510  43.397   1.837
94334W        W53837   8.383   0.937   4.313
94335W        W53838  35.530  40.872  13.927
94336W        W53839  43.319   7.237   2.332
94337W        W53840  27.498  29.113  12.886
94338W        W53841  26.990  41.930   0.937
94339W        W53842  31.477   4.943  13.847
94340W        W53843  10.838  14.770  14.975
94341W        W53844  17.130  44.805   0.417
94342W        W53845   1.795   8.702  11.924
94343W        W53846  37.377  23.661   0.741
94344W        W53847  10.316  14.337   1.399
94345W        W53848  24.173   2.872   5.220
94346W        W53849  19.735  27.032  11.930
94347W        W53850  22.737  22.743  14.364
94348W        W53851  29.151  21.042   3.775
94349W        W53852  27.081  28.668  12.539
94350W        W53853  28.615  39.034  13.947
94351W        W53854   1.413  30.045   3.850
94352W        W53855  13.233  35.866  14.288
94353W        W53856  20.609  19.656  11.527
94354W        W53857  14.214  16.295  14.017
94355W        W53858  11.723  43.767   0.738
94356W        W53859  41.367   0.420   4.784
94357W        W53860  27.053  20.675   1.450
94358W        W53861  23.513   8.323   4.214
94359W        W53862  38.919  30.973   4.226
94360W        W53863   1.731  38.825  11.379
94361W        W53864   4.316  39.498   1.933
94362W        W53865  39.832   6.254  14.966
94363W        W53866  22.068   7.819  13.026
94364W        W53867  42.509  43.367  10.620
94365W        W53868  25.560  37.512  10.994
94366W        W53869  10.767   7.688  13.316
94367W        W53870  16.078   8.405   2.690
94368W        W53871  22.555  23.693   2.371
94369W        W53872   6.740  41.448  11.071
94370W        W53873   8.185  20.200   3.331
94371W        W53874  42.469   0.439  11.543
94372W        W53875   2.741   4.770   0.262
94373W        W53876  20.681   2.810   3.213
94374W        W53877   6.706  17.647  12.836
94375W        W53878  35.061  26.106   1.409
94376W        W53879   6.886  13.221  12.907
94377W        W53880  37.454  23.222  11.962
94378W        W53881   6.854   8.708  11.409
94379W        W53882  10.723  16.639   2.348
94380W        W53883  36.907  17.716  11.490
94381W        W53884  32.935  29.144  12.357
94382W        W53885   1.406  26.176  14.345
94383W        W53886  20.219  42.944  13.405
94384W        W53887   9.692  33.552  10.086
94385W        W53888  33.887   3.918  10.468
94386W        W53889  20.142  24.053   2.673
94387W        W53890  22.552  17.658  12.492
94388W        W53891  35.560  27.554   1.263
94389W        W53892   1.319  17.672  11.416
94390W        W53893   7.248   7.768  14.810
94391W        W53894  20.131   1.846  14.495
94392W        W53895  29.962  23.560   4.830
94393W        W53896  25.975  37.344   1.286
94394W        W53897  36.456  23.151  10.466
94395W        W53898   7.282  26.999   3.718
94396W        W53899  31.908  33.590  14.496
94397W        W53900  16.241  22.242   2.745
94398W        W53901  44.908   7.345   0.476
94399W        W53902  19.651   1.787  11.034
94400W        W53903  43.930   8.854  13.822
94401W        W53904  25.599  16.086  10.567
94402W        W53905  12.308   8.810  10.601
94403W        W53906  29.554  40.518   1.335
94404W        W53907  29.426  35.545   2.764
94405W        W53908  31.979  35.401  10.588
94406W        W53909  16.787   0.904   4.249
94407W        W53910  30.462   3.943  12.482
94408W        W53911  12.245  22.151   4.732
94409W        W53912  10.373  24.714  13.882
94410W        W53913   7.301  40.816   2.411
94411W        W53914  44.865  26.584   2.703
94412W        W53915  19.228  25.111   2.350
94413W        W53916  13.745  12.341  11.029
94414W        W53917  26.503  37.402  11.025
94415W        W53918  39.442   9.798   1.711
94416W        W53919   1.368  35.457  13.965
94417W        W53920  22.596  29.660   2.415
94418W        W53921  11.737  28.065  10.487
94419W        W53922  38.328  17.788  11.591
94420W        W53923  44.295  33.939   1.415
94421W        W53924   2.785  12.294   3.171
94422W        W53925  16.746  11.675  10.936
94423W        W53926   7.854  27.577  14.967
94424W        W53927  27.055   3.719  12.945
94425W        W53928  36.077  22.708  13.415
94426W        W53929   3.295   0.292   1.290
94427W        W53930  16.304  29.987  12.573
94428W        W53931   5.816  44.774   1.771
94429W        W53932  13.802  11.370  11.488
94430W        W53933  35.496  36.413   4.761
94431W        W53934  22.206  11.224   3.788
94432W        W53935   2.253  13.113   1.927
94433W        W53936  27.043  12.141  12.538
94434W        W53937  21.221  22.009  10.961
94435W        W53938  16.088  22.182   0.815
94436W        W53939  44.480  15.147  13.004
94437W        W53940  22.582  15.754  14.313
94438W        W53941  39.995  35.024   3.156
94439W        W53942  32.130  44.937  11.971
94440W        W53943  39.860  37.355  12.080
94441W        W53944  36.883   8.213   1.294
94442W        W53945  11.827  24.110  10.578
94443W        W53946  23.619  33.412   1.836
94444W        W53947  10.193  22.105   2.888
94445W        W53948  17.235  15.748   2.827
94446W        W53949   3.743  32.894   0.871
94447W        W53950  40.812  30.415   4.213
94448W        W53951  31.087  32.631   2.384
94449W        W53952  29.577   9.263  11.000
94450W        W53953  25.647  16.676  13.034
94451W        W53954  31.957  12.221   1.243
94452W        W53955  15.774  42.983  13.856
94453W        W53956   9.844  29.639   2.759
94454W        W53957  12.805   3.717   1.849
94455W        W53958  19.238  23.171   4.713
94456W        W53959  31.072   1.416   3.862
94457W        W53960  10.835  31.021   1.265
94458W        W53961  26.528  28.102  10.502
94459W        W53962   9.279  28.665   4.315
94460W        W53963  32.988  19.653  12.571
94461W        W53964   7.779   5.721  14.834
94462W        W53965   2.904   2.890  10.537
94463W        W53966   3.447   8.883  11.484
94464W        W53967  40.044  30.432  11.500
94465W        W53968  10.243  26.143   1.424
94466W        W53969   6.314  39.518   4.155
94467W        W53970  22.559  20.742  11.525
94468W        W53971  28.059  16.096  10.635
94469W        W53972  18.182   3.823  10.988
94470W        W53973  18.682   5.773  10.482
94471W        W53974  42.872  28.482  10.483
94472W        W53975  30.582  38.918   2.226
94473W        W53976  12.770  14.601  12.464
94474W        W53977  41.803  21.098  11.474
94475W        W53978  28.569  30.420   2.757
94476W        W53979  20.712  37.552   1.413
94477W        W53980  30.047  16.612  12.468
94478W        W53981  20.173  43.320  10.638
94479W        W53982  21.718  13.682   4.823
94480W        W53983  10.192  21.032   1.433
94481W        W53984   0.301  39.358  12.935
94482W        W53985   7.261  19.225  14.470
94483W        W53986  27.631   8.709  11.545
94484W        W53987   6.197  25.051  14.780
94485W        W53988  28.159  27.999  11.530
94486W        W53989  32.906  30.502  14.892
94487W        W53990  16.126   4.375  13.900
94488W        W53991  11.202  40.450  12.854
94489W        W53992  11.726  37.427  14.424
94490W        W53993  43.285   7.346  14.439
94491W        W53994  43.472  29.425   2.852
94492W        W53995  27.000  37.457  12.848
94493W        W53996  25.099  44.935   2.329
94494W        W53997   1.920   1.253  13.818
94495W        W53998  18.572  31.146   3.785
94496W        W53999  32.509  40.899  11.036
94497W        W54000  37.524  13.109  11.380
94498W        W54001  38.561  27.551  11.477
94499W        W54002  15.252  30.971   9.986
94500W        W54003  44.813  17.595   4.239
94501W        W54004  11.807   1.340  11.381
94502W        W54005   4.354  39.496   0.799
94503W        W54006  42.877   6.341  10.496
94504W        W54007  38.369  21.617   0.781
94505W        W54008  35.580   5.434  10.084
94506W        W54009  27.149  40.534  14.397
94507W        W54010  10.375  41.974   5.139
94508W        W54011  21.058  16.237   2.876
94509W        W54012  26.060  15.746   4.167
94510W        W54013  20.192  41.409  12.834
94511W        W54014  15.711  14.100   3.299
94512W        W54015  43.977  23.158  12.535
94513W        W54016  19.276  28.021   1.415
94514W        W54017  12.183  24.609   4.688
94515W        W54018  19.127  12.218   0.840
94516W        W54019  12.145  35.494   0.371
94517W        W54020  37.415  16.738   3.166
94518W        W54021  22.579  41.403  13.044
94519W        W54022   6.391  13.684  12.347
94520W        W54023  33.506  23.626  14.466
94521W        W54024  26.528  34.585  14.800
94522W        W54025  34.555  41.807   1.892
94523W        W54026   6.361  43.853   3.348
94524W        W54027   3.258   4.292  13.466
94525W        W54028  26.996   9.330  14.470
94526W        W54029  36.401  16.081  13.515
94527W        W54030  33.018  12.758  12.345
94528W        W54031  33.898  31.100   4.766
94529W        W54032  19.666  18.136  11.481
94530W        W54033  14.822   1.883   2.788
94531W        W54034  44.760  41.514  10.403
94532W        W54035   4.314  39.903   3.635
94533W        W54036  43.400  32.496   2.245
94534W        W54037  17.737  21.549   1.721
94535W        W54038  27.066   9.767  12.430
94536W        W54039   7.368  11.721   4.782
94537W        W54040   1.246  40.906   4.116
94538W        W54041  22.594  18.131   3.860
94539W        W54042  20.562  26.036  14.423
94540W        W54043  32.415  31.501  11.894
94541W        W54044  17.257  20.704  11.542
94542W        W54045  10.832   7.771   4.208
94543W        W54046  20.524  37.438  11.951
94544W        W54047  30.575  27.055   4.243
94545W        W54048   4.813  13.605  11.382
94546W        W54049  39.411  11.260   3.820
94547W        W54050  35.600  20.113  14.760
94548W        W54051  19.707   4.851   0.829
94549W        W54052   8.823   9.391   4.699
94550W        W54053   7.791  15.660   3.163
94551W        W54054  23.137  13.688  11.008
94552W        W54055   6.900  34.881   4.721
94553W        W54056  23.541  38.824  14.813
94554W        W54057   1.846  35.859   1.727
94555W        W54058  17.760  36.359   0.267
94556W        W54059  40.818  24.222  10.410
94557W        W54060  36.562   1.931  13.970
94558W        W54061  35.484  19.243   1.725
94559W        W54062   4.307  21.138  10.427
94560W        W54063  11.186  40.915  10.640
94561W        W54064   5.224  36.965  14.448
94562W        W54065   7.754  25.137  12.525
94563W        W54066   1.924   8.286  12.002
94564W        W54067  26.189  17.197  12.479
94565W        W54068  26.460   3.457   1.266
94566W        W54069  42.460  33.904   4.619
94567W        W54070  23.199  31.948   0.300
94568W        W54071  32.912  44.469  11.963
94569W        W54072  10.804  44.443  12.866
94570W        W54073  16.089  34.532  10.624
94571W        W54074  26.464  29.150  10.491
94572W        W54075  16.219  34.103   9.497
94573W        W54076  17.633  36.477  11.884
94574W        W54077  12.645  40.538  10.912
94575W        W54078  32.073  23.175   0.400
94576W        W54079  20.638  21.053   2.181
94577W        W54080  16.666  11.747  11.410
94578W        W54081  33.008   4.332   3.183
94579W        W54082  41.463  10.224   1.384
94580W        W54083  43.460  26.039   0.272
94581W        W54084  26.069  31.018   2.180
94582W        W54085   6.808  27.587  11.089
94583W        W54086  18.229   9.214  11.127
94584W        W54087  43.977  25.587  13.470
94585W        W54088  13.785   3.309  11.955
94586W        W54089  29.607   8.175  12.372
94587W        W54090   8.792   0.489   1.421
94588W        W54091  36.897  34.527  14.797
94589W        W54092   1.407  44.822  14.496
94590W        W54093  41.369   4.791   3.796
94591W        W54094  20.693  34.881  11.418
94592W        W54095  10.667  28.969  12.078
94593W        W54096  41.958  41.464   2.291
94594W        W54097  42.996  39.503  14.475
94595W        W54098  35.522  21.245  11.895
94596W        W54099  30.484  35.449  13.864
94597W        W54100  20.222  11.753   0.473
94598W        W54101  26.503  21.236   0.343
94599W        W54102  43.447  23.034   0.928
94600W        W54103  25.052  43.409   4.664
94601W        W54104   6.315  40.943   1.398
94602W        W54105  15.111  38.855   4.672
94603W        W54106  40.894  34.898   4.132
94604W        W54107  39.474  21.704  11.084
94605W        W54108  38.863  21.640  12.082
94606W        W54109  40.500  11.352   0.273
94607W        W54110   6.272  32.637  14.490
94608W        W54111   5.436  27.150  11.087
94609W        W54112  13.740   7.293   4.627
94610W        W54113  10.268   1.321  10.901
94611W        W54114  14.196   6.679   4.163
94612W        W54115  24.979   1.397  14.767
94613W        W54116   2.399   6.424  13.379
94614W        W54117  42.881  21.719  13.314
94615W        W54118   4.380  26.541  11.404
94616W        W54119  24.725  12.717   0.731
94617W        W54120  43.836   8.206  13.392
94618W        W54121  31.000  34.071  12.951
94619W        W54122  23.618  42.318   3.739
94620W        W54123   9.255  35.056   2.753
94621W        W54124   0.467  19.540   0.375
94622W        W54125  42.491   5.246  11.080
94623W        W54126  19.725  22.691   2.290
94624W        W54127  28.480  11.825   2.665
94625W        W54128  21.592   6.680   0.820
94626W        W54129   2.351  36.862   2.321
94627W        W54130  40.517  10.664  12.520
94628W        W54131  34.407  12.789  13.976
94629W        W54132  32.637  14.635  14.912
94630W        W54133  25.659  10.327   4.752
94631W        W54134  40.049  24.606   3.755
94632W        W54135  24.187  44.304  10.037
94633W        W54136  15.660  44.299  11.981
94634W        W54137  31.414   5.700   0.345
94635W        W54138  19.560  34.390  10.962
94636W        W54139   7.180   5.874  12.401
94637W        W54140   8.188  34.927   4.189
94638W        W54141  20.716   0.440   4.349
94639W        W54142  10.223  37.860   0.281
94640W        W54143   5.731  28.484  13.394
94641W        W54144   1.930   8.770   1.294
94642W        W54145  18.648  43.845  11.113
94643W        W54146  41.349   9.771  10.903
94644W        W54147  13.258  33.943  12.533
94645W        W54148  28.975  40.937   4.346
94646W        W54149  12.140  21.146   4.744
94647W        W54150  19.633  41.527   1.832
94648W        W54151  11.628  42.502  14.973
94649W        W54152   9.256  28.473  13.876
94650W        W54153  37.057  11.866  10.938
94651W        W54154   5.215  39.335  14.832
94652W        W54155  23.641   0.892  14.893
94653W        W54156   9.822  22.017   3.281
94654W        W54157  23.557  39.526  13.029
94655W        W54158  43.934   4.255   0.834
94656W        W54159  32.064  26.016  11.528
94657W        W54160   7.737  44.796   2.267
94658W        W54161  37.488   3.366  10.483
94659W        W54162   3.821  18.125   2.413
94660W        W54163  34.470  23.017   2.415
94661W        W54164  28.997  33.420  11.922
94662W        W54165  41.475  22.130   1.392
94663W        W54166  44.481  16.206   3.786
94664W        W54167  35.048  38.336   4.325
94665W        W54168  15.183  24.987  12.892
94666W        W54169  41.894   6.695  10.640
94667W        W54170   3.348   5.280  14.490
94668W        W54171  17.753  20.092  13.391
94669W        W54172   0.415  31.488   3.194
94670W        W54173   8.382   6.365  13.865
94671W        W54174  43.920   1.419  13.443
94672W        W54175  34.929  15.258   4.818
94673W        W54176  21.669  29.529  11.523
94674W        W54177  19.694  32.578  10.462
94675W        W54178  35.970  15.642   2.830
94676W        W54179  31.408  26.031   2.217
94677W        W54180  12.272  18.215  13.434
94678W        W54181   2.285  27.607   3.755
94679W        W54182  34.870   3.792  10.440
94680W        W54183  32.551  40.009   4.120
94681W        W54184  28.127  43.796   1.776
94682W        W54185  33.591  33.443  10.578
94683W        W54186   3.822  32.020   9.948
94684W        W54187   3.343  10.366  10.625
94685W        W54188  24.580  18.725   2.191
94686W        W54189  34.019  38.975   0.435
94687W        W54190  30.552   9.205  12.988
94688W        W54191   8.285  31.620   2.320
94689W        W54192   5.904  13.209   4.348
94690W        W54193  39.850  33.125  11.558
94691W        W54194  17.608   9.346  13.403
94692W        W54195  21.089  10.328  13.481
94693W        W54196  14.748  33.925  12.529
94694W        W54197  13.237  16.785  10.419
94695W        W54198  40.306  28.108   0.966
94696W        W54199  15.151   7.770   1.833
94697W        W54200  37.056  24.224   2.370
94698W        W54201  19.167  40.853   2.838
94699W        W54202  16.734  34.980  11.109
94700W        W54203  35.522  21.030  14.419
94701W        W54204  28.463   1.386   1.915
94702W        W54205  32.623  40.499  12.913
94703W        W54206  31.106  16.762  14.012
94704W        W54207  18.743   7.247  14.432
94705W        W54208  30.125  17.162   0.464
94706W        W54209  42.956  40.456   1.737
94707W        W54210  38.847  29.534   1.853
94708W        W54211   1.901  42.374  12.356
94709W        W54212   0.842  31.087  14.980
94710W        W54213  28.633  31.045   1.312
94711W        W54214  30.928  16.763  12.075
94712W        W54215  10.700  12.688   1.353
94713W        W54216  32.134  36.383   2.360
94714W        W54217  14.334   5.799  13.908
94715W        W54218  23.618  36.584  12.872
94716W        W54219  11.714   8.738  12.545
94717W        W54220   1.863  30.131  11.391
94718W        W54221  30.474  28.055   3.724
94719W        W54222  30.652  34.478  14.338
94720W        W54223  34.586  35.402  14.499
94721W        W54224  28.545  43.868   1.305
94722W        W54225  29.665  18.068   3.178
94723W        W54226   7.847  41.392  14.873
94724W        W54227  30.425  17.133   5.159
94725W        W54228  27.008  32.452   1.355
94726W        W54229  11.715  35.539  11.378
94727W        W54230  40.539  22.166  10.525
94728W        W54231  25.705   4.725   3.214
94729W        W54232  40.014  24.034  13.412
94730W        W54233   2.367  42.467  14.337
94731W        W54234  26.671   1.440   0.757
94732W        W54235   9.325  26.008   4.289
94733W        W54236  38.503  37.007   1.869
94734W        W54237  18.162  21.558   3.348
94735W        W54238   4.370  39.030   0.939
94736W        W54239  11.285   0.827   0.774
94737W        W54240  18.570   4.932   3.247
94738W        W54241  40.916  14.825   0.284
94739W        W54242  19.758  11.292   0.867
94740W        W54243  25.698  32.540   1.762
94741W        W54244   5.864  19.217   2.320
94742W        W54245   5.733  34.113  11.919
94743W        W54246  10.266   8.724  11.044
94744W        W54247  23.708  15.108   0.452
94745W        W54248  10.843  25.675   2.870
94746W        W54249  10.376  27.040   3.832
94747W        W54250  30.099   5.243  12.497
94748W        W54251  18.652  28.674   3.332
94749W        W54252  40.818  38.435   0.966
94750W        W54253   0.748   3.370   3.653
94751W        W54254  20.651  16.275   2.313
94752W        W54255   6.832   9.862  13.025
94753W        W54256  17.076   3.806   0.328
94754W        W54257  11.715  21.183  11.124
94755W        W54258   1.346  21.669  12.935
94756W        W54259  37.554   4.405   1.777
94757W        W54260  28.646   9.812  10.579
94758W        W54261  19.605  30.923   4.226
94759W        W54262  16.155  13.342   2.768
94760W        W54263  13.730   2.746   2.730
94761W        W54264  23.164   4.763   0.273
94762W        W54265  24.190  30.623  12.090
94763W        W54266  29.993   8.344   3.645
94764W        W54267  24.050  15.117  13.479
94765W        W54268  32.552  16.228  13.832
94766W        W54269  36.533   6.331  12.374
94767W        W54270   7.368  36.895  10.493
94768W        W54271  10.677   5.858   3.244
94769W        W54272  32.592  17.256   2.801
94770W        W54273  16.101   9.269   2.839
94771W        W54274  34.996  32.508   0.410
94772W        W54275  16.710   1.443  10.968
94773W        W54276  24.675  39.445   2.305
94774W        W54277  23.234  32.564   3.725
94775W        W54278  34.419  21.091  13.520
94776W        W54279   6.348  37.354  13.923
94777W        W54280  21.261   5.695   1.923
94778W        W54281  18.081   2.249  11.468
94779W        W54282   2.739   8.721  11.519
94780W        W54283  41.973  35.545   3.678
94781W        W54284   9.179  12.362  14.281
94782W        W54285   5.847  39.847   0.946
94783W        W54286  41.803  33.451  14.409
94784W        W54287  12.688  11.797   3.715
94785W        W54288  17.300  21.161   3.711
94786W        W54289   1.445  37.086  12.359
94787W        W54290  38.856   0.427  13.829
94788W        W54291  24.986  25.136   4.610
94789W        W54292  21.558   3.727   1.344
94790W        W54293  35.045  14.688   2.680
94791W        W54294  24.158   2.760  12.512
94792W        W54295   0.319  21.209   1.758
94793W        W54296   1.259  21.193  10.541
94794W        W54297   5.701  12.699   0.953
94795W        W54298  13.200   5.832  10.618
94796W        W54299  43.401  29.500  10.440
94797W        W54300  43.902   1.273   1.904
94798W        W54301   1.294   3.886   2.258
94799W        W54302  24.022  41.402  11.425
94800W        W54303  35.446  27.448  11.591
94801W        W54304   4.749  26.184   9.498
94802W        W54305  28.186  42.907   1.729
94803W        W54306  20.576  34.984  11.995
94804W        W54307  20.689  13.666  13.502
94805W        W54308  41.532  22.039   3.717
94806W        W54309  22.607  14.308  11.479
94807W        W54310  29.060  39.820  11.509
94808W        W54311  19.671  40.942  13.056
94809W        W54312  11.203  36.567  10.527
94810W        W54313  32.590  34.446  11.048
94811W        W54314  41.524  19.138  12.464
94812W        W54315  19.766  15.242  12.841
94813W        W54316  43.889  20.689   2.879
94814W        W54317  20.544   7.185   1.451
94815W        W54318   9.388  16.663   2.305
94816W        W54319  30.500  27.009   1.728
94817W        W54320  40.014  37.491  13.509
94818W        W54321   9.236   7.697  11.387
94819W        W54322   0.757  13.801   1.450
94820W        W54323  29.431  10.665  13.460
94821W        W54324   4.825   4.807   0.890
94822W        W54325  40.420  11.756   3.651
94823W        W54326  23.550   3.812   3.842
94824W        W54327  14.170  11.355   3.351
94825W        W54328  19.058  41.494   2.235
94826W        W54329  42.006  36.485  13.511
94827W        W54330   8.211  39.437  12.058
94828W        W54331  35.913   8.699  13.873
94829W        W54332   1.275  40.376  13.467
94830W        W54333   2.858  36.849  14.297
94831W        W54334  43.424  14.821   4.742
94832W        W54335   7.323  24.608   4.120
94833W        W54336  40.940  43.003  13.941
94834W        W54337  38.396  15.264  13.861
94835W        W54338  32.940  30.920   3.269
94836W        W54339  39.505  14.314  13.808
94837W        W54340  38.827   4.730   2.356
94838W        W54341  28.040  24.576  11.877
94839W        W54342  37.007  38.899  10.568
94840W        W54343   3.343  43.458   0.953
94841W        W54344   7.355  23.700  12.834
94842W        W54345  18.749   5.701  11.881
94843W        W54346  26.010  17.666  13.042
94844W        W54347  33.003   6.421  11.380
94845W        W54348   3.298  27.671  12.883
94846W        W54349  39.369  31.603   0.390
94847W        W54350  17.113  30.502  10.588
94848W        W54351  27.626  32.083   1.261
94849W        W54352  41.016   7.769  11.407
94850W        W54353  37.556  10.291  12.397
94851W        W54354  35.360   7.282   2.341
94852W        W54355  15.305  23.242   2.322
94853W        W54356  29.129  30.621   0.388
94854W        W54357  32.529   6.277   2.726
94855W        W54358  30.064   4.897  14.361
94856W        W54359  23.497  32.936  10.549
94857W        W54360  41.924  29.155   0.929
94858W        W54361   7.386  22.047  14.785
94859W        W54362  40.839  43.987  12.010
94860W        W54363   1.426  14.732   0.904
94861W        W54364  31.401  40.492   0.913
94862W        W54365  35.534   5.818   2.682
94863W        W54366  34.028   5.904  13.449
94864W        W54367   5.788  23.617   2.776
94865W        W54368  33.452  12.785   1.864
94866W        W54369  31.063  29.640   5.112
94867W        W54370  42.783   0.339  14.001
94868W        W54371   0.981  32.446   4.626
94869W        W54372  44.418  37.407  12.972
94870W        W54373  27.634  22.162  12.535
94871W        W54374  35.567  28.984  14.378
94872W        W54375  33.877  33.520  14.797
94873W        W54376  27.171  35.853   0.916
94874W        W54377  30.971  17.223   4.249
94875W        W54378  31.055   4.370  14.394
94876W        W54379  23.003  39.542   1.257
94877W        W54380  22.086  44.393  10.901
94878W        W54381  18.705   4.739  10.576
94879W        W54382  21.704  22.716   3.787
94880W        W54383  37.437  13.677   1.417
94881W        W54384  15.189  18.188   3.750
94882W        W54385  24.510  44.289   2.758
94883W        W54386   1.326  37.833   1.821
94884W        W54387  38.389   3.785  12.912
94885W        W54388   8.887   6.401   3.264
94886W        W54389  29.142  36.427   4.333
94887W        W54390   1.734   0.332   2.255
94888W        W54391  30.524  24.169   3.642
94889W        W54392  34.933  27.111  11.537
94890W        W54393  15.173  23.546   0.477
94891W        W54394  30.979  14.140   4.179
94892W        W54395  35.419  10.714   0.850
94893W        W54396  15.747  22.210  12.537
94894W        W54397   3.774  21.539   2.771
94895W        W54398  22.681  14.108   4.303
94896W        W54399  30.423  18.099  12.437
94897W        W54400   5.221  33.380   0.879
94898W        W54401   3.791  16.304  12.883
94899W        W54402   0.403   3.306  14.408
94900W        W54403  37.861  26.032  12.876
94901W        W54404  37.374  37.018   3.703
94902W        W54405  38.964  38.952   2.257
94903W        W54406  36.052  20.268   3.264
94904W        W54407  26.465  40.511   4.688
94905W        W54408   3.865  13.294  11.592
94906W        W54409  16.152  30.089  11.467
94907W        W54410  25.598  28.571   0.290
94908W        W54411  44.919  12.268   3.677
94909W        W54412  18.204  32.536   4.726
94910W        W54413  30.940  32.977   1.210
94911W        W54414  42.984  22.096   0.852
94912W        W54415  30.576   8.215   0.900
94913W        W54416  30.106  40.535  11.995
94914W        W54417  44.864  16.790   2.668
94915W        W54418   2.246  44.417   5.282
94916W        W54419  39.433  14.210  10.598
94917W        W54420  12.203  37.977  10.526
94918W        W54421  10.257   3.916  13.955
94919W        W54422  18.135   0.902  13.400
94920W        W54423  11.371  37.536  12.548
94921W        W54424  25.165  35.069  12.048
94922W        W54425  14.689  42.518   4.171
94923W        W54426   2.412   6.827  11.596
94924W        W54427  23.197  18.697  13.002
94925W        W54428   1.952  16.118  14.379
94926W        W54429  33.065   7.215   1.889
94927W        W54430  44.323  32.605  10.566
94928W        W54431  41.002  40.320   4.624
94929W        W54432  16.680  13.797  12.968
94930W        W54433  11.815  44.382  13.475
94931W        W54434   2.899   6.736   4.211
94932W        W54435  33.597  33.910   4.336
94933W        W54436   8.897  36.542  13.447
94934W        W54437  27.510  27.074  11.876
94935W        W54438  15.118  20.556  14.457
94936W        W54439  22.594  44.767  14.458
94937W        W54440  40.932  44.767   3.850
94938W        W54441  44.941  10.677   4.188
94939W        W54442  18.680  10.279   4.337
94940W        W54443  39.910  23.729  14.402
94941W        W54444  27.980   9.665   4.738
94942W        W54445  33.998  25.560   2.374
94943W        W54446  24.103  40.861  14.403
94944W        W54447  36.919  41.375  11.486
94945W        W54448  31.022   3.916  10.549
94946W        W54449  38.898  19.040  11.611
94947W        W54450  21.252  34.879  12.455
94948W        W54451   8.899  27.541  13.008
94949W        W54452  21.216  19.649  10.959
94950W        W54453  38.027  19.175   2.687
94951W        W54454  16.633   6.824   1.310
94952W        W54455  21.179  18.640  12.446
94953W        W54456  17.642  12.818  12.033
94954W        W54457  36.985  41.023  10.922
94955W        W54458   7.358  13.767   1.221
94956W        W54459  24.157  25.199  10.432
94957W        W54460  15.671   8.262  11.550
94958W        W54461  11.164  27.035   1.365
94959W        W54462  41.484  16.716  13.488
94960W        W54463  32.552  31.442  13.480
94961W        W54464   2.773  41.004   3.805
94962W        W54465   4.937   5.822   4.180
94963W        W54466   6.203  28.068   0.449
94964W        W54467  15.818   8.240   4.235
94965W        W54468  14.238   6.864   1.704
94966W        W54469  37.474  33.079  12.047
94967W        W54470   6.269  35.448  10.056
94968W        W54471  14.621  14.670   0.810
94969W        W54472  35.983  22.100   4.661
94970W        W54473  37.021  25.144   2.719
94971W        W54474  43.958  31.898   4.773
94972W        W54475  42.409  15.789  10.500
94973W        W54476  17.226  24.669  13.047
94974W        W54477  10.634  21.064   3.785
94975W        W54478   0.795   3.816  13.339
94976W        W54479  20.108  23.564  11.588
94977W        W54480  43.328  43.900  12.021
94978W        W54481   1.356  41.934   3.733
94979W        W54482  35.857  10.154   2.262
94980W        W54483  25.025   8.793   4.317
94981W        W54484  26.029  33.400  11.592
94982W        W54485  37.870  38.414   4.781
94983W        W54486   7.694  36.382   3.814
94984W        W54487  40.848  11.127   0.939
94985W        W54488  44.463   8.376  12.542
94986W        W54489  13.297  20.705   4.695
94987W        W54490  18.564  29.494  14.417
94988W        W54491   9.728   5.869  12.424
94989W        W54492   3.268  27.089   2.367
94990W        W54493  29.065  19.272   0.813
94991W        W54494   0.378  17.678   3.179
94992W        W54495  38.501  35.566   4.224
94993W        W54496  29.174   8.669  11.905
94994W        W54497  27.063   8.330   1.407
94995W        W54498  38.879  10.161  13.970
94996W        W54499  40.411  35.488  13.314
94997W        W54500   7.359  31.153  10.503
94998W        W54501  35.946   2.833   0.807
94999W        W54502   9.350  28.604   1.432
95000W        W54503   3.423  13.111  14.015
95001W        W54504  19.192  10.291  13.799
95002W        W54505   6.756  25.134   4.185
95003W        W54506   9.229  27.537   1.365
95004W        W54507  22.601  39.331   0.851
95005W        W54508  11.771  19.259   3.679
95006W        W54509  24.700  44.812  14.293
95007W        W54510   7.291  30.588  11.433
95008W        W54511  33.955  37.998  14.477
95009W        W54512  15.672  32.579   0.373
95010W        W54513  15.797  31.950   4.661
95011W        W54514  19.131  37.364   4.819
95012W        W54515  25.538   9.245   0.480
95013W        W54516  38.570  26.171   4.150
95014W        W54517   1.847  14.819   3.381
95015W        W54518  21.641  19.093  14.320
95016W        W54519  40.473  19.583   3.676
95017W        W54520   0.811  37.084   1.242
95018W        W54521  17.647  12.679   1.771
95019W        W54522  24.623  42.937  12.391
95020W        W54523  40.452  23.512  10.528
95021W        W54524  29.658  12.821  11.987
95022W        W54525  35.024  37.338   0.855
95023W        W54526  14.780   5.216   1.807
95024W        W54527  23.037  42.867   5.207
95025W        W54528  42.298  38.024  11.073
95026W        W54529  23.608  19.780   0.450
95027W        W54530   5.932  19.107  11.079
95028W        W54531  44.817  44.935   4.725
95029W        W54532  18.216  19.251   1.748
95030W        W54533  31.087  33.532  13.886
95031W        W54534  22.207   6.207   4.750
95032W        W54535   4.727  43.926   3.856
95033W        W54536  17.706  42.393   4.783
95034W        W54537  34.498  32.457  11.503
95035W        W54538  39.964  21.128  11.070
95036W        W54539  11.233  24.702   2.355
95037W        W54540  35.862  10.275  14.441
95038W        W54541  16.589   8.273   4.219
95039W        W54542  41.959   3.892  10.980
95040W        W54543  15.284  31.412  11.880
95041W        W54544  10.694  38.548   3.742
95042W        W54545  13.120  31.441  14.450
95043W        W54546   1.263   3.236   4.186
95044W        W54547  23.000  36.020   0.415
95045W        W54548  14.177  40.429   4.185
95046W        W54549  43.489  14.196   4.227
95047W        W54550  18.290  25.193  12.027
95048W        W54551  30.041   1.457   4.116
95049W        W54552  27.956  21.635   1.446
95050W        W54553  11.829  39.473  12.573
95051W        W54554  33.117   2.797   2.816
95052W        W54555  30.080  40.001  14.869
95053W        W54556  25.141  39.393  12.941
95054W        W54557   6.876  43.889  13.935
95055W        W54558  34.054  27.171  12.399
95056W        W54559   6.367   5.720   1.913
95057W        W54560  34.979  27.958  11.107
95058W        W54561  24.191  10.368   4.826
95059W        W54562  31.027   2.805   2.821
95060W        W54563   9.317   8.307   3.368
95061W        W54564  44.851   0.494  12.482
95062W        W54565  10.169  24.682  13.536
95063W        W54566   4.709  32.396   1.264
95064W        W54567  10.184  39.543  13.324
95065W        W54568  37.355  31.522   2.208
95066W        W54569  15.152  30.427   0.764
95067W        W54570  16.113  13.198   0.258
95068W        W54571   9.293   7.219  13.946
95069W        W54572   9.288  28.074  14.415
95070W        W54573  21.740  29.654  13.925
95071W        W54574  24.540  39.003   2.260
95072W        W54575  18.115  28.587  11.497
95073W        W54576  12.138  37.556  11.584
95074W        W54577  41.350  22.676  10.107
95075W        W54578  20.139  34.881  14.424
95076W        W54579  37.428  39.045  10.644
95077W        W54580  27.600  16.309  10.067
95078W        W54581  31.933  31.901  12.393
95079W        W54582  29.546  12.236   5.172
95080W        W54583  28.578  34.379   4.614
95081W        W54584   2.759  12.147   2.666
95082W        W54585  29.477  25.066   4.166
95083W        W54586  38.017  26.545  11.538
95084W        W54587  13.713  17.104   2.867
95085W        W54588  29.962  35.095  13.511
95086W        W54589   8.698   9.707   4.162
95087W        W54590  34.439  17.607  14.866
95088W        W54591   8.368  19.212   2.872
95089W        W54592   3.421  10.366  14.924
95090W        W54593  41.907  41.849  13.343
95091W        W54594  43.967   9.226  11.607
95092W        W54595  15.651  38.015   1.327
95093W        W54596  14.130  41.002  12.382
95094W        W54597   1.237  23.631  10.989
95095W        W54598  27.604  44.979  10.575
95096W        W54599  30.458  37.945   2.290
95097W        W54600  19.148  23.086  11.380
95098W        W54601  11.316  41.408  14.982
95099W        W54602  32.461   5.431  14.395
95100W        W54603  32.415  40.419  14.507
95101W        W54604  30.518  14.827  13.357
95102W        W54605  12.801  25.075  12.058
95103W        W54606  16.589  22.680  12.368
95104W        W54607  21.073   5.227   4.812
95105W        W54608   8.750  44.894  12.352
95106W        W54609  44.379  32.479  12.993
95107W        W54610  28.568  11.325  13.946
95108W        W54611  19.702  35.061   5.233
95109W        W54612  32.998  41.497  11.877
95110W        W54613  28.480  44.799   2.279
95111W        W54614  21.660  38.878   3.778
95112W        W54615  41.827  31.574  14.011
95113W        W54616   7.779   7.784   4.300
95114W        W54617  19.073  10.662  12.967
95115W        W54618  40.543   6.300   0.394
95116W        W54619   1.386  36.460   1.798
95117W        W54620  16.684  19.590  14.003
95118W        W54621  29.005  42.991   1.912
95119W        W54622  39.049  21.070  12.501
95120W        W54623   3.808  24.555   4.731
95121W        W54624  19.583  13.284  12.077
95122W        W54625  11.755  33.968   2.403
95123W        W54626  27.464   0.754   3.809
95124W        W54627  22.646  41.800   1.807
95125W        W54628  29.574  16.806   0.251
95126W        W54629   1.862  26.008  12.980
95127W        W54630  12.244  21.631  12.937
95128W        W54631   4.225   9.865   1.831
95129W        W54632  38.352  22.026   0.405
95130W        W54633  39.918  34.477   0.294
95131W        W54634   2.310  32.506   3.146
95132W        W54635  15.143  19.686  12.050
95133W        W54636  18.083  11.276  14.392
95134W        W54637  42.327  23.621  12.341
95135W        W54638   5.825  22.630   1.900
95136W        W54639  41.968   1.731   3.721
95137W        W54640  22.160  14.231  10.907
95138W        W54641  42.923   5.788   2.292
95139W        W54642  31.971  19.131   3.160
95140W        W54643   6.917   8.169   1.382
95141W        W54644   0.804  21.018   2.820
95142W        W54645   6.903  34.586  11.373
95143W        W54646   7.760  12.357  11.887
95144W        W54647   4.262   4.339   3.809
95145W        W54648  44.782  37.907   1.352
95146W        W54649  20.052  23.562  10.495
95147W        W54650  36.933  13.319  12.077
95148W        W54651  37.363  43.397   1.795
95149W        W54652  41.930  18.719   2.671
95150W        W54653  26.601  23.128   4.154
95151W        W54654   9.162   1.430  12.418
95152W        W54655  24.086  38.554   2.267
95153W        W54656  27.618   3.349   0.963
95154W        W54657   4.880  39.974  10.508
95155W        W54658  42.523   7.858   3.773
95156W        W54659  42.284  14.787   3.183
95157W        W54660   2.863  27.094   2.264
95158W        W54661   3.797   4.283   0.279
95159W        W54662  44.920  32.969   4.807
95160W        W54663  29.521  38.523  14.769
95161W        W54664   9.250   2.358  14.848
95162W        W54665  41.908  23.046   1.827
95163W        W54666  16.700   1.247   2.721
95164W        W54667  31.901  12.768  14.850
95165W        W54668  20.058   3.882  14.011
95166W        W54669  35.369  34.091  11.386
95167W        W54670   5.933  19.678   4.761
95168W        W54671  20.111  13.117  14.774
95169W        W54672   0.304  37.902   2.686
95170W        W54673   2.735  22.712   1.244
95171W        W54674  40.937  12.250   1.381
95172W        W54675  17.186  39.471  12.945
95173W        W54676  35.987  24.203  10.936
95174W        W54677   1.343  18.190   2.771
95175W        W54678   9.657  20.033   0.399
95176W        W54679   3.843  28.438  12.579
95177W        W54680  34.569  15.774   0.257
95178W        W54681  22.509   9.730   3.308
95179W        W54682  29.024  39.004  13.487
95180W        W54683  19.676   4.921  11.433
95181W        W54684  34.048  31.139  14.290
95182W        W54685  29.523  41.926  13.793
95183W        W54686  42.987  27.516  12.855
95184W        W54687  11.780  16.261   9.998
95185W        W54688  33.624  14.655   4.215
95186W        W54689  43.328  21.528   1.873
95187W        W54690   0.288  16.648  13.347
95188W        W54691  30.603   5.328   0.474
95189W        W54692  40.459  27.030   1.248
95190W        W54693  21.535   0.352   3.809
95191W        W54694  17.085   4.901   1.748
95192W        W54695  12.702  22.596   3.290
95193W        W54696  41.809  17.707  13.318
95194W        W54697   8.893   3.306   4.159
95195W        W54698  34.910  14.301   2.254
95196W        W54699  30.554  12.331   0.326
95197W        W54700  37.875  14.660   0.420
95198W        W54701  44.396   3.324  11.048
95199W        W54702  19.180  32.592   0.456
95200W        W54703   7.234  11.354  13.903
95201W        W54704  35.527   7.379   3.729
95202W        W54705   0.250   2.737   2.664
95203W        W54706  37.007   7.202  12.413
95204W        W54707  34.468   6.321  13.986
95205W        W54708  30.048  42.905  11.595
95206W        W54709  14.172   0.450   2.192
95207W        W54710  38.910  21.605  10.620
95208W        W54711   4.868  29.001   1.370
95209W        W54712   5.923  32.048   2.857
95210W        W54713   1.287   8.668   3.770
95211W        W54714  22.051   9.783  12.953
95212W        W54715  43.398   3.952  14.456
95213W        W54716  30.957  26.666  14.956
95214W        W54717  15.114  21.749  13.883
95215W        W54718  38.850  21.590  14.348
95216W        W54719  13.683  41.396  12.986
95217W        W54720   8.700  27.577  14.993
95218W        W54721  29.172  21.187  10.086
95219W        W54722  34.981  14.332   0.394
95220W        W54723  24.200   4.386  11.502
95221W        W54724  12.162  27.105   3.740
95222W        W54725  22.732  37.571   1.224
95223W        W54726  28.039  34.419   3.732
95224W        W54727   0.459  39.340   2.414
95225W        W54728  34.987  24.485  14.941
95226W        W54729  30.963  14.174  11.884
95227W        W54730  39.405   5.221   1.727
95228W        W54731  19.128  12.302  12.469
95229W        W54732   2.467  41.525  10.599
95230W        W54733  17.739  28.104   0.947
95231W        W54734  10.274  11.181  14.967
95232W        W54735   8.301   4.763  13.045
95233W        W54736  37.363  43.992  14.285
95234W        W54737  44.872  28.651   0.480
95235W        W54738  32.960  31.998  11.056
95236W        W54739  21.041  41.451   9.998
95237W        W54740  36.440  28.999   1.930
95238W        W54741  30.133  17.583  11.387
95239W        W54742  38.397  26.690  10.491
95240W        W54743   7.231  40.503  11.894
95241W        W54744  13.659  18.060   3.148
95242W        W54745  15.305  36.571   2.891
95243W        W54746  32.087  15.290   2.284
95244W        W54747  27.564  26.143  13.808
95245W        W54748  31.402   1.255  14.315
95246W        W54749  11.681  36.075  14.370
95247W        W54750  23.528  17.289  10.502
95248W        W54751  43.489  32.990  10.419
95249W        W54752   7.291  38.860   3.174
95250W        W54753  16.743  12.169   0.930
95251W        W54754  15.794   6.349  10.982
95252W        W54755  36.521  16.075  11.420
95253W        W54756  23.546  35.930  14.024
95254W        W54757  22.098  41.870  12.517
95255W        W54758   2.856   2.783   1.757
95256W        W54759  21.130   5.797   0.408
95257W        W54760  23.555  18.602   2.379
95258W        W54761  30.915  13.343   4.256
95259W        W54762  33.128   6.749   3.281
95260W        W54763  40.984   1.417   1.328
95261W        W54764   6.266   4.262  12.457
95262W        W54765  40.433   2.737   2.267
95263W        W54766   3.220  34.958  10.488
95264W        W54767  33.928   7.863  12.462
95265W        W54768   5.717  16.154  14.888
95266W        W54769  40.471  37.445   0.453
95267W        W54770  40.849   8.167  13.044
95268W        W54771  18.197  39.859   1.430
95269W        W54772  36.845  31.626   3.353
95270W        W54773  44.816  25.562  13.944
95271W        W54774  17.726  37.409  12.014
95272W        W54775  16.778   5.405  14.945
95273W        W54776   0.406  12.636   2.875
95274W        W54777   9.713  42.011   0.864
95275W        W54778   4.287  20.106   0.455
95276W        W54779  42.319  11.846   3.689
95277W        W54780  33.543  22.708  13.311
95278W        W54781  40.394  18.664   9.967
95279W        W54782   3.786  35.562   4.200
95280W        W54783   1.274  10.803   0.816
95281W        W54784  14.672  11.174   0.388
95282W        W54785  12.291   4.748   4.294
95283W        W54786  32.102  29.428  10.564
95284W        W54787  21.683   9.209   0.850
95285W        W54788  17.795  34.096   3.733
95286W        W54789  24.125  31.095  13.878
95287W        W54790  25.520   2.873  12.916
95288W        W54791   9.378  28.944  10.947
95289W        W54792  30.547   6.374  14.392
95290W        W54793   4.906  11.634  12.393
95291W        W54794  23.141  25.159  11.070
95292W        W54795   5.320  23.565   4.682
95293W        W54796  22.644  20.528  10.137
95294W        W54797  38.495  20.218  11.423
95295W        W54798  28.647   5.222  11.571
95296W        W54799  31.036   7.834   4.124
95297W        W54800   0.766   8.180  11.458
95298W        W54801  11.278  18.258   3.309
95299W        W54802  36.025  15.130   0.776
95300W        W54803   7.792  27.978  11.516
95301W        W54804  10.143  39.047  13.797
95302W        W54805  40.932  20.095   0.277
95303W        W54806  35.428   3.254   1.436
95304W        W54807   8.669  10.718   1.839
95305W        W54808   9.821  27.985   4.758
95306W        W54809  14.633  24.023   4.172
95307W        W54810  21.523   9.287   4.164
95308W        W54811  24.591  41.961  10.902
95309W        W54812  33.879  25.577   1.837
95310W        W54813  33.948   3.337  12.524
95311W        W54814  26.557  10.205   4.137
95312W        W54815  43.347   5.232   0.952
95313W        W54816   9.377  22.114   0.403
95314W        W54817  23.006  20.099   0.936
95315W        W54818  11.283  11.134  12.440
95316W        W54819  29.630  33.085   2.327
95317W        W54820  21.683  44.345  11.406
95318W        W54821   2.370  43.912  11.578
95319W        W54822  44.945  39.494   3.258
95320W        W54823  15.153  17.565   3.316
95321W        W54824   8.743  41.900   1.224
95322W        W54825  24.077  36.528  13.865
95323W        W54826  16.160  39.352   0.864
95324W        W54827  32.464  21.193  12.828
95325W        W54828  26.118  38.935  14.957
95326W        W54829   9.354  21.664   4.235
95327W        W54830  35.984  28.542   1.796
95328W        W54831  27.998   1.933   2.295
95329W        W54832   7.669  33.934  14.419
95330W        W54833  32.587  20.234   3.183
95331W        W54834  13.674   1.255   4.204
95332W        W54835  38.018  44.806   3.652
95333W        W54836  29.927  20.695   1.791
95334W        W54837  27.963   2.267  13.310
95335W        W54838  32.454  17.787   1.913
95336W        W54839  33.089  17.145   3.332
95337W        W54840  21.209  14.152  14.935
95338W        W54841   0.879  35.893  12.383
95339W        W54842  36.999   3.828   3.675
95340W        W54843   5.810  33.612   9.926
95341W        W54844   4.911   0.840  11.028
95342W        W54845  24.630  36.387  13.960
95343W        W54846  10.704   8.859   2.869
95344W        W54847  41.820  30.577   0.281
95345W        W54848  37.940   4.806   3.764
95346W        W54849  40.429  28.656   4.330
95347W        W54850  39.940  38.517   0.400
95348W        W54851  37.380  29.609  14.422
95349W        W54852  11.690  23.132   4.635
95350W        W54853  23.605  29.479  11.087
95351W        W54854  13.628   6.810   4.157
95352W        W54855  15.181  23.064  12.016
95353W        W54856   2.393  14.170   0.249
95354W        W54857   4.228  43.465   2.285
95355W        W54858  12.629  19.051  13.008
95356W        W54859  10.240   4.267   2.800
95357W        W54860  29.495  17.726  14.801
95358W        W54861  37.465  20.582   0.730
95359W        W54862  41.955  14.249   0.893
95360W        W54863  26.196  12.277  13.529
95361W        W54864  44.459  17.172  14.278
95362W        W54865  42.518  44.277  10.941
95363W        W54866  14.755  23.708  14.916
95364W        W54867  36.894  32.901  12.382
95365W        W54868   3.826  37.842  10.604
95366W        W54869  39.495  37.912  12.462
95367W        W54870  27.042  15.759  12.885
95368W        W54871  27.629  15.137   4.307
95369W        W54872  32.100   6.382  14.871
95370W        W54873   2.877  18.283   1.846
95371W        W54874  33.484  18.072   0.483
95372W        W54875  39.913   3.346   3.230
95373W        W54876  32.138  25.511   0.245
95374W        W54877  30.492   3.842  14.357
95375W        W54878   8.820  30.918   3.271
95376W        W54879  24.057  41.516   1.780
95377W        W54880  14.163  20.636   1.352
95378W        W54881  36.465   7.812   1.933
95379W        W54882   8.239   8.182   4.708
95380W        W54883  26.525   0.840   2.250
95381W        W54884  30.163  25.034  11.054
95382W        W54885  17.100  20.621  10.596
95383W        W54886  15.257  31.634   2.253
95384W        W54887   1.316  39.513  14.875
95385W        W54888  22.678  16.691   4.283
95386W        W54889  12.710   5.394   3.370
95387W        W54890  15.791   7.256  10.412
95388W        W54891   4.350  44.418  12.921
95389W        W54892  16.803  22.596  14.025
95390W        W54893  39.959  14.191  12.465
95391W        W54894  26.691  32.400   2.725
95392W        W54895  22.006  44.963   4.338
95393W        W54896  10.245  13.722  14.457
95394W        W54897   2.798  13.791  11.038
95395W        W54898  40.049  35.364   2.790
95396W        W54899  14.727  31.079   4.116
95397W        W54900  41.494  11.687   2.843
95398W        W54901  21.252   7.783   4.232
95399W        W54902  33.963  27.584   3.164
95400W        W54903  33.512  11.158   2.392
95401W        W54904  15.252  38.060   3.847
95402W        W54905  25.983  29.145   4.292
95403W        W54906  24.718   6.685  12.568
95404W        W54907  21.098   6.704  11.914
95405W        W54908  31.599   7.182  13.915
95406W        W54909  40.033  18.172   2.258
95407W        W54910  37.533  35.396  12.429
95408W        W54911  12.613  18.548   1.315
95409W        W54912  24.665  44.902  11.876
95410W        W54913  10.175   5.369  12.410
95411W        W54914  34.986  33.584   0.937
95412W        W54915  11.848  38.565   2.683
95413W        W54916  19.700  40.518   1.870
95414W        W54917  14.319  10.380  13.483
95415W        W54918   1.749  27.156   3.205
95416W        W54919  44.417  42.865   4.317
95417W        W54920  38.024  37.521  13.346
95418W        W54921  30.514   1.762  11.383
95419W        W54922  14.639  40.393   3.832
95420W        W54923  19.593  10.234   0.250
95421W        W54924  11.762  15.685   5.311
95422W        W54925  32.537  37.052   3.332
95423W        W54926   1.345  16.125   0.471
95424W        W54927  16.632  28.933   4.647
95425W        W54928  10.703  16.259  12.826
95426W        W54929  39.062  38.842  12.408
95427W        W54930  12.763  17.207  12.861
95428W        W54931  28.646   3.384   1.428
95429W        W54932  42.972   9.648  13.977
95430W        W54933  29.129   8.296  12.919
95431W        W54934  30.095   2.935   0.250
95432W        W54935  34.116  37.928  12.368
95433W        W54936   0.792  28.131  11.892
95434W        W54937  12.711   3.746   4.635
95435W        W54938   7.838  29.092   2.408
95436W        W54939   8.838  40.952  13.352
95437W        W54940  39.459   4.847  12.830
95438W        W54941  38.849  19.196   9.970
95439W        W54942  44.380  19.274   4.257
95440W        W54943   4.792   0.438   0.253
95441W        W54944  12.166  14.825   0.343
95442W        W54945  30.931  15.764   9.993
95443W        W54946  34.050  32.940  10.639
95444W        W54947  28.550  36.557  14.304
95445W        W54948  41.895   4.937   0.319
95446W        W54949   0.942  25.472   5.170
95447W        W54950  30.106  18.686   1.340
95448W        W54951  23.040  17.248   3.261
95449W        W54952  24.685  28.165  12.918
95450W        W54953  44.277  32.932   1.423
95451W        W54954  43.328  19.770   2.211
95452W        W54955  13.207  23.559  14.381
95453W        W54956  22.998  27.530  11.976
95454W        W54957  39.999  43.952   1.715
95455W        W54958  36.589  39.950   4.648
95456W        W54959  29.504   8.801   0.750
95457W        W54960  28.577  18.181  10.903
95458W        W54961  38.400  41.349  10.524
95459W        W54962   1.413  41.422  13.058
95460W        W54963   4.823  26.631   5.116
95461W        W54964   3.452  11.215   2.356
95462W        W54965  41.873  32.909  10.503
95463W        W54966  42.964  43.505   3.723
95464W        W54967  41.493  39.520  10.638
95465W        W54968  30.909  25.095   1.790
95466W        W54969  12.254  27.093  13.848
95467W        W54970  35.037   1.441  13.913
95468W        W54971  37.977  21.514   1.430
95469W        W54972  36.501  39.510  12.056
95470W        W54973  31.528   9.227   0.277
95471W        W54974   8.674  28.522  12.985
95472W        W54975  18.150  13.184   0.765
95473W        W54976  43.295  26.693   3.741
95474W        W54977   2.287   2.466  14.314
95475W        W54978  28.119   8.394   3.759
95476W        W54979  14.277   4.316   3.740
95477W        W54980  31.143  44.813   3.709
95478W        W54981  30.081   1.850  13.429
95479W        W54982   1.471   6.328  11.946
95480W        W54983  20.732  11.128  14.488
95481W        W54984  38.440  25.198  14.865
95482W        W54985  20.548   3.792  14.785
95483W        W54986   9.822  30.555  12.089
95484W        W54987   0.805   2.839   3.652
95485W        W54988  43.780   5.825  11.597
95486W        W54989  31.124   1.363   4.694
95487W        W54990  31.905   5.247  11.012
95488W        W54991   8.236  13.120  10.123
95489W        W54992  38.467  43.372  12.358
95490W        W54993  17.253  19.577   1.771
95491W        W54994  26.048  22.669  11.401
95492W        W54995  14.293  41.388  14.801
95493W        W54996  27.062  36.489  12.996
95494W        W54997   8.717  41.787   2.364
95495W        W54998  32.474  18.234   1.422
95496W        W54999   7.869  23.107   3.340
95497W        W55000  24.205  36.027   4.757
95498W        W55001  31.959  27.159  13.028
95499W        W55002  33.483  26.155  13.404
95500W        W55003  20.736  20.196   4.653
95501W        W55004  20.049  33.069   3.783
95502W        W55005  16.658  27.095   4.684
95503W        W55006   2.262  28.087   2.183
95504W        W55007   6.717  42.939   2.337
95505W        W55008  15.768  21.511  13.922
95506W        W55009   4.383  22.556  11.948
95507W        W55010  25.683   3.883   3.326
95508W        W55011  41.884  41.380  12.835
95509W        W55012  24.988  30.056  10.440
95510W        W55013  36.388  30.014   4.159
95511W        W55014  15.089  26.077  11.085
95512W        W55015  38.467  29.094  12.493
95513W        W55016  15.754  12.302   3.347
95514W        W55017   4.843  19.559  12.895
95515W        W55018   9.363  24.029  12.044
95516W        W55019   7.308  14.316   5.734
95517W        W55020  13.627  35.601   1.817
95518W        W55021  44.435  18.682   5.315
95519W        W55022  31.569  14.317   1.791
95520W        W55023  31.443  24.169  13.044
95521W        W55024  36.030  37.500   4.262
95522W        W55025   7.905  24.593  13.854
95523W        W55026   8.814  42.847   2.817
95524W        W55027  40.400  30.629  10.405
95525W        W55028  39.448  28.487  13.488
95526W        W55029  33.491  28.059  13.030
95527W        W55030  28.613  44.982  14.462
95528W        W55031   7.351  31.566   1.313
95529W        W55032   3.845  29.547   3.853
95530W        W55033  44.485   2.905   2.190
95531W        W55034  22.996  17.642   2.707
95532W        W55035  12.856  30.160   2.191
95533W        W55036  40.419  22.166   4.264
95534W        W55037   2.365  26.045   1.745
95535W        W55038  17.109  31.488   2.803
95536W        W55039   2.745  30.017   4.817
95537W        W55040   5.281  30.043  11.117
95538W        W55041  31.913  34.413   1.400
95539W        W55042   3.443  12.652   0.779
95540W        W55043  35.935  21.228   0.783
95541W        W55044  15.208  40.306  14.978
95542W        W55045  27.497  31.470  10.556
95543W        W55046   8.310  12.231  13.407
95544W        W55047  42.509  42.375   4.117
95545W        W55048  29.984  43.022  13.433
95546W        W55049  44.779  28.081   4.749
95547W        W55050   5.382  18.768   1.353
95548W        W55051  14.147  33.117   2.688
95549W        W55052  27.057  33.098  12.485
95550W        W55053  32.891  26.518   0.883
95551W        W55054  44.960  15.615  12.054
95552W        W55055  30.518  16.753   3.833
95553W        W55056  35.448  24.590   1.428
95554W        W55057  18.133   5.319  11.907
95555W        W55058  11.218  14.183   0.907
95556W        W55059  21.654   7.303   1.916
95557W        W55060  32.992   1.258  14.412
95558W        W55061   3.375  25.705  12.831
95559W        W55062  26.640  21.649  13.908
95560W        W55063  25.107   8.231   0.422
95561W        W55064  32.556  31.449   1.706
95562W        W55065  34.068   3.405  12.902
95563W        W55066  17.290   2.754  14.790
95564W        W55067  26.098   7.739  11.418
95565W        W55068   3.861  25.670   4.745
95566W        W55069   0.743   7.860   3.712
95567W        W55070   0.414  12.668   4.260
95568W        W55071  28.524   6.829   1.905
95569W        W55072  27.522   4.931  11.437
95570W        W55073  42.290   8.250   1.412
95571W        W55074  43.953  32.510   3.156
95572W        W55075  10.308  29.002  10.590
95573W        W55076  24.088  36.425   2.789
95574W        W55077  12.161   4.857  11.597
95575W        W55078   1.759   5.843  14.013
95576W        W55079  43.794  14.289   0.759
95577W        W55080  43.864  35.913   3.267
95578W        W55081  41.505   4.224  14.326
95579W        W55082  29.083   6.341   1.347
95580W        W55083  27.465   5.252  14.361
95581W        W55084  14.211   4.242  10.944
95582W        W55085   1.280  19.552   5.692
95583W        W55086  20.751  24.178  14.333
95584W        W55087  11.674  29.023   2.180
95585W        W55088  28.974  29.082   3.763
95586W        W55089  38.040  21.096  14.509
95587W        W55090  34.921   9.191   1.353
95588W        W55091  41.791   2.311   1.747
95589W        W55092   8.320  38.012   1.335
95590W        W55093  37.956   4.922  13.043
95591W        W55094  33.884   3.948   3.747
95592W        W55095  44.335  26.673   0.863
95593W        W55096  24.694  29.977  14.498
95594W        W55097  37.522  28.556   0.890
95595W        W55098  22.075  32.611  13.968
95596W        W55099  34.087  27.468   9.933
95597W        W55100  33.618  11.324   1.817
95598W        W55101   7.322  40.829  13.423
95599W        W55102  19.641  11.201  14.292
95600W        W55103   4.236  21.572  13.919
95601W        W55104  38.381  18.087   1.740
95602W        W55105   2.780  39.894   1.337
95603W        W55106  37.956   0.794  13.338
95604W        W55107  12.745  25.698  13.374
95605W        W55108  43.943   7.348  12.451
95606W        W55109  28.593  43.472  11.978
95607W        W55110  41.412   1.866   0.433
95608W        W55111   1.303  17.722   1.783
95609W        W55112  40.460  33.396   2.235
95610W        W55113  34.898   8.771   1.922
95611W        W55114  31.058  40.910   3.338
95612W        W55115   5.765  15.783   4.667
95613W        W55116  38.388  42.287   4.263
95614W        W55117  44.891   3.712   4.157
95615W        W55118  35.006  14.121   0.872
95616W        W55119  22.709  34.453  13.937
95617W        W55120  42.827  37.427  11.393
95618W        W55121  34.945  14.272   3.864
95619W        W55122  44.822  21.742   1.875
95620W        W55123  23.646   4.229  10.640
95621W        W55124  40.846  44.951  11.608
95622W        W55125  26.616  31.081   1.775
95623W        W55126   0.479  16.200   0.368
95624W        W55127  24.673  13.305   0.478
95625W        W55128  42.023   9.239   1.321
95626W        W55129  25.538  37.902  13.975
95627W        W55130  30.157  14.273   2.663
95628W        W55131  18.151  31.123  12.479
95629W        W55132   2.892  33.064  14.861
95630W        W55133   1.359  35.598  14.303
95631W        W55134  31.928   8.737  11.097
95632W        W55135  34.534  34.942  10.553
95633W        W55136  25.600  17.184   0.848
95634W        W55137  14.190  27.047  11.399
95635W        W55138  25.560  37.025  13.028
95636W        W55139  35.079  28.619  13.824
95637W        W55140  10.360  11.229   5.107
95638W        W55141  30.630  11.135  14.378
95639W        W55142  40.320  21.754   2.693
95640W        W55143   1.335  41.420  13.484
95641W        W55144  20.526  37.480  10.933
95642W        W55145  33.474  40.492  14.420
95643W        W55146  16.271  16.214  10.459
95644W        W55147  16.271  35.102   2.692
95645W        W55148  43.827  16.101  14.279
95646W        W55149   5.775  13.800  12.343
95647W        W55150  30.517   3.779   2.341
95648W        W55151  32.431  39.551   5.146
95649W        W55152  30.058  26.087   1.922
95650W        W55153   3.844  32.395   2.290
95651W        W55154  21.705  38.022   0.474
95652W        W55155  37.848  11.177   2.261
95653W        W55156  44.268   7.363  11.930
95654W        W55157  13.807   0.383   1.438
95655W        W55158  35.004  43.005   2.781
95656W        W55159  31.993   4.448   2.781
95657W        W55160  32.099  34.877   0.733
95658W        W55161  39.557  31.966   2.851
95659W        W55162  25.176  13.286  11.403
95660W        W55163  18.165  36.871  12.022
95661W        W55164  34.989  44.866  13.453
95662W        W55165  32.535  33.032  11.870
95663W        W55166  26.055  11.623  12.371
95664W        W55167   3.286  25.026   2.705
95665W        W55168  19.558   0.273  14.776
95666W        W55169   6.895  13.155  11.431
95667W        W55170   4.333  40.935  14.012
95668W        W55171  12.622   2.959   0.933
95669W        W55172  36.411   3.747   2.747
95670W        W55173  25.662  42.409  10.964
95671W        W55174   0.979  13.337   2.242
95672W        W55175  36.991   3.735   4.748
95673W        W55176  44.454  17.704   1.411
95674W        W55177  27.196  38.918  12.967
95675W        W55178   0.318  42.386  13.993
95676W        W55179   0.967  10.174   1.342
95677W        W55180  44.452  30.477   3.712
95678W        W55181   4.779   1.963   0.842
95679W        W55182  14.178  31.419  10.481
95680W        W55183  17.198  11.364  13.843
95681W        W55184  27.655  28.444  10.519
95682W        W55185  38.027  15.176   1.387
95683W        W55186  22.193  21.071  12.397
95684W        W55187  22.525  37.078   2.222
95685W        W55188  31.099  20.120  11.560
95686W        W55189  40.544  13.257  11.454
95687W        W55190  33.089   1.390   3.790
95688W        W55191  18.698  29.967  13.909
95689W        W55192  17.723  35.957   0.259
95690W        W55193   3.814  42.389   9.600
95691W        W55194  41.978  39.368   0.734
95692W        W55195   6.254  33.495   1.246
95693W        W55196  12.665   9.857  12.080
95694W        W55197  32.607  31.403  10.585
95695W        W55198  37.534  36.941  14.373
95696W        W55199  26.594  14.248  13.505
95697W        W55200  16.247  13.834  10.517
95698W        W55201  39.326  21.533   0.465
95699W        W55202   0.285  30.550  12.431
95700W        W55203  30.521  42.446  13.331
95701W        W55204  18.062   8.850   3.204
95702W        W55205  25.103  18.273   4.248
95703W        W55206   5.737  33.497   3.767
95704W        W55207  42.388   5.795   3.772
95705W        W55208  20.202  31.509  14.379
95706W        W55209  26.495  13.115  12.515
95707W        W55210  34.875  41.949   4.800
95708W        W55211  22.710  29.931  12.342
95709W        W55212   9.870  22.557  14.816
95710W        W55213  23.053  44.768  11.476
95711W        W55214   4.244  32.077  10.921
95712W        W55215   3.793  34.575  10.550
95713W        W55216   1.824  11.730  12.958
95714W        W55217  42.835  29.036   0.939
95715W        W55218  26.972   2.811  12.350
95716W        W55219  21.067  38.983   0.766
95717W        W55220  24.210  13.252   1.430
95718W        W55221  23.233   2.439  10.980
95719W        W55222  16.249  39.813   0.783
95720W        W55223  13.788  44.935  13.367
95721W        W55224  31.523   6.288   2.196
95722W        W55225  41.374  33.965   1.378
95723W        W55226  25.057  25.170   2.749
95724W        W55227  18.056  29.662  11.968
95725W        W55228  23.697   9.155  11.960
95726W        W55229  21.189   4.928   4.155
95727W        W55230   8.293  17.180  10.920
95728W        W55231  14.278  29.531   3.372
95729W        W55232  28.514  27.148  14.324
95730W        W55233  43.436   1.358   2.871
95731W        W55234   8.793  27.594  12.035
95732W        W55235  28.553  21.257  11.459
95733W        W55236   3.932  31.514   3.160
95734W        W55237  16.782  13.795   2.796
95735W        W55238  26.520  19.157  13.871
95736W        W55239  18.589  38.948   3.689
95737W        W55240  37.524  23.058  13.893
95738W        W55241  14.181  40.494  11.942
95739W        W55242  41.511  21.157  14.798
95740W        W55243  27.595   7.250  10.963
95741W        W55244  37.985   4.210   1.801
95742W        W55245  36.485  26.024   1.320
95743W        W55246  19.707  20.173   1.328
95744W        W55247  20.694  11.662   2.365
95745W        W55248   9.729   3.395   3.164
95746W        W55249  14.175   2.757   4.341
95747W        W55250  26.977  41.507   3.829
95748W        W55251  13.335  10.373   1.274
95749W        W55252   1.457  19.052   9.661
95750W        W55253  33.622  43.980  14.819
95751W        W55254   5.394   4.707  14.385
95752W        W55255  10.350  12.773  14.926
95753W        W55256   1.842  33.437   5.162
95754W        W55257   2.307  16.594   3.722
95755W        W55258   9.687  16.804  13.482
95756W        W55259  19.045  21.640   4.347
95757W        W55260   2.380  27.661  12.085
95758W        W55261   0.821  23.015   4.138
95759W        W55262  22.594   7.401   2.225
95760W        W55263  27.461  40.867   0.791
95761W        W55264  42.885  20.081  13.866
95762W        W55265  19.145  39.036  13.894
95763W        W55266   5.328   9.809   3.219
95764W        W55267  35.969  42.511   1.747
95765W        W55268  40.966  14.654   3.171
95766W        W55269  24.980  24.153   2.331
95767W        W55270  29.026   0.307  10.415
95768W        W55271  17.102   7.831   0.846
95769W        W55272  24.007  15.748   2.311
95770W        W55273   2.845   5.421   2.336
95771W        W55274  36.933  35.000   1.824
95772W        W55275  25.179  28.130   5.177
95773W        W55276  43.358  42.992   3.195
95774W        W55277  26.035  21.115   4.344
95775W        W55278  32.391  37.512  14.483
95776W        W55279  19.733   4.727   3.810
95777W        W55280  35.014  32.533   2.180
95778W        W55281  27.521   0.462   2.768
95779W        W55282  38.355  32.026  11.521
95780W        W55283  31.911  21.067  14.382
95781W        W55284  30.644  12.650   2.353
95782W        W55285  19.147  35.450   2.247
95783W        W55286  10.234  40.997  13.418
95784W        W55287   9.293   1.242   1.746
95785W        W55288   7.390   7.408  11.510
95786W        W55289  14.823  43.328   1.315
95787W        W55290   1.277  19.732   5.270
95788W        W55291  16.271  32.413   3.737
95789W        W55292  22.502  19.732  10.497
95790W        W55293  42.029  43.884   3.187
95791W        W55294   4.840  35.584   3.636
95792W        W55295   7.201  19.605  10.913
95793W        W55296   1.835  35.962  10.940
95794W        W55297  29.071  13.324  14.896
95795W        W55298  42.918   1.318   2.802
95796W        W55299  32.020  16.619   1.219
95797W        W55300  12.148  36.859  10.938
95798W        W55301  19.063  37.568  13.330
95799W        W55302  24.579  36.371  14.276
95800W        W55303  18.566  25.535  12.871
95801W        W55304  41.414   7.691  13.398
95802W        W55305  23.615   3.346   0.862
95803W        W55306  40.960  24.559  12.853
95804W        W55307  35.009  10.872  13.847
95805W        W55308  25.630  37.065   3.323
95806W        W55309  43.288   6.707   1.403
95807W        W55310  26.661  33.987   2.219
95808W        W55311   4.336   5.264   3.182
95809W        W55312  13.312   5.854  14.435
95810W        W55313  11.254  37.958  10.475
95811W        W55314   1.907  44.357  14.819
95812W        W55315  29.601   7.403  14.313
95813W        W55316   6.342   4.208  12.929
95814W        W55317  30.472  38.365   0.881
95815W        W55318  21.658   1.867  13.947
95816W        W55319  16.078  21.697  12.529
95817W        W55320   7.246  10.345   0.434
95818W        W55321  43.439  22.053  11.396
95819W        W55322   3.395  25.487  11.887
95820W        W55323  19.193   2.868  14.452
95821W        W55324  44.903  32.991   3.779
95822W        W55325   2.337  25.621  13.010
95823W        W55326  21.095  20.580   0.858
95824W        W55327  36.518   2.955  13.418
95825W        W55328  38.064  32.501  11.592
95826W        W55329  10.831   1.878  13.341
95827W        W55330  43.422  13.118   3.161
95828W        W55331  42.879  43.814   1.332
95829W        W55332   2.849   1.388   0.901
95830W        W55333  21.754   4.354  10.022
95831W        W55334  11.332  44.828   3.726
95832W        W55335  32.098  34.120   4.320
95833W        W55336   1.436  34.589  14.457
95834W        W55337  34.085  19.119   2.889
95835W        W55338   1.450  27.664  14.830
95836W        W55339  40.817  44.466  13.926
95837W        W55340  44.467  39.927  10.133
95838W        W55341   5.749  40.549  11.563
95839W        W55342  10.155  11.752  11.576
95840W        W55343  29.545   3.305   3.637
95841W        W55344  34.549  43.274  10.508
95842W        W55345  23.986   9.160  11.109
95843W        W55346  28.564   5.718   3.686
95844W        W55347   6.424  17.078   4.667
95845W        W55348  42.835  20.536   1.902
95846W        W55349  17.745  38.845  12.474
95847W        W55350  16.800   3.271  14.290
95848W        W55351  41.848  28.656   3.736
95849W        W55352   3.791  19.272  13.863
95850W        W55353  26.482  32.500  14.848
95851W        W55354  44.985   0.490  13.044
95852W        W55355  44.831  12.621  12.536
95853W        W55356   6.822  32.036  11.012
95854W        W55357   0.367  19.096   0.449
95855W        W55358  44.861  34.870   2.289
95856W        W55359  26.634  29.504   3.216
95857W        W55360  11.198  25.019  14.507
95858W        W55361  34.043  26.630   4.120
95859W        W55362  33.905  34.078   1.716
95860W        W55363  28.592   9.869  12.577
95861W        W55364  27.558   4.768  13.833
95862W        W55365  14.822  22.083   3.251
95863W        W55366   7.236  19.607  11.475
95864W        W55367  31.083  19.590  11.526
95865W        W55368  39.898  33.097   3.316
95866W        W55369  28.980  15.629   2.240
95867W        W55370   4.380  42.302   2.901
95868W        W55371   4.243   5.412  14.449
95869W        W55372  18.192  32.633   2.777
95870W        W55373   6.886  33.066   0.483
95871W        W55374  40.947  22.674   2.388
95872W        W55375  28.041  28.678   4.244
95873W        W55376  33.942  32.566  11.858
95874W        W55377  37.571  34.927   4.770
95875W        W55378  38.906   8.763   4.629
95876W        W55379  42.004  17.156   2.763
95877W        W55380  37.869  22.633  13.327
95878W        W55381   9.228  34.119  11.857
95879W        W55382  21.544  41.371  14.371
95880W        W55383  30.098  41.020  13.029
95881W        W55384  44.824  36.576  11.427
95882W        W55385  37.917  36.405  13.413
95883W        W55386  37.414  15.196  14.376
95884W        W55387  20.678  39.386   4.145
95885W        W55388  35.956   9.376   3.658
95886W        W55389  39.326  43.982  10.463
95887W        W55390  34.590  38.055  11.960
95888W        W55391  33.394  25.665  11.575
95889W        W55392  21.079  25.562   4.216
95890W        W55393  23.527  36.924  14.914
95891W        W55394  19.140  34.586  10.546
95892W        W55395   5.876  20.637  12.086
95893W        W55396  13.661  23.732  12.555
95894W        W55397  33.466  37.563   2.348
95895W        W55398   3.950  23.103  10.624
95896W        W55399   2.896  13.734   4.722
95897W        W55400  43.970  15.128  12.972
95898W        W55401   6.294  23.063  12.384
95899W        W55402   8.658   5.830   1.272
95900W        W55403  18.549  10.852  14.882
95901W        W55404  12.209  35.576  10.434
95902W        W55405  34.577  21.679   0.469
95903W        W55406  20.204  40.397  11.026
95904W        W55407  38.005  17.196  11.884
95905W        W55408  28.498  14.764   2.716
95906W        W55409  21.174  21.122   1.908
95907W        W55410  32.601  10.209  13.334
95908W        W55411  18.572  44.794   3.781
95909W        W55412  39.849  18.126   1.431
95910W        W55413  38.387  18.180   0.910
95911W        W55414  32.563   5.829   3.184
95912W        W55415  29.997   4.714   4.797
95913W        W55416  15.120  12.146  11.419
95914W        W55417   2.926  42.811   3.274
95915W        W55418  34.114  30.490   1.396
95916W        W55419  22.252   9.846   2.209
95917W        W55420  30.009  23.145   3.729
95918W        W55421  38.907  30.943   1.852
95919W        W55422   8.840  35.989   4.256
95920W        W55423  14.831   8.175  11.875
95921W        W55424  26.034  41.823  13.008
95922W        W55425  21.120  33.547  13.354
95923W        W55426  20.763   7.684  14.318
95924W        W55427  40.391  33.029   4.125
95925W        W55428  44.884   4.275   2.410
95926W        W55429  14.821  17.598   0.845
95927W        W55430  21.099   1.424   0.835
95928W        W55431  35.540  44.434   0.332
95929W        W55432  30.648  38.051   0.949
95930W        W55433  15.216  16.665   2.745
95931W        W55434  31.083  21.564  11.110
95932W        W55435   9.393  22.134   3.163
95933W        W55436  22.537   9.272   2.326
95934W        W55437  31.105  41.426  10.900
95935W        W55438  21.256  31.934  14.919
95936W        W55439   2.288  21.631   3.275
95937W        W55440  26.603  13.328  11.019
95938W        W55441  21.602  17.734   1.785
95939W        W55442  39.997  19.067  11.981
95940W        W55443  27.504  22.237  12.032
95941W        W55444   5.317  15.221  13.532
95942W        W55445  24.624  19.173  11.453
95943W        W55446  41.508  17.076   3.723
95944W        W55447  40.847  22.211  13.427
95945W        W55448   3.348  30.967   0.896
95946W        W55449  35.901   8.360  11.076
95947W        W55450  13.631  28.948   4.338
95948W        W55451  24.111  33.584   0.313
95949W        W55452  41.812  25.651   3.684
95950W        W55453  42.934  22.149  14.472
95951W        W55454  30.926  11.293   9.920
95952W        W55455  20.627  22.522   0.401
95953W        W55456   9.852  26.125   2.845
95954W        W55457  37.934  30.134  14.311
95955W        W55458   3.356  22.712  12.944
95956W        W55459  26.091  29.940   0.893
95957W        W55460  34.393   9.748   4.682
95958W        W55461  24.543  28.142   4.785
95959W        W55462  38.025  39.979  10.909
95960W        W55463  23.069  16.699  11.897
95961W        W55464  38.882  27.147  13.954
95962W        W55465   9.195  39.374  13.404
95963W        W55466  24.670  28.176   3.711
95964W        W55467  39.914  20.239  11.064
95965W        W55468   7.308   5.875   4.194
95966W        W55469  19.208   3.925  12.382
95967W        W55470  22.543   2.467  10.966
95968W        W55471  39.473  44.819   1.395
95969W        W55472   1.418  12.340   2.711
95970W        W55473  29.064  30.023  13.802
95971W        W55474   4.799  25.203   2.238
95972W        W55475  36.382  14.717  11.526
95973W        W55476  11.792  30.498  12.008
95974W        W55477  36.858  29.424   2.328
95975W        W55478  30.131  27.131   0.840
95976W        W55479  26.146   9.836  14.275
95977W        W55480  26.186  40.921   3.209
95978W        W55481  14.252  11.161   1.350
95979W        W55482  44.384  20.561   0.407
95980W        W55483  18.185   3.832  11.487
95981W        W55484  32.625  17.559   1.440
95982W        W55485  43.283  41.848   3.658
95983W        W55486  31.551  21.165   2.843
95984W        W55487  37.492  39.898   2.713
95985W        W55488   4.355  36.893   3.340
95986W        W55489  10.188  38.915  11.882
95987W        W55490  13.137  16.598  13.402
95988W        W55491  31.011   4.916  13.928
95989W        W55492  13.649  11.194  11.025
95990W        W55493  26.157   9.232  13.476
95991W        W55494  31.576  33.587   4.682
95992W        W55495  32.082  43.998   2.749
95993W        W55496  18.620  11.164  12.530
95994W        W55497   4.362  30.413   3.792
95995W        W55498  31.118  25.641   9.630
95996W        W55499  13.177   5.827   4.660
95997W        W55500  43.982  39.401  12.891
95998W        W55501  15.649  36.047  13.879
95999W        W55502  39.810   0.926  10.559
96000W        W55503  14.761  21.740  10.428
96001W        W55504   2.949  28.562  12.359
96002W        W55505  24.660   0.287  12.836
96003W        W55506  25.992  26.072  13.975
96004W        W55507  20.154  41.887  12.014
96005W        W55508  33.027   0.770   3.639
96006W        W55509  42.872  27.601  11.501
96007W        W55510  22.578  41.820  14.477
96008W        W55511   8.693  37.831  13.340
96009W        W55512  34.373  17.680   4.769
96010W        W55513  36.037  23.165  14.429
96011W        W55514  26.655  27.061  11.937
96012W        W55515   2.921  39.452   1.844
96013W        W55516  31.413  21.071  14.455
96014W        W55517  21.741  20.103   1.379
96015W        W55518  15.155  36.949  12.842
96016W        W55519  14.327  28.657   4.741
96017W        W55520   3.805  32.902  11.483
96018W        W55521   7.174  18.145  13.991
96019W        W55522  12.788  39.981  12.536
96020W        W55523   2.353  31.958  12.018
96021W        W55524  23.545  34.938  11.506
96022W        W55525  29.128  41.298   3.637
96023W        W55526  26.514  43.819   9.495
96024W        W55527  21.210   8.295   4.708
96025W        W55528   0.302  21.566  12.029
96026W        W55529  28.090  41.306  13.371
96027W        W55530  41.992  38.857  12.448
96028W        W55531  24.613  34.590   3.791
96029W        W55532  32.053  25.998  11.951
96030W        W55533  42.286  38.870   4.291
96031W        W55534   5.386  38.064   0.390
96032W        W55535  11.136   6.304  11.955
96033W        W55536  36.405  24.551   3.658
96034W        W55537  13.288   2.886  11.572
96035W        W55538  26.140  40.423  10.953
96036W        W55539  20.689  16.757  13.933
96037W        W55540  14.199  37.949   0.918
96038W        W55541  35.059  15.213  13.047
96039W        W55542  27.101  13.274   4.607
96040W        W55543  19.041   7.851  11.969
96041W        W55544  27.056  32.000   0.456
96042W        W55545  39.410  18.213  13.032
96043W        W55546  16.671  36.363  11.554
96044W        W55547  32.005   2.854  12.825
96045W        W55548   3.920  32.549  10.451
96046W        W55549   5.194   7.263   1.902
96047W        W55550  14.138  18.623  14.480
96048W        W55551  24.070  43.324   2.679
96049W        W55552   7.219  30.078   0.846
96050W        W55553   3.882  26.979   1.816
96051W        W55554   4.805  44.872   0.780
96052W        W55555  12.344  26.602  13.983
96053W        W55556  18.063  34.429   0.321
96054W        W55557  21.643  19.576  10.407
96055W        W55558  14.189  26.126  13.465
96056W        W55559  21.183  35.054  13.354
96057W        W55560   6.922  21.113  13.008
96058W        W55561  37.001  29.067   4.773
96059W        W55562  13.659  28.147   0.308
96060W        W55563  19.075  37.084   1.921
96061W        W55564  26.176  27.466   2.320
96062W        W55565  33.073  24.114   0.888
96063W        W55566  34.520  41.359   1.779
96064W        W55567  29.529  43.294  11.573
96065W        W55568  35.057  20.232   4.678
96066W        W55569  28.661   3.763  13.983
96067W        W55570  39.321  34.036   0.729
96068W        W55571  19.736  26.493   1.357
96069W        W55572  35.429  29.516   1.381
96070W        W55573  31.982   8.193  12.072
96071W        W55574  29.033  14.301  10.435
96072W        W55575  25.598  40.814   2.369
96073W        W55576  36.050   2.387   0.357
96074W        W55577  42.001   1.376   3.725
96075W        W55578  28.119   1.759  14.761
96076W        W55579  23.536  19.544   2.258
96077W        W55580  37.931  13.836  14.994
96078W        W55581  38.405  25.112   4.128
96079W        W55582  13.686  42.785   3.200
96080W        W55583  33.472  33.606  13.001
96081W        W55584   9.745   8.766  14.281
96082W        W55585  35.493   7.807  13.329
96083W        W55586  27.463  28.073   0.466
96084W        W55587  12.178  10.329  11.986
96085W        W55588   0.959   2.373   0.449
96086W        W55589   7.201  17.156   2.687
96087W        W55590  18.734  27.447   2.191
96088W        W55591  33.940   7.205   3.854
96089W        W55592  41.040  28.580  10.959
96090W        W55593  26.529   3.393  14.339
96091W        W55594  21.129  41.523   1.918
96092W        W55595  25.515  42.777   3.660
96093W        W55596  14.288   5.223  14.027
96094W        W55597  37.084  24.033  14.405
96095W        W55598  17.222  12.258   1.817
96096W        W55599  34.553  19.559   4.129
96097W        W55600  16.166  24.502   1.446
96098W        W55601  17.659  40.314   1.277
96099W        W55602  22.135   3.291  13.822
96100W        W55603  19.556  31.636   2.706
96101W        W55604  23.117  44.978  12.017
96102W        W55605  38.844  28.517  13.402
96103W        W55606  14.256  37.989   0.427
96104W        W55607  29.666  13.344  13.998
96105W        W55608  15.649  12.845   0.324
96106W        W55609   8.892  15.787   3.699
96107W        W55610  41.455  13.259  10.470
96108W        W55611  28.627  37.388   3.161
96109W        W55612  39.899  36.874   1.438
96110W        W55613   1.746   2.722   9.972
96111W        W55614  27.670   0.446  13.804
96112W        W55615  37.342  24.635   1.844
96113W        W55616  28.481  30.587  14.445
96114W        W55617  38.554  16.091  13.963
96115W        W55618  28.940  12.280   5.278
96116W        W55619  33.876  39.461  13.032
96117W        W55620  36.940   0.917  12.040
96118W        W55621  15.223  22.689   3.289
96119W        W55622  13.132  29.454  14.452
96120W        W55623  21.142  21.526   1.227
96121W        W55624  11.174  42.460  14.916
96122W        W55625  13.821  42.783  12.086
96123W        W55626  44.417  44.277  10.506
96124W        W55627  25.477   4.214  11.408
96125W        W55628  20.133  44.798   2.366
96126W        W55629   4.388   6.676   2.817
96127W        W55630  19.106  22.169   2.249
96128W        W55631  37.579  34.556   2.412
96129W        W55632   7.270  42.875  13.941
96130W        W55633  31.954  29.079  11.894
96131W        W55634   4.724   4.204  14.374
96132W        W55635  29.545   0.293  10.998
96133W        W55636  31.513  28.673   4.751
96134W        W55637  22.161  23.619   3.863
96135W        W55638  13.146  38.022  12.967
96136W        W55639   9.246  39.365  14.769
96137W        W55640  44.462  23.729   1.700
96138W        W55641  29.938  33.519   4.199
96139W        W55642   9.297  37.844  10.489
96140W        W55643  33.985   1.736  11.058
96141W        W55644  26.111  30.498  12.991
96142W        W55645   3.808  34.591   3.304
96143W        W55646  26.006  33.074  12.026
96144W        W55647  20.190  31.961   4.738
96145W        W55648  28.629  18.689  10.572
96146W        W55649  36.422  16.276   0.282
96147W        W55650  41.925  43.467  12.554
96148W        W55651  36.940  23.227  12.853
96149W        W55652   8.822   7.233   2.666
96150W        W55653   3.949  25.697   0.808
96151W        W55654  36.362  11.192   3.642
96152W        W55655  13.176  42.374  14.920
96153W        W55656  14.829  44.310   0.448
96154W        W55657  11.798  12.716  13.483
96155W        W55658   2.852  36.918   4.321
96156W        W55659   6.369  20.706  13.461
96157W        W55660  22.509  43.946  12.526
96158W        W55661   5.260  36.035   2.235
96159W        W55662  20.214  33.064   2.768
96160W        W55663   9.165   7.404  11.422
96161W        W55664   5.429  30.112   9.563
96162W        W55665  32.974  35.875   3.838
96163W        W55666  40.032  13.146  12.347
96164W        W55667  37.480  13.251  13.812
96165W        W55668  34.428  26.577   2.376
96166W        W55669  29.019   4.892  13.324
96167W        W55670  24.146  16.691  13.835
96168W        W55671  25.663  39.950   1.705
96169W        W55672  24.717  13.120  11.977
96170W        W55673   0.300   5.339   0.260
96171W        W55674   1.818  40.311   1.916
96172W        W55675  39.501  19.706   3.346
96173W        W55676  41.361   1.471   4.612
96174W        W55677   2.228  13.171   3.742
96175W        W55678   9.378  36.013   0.413
96176W        W55679  29.153  41.470  10.942
96177W        W55680   1.374  32.126   2.240
96178W        W55681  11.627  31.409  12.352
96179W        W55682  41.352  24.012   2.216
96180W        W55683   6.341  31.513  10.619
96181W        W55684   0.424  35.856  10.942
96182W        W55685  26.017  37.357   3.300
96183W        W55686   3.460  43.794  13.485
96184W        W55687  12.140  43.007   3.162
96185W        W55688   7.888  17.247  11.079
96186W        W55689  20.078  20.232   0.867
96187W        W55690  38.003  27.603  11.947
96188W        W55691  20.270  11.761  14.358
96189W        W55692  34.936  19.064  12.082
96190W        W55693  43.477  37.967  11.106
96191W        W55694  27.595  23.680   1.363
96192W        W55695  26.460  34.438  12.977
96193W        W55696  18.715  13.667   4.334
96194W        W55697   5.775  20.047  10.909
96195W        W55698  14.253  34.930   2.771
96196W        W55699  17.643  25.018   3.170
96197W        W55700   0.969  35.589  13.521
96198W        W55701  14.646  44.966  14.349
96199W        W55702  18.787  29.658   0.822
96200W        W55703   5.237   4.911   3.777
96201W        W55704  27.603  25.687   4.688
96202W        W55705  11.372   4.758  10.417
96203W        W55706  23.186  32.544   0.940
96204W        W55707  25.539  42.284  14.958
96205W        W55708  30.908  18.616   0.361
96206W        W55709  34.009  39.903  10.148
96207W        W55710   6.409  24.070  11.952
96208W        W55711  35.998   6.213  12.081
96209W        W55712  27.101  21.133   0.779
96210W        W55713  21.673  17.633  11.073
96211W        W55714   1.251  44.373  13.323
96212W        W55715  44.800  42.921  12.564
96213W        W55716  31.431  20.727   0.837
96214W        W55717  16.127   4.918   2.876
96215W        W55718  18.187  27.546   2.419
96216W        W55719   0.760  20.212   5.317
96217W        W55720  24.085  33.944   4.255
96218W        W55721  28.160  18.259  12.090
96219W        W55722  27.080  19.190   4.337
96220W        W55723  15.735  29.068   1.876
96221W        W55724  32.097   3.425  11.468
96222W        W55725  41.854  15.321  14.804
96223W        W55726  30.532  32.084   1.871
96224W        W55727  12.242  30.126   4.244
96225W        W55728  37.082   4.756  14.909
96226W        W55729  38.931   3.900   2.258
96227W        W55730  41.949  10.197  11.507
96228W        W55731  33.106  42.831  13.991
96229W        W55732  27.514  30.594  11.420
96230W        W55733  32.945  10.364  10.929
96231W        W55734  17.687  36.993   0.757
96232W        W55735  19.593   1.430  12.579
96233W        W55736  16.662  34.884  14.876
96234W        W55737  16.089  43.012   5.113
96235W        W55738  34.570  28.000   0.408
96236W        W55739   8.300  26.639  13.529
96237W        W55740  28.098   0.745  14.329
96238W        W55741  22.081  33.509   2.386
96239W        W55742  37.012   9.381   1.918
96240W        W55743   6.834  24.117  14.930
96241W        W55744  34.036   7.835  13.016
96242W        W55745  44.330  19.055  11.873
96243W        W55746  41.975  13.660  12.021
96244W        W55747  35.380  28.039  12.984
96245W        W55748  16.124  34.599   0.479
96246W        W55749  41.499  21.597  14.004
96247W        W55750  35.868   9.872  13.860
96248W        W55751   6.910  42.876  12.484
96249W        W55752  25.050  14.800  11.035
96250W        W55753   5.925  31.584   4.808
96251W        W55754  11.305  17.654   1.355
96252W        W55755  19.663  38.019  12.840
96253W        W55756  44.857  42.933   3.316
96254W        W55757  40.933   4.299   4.352
96255W        W55758  22.189   5.346  13.452
96256W        W55759   7.694  25.997   2.286
96257W        W55760  24.219  42.319  13.848
96258W        W55761   1.832   9.367  11.454
96259W        W55762  10.644  31.424  14.417
96260W        W55763  13.257  21.640   2.683
96261W        W55764  38.552   9.385   2.272
96262W        W55765  17.569  27.586   2.396
96263W        W55766  30.614   0.320  14.996
96264W        W55767  39.478  23.673  11.571
96265W        W55768   5.337  42.797   1.867
96266W        W55769  26.694  36.364  14.025
96267W        W55770   9.224  42.319   4.149
96268W        W55771  10.265  34.049   2.824
96269W        W55772   7.733   1.417  10.639
96270W        W55773  24.480   0.822  11.889
96271W        W55774  34.905   7.719  12.493
96272W        W55775  36.017  14.279   4.831
96273W        W55776  34.952   5.710  14.014
96274W        W55777  30.624   0.961  12.561
96275W        W55778  14.760  14.696  11.480
96276W        W55779   4.365  26.664   5.092
96277W        W55780   4.771  32.501   4.771
96278W        W55781  30.567  15.301   3.376
96279W        W55782  34.905  36.889  12.009
96280W        W55783   9.857  10.748   3.660
96281W        W55784   3.233  32.572   0.435
96282W        W55785  18.773  44.783   4.823
96283W        W55786  36.926  17.271   1.783
96284W        W55787   1.303  14.174   3.148
96285W        W55788  11.796  44.450  12.435
96286W        W55789   4.374   2.748   0.958
96287W        W55790  22.690  14.113  10.112
96288W        W55791  27.466  13.211   1.844
96289W        W55792  43.859   0.422   0.452
96290W        W55793  17.560  35.925  13.895
96291W        W55794  20.206  42.487  14.962
96292W        W55795  18.069  26.505   0.333
96293W        W55796  10.667  25.127  11.052
96294W        W55797  34.013   8.669   3.740
96295W        W55798  10.209  28.101   0.731
96296W        W55799   2.261  27.042  14.292
96297W        W55800  15.701   9.690  12.949
96298W        W55801  33.459  38.534  10.624
96299W        W55802  25.686  26.142  10.970
96300W        W55803  34.613  23.668   3.366
96301W        W55804   3.733  32.105   4.260
96302W        W55805  29.442  18.112   0.868
96303W        W55806  22.546  29.173  11.079
96304W        W55807  36.421  27.628  14.031
96305W        W55808  16.698   6.832   0.340
96306W        W55809  20.185  25.196   1.409
96307W        W55810  13.249  31.095  14.788
96308W        W55811   9.320  42.905   4.675
96309W        W55812  29.116  23.156   3.648
96310W        W55813  44.470  26.016  10.642
96311W        W55814  35.992  22.227   0.441
96312W        W55815  20.086  15.725   1.875
96313W        W55816  26.160  15.634   1.896
96314W        W55817   5.789   9.867  13.343
96315W        W55818   1.292  25.175  12.062
96316W        W55819  27.169   3.403   4.232
96317W        W55820  29.651  24.994   3.193
96318W        W55821  33.528  15.104   0.965
96319W        W55822   5.385  37.380   2.883
96320W        W55823   0.968   3.283   0.901
96321W        W55824  38.380  33.564  12.889
96322W        W55825  21.091  10.797   4.609
96323W        W55826   5.695  35.554   2.771
96324W        W55827  21.234  19.119   4.347
96325W        W55828  40.863  12.150  11.973
96326W        W55829   8.392  30.143   2.785
96327W        W55830   1.476  30.652  11.439
96328W        W55831  16.614  23.096   3.249
96329W        W55832  28.534  36.865   5.132
96330W        W55833  44.003   1.314  12.457
96331W        W55834  43.296  25.539   3.164
96332W        W55835  44.394  26.603   4.212
96333W        W55836  13.173  44.787   4.695
96334W        W55837  30.996   6.684   2.376
96335W        W55838  35.875  23.059  14.851
96336W        W55839  42.882  25.148  11.977
96337W        W55840  15.171   8.724  12.439
96338W        W55841  12.160  22.680  10.890
96339W        W55842  35.481  37.904   3.340
96340W        W55843  43.889  44.367  12.063
96341W        W55844  35.974  38.494   2.301
96342W        W55845  26.053  21.183  13.028
96343W        W55846  10.810   1.950   1.698
96344W        W55847  14.822  11.170   1.422
96345W        W55848  10.845  29.052   3.780
96346W        W55849  44.380  42.794  10.566
96347W        W55850  40.474  40.484   3.768
96348W        W55851  25.700  18.637  12.501
96349W        W55852  14.766  18.629  13.378
96350W        W55853  36.078  12.291  12.435
96351W        W55854   9.310  43.511   0.293
96352W        W55855  21.655   8.312   1.224
96353W        W55856  32.130  29.570   5.313
96354W        W55857  20.766  22.698   4.271
96355W        W55858  42.829  23.077  12.369
96356W        W55859  33.464  43.915  14.371
96357W        W55860  32.559   3.876   1.848
96358W        W55861  44.439  30.934  13.347
96359W        W55862   5.313  43.493   5.776
96360W        W55863   2.781   8.294  11.968
96361W        W55864  38.925  37.546  12.904
96362W        W55865  42.324  27.515  11.936
96363W        W55866  40.473  12.653   3.197
96364W        W55867  40.857  40.827  12.505
96365W        W55868  17.192  29.980  13.534
96366W        W55869   1.300  21.728  14.960
96367W        W55870  33.115   6.882   0.848
96368W        W55871   7.335   3.340   3.776
96369W        W55872   3.434  10.861   0.799
96370W        W55873  17.729  31.550   3.776
96371W        W55874  39.390   7.675  12.554
96372W        W55875  19.154  44.402   3.724
96373W        W55876  12.157  10.324  10.531
96374W        W55877  26.515  18.660  12.984
96375W        W55878   1.334  30.020  11.928
96376W        W55879   9.832  34.424  12.049
96377W        W55880  12.150   3.328   2.676
96378W        W55881  18.642  20.661   2.217
96379W        W55882   9.657  17.672  12.888
96380W        W55883   8.390  29.939   2.302
96381W        W55884  31.551   1.749   1.354
96382W        W55885  13.818  28.676  12.079
96383W        W55886  42.822   3.426   3.832
96384W        W55887  29.951   2.343  14.810
96385W        W55888  39.357   1.336  11.486
96386W        W55889   2.878  22.164   1.373
96387W        W55890  10.189  10.678  10.624
96388W        W55891  19.218  35.959  12.872
96389W        W55892  37.493   0.801   4.702
96390W        W55893  20.188  17.151   2.325
96391W        W55894   8.854  31.081  11.059
96392W        W55895  39.324  13.172   4.232
96393W        W55896  35.573  10.307  10.580
96394W        W55897  16.074   7.893   2.796
96395W        W55898  42.998   0.852   1.839
96396W        W55899  24.528  37.366  14.286
96397W        W55900   1.440   3.406  10.058
96398W        W55901  15.629  36.092  10.596
96399W        W55902  38.381  19.221  12.352
96400W        W55903   7.205  41.340  10.972
96401W        W55904  18.627  33.480   4.228
96402W        W55905  39.904  32.899  12.529
96403W        W55906  31.518  19.565   2.316
96404W        W55907  41.410  29.502  14.901
96405W        W55908  44.399  26.703   3.785
96406W        W55909  10.702  12.767   5.158
96407W        W55910  32.992  37.413  13.365
96408W        W55911  23.998   4.743   3.383
96409W        W55912  21.189   1.806  10.137
96410W        W55913   8.697  37.050   3.252
96411W        W55914  25.512  28.448   0.959
96412W        W55915  23.599   4.929  13.005
96413W        W55916   0.799  13.795   1.707
96414W        W55917   2.327   1.934  14.995
96415W        W55918   7.667  33.406  10.416
96416W        W55919  40.036  19.241   1.815
96417W        W55920  43.471   8.190   4.612
96418W        W55921   4.904  18.618   4.262
96419W        W55922  27.958  23.624   2.795
96420W        W55923  44.477  15.817   5.172
96421W        W55924  32.551  43.428   3.148
96422W        W55925  23.228   5.703   1.867
96423W        W55926   7.676   2.325  10.405
96424W        W55927  18.168  24.709  10.532
96425W        W55928   4.305   5.860  12.082
96426W        W55929  10.688  24.678  10.939
96427W        W55930  21.243  14.338  14.499
96428W        W55931  31.628  22.162   1.782
96429W        W55932  35.428   6.798   0.304
96430W        W55933  42.505  21.033  11.051
96431W        W55934  41.296  28.986  14.344
96432W        W55935  12.846   3.802  12.994
96433W        W55936   2.814  41.013  11.564
96434W        W55937  18.277   9.759   4.737
96435W        W55938  39.434  26.022  10.631
96436W        W55939  19.697   1.803   4.815
96437W        W55940  17.203  26.563  14.294
96438W        W55941  39.380  22.221  14.338
96439W        W55942  25.147  37.937   4.810
96440W        W55943  41.499  29.556  13.803
96441W        W55944  31.586  18.276  14.467
96442W        W55945   6.869  17.704  14.778
96443W        W55946  35.060   4.329   3.256
96444W        W55947  16.575  20.661  14.995
96445W        W55948   0.324  41.380   2.714
96446W        W55949  10.694   5.746  13.350
96447W        W55950  11.276  35.423   0.821
96448W        W55951  41.857  31.958   1.243
96449W        W55952  24.601  42.457   1.393
96450W        W55953  44.960   3.407  12.535
96451W        W55954   7.402  18.211   0.836
96452W        W55955  29.610   8.705  13.369
96453W        W55956   1.740  17.612  14.963
96454W        W55957  17.720  36.063   2.326
96455W        W55958  11.695   1.444   1.844
96456W        W55959  20.684  35.877  11.056
96457W        W55960   0.345   9.699  12.087
96458W        W55961  17.284  34.107  13.507
96459W        W55962  18.634  13.192   3.853
96460W        W55963  29.553  30.478  14.334
96461W        W55964  10.213  24.045   3.697
96462W        W55965  21.149  32.032  11.890
96463W        W55966   6.754  12.183  11.962
96464W        W55967  44.273  35.552  11.958
96465W        W55968   9.334  39.006   0.748
96466W        W55969  27.534  31.082  11.881
96467W        W55970  43.351  31.112   2.789
96468W        W55971  41.941  14.683   1.445
96469W        W55972  26.655  23.639  13.979
96470W        W55973   4.824  23.028  10.952
96471W        W55974  14.208   9.861   0.924
96472W        W55975  30.012  24.976   2.327
96473W        W55976  21.556  17.768   1.405
96474W        W55977  16.260  29.614   4.121
96475W        W55978  34.064  19.730  14.402
96476W        W55979  39.998   2.416  14.797
96477W        W55980   4.788  16.251   2.355
96478W        W55981  26.477  25.506   2.896
96479W        W55982  12.645  22.995   0.918
96480W        W55983  40.842  11.810   4.690
96481W        W55984  33.572  14.214  11.003
96482W        W55985   3.829  33.485   1.348
96483W        W55986  35.437  42.285   3.216
96484W        W55987  43.784  32.536  11.890
96485W        W55988   1.831  14.795  13.051
96486W        W55989  39.056  20.149   2.737
96487W        W55990  13.222   2.911  14.836
96488W        W55991  33.000   1.898  12.345
96489W        W55992  28.982   8.263   3.237
96490W        W55993   5.885  42.949  14.310
96491W        W55994   1.897  17.644   0.475
96492W        W55995  27.151  26.656  14.995
96493W        W55996  33.975  30.515  13.004
96494W        W55997  41.914  10.845  14.904
96495W        W55998  41.465  43.818   2.271
96496W        W55999  24.143  21.136  12.395
96497W        W56000  31.945  30.096   4.250
96498W        W56001  18.588  22.527  14.967
96499W        W56002  23.181  25.082  14.506
96500W        W56003  11.212  28.568  13.883
96501W        W56004  34.469  42.779   1.269
96502W        W56005  39.981  23.139  10.955
96503W        W56006  38.400  43.966  12.899
96504W        W56007  13.662   5.421   1.244
96505W        W56008  17.274  42.795   2.773
96506W        W56009  40.851  18.568  11.886
96507W        W56010   0.479  29.930   1.794
96508W        W56011  18.715  20.269   3.296
96509W        W56012  32.552  44.848   0.763
96510W        W56013  10.779  18.749  11.000
96511W        W56014  17.100  36.073  14.474
96512W        W56015  20.135  33.564   1.364
96513W        W56016  12.730  30.613  10.531
96514W        W56017   7.397  30.932   1.703
96515W        W56018   8.251  26.160  14.817
96516W        W56019  31.462  10.378  13.457
96517W        W56020   9.692  42.969   3.269
96518W        W56021  11.857  33.111  13.963
96519W        W56022   5.337  17.645  11.892
96520W        W56023  16.290  38.516  10.947
96521W        W56024  41.388   7.896  14.917
96522W        W56025  37.915  11.655  11.057
96523W        W56026  14.163  16.121  14.966
96524W        W56027   3.226   5.267   4.835
96525W        W56028   1.356  25.192  13.809
96526W        W56029   3.219  13.330  13.434
96527W        W56030  28.017  10.849  14.506
96528W        W56031   3.229  26.177   4.280
96529W        W56032  20.092   0.256   9.977
96530W        W56033  40.896  36.406   1.743
96531W        W56034   3.881   9.887  12.569
96532W        W56035  39.034   8.770  12.032
96533W        W56036  42.024  14.146   1.912
96534W        W56037  39.439  35.456  14.326
96535W        W56038  11.329  24.725   3.285
96536W        W56039  33.596  42.469   3.699
96537W        W56040   1.826  19.677   4.341
96538W        W56041  23.683   3.952   4.668
96539W        W56042  28.112  17.225   0.858
96540W        W56043   5.201  25.487   4.695
96541W        W56044  42.864   7.879  11.485
96542W        W56045  13.625  20.054  14.399
96543W        W56046  37.037  10.819   4.195
96544W        W56047  38.554  24.130  11.882
96545W        W56048  10.667   6.855  12.482
96546W        W56049  28.574   3.813  12.917
96547W        W56050  19.689  36.460  12.534
96548W        W56051  31.466  30.595  11.580
96549W        W56052  28.068  21.549   4.160
96550W        W56053  43.896   9.753  14.853
96551W        W56054  17.168  27.038   1.723
96552W        W56055  38.055  21.063   3.266
96553W        W56056  16.763  28.503   4.692
96554W        W56057  33.039  32.102  14.289
96555W        W56058  43.362  24.653   3.332
96556W        W56059  30.439   8.712   3.189
96557W        W56060  41.834   0.868   2.305
96558W        W56061  44.426  25.486   3.721
96559W        W56062  17.086   0.750   1.411
96560W        W56063   4.885  25.965  11.439
96561W        W56064   1.879  18.119   2.345
96562W        W56065   1.470  19.181   1.257
96563W        W56066  32.542  37.929   0.931
96564W        W56067  25.540  17.597   2.275
96565W        W56068  25.166  37.415   3.784
96566W        W56069  22.231  16.256   4.174
96567W        W56070  26.207   2.276  12.880
96568W        W56071   4.303  17.287  10.031
96569W        W56072  36.012  10.795  11.948
96570W        W56073  34.016  19.245  13.831
96571W        W56074   5.839  21.591  14.889
96572W        W56075  31.466  11.260   1.427
96573W        W56076   8.782  25.609  10.497
96574W        W56077  35.079  33.520  14.871
96575W        W56078  19.542  36.936   3.197
96576W        W56079  36.378  26.675   1.827
96577W        W56080  17.118  19.097   4.221
96578W        W56081  36.856  34.435   2.728
96579W        W56082  11.306  14.121  14.968
96580W        W56083  32.635  36.915   2.194
96581W        W56084  39.366   4.409   1.320
96582W        W56085  13.826  28.626   2.328
96583W        W56086   1.854  11.165   3.765
96584W        W56087  21.574  38.906   1.217
96585W        W56088   7.724   0.256   2.696
96586W        W56089   9.237  40.536  11.555
96587W        W56090  13.309  38.493  13.373
96588W        W56091  19.625  40.017  11.896
96589W        W56092  13.139  19.152   3.782
96590W        W56093  20.595   5.858  10.599
96591W        W56094  32.516  44.320  14.354
96592W        W56095  34.886  31.007  13.458
96593W        W56096  16.594  14.710  11.409
96594W        W56097   4.230  32.887   4.178
96595W        W56098   3.861  16.703   1.777
96596W        W56099  18.120  18.275  11.376
96597W        W56100  43.789  14.771   0.818
96598W        W56101  12.263  15.313  13.027
96599W        W56102  35.926  34.039   2.790
96600W        W56103   3.737   8.170   1.262
96601W        W56104   6.914  21.748   3.253
96602W        W56105  30.600  38.020  10.580
96603W        W56106  41.973  22.104   4.817
96604W        W56107   2.311  17.083  14.793
96605W        W56108  11.206  36.557  14.924
96606W        W56109   1.444  13.314   2.670
96607W        W56110  26.208  35.421   1.827
96608W        W56111  28.028  13.186   1.813
96609W        W56112  19.694  18.752  10.965
96610W        W56113  40.354  34.490   3.341
96611W        W56114   4.925  14.729   3.827
96612W        W56115  43.011  30.977   1.935
96613W        W56116  26.969  22.155   1.318
96614W        W56117  27.486  16.810   1.920
96615W        W56118  20.587  26.562  13.332
96616W        W56119  24.012  25.211   4.640
96617W        W56120  27.566  37.363   4.237
96618W        W56121  26.621  17.710   4.660
96619W        W56122   2.734  31.921  11.021
96620W        W56123  43.496  35.973   1.763
96621W        W56124  22.070   0.261   0.773
96622W        W56125  38.888  39.354  11.511
96623W        W56126  13.153  37.361   1.891
96624W        W56127  41.494  11.283  14.005
96625W        W56128  23.143   1.382  12.933
96626W        W56129  23.592  39.940  10.465
96627W        W56130   0.867  36.407  12.966
96628W        W56131  35.567  38.375   5.304
96629W        W56132  17.701  18.204  11.119
96630W        W56133   5.828  24.716  12.950
96631W        W56134  23.148  37.440  11.509
96632W        W56135  36.019  24.505   4.695
96633W        W56136   2.926  17.624  13.854
96634W        W56137  25.086  29.663   0.422
96635W        W56138  20.727  11.289  11.054
96636W        W56139  42.971  10.703  14.814
96637W        W56140  40.915  41.979   1.888
96638W        W56141  21.715   5.700   4.140
96639W        W56142  11.769  42.956  14.992
96640W        W56143  27.561   3.844  14.456
96641W        W56144   5.715  11.759   4.215
96642W        W56145  22.035  25.650  12.023
96643W        W56146  16.628  42.911   1.813
96644W        W56147  24.203  28.128  13.964
96645W        W56148  22.070  17.125  11.920
96646W        W56149  38.836  20.043   9.921
96647W        W56150  42.863  23.560  11.475
96648W        W56151  32.510  22.565  13.945
96649W        W56152  15.594   7.348  11.932
96650W        W56153  23.076  28.546   0.317
96651W        W56154   6.803  35.072  12.967
96652W        W56155  32.122  17.682  11.912
96653W        W56156  25.086  40.798  12.408
96654W        W56157  19.554  22.513   3.364
96655W        W56158   7.896  22.147  10.435
96656W        W56159   0.359  23.030   3.727
96657W        W56160  16.142  12.793   2.867
96658W        W56161  30.098  25.081  11.966
96659W        W56162  28.574  14.670  11.018
96660W        W56163  24.086  37.462   0.462
96661W        W56164  11.674  34.457   4.261
96662W        W56165   8.236  40.380   1.817
96663W        W56166  44.963  41.035  13.826
96664W        W56167   3.247   2.838   0.818
96665W        W56168   8.803   1.864  10.926
96666W        W56169  37.472   1.417   2.313
96667W        W56170  31.485  42.284  14.373
96668W        W56171   5.347   7.789  11.580
96669W        W56172  10.700   0.374   5.257
96670W        W56173   7.275   5.215   0.965
96671W        W56174  26.094  37.985   3.871
96672W        W56175  24.063   5.883  10.417
96673W        W56176   4.923  29.519  12.362
96674W        W56177  42.993   4.943   2.230
96675W        W56178  35.952  35.032  13.486
96676W        W56179   7.768   8.289  11.377
96677W        W56180  32.633   8.846  12.012
96678W        W56181  20.751   1.259  11.905
96679W        W56182  34.448  18.057  11.030
96680W        W56183  23.011  17.722  11.561
96681W        W56184  40.879  28.440   4.819
96682W        W56185  38.474  28.931   1.825
96683W        W56186  44.943  13.175   2.788
96684W        W56187  43.822  12.362  13.892
96685W        W56188  16.210  13.333  12.910
96686W        W56189  18.133   7.740   2.224
96687W        W56190   6.332  10.675   2.731
96688W        W56191  32.440  31.079   0.929
96689W        W56192  24.059  13.653   1.370
96690W        W56193   6.320  16.122  10.891
96691W        W56194  23.503  32.069  10.443
96692W        W56195   0.872  15.704   9.977
96693W        W56196  14.826  11.156  13.950
96694W        W56197  34.112  30.121  14.812
96695W        W56198  35.523  28.118  11.543
96696W        W56199   4.704  10.183  13.497
96697W        W56200  31.128  29.139   3.788
96698W        W56201   9.285  41.409   2.888
96699W        W56202  25.110  14.207   4.313
96700W        W56203   3.332  26.068   1.302
96701W        W56204  43.378  40.354  11.110
96702W        W56205  12.686  22.173   3.784
96703W        W56206   6.348  31.469  13.339
96704W        W56207  27.607  14.744   2.716
96705W        W56208  30.603  12.241  14.445
96706W        W56209   3.858  15.619  14.493
96707W        W56210  22.240  39.392  11.052
96708W        W56211   4.773  24.656  11.603
96709W        W56212  20.104  35.950  13.375
96710W        W56213  21.623  34.002   4.619
96711W        W56214  17.244  43.399   1.912
96712W        W56215  43.937   5.865   3.254
96713W        W56216  21.237  40.891  11.861
96714W        W56217   7.195   2.837   0.340
96715W        W56218  29.657  25.590   3.828
96716W        W56219  37.988  26.698   4.809
96717W        W56220  10.210  31.919  11.021
96718W        W56221  27.185   8.216  13.408
96719W        W56222  44.325   0.400  13.903
96720W        W56223   0.284  39.336   0.478
96721W        W56224  26.487  33.080  12.887
96722W        W56225  16.676  44.768  11.056
96723W        W56226  13.668  44.846  10.907
96724W        W56227  20.178  41.452  10.449
96725W        W56228  34.441  14.109  13.395
96726W        W56229  42.504  21.534  13.799
96727W        W56230  43.378  28.585  14.401
96728W        W56231  41.037   4.843  11.036
96729W        W56232  22.500  40.884  11.041
96730W        W56233  33.386  20.585   0.351
96731W        W56234  35.595  42.488  14.317
96732W        W56235  35.019   1.482  11.467
96733W        W56236  12.746  24.042  14.964
96734W        W56237  28.476  26.578   0.337
96735W        W56238  20.735  33.505  14.882
96736W        W56239  36.844   1.758  11.596
96737W        W56240   1.361  19.180   4.809
96738W        W56241   3.241  20.728   0.887
96739W        W56242   6.363   7.907  10.989
96740W        W56243  41.466  40.488   4.778
96741W        W56244  14.751  10.832  10.902
96742W        W56245   6.382  20.216  12.500
96743W        W56246   9.339  30.473  10.431
96744W        W56247  13.601  37.564   2.794
96745W        W56248  16.727  21.730  11.538
96746W        W56249  20.530  39.974  10.914
96747W        W56250  17.637  27.048   4.618
96748W        W56251   7.173   0.849   0.826
96749W        W56252  14.222  41.901  14.302
96750W        W56253  30.631  14.659   0.323
96751W        W56254  29.992  14.164  12.063
96752W        W56255  28.991  29.175   4.294
96753W        W56256  38.535  16.728   2.869
96754W        W56257  36.977  42.473   1.344
96755W        W56258  12.302  20.728  14.999
96756W        W56259  23.555  44.784  10.994
96757W        W56260  11.185  41.827   1.920
96758W        W56261  13.760  36.929  11.035
96759W        W56262   4.341  39.441   3.832
96760W        W56263  35.953  44.001  13.972
96761W        W56264  20.552  16.270   0.345
96762W        W56265   7.281  32.482   2.337
96763W        W56266  36.495  34.389  11.602
96764W        W56267  16.708  15.793   0.860
96765W        W56268  33.004  22.012   4.336
96766W        W56269  30.134  44.818  14.833
96767W        W56270   6.327  19.233   2.749
96768W        W56271  15.581   9.681   2.740
96769W        W56272  39.831  11.729  11.575
96770W        W56273  25.010  23.620   2.258
96771W        W56274  16.675  40.814  12.466
96772W        W56275   9.817   8.900   1.718
96773W        W56276  43.982  18.769   2.346
96774W        W56277  19.255   6.730  11.959
96775W        W56278  32.419   6.367   0.888
96776W        W56279  10.210   9.852  14.826
96777W        W56280  11.810   7.872  13.412
96778W        W56281   2.874  40.368   4.137
96779W        W56282   2.341  31.071   0.779
96780W        W56283  23.672  17.235  13.547
96781W        W56284  28.945  32.036   1.702
96782W        W56285  40.337  13.274   0.326
96783W        W56286  16.798  26.052  13.338
96784W        W56287  12.332  17.687   1.451
96785W        W56288   1.792  17.223   3.249
96786W        W56289  42.929  43.764  11.947
96787W        W56290  18.069  29.522   2.698
96788W        W56291  41.890  42.309  11.533
96789W        W56292  26.487  39.892   4.764
96790W        W56293  38.071  41.869  11.599
96791W        W56294  29.527  14.660   2.356
96792W        W56295  43.934  21.512   4.165
96793W        W56296  41.405   3.874  11.865
96794W        W56297   4.282  39.419   4.706
96795W        W56298  40.533  28.154  10.015
96796W        W56299  41.511  32.116   3.214
96797W        W56300  13.835  26.977  13.906
96798W        W56301  40.450  35.546  11.891
96799W        W56302  38.444   7.310  10.953
96800W        W56303   4.327  25.134  10.637
96801W        W56304   9.160   9.744  12.381
96802W        W56305   3.847  16.207   3.795
96803W        W56306  43.426  11.662  14.891
96804W        W56307  19.226   2.432   3.726
96805W        W56308  13.729  21.062   0.767
96806W        W56309  24.982  34.378  14.361
96807W        W56310  37.835  13.272  10.531
96808W        W56311  23.216  24.649   1.706
96809W        W56312   5.256  13.780   0.441
96810W        W56313  33.926  25.543   0.242
96811W        W56314  20.757  43.003   2.737
96812W        W56315  30.606  44.769  14.332
96813W        W56316  14.737  20.273  13.901
96814W        W56317  26.517   7.857   0.897
96815W        W56318  36.458  25.602  12.038
96816W        W56319  34.903  24.170  12.536
96817W        W56320  10.674  34.568   3.690
96818W        W56321   5.256  29.448  12.932
96819W        W56322  21.714  38.871  14.413
96820W        W56323  36.586   3.312  11.590
96821W        W56324  27.487  38.491  13.035
96822W        W56325  29.601  13.132  12.505
96823W        W56326  27.536   3.296   2.802
96824W        W56327  40.496  37.905  12.877
96825W        W56328  40.851  37.446   1.728
96826W        W56329  30.440  17.580  13.989
96827W        W56330  39.391  16.266   1.417
96828W        W56331  41.984   8.828   0.367
96829W        W56332  31.963  22.164   2.197
96830W        W56333  14.665  16.758  10.923
96831W        W56334  29.666  30.656   2.811
96832W        W56335  28.677  19.235  11.006
96833W        W56336   1.244  34.446   0.370
96834W        W56337  27.966   0.786   1.901
96835W        W56338  20.180  12.291   2.825
96836W        W56339  28.539  30.160  12.838
96837W        W56340   7.727  26.138  12.036
96838W        W56341  42.483  43.837   3.334
96839W        W56342  41.410  35.911   3.352
96840W        W56343  35.511  33.407   4.242
96841W        W56344  10.209  12.776   1.261
96842W        W56345  35.909  41.958  14.981
96843W        W56346  15.730  35.932  14.394
96844W        W56347  18.064  13.727   0.399
96845W        W56348  10.857  40.424  12.922
96846W        W56349  33.956  29.446   2.714
96847W        W56350  14.182  15.736   3.640
96848W        W56351   4.242  42.408   0.367
96849W        W56352  31.584  20.183   3.816
96850W        W56353  12.718  43.482   0.375
96851W        W56354  24.683   7.191  13.881
96852W        W56355  14.827  24.516  10.932
96853W        W56356  36.411  12.703  10.113
96854W        W56357   5.399  44.383   0.937
96855W        W56358  27.975   5.410  12.390
96856W        W56359   0.362  33.432   0.775
96857W        W56360  36.544   2.291  10.476
96858W        W56361  37.849  43.955   1.295
96859W        W56362  39.912  42.514   3.649
96860W        W56363  26.969  39.903  12.889
96861W        W56364  35.889   6.396  13.027
96862W        W56365  20.251  19.673   4.672
96863W        W56366  29.070  37.371   4.719
96864W        W56367  39.320   0.819  14.817
96865W        W56368  41.913   6.723  12.823
96866W        W56369  37.474  11.628  13.524
96867W        W56370  34.532  28.445   5.686
96868W        W56371  19.771  20.595   4.802
96869W        W56372   3.868   0.460  12.387
96870W        W56373  37.485   4.242   2.383
96871W        W56374  40.975   7.797   0.771
96872W        W56375   9.863  20.627  14.344
96873W        W56376  36.076  25.593   0.874
96874W        W56377  43.865   1.743   1.363
96875W        W56378  10.848  31.418   1.935
96876W        W56379  27.457  14.201  14.509
96877W        W56380  34.434  11.287  11.973
96878W        W56381  21.191  27.524  10.643
96879W        W56382  25.671  26.962  11.508
96880W        W56383  39.491  14.722   3.868
96881W        W56384  22.164  43.428   2.889
96882W        W56385  18.170  39.317  14.465
96883W        W56386  22.996   4.271  11.566
96884W        W56387  18.685  28.159   3.843
96885W        W56388   1.373  35.060  12.030
96886W        W56389   8.659   9.328   1.890
96887W        W56390  36.593  24.690   3.215
96888W        W56391   1.799  36.467  13.867
96889W        W56392  17.200  19.278  12.882
96890W        W56393  22.026  42.778   2.326
96891W        W56394  35.955  37.942  11.418
96892W        W56395   4.447  12.700   2.887
96893W        W56396  23.494  41.374  12.953
96894W        W56397  23.990  27.603  14.370
96895W        W56398   7.806  23.038  13.970
96896W        W56399  22.191  26.142  11.512
96897W        W56400  37.850   0.908   4.286
96898W        W56401  11.157   5.412  11.507
96899W        W56402  14.789   8.887  14.799
96900W        W56403  35.012   5.746   0.959
96901W        W56404  28.561  20.200  13.510
96902W        W56405   6.916  11.654   3.647
96903W        W56406  27.150  37.899   2.845
96904W        W56407  20.768  42.518   0.805
96905W        W56408  11.336  23.731   1.792
96906W        W56409  11.683   6.224  14.969
96907W        W56410  14.242  14.179  11.127
96908W        W56411   2.808  20.638   4.354
96909W        W56412  11.642  18.645  11.923
96910W        W56413  39.849  42.853   4.738
96911W        W56414   7.741  35.926   5.260
96912W        W56415  33.539  44.819   0.840
96913W        W56416   5.196  34.574  14.377
96914W        W56417   0.283  21.691   3.687
96915W        W56418  10.852  12.658   2.385
96916W        W56419   4.815  28.490  14.842
96917W        W56420  44.908   9.783  12.848
96918W        W56421  39.473   5.326  13.810
96919W        W56422  10.325   9.773   1.823
96920W        W56423  18.630   2.739   2.781
96921W        W56424  38.886   0.371   5.277
96922W        W56425  17.697  19.121   3.152
96923W        W56426   2.422  24.975   3.240
96924W        W56427  18.113   9.821   4.286
96925W        W56428  32.918  12.685  10.541
96926W        W56429  12.779  21.686  13.814
96927W        W56430  10.207   3.897  11.075
96928W        W56431  14.263  15.799  14.016
96929W        W56432   1.329  42.348  14.789
96930W        W56433  42.494  41.488   0.427
96931W        W56434  11.141  27.455  13.812
96932W        W56435  17.232  15.130  12.917
96933W        W56436  41.506   9.811   3.674
96934W        W56437   3.388  34.935  13.307
96935W        W56438   6.303   4.313  11.439
96936W        W56439   4.407  28.456   3.248
96937W        W56440  15.666  42.810  10.500
96938W        W56441  10.367  13.131  14.389
96939W        W56442   7.721  10.873   2.890
96940W        W56443  25.577  10.170   0.285
96941W        W56444  33.903  13.621  10.569
96942W        W56445  43.772  37.014  10.462
96943W        W56446   6.860   2.950  13.011
96944W        W56447  16.596  20.530  12.947
96945W        W56448  43.472   8.672   4.301
96946W        W56449  37.452  28.459   1.307
96947W        W56450  38.866  12.808  12.949
96948W        W56451   4.301   6.751   4.256
96949W        W56452  11.848  40.493   3.698
96950W        W56453  14.707  10.262   2.355
96951W        W56454  32.452  31.646   4.810
96952W        W56455   2.866  14.740   2.688
96953W        W56456   9.326  17.580  14.929
96954W        W56457   9.377  37.970   3.816
96955W        W56458  20.564  16.804  12.924
96956W        W56459  11.760  20.646   2.797
96957W        W56460  32.491   7.354  12.347
96958W        W56461  44.950  29.039  11.406
96959W        W56462  13.809  43.332  12.425
96960W        W56463   4.700   4.427  11.048
96961W        W56464  34.607  23.998  12.018
96962W        W56465  39.905   4.394  11.033
96963W        W56466   0.918  16.296  14.477
96964W        W56467  42.942  37.558   0.958
96965W        W56468  23.123  39.846  11.433
96966W        W56469   9.221  35.085  13.967
96967W        W56470  23.514  27.168   0.346
96968W        W56471   8.895   3.931   1.854
96969W        W56472  31.103  21.030  12.990
96970W        W56473  34.599  17.258   1.904
96971W        W56474  36.570   6.236   2.703
96972W        W56475   8.236  36.970   1.287
96973W        W56476  42.027  17.138   1.216
96974W        W56477  12.741  44.330   4.202
96975W        W56478  43.463  40.824   3.653
96976W        W56479  44.945  35.927   1.829
96977W        W56480  41.396  28.983   2.215
96978W        W56481   0.959   7.878  13.003
96979W        W56482   6.741  14.834  12.036
96980W        W56483   2.367  43.301  13.418
96981W        W56484  22.662  38.327  11.506
96982W        W56485  37.911  18.293   3.258
96983W        W56486   9.245  11.127  11.414
96984W        W56487   0.281  38.970  14.478
96985W        W56488  42.393   2.405   4.160
96986W        W56489  41.457  21.547  14.781
96987W        W56490  21.547  27.591  10.945
96988W        W56491  12.682  36.041   0.843
96989W        W56492  28.144   1.302  14.278
96990W        W56493  26.497  26.032  12.381
96991W        W56494  41.327  21.170  13.525
96992W        W56495  20.604  22.513   3.685
96993W        W56496  13.735  36.960   4.244
96994W        W56497  17.118   8.376  12.402
96995W        W56498   6.851  27.120  13.835
96996W        W56499  12.739  23.039   4.176
96997W        W56500  27.080   4.941  13.525
96998W        W56501  17.272   1.281  12.909
96999W        W56502   7.882  40.398  10.506
97000W        W56503  29.535   4.854   3.781
97001W        W56504  44.829  19.055  13.889
97002W        W56505   7.808  16.647  13.309
97003W        W56506  44.460  22.632   2.805
97004W        W56507  18.552  27.052  11.914
97005W        W56508   5.276  30.445   3.808
97006W        W56509  14.218  34.051   2.252
97007W        W56510  37.363  35.077  14.018
97008W        W56511  28.464  27.057  13.930
97009W        W56512  39.959  25.125   2.759
97010W        W56513   2.305  40.417  14.778
97011W        W56514  28.550  30.948   2.259
97012W        W56515   6.382  10.332   2.718
97013W        W56516  12.328  44.306  12.390
97014W        W56517  35.077   3.291  11.494
97015W        W56518  34.986   7.865   3.795
97016W        W56519  34.374  39.029  13.415
97017W        W56520  28.154  21.569   2.887
97018W        W56521   6.343  11.184  11.986
97019W        W56522  33.049  21.589  13.054
97020W        W56523  17.119  40.964   3.148
97021W        W56524  38.992   2.414  12.367
97022W        W56525  25.663  31.461  14.791
97023W        W56526  24.984  20.132  10.454
97024W        W56527  39.913   9.711   3.843
97025W        W56528  17.276  32.129   4.347
97026W        W56529   0.750  19.070   4.177
97027W        W56530   7.239  19.062   3.207
97028W        W56531  31.580  13.158   2.233
97029W        W56532  29.562  11.856  14.916
97030W        W56533  28.595  28.531   3.708
97031W        W56534  27.687  42.993   1.315
97032W        W56535  24.685   6.372   3.775
97033W        W56536  30.600  17.657   3.777
97034W        W56537  16.307  23.203   1.287
97035W        W56538   2.919  20.164   3.214
97036W        W56539  37.061  24.173  10.910
97037W        W56540  40.039  15.672  11.599
97038W        W56541  14.648   9.677   2.790
97039W        W56542  18.691   3.843   1.894
97040W        W56543  31.459  42.909  13.791
97041W        W56544  33.912   0.811  14.466
97042W        W56545  14.151  24.635  12.411
97043W        W56546   4.321  12.849   4.641
97044W        W56547   9.884   0.919   2.708
97045W        W56548  23.691   2.880  11.004
97046W        W56549  28.528  10.177   0.432
97047W        W56550   8.800  22.735   2.296
97048W        W56551  25.701  13.686   2.383
97049W        W56552   4.408  26.540   4.787
97050W        W56553  41.441  30.495  12.915
97051W        W56554   1.812  29.927   1.909
97052W        W56555  25.563  38.493   4.183
97053W        W56556  43.880   1.241   2.732
97054W        W56557  30.041  42.950   3.295
97055W        W56558   9.223  18.199  11.974
97056W        W56559  44.352  30.063  11.091
97057W        W56560  30.631  14.210   0.407
97058W        W56561   2.257   3.782  12.873
97059W        W56562  16.200   0.778  12.096
97060W        W56563  15.668   6.753   0.847
97061W        W56564  36.570  25.560  14.347
97062W        W56565   4.396  23.548  11.077
97063W        W56566  33.894  25.082  13.484
97064W        W56567  11.265  41.921   4.696
97065W        W56568   0.836  22.607   3.854
97066W        W56569   9.224  19.229   5.216
97067W        W56570   5.706  37.552  14.409
97068W        W56571  43.385  24.553  11.459
97069W        W56572  19.118   2.330   4.782
97070W        W56573  24.079   5.886  11.543
97071W        W56574  40.814  28.575   1.699
97072W        W56575  32.474  33.126   1.743
97073W        W56576  41.324   7.342  10.430
97074W        W56577  43.929  39.912  14.005
97075W        W56578   1.761  33.493   2.662
97076W        W56579  39.961  21.243   4.254
97077W        W56580  36.015  15.194   4.722
97078W        W56581  26.638  44.007   1.239
97079W        W56582  15.629  12.719   2.280
97080W        W56583  41.514  44.855  11.063
97081W        W56584   0.397  26.202   2.829
97082W        W56585  30.072   0.806  14.017
97083W        W56586   6.821   0.257   9.935
97084W        W56587  27.008   6.410  13.366
97085W        W56588  24.193  32.014   1.755
97086W        W56589  19.238  37.831  11.985
97087W        W56590  15.210  25.189  12.502
97088W        W56591  36.904  11.707   1.916
97089W        W56592  42.446  21.658  14.937
97090W        W56593  16.622  35.896   1.757
97091W        W56594  31.992   2.374   0.804
97092W        W56595  33.972  26.695   3.153
97093W        W56596  32.522  35.075   4.746
97094W        W56597  34.918  20.737   0.743
97095W        W56598  20.723  15.261   3.660
97096W        W56599  15.110  30.043   2.899
97097W        W56600  31.619  31.123  13.487
97098W        W56601  23.719  39.330  14.318
97099W        W56602  29.156  33.994  10.447
97100W        W56603  30.959   5.798  12.084
97101W        W56604   9.326   2.402   2.673
97102W        W56605  29.154  28.440  14.901
97103W        W56606  17.723  26.954  10.894
97104W        W56607  37.395   4.860  10.927
97105W        W56608  27.598  20.575   4.233
97106W        W56609   9.846  34.011   3.683
97107W        W56610  38.996   5.406  12.944
97108W        W56611  31.075   3.307  11.421
97109W        W56612  37.027   0.358   1.421
97110W        W56613   8.310  37.504   4.636
97111W        W56614  27.103   6.304  11.923
97112W        W56615   9.224   4.868  14.400
97113W        W56616  10.341  22.132   3.681
97114W        W56617  38.041  33.103   2.293
97115W        W56618  37.491  22.629   4.260
97116W        W56619  26.004  31.116  11.879
97117W        W56620  25.589  32.503  11.525
97118W        W56621   4.706  26.464  14.962
97119W        W56622  18.167  31.520  14.862
97120W        W56623  20.578  19.277   1.897
97121W        W56624   2.872  23.646  14.779
97122W        W56625  37.920  27.026   4.272
97123W        W56626  21.615   5.746  13.921
97124W        W56627  42.919  16.772   2.370
97125W        W56628  29.575  24.071   4.219
97126W        W56629  34.904   4.897   2.234
97127W        W56630  26.534  17.187  11.505
97128W        W56631  32.615  24.179  13.459
97129W        W56632  33.455  10.198   2.273
97130W        W56633   3.760  24.048   4.146
97131W        W56634  35.956  16.587  14.393
97132W        W56635   9.329  39.467  12.532
97133W        W56636  35.949  33.914  10.991
97134W        W56637  31.522  31.030  12.875
97135W        W56638   8.332  29.579   3.764
97136W        W56639  22.573   5.330   1.312
97137W        W56640  10.877  20.159  10.447
97138W        W56641   9.184   7.904   4.249
97139W        W56642  39.809  22.205  10.518
97140W        W56643  32.443  38.934  14.021
97141W        W56644   3.320  30.458  14.506
97142W        W56645  43.484   4.700  12.467
97143W        W56646   8.226   3.795   2.778
97144W        W56647  15.771  42.812   0.306
97145W        W56648  22.121   7.404   4.202
97146W        W56649  20.137  32.418   2.339
97147W        W56650   2.869   3.914  11.891
97148W        W56651  20.137  22.553   0.774
97149W        W56652  28.115  22.517   4.138
97150W        W56653  36.446  37.496  10.554
97151W        W56654  32.957  10.844   4.148
97152W        W56655   9.851  42.816  12.059
97153W        W56656  31.074  39.336  12.963
97154W        W56657  22.184   8.255  13.967
97155W        W56658  13.192  41.919  11.527
97156W        W56659  17.265   5.824  12.057
97157W        W56660  11.742   7.879   3.161
97158W        W56661   8.687  16.607  12.968
97159W        W56662   4.758  23.676  12.413
97160W        W56663   6.746  30.613  11.987
97161W        W56664  27.498  17.656  11.125
97162W        W56665  29.032  30.494   2.799
97163W        W56666  34.909  21.116  10.040
97164W        W56667  27.945  16.262  14.912
97165W        W56668  28.669  31.030  14.959
97166W        W56669  21.030  26.179   5.292
97167W        W56670   4.835  35.543  14.775
97168W        W56671  16.714  29.597  14.789
97169W        W56672  28.096  25.212   4.142
97170W        W56673  44.873  30.464  11.460
97171W        W56674  19.183  38.446  12.891
97172W        W56675  35.860   9.252  13.896
97173W        W56676  44.803   6.388  13.464
97174W        W56677  26.701  11.818   0.312
97175W        W56678   9.662   4.405   0.873
97176W        W56679  16.607  37.913   2.372
97177W        W56680   5.834  19.594  11.409
97178W        W56681  33.027  22.527  13.368
97179W        W56682  35.855  24.135  13.435
97180W        W56683  23.597  41.387  13.954
97181W        W56684  24.545   2.797  14.360
97182W        W56685  32.984  13.306   2.830
97183W        W56686   3.913  33.882   1.316
97184W        W56687  19.652  37.460   1.818
97185W        W56688  24.606   4.309  11.091
97186W        W56689  29.009  31.080  14.846
97187W        W56690  21.737  30.128  12.947
97188W        W56691  31.465   3.426   3.268
97189W        W56692  21.140  22.211   3.731
97190W        W56693  15.113   0.895  12.444
97191W        W56694  22.148  25.017  10.605
97192W        W56695  35.054  41.817   2.850
97193W        W56696  13.761   5.275  11.471
97194W        W56697  38.548  37.856  10.904
97195W        W56698   5.900  42.494   2.882
97196W        W56699  42.390  20.035   0.447
97197W        W56700  37.454  27.989  14.874
97198W        W56701  18.558   2.429   5.189
97199W        W56702  32.571  36.864   1.876
97200W        W56703  41.429  14.190  14.321
97201W        W56704   9.725   1.915  10.518
97202W        W56705  19.776  28.060  12.536
97203W        W56706   4.933   4.449  13.873
97204W        W56707  43.370  25.108   3.205
97205W        W56708   7.890  32.949   2.309
97206W        W56709  14.762  38.983   4.254
97207W        W56710  34.895   0.789  10.438
97208W        W56711  35.389  13.214   3.657
97209W        W56712  44.913  16.295  11.001
97210W        W56713  22.556   3.938   1.770
97211W        W56714  41.326  16.113  13.527
97212W        W56715  27.621  20.765   2.264
97213W        W56716   1.464  24.500   3.348
97214W        W56717  28.097  13.781  13.931
97215W        W56718  26.085   3.256   0.755
97216W        W56719  35.503   0.810   1.369
97217W        W56720  33.002   3.839   1.328
97218W        W56721  39.385  27.662  12.965
97219W        W56722  32.908  10.871   2.837
97220W        W56723  16.751   9.882  13.036
97221W        W56724  36.052  15.241  11.019
97222W        W56725  16.798  12.158  11.377
97223W        W56726  32.046  15.677   1.402
97224W        W56727  28.659  31.994   0.863
97225W        W56728  30.053  32.081  11.427
97226W        W56729  30.056  20.056   3.277
97227W        W56730  14.229  27.070   2.849
97228W        W56731  28.592  39.387   1.712
97229W        W56732  32.073  13.139  12.880
97230W        W56733  29.166  11.372  14.782
97231W        W56734  43.866   4.728  10.408
97232W        W56735  41.016  13.759  14.465
97233W        W56736   4.378  33.897  12.087
97234W        W56737  32.946  21.074  14.780
97235W        W56738  13.192  19.669  14.868
97236W        W56739   3.740   3.724   0.364
97237W        W56740  16.720  33.435   3.223
97238W        W56741  35.598   7.175  14.015
97239W        W56742  23.033  34.605   2.288
97240W        W56743  38.065   1.408  14.799
97241W        W56744   6.867  11.351  12.075
97242W        W56745  12.250  29.473  14.880
97243W        W56746  36.006  40.023  13.400
97244W        W56747  37.898  38.996  10.948
97245W        W56748  32.897   5.420   3.851
97246W        W56749   3.893   8.863  13.819
97247W        W56750  40.459   8.324   2.244
97248W        W56751  30.092  29.510   2.313
97249W        W56752  41.002  35.081   0.828
97250W        W56753  23.607  15.581   4.834
97251W        W56754  33.955  33.990  14.844
97252W        W56755  21.044  22.111   2.313
97253W        W56756   5.726  22.165   3.688
97254W        W56757   8.820   0.812  11.494
97255W        W56758   1.341   5.287  13.510
97256W        W56759   0.792  40.805   3.807
97257W        W56760  12.159  27.667   1.741
97258W        W56761  39.406  22.188  13.318
97259W        W56762   8.262  10.263   1.273
97260W        W56763  28.955  33.927   4.337
97261W        W56764   7.851  19.670   3.740
97262W        W56765  43.875   0.283   2.849
97263W        W56766  30.474  20.260  11.519
97264W        W56767  39.830  22.571  10.640
97265W        W56768  42.306  14.148  14.821
97266W        W56769  26.503   6.390  14.817
97267W        W56770  14.737  36.435   1.257
97268W        W56771  17.193  14.768   4.754
97269W        W56772   5.255   8.841   2.310
97270W        W56773   5.893   8.202  14.514
97271W        W56774  37.878  42.398  11.984
97272W        W56775  20.145  39.374   1.362
97273W        W56776   2.256   9.844  14.784
97274W        W56777  14.654   9.319  12.035
97275W        W56778  35.991  17.179  13.968
97276W        W56779   7.237   9.320   3.733
97277W        W56780  10.322  37.914  12.016
97278W        W56781  24.067  24.046  14.995
97279W        W56782  40.332  18.202  11.897
97280W        W56783  11.746  32.049  12.050
97281W        W56784  23.508  27.058  14.935
97282W        W56785  43.509   5.414  11.964
97283W        W56786  30.609  35.521   3.721
97284W        W56787  16.145   1.259   4.219
97285W        W56788   2.833  13.272  14.812
97286W        W56789  19.644  27.086   2.769
97287W        W56790  22.510  32.580  11.398
97288W        W56791  42.994  31.122  12.418
97289W        W56792   6.423  15.751  14.901
97290W        W56793   0.919  28.020  13.945
97291W        W56794  39.816  27.587  11.979
97292W        W56795  44.838  25.218   3.383
97293W        W56796  31.142  13.256  12.362
97294W        W56797   3.784  39.866  11.010
97295W        W56798  13.836  11.746   2.367
97296W        W56799  11.359  21.234   3.654
97297W        W56800   6.367   1.319   4.667
97298W        W56801  11.774  23.639  13.504
97299W        W56802  11.350  36.520   1.803
97300W        W56803  33.459  12.828  11.017
97301W        W56804   7.884  37.849  13.011
97302W        W56805  22.600  29.138   4.244
97303W        W56806  27.181   2.872  11.479
97304W        W56807   9.878  34.378   3.170
97305W        W56808  33.622  12.651   5.139
97306W        W56809  28.943  28.062  10.555
97307W        W56810  33.410  43.853   1.304
97308W        W56811  40.882  27.635   4.350
97309W        W56812  12.660  11.127  14.465
97310W        W56813  36.945  35.530  12.063
97311W        W56814  22.094   8.171   4.728
97312W        W56815  42.898  14.658   5.113
97313W        W56816  42.797   7.765  12.846
97314W        W56817   7.804   4.283   0.378
97315W        W56818  24.170  19.115  13.940
97316W        W56819  40.827  19.746   4.251
97317W        W56820  12.827   1.919   3.726
97318W        W56821  37.535  16.758  11.499
97319W        W56822  22.179  20.258  12.831
97320W        W56823  24.089   3.452   1.374
97321W        W56824  29.131  22.046   0.300
97322W        W56825  12.324  24.163   4.312
97323W        W56826  12.712  38.329  12.984
97324W        W56827  30.651   4.852  12.426
97325W        W56828   5.422  44.763  12.936
97326W        W56829  23.240  36.530   0.939
97327W        W56830  42.777  42.894  14.862
97328W        W56831   3.749  27.137  11.537
97329W        W56832  22.026   3.414   3.252
97330W        W56833  33.480  42.480   4.630
97331W        W56834  23.489  28.994  11.498
97332W        W56835  27.089  28.446  10.510
97333W        W56836  36.084   4.721   2.337
97334W        W56837  33.130   7.229   1.440
97335W        W56838  33.038  12.149   2.829
97336W        W56839   7.814  19.603   1.428
97337W        W56840   9.356   5.930  14.943
97338W        W56841  28.006  44.893   4.708
97339W        W56842  41.944  13.838   1.350
97340W        W56843  38.931  34.937   2.300
97341W        W56844   5.328   3.311  11.522
97342W        W56845  28.458  18.579  14.397
97343W        W56846  25.519   1.325   2.325
97344W        W56847  44.770   2.370  14.947
97345W        W56848  36.067  34.467   3.708
97346W        W56849   1.357  14.204   1.929
97347W        W56850   8.799   7.352  12.872
97348W        W56851  29.494  20.569  13.455
97349W        W56852  33.466  28.584   0.921
97350W        W56853   2.277  19.077   9.487
97351W        W56854  25.620  28.176   2.804
97352W        W56855  35.407   1.365   0.866
97353W        W56856  19.185   9.719  11.606
97354W        W56857  37.033  23.557  11.093
97355W        W56858  41.515  26.625  13.914
97356W        W56859  21.153  32.925   5.284
97357W        W56860   9.384  20.604   2.798
97358W        W56861  40.046   6.897  14.382
97359W        W56862  42.783   8.709   0.348
97360W        W56863   6.879  41.940   3.733
97361W        W56864   9.307   7.773  12.875
97362W        W56865   2.330  18.661   3.295
97363W        W56866   3.263   3.854  14.848
97364W        W56867   6.848   1.820  14.512
97365W        W56868  41.451   5.379  10.974
97366W        W56869  23.071  44.453   4.168
97367W        W56870  31.470   2.327   1.862
97368W        W56871  17.249   5.852  14.411
97369W        W56872  34.117   2.296   1.703
97370W        W56873  21.540  36.399   3.695
97371W        W56874  33.086  12.645  14.291
97372W        W56875  19.658  23.149  11.413
97373W        W56876  10.354  11.345  13.545
97374W        W56877   3.321  40.429   3.720
97375W        W56878  23.163  24.579   4.308
97376W        W56879  43.454  34.109   3.156
97377W        W56880   5.803  27.517   3.680
97378W        W56881  12.268  34.939   1.299
97379W        W56882  43.817  34.379  14.764
97380W        W56883   7.697   2.288   5.256
97381W        W56884   0.861   3.328  11.023
97382W        W56885  13.782  34.027  14.818
97383W        W56886  10.663  13.767  10.952
97384W        W56887  37.517  32.486   2.227
97385W        W56888  27.657  40.906  12.537
97386W        W56889   2.815  44.426   4.158
97387W        W56890  40.393  10.285   1.335
97388W        W56891  32.576  21.533   2.346
97389W        W56892   3.917  12.774   3.232
97390W        W56893   3.302  39.010   5.273
97391W        W56894   6.275   0.988  14.499
97392W        W56895   2.890  30.565   3.740
97393W        W56896   6.897  23.686  11.602
97394W        W56897  13.615   4.441  12.078
97395W        W56898  29.097  24.621   3.731
97396W        W56899  32.566  11.775   3.791
97397W        W56900  32.452  41.387   0.795
97398W        W56901   1.868   7.350  13.487
97399W        W56902  20.604  33.027  13.928
97400W        W56903  12.842  40.869  10.563
97401W        W56904   3.761  39.467   2.787
97402W        W56905   2.373  10.301  12.416
97403W        W56906   6.333  10.756  11.457
97404W        W56907  20.564  11.282  12.851
97405W        W56908  24.027  15.608   4.271
97406W        W56909  11.330  27.651  12.351
97407W        W56910  10.859  33.950   2.790
97408W        W56911  15.590  42.411   0.335
97409W        W56912  30.643  19.624   3.774
97410W        W56913  41.506  24.603   2.686
97411W        W56914  30.104   3.231  14.288
97412W        W56915  21.625  21.048  10.605
97413W        W56916   5.275  11.738   2.734
97414W        W56917  36.941   7.205   0.469
97415W        W56918  24.041   7.677   0.415
97416W        W56919  14.235  37.349  10.513
97417W        W56920  32.112   6.868  11.043
97418W        W56921  30.508  23.618  12.411
97419W        W56922   8.776   4.288   9.936
97420W        W56923   3.859  21.573  11.412
97421W        W56924  15.767  11.621   4.642
97422W        W56925  17.790  20.709  13.851
97423W        W56926   9.881  41.476   2.276
97424W        W56927  33.052  14.660   9.960
97425W        W56928   2.868  14.155  14.951
97426W        W56929  13.332  27.468   2.382
97427W        W56930  41.392  33.949   0.448
97428W        W56931  16.213  25.109   5.193
97429W        W56932  31.640   7.864   0.441
97430W        W56933  26.518  38.333  11.569
97431W        W56934  38.984   3.835   3.774
97432W        W56935  43.492  10.261   0.952
97433W        W56936  37.554  42.378   0.953
97434W        W56937  32.128   6.848  14.407
97435W        W56938  10.860  43.780  11.934
97436W        W56939   6.882  42.317  11.416
97437W        W56940  34.908  42.329  10.547
97438W        W56941  35.449  13.351  12.356
97439W        W56942  15.716  32.902  13.477
97440W        W56943  36.981  35.435   0.338
97441W        W56944  25.183  17.062   0.871
97442W        W56945   9.761  34.901  12.424
97443W        W56946  13.670  15.150  11.421
97444W        W56947  13.281  38.073   3.683
97445W        W56948  41.534  16.127  12.550
97446W        W56949   7.284  12.779   2.257
97447W        W56950   9.735  39.023   0.787
97448W        W56951  31.899  29.554   4.319
97449W        W56952  38.441   9.300   2.763
97450W        W56953  17.120  21.217  11.463
97451W        W56954  27.558  23.034   3.741
97452W        W56955   1.243  20.618   5.222
97453W        W56956  36.476  11.361   4.143
97454W        W56957  38.492  27.660  12.429
97455W        W56958  20.682  18.148   1.790
97456W        W56959  12.225  44.962   0.963
97457W        W56960  18.272  33.034   4.255
97458W        W56961   1.952  13.839  11.482
97459W        W56962  14.756   4.397   2.787
97460W        W56963  12.707  15.743  11.501
97461W        W56964  12.812  26.039   0.369
97462W        W56965  26.509  37.070  14.313
97463W        W56966  20.681  35.548   1.812
97464W        W56967  23.141  39.324  14.897
97465W        W56968  14.752   5.340   0.481
97466W        W56969  22.141  27.577   4.786
97467W        W56970  11.166  16.579  14.012
97468W        W56971  33.112  21.620   0.312
97469W        W56972  44.815  35.399  12.519
97470W        W56973   1.403  32.917   2.407
97471W        W56974   4.226  14.647  10.633
97472W        W56975   2.801   9.315   1.776
97473W        W56976  19.668  26.070  12.957
97474W        W56977  15.798  31.104   3.273
97475W        W56978  16.658  29.113   4.262
97476W        W56979  14.329  41.940   3.198
97477W        W56980  11.856  19.756   3.839
97478W        W56981  17.583  18.677   2.408
97479W        W56982  29.571  35.361  13.348
97480W        W56983  19.680  21.261  13.794
97481W        W56984  16.791  19.213  11.928
97482W        W56985  43.013  21.144  10.523
97483W        W56986  10.322  10.176  10.087
97484W        W56987  29.952  12.259   1.400
97485W        W56988  11.657  41.389  10.921
97486W        W56989  31.573  28.633   4.259
97487W        W56990   3.800  14.611  14.792
97488W        W56991  39.974   2.954  12.405
97489W        W56992   9.804  27.007   4.826
97490W        W56993   5.841  18.638   2.240
97491W        W56994  13.830  31.985  11.489
97492W        W56995   3.384  12.294  12.467
97493W        W56996  19.063  18.748   2.858
97494W        W56997  29.655  19.591  11.968
97495W        W56998  34.081  15.087   3.714
97496W        W56999  44.438  35.582   4.130
97497W        W57000  10.678  31.544   3.771
97498W        W57001  19.702  43.825  14.510
97499W        W57002  31.633   9.199  14.412
97500W        W57003  35.109  35.942   4.249
97501W        W57004  32.127   4.425  13.916
97502W        W57005   0.447  19.701   1.865
97503W        W57006  33.461  36.998   3.829
97504W        W57007   3.731  36.357   1.277
97505W        W57008   6.702  37.079   4.126
97506W        W57009  28.550   0.869   0.296
97507W        W57010  35.002  12.611  14.858
97508W        W57011  36.590  11.643   1.860
97509W        W57012  39.932  18.151  14.459
97510W        W57013  32.483  10.221   1.840
97511W        W57014  30.493  29.468   5.617
97512W        W57015  36.003  30.141   0.410
97513W        W57016  10.867  12.724   0.743
97514W        W57017  22.079  16.706   1.414
97515W        W57018   2.827  41.926  10.459
97516W        W57019  44.435  33.420  10.609
97517W        W57020  20.260  28.014   1.697
97518W        W57021   7.897  20.108  12.481
97519W        W57022  40.900  19.160   1.377
97520W        W57023  20.548  34.115   0.330
97521W        W57024  27.600  32.904  14.030
97522W        W57025  43.766  43.434   0.896
97523W        W57026   0.279  17.255   0.369
97524W        W57027   6.858   1.747   4.289
97525W        W57028  14.680  12.653   1.364
97526W        W57029  26.514  26.477   2.709
97527W        W57030  19.605  37.888   4.815
97528W        W57031  10.862  13.120   3.221
97529W        W57032  18.221   1.743  13.336
97530W        W57033  41.916   7.846   0.481
97531W        W57034  21.742   6.333   4.164
97532W        W57035   1.883   2.723   4.776
97533W        W57036  32.460   7.413   0.298
97534W        W57037   1.396   3.450   0.815
97535W        W57038  14.270  34.372  11.871
97536W        W57039  13.600  44.778   2.824
97537W        W57040   6.715  24.494   0.360
97538W        W57041  26.050  31.499  11.939
97539W        W57042   9.753   6.821   1.386
97540W        W57043   9.823  44.851  10.477
97541W        W57044  38.522  35.402   4.759
97542W        W57045   4.232   0.304  12.870
97543W        W57046  11.272  35.400   3.285
97544W        W57047  44.377  29.074  10.940
97545W        W57048  27.946  19.666   1.392
97546W        W57049  12.737  35.460  10.572
97547W        W57050  16.721  16.644   3.644
97548W        W57051  30.050  10.795  10.453
97549W        W57052  41.833   1.925   0.888
97550W        W57053  11.646  17.734  14.830
97551W        W57054  20.198  12.703   2.338
97552W        W57055   9.350  16.092   3.215
97553W        W57056  29.029  43.370  11.593
97554W        W57057  15.318  21.666   4.725
97555W        W57058  17.716  33.047  14.923
97556W        W57059  27.470   9.164  14.965
97557W        W57060  38.482  29.442   2.754
97558W        W57061  34.379  42.819   4.194
97559W        W57062  39.951  40.803  12.936
97560W        W57063  40.382  22.636  10.566
97561W        W57064  16.655  21.034  10.432
97562W        W57065  44.339   4.760   3.222
97563W        W57066  36.906   8.276  14.975
97564W        W57067  21.710  14.608   2.747
97565W        W57068  43.864  12.246  12.021
97566W        W57069   5.912  38.842   0.808
97567W        W57070  30.063  34.473  13.934
97568W        W57071  16.198  40.376  13.381
97569W        W57072   1.422  17.689  10.536
97570W        W57073   7.852  35.868  14.761
97571W        W57074   3.823  26.114  11.864
97572W        W57075  25.702  30.031  11.591
97573W        W57076  38.450  29.003  10.997
97574W        W57077  41.295  24.510  14.029
97575W        W57078  14.133   5.311  12.363
97576W        W57079   4.857  11.301   1.891
97577W        W57080  19.123   6.744   4.266
97578W        W57081  13.290  37.480   2.318
97579W        W57082  30.444  15.812  11.609
97580W        W57083  42.004  44.279   1.272
97581W        W57084  33.417  10.360  14.806
97582W        W57085  15.713  43.015  11.857
97583W        W57086   2.373  18.138   3.170
97584W        W57087  15.136  23.734   4.182
97585W        W57088  40.828  10.154  13.995
97586W        W57089  31.561   8.667   2.291
97587W        W57090  13.790   7.670  14.026
97588W        W57091  32.113  33.119   4.763
97589W        W57092   6.771   8.318   4.226
97590W        W57093  39.543  36.076   2.299
97591W        W57094  30.988  23.211   4.239
97592W        W57095   5.346  44.934  13.933
97593W        W57096   8.366  32.569  11.559
97594W        W57097   3.378  22.693   2.853
97595W        W57098  15.231   6.232  13.394
97596W        W57099  24.113  32.008  11.429
97597W        W57100  29.937  41.412   4.305
97598W        W57101  41.959  13.790   2.332
97599W        W57102  12.180  16.139   1.771
97600W        W57103  41.951  40.988   1.396
97601W        W57104  30.126  40.517   1.406
97602W        W57105   0.421  12.764  12.831
97603W        W57106   4.342  24.623  13.959
97604W        W57107  41.909  16.738  11.982
97605W        W57108  31.915  17.243   2.184
97606W        W57109  10.703  37.444  12.946
97607W        W57110  18.558  12.239  12.915
97608W        W57111  14.098  33.998   2.713
97609W        W57112  10.802   4.442   3.638
97610W        W57113  30.974  24.003   2.722
97611W        W57114  12.663  37.995   4.191
97612W        W57115   3.734  31.598  10.619
97613W        W57116  17.612  11.812  13.042
97614W        W57117  22.542   6.712  13.949
97615W        W57118  23.578   6.287  14.026
97616W        W57119   9.783  43.940  10.543
97617W        W57120  29.007  27.605   0.958
97618W        W57121  20.534  19.580  10.913
97619W        W57122   0.905  34.522  10.448
97620W        W57123   5.345  18.057  11.970
97621W        W57124  15.321  38.468   1.724
97622W        W57125  12.246  25.974   3.821
97623W        W57126  17.306   3.449  13.033
97624W        W57127  22.517  11.635  13.885
97625W        W57128  17.083  41.518  14.457
97626W        W57129   7.864   7.868  11.386
97627W        W57130  16.808  17.754   4.835
97628W        W57131  36.007  40.976  13.029
97629W        W57132   2.297  40.525  12.518
97630W        W57133  15.203  24.486  14.836
97631W        W57134  17.657  25.186  13.920
97632W        W57135   3.302  40.461   2.741
97633W        W57136   1.404  29.987  12.890
97634W        W57137  43.873  26.075   2.670
97635W        W57138  30.065   4.761  10.556
97636W        W57139  17.144   6.412   3.790
97637W        W57140   7.250  35.474  10.966
97638W        W57141   6.869  32.505   0.936
97639W        W57142  20.127  24.142   0.773
97640W        W57143  21.083  23.650  13.946
97641W        W57144  28.020  10.684   3.854
97642W        W57145  30.434  40.508  11.058
97643W        W57146   9.181  13.665  13.938
97644W        W57147  22.182   5.296  14.870
97645W        W57148   3.264  15.690   0.905
97646W        W57149  37.516  12.223   0.334
97647W        W57150  17.249  42.796   5.127
97648W        W57151   4.728  37.869  14.908
97649W        W57152  16.580  34.442   0.903
97650W        W57153  33.960  17.165   2.366
97651W        W57154  43.863  34.509  12.462
97652W        W57155   2.775   0.254   9.967
97653W        W57156  21.520  36.862  14.815
97654W        W57157   1.276   8.772   4.140
97655W        W57158  15.621  21.063  10.987
97656W        W57159   4.429  29.487   2.899
97657W        W57160  14.115  16.182   0.372
97658W        W57161  18.143  21.236   0.881
97659W        W57162  40.454  38.876  10.428
97660W        W57163  33.604  44.352   0.480
97661W        W57164  39.313   9.679  12.935
97662W        W57165   4.316  27.042   2.735
97663W        W57166  15.691  34.017  10.553
97664W        W57167  17.266   8.844  14.441
97665W        W57168   7.802  40.406   1.286
97666W        W57169  24.979   4.793   3.190
97667W        W57170  30.651   5.823  11.951
97668W        W57171  27.145  24.028   3.358
97669W        W57172  26.076  23.092  11.395
97670W        W57173  30.061  30.998   1.911
97671W        W57174  25.160  10.754  13.469
97672W        W57175  10.142  41.302  10.978
97673W        W57176  41.331  38.449  10.429
97674W        W57177   4.250  44.811  14.996
97675W        W57178  16.165  24.679  10.630
97676W        W57179  44.306   9.873  13.544
97677W        W57180  43.863  11.846   0.362
97678W        W57181  34.002  29.643  12.402
97679W        W57182  10.837  36.390   1.280
97680W        W57183  22.537  29.638   4.197
97681W        W57184   6.766   4.780  12.060
97682W        W57185  20.560  15.299   4.270
97683W        W57186   1.396  15.259   4.662
97684W        W57187  33.050  19.268   4.220
97685W        W57188  19.654  32.091  10.415
97686W        W57189  42.296  25.134  11.952
97687W        W57190  38.531  40.475   0.374
97688W        W57191  21.150  16.682  10.514
97689W        W57192  41.846  36.034  14.359
97690W        W57193  42.857   0.473   4.316
97691W        W57194  37.917  38.487  13.900
97692W        W57195  29.001  19.712   1.783
97693W        W57196  32.501  35.034  14.870
97694W        W57197  26.964  26.082   0.433
97695W        W57198  33.454   2.240   5.261
97696W        W57199  12.125  21.706  12.452
97697W        W57200   2.387  17.621   4.734
97698W        W57201  42.919  37.405   0.315
97699W        W57202  16.596  35.603   2.398
97700W        W57203   6.737  36.897  10.492
97701W        W57204  19.551  21.527   1.805
97702W        W57205  20.161  42.820   5.271
97703W        W57206  37.865  21.739   3.195
97704W        W57207  21.564  43.311   1.800
97705W        W57208   4.362  14.149  11.504
97706W        W57209   8.224  40.423  10.557
97707W        W57210  30.449   1.483   4.790
97708W        W57211   9.222  21.054  11.986
97709W        W57212  14.191  16.720  14.964
97710W        W57213   2.893  32.608  12.468
97711W        W57214  17.234  22.071   2.722
97712W        W57215   4.363  24.678  13.445
97713W        W57216  25.533  31.415   1.821
97714W        W57217  23.687  41.355   4.167
97715W        W57218  29.043   2.750  11.458
97716W        W57219  14.695  29.542  11.457
97717W        W57220  41.940  36.493   2.759
97718W        W57221  12.643  29.475   3.692
97719W        W57222  40.807  27.595  11.045
97720W        W57223  23.643  17.643   4.301
97721W        W57224  16.646  44.955  12.555
97722W        W57225  44.411   3.453  14.940
97723W        W57226   9.278   7.834   3.779
97724W        W57227  41.482   9.244  13.908
97725W        W57228  42.842  14.656   1.775
97726W        W57229  28.944  37.535  12.491
97727W        W57230  14.227  18.244   1.781
97728W        W57231  15.719   7.233  12.385
97729W        W57232  16.597   2.868  13.503
97730W        W57233  34.955  43.937  10.458
97731W        W57234  17.303  31.001   3.752
97732W        W57235  19.615  27.093   3.172
97733W        W57236  33.915  14.725   4.798
97734W        W57237  41.007  39.875   2.761
97735W        W57238   6.207   1.909   5.131
97736W        W57239   0.410  13.616   2.804
97737W        W57240  29.662  20.085   2.243
97738W        W57241  39.525  16.667   0.891
97739W        W57242  40.355  16.262  13.953
97740W        W57243  25.150  11.746  14.950
97741W        W57244   4.846  42.395  13.395
97742W        W57245  39.036  27.680   0.394
97743W        W57246  19.234  22.702  13.412
97744W        W57247   6.218   6.892  13.474
97745W        W57248  36.394  27.016   0.914
97746W        W57249   7.249  17.185  12.882
97747W        W57250   2.267   4.817  14.393
97748W        W57251  13.776  12.138   0.803
97749W        W57252   5.898  31.552   1.847
97750W        W57253  36.928  14.339   5.097
97751W        W57254   6.747  43.479  12.541
97752W        W57255  16.656  17.293   2.205
97753W        W57256  39.489  44.763   3.297
97754W        W57257  12.623  34.578   5.730
97755W        W57258  14.204   4.319   2.728
97756W        W57259  41.536   0.305  12.971
97757W        W57260  21.061  31.984  10.493
97758W        W57261  14.682   8.713   3.235
97759W        W57262  36.003  34.456  12.377
97760W        W57263  20.100   9.283  13.537
97761W        W57264   8.825  12.759   3.225
97762W        W57265  22.073  29.661   2.783
97763W        W57266  28.159  13.266   9.972
97764W        W57267  13.151  24.611  11.418
97765W        W57268  32.635  33.538   4.636
97766W        W57269  27.685  12.647  10.535
97767W        W57270  20.699  29.561  13.482
97768W        W57271  26.545  13.843  11.487
97769W        W57272  37.047   1.239  13.435
97770W        W57273   7.804  21.529  12.078
97771W        W57274  27.515   1.955   2.855
97772W        W57275  38.974   6.379  12.964
97773W        W57276  11.239  38.881  14.013
97774W        W57277   1.287  28.058   4.184
97775W        W57278  23.700  41.475   3.667
97776W        W57279  20.086   0.478   4.298
97777W        W57280  12.723  20.638   3.257
97778W        W57281  43.784  36.530   4.278
97779W        W57282   6.352  40.376   3.677
97780W        W57283  41.938  24.005   3.706
97781W        W57284  27.106  22.059   1.782
97782W        W57285  32.891   4.424  10.895
97783W        W57286   6.402  26.004   3.763
97784W        W57287  18.112  19.719   3.755
97785W        W57288  24.694  42.966   5.256
97786W        W57289  42.020  27.112  13.008
97787W        W57290   9.284  32.894   2.688
97788W        W57291  26.506   2.364  13.362
97789W        W57292  31.986  35.022  13.351
97790W        W57293  10.684   0.974  14.807
97791W        W57294  25.073  18.729   2.719
97792W        W57295  44.395  38.362  11.583
97793W        W57296  28.464  16.081  11.375
97794W        W57297  40.801  17.720   0.949
97795W        W57298   7.371  30.125   1.253
97796W        W57299  21.215   7.751  10.498
97797W        W57300  34.866   7.735   3.185
97798W        W57301  15.273  39.911   3.336
97799W        W57302   2.309   3.225  11.879
97800W        W57303  41.860  33.489   3.835
97801W        W57304  19.600  21.575  14.340
97802W        W57305  18.661  38.376  11.082
97803W        W57306  43.962  20.630  14.332
97804W        W57307  38.497  22.223   3.833
97805W        W57308  44.289   9.703   3.807
97806W        W57309  26.057   7.349  11.997
97807W        W57310  26.051  44.985   3.796
97808W        W57311  38.927  14.605  12.875
97809W        W57312   9.851  40.405  11.482
97810W        W57313  32.941  24.048  10.428
97811W        W57314  16.623  34.442  13.457
97812W        W57315  33.428  26.965  13.411
97813W        W57316  27.016  32.103   1.733
97814W        W57317  23.621  29.053  10.526
97815W        W57318  29.970  11.251   0.933
97816W        W57319  40.018  22.223   2.367
97817W        W57320  28.511   0.355   0.303
97818W        W57321  39.521  43.428   2.267
97819W        W57322   2.894  22.056  13.800
97820W        W57323   7.867  14.662   0.362
97821W        W57324  16.639   7.192  12.057
97822W        W57325  43.332  32.901   1.227
97823W        W57326  41.354  16.772   1.905
97824W        W57327  21.516  21.033   4.223
97825W        W57328  31.415  17.734  12.352
97826W        W57329  10.209  36.903  14.862
97827W        W57330  21.223  16.636   0.948
97828W        W57331  31.537  23.655  13.512
97829W        W57332   4.433  12.695  10.466
97830W        W57333  41.458  26.668  11.124
97831W        W57334  12.295  21.597   2.400
97832W        W57335  28.156  35.925   4.282
97833W        W57336  18.248  31.444   1.263
97834W        W57337  24.209  39.410   2.739
97835W        W57338  17.696   6.371   1.802
97836W        W57339   6.788   8.167  14.298
97837W        W57340   1.959  37.454  14.392
97838W        W57341   8.866  13.212   0.966
97839W        W57342  37.400  16.718   0.804
97840W        W57343  26.968  13.162  13.895
97841W        W57344  30.937  22.520  14.804
97842W        W57345  18.565   2.346   1.862
97843W        W57346  12.129  25.211  10.605
97844W        W57347  10.745  29.041   1.891
97845W        W57348  18.277  36.509   3.704
97846W        W57349   1.274  28.998  13.008
97847W        W57350  42.446  21.029  13.509
97848W        W57351   9.291  15.185   2.772
97849W        W57352  39.417  37.976   4.752
97850W        W57353  26.119   1.365  11.954
97851W        W57354  29.543   0.886  10.543
97852W        W57355   3.363  17.668  14.972
97853W        W57356   0.378  18.208  14.982
97854W        W57357  38.074  39.327   2.901
97855W        W57358  23.135  27.553  14.335
97856W        W57359  29.987  32.402  11.967
97857W        W57360   9.704  17.118  14.279
97858W        W57361  11.771  12.838   0.417
97859W        W57362  36.446  22.622  14.822
97860W        W57363  11.317  41.379   3.724
97861W        W57364   9.807  26.044   3.338
97862W        W57365  25.085  19.631   2.297
97863W        W57366  28.557   0.913  10.551
97864W        W57367  31.091  39.451   1.250
97865W        W57368  23.661  43.368  11.386
97866W        W57369  43.904  32.575   4.773
97867W        W57370  14.150  19.729   2.670
97868W        W57371  23.554  21.212  11.376
97869W        W57372  17.597  40.323  11.524
97870W        W57373  20.060   1.331   0.848
97871W        W57374  20.031  12.127  11.988
97872W        W57375  20.116  29.434   3.334
97873W        W57376   2.348  33.926  13.927
97874W        W57377  21.038   7.243   1.229
97875W        W57378  37.349  13.834  14.798
97876W        W57379  21.558  25.080   2.876
97877W        W57380   0.390   6.744   3.263
97878W        W57381  20.540  38.008   2.829
97879W        W57382  20.737  37.435   4.150
97880W        W57383  13.759  24.100  14.931
97881W        W57384  34.072  28.131   1.828
97882W        W57385   7.289   3.773  14.484
97883W        W57386   9.691  38.354   2.857
97884W        W57387  37.514  28.090  14.390
97885W        W57388  12.663  24.121  13.352
97886W        W57389  11.697  26.555   4.137
97887W        W57390  29.062  41.502   0.746
97888W        W57391  37.429   2.921   0.845
97889W        W57392  23.699  37.998   0.414
97890W        W57393   1.404  16.668  12.579
97891W        W57394  10.368   2.905   3.321
97892W        W57395   4.210   9.238   2.747
97893W        W57396  42.441  20.586  11.591
97894W        W57397   0.304  38.886  14.004
97895W        W57398  30.588  35.452  11.385
97896W        W57399  34.477  33.041   0.340
97897W        W57400  36.549  16.682  13.505
97898W        W57401  18.545   0.474   3.778
97899W        W57402  29.565  35.399   4.631
97900W        W57403  33.986  16.652  14.294
97901W        W57404  30.443  11.314   5.094
97902W        W57405   7.375   9.248  14.828
97903W        W57406  23.526  18.285  14.895
97904W        W57407  36.034  13.125  12.448
97905W        W57408  30.524   9.746  13.383
97906W        W57409  44.899  43.478   2.309
97907W        W57410  44.427  27.073   2.877
97908W        W57411  27.151  32.473  14.481
97909W        W57412  24.997  23.214  14.382
97910W        W57413  32.582   7.197   2.882
97911W        W57414  13.644  16.270   4.299
97912W        W57415   2.435  41.907  11.064
97913W        W57416  44.860  28.179   1.276
97914W        W57417  29.004  14.650   2.788
97915W        W57418  19.758  21.550   2.792
97916W        W57419  24.184  19.254  10.574
97917W        W57420  37.356   5.691   0.457
97918W        W57421  28.170  38.997  14.913
97919W        W57422  43.947  22.665  10.578
97920W        W57423  19.049  40.317   1.355
97921W        W57424  15.649  20.128  14.961
97922W        W57425  12.203  30.520  13.460
97923W        W57426  43.872   7.279  12.063
97924W        W57427  25.520  41.923  13.363
97925W        W57428  20.250  21.550  11.463
97926W        W57429  39.942  32.484   2.390
97927W        W57430  17.151  26.072   3.767
97928W        W57431   3.772  14.813  10.491
97929W        W57432  26.626   3.834  12.473
97930W        W57433   2.839   9.819   0.896
97931W        W57434  42.905  13.656   2.739
97932W        W57435  25.155  38.389   3.304
97933W        W57436  19.205  16.200  10.545
97934W        W57437  41.953  31.543  14.501
97935W        W57438   7.407  17.799  13.351
97936W        W57439  27.058  29.023   0.320
97937W        W57440   3.215  15.292   4.663
97938W        W57441  25.660  32.588   2.210
97939W        W57442   0.428   9.760  12.357
97940W        W57443  43.379  30.089  12.042
97941W        W57444   4.828  39.868  11.974
97942W        W57445  35.888  20.036   2.778
97943W        W57446  20.144  44.341   4.286
97944W        W57447  20.582  19.705   0.292
97945W        W57448   1.459   4.214  11.579
97946W        W57449  17.290   1.910  10.122
97947W        W57450  23.240  25.114  12.990
97948W        W57451   8.878   0.784  10.633
97949W        W57452  27.965   5.228  11.414
97950W        W57453  21.215  41.976  13.828
97951W        W57454   6.921  42.921   2.851
97952W        W57455   6.413  13.250  12.535
97953W        W57456  44.802  35.930  13.894
97954W        W57457  41.520   7.711  13.900
97955W        W57458  23.660  36.592   4.705
97956W        W57459  35.377  10.367  10.904
97957W        W57460  19.256  37.436   1.406
97958W        W57461   1.945  26.983  14.017
97959W        W57462  11.627  22.998  13.504
97960W        W57463   7.717  36.077  10.538
97961W        W57464   4.213  17.642  13.982
97962W        W57465   8.265   0.841  13.914
97963W        W57466  34.578  30.571   1.929
97964W        W57467   4.831  37.919  12.915
97965W        W57468  35.472  23.037   0.467
97966W        W57469  26.060   6.332   2.800
97967W        W57470   8.305  26.685   1.439
97968W        W57471  33.048   4.273   0.903
97969W        W57472   1.765   1.912   1.847
97970W        W57473  33.599  27.515  11.491
97971W        W57474  18.767  43.014  11.062
97972W        W57475  38.546  27.112   3.367
97973W        W57476  33.048  37.376  12.882
97974W        W57477   4.422  26.566  12.943
97975W        W57478  33.485  18.750   1.788
97976W        W57479  17.078  29.996   0.927
97977W        W57480  37.088  21.706   3.360
97978W        W57481  44.823  39.461  13.523
97979W        W57482  10.768   8.273   4.122
97980W        W57483  10.788  13.274  14.773
97981W        W57484  10.856  11.370  12.567
97982W        W57485   8.395  31.120   1.249
97983W        W57486  21.622  28.961  11.970
97984W        W57487  28.657  34.046  13.873
97985W        W57488  33.502  34.864   5.726
97986W        W57489  17.627  33.458  13.422
97987W        W57490   7.219  28.055  12.552
97988W        W57491  13.336   8.875  14.510
97989W        W57492  16.178  17.091  14.396
97990W        W57493   6.308  17.223   0.870
97991W        W57494  40.468  43.004   5.159
97992W        W57495  35.999  29.433   5.304
97993W        W57496  38.876   3.935  11.409
97994W        W57497  22.229  21.541   4.636
97995W        W57498  20.524  20.552  12.556
97996W        W57499  35.557  17.670   1.328
97997W        W57500  22.150  43.356   1.269
97998W        W57501   6.869  24.189  12.955
97999W        W57502   6.348  35.394  11.532
98000W        W57503  17.271  11.786   4.707
98001W        W57504  22.527  20.647  14.484
98002W        W57505  17.739  21.185  14.346
98003W        W57506   6.704  21.100   3.161
98004W        W57507  15.328  17.241   4.236
98005W        W57508   6.837  44.985  10.503
98006W        W57509  36.025  31.934   2.307
98007W        W57510  44.881  40.878  10.536
98008W        W57511  23.515  36.879   1.446
98009W        W57512   4.322  21.699  12.966
98010W        W57513  17.164  26.972  12.396
98011W        W57514  37.937  14.781  11.107
98012W        W57515  27.163  26.521   0.303
98013W        W57516   6.427  34.378  11.863
98014W        W57517   2.891   4.413   1.854
98015W        W57518  30.052  25.695  14.928
98016W        W57519  20.570  16.163  12.930
98017W        W57520   9.236  29.032  14.793
98018W        W57521  23.143  31.410  14.409
98019W        W57522  41.334   9.315   0.261
98020W        W57523  24.533  28.632  14.355
98021W        W57524  31.081  26.503  12.931
98022W        W57525  39.984   3.814  11.450
98023W        W57526   8.373  34.573  13.412
98024W        W57527   5.200  24.061   2.743
98025W        W57528  21.065  33.420   2.665
98026W        W57529  42.840   9.722   2.309
98027W        W57530   1.903  16.155   4.216
98028W        W57531  23.174  10.247  10.538
98029W        W57532   2.304  20.217   3.268
98030W        W57533  21.247  26.037  13.963
98031W        W57534  13.259   0.488  12.485
98032W        W57535  11.650   9.378   3.367
98033W        W57536  20.604  14.245  10.586
98034W        W57537   5.380   0.939  14.468
98035W        W57538  21.139  27.193  13.313
98036W        W57539  19.078   9.267  13.429
98037W        W57540  14.794  41.837   4.730
98038W        W57541  41.831  22.514   2.816
98039W        W57542   8.330  34.055  14.420
98040W        W57543  43.322   4.774  12.871
98041W        W57544  39.874  21.217  11.467
98042W        W57545  32.500  33.125  10.527
98043W        W57546  11.722  27.585  11.490
98044W        W57547  27.038  44.945  13.432
98045W        W57548  22.686  10.151   0.368
98046W        W57549  13.314  15.319  10.996
98047W        W57550  20.651  22.545   1.734
98048W        W57551  34.067  11.689   0.958
98049W        W57552  23.601  21.255  12.544
98050W        W57553   9.342  24.481  13.448
98051W        W57554  21.726  41.923   0.763
98052W        W57555   0.489  26.080  10.158
98053W        W57556  22.046   4.450  13.456
98054W        W57557   2.408  30.029  14.416
98055W        W57558  21.103  36.463   0.289
98056W        W57559  31.941   7.754  10.932
98057W        W57560  13.633   9.221  12.048
98058W        W57561  41.032  26.624  13.353
98059W        W57562  23.212  10.199   2.735
98060W        W57563   7.321  30.620  12.364
98061W        W57564  30.945   9.243   1.443
98062W        W57565  36.913  18.205  14.821
98063W        W57566  15.651  44.492  10.960
98064W        W57567  23.671   0.376   1.272
98065W        W57568   0.431  13.828  12.919
98066W        W57569  38.356   6.350  14.301
98067W        W57570  23.523  21.084   4.174
98068W        W57571  18.185   4.754   0.902
98069W        W57572  15.601  34.416  12.914
98070W        W57573  13.345  31.518   2.299
98071W        W57574  21.565  40.863   4.668
98072W        W57575  13.787  35.987   4.128
98073W        W57576  14.754  23.131  13.529
98074W        W57577   5.815   0.401  10.623
98075W        W57578   8.847  10.823  11.124
98076W        W57579  26.208  12.749   2.258
98077W        W57580   9.173   8.878   4.698
98078W        W57581  23.547  22.102  11.421
98079W        W57582  39.060  27.022   0.472
98080W        W57583  17.728  36.461   4.190
98081W        W57584   7.337  21.218  13.461
98082W        W57585  16.167  20.256  12.526
98083W        W57586  17.092  34.393  14.385
98084W        W57587   0.399  17.557  14.769
98085W        W57588   0.259   7.740   3.325
98086W        W57589  14.264  13.296   2.219
98087W        W57590  25.136   2.876   1.344
98088W        W57591  18.777  34.103  13.015
98089W        W57592  24.153  13.828  10.469
98090W        W57593  44.836  27.563   5.589
98091W        W57594  28.139  41.804  13.057
98092W        W57595  13.119  27.532   1.377
98093W        W57596   2.440  44.942  10.920
98094W        W57597  15.587  30.599   1.451
98095W        W57598  35.527   1.767   3.301
98096W        W57599  30.119  44.781   4.833
98097W        W57600  19.198  36.906  12.346
98098W        W57601  28.575  31.149   3.202
98099W        W57602  13.649  43.280   4.205
98100W        W57603   5.312  28.608  10.467
98101W        W57604   4.436   8.790  11.575
98102W        W57605  31.530  14.627  12.013
98103W        W57606  25.200  36.902  14.484
98104W        W57607  18.734  17.248  12.926
98105W        W57608  38.016  21.182   4.199
98106W        W57609  12.144   8.370  13.333
98107W        W57610  20.134  16.787   1.843
98108W        W57611  17.277   7.848  10.563
98109W        W57612  33.395  21.241  10.148
98110W        W57613  10.751  36.055   4.220
98111W        W57614  34.077  34.382  14.311
98112W        W57615  18.780  14.286   2.811
98113W        W57616  29.088  38.826   1.294
98114W        W57617  43.995  41.391   0.400
98115W        W57618  40.931  30.583   3.385
98116W        W57619  30.488  14.793  12.500
98117W        W57620   9.696  28.062   1.839
98118W        W57621   7.233  10.753   3.199
98119W        W57622  32.494  38.944   3.324
98120W        W57623  33.971  15.619   4.301
98121W        W57624  41.921   5.396  14.762
98122W        W57625  21.693  43.306  13.798
98123W        W57626  14.289   0.750   4.644
98124W        W57627  16.148  13.659   0.934
98125W        W57628  34.902  28.513   5.193
98126W        W57629   9.864  14.280   3.376
98127W        W57630  12.224  11.265  10.896
98128W        W57631  23.019  30.419   3.320
98129W        W57632   0.857  16.245  13.848
98130W        W57633  19.249   5.856   0.742
98131W        W57634  25.185  43.791   2.398
98132W        W57635   0.905  11.172   1.739
98133W        W57636   9.374  32.965  14.303
98134W        W57637  22.672  32.546  13.024
98135W        W57638   6.912  19.610   4.307
98136W        W57639  15.297  39.045  13.396
98137W        W57640  24.118   8.730  14.372
98138W        W57641   6.360  42.345  14.286
98139W        W57642  13.828  42.376   4.765
98140W        W57643  10.352  20.722   2.272
98141W        W57644   6.701  18.058   2.877
98142W        W57645  37.833  13.679   0.310
98143W        W57646  24.541  30.530   0.396
98144W        W57647   1.896  37.051  13.821
98145W        W57648  43.427   2.880  12.401
98146W        W57649  40.851  37.360   4.688
98147W        W57650   4.868  20.107  13.908
98148W        W57651  20.138   4.923   4.757
98149W        W57652   8.197  39.040  12.367
98150W        W57653  44.829  36.435  12.063
98151W        W57654  37.908   7.198   2.253
98152W        W57655  19.273  23.208   3.166
98153W        W57656  38.404  36.432  11.580
98154W        W57657   3.731  33.599  12.387
98155W        W57658  40.986  12.800   4.824
98156W        W57659  20.622   9.864  13.311
98157W        W57660   4.927  41.465  12.530
98158W        W57661  10.233  17.269  13.346
98159W        W57662  30.160  30.471  11.394
98160W        W57663  33.110   6.334   0.350
98161W        W57664  42.511  24.217   4.633
98162W        W57665  13.782  19.737   0.358
98163W        W57666   7.238   0.280  14.959
98164W        W57667  41.795  21.704   2.888
98165W        W57668  28.509  12.754  10.105
98166W        W57669  28.186   9.678  11.491
98167W        W57670  12.229   0.258   0.472
98168W        W57671  17.786   5.435  13.835
98169W        W57672  12.153  44.469  10.586
98170W        W57673  12.839  28.138   2.784
98171W        W57674   8.402  12.709   2.719
98172W        W57675  34.557  28.625   5.286
98173W        W57676  37.012  23.574  12.983
98174W        W57677   4.310  27.001  11.495
98175W        W57678  41.309  44.939  11.478
98176W        W57679  16.643   7.388   3.337
98177W        W57680   7.766  26.520   1.728
98178W        W57681   9.760   2.325   0.860
98179W        W57682  23.235  26.176  13.459
98180W        W57683  31.103   0.800   1.799
98181W        W57684  13.316  34.548  12.994
98182W        W57685  20.195  18.059   0.917
98183W        W57686   8.708  39.050   0.426
98184W        W57687  22.659  29.993   4.635
98185W        W57688  43.340  22.063   1.896
98186W        W57689  24.518  25.506   0.729
98187W        W57690  20.125  15.626  10.083
98188W        W57691  16.694  41.892  12.556
98189W        W57692  14.231  16.781   3.265
98190W        W57693  13.181  28.493   4.203
98191W        W57694   3.781   0.958   3.184
98192W        W57695  35.937  38.880   1.445
98193W        W57696   2.777   7.213  14.903
98194W        W57697  31.044  10.752   1.916
98195W        W57698  43.435  43.956   3.853
98196W        W57699  38.924  37.520   5.153
98197W        W57700  15.122  32.079  14.901
98198W        W57701   6.679  23.670  12.478
98199W        W57702  29.452   0.891  10.072
98200W        W57703  42.938  14.626  13.415
98201W        W57704  21.214   7.178  12.881
98202W        W57705  14.152  36.503  14.882
98203W        W57706  33.001  44.381  14.304
98204W        W57707   6.242   3.941  14.916
98205W        W57708  34.953  12.798   0.329
98206W        W57709  42.436  11.739  14.463
98207W        W57710  27.162  35.506   4.194
98208W        W57711   1.797  28.937  14.411
98209W        W57712   5.851   0.365  12.535
98210W        W57713  23.721   2.838   1.394
98211W        W57714  23.226  21.733   0.242
98212W        W57715   0.894  31.038  10.456
98213W        W57716  26.053   6.880   1.777
98214W        W57717  40.520  29.082  13.320
98215W        W57718  34.549  36.350  12.480
98216W        W57719  37.040  28.564  11.505
98217W        W57720   3.326  25.647  13.429
98218W        W57721  32.625  29.134  12.973
98219W        W57722  32.519  16.081  11.517
98220W        W57723  10.697   7.174   3.364
98221W        W57724  21.136  30.149   3.346
98222W        W57725  19.187  41.331  14.843
98223W        W57726   2.924  32.082   3.686
98224W        W57727   7.327  42.343  13.856
98225W        W57728   3.944   2.415   2.766
98226W        W57729  14.237  19.065  12.909
98227W        W57730  15.682  39.870  13.954
98228W        W57731  25.630  28.158   4.305
98229W        W57732  17.651  12.173   2.666
98230W        W57733  21.145  27.968   1.375
98231W        W57734   4.732   0.265   1.215
98232W        W57735  26.174  25.606   3.272
98233W        W57736  40.986   7.342  12.445
98234W        W57737   6.394  39.900  10.964
98235W        W57738  22.226  33.976   0.936
98236W        W57739   8.315  36.017   3.726
98237W        W57740  29.473  35.862   9.999
98238W        W57741  36.852  42.321  13.334
98239W        W57742  38.035  33.476   4.812
98240W        W57743   6.260   0.929   5.607
98241W        W57744  36.072  36.902   4.336
98242W        W57745  26.582  39.458   1.906
98243W        W57746  14.137  36.043   0.313
98244W        W57747  35.090  16.807  13.017
98245W        W57748  21.692   4.239   0.447
98246W        W57749  41.956  28.114  11.029
98247W        W57750  14.169  19.634  12.921
98248W        W57751  32.570  43.993  14.993
98249W        W57752  44.316  20.696  14.884
98250W        W57753  37.502  34.870   3.356
98251W        W57754  17.100  10.774   4.687
98252W        W57755   8.675   7.715   1.780
98253W        W57756  35.384  39.887   2.714
98254W        W57757  23.007  12.704   4.599
98255W        W57758  36.507   1.774   0.852
98256W        W57759  29.571  18.175   3.848
98257W        W57760  40.502   5.839   1.837
98258W        W57761  40.536   1.933   1.227
98259W        W57762  28.627  43.932  11.103
98260W        W57763  13.171  21.047   3.850
98261W        W57764  34.867   9.746  14.855
98262W        W57765  13.692   8.345   2.876
98263W        W57766  10.794  43.949  14.803
98264W        W57767  18.575  28.489   2.369
98265W        W57768  17.296  35.515   3.773
98266W        W57769  34.873  38.532  13.535
98267W        W57770  27.629  27.644  13.397
98268W        W57771  11.155  40.481   2.847
98269W        W57772  19.185  11.369   2.378
98270W        W57773  30.970   6.225   4.295
98271W        W57774   1.357  15.586  13.960
98272W        W57775  15.737  28.469   1.734
98273W        W57776  25.667  23.681  13.813
98274W        W57777   5.789  24.982  12.951
98275W        W57778   6.410  31.631  12.883
98276W        W57779  32.431  28.481  11.988
98277W        W57780  28.514  17.116   3.270
98278W        W57781  30.105  43.877   1.871
98279W        W57782  22.043   4.228   2.761
98280W        W57783  39.554  19.679   1.364
98281W        W57784  36.951  27.971   2.680
98282W        W57785  32.995  35.395  12.837
98283W        W57786  30.972   7.790   4.803
98284W        W57787   3.937  30.552  13.908
98285W        W57788   0.418   0.872  11.461
98286W        W57789  32.515  40.490  13.986
98287W        W57790  28.079  12.857   1.384
98288W        W57791  26.646  41.012  12.360
98289W        W57792  11.203  36.462   0.320
98290W        W57793  31.625  30.977  12.363
98291W        W57794  33.398  19.586   2.382
98292W        W57795  14.261  26.627   0.414
98293W        W57796  34.470  41.822   2.865
98294W        W57797  14.641  15.292   4.650
98295W        W57798  11.211   9.188   1.405
98296W        W57799  12.660   6.698   3.863
98297W        W57800  17.567  40.909   0.471
98298W        W57801  29.109  16.611   4.221
98299W        W57802  19.262  32.609  14.297
98300W        W57803  41.959  35.064  13.531
98301W        W57804  17.102  20.211  11.561
98302W        W57805  13.350  25.529  14.420
98303W        W57806  19.225   0.898   0.734
98304W        W57807  19.652  23.087   3.198
98305W        W57808   7.273  44.433   1.832
98306W        W57809   1.774   1.855   0.850
98307W        W57810  12.348  26.679  13.429
98308W        W57811   1.786  24.521  14.487
98309W        W57812   5.209   9.238   4.132
98310W        W57813  10.712  31.516  12.457
98311W        W57814  19.676  28.992   4.796
98312W        W57815  12.770  13.242  14.464
98313W        W57816   5.393   1.876  12.882
98314W        W57817  31.617   5.237   3.292
98315W        W57818  31.457  32.993  14.479
98316W        W57819  24.231  39.413  11.057
98317W        W57820  32.941  31.572   3.322
98318W        W57821  39.019  11.323  13.844
98319W        W57822  14.278  15.119  14.389
98320W        W57823  19.537  31.150   1.787
98321W        W57824   8.207  18.579  13.796
98322W        W57825  17.758  22.081  10.633
98323W        W57826  26.563   4.255   4.154
98324W        W57827  18.053   7.789  12.876
98325W        W57828  31.141   1.768   0.762
98326W        W57829   8.663  30.107  13.541
98327W        W57830  15.705  33.530  14.817
98328W        W57831  44.800  14.201  13.867
98329W        W57832  15.229  37.076   0.805
98330W        W57833  36.413  39.875   2.819
98331W        W57834   4.304  33.109   3.695
98332W        W57835  25.570  30.156   1.407
98333W        W57836  37.908  41.388   3.280
98334W        W57837  35.912  38.842   0.347
98335W        W57838   7.794   5.300   3.176
98336W        W57839  16.743  44.470   2.233
98337W        W57840  23.166  20.625   0.386
98338W        W57841  30.929  37.914   0.459
98339W        W57842   7.835   4.912   2.367
98340W        W57843   7.690  26.970  12.078
98341W        W57844  30.596   2.814   4.741
98342W        W57845   2.911  39.412  11.109
98343W        W57846  43.319   4.242  10.937
98344W        W57847  37.922   3.827   0.466
98345W        W57848  36.536  10.224   4.717
98346W        W57849  41.502   0.271  10.981
98347W        W57850  34.441  13.626   0.361
98348W        W57851   2.373  25.544   2.813
98349W        W57852  40.008  25.220  14.868
98350W        W57853   0.378  16.777  12.827
98351W        W57854  37.039  29.136  10.509
98352W        W57855  26.120  13.833   4.660
98353W        W57856  18.602  40.806   2.773
98354W        W57857  39.371  41.837  11.457
98355W        W57858  33.597   2.249  11.375
98356W        W57859  21.523  18.547  11.018
98357W        W57860  44.831  30.467  10.896
98358W        W57861  34.033  40.347   3.732
98359W        W57862  13.750  15.278   1.729
98360W        W57863  27.616  37.022  13.963
98361W        W57864  15.743  40.944  10.468
98362W        W57865  38.892   5.281   2.720
98363W        W57866  18.114  42.519   3.809
98364W        W57867   5.417  40.318   2.829
98365W        W57868  37.361  17.755   2.780
98366W        W57869  29.962   6.700   2.249
98367W        W57870  10.750   7.763   2.719
98368W        W57871  38.932  16.624   4.723
98369W        W57872  38.504  30.081  13.791
98370W        W57873  19.582  39.041   4.319
98371W        W57874  41.455  14.118   4.120
98372W        W57875   4.829   2.375  11.869
98373W        W57876  13.215   2.851   3.779
98374W        W57877  18.268   7.328  12.538
98375W        W57878  44.831  37.380   1.764
98376W        W57879  38.050  12.339  11.464
98377W        W57880   1.799  40.528  13.848
98378W        W57881  18.766  21.152  14.399
98379W        W57882  36.087   7.682  13.945
98380W        W57883  15.737   4.913   1.351
98381W        W57884   4.224   3.389  11.058
98382W        W57885  30.981  31.614  10.448
98383W        W57886  33.470   0.460  12.559
98384W        W57887  40.973  28.983   4.155
98385W        W57888   8.690  14.295  10.010
98386W        W57889   8.684  42.840   4.283
98387W        W57890  22.063  36.593   0.840
98388W        W57891  28.669  44.913   3.349
98389W        W57892  33.921  25.090   2.725
98390W        W57893  43.769   7.194   4.668
98391W        W57894  32.624  24.978  11.903
98392W        W57895  10.202  26.583   0.813
98393W        W57896  13.662  38.073  10.502
98394W        W57897  38.048  44.461   2.721
98395W        W57898  16.251   0.745   3.361
98396W        W57899  44.914  10.141  10.074
98397W        W57900  36.021   9.322  12.449
98398W        W57901  41.959  40.509   2.394
98399W        W57902  24.071  41.468   3.752
98400W        W57903  37.054  14.167  14.505
98401W        W57904  16.579  20.745   2.873
98402W        W57905   7.807  34.087   3.205
98403W        W57906   3.844  34.884  12.407
98404W        W57907  40.486  43.832   1.897
98405W        W57908  30.025   8.201  12.486
98406W        W57909   4.884  23.053  14.980
98407W        W57910  30.090  17.644  13.880
98408W        W57911   9.690  32.085   0.331
98409W        W57912  37.400  33.988   3.812
98410W        W57913   3.823  30.640  14.997
98411W        W57914  17.661  26.680  14.875
98412W        W57915  19.202  29.967  14.886
98413W        W57916  44.808  14.101   0.365
98414W        W57917   3.410  26.679   4.188
98415W        W57918  36.937   5.256  12.066
98416W        W57919  16.198  10.674  10.473
98417W        W57920  41.529  14.277   3.685
98418W        W57921  43.920  20.529   3.646
98419W        W57922  26.058   6.418   2.402
98420W        W57923  37.943  43.822   1.823
98421W        W57924  40.464  17.761   3.186
98422W        W57925   7.676   9.317   2.820
98423W        W57926  29.075  38.345  14.785
98424W        W57927  22.222  35.936   1.725
98425W        W57928  12.624  40.850   3.807
98426W        W57929  27.492  12.133  11.422
98427W        W57930   4.823  10.375  11.963
98428W        W57931  12.786  42.914  13.472
98429W        W57932  15.721   0.412  13.893
98430W        W57933  41.315  10.189   2.220
98431W        W57934   3.308  41.530   4.730
98432W        W57935  12.791  33.023   3.165
98433W        W57936  40.368  37.370  10.066
98434W        W57937  20.618  27.096  11.519
98435W        W57938  41.805  16.747  12.459
98436W        W57939  44.449  11.369   0.324
98437W        W57940  34.577  30.053   0.408
98438W        W57941  15.749  39.915   2.341
98439W        W57942   6.339  28.627   3.218
98440W        W57943   5.888   9.348  13.421
98441W        W57944  35.106  11.701   0.731
98442W        W57945  42.379  23.567  14.362
98443W        W57946   6.695  35.980  11.073
98444W        W57947  27.684  13.320  11.501
98445W        W57948  17.719  32.459  12.093
98446W        W57949  27.956   6.390   5.088
98447W        W57950  23.564   3.946   1.714
98448W        W57951  22.638  34.548  14.390
98449W        W57952  30.521   3.830  12.896
98450W        W57953  40.904   9.162   4.639
98451W        W57954  44.349  33.547   4.662
98452W        W57955  39.524  35.370   1.721
98453W        W57956  14.242   0.370  14.817
98454W        W57957   5.314  33.127  12.050
98455W        W57958   8.162  21.708  11.597
98456W        W57959   5.375  35.524  12.396
98457W        W57960   0.332  41.879   3.693
98458W        W57961  20.129   0.775  13.364
98459W        W57962   4.767  29.061  12.031
98460W        W57963  16.121  36.384  14.004
98461W        W57964  36.881  10.681   2.740
98462W        W57965  35.852   5.194  12.858
98463W        W57966  21.126   7.681  13.356
98464W        W57967   3.339  32.912   4.683
98465W        W57968  27.992   2.918  10.488
98466W        W57969  33.523  23.095  12.516
98467W        W57970  40.005  31.092   3.747
98468W        W57971  44.505  42.307  11.971
98469W        W57972  29.118  21.686  14.019
98470W        W57973  39.509  33.036  12.913
98471W        W57974  40.390  39.392   3.265
98472W        W57975  19.707  14.313  11.505
98473W        W57976  44.844  34.098  14.771
98474W        W57977  29.598  14.316  11.446
98475W        W57978  16.157  14.717  13.470
98476W        W57979  38.416  20.697  10.417
98477W        W57980  42.407   9.300   1.272
98478W        W57981   5.214  28.120   9.977
98479W        W57982  29.156  35.444   1.748
98480W        W57983  44.838  31.625   2.807
98481W        W57984  27.555  18.183   3.706
98482W        W57985  28.518  40.538  10.105
98483W        W57986  21.576  11.337  14.404
98484W        W57987  33.956  30.019   0.273
98485W        W57988  30.475  19.212   0.796
98486W        W57989   4.863  39.997   2.194
98487W        W57990   0.894  22.196   2.883
98488W        W57991   6.403  42.949  14.339
98489W        W57992   8.879  24.213  14.020
98490W        W57993   9.384  29.084   4.117
98491W        W57994  11.831  11.283  11.106
98492W        W57995   0.957   9.644   0.821
98493W        W57996  19.096  32.396   4.729
98494W        W57997   4.778  36.992   2.384
98495W        W57998  12.295  29.984  13.533
98496W        W57999  30.031  18.568   1.832
98497W        W58000   9.330  42.012  11.387
98498W        W58001   9.750  13.305   3.734
98499W        W58002   3.829   4.218  13.017
98500W        W58003  28.119  44.754   0.941
98501W        W58004  42.413  29.581   0.949
98502W        W58005  36.845  15.268  14.337
98503W        W58006  41.319   4.242   2.787
98504W        W58007  23.542  34.007   2.753
98505W        W58008   0.891  27.001   3.231
98506W        W58009  31.587   6.253  14.511
98507W        W58010  26.521  32.439  13.842
98508W        W58011  24.030  36.930  10.640
98509W        W58012   7.232  21.600  14.346
98510W        W58013  33.623  33.973   1.355
98511W        W58014  35.475  29.542  11.868
98512W        W58015  42.522  42.438  11.889
98513W        W58016  20.585   9.776  14.969
98514W        W58017  31.993  29.156   4.327
98515W        W58018   3.338  33.618   3.282
98516W        W58019  28.467  44.489   0.952
98517W        W58020  36.051  23.020   2.265
98518W        W58021  38.338  29.072   0.811
98519W        W58022  15.236   0.818  13.362
98520W        W58023   6.389  22.210   2.728
98521W        W58024  24.663  33.493  13.837
98522W        W58025  41.524  11.626  11.602
98523W        W58026  38.911   7.278  12.343
98524W        W58027  14.693   3.938  12.503
98525W        W58028  31.601  22.232  14.291
98526W        W58029  23.580  30.913   0.415
98527W        W58030  40.860  34.560   2.194
98528W        W58031  35.471  21.684  13.012
98529W        W58032   9.870  20.655  13.433
98530W        W58033  12.834  12.681   4.276
98531W        W58034  32.937  10.188  10.568
98532W        W58035  15.127  23.203  14.513
98533W        W58036  32.139  31.079  11.884
98534W        W58037  40.381  40.044  11.608
98535W        W58038  21.123   8.309  12.409
98536W        W58039  15.770   3.715   3.685
98537W        W58040  42.417   8.400   1.705
98538W        W58041   7.787  32.523  11.451
98539W        W58042  36.561  34.995   3.827
98540W        W58043  15.795  26.014   0.790
98541W        W58044   0.465  43.882  11.552
98542W        W58045  16.270  27.534  12.968
98543W        W58046  29.640  38.997   4.312
98544W        W58047  40.363  23.057  12.930
98545W        W58048   3.224  33.991   0.756
98546W        W58049  20.766  27.063  12.378
98547W        W58050  30.942  15.196   1.290
98548W        W58051   1.898  14.256   0.342
98549W        W58052  39.471  42.334   2.375
98550W        W58053  31.925  21.136   1.248
98551W        W58054  26.699  16.259   2.869
98552W        W58055  18.200  12.645   0.829
98553W        W58056  29.655   6.372   2.720
98554W        W58057  14.756  17.156  11.599
98555W        W58058  13.112   3.296   0.869
98556W        W58059  31.541  39.912  13.444
98557W        W58060   8.725  35.084   9.492
98558W        W58061  24.075  33.584  14.816
98559W        W58062  15.226  20.528  10.545
98560W        W58063  18.658   5.757   2.784
98561W        W58064  42.481  29.071   3.770
98562W        W58065   5.318  22.039  10.441
98563W        W58066  44.834   8.217  12.401
98564W        W58067  33.881  15.165   4.213
98565W        W58068   5.746  19.276   2.891
98566W        W58069  43.377  37.495  10.433
98567W        W58070  43.417   8.863  10.612
98568W        W58071  38.450   2.945  14.278
98569W        W58072  33.034  24.603  10.530
98570W        W58073  31.945   5.222   0.475
98571W        W58074   9.804   7.281   2.334
98572W        W58075  12.653  15.693   0.735
98573W        W58076  37.875  37.983   3.693
98574W        W58077  20.524  44.306   0.455
98575W        W58078   1.378  23.673  14.409
98576W        W58079  30.145  19.578   1.745
98577W        W58080  40.528  11.277   3.163
98578W        W58081   3.452  35.106   1.303
98579W        W58082  33.955  27.573  13.015
98580W        W58083  22.139  22.118   3.153
98581W        W58084   4.243  36.519  13.039
98582W        W58085  27.677  40.343   2.863
98583W        W58086  24.224  10.723   2.261
98584W        W58087  13.244   7.745  10.910
98585W        W58088  34.442  18.246  11.579
98586W        W58089  29.160   7.691   3.263
98587W        W58090  42.924  35.369  10.630
98588W        W58091  31.520   0.782   1.413
98589W        W58092  27.568   6.716   4.809
98590W        W58093  35.525  32.127  11.388
98591W        W58094  17.693  33.417  11.069
98592W        W58095  42.934  18.745   1.343
98593W        W58096  44.478  39.939  11.858
98594W        W58097  25.994  16.777  12.874
98595W        W58098  43.356  38.882   0.932
98596W        W58099  17.781   7.278  11.864
98597W        W58100  20.145  23.200   0.271
98598W        W58101  31.149  10.335   1.361
98599W        W58102  38.379   4.422   4.741
98600W        W58103   4.922   7.387  10.052
98601W        W58104   8.239  44.829  11.090
98602W        W58105  32.139   4.824  11.932
98603W        W58106  23.080  25.985   3.234
98604W        W58107  12.632  19.269  14.418
98605W        W58108  22.722  33.610  14.974
98606W        W58109   9.257  35.853  13.815
98607W        W58110  31.621  33.112   3.301
98608W        W58111   7.265  38.901   1.862
98609W        W58112   1.801  19.751  11.118
98610W        W58113  44.855  39.984  13.494
98611W        W58114  26.065   8.869  10.605
98612W        W58115   2.850   8.277  14.325
98613W        W58116  26.161  14.126  11.878
98614W        W58117  18.651  25.071   3.314
98615W        W58118  37.351  15.308   3.824
98616W        W58119  42.496  42.907   2.680
98617W        W58120  20.255  24.578   1.767
98618W        W58121  43.335  33.904  11.982
98619W        W58122  12.336  14.115   2.262
98620W        W58123  34.864  36.994   4.822
98621W        W58124  17.071  31.993  10.047
98622W        W58125  30.964   2.394   4.136
98623W        W58126   5.327  42.425   3.280
98624W        W58127  18.215  25.688  10.509
98625W        W58128  19.230  20.273   0.934
98626W        W58129  11.361   2.722   1.314
98627W        W58130  26.987  40.804  14.463
98628W        W58131  25.515  23.719   2.751
98629W        W58132  11.155  13.671   0.870
98630W        W58133   9.770  14.300   3.698
98631W        W58134   0.940  24.008   2.249
98632W        W58135  16.123  31.556   2.815
98633W        W58136  13.269  18.576  14.484
98634W        W58137  30.909  25.990   5.090
98635W        W58138   2.818  23.210  13.342
98636W        W58139   5.855  28.020   0.810
98637W        W58140   3.947  35.045   1.846
98638W        W58141   5.399  37.472   4.187
98639W        W58142   9.826  23.668  11.915
98640W        W58143   4.923  19.721   2.354
98641W        W58144  31.536  27.544  12.356
98642W        W58145   3.317  21.263   5.152
98643W        W58146  22.683  17.602  12.052
98644W        W58147  33.902  11.672   1.846
98645W        W58148  10.218   4.930   0.418
98646W        W58149  43.355  11.138  11.864
98647W        W58150  42.975   9.665   4.202
98648W        W58151  21.258  21.619   1.898
98649W        W58152  28.059  14.302   2.843
98650W        W58153  27.116   6.880   1.777
98651W        W58154   1.467  23.123   4.250
98652W        W58155  38.891  20.620  14.873
98653W        W58156  16.298   6.352  12.971
98654W        W58157  25.021  28.570   1.337
98655W        W58158  44.311  34.523   4.118
98656W        W58159   8.363  17.123   1.849
98657W        W58160  22.657  16.798  10.549
98658W        W58161   9.392  17.610  13.837
98659W        W58162   6.191  41.930  12.063
98660W        W58163  43.952  24.685  12.026
98661W        W58164  27.545  31.579   3.341
98662W        W58165  15.771  16.718  10.997
98663W        W58166  27.002  33.967  14.328
98664W        W58167  11.334   0.915  14.905
98665W        W58168  41.366  20.130   2.691
98666W        W58169  39.424  36.882   4.240
98667W        W58170  39.480   1.896  12.919
98668W        W58171   7.787  12.354   3.836
98669W        W58172  42.031  20.213  12.966
98670W        W58173   0.870  19.185   3.866
98671W        W58174   7.807  38.535  13.879
98672W        W58175  39.399   8.726  14.842
98673W        W58176   4.775   4.778   3.238
98674W        W58177  27.514  27.555  14.424
98675W        W58178  42.516  43.516   4.659
98676W        W58179  17.557  42.488   1.736
98677W        W58180  28.935  12.163  12.853
98678W        W58181  16.111  24.523   3.333
98679W        W58182   4.320  33.411  13.395
98680W        W58183  27.495  35.371   0.858
98681W        W58184  13.246   5.266  13.046
98682W        W58185   8.880  44.843   0.392
98683W        W58186  17.746   1.826  11.387
98684W        W58187  11.246  27.529   4.128
98685W        W58188  25.139  17.658  10.499
98686W        W58189  24.994  36.913   1.375
98687W        W58190  43.461  14.297   1.900
98688W        W58191  36.361  42.830   4.228
98689W        W58192  17.645   8.229   2.373
98690W        W58193   2.833   3.327  10.588
98691W        W58194  20.101  41.996  13.315
98692W        W58195   8.285  44.348  12.064
98693W        W58196  35.378  31.607   2.399
98694W        W58197   6.699  23.158  11.054
98695W        W58198  28.545  25.490  10.904
98696W        W58199   3.719  29.428   0.960
98697W        W58200  44.925   0.869   1.252
98698W        W58201  21.608  43.880   5.208
98699W        W58202  25.123  33.123   4.829
98700W        W58203  38.345   5.308  12.953
98701W        W58204  28.135  23.608   0.794
98702W        W58205   9.344  11.677  10.622
98703W        W58206  26.610  18.580  14.341
98704W        W58207   3.452  12.267   4.832
98705W        W58208  25.543  35.958  14.992
98706W        W58209  39.960   4.226  12.520
98707W        W58210  10.181  41.317   1.935
98708W        W58211  21.641  19.745   4.801
98709W        W58212  26.539  27.187   2.670
98710W        W58213  18.744  11.859  12.503
98711W        W58214  22.069  18.085  11.577
98712W        W58215  27.942  19.081   1.451
98713W        W58216  42.917   7.762  14.864
98714W        W58217  18.688  23.694  12.503
98715W        W58218  17.222  34.017  13.791
98716W        W58219  14.230   9.770  10.996
98717W        W58220  10.142  27.044  14.955
98718W        W58221  23.108  40.549  11.510
98719W        W58222  34.042  39.520   0.753
98720W        W58223  31.000  17.725  13.404
98721W        W58224   5.913  14.129   4.347
98722W        W58225  44.433  28.503   2.681
98723W        W58226  42.339  43.983   4.783
98724W        W58227  42.499  28.573  11.102
98725W        W58228  42.299  16.573  14.792
98726W        W58229   8.185  31.027  13.432
98727W        W58230   9.716   8.716  12.370
98728W        W58231  34.381   4.700  12.889
98729W        W58232  35.402  41.313  12.911
98730W        W58233  40.317   6.420   2.902
98731W        W58234  38.074  34.108   3.170
98732W        W58235  10.345  31.954  14.478
98733W        W58236  33.889  14.726   2.280
98734W        W58237   3.848  31.998  12.862
98735W        W58238  29.469  26.009  12.367
98736W        W58239  42.835  15.724  14.981
98737W        W58240   3.769   5.428  14.366
98738W        W58241  13.286  13.347  12.842
98739W        W58242  18.768  27.517   0.726
98740W        W58243  17.764  19.553   0.928
98741W        W58244  12.255  13.342  11.485
98742W        W58245  37.415  28.013   1.249
98743W        W58246  32.533   5.304  13.012
98744W        W58247  41.920  42.844   0.756
98745W        W58248  15.770  38.929   0.793
98746W        W58249  29.449  11.709  11.423
98747W        W58250  18.283  21.664  13.924
98748W        W58251  33.573  32.420   5.135
98749W        W58252  17.775  29.431  12.043
98750W        W58253  41.299  41.904  12.349
98751W        W58254  27.088  26.471  12.498
98752W        W58255   6.393  24.554   4.725
98753W        W58256  12.309  27.125   1.880
98754W        W58257   9.651  11.321  11.985
98755W        W58258  18.582   7.717   3.336
98756W        W58259   3.766  18.631   4.234
98757W        W58260  24.618  40.538  11.577
98758W        W58261  24.215  28.594   2.249
98759W        W58262  15.720  33.909   4.746
98760W        W58263  43.463  28.052  12.063
98761W        W58264  36.480  34.961   2.857
98762W        W58265  38.837   7.311  13.485
98763W        W58266  37.536  24.187  13.342
98764W        W58267  34.104   6.247  12.048
98765W        W58268  35.501   7.821  14.328
98766W        W58269  37.540  18.131  11.439
98767W        W58270  14.219  16.184   3.767
98768W        W58271   1.426  39.551   3.701
98769W        W58272  18.165  39.407   0.746
98770W        W58273  35.507  27.024   2.306
98771W        W58274  25.704  36.531  10.904
98772W        W58275  12.176  16.676   3.870
98773W        W58276  10.347  18.188  12.920
98774W        W58277  15.665   4.236  11.996
98775W        W58278  21.701   0.256   3.171
98776W        W58279  17.716  18.702   4.651
98777W        W58280  11.726   7.666  13.019
98778W        W58281   3.269   6.727  12.534
98779W        W58282  43.489  16.089   0.787
98780W        W58283  25.054   4.898   3.732
98781W        W58284  13.797   5.843  13.859
98782W        W58285  10.859  42.789   3.740
98783W        W58286  41.935  18.139  14.826
98784W        W58287  30.422  38.512  11.062
98785W        W58288  21.158  19.655  11.393
98786W        W58289  13.810  42.791   3.840
98787W        W58290  30.442  13.720  14.790
98788W        W58291   5.240  35.041   0.251
98789W        W58292  17.185  36.882   4.801
98790W        W58293  18.625  14.320  10.104
98791W        W58294  30.436  21.065   1.864
98792W        W58295  22.147  40.438  11.039
98793W        W58296  37.383  11.253  12.555
98794W        W58297   2.887  28.982   1.233
98795W        W58298   9.250  24.100  13.055
98796W        W58299   1.358  18.261   1.928
98797W        W58300   3.447   4.858   0.940
98798W        W58301  23.638  33.915   0.373
98799W        W58302  40.405  43.957   4.213
98800W        W58303   1.461  29.433  14.014
98801W        W58304  10.261   9.372  11.541
98802W        W58305  27.540  39.419  11.606
98803W        W58306   5.731  13.827  12.073
98804W        W58307  30.430  28.965  12.886
98805W        W58308  36.406  26.626   2.219
98806W        W58309  11.240   4.932   2.791
98807W        W58310   6.908  21.561   4.809
98808W        W58311   3.777  38.926   1.298
98809W        W58312  39.399  27.190  13.880
98810W        W58313  16.721  28.664   2.764
98811W        W58314  27.968  27.593   2.278
98812W        W58315  10.654  39.955  11.872
98813W        W58316   1.318  21.674  14.428
98814W        W58317  39.416  16.718   1.355
98815W        W58318  24.515   6.184   2.274
98816W        W58319  43.384  30.416  13.035
98817W        W58320  44.817  38.904   2.295
98818W        W58321  32.487   2.284  11.007
98819W        W58322  17.756  36.377  14.362
98820W        W58323  13.335  37.377   4.677
98821W        W58324   3.889   1.836   0.859
98822W        W58325  29.149   2.917   1.411
98823W        W58326   9.286  36.539   1.935
98824W        W58327  35.499   4.320  12.340
98825W        W58328  30.109  12.354   5.125
98826W        W58329  25.027  19.237  11.399
98827W        W58330  21.127  18.057  10.521
98828W        W58331  28.582  38.984  14.369
98829W        W58332  39.995  29.115  13.504
98830W        W58333   1.424   4.342   2.696
98831W        W58334  15.320  23.570   4.723
98832W        W58335  31.544  39.383  11.883
98833W        W58336  39.864   4.920  11.893
98834W        W58337  43.309   8.211  11.899
98835W        W58338  11.806  12.227  11.052
98836W        W58339  27.964  21.539  10.534
98837W        W58340   1.236  13.276  11.100
98838W        W58341  41.523  41.826  11.019
98839W        W58342  40.395  21.525   4.166
98840W        W58343  41.007  39.058   3.733
98841W        W58344  43.350  37.486   0.865
98842W        W58345   5.759  18.580   2.819
98843W        W58346  19.057  31.018  11.022
98844W        W58347  21.530   7.393  14.325
98845W        W58348  15.274  36.514  13.932
98846W        W58349  22.070  25.667  12.945
98847W        W58350   8.693  42.862   0.750
98848W        W58351  19.164   7.380   3.859
98849W        W58352  10.850  25.495   3.262
98850W        W58353  31.488  11.623  14.027
98851W        W58354  20.713  16.696   4.597
98852W        W58355  10.724  18.163   2.869
98853W        W58356  40.542   3.348  12.369
98854W        W58357  19.050  13.293  12.516
98855W        W58358  39.020  37.362  10.961
98856W        W58359  13.295  37.997   1.434
98857W        W58360  21.258   5.316   2.745
98858W        W58361   3.767  29.919  12.474
98859W        W58362  40.004  40.387   4.220
98860W        W58363  31.522  39.055   4.250
98861W        W58364  20.682   3.875  10.424
98862W        W58365  35.076  42.495  14.949
98863W        W58366   6.804  18.643  13.413
98864W        W58367  37.902  31.108  13.962
98865W        W58368  39.549   0.484  12.395
98866W        W58369  14.717  24.052   3.238
98867W        W58370  18.264   7.312   0.857
98868W        W58371  23.057   7.227  13.347
98869W        W58372  28.628  31.573   0.473
98870W        W58373  38.397   3.916   1.915
98871W        W58374  23.655   5.873  11.091
98872W        W58375  26.062   4.837  13.478
98873W        W58376   1.297  44.337  12.481
98874W        W58377  44.818   9.150  12.483
98875W        W58378  25.680  21.518  14.354
98876W        W58379  11.153   6.349  10.416
98877W        W58380   9.721  28.507   2.872
98878W        W58381  32.538   2.857   2.757
98879W        W58382  34.932   7.734  10.992
98880W        W58383   1.896  24.109   1.707
98881W        W58384  33.519  29.538   0.766
98882W        W58385  30.937  35.427   1.441
98883W        W58386   5.875  38.016   0.321
98884W        W58387   6.310  30.634   3.757
98885W        W58388  32.886   7.886  12.076
98886W        W58389  30.525  22.703  13.414
98887W        W58390  44.939  40.932   4.815
98888W        W58391   4.814  10.138   1.286
98889W        W58392  42.876   8.325   4.288
98890W        W58393  29.100  23.092   1.728
98891W        W58394  36.496  38.531  10.474
98892W        W58395  36.487  17.121  13.542
98893W        W58396   9.723   1.294  14.022
98894W        W58397   6.413  42.479   0.872
98895W        W58398  38.862  10.309   1.350
98896W        W58399  36.419  16.653   1.885
98897W        W58400   1.299  26.688   0.401
98898W        W58401  38.027   7.177  14.443
98899W        W58402  24.605   6.731  14.513
98900W        W58403   0.305  17.069  11.968
98901W        W58404  43.818  20.650  13.420
98902W        W58405  18.613  36.382  14.808
98903W        W58406  35.461  21.535  11.485
98904W        W58407  14.651  33.546   0.899
98905W        W58408  31.916  20.544  12.867
98906W        W58409   6.219  14.672  12.936
98907W        W58410   0.320  40.315  10.485
98908W        W58411  41.806  21.574   1.902
98909W        W58412  15.176  13.787  10.626
98910W        W58413   7.250  18.777   2.245
98911W        W58414  27.678  38.480  14.778
98912W        W58415  28.616   4.227   2.809
98913W        W58416  24.066   7.335  11.908
98914W        W58417  41.427  27.026   0.821
98915W        W58418  37.853   4.276  13.955
98916W        W58419  15.617  14.800   3.295
98917W        W58420  36.573  32.486   4.706
98918W        W58421  21.179  33.063   0.248
98919W        W58422  31.085  44.372   2.814
98920W        W58423  20.614  26.530  12.875
98921W        W58424   9.389   9.318   3.870
98922W        W58425  33.094  25.203  14.859
98923W        W58426  16.193  18.209  14.503
98924W        W58427  14.298  28.051  11.470
98925W        W58428  23.497   5.780  10.447
98926W        W58429   7.224   4.406   4.642
98927W        W58430   2.364  17.621  10.476
98928W        W58431  17.723  13.622  13.060
98929W        W58432  42.029  33.998  10.633
98930W        W58433  32.082   2.284   1.770
98931W        W58434  13.272   8.196  12.902
98932W        W58435  22.712  19.638   9.922
98933W        W58436  19.757  38.911  12.388
98934W        W58437  44.434  31.023  14.864
98935W        W58438  17.292  27.177  14.407
98936W        W58439  16.704  35.016  13.860
98937W        W58440  25.046  38.958  13.399
98938W        W58441  39.030  24.067   0.857
98939W        W58442  41.828  43.379   4.754
98940W        W58443   2.829  21.617   0.730
98941W        W58444   2.844  23.215   0.286
98942W        W58445  38.028  16.669   0.779
98943W        W58446  19.701  44.934  13.919
98944W        W58447   3.450  42.004   1.249
98945W        W58448  24.222  30.058   3.848
98946W        W58449  31.491   3.428  12.959
98947W        W58450   8.892  30.931  12.827
98948W        W58451  13.157  26.140  13.970
98949W        W58452  41.801  30.108  11.971
98950W        W58453  25.553   5.861  12.971
98951W        W58454  15.322   5.689   0.849
98952W        W58455  20.534  32.479   2.684
98953W        W58456   7.685  33.437  10.973
98954W        W58457  44.425  31.962  14.351
98955W        W58458  29.149   8.827  10.481
98956W        W58459  16.201  25.000   1.423
98957W        W58460  43.349  22.037   5.682
98958W        W58461  20.048  40.044  14.775
98959W        W58462  20.578  15.242  10.503
98960W        W58463   7.415  37.503   4.226
98961W        W58464  22.573  34.568   2.412
98962W        W58465  12.771  36.880   0.820
98963W        W58466  17.710  22.545  13.002
98964W        W58467  25.116  42.960  12.438
98965W        W58468  26.165   3.770  12.352
98966W        W58469  39.048  10.786   0.837
98967W        W58470  15.265  19.621  14.937
98968W        W58471   4.323   7.368  14.279
98969W        W58472  36.577  28.948  13.818
98970W        W58473  10.304  20.580   0.903
98971W        W58474  12.799  17.284  10.462
98972W        W58475   0.461  10.299   0.829
98973W        W58476  30.514  15.682  14.842
98974W        W58477  20.131  11.276   4.771
98975W        W58478  22.590  12.207  13.381
98976W        W58479  32.584   5.825   2.355
98977W        W58480  14.681  41.869   2.293
98978W        W58481   4.803  11.688   2.833
98979W        W58482   6.881  23.558   2.402
98980W        W58483   1.931  18.157  10.991
98981W        W58484   3.948  37.462  12.967
98982W        W58485  11.760  14.723   5.312
98983W        W58486  18.584  39.954  10.602
98984W        W58487  40.004  40.801   4.130
98985W        W58488   2.374  24.686  13.472
98986W        W58489  33.066   5.358   2.182
98987W        W58490  28.577  40.518   0.913
98988W        W58491   3.870  43.281  12.050
98989W        W58492  31.405  17.781  14.862
98990W        W58493  17.695   8.678   1.384
98991W        W58494  21.201   1.472  13.983
98992W        W58495  43.809  23.497  14.853
98993W        W58496  32.546  11.208   1.307
98994W        W58497  14.191  21.145   5.201
98995W        W58498  23.684  25.616   2.850
98996W        W58499  10.798  27.100   4.281
98997W        W58500  31.075  32.420   1.348
98998W        W58501  24.082  16.308   1.388
98999W        W58502  20.029   9.873  10.625
99000W        W58503  32.005  11.142   0.880
99001W        W58504   6.322   0.383   0.764
99002W        W58505   3.718   2.231   3.185
99003W        W58506   4.830  42.879   3.177
99004W        W58507  19.052  44.302  13.828
99005W        W58508  28.063  31.975  10.148
99006W        W58509  14.687   0.789   0.462
99007W        W58510   4.387  30.056  10.945
99008W        W58511  38.015  17.132   4.150
99009W        W58512  15.715  44.468  14.303
99010W        W58513  20.244  11.306   0.342
99011W        W58514  13.679   0.977   0.352
99012W        W58515   6.217   9.289  13.406
99013W        W58516  41.394  31.982  13.486
99014W        W58517  21.095  20.554  14.995
99015W        W58518  22.536  32.002   4.673
99016W        W58519  33.926   9.286   3.355
99017W        W58520  32.889   4.357  12.556
99018W        W58521  15.776  43.015  13.472
99019W        W58522  16.680  23.029   1.385
99020W        W58523  31.964  12.622   2.868
99021W        W58524  41.969  24.704   2.418
99022W        W58525  24.032  19.695  10.411
99023W        W58526   0.795   7.764   2.188
99024W        W58527  23.591  15.208  13.344
99025W        W58528  20.182  39.916  13.955
99026W        W58529  15.772  29.578   4.204
99027W        W58530  16.294  43.911  11.511
99028W        W58531  43.332  39.504   2.369
99029W        W58532   9.730  36.554   1.729
99030W        W58533  40.816  31.505   3.169
99031W        W58534  22.230  29.516  10.976
99032W        W58535  23.519  31.033   1.255
99033W        W58536  44.307   0.353  13.533
99034W        W58537  39.370  22.155   2.373
99035W        W58538  31.527  20.240   4.719
99036W        W58539  28.069  25.471  14.295
99037W        W58540   3.255  27.521  14.850
99038W        W58541   3.827  32.042  14.905
99039W        W58542   0.335  37.081  12.030
99040W        W58543  20.598  27.532   1.334
99041W        W58544  42.418  44.465  13.548
99042W        W58545  39.013  19.595   2.806
99043W        W58546  24.652  23.228  14.393
99044W        W58547   1.886  37.572  11.973
99045W        W58548   2.381  18.264  10.480
99046W        W58549   2.417  33.487  12.961
99047W        W58550  42.472  13.827   4.318
99048W        W58551  23.507  42.492   2.378
99049W        W58552  22.082  30.990   0.931
99050W        W58553  33.546  24.617   5.291
99051W        W58554   5.781  18.592   3.165
99052W        W58555  39.554  35.547  14.016
99053W        W58556  21.697  35.860  12.352
99054W        W58557   6.314  31.980   0.333
99055W        W58558  27.043  21.112  12.561
99056W        W58559  15.657  37.910  14.993
99057W        W58560   7.375  13.225  14.813
99058W        W58561  17.279  27.188   4.210
99059W        W58562  17.636  42.317  12.928
99060W        W58563  39.993  35.856   0.839
99061W        W58564   0.397   8.860  14.812
99062W        W58565  38.339  27.048   1.764
99063W        W58566  16.099  15.665  10.963
99064W        W58567   6.765  29.634  11.576
99065W        W58568  41.372  22.660  13.833
99066W        W58569  13.121  37.483   0.461
99067W        W58570  17.240  25.500  11.868
99068W        W58571  44.316  44.959   4.829
99069W        W58572  38.890  25.491  12.461
99070W        W58573  15.239   4.854   0.253
99071W        W58574   3.343  24.014   1.854
99072W        W58575   8.176  12.640  12.841
99073W        W58576  32.473  34.468   0.837
99074W        W58577  25.989  44.880   4.803
99075W        W58578  39.019  20.672   4.633
99076W        W58579  23.634   9.357  13.807
99077W        W58580   6.772  24.145   0.320
99078W        W58581   2.922  19.066   4.811
99079W        W58582  41.870  18.167  13.978
99080W        W58583  15.679  24.568   2.787
99081W        W58584  15.216  33.593   0.956
99082W        W58585   1.854  18.597   1.330
99083W        W58586   1.296   5.741   0.473
99084W        W58587   4.417  27.099  12.376
99085W        W58588  25.208  39.536  13.431
99086W        W58589  41.430   8.284   3.370
99087W        W58590   3.768  29.126  10.418
99088W        W58591  14.094  35.579   3.829
99089W        W58592  29.038  27.124   9.628
99090W        W58593  28.043   8.750  11.606
99091W        W58594   4.288  28.473   2.260
99092W        W58595  34.432  35.061  12.375
99093W        W58596   7.416  13.715   1.868
99094W        W58597  35.102  36.004  14.763
99095W        W58598   5.846  36.576   0.456
99096W        W58599  17.731   5.286   3.762
99097W        W58600  44.963  29.525  10.889
99098W        W58601  31.135  17.305  11.485
99099W        W58602  31.096  36.945   0.245
99100W        W58603   7.817   8.804  11.019
99101W        W58604  14.690   3.258   4.663
99102W        W58605  22.050  11.631   1.407
99103W        W58606  12.337  33.417   3.278
99104W        W58607  32.579  32.519   1.366
99105W        W58608   6.288  11.747  11.404
99106W        W58609  23.584  41.853   0.359
99107W        W58610  42.472  16.292   3.867
99108W        W58611  33.981  36.011   1.279
99109W        W58612  31.473   6.231   1.841
99110W        W58613  39.928   6.680   3.290
99111W        W58614  13.684   4.842   4.659
99112W        W58615  30.155  19.568  14.433
99113W        W58616   7.773  41.457  12.461
99114W        W58617  27.113  23.705  11.973
99115W        W58618  24.211  13.619  14.354
99116W        W58619   4.212   8.854   2.359
99117W        W58620  26.634  13.295   4.291
99118W        W58621  17.104  27.650  14.298
99119W        W58622   0.869  38.375  13.023
99120W        W58623  20.525   3.847   0.894
99121W        W58624  34.927  37.026   1.803
99122W        W58625  24.549  30.570  12.965
99123W        W58626  24.598   2.287   2.767
99124W        W58627  23.567  40.913  14.840
99125W        W58628  23.626  31.135   2.262
99126W        W58629  37.000  29.130   4.294
99127W        W58630  18.227  17.168  13.791
99128W        W58631   4.859  37.031   2.664
99129W        W58632  24.163  17.228   0.759
99130W        W58633   4.392  31.543  14.473
99131W        W58634  37.516   3.913   2.380
99132W        W58635  15.205  10.298  12.981
99133W        W58636  19.127   6.232  13.996
99134W        W58637   4.906  33.622  13.876
99135W        W58638  35.359   8.277  14.879
99136W        W58639  22.661  40.473  12.079
99137W        W58640   6.778  41.981  13.935
99138W        W58641  14.655  38.969  13.518
99139W        W58642  10.790  27.527  10.408
99140W        W58643  14.702  28.520  13.469
99141W        W58644  32.630  37.900  14.992
99142W        W58645  32.026   3.769   4.757
99143W        W58646  23.621  38.554  12.395
99144W        W58647  11.795  38.983   0.242
99145W        W58648   5.788  42.525  13.328
99146W        W58649  23.994  41.011  14.927
99147W        W58650  26.991  22.731   2.806
99148W        W58651  25.534  31.578   0.921
99149W        W58652   6.190  28.067  10.018
99150W        W58653  33.576   7.766   3.365
99151W        W58654  33.593  17.737  10.609
99152W        W58655  11.678  37.012   4.235
99153W        W58656  41.876  19.135   3.744
99154W        W58657  34.916  34.966   1.402
99155W        W58658  39.996   4.871  12.506
99156W        W58659  43.794  32.611   0.350
99157W        W58660  28.158  21.176  14.949
99158W        W58661  36.395  19.103   4.331
99159W        W58662   3.748  13.792  13.974
99160W        W58663   7.686   7.411   2.858
99161W        W58664  28.160   1.319  10.585
99162W        W58665  31.045  25.150   3.188
99163W        W58666  27.991  21.111  12.492
99164W        W58667  13.748   1.901  12.963
99165W        W58668  43.417  11.776  12.926
99166W        W58669   4.740  10.154  14.838
99167W        W58670   8.168  17.658   1.422
99168W        W58671  43.768  27.072   1.289
99169W        W58672  22.666  42.851   2.207
99170W        W58673   7.398  17.599   0.264
99171W        W58674  32.441   6.193   2.298
99172W        W58675   7.209  28.587  13.024
99173W        W58676  11.326  13.131   0.774
99174W        W58677  35.962  13.730  13.355
99175W        W58678  35.434  33.887  13.484
99176W        W58679  34.921  29.534   2.780
99177W        W58680  15.151  32.537   3.761
99178W        W58681  36.411   4.734   0.440
99179W        W58682  40.928  33.112  11.046
99180W        W58683  13.155  14.103   1.219
99181W        W58684  25.055  44.338   3.187
99182W        W58685  34.507  24.619   3.309
99183W        W58686  35.981  40.807  10.511
99184W        W58687  39.058  23.713   0.876
99185W        W58688  15.586  20.086  14.363
99186W        W58689   9.217  37.872  11.500
99187W        W58690   8.168  42.942  10.406
99188W        W58691  28.678   5.282  13.792
99189W        W58692  11.710  40.830  11.861
99190W        W58693  26.081  21.583   2.182
99191W        W58694   4.224  11.317  13.039
99192W        W58695   4.749   7.810   2.758
99193W        W58696  40.455   9.742   4.785
99194W        W58697  19.764  24.010  11.977
99195W        W58698  40.952  41.947  12.371
99196W        W58699   1.417   9.283   4.259
99197W        W58700  41.996  22.581   0.245
99198W        W58701  19.701  32.999  13.412
99199W        W58702  14.641   2.733   3.634
99200W        W58703  24.997   2.313  12.527
99201W        W58704  18.714  17.773   1.242
99202W        W58705  15.311   4.707  10.112
99203W        W58706  40.926  44.398   2.668
99204W        W58707  31.058  27.956  12.859
99205W        W58708  17.073  29.031  11.421
99206W        W58709  36.956  21.054  10.407
99207W        W58710  27.466   3.780   4.767
99208W        W58711   4.281  36.077  12.833
99209W        W58712  16.188  25.058  14.846
99210W        W58713   7.218  12.634  12.947
99211W        W58714  11.804   5.725   1.316
99212W        W58715  19.591   6.259   0.296
99213W        W58716  31.968  38.035  14.907
99214W        W58717  25.185  31.105  12.034
99215W        W58718  38.911  10.153  10.982
99216W        W58719  19.140  13.633  10.458
99217W        W58720  17.262  31.559  14.835
99218W        W58721  26.055  44.315  13.999
99219W        W58722  44.458  31.106  13.857
99220W        W58723  29.433  17.600   2.367
99221W        W58724  39.408   5.737   2.667
99222W        W58725  19.625  28.089   1.281
99223W        W58726  21.139  10.667   1.929
99224W        W58727  16.166   1.787  12.945
99225W        W58728   4.909  19.196   4.829
99226W        W58729  30.488  22.016  13.491
99227W        W58730  17.604  16.595   0.776
99228W        W58731   4.217  14.293  14.969
99229W        W58732  18.187  43.901  14.945
99230W        W58733  40.514   6.268   2.237
99231W        W58734  34.586  27.483   1.369
99232W        W58735  28.124  25.977  13.919
99233W        W58736   2.911  34.443  13.877
99234W        W58737  33.561  39.947  10.963
99235W        W58738  10.165  25.479  11.092
99236W        W58739  26.025   3.764   4.347
99237W        W58740  42.918  32.579   4.206
99238W        W58741  20.139   6.869   0.358
99239W        W58742  36.847   5.280   9.969
99240W        W58743  28.152  28.012  12.454
99241W        W58744  29.574  33.900  10.516
99242W        W58745  36.912   2.371  11.893
99243W        W58746  10.308  29.044  11.032
99244W        W58747  24.229  18.687  11.380
99245W        W58748  40.438   4.344  14.022
99246W        W58749  42.018  23.547  13.412
99247W        W58750  33.569   3.322  11.003
99248W        W58751  16.576  36.855   4.752
99249W        W58752  39.546  38.469  13.004
99250W        W58753  12.326  11.327  11.576
99251W        W58754  12.713  27.574  12.999
99252W        W58755  33.413  37.067  14.989
99253W        W58756  38.986  42.451  14.796
99254W        W58757   1.350  35.939  11.064
99255W        W58758  12.269  40.455  13.503
99256W        W58759  19.762  40.032  13.484
99257W        W58760  38.410  39.008  11.869
99258W        W58761  23.040  27.964   3.167
99259W        W58762   0.316  12.285   1.842
99260W        W58763  37.510  25.541   4.684
99261W        W58764  14.191  22.194   0.292
99262W        W58765  13.283  35.979  10.942
99263W        W58766  42.975   8.898  11.023
99264W        W58767  11.839  33.093  12.543
99265W        W58768  16.589  44.890   4.201
99266W        W58769  15.726  11.779  14.389
99267W        W58770  18.273  14.299  14.986
99268W        W58771   3.850  13.674  13.469
99269W        W58772  39.921  28.675  10.582
99270W        W58773  29.632  37.573   2.717
99271W        W58774  21.253  30.495   4.812
99272W        W58775  14.674  18.087  13.403
99273W        W58776  28.946   2.350   4.644
99274W        W58777  21.553  16.112   0.403
99275W        W58778  41.335  13.689  11.896
99276W        W58779  43.832  26.161   2.258
99277W        W58780  41.509  13.282   0.247
99278W        W58781   2.422  12.302  13.951
99279W        W58782  17.290  37.338  14.947
99280W        W58783   0.768   7.417  10.095
99281W        W58784  28.519  33.021   1.262
99282W        W58785  30.627  38.563   4.148
99283W        W58786   0.887  42.997  13.308
99284W        W58787   6.718  35.576  11.981
99285W        W58788  41.422  21.692   3.202
99286W        W58789  24.221  36.857   0.366
99287W        W58790  28.496  38.985   3.268
99288W        W58791  35.537  30.066  12.038
99289W        W58792  29.108   3.881  11.472
99290W        W58793  30.527   0.879   3.195
99291W        W58794  35.517  43.925  11.919
99292W        W58795  22.565   4.788   1.910
99293W        W58796  42.465   1.797  10.640
99294W        W58797  21.573  42.492  13.321
99295W        W58798  39.949  32.044  11.890
99296W        W58799  43.768  36.905   1.764
99297W        W58800  17.770  33.479   4.602
99298W        W58801   1.969  25.135  12.342
99299W        W58802  26.602  32.141  12.946
99300W        W58803  14.275  16.119  13.380
99301W        W58804  33.897  15.714   1.285
99302W        W58805  16.294   4.276  13.514
99303W        W58806  18.192  12.301  11.494
99304W        W58807  12.840  21.601   4.229
99305W        W58808  38.371   1.313  11.007
99306W        W58809  43.481   6.292   1.900
99307W        W58810  39.809  39.949   3.221
99308W        W58811  32.487  15.329   2.739
99309W        W58812   9.342  20.736  14.901
99310W        W58813  10.383  13.141  10.964
99311W        W58814  14.773   4.425   3.267
99312W        W58815   7.174  12.639  10.990
99313W        W58816  20.052  36.842  13.969
99314W        W58817  31.620   7.178  12.946
99315W        W58818   4.931  27.511  11.126
99316W        W58819  31.090   0.889  11.580
99317W        W58820  31.470  33.423  10.476
99318W        W58821  42.452  30.104   4.224
99319W        W58822  31.913  13.630  14.853
99320W        W58823  42.995  17.243  14.340
99321W        W58824  35.059  38.392   3.308
99322W        W58825  38.020  21.598   2.860
99323W        W58826  36.923  22.664  11.518
99324W        W58827  28.993   0.811   2.745
99325W        W58828  41.855   9.670  11.489
99326W        W58829  32.454  27.480  12.001
99327W        W58830   9.383  25.190   2.864
99328W        W58831  15.213  44.375   0.789
99329W        W58832  35.567  23.143  12.911
99330W        W58833   4.852  41.022   1.694
99331W        W58834  26.565  25.014  10.406
99332W        W58835   6.370  41.319  14.879
99333W        W58836  15.742  19.672  12.513
99334W        W58837  28.653  34.508  11.997
99335W        W58838   9.304   3.366  13.359
99336W        W58839   3.799  31.508  13.422
99337W        W58840  41.455  18.179   3.314
99338W        W58841  41.968   1.319  14.314
99339W        W58842  23.171  24.681  12.843
99340W        W58843  21.525  14.243  11.964
99341W        W58844  44.945   7.279   4.201
99342W        W58845  21.061  23.609  11.925
99343W        W58846  44.489  27.958   2.320
99344W        W58847  26.470  15.646   1.702
99345W        W58848  43.339   6.393   1.359
99346W        W58849  35.081   5.694   4.223
99347W        W58850  16.139  36.914   3.271
99348W        W58851  16.784  30.567   1.389
99349W        W58852  24.127   0.363   4.258
99350W        W58853   2.732  24.630   2.316
99351W        W58854  37.483  13.126  12.380
99352W        W58855  36.358  42.980   2.396
99353W        W58856   9.296  36.004  11.424
99354W        W58857   1.891  17.104   3.650
99355W        W58858   2.741  35.445  12.345
99356W        W58859  41.345  11.178   4.300
99357W        W58860  14.189  27.138  14.418
99358W        W58861   9.764  14.788   1.764
99359W        W58862  10.803  40.388  12.546
99360W        W58863  42.002  41.804   2.188
99361W        W58864  25.211   9.239  10.553
99362W        W58865  30.468   1.896  14.478
99363W        W58866  31.618  17.757   1.877
99364W        W58867   5.429  24.093   3.728
99365W        W58868  29.524  33.403  11.428
99366W        W58869  24.627   5.300  12.974
99367W        W58870  10.694  18.783  13.315
99368W        W58871  32.517  10.297  11.496
99369W        W58872  17.213  23.675  14.347
99370W        W58873  13.312   5.290   3.289
99371W        W58874  34.922   7.290   1.706
99372W        W58875  23.120  27.465   4.133
99373W        W58876  27.175  10.771   0.854
99374W        W58877   4.905  38.355   3.836
99375W        W58878  29.627  16.629  10.521
99376W        W58879  44.784   6.772  13.487
99377W        W58880   4.221  37.437   0.966
99378W        W58881  16.760  28.138   0.830
99379W        W58882  33.624  25.573   4.342
99380W        W58883  17.620  12.241  13.864
99381W        W58884   9.179  17.744  11.891
99382W        W58885   4.266  36.915   3.867
99383W        W58886   7.753  42.861   1.370
99384W        W58887  43.298  40.940   1.880
99385W        W58888  17.634   4.443  14.898
99386W        W58889  36.070  26.074   2.415
99387W        W58890  35.098  12.225   3.729
99388W        W58891  16.101  19.583   4.155
99389W        W58892  34.077   7.176  10.613
99390W        W58893   5.384  40.913  12.088
99391W        W58894  36.947  19.600  11.093
99392W        W58895   2.923   5.231   4.825
99393W        W58896   0.284  13.776   4.816
99394W        W58897  23.560  35.079   3.774
99395W        W58898   8.389  44.466  12.554
99396W        W58899  13.350  12.191   0.838
99397W        W58900  44.414  29.169  11.883
99398W        W58901   8.225  27.139  14.852
99399W        W58902   8.881  25.979   1.272
99400W        W58903   3.279  44.413   3.372
99401W        W58904  42.375  39.341   4.323
99402W        W58905  16.216   9.884  12.021
99403W        W58906   4.794  33.403   9.934
99404W        W58907  41.512  22.239  13.367
99405W        W58908  38.073  41.787   2.182
99406W        W58909   9.656  21.087  10.128
99407W        W58910  17.715  20.589  12.886
99408W        W58911  22.134  11.727   0.726
99409W        W58912  43.444   5.888   1.741
99410W        W58913  34.445  15.128  13.062
99411W        W58914   8.261  32.631   4.311
99412W        W58915  28.170  33.386   0.423
99413W        W58916  24.526  33.917  12.879
99414W        W58917  31.132  14.636   0.873
99415W        W58918  38.479  34.980  12.869
99416W        W58919   1.327  44.825   4.234
99417W        W58920  30.606  30.615  11.999
99418W        W58921  40.525  18.210  14.779
99419W        W58922  20.047  21.605  13.989
99420W        W58923  10.302  42.010   2.731
99421W        W58924  20.213  39.515   1.778
99422W        W58925  31.089  44.009   2.329
99423W        W58926  39.864  36.965  13.529
99424W        W58927   4.906  22.672  13.329
99425W        W58928  43.994  19.748   3.386
99426W        W58929  16.713   9.694   2.731
99427W        W58930  33.608  32.418  12.507
99428W        W58931   0.266  18.767  10.429
99429W        W58932   3.768   9.754   0.390
99430W        W58933  11.264  30.513  13.956
99431W        W58934  28.036  11.310  14.025
99432W        W58935  34.896  11.277  14.870
99433W        W58936  28.169   2.255  13.925
99434W        W58937  31.579   8.280   4.815
99435W        W58938  29.482  39.353  10.013
99436W        W58939  36.584  39.499   4.267
99437W        W58940  23.713  16.803  14.924
99438W        W58941  21.620  11.298  12.015
99439W        W58942  15.112   1.765   4.738
99440W        W58943  32.554   8.761   0.731
99441W        W58944   3.904  44.413  10.044
99442W        W58945  28.591  16.182  14.836
99443W        W58946  31.153  30.971  12.503
99444W        W58947  40.839  25.699   2.837
99445W        W58948  16.570  18.125  13.999
99446W        W58949  29.583  36.371   9.634
99447W        W58950  32.056  16.289  11.565
99448W        W58951  41.514   3.400   5.321
99449W        W58952  18.050  34.488  14.020
99450W        W58953  33.483  20.175  11.470
99451W        W58954  42.290  32.981  13.932
99452W        W58955  14.254   0.344  14.382
99453W        W58956  33.006   4.878  14.426
99454W        W58957  24.595   5.406  14.992
99455W        W58958   3.395  24.217   3.850
99456W        W58959  20.617  41.858   4.623
99457W        W58960  12.774  41.809   0.474
99458W        W58961  35.501  39.881  14.887
99459W        W58962  31.406  39.052   0.271
99460W        W58963   0.798  24.630   3.710
99461W        W58964  16.586  24.993  14.861
99462W        W58965   8.767  40.932   2.228
99463W        W58966  34.954   7.721  13.802
99464W        W58967   7.667  28.986   0.434
99465W        W58968  21.751  15.261  14.952
99466W        W58969  23.192  44.499  14.825
99467W        W58970  30.994   2.237  12.910
99468W        W58971  37.856   1.388   0.864
99469W        W58972  16.579  23.507  10.597
99470W        W58973   2.445  32.626  11.390
99471W        W58974  27.673  11.657  12.921
99472W        W58975   3.440  17.103   5.276
99473W        W58976   1.241  17.284   2.397
99474W        W58977  28.097  36.393  12.882
99475W        W58978  31.961   3.337  10.635
99476W        W58979  14.733  38.379   1.760
99477W        W58980   3.447  15.229   3.203
99478W        W58981  26.670   1.338   2.678
99479W        W58982  27.634  29.146   1.746
99480W        W58983  19.133  29.434  13.864
99481W        W58984  32.600   7.369  14.800
99482W        W58985  33.442  33.883   3.769
99483W        W58986  38.870  23.157   2.355
99484W        W58987  44.367   4.403   0.449
99485W        W58988  40.478  21.140  11.449
99486W        W58989  30.467  41.821   3.809
99487W        W58990  17.199  16.644   4.745
99488W        W58991   8.700  15.653  12.961
99489W        W58992  14.226   5.212   4.648
99490W        W58993  17.585  24.095   0.834
99491W        W58994  28.982  34.935   2.776
99492W        W58995  37.957  35.601   0.910
99493W        W58996  37.482  11.648   5.201
99494W        W58997   8.690  34.099  13.379
99495W        W58998  36.466   0.934  10.906
99496W        W58999  42.991  42.429   1.832
99497W        W59000  37.349   1.475  12.075
99498W        W59001  35.885  38.354  11.432
99499W        W59002  39.384  41.400   4.339
99500W        W59003  14.752  23.140  13.053
99501W        W59004  40.819  36.475  12.399
99502W        W59005  27.499  40.327  13.352
99503W        W59006  31.539  38.326   4.722
99504W        W59007   8.162  31.062   4.796
99505W        W59008  10.345  26.976   4.329
99506W        W59009  17.121  25.149  14.931
99507W        W59010  35.867  24.117   2.330
99508W        W59011  39.858   6.846  10.419
99509W        W59012  15.751  14.827   4.625
99510W        W59013  28.579  24.206  11.374
99511W        W59014  20.696  37.986  14.374
99512W        W59015  21.729  28.094  12.477
99513W        W59016  43.954  19.087   3.315
99514W        W59017  36.363   8.738   3.716
99515W        W59018  17.631  16.647   2.211
99516W        W59019  32.089  21.157   0.836
99517W        W59020  28.947  14.299  14.962
99518W        W59021  10.844  33.576  14.321
99519W        W59022  23.532  27.509  13.489
99520W        W59023  17.632  22.048   1.222
99521W        W59024  40.302  10.380   4.726
99522W        W59025   1.855  18.755   4.778
99523W        W59026  11.707  17.189   0.413
99524W        W59027   1.863  43.961   2.783
99525W        W59028  36.877  20.138  13.983
99526W        W59029  24.175  22.197  12.916
99527W        W59030  36.544   5.862   1.726
99528W        W59031  41.493  28.117   1.879
99529W        W59032  36.979  22.565  13.909
99530W        W59033  34.060  38.857   3.277
99531W        W59034   8.356   1.818  10.906
99532W        W59035  28.632  42.429  12.880
99533W        W59036  32.961  15.308  12.954
99534W        W59037  39.327  34.605   2.850
99535W        W59038  27.126  22.534   2.295
99536W        W59039   5.338  19.711   1.739
99537W        W59040   5.773  41.307  10.899
99538W        W59041   7.672   9.165   3.644
99539W        W59042  37.830  18.285   1.909
99540W        W59043  14.642  27.156   0.254
99541W        W59044  12.782   5.926  13.861
99542W        W59045  21.613  10.355   2.736
99543W        W59046  26.019  35.496   3.198
99544W        W59047  31.577  42.791  14.345
99545W        W59048  18.054  21.040  13.004
99546W        W59049  20.242  22.038  13.487
99547W        W59050  12.755   4.229   1.451
99548W        W59051   4.751  26.570   9.926
99549W        W59052  36.943  15.760  12.828
99550W        W59053   7.279  29.929   2.821
99551W        W59054  13.179  13.191  10.984
99552W        W59055   0.392  18.686   3.634
99553W        W59056  20.200   6.235   1.300
99554W        W59057  13.617  33.546  12.912
99555W        W59058  15.122  17.561   2.740
99556W        W59059   8.847  32.536  10.593
99557W        W59060  19.061  41.877  13.336
99558W        W59061  25.486  43.991  14.022
99559W        W59062   2.409   0.286   2.854
99560W        W59063  23.101  41.507  13.792
99561W        W59064  38.895  22.140  14.325
99562W        W59065   8.857  28.145  12.369
99563W        W59066  39.509  32.079  11.055
99564W        W59067  29.438  41.003   1.347
99565W        W59068  31.526   4.776   2.722
99566W        W59069  21.073  43.012   3.161
99567W        W59070  43.864  26.650  14.362
99568W        W59071  12.258  35.928  11.038
99569W        W59072   0.945  38.970   4.699
99570W        W59073  34.498  16.264   2.860
99571W        W59074   8.308  26.073  12.065
99572W        W59075  14.680   5.901   3.262
99573W        W59076  22.057  30.624  12.385
99574W        W59077   2.940  22.103   0.900
99575W        W59078  39.545  41.355   1.745
99576W        W59079  18.074  27.167   3.203
99577W        W59080   2.322  28.643  14.435
99578W        W59081   9.303  18.096  11.424
99579W        W59082  19.076  10.293  14.362
99580W        W59083   8.871  18.071  10.963
99581W        W59084  37.423  37.858   1.878
99582W        W59085   4.307  44.498   2.899
99583W        W59086   1.756  44.312   3.202
99584W        W59087  36.439  41.381  12.567
99585W        W59088  23.115  44.767   2.803
99586W        W59089  13.193  15.171   2.179
99587W        W59090  10.279  10.174   5.187
99588W        W59091  23.985  42.409  13.321
99589W        W59092  26.462   0.427   2.683
99590W        W59093  36.422  32.518  11.993
99591W        W59094  34.883  15.706   4.241
99592W        W59095  44.496  18.658   3.264
99593W        W59096  36.861   6.377   1.929
99594W        W59097   2.755  43.967  12.510
99595W        W59098  26.957   1.284  13.346
99596W        W59099  15.147  29.057   1.294
99597W        W59100   0.313  25.580  10.438
99598W        W59101  20.666  19.209  12.342
99599W        W59102  11.228  15.241   4.218
99600W        W59103  11.654  18.648  10.626
99601W        W59104  16.280   8.167  13.427
99602W        W59105  43.923  10.263   1.820
99603W        W59106  19.137   1.366   1.418
99604W        W59107  14.818  16.244   1.870
99605W        W59108  28.485  13.741   4.655
99606W        W59109  43.372  27.007   9.994
99607W        W59110  43.306  12.720  12.564
99608W        W59111   2.958  41.477   3.761
99609W        W59112  13.772  38.838   1.299
99610W        W59113   4.260  40.859  11.934
99611W        W59114  11.207  20.083   3.817
99612W        W59115   3.316  37.882  12.053
99613W        W59116  32.953   5.724  11.563
99614W        W59117   0.475  31.115  14.490
99615W        W59118  35.985  23.034   0.935
99616W        W59119   5.917  27.644  12.892
99617W        W59120   7.411  34.532  14.485
99618W        W59121  13.804  11.841   3.265
99619W        W59122  34.596  20.226  11.446
99620W        W59123  29.989  21.199   4.221
99621W        W59124  42.391   6.732   9.509
99622W        W59125  22.673  38.861   2.396
99623W        W59126  16.101  42.306   4.650
99624W        W59127  34.418  41.881  13.837
99625W        W59128  28.969  37.343  14.337
99626W        W59129   7.877  30.522  12.364
99627W        W59130  40.429  23.503   2.811
99628W        W59131   0.971   9.804   3.343
99629W        W59132  13.251  18.272   4.781
99630W        W59133  38.530  16.286   1.324
99631W        W59134   5.826  19.666   1.879
99632W        W59135  27.528  36.977   2.746
99633W        W59136  32.059  14.325   0.806
99634W        W59137  13.703   3.774   1.711
99635W        W59138  24.015  21.748  14.811
99636W        W59139  35.991   8.686   0.774
99637W        W59140  35.936  27.983  13.370
99638W        W59141  35.108  37.363  14.316
99639W        W59142   8.343  42.834  13.018
99640W        W59143  25.063  35.000   3.311
99641W        W59144  30.651  14.640   2.668
99642W        W59145   1.320  24.654  13.412
99643W        W59146   4.410   3.332  14.773
99644W        W59147  18.266  29.575  11.456
99645W        W59148  42.306   0.986   2.835
99646W        W59149  24.512  42.025   4.143
99647W        W59150  12.139   0.370  13.344
99648W        W59151  34.579   6.195   4.136
99649W        W59152   5.391   4.398  12.988
99650W        W59153  19.747  41.337   0.888
99651W        W59154  32.065  31.983  11.376
99652W        W59155   9.269  25.094  12.832
99653W        W59156  21.746  22.252   4.152
99654W        W59157   2.809  44.956   3.706
99655W        W59158   2.899  26.141   2.863
99656W        W59159  13.822  27.122   3.208
99657W        W59160  32.885  34.884  13.941
99658W        W59161  13.616   0.936  14.793
99659W        W59162   3.274  15.185  13.957
99660W        W59163  31.898  35.382  14.794
99661W        W59164  19.571  33.461  12.913
99662W        W59165   1.978  32.985   0.847
99663W        W59166  43.905  31.058  13.027
99664W        W59167  22.230   4.762   4.734
99665W        W59168  25.534  35.382  13.954
99666W        W59169  27.669  30.971  11.552
99667W        W59170  18.627  24.207   0.340
99668W        W59171  20.634  26.161  12.460
99669W        W59172   5.215  41.324   1.933
99670W        W59173  11.841   8.666   1.705
99671W        W59174  28.184   8.900  14.823
99672W        W59175   7.739  29.069  14.884
99673W        W59176  28.594  44.273  11.971
99674W        W59177  41.480  23.123   0.288
99675W        W59178   4.764  42.450   4.787
99676W        W59179   3.928  42.016  10.422
99677W        W59180   2.816  13.143  13.939
99678W        W59181  21.589  19.052   0.937
99679W        W59182  21.642  40.447  13.973
99680W        W59183  10.218   7.689   3.752
99681W        W59184  29.553   0.916  12.832
99682W        W59185  39.021  13.621  12.443
99683W        W59186   5.712  19.244  11.986
99684W        W59187  16.747  29.000  12.441
99685W        W59188  17.072   8.696   2.395
99686W        W59189  10.855  42.995   4.309
99687W        W59190  10.219  27.175   2.895
99688W        W59191  25.121   1.874   9.972
99689W        W59192  30.027  28.933   2.679
99690W        W59193  20.052  26.530  10.009
99691W        W59194  26.633  37.037   5.290
99692W        W59195   0.889  22.187  14.317
99693W        W59196  19.657   0.897   3.150
99694W        W59197  19.574   5.245  14.292
99695W        W59198   6.718  30.144  13.910
99696W        W59199  14.628  38.973   3.661
99697W        W59200   5.239  25.068   0.270
99698W        W59201   1.899  13.143  11.070
99699W        W59202  25.695  37.362   2.417
99700W        W59203  25.646   0.453  14.465
99701W        W59204  27.556  31.543  12.078
99702W        W59205  44.905  29.424  14.925
99703W        W59206  32.529   7.281  12.996
99704W        W59207  21.635  21.521  12.901
99705W        W59208   1.452  29.161  10.422
99706W        W59209  26.184  18.670   0.917
99707W        W59210  44.374  13.132   1.811
99708W        W59211  44.410  29.046   1.410
99709W        W59212   0.829  12.802  11.572
99710W        W59213  13.212  15.282  10.587
99711W        W59214  20.549  40.362   2.863
99712W        W59215  34.385  43.438  12.044
99713W        W59216   8.194  12.789   4.141
99714W        W59217  15.621  13.811   1.829
99715W        W59218  24.114  36.406   3.186
99716W        W59219  30.049  17.103   3.207
99717W        W59220  27.041   7.873   4.728
99718W        W59221  13.107   6.387  11.403
99719W        W59222  20.616  14.140   1.391
99720W        W59223   8.884  33.506   1.802
99721W        W59224  42.033  22.669   1.217
99722W        W59225   1.244  17.652   4.794
99723W        W59226  18.722  43.987   1.399
99724W        W59227  34.571  12.856   4.265
99725W        W59228  31.931   5.928  14.968
99726W        W59229  17.214  35.955  10.150
99727W        W59230  21.588  17.295   4.678
99728W        W59231  17.208   0.306  10.491
99729W        W59232   5.427  41.513   0.317
99730W        W59233   4.306   6.275  12.916
99731W        W59234  44.992  41.837   1.324
99732W        W59235  42.839  32.045  11.544
99733W        W59236  23.101   9.284   0.943
99734W        W59237  13.279  41.339  10.060
99735W        W59238  41.959  18.593  10.631
99736W        W59239  31.012  28.453   5.601
99737W        W59240  42.791  37.573   2.211
99738W        W59241  12.115  38.338   4.721
99739W        W59242   7.847  35.536   3.841
99740W        W59243   3.278  13.831  14.292
99741W        W59244  37.087  11.210   1.801
99742W        W59245  22.623  37.062   1.712
99743W        W59246  21.742  23.992  14.003
99744W        W59247  41.461  24.667   1.887
99745W        W59248  34.067  27.529  13.939
99746W        W59249   6.765  31.081  12.921
99747W        W59250  42.778  35.948   4.643
99748W        W59251  37.067  17.063  12.357
99749W        W59252  10.306   0.975  12.894
99750W        W59253   4.767   2.263   4.740
99751W        W59254  15.630  40.882  12.417
99752W        W59255  43.790  33.044  14.308
99753W        W59256  10.325  13.662   0.903
99754W        W59257  19.595  37.528   3.212
99755W        W59258  40.517  44.904  10.988
99756W        W59259  41.893   0.316   3.796
99757W        W59260  20.044  34.039  12.519
99758W        W59261  22.223   1.797   5.175
99759W        W59262  19.622  17.762   2.300
99760W        W59263  13.331   2.900   4.341
99761W        W59264   1.466   6.208   3.794
99762W        W59265  38.991  21.256  10.106
99763W        W59266  31.492   9.173   0.836
99764W        W59267  27.565  36.849   2.341
99765W        W59268  14.689  17.600  13.402
99766W        W59269  43.348  27.983  10.409
99767W        W59270  15.311  44.757   1.357
99768W        W59271  44.276  28.591  14.295
99769W        W59272  29.046  17.181  13.895
99770W        W59273   3.767   1.480  11.512
99771W        W59274  14.308  15.724   4.696
99772W        W59275   1.774  16.807   3.210
99773W        W59276  25.013  18.280   9.986
99774W        W59277  11.816  33.901  13.856
99775W        W59278  24.577   9.798  13.840
99776W        W59279  13.119   7.859  11.375
99777W        W59280  38.386  37.562   0.760
99778W        W59281   5.282   8.877  10.936
99779W        W59282   3.290  11.259  11.922
99780W        W59283  44.758  10.325  12.929
99781W        W59284   3.399  16.163   0.767
99782W        W59285   0.460  10.652   4.722
99783W        W59286  21.705  30.455  12.027
99784W        W59287  37.381  31.559   0.807
99785W        W59288  43.429  43.310   0.289
99786W        W59289  39.063  12.260   1.722
99787W        W59290  16.779  26.587   1.370
99788W        W59291  31.153  17.307  13.385
99789W        W59292  16.698   1.846  12.430
99790W        W59293  44.490  29.079  11.591
99791W        W59294  25.018   5.870   1.812
99792W        W59295  27.596  20.161  14.513
99793W        W59296   8.248   8.836  13.347
99794W        W59297  30.414  43.841  13.509
99795W        W59298   8.288  22.591   1.699
99796W        W59299  41.343  35.497   2.197
99797W        W59300   6.701   5.827  14.496
99798W        W59301  28.560  40.419  12.884
99799W        W59302  12.741   4.732  13.548
99800W        W59303   2.287  14.131   1.230
99801W        W59304  37.439   0.898  14.031
99802W        W59305  35.532  10.854  14.838
99803W        W59306   6.244  26.151  11.054
99804W        W59307  17.279   4.791  13.835
99805W        W59308  31.622   3.773   1.285
99806W        W59309  26.679  42.475  11.524
99807W        W59310   7.829   9.341   4.600
99808W        W59311  19.665  26.015  14.445
99809W        W59312  35.367   2.281   4.272
99810W        W59313  41.302  14.111  10.579
99811W        W59314  15.305   2.297  13.846
99812W        W59315  20.581  14.148   4.717
99813W        W59316  31.429  24.223   3.169
99814W        W59317  29.517  11.699  10.937
99815W        W59318   4.415  34.970  14.760
99816W        W59319  17.177  15.648  13.389
99817W        W59320  16.758  14.270  14.371
99818W        W59321  10.826  28.619   1.766
99819W        W59322  33.617  38.840   3.661
99820W        W59323  37.542  29.132  10.082
99821W        W59324   4.815  43.478   5.579
99822W        W59325  35.037  42.335  12.068
99823W        W59326   2.312  20.149  13.435
99824W        W59327   5.915  30.423   0.249
99825W        W59328  27.675  10.647  14.316
99826W        W59329  14.179  34.523  12.429
99827W        W59330  11.684  20.757  10.518
99828W        W59331  19.261   9.383   2.390
99829W        W59332  38.985  22.555  11.874
99830W        W59333  41.789  24.093   2.863
99831W        W59334  20.126  29.126   0.912
99832W        W59335  35.939  10.183  11.471
99833W        W59336  20.258  42.926   1.364
99834W        W59337   1.838  29.517  10.097
99835W        W59338   5.925  27.538   0.732
99836W        W59339   5.907  12.845  13.326
99837W        W59340   4.232  27.118  12.058
99838W        W59341  13.307   9.245   0.945
99839W        W59342  10.234  28.014  12.416
99840W        W59343   8.203  32.059  14.480
99841W        W59344  33.024  26.600  10.023
99842W        W59345  12.856  34.594   4.637
99843W        W59346  11.264  10.864  14.869
99844W        W59347   3.834  14.680   3.747
99845W        W59348  13.160  36.420   3.210
99846W        W59349  25.569   6.751   2.401
99847W        W59350  25.698  32.135  10.453
99848W        W59351  11.307  32.529   2.846
99849W        W59352   2.730  12.670   1.715
99850W        W59353  15.592  13.729   4.763
99851W        W59354  17.775  38.506  11.074
99852W        W59355  26.021  27.166   1.414
99853W        W59356   8.264  23.641   1.824
99854W        W59357  27.036  32.977   2.818
99855W        W59358  29.668  19.040   2.366
99856W        W59359   9.275  42.314  13.911
99857W        W59360   0.400   7.349   4.143
99858W        W59361   2.845  11.227  11.488
99859W        W59362  37.026   1.876  10.514
99860W        W59363  33.970  34.415   2.734
99861W        W59364   7.798   6.721   2.889
99862W        W59365  18.118  15.167  13.956
99863W        W59366   0.841  10.790   2.826
99864W        W59367   2.273   6.311  12.891
99865W        W59368  10.793  41.454   4.818
99866W        W59369  22.522   0.967   3.230
99867W        W59370   0.972  23.028  13.837
99868W        W59371  15.627  17.766   0.407
99869W        W59372  41.448  26.078   4.788
99870W        W59373  41.416  11.210   4.793
99871W        W59374  39.892   5.382  11.966
99872W        W59375  44.967   7.847   0.861
99873W        W59376  39.451   7.818   5.209
99874W        W59377  36.519  31.103  14.954
99875W        W59378  25.111  21.035  14.431
99876W        W59379  43.380  36.883  14.886
99877W        W59380  31.550  35.409   3.683
99878W        W59381  40.423  43.855   3.703
99879W        W59382  44.873   3.304  10.511
99880W        W59383  10.697  25.552   2.274
99881W        W59384  39.539  41.981  13.431
99882W        W59385  40.892  22.667  14.472
99883W        W59386  42.790  18.674  11.502
99884W        W59387  33.511  31.562   2.700
99885W        W59388   3.760  26.489  11.931
99886W        W59389   1.753  22.123   4.207
99887W        W59390  37.864  28.025  12.088
99888W        W59391   5.206  36.950   3.195
99889W        W59392  16.294  20.718  10.907
99890W        W59393  25.700  21.716   0.331
99891W        W59394  19.144  37.867   1.816
99892W        W59395  16.101  24.680   3.784
99893W        W59396  24.715   5.831   0.791
99894W        W59397  17.651  11.803   4.620
99895W        W59398  17.762  41.390   2.356
99896W        W59399  18.790  36.877  13.886
99897W        W59400  25.510  24.603   0.866
99898W        W59401  38.888  31.449  11.064
99899W        W59402  14.747  34.114   2.864
99900W        W59403  41.370  35.938  13.886
99901W        W59404  19.144  28.557   1.918
99902W        W59405   3.760  30.430  10.017
99903W        W59406   2.883  19.726   2.217
99904W        W59407   1.314   2.829  14.929
99905W        W59408   6.810  29.052  13.055
99906W        W59409  21.224   6.279  11.581
99907W        W59410   5.778   3.841  11.914
99908W        W59411  31.431   2.834   2.726
99909W        W59412  21.170  15.182   2.833
99910W        W59413  22.676  14.643   9.932
99911W        W59414  13.713  29.050   0.287
99912W        W59415  15.103  28.046  12.426
99913W        W59416  29.989   6.219   2.885
99914W        W59417  40.501  12.704  13.331
99915W        W59418  15.212  32.450  12.499
99916W        W59419  29.544   3.387  12.429
99917W        W59420  20.663  44.781   2.412
99918W        W59421  37.081  11.745  11.606
99919W        W59422  21.129  24.031  10.963
99920W        W59423   1.901  18.666   3.808
99921W        W59424   4.419  41.460   2.404
99922W        W59425  32.915  29.173   0.806
99923W        W59426  38.876  22.725  14.354
99924W        W59427  24.621  27.569   3.200
99925W        W59428  36.020  22.547  13.865
99926W        W59429  10.332  29.597  13.019
99927W        W59430  28.129  37.427  13.058
99928W        W59431   7.237  23.134   1.342
99929W        W59432  33.030  22.191  10.641
99930W        W59433  34.093   4.388  11.002
99931W        W59434   4.370  16.134  13.475
99932W        W59435  19.717  37.504  14.778
99933W        W59436  17.606   1.244  14.007
99934W        W59437  34.075   0.906   1.280
99935W        W59438  10.637  13.841   0.870
99936W        W59439   5.711  37.434   0.443
99937W        W59440  35.879  43.459   1.312
99938W        W59441  16.215  36.562  13.015
99939W        W59442  10.378   5.892   0.315
99940W        W59443  40.862  28.677   0.251
99941W        W59444   4.440  37.539  14.758
99942W        W59445  14.739  37.085  12.984
99943W        W59446  18.634  38.430   3.796
99944W        W59447  16.770   0.486  14.434
99945W        W59448  24.184  44.981  12.398
99946W        W59449  25.574  43.867   0.386
99947W        W59450   5.430  14.616  11.084
99948W        W59451   9.760   6.351   3.273
99949W        W59452  41.481  39.368   3.188
99950W        W59453  38.045  31.470   0.767
99951W        W59454   2.795   7.233   3.770
99952W        W59455  15.711  42.520  12.343
99953W        W59456  24.117  31.580  11.911
99954W        W59457   1.355  35.886  12.874
99955W        W59458  30.544  24.592  11.569
99956W        W59459  33.099  10.169   4.116
99957W        W59460  32.424  21.171  11.545
99958W        W59461  42.513  16.116  12.372
99959W        W59462  31.922  41.825  12.934
99960W        W59463  29.486  14.617   3.722
99961W        W59464  32.890  28.528  14.986
99962W        W59465  34.016  27.590  11.882
99963W        W59466  30.161  42.780  10.422
99964W        W59467  34.001  26.546  14.928
99965W        W59468  23.058  14.606   3.744
99966W        W59469  28.971  39.843   4.244
99967W        W59470   0.311  16.101   3.754
99968W        W59471  24.229   1.429   5.147
99969W        W59472  43.933  44.277  10.610
99970W        W59473  17.114  11.864  11.895
99971W        W59474  10.142  39.939   3.178
99972W        W59475   7.385  31.593   4.195
99973W        W59476  32.895   3.265   2.838
99974W        W59477   3.427   2.260  12.552
99975W        W59478  26.182   1.886  10.593
99976W        W59479   9.798  44.485  14.850
99977W        W59480  40.813  10.366   3.340
99978W        W59481  21.703   5.897   2.873
99979W        W59482   5.722  25.702  14.955
99980W        W59483   6.782  36.509   0.264
99981W        W59484  35.589  41.848   3.684
99982W        W59485  44.392  38.336   1.811
99983W        W59486  34.549  41.293   0.326
99984W        W59487   6.835   5.718  13.868
99985W        W59488  29.432   1.753  14.414
99986W        W59489  37.024   5.918   2.725
99987W        W59490   5.315  41.923   3.239
99988W        W59491  18.687  40.446  13.379
99989W        W59492  22.531  36.487  11.528
99990W        W59493  39.557   7.836   5.644
99991W        W59494   3.813   8.864  12.386
99992W        W59495   1.405  24.045  10.628
99993W        W59496  12.836  35.460  11.979
99994W        W59497  42.780   4.354   0.405
99995W        W59498  32.471  34.450   2.261
99996W        W59499  37.892  44.262  14.416
99997W        W59500  18.673  24.203  12.466
99998W        W59501  33.937  34.104  13.050
99999W        W59502  37.993  40.399   3.195
    0W        W59503  22.141  20.182   0.347
    1W        W59504  10.224  29.984  12.873
    2W        W59505  14.335  22.746  12.487
    3W        W59506  16.078  23.648   0.926
    4W        W59507   2.433   2.819   2.283
    5W        W59508  43.923  22.630   2.274
    6W        W59509  40.502  43.486   1.216
    7W        W59510   3.950  30.117  11.905
    8W        W59511  17.131   5.909   1.314
    9W        W59512  12.652  29.491   2.189
   10W        W59513   6.902  39.495   2.869
   11W        W59514  40.330   7.873   3.783
   12W        W59515   7.295  10.159  10.914
   13W        W59516   7.308   3.355   2.243
   14W        W59517   2.884   4.742  10.462
   15W        W59518  11.760  26.459  14.473
   16W        W59519  32.399  14.198   5.676
   17W        W59520  43.333  11.710  10.502
   18W        W59521  39.334   6.299   4.167
   19W        W59522  17.085  44.330   2.711
   20W        W59523   4.253  32.497  10.582
   21W        W59524  27.526   4.403   0.303
   22W        W59525  24.043  34.380  13.877
   23W        W59526  36.957  36.897  14.798
   24W        W59527  20.144   2.400   0.928
   25W        W59528  23.122  25.097  11.929
   26W        W59529  11.717  24.543  11.444
   27W        W59530   8.655  27.665   0.881
   28W        W59531  37.973  31.589  13.965
   29W        W59532  35.462  44.476  11.551
   30W        W59533  27.037  23.516  10.509
   31W        W59534  43.926   9.189  14.823
   32W        W59535  32.016   7.818  13.965
   33W        W59536   0.467   4.277  14.942
   34W        W59537  10.336  37.383   3.686
   35W        W59538   9.157  44.303  13.808
   36W        W59539  31.110  34.865  14.449
   37W        W59540  19.676  31.920  14.837
   38W        W59541   3.288   5.886   2.705
   39W        W59542   7.198   3.877  11.105
   40W        W59543  34.393   0.268  11.095
   41W        W59544  24.040   3.923  14.922
   42W        W59545  11.132  32.896   1.828
   43W        W59546   1.243  33.474  14.979
   44W        W59547   1.894  34.542  13.326
   45W        W59548   7.902   7.316  12.843
   46W        W59549  35.891   8.694  11.094
   47W        W59550  15.298   6.251  14.009
   48W        W59551  14.133  18.103   3.304
   49W        W59552  18.549  22.066  10.993
   50W        W59553  40.464  13.282   4.280
   51W        W59554   2.325  21.658  14.989
   52W        W59555  38.360  10.282   3.649
   53W        W59556  29.033  42.946  12.528
   54W        W59557  18.138  17.575  14.774
   55W        W59558  35.980  13.148  11.460
   56W        W59559  10.171  44.803  13.911
   57W        W59560  17.615   7.228  12.437
   58W        W59561  29.542  13.222   1.757
   59W        W59562  27.979  17.260  11.530
   60W        W59563  21.714  32.625   3.792
   61W        W59564  25.978  41.862  12.535
   62W        W59565  43.834  37.839  14.944
   63W        W59566   3.722   1.262   3.669
   64W        W59567  38.522  14.680  13.044
   65W        W59568  39.065  31.985  11.542
   66W        W59569  23.496  29.141   4.226
   67W        W59570   0.828  44.423  12.947
   68W        W59571  42.346  33.528   2.322
   69W        W59572  36.901  20.037   0.893
   70W        W59573  36.053  13.158  10.574
   71W        W59574  10.202  29.574   4.656
   72W        W59575  12.815  34.076  12.037
   73W        W59576  42.807  33.032   4.721
   74W        W59577  15.183  22.057  11.589
   75W        W59578  35.444  13.638  12.875
   76W        W59579  10.374  44.785  14.835
   77W        W59580   6.421  32.057   5.161
   78W        W59581   2.360  20.754   9.568
   79W        W59582  18.607   2.821  11.025
   80W        W59583  25.617  13.264  11.531
   81W        W59584  35.538  33.905   1.754
   82W        W59585  20.729  32.006   2.771
   83W        W59586   5.870   7.832  11.124
   84W        W59587  16.102  30.650  14.497
   85W        W59588  10.345  38.961   0.798
   86W        W59589  38.905  27.453  12.363
   87W        W59590  42.010  34.599   3.272
   88W        W59591  30.922  16.699   4.751
   89W        W59592  25.006  12.636   2.877
   90W        W59593  35.861  10.229   4.701
   91W        W59594   7.877  35.385   3.359
   92W        W59595  30.423  28.525   1.915
   93W        W59596  34.602  44.310   1.744
   94W        W59597  26.509  10.850   1.248
   95W        W59598  31.502  31.586   5.737
   96W        W59599   0.765   3.859  12.836
   97W        W59600   7.300  32.499  11.431
   98W        W59601  20.213  17.726   2.799
   99W        W59602  37.507  36.009   0.874
  100W        W59603  26.537  31.061  13.882
  101W        W59604   1.435   2.913  12.837
  102W        W59605  43.297  13.272   4.239
  103W        W59606  26.691  15.134  13.408
  104W        W59607  17.679  16.249  13.314
  105W        W59608  38.493   0.427  12.929
  106W        W59609  28.107  13.640   4.119
  107W        W59610  25.528  43.890  14.511
  108W        W59611  44.773  40.309  10.420
  109W        W59612  20.052  11.139  10.956
  110W        W59613  42.479  15.715   2.183
  111W        W59614   5.430  38.898   3.346
  112W        W59615  43.287  43.791   1.434
  113W        W59616  31.005  24.674  12.962
  114W        W59617  13.170  13.660  13.547
  115W        W59618  40.449   0.932  11.398
  116W        W59619  14.662  19.132   0.836
  117W        W59620  17.594  18.780  10.461
  118W        W59621   0.933  25.608   1.304
  119W        W59622  43.488  32.528   4.201
  120W        W59623  44.279  40.447   4.789
  121W        W59624   6.916  21.209   1.851
  122W        W59625   7.204   4.805   4.662
  123W        W59626  42.779  14.171  10.927
  124W        W59627  38.969   9.159   4.279
  125W        W59628   1.951  19.677   0.260
  126W        W59629  38.344  11.208   1.244
  127W        W59630  27.509   7.191  14.374
  128W        W59631  35.400  24.005  10.938
  129W        W59632  40.798  13.708   0.826
  130W        W59633  18.656  44.855   3.221
  131W        W59634  18.778   0.867   2.288
  132W        W59635  44.862  28.562  13.439
  133W        W59636  36.993  22.221  10.438
  134W        W59637  10.355  31.005  12.835
  135W        W59638  32.046  40.004  10.440
  136W        W59639  34.921   4.781   1.768
  137W        W59640  18.274  40.528  12.035
  138W        W59641  44.829  41.981   4.264
  139W        W59642  44.765  36.593   4.602
  140W        W59643  17.129  41.882   2.191
  141W        W59644  32.437  16.725  13.468
  142W        W59645  10.675  38.024  14.860
  143W        W59646  33.383  14.602  12.509
  144W        W59647  44.773  34.392   5.122
  145W        W59648   3.839  27.594   1.828
  146W        W59649  10.173   1.802   2.718
  147W        W59650  25.020  14.603  12.505
  148W        W59651   1.248  21.155   0.247
  149W        W59652  44.829   7.342  10.631
  150W        W59653  24.638  21.610  12.023
  151W        W59654  16.292   1.733   1.211
  152W        W59655  21.238  10.206   0.415
  153W        W59656  43.876  33.068  13.890
  154W        W59657  18.590  44.415  13.025
  155W        W59658  22.584  10.170   4.186
  156W        W59659  32.435  15.316  12.907
  157W        W59660  35.950  14.154   3.385
  158W        W59661  33.109   4.808  10.954
  159W        W59662  21.554  36.442  11.571
  160W        W59663  33.505  44.483  10.979
  161W        W59664  44.755  22.130  13.863
  162W        W59665   8.284   5.708  13.484
  163W        W59666  32.634  19.615  10.970
  164W        W59667  16.705   1.466  14.388
  165W        W59668  14.116  31.541   4.766
  166W        W59669  23.197  23.074  12.981
  167W        W59670  29.488  22.099  12.882
  168W        W59671  40.530  11.373  12.980
  169W        W59672  43.797  30.557   0.946
  170W        W59673  32.631  30.987  14.978
  171W        W59674  19.556  13.816  12.441
  172W        W59675  15.724  18.558  12.890
  173W        W59676  43.317  20.702   2.414
  174W        W59677   9.294  40.054  13.459
  175W        W59678   3.271  41.936   4.270
  176W        W59679  34.895  26.612  10.559
  177W        W59680  25.541  17.689  10.977
  178W        W59681   4.749  16.742   4.649
  179W        W59682  11.312  16.798  11.096
  180W        W59683   3.323  23.709   4.132
  181W        W59684  29.159  19.058  12.851
  182W        W59685  11.286  13.158   1.362
  183W        W59686  19.608  13.133   4.835
  184W        W59687  12.303  39.558   0.758
  185W        W59688  13.656  26.667  14.013
  186W        W59689  19.685  27.554  14.963
  187W        W59690  15.204   3.348  12.938
  188W        W59691   4.745  17.200   1.741
  189W        W59692   3.315  36.988  14.883
  190W        W59693  41.865  34.387  12.080
  191W        W59694  27.481  43.941   4.635
  192W        W59695  12.729  38.842  13.946
  193W        W59696   7.802  39.002   4.290
  194W        W59697  19.084  11.320  12.508
  195W        W59698   9.845  11.752   3.748
  196W        W59699   0.471   2.428  13.792
  197W        W59700  21.034   1.767   0.727
  198W        W59701  30.627   2.413  14.846
  199W        W59702  18.259  28.946   4.716
  200W        W59703   8.802  27.954  14.492
  201W        W59704  13.131  35.526   2.383
  202W        W59705  20.127  37.457  12.970
  203W        W59706  22.627  24.652   0.765
  204W        W59707  39.482  36.967  11.582
  205W        W59708   1.359  17.676   1.440
  206W        W59709  12.799  23.073  12.074
  207W        W59710  33.002   6.195   0.915
  208W        W59711  35.396  12.725   4.750
  209W        W59712  36.856  16.783   2.687
  210W        W59713  29.662  31.143  14.806
  211W        W59714  18.239   3.839   1.296
  212W        W59715  22.699   6.687   4.789
  213W        W59716   9.782  42.861   4.216
  214W        W59717  24.659  26.074   1.246
  215W        W59718   7.260  28.133   4.189
  216W        W59719  12.289  32.115   3.667
  217W        W59720  34.389  43.951  11.526
  218W        W59721  42.997   5.722   4.656
  219W        W59722  28.072  25.620   1.341
  220W        W59723  40.326  16.088   4.776
  221W        W59724  26.043  25.203  11.993
  222W        W59725  39.819  17.643   4.175
  223W        W59726   0.794  36.008  13.014
  224W        W59727  31.636  28.185  12.413
  225W        W59728   3.236  23.123  10.946
  226W        W59729   4.345  39.429  11.607
  227W        W59730  15.703   0.893  11.565
  228W        W59731  21.684  10.377  11.445
  229W        W59732  43.438  15.742   4.758
  230W        W59733  30.448  32.468   4.329
  231W        W59734  35.990  20.235  10.445
  232W        W59735  18.123  11.256  11.088
  233W        W59736  28.050  15.201   2.274
  234W        W59737  28.934  17.716  11.507
  235W        W59738  15.182  31.446   0.377
  236W        W59739   0.973   7.343   3.198
  237W        W59740   1.882   7.809   4.784
  238W        W59741  29.939  29.503   3.264
  239W        W59742  19.235   0.865  14.819
  240W        W59743  18.592   9.277   0.882
  241W        W59744  22.028  27.530  13.394
  242W        W59745   2.457  41.417   5.120
  243W        W59746  22.522  31.497   0.889
  244W        W59747  22.567  43.455   1.930
  245W        W59748  33.045   2.383   0.342
  246W        W59749  24.107  12.836  12.937
  247W        W59750  36.458  13.782   0.807
  248W        W59751  35.480  28.474  14.428
  249W        W59752  34.440  10.381  14.802
  250W        W59753  16.718  23.142  10.632
  251W        W59754  27.127  16.299  11.103
  252W        W59755  30.056  16.100   2.264
  253W        W59756  24.662  28.992  13.797
  254W        W59757  28.526  23.623  14.430
  255W        W59758  27.067  22.531  13.981
  256W        W59759  26.991  11.830  11.007
  257W        W59760  15.249  35.366  11.032
  258W        W59761   0.307  10.266   1.896
  259W        W59762  44.901   2.900   1.371
  260W        W59763  21.098   9.392   1.277
  261W        W59764  31.489   1.369   1.824
  262W        W59765  12.331  12.820  12.861
  263W        W59766  41.536  34.095  11.518
  264W        W59767  23.049  32.511   2.339
  265W        W59768  22.638  25.980  12.377
  266W        W59769   2.731  30.141   1.245
  267W        W59770  31.900  31.945  13.377
  268W        W59771  38.414  23.013   3.690
  269W        W59772  32.623  20.270  11.125
  270W        W59773   9.380  27.538  14.955
  271W        W59774  16.782   2.472  13.494
  272W        W59775   2.837  10.755  14.955
  273W        W59776   1.456  11.212  13.924
  274W        W59777  20.624   0.392   5.202
  275W        W59778  17.735  12.350  12.970
  276W        W59779  30.540  26.206   5.727
  277W        W59780  20.129  22.626  13.362
  278W        W59781  11.179  30.129   0.275
  279W        W59782  21.115  39.862   2.267
  280W        W59783  14.268  20.635  14.375
  281W        W59784  36.438  35.469   1.393
  282W        W59785  39.346  28.630  14.954
  283W        W59786  24.651  30.925   0.278
  284W        W59787  33.474  30.132  14.388
  285W        W59788  40.856  25.614   0.393
  286W        W59789  29.529  34.112   4.801
  287W        W59790  27.515   8.165  11.857
  288W        W59791  39.936   3.374  13.523
  289W        W59792  31.642  11.187  11.100
  290W        W59793  33.048  15.283  14.277
  291W        W59794  33.619  15.633  13.037
  292W        W59795  14.790  39.949  12.006
  293W        W59796  12.792   7.363   1.331
  294W        W59797  31.494   4.710   2.289
  295W        W59798  17.588  31.506   4.122
  296W        W59799  24.193   3.460   5.266
  297W        W59800   8.162  20.674   1.813
  298W        W59801  30.952  28.058  10.490
  299W        W59802  43.002  21.053  14.884
  300W        W59803  41.333  36.358  10.452
  301W        W59804   3.857  14.754   4.771
  302W        W59805  13.634  27.971  10.938
  303W        W59806   1.839  43.284  14.892
  304W        W59807   0.342  22.581   0.915
  305W        W59808  23.196   9.751   3.255
  306W        W59809   5.933  27.116  11.570
  307W        W59810  20.661  25.004   3.199
  308W        W59811  19.232  16.268  12.997
  309W        W59812   3.831  11.779  10.026
  310W        W59813  14.609  21.228  13.464
  311W        W59814  25.680  37.450   1.282
  312W        W59815   8.308  32.011  12.481
  313W        W59816   8.690  15.305  11.480
  314W        W59817  33.435  38.466  14.935
  315W        W59818  16.170  24.612  11.939
  316W        W59819  21.608  39.464   2.224
  317W        W59820   7.361  33.925   0.923
  318W        W59821  24.220  30.540   2.885
  319W        W59822  22.722  43.882  11.077
  320W        W59823   8.184  18.609  13.307
  321W        W59824   6.920  29.115   2.198
  322W        W59825  28.938  33.564  13.837
  323W        W59826  12.284  33.004   3.731
  324W        W59827  21.215  41.401   4.119
  325W        W59828  24.719  22.113  12.974
  326W        W59829  27.159   4.402   0.730
  327W        W59830  29.922  25.996  14.396
  328W        W59831  23.691   6.341  12.848
  329W        W59832  12.135   6.340  10.632
  330W        W59833  16.281  37.350   4.787
  331W        W59834   0.332  40.326  13.501
  332W        W59835  34.512  14.184   3.759
  333W        W59836   7.258  13.621   0.860
  334W        W59837  13.627  40.448   4.149
  335W        W59838  39.004  35.891   1.817
  336W        W59839   9.380  37.926  12.909
  337W        W59840   4.834  28.064   2.819
  338W        W59841  13.285   1.770   0.338
  339W        W59842   9.656  39.851   3.273
  340W        W59843  22.144  30.605  12.988
  341W        W59844  39.344  38.860  11.512
  342W        W59845   3.270  28.542   4.228
  343W        W59846  18.549   3.229  10.459
  344W        W59847  18.782  33.078   4.315
  345W        W59848  26.607  44.889  14.505
  346W        W59849  33.433  20.524   3.749
  347W        W59850  14.177  26.041  11.855
  348W        W59851   8.775  36.972  11.889
  349W        W59852  42.898   5.873  14.890
  350W        W59853   3.287  31.576   0.440
  351W        W59854  42.990  11.312   2.766
  352W        W59855  38.325  31.616   1.291
  353W        W59856  20.164  43.820   0.962
  354W        W59857  11.719  30.513   4.151
  355W        W59858   9.202  20.068   4.327
  356W        W59859  12.354   0.807   3.655
  357W        W59860  25.064  43.910   3.653
  358W        W59861  30.496  36.890  14.440
  359W        W59862  40.460  39.042   0.403
  360W        W59863  30.027  33.899  12.935
  361W        W59864   1.912  36.404   2.851
  362W        W59865  31.488  13.332  11.916
  363W        W59866   1.830  27.079  11.990
  364W        W59867  23.016  22.215   2.257
  365W        W59868   2.770  29.614  13.476
  366W        W59869   6.729  28.620  11.389
  367W        W59870  16.249  21.605   0.270
  368W        W59871   1.238   2.929   4.687
  369W        W59872  16.661  18.176   4.599
  370W        W59873  14.252  32.977   3.730
  371W        W59874  33.508  43.317   0.793
  372W        W59875   4.885  13.629  13.803
  373W        W59876  36.365  29.670  12.011
  374W        W59877  15.288  31.024   2.330
  375W        W59878  29.663  44.290   0.282
  376W        W59879  43.413  17.209  14.912
  377W        W59880   7.801  41.816  11.391
  378W        W59881  20.042  44.396   0.804
  379W        W59882  16.310  38.429   0.939
  380W        W59883   3.712   3.955  14.437
  381W        W59884   1.421  42.457   4.319
  382W        W59885  27.474  24.185   0.890
  383W        W59886  36.457  18.715   2.838
  384W        W59887  16.657  28.938  10.489
  385W        W59888   7.679  28.578   0.361
  386W        W59889   2.378  32.991   1.868
  387W        W59890  30.633  11.752  13.391
  388W        W59891   8.359  26.093  12.465
  389W        W59892   9.784  21.243  11.948
  390W        W59893   2.277  19.635   1.442
  391W        W59894  40.370  44.753   1.290
  392W        W59895  28.574  26.072  13.462
  393W        W59896  34.944   2.466   2.330
  394W        W59897   9.396  44.277  11.036
  395W        W59898  34.869  30.919  11.913
  396W        W59899  29.993  18.265   1.824
  397W        W59900  12.734  43.344  11.468
  398W        W59901  28.467   4.332   1.910
  399W        W59902   4.335  41.352   3.248
  400W        W59903   6.248   7.769  10.138
  401W        W59904  31.487  25.629   0.479
  402W        W59905  16.207  43.014   1.787
  403W        W59906   1.448  12.709  12.494
  404W        W59907  29.124  40.903  12.892
  405W        W59908  36.952  41.299   1.379
  406W        W59909  22.590  32.534   1.870
  407W        W59910  12.820  41.432  12.020
  408W        W59911  43.795   4.212  12.900
  409W        W59912  41.894   2.943  11.121
  410W        W59913   3.868  19.655   0.394
  411W        W59914  18.613  34.385   1.354
  412W        W59915   8.323  44.285  12.868
  413W        W59916  28.933  25.071   3.187
  414W        W59917  38.460   4.321  10.600
  415W        W59918  22.251  32.136   0.906
  416W        W59919   0.971   9.362  10.494
  417W        W59920  12.177  42.799   0.815
  418W        W59921  33.389  33.941   0.860
  419W        W59922  20.747   5.373  10.508
  420W        W59923  11.277  42.001   3.663
  421W        W59924  13.744  43.786   3.826
  422W        W59925  37.519  38.944  14.291
  423W        W59926  31.572  43.904  11.931
  424W        W59927  20.620   8.320   4.599
  425W        W59928  29.959   0.749   1.302
  426W        W59929  44.858  17.770  12.088
  427W        W59930   6.828  18.736   1.915
  428W        W59931  15.295  17.714  12.064
  429W        W59932  39.361  26.578   2.376
  430W        W59933  12.685  39.055   5.270
  431W        W59934  41.321  16.582   2.255
  432W        W59935  24.083   3.816  13.353
  433W        W59936  21.620  10.272   0.248
  434W        W59937   0.357  37.878  10.472
  435W        W59938  42.294  32.012  14.288
  436W        W59939   1.847  26.132   4.677
  437W        W59940  16.689  30.424   0.801
  438W        W59941  20.235  21.178  14.307
  439W        W59942  27.484  25.693   0.336
  440W        W59943  12.816  32.411  12.895
  441W        W59944  17.596  38.007  12.514
  442W        W59945  42.979   2.293   0.267
  443W        W59946   8.379  36.419   4.276
  444W        W59947  34.375  43.869   1.370
  445W        W59948  16.288  20.731   1.354
  446W        W59949  22.584  24.039   0.777
  447W        W59950  16.573  29.132   0.254
  448W        W59951  36.065  40.481  10.979
  449W        W59952   0.837  37.399   1.282
  450W        W59953   5.433  23.625   0.343
  451W        W59954   0.878  19.095  11.069
  452W        W59955  44.437  44.485   4.790
  453W        W59956   6.819  11.821  13.432
  454W        W59957  23.645  30.081   2.274
  455W        W59958  27.470  38.498  13.923
  456W        W59959  20.169  38.957   0.938
  457W        W59960  18.623  35.444   3.816
  458W        W59961  26.502  36.567  10.952
  459W        W59962   1.422  13.158  12.383
  460W        W59963  42.337   8.875  11.075
  461W        W59964  11.727  14.611  11.435
  462W        W59965  24.681   6.833   3.279
  463W        W59966  36.094  29.961  11.533
  464W        W59967  29.577  44.357  13.907
  465W        W59968  44.504   4.368   4.339
  466W        W59969  16.721   1.319  12.848
  467W        W59970  14.102  29.967  11.556
  468W        W59971  36.912  44.905   0.252
  469W        W59972  29.050  26.080  14.316
  470W        W59973  28.996  38.494  13.994
  471W        W59974  12.667  38.901   0.335
  472W        W59975  29.473   5.868  12.835
  473W        W59976  40.041  33.957   1.794
  474W        W59977   8.209  34.412   4.350
  475W        W59978  20.630   3.776   0.350
  476W        W59979  20.121  41.451  14.785
  477W        W59980  31.122   6.921   2.780
  478W        W59981  29.498   5.203   3.824
  479W        W59982  13.616  27.110  10.595
  480W        W59983  35.472  11.317   1.898
  481W        W59984  31.924  29.071  11.063
  482W        W59985  11.773  12.298  10.604
  483W        W59986  15.784  41.983   2.797
  484W        W59987  16.301   0.906  13.996
  485W        W59988  25.602  38.839   0.772
  486W        W59989  44.873  28.125   1.775
  487W        W59990  12.346   0.284   4.221
  488W        W59991  22.617  44.762  10.495
  489W        W59992  43.460  36.479  13.382
  490W        W59993   9.730   6.303   0.920
  491W        W59994  30.576  31.616   2.894
  492W        W59995  20.533   9.811   3.323
  493W        W59996  10.210   3.235   1.230
  494W        W59997  15.745   6.293  12.946
  495W        W59998   9.198  35.566   3.771
  496W        W59999   5.270  36.969  13.879
  497W        W60000  30.048  44.787  11.017
  498W        W60001   0.418  32.963   0.938
  499W        W60002  28.007  21.727   9.927
  500W        W60003  27.123  29.657   0.738
  501W        W60004  31.521  13.705   0.863
  502W        W60005  29.129  25.692   3.340
  503W        W60006  17.270  12.290   4.178
  504W        W60007  26.634  20.128   3.295
  505W        W60008  16.656  38.423  12.826
  506W        W60009  44.286   2.288   1.379
  507W        W60010  23.663   2.844   4.671
  508W        W60011  29.018  15.326   4.700
  509W        W60012  39.892  15.621  13.408
  510W        W60013  36.996  37.341  12.441
  511W        W60014  43.834  15.135  10.979
  512W        W60015   0.959  41.331   0.732
  513W        W60016   5.201  37.980  13.934
  514W        W60017  26.955  33.380  13.014
  515W        W60018  38.369  33.026  11.078
  516W        W60019  40.385  36.371   2.703
  517W        W60020   7.794  37.416  13.473
  518W        W60021  33.427  24.174   3.348
  519W        W60022   6.292  36.431   4.647
  520W        W60023  36.846  41.424  11.932
  521W        W60024  37.897  32.128   4.651
  522W        W60025  37.932  32.930  11.875
  523W        W60026  24.598  34.893   3.735
  524W        W60027   8.200  10.732  13.036
  525W        W60028  38.508  14.340  14.828
  526W        W60029  39.320  44.409  13.929
  527W        W60030  16.155  16.142   0.389
  528W        W60031  34.590  36.582  11.119
  529W        W60032  27.569  34.909   0.318
  530W        W60033  33.400  17.696  13.803
  531W        W60034   8.238   5.429   3.634
  532W        W60035  37.956  36.454  14.355
  533W        W60036  19.559  42.012   2.855
  534W        W60037   5.366  38.924   2.186
  535W        W60038   7.845  41.794  14.027
  536W        W60039  25.610  14.157  10.540
  537W        W60040  37.066  10.718  12.894
  538W        W60041  44.982   8.390  10.483
  539W        W60042  14.227  41.425   4.224
  540W        W60043  35.489   9.295  14.486
  541W        W60044  10.204  30.508  11.533
  542W        W60045  32.410  36.027   2.344
  543W        W60046  11.367  10.250   0.392
  544W        W60047  38.887  28.041   4.206
  545W        W60048  13.245  19.059  11.509
  546W        W60049  44.780  32.074  12.889
  547W        W60050   4.740  40.833   0.418
  548W        W60051  23.650  20.151   1.868
  549W        W60052  23.087  29.594   3.768
  550W        W60053  44.317  29.078   3.208
  551W        W60054   6.851  32.621  11.942
  552W        W60055   3.315  12.133  14.779
  553W        W60056  40.022  13.267  13.063
  554W        W60057   6.298  35.970  14.024
  555W        W60058  14.590  21.671  13.014
  556W        W60059  31.599  42.950   4.277
  557W        W60060  17.721  11.803   2.741
  558W        W60061  25.098  31.581  10.435
  559W        W60062  40.422  36.866   2.212
  560W        W60063  22.074  42.478  11.399
  561W        W60064  37.440  13.608  12.437
  562W        W60065  28.464  26.612   1.291
  563W        W60066  22.105  41.498   0.913
  564W        W60067  29.430   8.699   4.688
  565W        W60068  43.790   5.885  14.018
  566W        W60069  11.777  29.036   4.161
  567W        W60070  22.078   2.844   4.161
  568W        W60071   5.375   6.264  12.830
  569W        W60072   8.773  43.841   1.427
  570W        W60073   8.737  26.600   0.944
  571W        W60074   5.872  26.493   4.683
  572W        W60075  43.778  27.692   5.128
  573W        W60076  25.093  36.407  12.034
  574W        W60077  29.608  36.384   3.181
  575W        W60078   5.926  31.609  11.514
  576W        W60079  22.033  16.073   2.404
  577W        W60080  26.065  37.437  13.358
  578W        W60081  17.769  15.595   2.805
  579W        W60082  26.644  23.593   1.928
  580W        W60083  20.538   9.353  12.436
  581W        W60084  16.169  12.136  14.824
  582W        W60085  25.202  44.900  11.606
  583W        W60086  34.924  21.707  11.910
  584W        W60087  11.348   8.226  10.618
  585W        W60088  23.035  38.979  11.943
  586W        W60089  39.321  21.163   1.918
  587W        W60090   8.745  14.277   4.629
  588W        W60091  21.063  35.065   0.873
  589W        W60092  40.820  10.145   2.873
  590W        W60093  15.745  10.649   1.849
  591W        W60094   6.903   9.782   0.318
  592W        W60095  13.753  40.952  10.969
  593W        W60096  32.400  20.565  10.506
  594W        W60097  37.528  34.389   3.778
  595W        W60098   2.965  29.120  14.843
  596W        W60099  41.452  25.535   4.757
  597W        W60100  40.367  11.760  10.061
  598W        W60101   2.889  38.491   1.842
  599W        W60102  27.550  35.554  11.879
  600W        W60103  29.473  20.066  10.968
  601W        W60104  40.408   1.287  12.079
  602W        W60105  43.361  36.392   4.664
  603W        W60106  27.565  29.593  13.835
  604W        W60107  28.976   5.896   0.836
  605W        W60108  19.614  41.002  14.909
  606W        W60109  11.755  26.487  11.502
  607W        W60110  40.969  13.603   4.806
  608W        W60111  21.645   3.407  14.810
  609W        W60112  10.342   4.892   2.219
  610W        W60113  15.660   2.342  14.326
  611W        W60114  14.218  24.522  14.415
  612W        W60115  15.151  36.872   2.733
  613W        W60116  17.120   0.797  11.455
  614W        W60117  28.160  39.819   4.704
  615W        W60118  22.686  42.915  13.425
  616W        W60119  29.993   9.263   4.651
  617W        W60120  16.690  20.187   3.154
  618W        W60121  39.424  44.490   0.843
  619W        W60122  23.535  11.364   3.714
  620W        W60123  24.500  11.298   1.830
  621W        W60124   4.759  41.800  10.435
  622W        W60125  15.325  10.712  10.601
  623W        W60126  32.973  12.164   4.340
  624W        W60127   7.738  39.881   2.264
  625W        W60128   4.746  32.578  11.899
  626W        W60129   5.830  41.320   2.839
  627W        W60130  15.167   9.272   1.889
  628W        W60131  33.924  30.087  12.430
  629W        W60132  30.450   5.287  13.540
  630W        W60133  25.193  17.104   1.738
  631W        W60134  10.810  22.167   0.831
  632W        W60135  19.535  10.713  11.612
  633W        W60136   2.963  25.602  12.562
  634W        W60137  20.717  35.004  14.967
  635W        W60138   5.788  14.119  11.035
  636W        W60139  32.904  42.467  11.096
  637W        W60140  10.368   3.266   2.898
  638W        W60141  19.574  16.799   4.654
  639W        W60142  24.691  14.317  13.455
  640W        W60143  27.988  43.938   1.350
  641W        W60144  43.387  27.108  14.433
  642W        W60145  34.005   4.228   0.282
  643W        W60146  14.186   4.878   2.287
  644W        W60147  24.545   5.349   1.356
  645W        W60148  38.974  14.822  14.956
  646W        W60149   9.728  31.435  10.525
  647W        W60150   5.703  17.696   9.662
  648W        W60151  19.693  11.313  12.440
  649W        W60152  19.235  11.275  11.378
  650W        W60153   7.757  33.438  13.458
  651W        W60154   1.826  40.490  11.038
  652W        W60155  33.593  40.862  13.399
  653W        W60156  44.287  31.593  12.449
  654W        W60157  44.461   6.898  11.998
  655W        W60158  34.611  14.164   1.861
  656W        W60159  20.035  12.296  10.418
  657W        W60160  20.628   8.296  14.308
  658W        W60161   3.953   6.899  13.331
  659W        W60162  13.614  37.575   5.319
  660W        W60163  43.273  44.335   3.664
  661W        W60164  35.981   6.781   1.310
  662W        W60165  35.018  44.888   4.254
  663W        W60166   5.727  24.559   0.283
  664W        W60167  25.085   7.405   4.184
  665W        W60168  18.087   1.298   2.387
  666W        W60169   3.712  38.900   4.611
  667W        W60170   9.841  32.464  13.854
  668W        W60171  33.001  44.802  14.967
  669W        W60172  15.664   8.877  14.360
  670W        W60173  30.118   4.322  14.772
  671W        W60174  12.341  30.982  13.831
  672W        W60175  25.137  23.628   0.788
  673W        W60176   4.834  24.721   0.450
  674W        W60177  38.061  29.106   5.174
  675W        W60178   0.916  26.133   3.199
  676W        W60179   7.909  34.098   2.835
  677W        W60180  32.122   9.724  13.022
  678W        W60181  39.945   2.919   5.235
  679W        W60182  13.153   7.261  13.888
  680W        W60183  20.767  20.570   2.711
  681W        W60184  43.870  23.206   2.361
  682W        W60185  23.733  27.011  11.576
  683W        W60186  16.626  31.128   2.387
  684W        W60187  32.015  42.879   1.821
  685W        W60188  43.295  17.686   3.192
  686W        W60189   4.293  38.982   2.247
  687W        W60190  15.285  38.526   3.254
  688W        W60191  36.532  43.887   0.877
  689W        W60192  29.015  10.177   3.182
  690W        W60193  41.299   1.775  12.405
  691W        W60194  25.619  12.755   1.411
  692W        W60195   5.708  15.181   5.257
  693W        W60196  28.153   1.241  11.043
  694W        W60197  28.143   8.229   2.217
  695W        W60198   1.816  17.731   3.723
  696W        W60199  41.393  10.204   2.715
  697W        W60200  14.667   4.731  10.544
  698W        W60201  20.047  12.175   1.801
  699W        W60202   7.196  44.884   1.354
  700W        W60203   0.429  15.703   2.743
  701W        W60204  43.817  22.160  14.852
  702W        W60205  40.832  36.460  11.401
  703W        W60206  13.189  44.337   1.888
  704W        W60207   2.334  22.008   3.718
  705W        W60208  13.838  40.491   2.383
  706W        W60209  11.771  25.651  10.536
  707W        W60210  31.584  14.107  13.003
  708W        W60211  35.376  38.561  14.414
  709W        W60212   9.786  35.363  13.817
  710W        W60213  21.131  11.831  10.524
  711W        W60214  11.867  44.780  11.109
  712W        W60215   4.941  18.253   3.246
  713W        W60216  15.807  22.633  12.979
  714W        W60217  14.640  34.532  11.936
  715W        W60218   5.388   6.854   4.803
  716W        W60219  35.449  36.931   2.867
  717W        W60220  34.939   3.338   3.629
  718W        W60221  42.350  21.635   9.513
  719W        W60222  22.512  40.826  13.805
  720W        W60223  29.541  28.029   5.301
  721W        W60224  36.864   7.766   1.749
  722W        W60225  34.553   1.770  12.461
  723W        W60226   5.704  19.718  12.465
  724W        W60227  21.065  23.058   4.300
  725W        W60228  11.830  20.595   3.793
  726W        W60229   1.754  24.641   3.352
  727W        W60230   2.810  14.234   0.242
  728W        W60231  12.275   0.430  13.987
  729W        W60232  26.656   9.834   1.794
  730W        W60233   3.805   1.886  13.827
  731W        W60234  42.832  19.704  14.785
  732W        W60235  17.204  13.762  14.359
  733W        W60236  16.308   5.439   2.280
  734W        W60237  15.097  25.534   1.360
  735W        W60238   7.799   0.290   1.813
  736W        W60239  30.485  19.053  11.863
  737W        W60240  18.200  39.502   3.284
  738W        W60241   8.207  44.375   1.317
  739W        W60242   9.344  31.018  13.322
  740W        W60243  40.514  18.292  11.048
  741W        W60244   5.889   6.385   0.926
  742W        W60245  37.457  16.301  14.840
  743W        W60246  32.607  34.472  11.954
  744W        W60247  26.581  28.999   1.304
  745W        W60248  21.728  39.314  14.924
  746W        W60249  29.080  27.679   2.731
  747W        W60250  32.055  39.962  11.545
  748W        W60251  34.538  12.125  13.973
  749W        W60252  38.887  17.158  10.544
  750W        W60253  20.243  27.079  10.431
  751W        W60254  27.007  28.443  13.792
  752W        W60255   2.909   1.239   4.726
  753W        W60256  37.880  19.750  12.551
  754W        W60257  27.179  35.938   2.198
  755W        W60258  14.643  35.529  10.133
  756W        W60259  26.544  28.110  13.879
  757W        W60260  20.049  30.602   4.210
  758W        W60261  38.429  23.714  12.015
  759W        W60262  31.089  32.487  10.910
  760W        W60263  28.146  10.709  12.368
  761W        W60264  34.872   3.784  13.503
  762W        W60265  23.669  39.863   0.417
  763W        W60266  20.579  41.021   3.665
  764W        W60267  24.630  25.566  13.335
  765W        W60268  24.999  21.696  12.093
  766W        W60269  32.982  17.297  10.414
  767W        W60270   4.391  41.395  13.313
  768W        W60271  29.584  32.955   1.861
  769W        W60272  19.709   6.374  10.598
  770W        W60273  27.133  42.841  10.630
  771W        W60274   6.398  16.272  14.360
  772W        W60275  25.518   9.383  12.539
  773W        W60276   3.318   0.841  10.109
  774W        W60277  16.097   5.213  12.055
  775W        W60278  24.998  16.078   4.280
  776W        W60279  36.858  22.081  12.841
  777W        W60280   6.354  15.245   3.332
  778W        W60281   3.420  32.115   1.749
  779W        W60282  40.322  23.532   4.241
  780W        W60283  44.756   1.858  12.520
  781W        W60284   4.362  33.567  14.763
  782W        W60285  15.288  30.945  12.408
  783W        W60286  21.102  13.153   3.218
  784W        W60287   0.789  11.865   0.380
  785W        W60288  28.086  36.558   0.907
  786W        W60289  27.620  39.358  12.980
  787W        W60290  36.993  33.999   1.404
  788W        W60291  19.224  28.972   2.363
  789W        W60292  21.098  26.553   4.200
  790W        W60293  37.069  35.931  13.374
  791W        W60294  25.047   8.774   3.349
  792W        W60295  39.504  18.104  11.888
  793W        W60296  40.891  21.243  10.978
  794W        W60297  28.181  21.045   1.431
  795W        W60298  37.872  28.592   0.333
  796W        W60299  13.605  25.206  12.557
  797W        W60300  43.442   9.152  12.423
  798W        W60301  37.070  17.244  14.825
  799W        W60302  19.697   8.752  12.562
  800W        W60303  37.971  26.060  13.519
  801W        W60304  19.139  29.104   0.445
  802W        W60305  15.731   7.901  10.550
  803W        W60306  40.849  25.665  13.371
  804W        W60307  26.689   3.420  13.371
  805W        W60308  12.827  22.138  12.973
  806W        W60309  27.583  32.898  12.872
  807W        W60310  10.375  32.966   9.502
  808W        W60311  38.476  15.767  10.422
  809W        W60312   1.476  35.392   1.858
  810W        W60313  36.418  15.649   2.385
  811W        W60314   0.249  31.603  13.544
  812W        W60315  32.095  38.415   2.339
  813W        W60316  41.009   6.831  12.532
  814W        W60317   5.308  39.504   1.233
  815W        W60318  30.542  17.666   5.093
  816W        W60319  11.701  11.831  11.933
  817W        W60320   8.401  32.981  13.328
  818W        W60321  32.071   9.267   4.169
  819W        W60322  35.908  36.510   3.165
  820W        W60323  32.533  37.348   1.247
  821W        W60324   7.696  16.077   1.880
  822W        W60325  13.224   5.325  14.451
  823W        W60326  41.446   3.461  10.008
  824W        W60327  21.249  36.846  10.888
  825W        W60328  39.061  29.533  10.910
  826W        W60329   3.296   7.778  11.909
  827W        W60330  26.620  34.952   3.179
  828W        W60331  39.539  19.594  10.453
  829W        W60332  11.838  41.953  11.913
  830W        W60333   6.779  15.696   0.922
  831W        W60334   0.455  16.581  13.865
  832W        W60335  39.024  30.002   0.905
  833W        W60336   3.760  28.168  12.003
  834W        W60337   7.379   8.801   3.316
  835W        W60338   0.837  24.711  11.856
  836W        W60339   0.290   6.681  13.854
  837W        W60340   1.333  21.032  12.569
  838W        W60341  27.114  10.297  14.333
  839W        W60342  18.764  41.012  11.543
  840W        W60343  20.126  21.531   4.209
  841W        W60344  33.624   2.271   2.233
  842W        W60345  37.515   1.949   1.443
  843W        W60346  36.005  24.030   3.836
  844W        W60347   8.242   3.889  11.419
  845W        W60348  15.242  19.742  13.001
  846W        W60349  40.825  35.587   4.811
  847W        W60350  43.363  20.632  14.424
  848W        W60351  20.737  42.349   4.146
  849W        W60352   0.986  38.473   3.227
  850W        W60353  15.132   5.410   3.154
  851W        W60354   9.817  39.482  11.608
  852W        W60355  16.170  44.290  11.095
  853W        W60356  32.110  11.725  10.582
  854W        W60357  39.881  19.553  11.019
  855W        W60358   0.353  15.722  12.341
  856W        W60359  34.972   5.362   2.712
  857W        W60360   0.929   5.872  14.760
  858W        W60361  32.428  41.400   2.731
  859W        W60362  21.111  40.492   1.741
  860W        W60363  18.631  43.299   1.876
  861W        W60364  20.122  42.966   4.835
  862W        W60365  42.836  34.097  14.945
  863W        W60366  32.627  25.502   2.825
  864W        W60367  27.477   4.936   3.238
  865W        W60368  23.666  15.208   2.366
  866W        W60369  33.518  26.579   5.175
  867W        W60370  24.085  18.670  11.027
  868W        W60371  35.048  44.914   1.724
  869W        W60372   1.877   2.370   0.300
  870W        W60373  36.565  34.877  14.937
  871W        W60374  41.302  25.681  12.498
  872W        W60375  40.894  26.171   3.738
  873W        W60376  17.756  41.838  13.936
  874W        W60377  13.781   3.843   2.706
  875W        W60378   5.376  21.752  10.976
  876W        W60379   6.802   4.891   1.822
  877W        W60380  17.143  26.608  14.880
  878W        W60381   3.355  17.799   3.381
  879W        W60382  33.884  30.524  14.444
  880W        W60383  37.037  24.681   2.202
  881W        W60384  24.704   3.797  13.395
  882W        W60385   3.291  35.087   2.343
  883W        W60386   3.258   4.288   1.752
  884W        W60387  24.084  39.060  14.015
  885W        W60388  25.511  29.021   1.398
  886W        W60389  17.694  38.352  14.915
  887W        W60390  33.983  23.052  11.597
  888W        W60391   1.343  14.630   4.744
  889W        W60392  17.258  42.467  13.539
  890W        W60393  24.607   9.314  12.393
  891W        W60394  16.308  35.396  10.599
  892W        W60395  15.251  28.582   3.706
  893W        W60396  28.639   3.395  10.470
  894W        W60397  44.448  39.375  10.412
  895W        W60398  25.168  40.958   0.885
  896W        W60399  29.545  10.266  10.469
  897W        W60400   6.380  44.984  10.525
  898W        W60401   6.304  26.074   2.730
  899W        W60402  42.453   7.188  13.498
  900W        W60403   0.375  36.577   2.678
  901W        W60404   9.152  36.991  14.921
  902W        W60405  25.969  29.163   0.779
  903W        W60406   4.395  35.983   2.383
  904W        W60407  25.970   2.786   0.366
  905W        W60408  32.897  20.675   2.846
  906W        W60409  17.633  40.933  10.575
  907W        W60410  18.149  10.149  14.766
  908W        W60411   0.951  35.862   1.229
  909W        W60412   1.373  35.431  12.521
  910W        W60413  20.708   8.193   0.831
  911W        W60414  15.680  10.856  12.350
  912W        W60415  19.184  44.365   0.285
  913W        W60416  21.020  32.583   4.306
  914W        W60417   3.243  16.651  14.857
  915W        W60418   7.854   2.472   3.736
  916W        W60419  17.298  12.680   9.998
  917W        W60420  44.278   0.317  10.004
  918W        W60421   1.769  33.572  14.020
  919W        W60422   2.329  32.099  11.454
  920W        W60423   9.272  26.552   2.668
  921W        W60424  33.472   1.949   1.860
  922W        W60425   9.281  22.643   2.797
  923W        W60426  40.962  29.608  13.412
  924W        W60427  39.405   3.828   4.226
  925W        W60428  15.112  22.213   4.337
  926W        W60429   1.967  43.004   1.350
  927W        W60430  42.924  39.957   3.301
  928W        W60431  25.969  38.012  14.879
  929W        W60432  29.464   7.198   5.150
  930W        W60433  12.249  30.568   2.263
  931W        W60434   9.784  26.680   3.248
  932W        W60435   6.874  31.598   2.720
  933W        W60436  43.972  17.638  13.813
  934W        W60437  34.554  38.456   3.671
  935W        W60438   3.340  18.267   1.746
  936W        W60439  21.749  21.648  11.883
  937W        W60440  13.815  30.424  12.564
  938W        W60441   6.795  36.859   1.299
  939W        W60442  14.700  22.631   1.695
  940W        W60443  39.965  30.606   1.769
  941W        W60444   7.405  39.887   4.318
  942W        W60445  34.527  33.580   1.440
  943W        W60446  21.515  27.960   4.327
  944W        W60447  44.844  26.163   3.770
  945W        W60448  28.658  27.941  12.856
  946W        W60449  15.728   1.270   1.219
  947W        W60450  16.637  32.536  10.924
  948W        W60451  36.965  10.246   4.176
  949W        W60452  29.116  26.164   2.319
  950W        W60453  44.964  34.451  11.391
  951W        W60454  10.837   3.420   2.328
  952W        W60455  29.989  30.156   2.884
  953W        W60456  21.742  44.783   1.784
  954W        W60457  24.020   7.251   3.776
  955W        W60458  11.759   6.813  14.001
  956W        W60459  23.059   3.909  10.408
  957W        W60460   0.819  15.195   4.181
  958W        W60461  28.663   6.313   3.237
  959W        W60462  18.231   9.230  12.451
  960W        W60463   6.407  10.273   2.198
  961W        W60464  17.138  18.066   1.395
  962W        W60465  13.286   8.278  10.924
  963W        W60466  28.444  40.382   1.900
  964W        W60467  21.654  38.526   4.743
  965W        W60468  17.568  30.096  12.490
  966W        W60469  32.471  14.698  11.974
  967W        W60470   3.436   1.972   1.826
  968W        W60471  24.025   1.392  12.550
  969W        W60472  32.090  43.829  10.925
  970W        W60473  32.610  11.305  12.901
  971W        W60474  33.877   6.307   1.403
  972W        W60475  10.381  11.793   2.242
  973W        W60476  20.121   7.310   0.408
  974W        W60477  40.972  38.364  13.041
  975W        W60478  43.784  20.256  12.341
  976W        W60479   4.833  43.858  13.309
  977W        W60480  37.912  13.702   1.242
  978W        W60481   7.766  37.942  14.497
  979W        W60482  31.897   3.776   0.350
  980W        W60483  32.067  21.604  13.926
  981W        W60484  38.018  19.559  13.482
  982W        W60485   6.895  20.567   2.374
  983W        W60486  11.345   3.825   3.352
  984W        W60487  17.090  24.485   0.480
  985W        W60488   6.283   3.436  12.938
  986W        W60489  22.251  29.597   1.362
  987W        W60490   7.742   6.855  12.838
  988W        W60491  16.613   4.838  14.926
  989W        W60492  14.670  20.091   1.855
  990W        W60493  15.303  41.012   4.219
  991W        W60494   6.223   6.212   5.321
  992W        W60495   4.722  40.549   3.258
  993W        W60496   6.875  25.527  12.482
  994W        W60497  28.104  11.313   3.655
  995W        W60498  28.166  15.257   4.331
  996W        W60499  26.084   5.892  13.891
  997W        W60500  29.619  43.840   0.351
  998W        W60501  17.170   0.828  13.999
  999W        W60502  17.187   9.186   3.770
 1000W        W60503  44.387  39.835  14.508
 1001W        W60504  12.738   7.215   4.816
 1002W        W60505   6.909  30.643   1.268
 1003W        W60506  35.592  25.205   4.298
 1004W        W60507  31.913  33.450   2.669
 1005W        W60508  35.064  37.354   1.308
 1006W        W60509  12.189  27.008   0.808
 1007W        W60510  27.058  16.103  13.037
 1008W        W60511   0.928   4.922  13.004
 1009W        W60512  40.811  35.957  10.449
 1010W        W60513   4.932  22.132   4.144
 1011W        W60514  17.602  22.022   0.408
 1012W        W60515  15.183  43.975   2.322
 1013W        W60516  24.014  38.062  11.381
 1014W        W60517  18.256  29.101  10.984
 1015W        W60518  13.812  44.294  13.474
 1016W        W60519  27.661  28.172  13.881
 1017W        W60520  32.551  33.579  10.906
 1018W        W60521  10.213  20.028  10.569
 1019W        W60522  18.195  37.989  13.486
 1020W        W60523   8.196  19.601  14.004
 1021W        W60524  44.832  23.153  12.092
 1022W        W60525  41.466  22.139   2.850
 1023W        W60526   5.769  21.235  12.510
 1024W        W60527  39.354  42.468   2.839
 1025W        W60528  43.361  28.664  12.050
 1026W        W60529  21.685   7.390   2.410
 1027W        W60530   7.331  24.193   2.332
 1028W        W60531  14.275   2.860   2.781
 1029W        W60532  43.407  18.056  13.489
 1030W        W60533  25.162  18.596  11.462
 1031W        W60534  19.170  41.014  14.961
 1032W        W60535  44.789  15.110  13.415
 1033W        W60536  35.991   4.340   3.855
 1034W        W60537  41.946  14.639   4.177
 1035W        W60538  38.453  30.916   2.229
 1036W        W60539  39.421   7.735  13.835
 1037W        W60540  25.096  36.406   2.672
 1038W        W60541   2.860   5.194  11.961
 1039W        W60542  13.611  28.542   4.135
 1040W        W60543   8.694  37.389   3.200
 1041W        W60544  34.932  18.191  12.493
 1042W        W60545  44.776  31.031  12.368
 1043W        W60546  42.812  17.243  12.929
 1044W        W60547   2.408  15.616   3.331
 1045W        W60548   7.689  31.899  12.897
 1046W        W60549   5.767   5.876  11.967
 1047W        W60550  11.355  21.564   1.832
 1048W        W60551  39.857  22.663  14.372
 1049W        W60552   1.744  16.128  12.919
 1050W        W60553   4.362  31.462  10.570
 1051W        W60554  16.190  23.628   1.370
 1052W        W60555  35.466  15.789  14.828
 1053W        W60556  19.595  32.614   4.282
 1054W        W60557  11.625  39.441   0.847
 1055W        W60558   5.246   2.432  10.460
 1056W        W60559  28.967  39.394   3.209
 1057W        W60560  11.690  38.821  13.431
 1058W        W60561   8.800  19.150  12.346
 1059W        W60562  15.645  21.058  14.970
 1060W        W60563  12.682   7.697  14.766
 1061W        W60564   2.292  40.022   0.387
 1062W        W60565  34.116  27.057   2.247
 1063W        W60566   8.272   5.243  14.502
 1064W        W60567  40.488  15.216  14.508
 1065W        W60568   6.763  15.748   3.375
 1066W        W60569   1.483  14.734   1.892
 1067W        W60570   4.898  37.030  12.522
 1068W        W60571  27.537  23.157  14.834
 1069W        W60572   0.327  14.682  14.429
 1070W        W60573  41.892  32.394   3.757
 1071W        W60574   2.793  44.782  14.895
 1072W        W60575  41.468  36.841  14.773
 1073W        W60576  37.048  44.919  12.410
 1074W        W60577   3.257  15.172  12.374
 1075W        W60578  30.604  10.157  13.411
 1076W        W60579  19.050   8.161  14.300
 1077W        W60580   4.375  17.065   2.339
 1078W        W60581  14.775  21.152  11.043
 1079W        W60582   2.743  35.553  14.977
 1080W        W60583  14.609  23.490  11.499
 1081W        W60584  33.546  42.852   3.687
 1082W        W60585  16.295  10.143   4.345
 1083W        W60586  30.914  26.147   1.916
 1084W        W60587  13.233  39.395  12.579
 1085W        W60588  30.559  27.964  12.081
 1086W        W60589  33.553  43.766   4.663
 1087W        W60590  27.082  42.301  10.498
 1088W        W60591  19.130   2.856  13.822
 1089W        W60592  42.805  21.529  12.510
 1090W        W60593  13.224  35.097  10.590
 1091W        W60594  29.044  26.985  12.500
 1092W        W60595  30.579  39.895  13.937
 1093W        W60596   5.925  13.819   2.861
 1094W        W60597  33.030  38.911  12.579
 1095W        W60598   0.287  44.293  14.372
 1096W        W60599  44.945  35.034  11.038
 1097W        W60600  29.990  30.925  11.462
 1098W        W60601   4.351  34.521   3.731
 1099W        W60602  16.224  33.011   3.234
 1100W        W60603  40.330  11.702  10.467
 1101W        W60604  41.919   0.265  12.447
 1102W        W60605  26.638  13.321   1.793
 1103W        W60606   4.829  31.605  14.845
 1104W        W60607  13.822  41.311   0.294
 1105W        W60608   5.913  35.107  13.412
 1106W        W60609  32.402  33.472   3.736
 1107W        W60610  41.302  29.458  11.858
 1108W        W60611  34.989  31.916  14.398
 1109W        W60612  25.063   7.832  10.405
 1110W        W60613  42.919  17.070  12.426
 1111W        W60614  26.139  37.840  14.368
 1112W        W60615   7.411  37.067  11.058
 1113W        W60616  26.112  24.548   4.114
 1114W        W60617  43.906  43.485  13.415
 1115W        W60618  12.741   3.339  12.492
 1116W        W60619  33.115   8.762   4.291
 1117W        W60620  36.470  19.625   2.308
 1118W        W60621  37.451  38.543  11.016
 1119W        W60622  29.635  10.151  13.346
 1120W        W60623  16.280  30.547  13.988
 1121W        W60624   3.729  25.469   0.340
 1122W        W60625  37.507  30.567  11.515
 1123W        W60626  42.506   2.297  14.429
 1124W        W60627  32.490  39.900   3.689
 1125W        W60628  23.729  39.048   0.842
 1126W        W60629  14.729  17.172  13.492
 1127W        W60630  10.155  27.648  10.519
 1128W        W60631  42.825  27.639   4.821
 1129W        W60632  21.576  33.517  12.829
 1130W        W60633  21.078  37.946   2.801
 1131W        W60634  10.210  22.083  10.639
 1132W        W60635  17.558  41.340   2.877
 1133W        W60636   5.761  20.530   3.783
 1134W        W60637  35.394   9.368  12.858
 1135W        W60638  20.052   6.718  13.048
 1136W        W60639  44.841  11.253  14.439
 1137W        W60640  43.011  21.543  14.415
 1138W        W60641  41.848  31.543   2.333
 1139W        W60642   9.757  31.049   2.231
 1140W        W60643   8.331  21.196   3.327
 1141W        W60644   3.243  12.797  12.370
 1142W        W60645  39.376  27.546  13.460
 1143W        W60646  42.821  39.838  11.602
 1144W        W60647  26.155  37.579   2.864
 1145W        W60648  38.361  24.017   2.733
 1146W        W60649  18.698  23.551  14.298
 1147W        W60650   7.268  27.611   0.831
 1148W        W60651  42.316  31.138   3.278
 1149W        W60652  15.181   5.926   4.651
 1150W        W60653  29.455  40.345  13.937
 1151W        W60654  29.988  12.282  10.588
 1152W        W60655  40.865   1.882  12.089
 1153W        W60656  13.204  13.633   3.174
 1154W        W60657  36.396  36.919   1.365
 1155W        W60658  32.916  32.122  13.904
 1156W        W60659  35.905  35.065  11.896
 1157W        W60660   5.209  32.979   4.808
 1158W        W60661   7.716  17.784  14.401
 1159W        W60662  26.166  28.001   2.747
 1160W        W60663  38.379  31.417  12.016
 1161W        W60664   8.779  10.380  11.550
 1162W        W60665  10.652  19.599  12.518
 1163W        W60666  13.842  17.695   3.167
 1164W        W60667  38.434   7.249  13.853
 1165W        W60668  28.065  27.122  11.123
 1166W        W60669  25.096  35.575   0.816
 1167W        W60670  24.998  18.187   0.928
 1168W        W60671  20.105  12.728  12.868
 1169W        W60672  24.224  37.425  14.470
 1170W        W60673   5.903   1.833  14.333
 1171W        W60674   4.896  42.868   0.823
 1172W        W60675   5.386  17.563  11.570
 1173W        W60676  31.116  44.764   2.769
 1174W        W60677  18.145  43.954  14.341
 1175W        W60678  26.536  37.441   1.791
 1176W        W60679  19.267  38.055  10.594
 1177W        W60680   7.902  18.077   0.884
 1178W        W60681  35.103  18.093   4.160
 1179W        W60682  39.993  25.477  12.449
 1180W        W60683  18.740  21.122   9.934
 1181W        W60684   4.867  33.399   2.697
 1182W        W60685  19.630  13.783   4.660
 1183W        W60686  36.391  34.531   2.418
 1184W        W60687   5.884  44.347  10.928
 1185W        W60688  44.962   7.718   3.370
 1186W        W60689  22.112  40.355  11.604
 1187W        W60690  33.088  42.497  14.315
 1188W        W60691  10.258   5.928   2.325
 1189W        W60692  44.926   8.786  13.038
 1190W        W60693  36.489   6.204   4.639
 1191W        W60694  37.471   8.178   3.224
 1192W        W60695   8.679   5.706   2.787
 1193W        W60696  39.405  41.036  14.463
 1194W        W60697  33.912  33.897  13.795
 1195W        W60698  36.945  40.901   4.688
 1196W        W60699   7.378  40.825   0.964
 1197W        W60700  26.551  42.292   3.774
 1198W        W60701   9.332  44.859   4.830
 1199W        W60702  17.721  19.089  14.991
 1200W        W60703  21.679  15.631   0.465
 1201W        W60704  24.130   1.338  10.131
 1202W        W60705  40.943   6.339   1.744
 1203W        W60706  42.382  18.174   3.722
 1204W        W60707  25.660  13.616  14.007
 1205W        W60708  11.173   8.230  14.010
 1206W        W60709  26.598  39.335   2.198
 1207W        W60710  34.412   8.794   3.744
 1208W        W60711  34.044  42.812   3.359
 1209W        W60712  41.932  35.510   4.229
 1210W        W60713   9.233  17.188  12.539
 1211W        W60714   6.364  29.044   3.159
 1212W        W60715  34.878  32.993  10.617
 1213W        W60716  44.776  15.682  14.031
 1214W        W60717  10.810  20.072  13.983
 1215W        W60718   4.799  22.109  11.425
 1216W        W60719  27.646  34.885   0.788
 1217W        W60720   2.818  38.852  14.373
 1218W        W60721  26.518   1.942  12.926
 1219W        W60722  38.011  39.349   0.266
 1220W        W60723   6.710  26.089  11.404
 1221W        W60724   6.918  43.348   0.786
 1222W        W60725   4.919  44.408   2.869
 1223W        W60726  40.442  16.671  13.526
 1224W        W60727  19.281  18.102   2.704
 1225W        W60728  37.496  29.589  11.557
 1226W        W60729  18.293  11.664   1.274
 1227W        W60730  18.600  27.063  11.512
 1228W        W60731  28.592  39.942  13.944
 1229W        W60732   2.939  43.799  10.436
 1230W        W60733  11.258   4.940   0.257
 1231W        W60734  27.954  19.274   3.660
 1232W        W60735   6.828  26.044   0.910
 1233W        W60736  17.640   7.871  13.906
 1234W        W60737  32.455  29.664   3.777
 1235W        W60738  15.086  23.522   3.740
 1236W        W60739  24.674  32.912  13.412
 1237W        W60740  22.677  34.496   2.688
 1238W        W60741   4.447   5.400  10.469
 1239W        W60742   9.649  17.570  14.831
 1240W        W60743   7.773  37.570  12.973
 1241W        W60744  43.969  25.050  14.895
 1242W        W60745  13.611  40.944  10.468
 1243W        W60746  39.817  44.295   1.355
 1244W        W60747  27.970  37.359  11.965
 1245W        W60748  13.152   1.237   3.309
 1246W        W60749  26.032  40.433   2.415
 1247W        W60750  10.140   5.733  12.972
 1248W        W60751   6.908  40.030   0.958
 1249W        W60752  18.746  43.421   4.277
 1250W        W60753   7.177   5.326  12.901
 1251W        W60754  24.045  25.511   1.792
 1252W        W60755  10.644  27.464  14.924
 1253W        W60756  35.581  11.199   4.652
 1254W        W60757   1.966   5.424  10.526
 1255W        W60758  43.963  32.446   4.156
 1256W        W60759  30.569  38.460  14.026
 1257W        W60760  19.136   5.277  14.397
 1258W        W60761  25.214  20.567  14.480
 1259W        W60762  35.447  26.641  11.377
 1260W        W60763   7.752  11.819  13.343
 1261W        W60764  11.128   4.872  14.450
 1262W        W60765  15.174   8.751   2.900
 1263W        W60766  23.535  21.023   2.868
 1264W        W60767  43.372  10.679   0.455
 1265W        W60768  42.873  14.339  10.406
 1266W        W60769  26.967  16.229  10.638
 1267W        W60770  31.034   5.879  11.483
 1268W        W60771  18.210  16.735   3.818
 1269W        W60772  42.458  12.351   0.899
 1270W        W60773  34.889  12.167  11.422
 1271W        W60774  41.023  24.134  14.900
 1272W        W60775  41.973  32.609   1.383
 1273W        W60776  44.817  26.965  11.915
 1274W        W60777   1.928   8.737   3.239
 1275W        W60778   4.215  13.293   1.380
 1276W        W60779  29.442  17.573   0.785
 1277W        W60780  25.143  14.138   0.323
 1278W        W60781  32.585  12.752   0.887
 1279W        W60782  37.531  44.757  10.612
 1280W        W60783   5.732   3.868  12.929
 1281W        W60784  11.856   9.268  12.535
 1282W        W60785   8.383  16.307  12.535
 1283W        W60786  28.144  15.594   2.185
 1284W        W60787  15.270  41.535  12.978
 1285W        W60788  34.976   4.909  10.536
 1286W        W60789   2.452  14.646   3.270
 1287W        W60790   9.343  12.293   2.808
 1288W        W60791  23.490  12.126  12.443
 1289W        W60792  37.874  16.101  11.022
 1290W        W60793  41.467  26.489  12.911
 1291W        W60794  30.440   0.953  12.935
 1292W        W60795  35.930   1.838   0.880
 1293W        W60796  16.683  14.245  12.057
 1294W        W60797   2.768  36.922   3.718
 1295W        W60798  41.880  17.095  14.803
 1296W        W60799  15.754  42.809   4.645
 1297W        W60800  22.204  24.643  14.780
 1298W        W60801  44.321  28.060  10.470
 1299W        W60802  11.661   8.235  10.573
 1300W        W60803  39.492   8.798   1.399
 1301W        W60804  13.166  31.914   3.301
 1302W        W60805  32.457   6.367   0.275
 1303W        W60806  18.159   1.816   3.295
 1304W        W60807  43.293  24.089  11.961
 1305W        W60808  25.555  33.037   4.701
 1306W        W60809  17.627  42.825   4.752
 1307W        W60810   4.259  15.246   3.791
 1308W        W60811  24.593  27.619  12.088
 1309W        W60812  15.795  14.716   5.169
 1310W        W60813  26.028  22.182   1.725
 1311W        W60814  38.961  36.922  14.480
 1312W        W60815  28.079  30.642   2.324
 1313W        W60816   6.322  36.080   0.904
 1314W        W60817  28.071  19.084   1.910
 1315W        W60818  42.932  24.618  13.792
 1316W        W60819   5.827  23.048   0.774
 1317W        W60820   3.953   2.833  13.815
 1318W        W60821   6.742   5.307  14.283
 1319W        W60822  14.732   0.941   1.384
 1320W        W60823  25.069  22.069  10.451
 1321W        W60824  43.918   2.835   0.255
 1322W        W60825  23.635   6.385  12.430
 1323W        W60826   3.375   2.721   2.282
 1324W        W60827   4.820  26.093  14.842
 1325W        W60828  29.583   9.191  11.481
 1326W        W60829   0.912  16.746   3.708
 1327W        W60830  20.135  13.157   4.291
 1328W        W60831  11.183  38.923  10.502
 1329W        W60832  37.967  20.719  10.939
 1330W        W60833  22.095  32.029  12.388
 1331W        W60834  11.759  33.007  13.345
 1332W        W60835   0.973  43.810   0.388
 1333W        W60836  19.163  31.015   3.673
 1334W        W60837  17.195   4.223   3.214
 1335W        W60838  44.461  28.059  12.885
 1336W        W60839  15.246  11.778   1.762
 1337W        W60840  14.207   1.927  14.847
 1338W        W60841  39.460  21.656  11.479
 1339W        W60842  43.824  32.617   0.889
 1340W        W60843  20.751  18.699  14.964
 1341W        W60844  11.167  31.940   3.173
 1342W        W60845  26.567  25.973  13.930
 1343W        W60846  23.104  27.584   0.868
 1344W        W60847  18.697  12.803   0.852
 1345W        W60848   6.213  14.098   0.827
 1346W        W60849  27.093  44.966   9.448
 1347W        W60850  24.031  23.519  13.515
 1348W        W60851   3.396  44.267   1.847
 1349W        W60852  34.602  14.169  11.595
 1350W        W60853  15.679  14.143  13.403
 1351W        W60854  39.525   9.342   1.817
 1352W        W60855  21.123  32.977  10.037
 1353W        W60856   6.794  41.846   2.803
 1354W        W60857  20.553   9.875   4.816
 1355W        W60858   2.462  22.561   1.383
 1356W        W60859  30.088  28.522   2.219
 1357W        W60860   5.744  14.715   4.139
 1358W        W60861   4.207  36.008  10.617
 1359W        W60862  25.968   9.785   0.813
 1360W        W60863  33.938  34.451  10.482
 1361W        W60864  23.726  42.787  12.962
 1362W        W60865  20.149  44.454  13.996
 1363W        W60866   1.265  38.482   2.308
 1364W        W60867  11.159  43.864  11.113
 1365W        W60868  11.165  42.289  14.425
 1366W        W60869   5.924  35.935   4.302
 1367W        W60870  12.241  28.945  12.061
 1368W        W60871   2.847  41.841   2.279
 1369W        W60872  35.065  34.569  11.893
 1370W        W60873  31.037   6.762  13.537
 1371W        W60874  20.708  37.439   2.838
 1372W        W60875  35.525  28.033  12.525
 1373W        W60876  16.200   5.863  13.004
 1374W        W60877  24.189  42.950   3.256
 1375W        W60878  10.268  39.824   0.732
 1376W        W60879  24.517  14.740  11.436
 1377W        W60880  24.558  42.920  10.513
 1378W        W60881  16.138  20.608  10.582
 1379W        W60882  40.385  36.916  14.001
 1380W        W60883  38.044  23.189  14.849
 1381W        W60884  10.645   6.296  12.836
 1382W        W60885  31.959  13.706   2.209
 1383W        W60886  21.730  24.990   0.479
 1384W        W60887  17.696  38.540   1.384
 1385W        W60888   2.347  17.134   4.663
 1386W        W60889  35.554  36.506   5.801
 1387W        W60890  32.118   0.478  11.925
 1388W        W60891  25.972  22.115  13.344
 1389W        W60892   4.877  26.066   1.450
 1390W        W60893  28.502  25.217   1.843
 1391W        W60894  21.094  41.821   3.859
 1392W        W60895  17.180  35.453  14.316
 1393W        W60896  41.375   9.327   9.955
 1394W        W60897  20.642  24.527   3.221
 1395W        W60898  40.993  28.098  10.507
 1396W        W60899   2.367  13.805   1.908
 1397W        W60900  29.018  32.486   4.624
 1398W        W60901  13.157  39.957  13.879
 1399W        W60902  38.911  32.432   2.759
 1400W        W60903  40.879   5.431   2.776
 1401W        W60904  42.907  30.579   2.852
 1402W        W60905  36.409  17.160  10.522
 1403W        W60906   8.338  20.731   2.262
 1404W        W60907  14.254  37.505  13.858
 1405W        W60908  38.547  18.678   0.412
 1406W        W60909  16.602  22.216  11.500
 1407W        W60910  31.136  13.797  14.954
 1408W        W60911   0.491  20.227  14.456
 1409W        W60912  36.541  44.379  12.443
 1410W        W60913   0.446  16.212   2.723
 1411W        W60914  11.858  30.163   3.746
 1412W        W60915  24.068  28.628  13.893
 1413W        W60916  12.284   6.382   4.136
 1414W        W60917  19.048  30.619   1.270
 1415W        W60918  29.045   8.246  10.638
 1416W        W60919  11.823  43.011   3.266
 1417W        W60920  17.668  30.566   2.688
 1418W        W60921   0.818  30.457  14.887
 1419W        W60922  22.221  23.099  11.944
 1420W        W60923  42.789   7.695   2.336
 1421W        W60924  36.581  36.903   1.736
 1422W        W60925  34.998   8.774   2.339
 1423W        W60926  29.600  12.855  10.506
 1424W        W60927  39.989   7.248  14.915
 1425W        W60928  17.789  20.584   4.648
 1426W        W60929  29.663  16.316  13.046
 1427W        W60930  35.444   4.375   4.614
 1428W        W60931  23.675  40.016  11.469
 1429W        W60932  32.114  11.227  13.511
 1430W        W60933  15.197  39.998  14.432
 1431W        W60934  32.894   7.763   1.847
 1432W        W60935  20.142  43.821  12.480
 1433W        W60936  25.055  40.865  11.058
 1434W        W60937  32.426   2.828   3.649
 1435W        W60938  19.196  31.525   4.608
 1436W        W60939  34.546   8.660  10.925
 1437W        W60940  30.914   6.400  13.948
 1438W        W60941  33.892   1.415  13.868
 1439W        W60942  35.451  41.484   0.777
 1440W        W60943  32.493  30.004   0.427
 1441W        W60944  11.652  18.730  13.399
 1442W        W60945  25.143  20.133   4.700
 1443W        W60946  28.679  37.573  11.950
 1444W        W60947  33.085   6.209   1.380
 1445W        W60948   7.687  33.884  11.449
 1446W        W60949  19.594  41.375  14.806
 1447W        W60950  38.072  27.061   0.462
 1448W        W60951  21.614  12.754   2.350
 1449W        W60952  39.537  11.309   2.876
 1450W        W60953  37.402  15.821  10.616
 1451W        W60954  38.987  41.848   1.233
 1452W        W60955  11.365   9.325   2.319
 1453W        W60956   5.401   2.231  13.993
 1454W        W60957  26.017  32.413  13.314
 1455W        W60958  21.564   4.410   5.316
 1456W        W60959  24.561  41.958   4.745
 1457W        W60960   9.340  43.498   2.811
 1458W        W60961  21.052  35.381  12.527
 1459W        W60962  33.128  41.426   3.779
 1460W        W60963  35.474  11.171   1.295
 1461W        W60964  21.563  32.910  10.422
 1462W        W60965  27.044  14.712  12.577
 1463W        W60966  41.494  12.227   4.626
 1464W        W60967  33.935  13.107  14.922
 1465W        W60968   4.393   7.819   1.319
 1466W        W60969  34.908  34.994  11.493
 1467W        W60970  15.708  36.033   0.391
 1468W        W60971   0.762  44.833   1.720
 1469W        W60972  24.176  23.023  12.050
 1470W        W60973   0.261  18.053  12.952
 1471W        W60974  37.527  43.379  13.957
 1472W        W60975  20.032  43.437  11.478
 1473W        W60976  37.876  32.508   2.247
 1474W        W60977   3.813   6.808  11.039
 1475W        W60978  27.159  29.121   0.817
 1476W        W60979  18.770  27.103   0.342
 1477W        W60980  42.946  11.805   5.156
 1478W        W60981  36.358  32.580   3.636
 1479W        W60982  34.563  32.611  13.988
 1480W        W60983  24.572  20.227   1.915
 1481W        W60984   6.903  42.006  14.443
 1482W        W60985  35.580   6.718   4.311
 1483W        W60986  31.078  10.642   4.301
 1484W        W60987   5.752  12.774   0.402
 1485W        W60988  36.877  44.821   3.692
 1486W        W60989  39.019  35.428   4.728
 1487W        W60990  10.806  39.421   3.633
 1488W        W60991  22.144  26.083   2.667
 1489W        W60992  31.498  33.065   2.247
 1490W        W60993  41.041  11.664   2.258
 1491W        W60994  26.668  25.997  13.025
 1492W        W60995  15.168  32.419  13.825
 1493W        W60996  14.687  44.298  10.974
 1494W        W60997  22.030  35.594   2.669
 1495W        W60998  10.370   9.753   0.743
 1496W        W60999  14.654   4.878   2.753
 1497W        W61000  20.071  44.266  10.092
 1498W        W61001  35.570  41.439   1.893
 1499W        W61002  17.715  29.142   2.237
 1500W        W61003   9.231  13.168  11.002
 1501W        W61004  28.116   4.710  12.913
 1502W        W61005  33.525  17.293   4.153
 1503W        W61006  40.022  16.302  12.833
 1504W        W61007   2.355   1.347  12.882
 1505W        W61008  17.111  15.095   0.472
 1506W        W61009  40.501  29.092  10.418
 1507W        W61010   3.451  40.891   3.648
 1508W        W61011  26.156  35.898   3.633
 1509W        W61012   3.723  28.525   4.307
 1510W        W61013  30.109   2.379  12.925
 1511W        W61014  28.497  29.661   3.160
 1512W        W61015   0.451   4.714   4.796
 1513W        W61016   1.281  16.260   4.686
 1514W        W61017   8.750  16.191   3.668
 1515W        W61018  37.037  38.385  14.767
 1516W        W61019  43.505  22.606   1.874
 1517W        W61020   4.287  24.996   0.811
 1518W        W61021  33.066  43.870   2.839
 1519W        W61022  30.130   4.325  10.990
 1520W        W61023  37.410  39.389   0.955
 1521W        W61024  11.256   2.436   3.244
 1522W        W61025  39.460  19.102  12.530
 1523W        W61026  30.941  26.463   1.738
 1524W        W61027   6.715  11.676   0.957
 1525W        W61028   4.394  17.221  10.908
 1526W        W61029  44.271  28.126   9.542
 1527W        W61030  10.832  29.982   2.890
 1528W        W61031   5.206  17.789   1.346
 1529W        W61032  43.817  18.760  13.308
 1530W        W61033  34.422  13.716  13.013
 1531W        W61034  35.110  26.123   4.756
 1532W        W61035  15.798   1.932  10.944
 1533W        W61036   4.824  16.251   0.806
 1534W        W61037  33.913  39.833  14.919
 1535W        W61038  43.865   6.755  13.419
 1536W        W61039  15.318   7.245   3.220
 1537W        W61040  44.815  24.170   4.216
 1538W        W61041  27.632  23.004   1.931
 1539W        W61042  36.985   9.777   1.715
 1540W        W61043  32.027   6.776   2.354
 1541W        W61044  16.645  38.482  14.383
 1542W        W61045   8.270  34.987   2.885
 1543W        W61046   5.234  44.448   2.283
 1544W        W61047  11.140   2.270   1.377
 1545W        W61048  44.915  43.409  11.533
 1546W        W61049   9.711  11.138   3.226
 1547W        W61050  20.641  20.755  11.114
 1548W        W61051  28.001  25.039   5.168
 1549W        W61052  16.220  43.833   0.304
 1550W        W61053   4.818  20.231  14.479
 1551W        W61054  28.622   2.458   4.831
 1552W        W61055   1.301  11.306  14.478
 1553W        W61056  35.505  28.124   3.779
 1554W        W61057  25.480  23.494  14.470
 1555W        W61058  17.167  27.014  11.553
 1556W        W61059  30.612  11.757   4.301
 1557W        W61060   0.426   4.415  13.381
 1558W        W61061  35.487  18.760  12.379
 1559W        W61062   2.451  20.764   1.245
 1560W        W61063  42.471  35.517   3.727
 1561W        W61064  15.782  42.281   4.739
 1562W        W61065  26.174  35.017   3.665
 1563W        W61066   9.168  19.771   4.113
 1564W        W61067  15.303  28.651  10.986
 1565W        W61068  34.001  25.034   5.146
 1566W        W61069  23.131  38.894   4.131
 1567W        W61070  20.698  38.887   1.418
 1568W        W61071  21.654  24.558   2.197
 1569W        W61072  26.594  38.825   2.844
 1570W        W61073   8.357  34.556  14.307
 1571W        W61074  32.416  40.527   3.166
 1572W        W61075  11.336  28.992   4.214
 1573W        W61076  42.523  34.871   4.263
 1574W        W61077  30.982  11.138   3.640
 1575W        W61078   6.207  40.488   2.780
 1576W        W61079  35.997  21.111   5.146
 1577W        W61080   8.656   1.366   2.406
 1578W        W61081   2.929  20.709   3.664
 1579W        W61082  38.841  31.445   0.747
 1580W        W61083  42.781  30.025   1.424
 1581W        W61084  18.140  26.126   0.811
 1582W        W61085  11.851  14.652  13.433
 1583W        W61086  30.576  44.767   0.788
 1584W        W61087  34.534   5.213   3.365
 1585W        W61088  13.767   4.940  12.022
 1586W        W61089  35.935  41.483  12.054
 1587W        W61090  33.082  25.682   4.794
 1588W        W61091  28.647  37.948   4.621
 1589W        W61092   0.412  13.328  12.391
 1590W        W61093   1.857  15.329   1.829
 1591W        W61094  34.945  38.974  11.436
 1592W        W61095  11.679  23.518   1.428
 1593W        W61096   1.438  24.707  14.858
 1594W        W61097   1.404  38.876  12.377
 1595W        W61098  36.492  18.574  12.425
 1596W        W61099  21.708  30.135  14.864
 1597W        W61100  41.299  39.384  14.446
 1598W        W61101  20.196  15.280  13.541
 1599W        W61102  38.440  19.592  11.959
 1600W        W61103  23.659  32.419  13.867
 1601W        W61104  33.455  15.683  11.382
 1602W        W61105  43.790   7.829   4.752
 1603W        W61106  40.865   3.314  12.984
 1604W        W61107   3.292  43.008  11.965
 1605W        W61108  12.261  30.128   1.388
 1606W        W61109  31.625  34.104  12.520
 1607W        W61110   3.401   3.428   1.440
 1608W        W61111  28.132  12.355   0.413
 1609W        W61112  17.137  16.168   3.353
 1610W        W61113  27.965  31.004   4.115
 1611W        W61114  12.749  30.582   3.251
 1612W        W61115  40.462  13.230  13.949
 1613W        W61116   7.263  20.716  12.937
 1614W        W61117  25.518   9.381   0.729
 1615W        W61118   3.846  19.673   3.772
 1616W        W61119  27.485  13.167  14.861
 1617W        W61120  27.135  38.056  13.031
 1618W        W61121  27.121  30.499  14.830
 1619W        W61122  27.531  12.231   0.817
 1620W        W61123   6.417  16.201   0.769
 1621W        W61124  24.190  16.263  12.556
 1622W        W61125   0.428   1.265   2.385
 1623W        W61126  20.083  37.986   2.666
 1624W        W61127   1.271  16.651  14.795
 1625W        W61128  40.988  27.091  10.604
 1626W        W61129  31.583  24.571   0.277
 1627W        W61130  21.194   4.349  11.465
 1628W        W61131  12.786  32.974  13.030
 1629W        W61132  15.322   5.323  14.336
 1630W        W61133  33.102  33.613  11.554
 1631W        W61134   3.888   2.925   1.904
 1632W        W61135  44.824   4.428  14.849
 1633W        W61136  42.990  21.204   0.805
 1634W        W61137  27.473  15.813   0.953
 1635W        W61138   5.821   8.256  11.870
 1636W        W61139   8.711   0.865   2.355
 1637W        W61140  34.891  10.268   1.853
 1638W        W61141   4.370  35.988  13.404
 1639W        W61142  21.657  26.199  13.013
 1640W        W61143  22.595  37.892   2.207
 1641W        W61144  13.348  16.164  14.426
 1642W        W61145  42.444  39.942   1.310
 1643W        W61146  43.895  44.002   3.221
 1644W        W61147   3.817  17.685   3.380
 1645W        W61148  44.477  41.983  11.921
 1646W        W61149   1.322  43.498   1.864
 1647W        W61150  27.536   5.746   0.745
 1648W        W61151  30.962   9.325   3.180
 1649W        W61152  32.134   6.695   2.845
 1650W        W61153  11.644  41.341  11.931
 1651W        W61154  41.866  31.520   0.893
 1652W        W61155  37.959  18.616   1.347
 1653W        W61156  38.540   7.729   3.814
 1654W        W61157  44.489  12.833   5.148
 1655W        W61158   8.789   9.804   2.735
 1656W        W61159  39.851  38.000  12.405
 1657W        W61160   0.487  27.098  12.383
 1658W        W61161  37.904   7.869   2.204
 1659W        W61162  11.780  40.822   1.744
 1660W        W61163  37.857  11.330  12.429
 1661W        W61164  37.552  17.587   3.206
 1662W        W61165  10.238  35.048   0.746
 1663W        W61166  23.562  24.521   3.774
 1664W        W61167  27.446  35.947  13.399
 1665W        W61168  16.160  27.474   0.769
 1666W        W61169  28.580  28.073  11.395
 1667W        W61170  39.936  27.642   0.352
 1668W        W61171   0.422   5.383  13.820
 1669W        W61172   0.946  12.231  11.036
 1670W        W61173  44.793  35.095  12.492
 1671W        W61174  22.604   4.208  11.613
 1672W        W61175  26.064  44.000   3.855
 1673W        W61176  34.413  32.411   2.864
 1674W        W61177  12.188   8.705   2.773
 1675W        W61178   9.208   6.776  13.933
 1676W        W61179  41.802  37.082  11.099
 1677W        W61180   7.774  33.613   0.430
 1678W        W61181  15.183   3.874   4.597
 1679W        W61182  22.206  40.846  12.416
 1680W        W61183  12.354  24.227   1.901
 1681W        W61184  29.087  39.850   3.196
 1682W        W61185  23.512  22.105   0.733
 1683W        W61186  22.693  18.679   3.723
 1684W        W61187  30.516  25.041   4.265
 1685W        W61188  42.914  26.059   1.788
 1686W        W61189  29.130  22.548   2.269
 1687W        W61190  22.151  26.978  14.897
 1688W        W61191  42.897  27.125   2.414
 1689W        W61192  20.560  30.162   0.453
 1690W        W61193  11.159  36.003  14.427
 1691W        W61194  28.680  17.720   1.259
 1692W        W61195  44.764  13.635   0.846
 1693W        W61196  11.332  33.011   0.405
 1694W        W61197  22.743  15.673   9.959
 1695W        W61198   8.660  34.576  10.513
 1696W        W61199  15.088  23.987  13.916
 1697W        W61200   5.879   3.711  14.499
 1698W        W61201  31.061  26.197   0.259
 1699W        W61202  12.238  29.102   1.844
 1700W        W61203  10.185   8.240  11.986
 1701W        W61204  25.600  14.326   3.259
 1702W        W61205  42.472  21.715  12.527
 1703W        W61206  37.891  32.608   0.734
 1704W        W61207  26.081   5.911  13.002
 1705W        W61208  10.795  28.614  10.417
 1706W        W61209  23.135  25.493  13.426
 1707W        W61210  13.143   4.235   1.926
 1708W        W61211   6.387  28.462   0.866
 1709W        W61212  34.062  25.712  12.474
 1710W        W61213   4.920  26.642   1.442
 1711W        W61214  41.899  36.903   0.284
 1712W        W61215  32.932  19.090  14.851
 1713W        W61216  28.571  17.090  11.082
 1714W        W61217  22.118  13.331   3.846
 1715W        W61218  14.766   8.871  12.395
 1716W        W61219   9.315  35.074  14.315
 1717W        W61220  18.657  42.313  13.006
 1718W        W61221  44.762  29.436  14.426
 1719W        W61222  37.990  12.346   0.467
 1720W        W61223  31.449  17.240   4.766
 1721W        W61224  24.983  32.010  14.833
 1722W        W61225  43.810   6.196  12.988
 1723W        W61226  11.818  12.747   4.714
 1724W        W61227  20.089   3.263   3.253
 1725W        W61228  40.487  34.455  13.909
 1726W        W61229   7.847  14.727   1.227
 1727W        W61230  15.187   7.694  11.458
 1728W        W61231  23.588  18.568  13.028
 1729W        W61232  21.142   5.810  12.024
 1730W        W61233  42.002  26.000  10.930
 1731W        W61234  39.514  40.041  12.467
 1732W        W61235   7.335   0.977  10.584
 1733W        W61236  40.448  11.341   4.677
 1734W        W61237  34.081   4.331   3.651
 1735W        W61238  11.751   0.369   0.413
 1736W        W61239  11.271  27.194  12.066
 1737W        W61240  11.806  13.638   4.670
 1738W        W61241  13.150   0.765  12.469
 1739W        W61242  29.602  36.955  12.057
 1740W        W61243  26.696  41.367   2.352
 1741W        W61244  40.932  21.731   1.444
 1742W        W61245   3.439  37.484  13.964
 1743W        W61246  24.551  32.415  14.393
 1744W        W61247  10.172  32.466  14.998
 1745W        W61248  18.613  36.440  13.979
 1746W        W61249  23.011  21.672   1.300
 1747W        W61250  39.488  22.741  14.791
 1748W        W61251  18.635  29.553  12.456
 1749W        W61252  17.207  19.662  11.609
 1750W        W61253  19.549  35.873  14.974
 1751W        W61254  33.968  28.954   1.855
 1752W        W61255  23.590  13.645  12.085
 1753W        W61256  22.703  42.007   2.396
 1754W        W61257  17.238  13.805   0.428
 1755W        W61258  38.859  10.297   5.154
 1756W        W61259  25.965  24.058  11.458
 1757W        W61260  33.057  29.008   4.289
 1758W        W61261   8.280  24.184   0.820
 1759W        W61262  43.387  18.084   0.466
 1760W        W61263  41.313  34.912   0.442
 1761W        W61264  26.110   0.437  11.094
 1762W        W61265   7.688  20.121  12.096
 1763W        W61266  40.526  30.156   0.325
 1764W        W61267   5.374   6.682   0.428
 1765W        W61268  31.586  30.651  14.915
 1766W        W61269   3.753   2.955  10.135
 1767W        W61270   8.240  40.042  12.529
 1768W        W61271  43.904  40.543   3.868
 1769W        W61272   8.727   5.826  11.440
 1770W        W61273  22.207  26.089   1.874
 1771W        W61274  41.369  10.244  11.508
 1772W        W61275  40.997  24.543   0.454
 1773W        W61276  31.474  29.601  13.356
 1774W        W61277  41.342  15.167   1.287
 1775W        W61278  27.166   3.357  10.497
 1776W        W61279  28.991  10.729  13.864
 1777W        W61280  10.694  43.776   3.257
 1778W        W61281  27.669  13.756  12.976
 1779W        W61282   3.395   4.236   2.263
 1780W        W61283  15.316  26.023  10.528
 1781W        W61284  20.198  10.197  13.323
 1782W        W61285  25.703  15.301   1.338
 1783W        W61286  28.443   8.347  12.414
 1784W        W61287   0.745  42.022   0.946
 1785W        W61288  43.444  21.564   2.322
 1786W        W61289  42.029  22.673   4.660
 1787W        W61290   0.446  24.113   9.928
 1788W        W61291   9.215  43.271  14.782
 1789W        W61292  27.455  22.599  13.821
 1790W        W61293   5.910  20.616  14.829
 1791W        W61294  27.174  28.653  11.429
 1792W        W61295  42.333  18.082  12.855
 1793W        W61296  36.025  22.713   3.272
 1794W        W61297  11.205  16.761  13.042
 1795W        W61298  32.965   1.338  12.537
 1796W        W61299  26.052  22.103   2.296
 1797W        W61300  21.172   7.334  10.001
 1798W        W61301   7.240  27.525  11.418
 1799W        W61302   2.833   5.415  12.829
 1800W        W61303   6.425  35.901  10.913
 1801W        W61304  44.293  24.684  13.055
 1802W        W61305  18.565  10.649  11.061
 1803W        W61306  37.380   1.825  10.598
 1804W        W61307  21.697  44.406   4.268
 1805W        W61308  40.824  39.521   0.754
 1806W        W61309   5.814  21.645  12.531
 1807W        W61310  39.867  15.633   4.688
 1808W        W61311  42.413   4.844   0.852
 1809W        W61312  36.097  29.588  13.937
 1810W        W61313   8.281  19.735  14.307
 1811W        W61314  30.019   2.259   2.683
 1812W        W61315  37.565   0.977  14.428
 1813W        W61316  42.808  10.673  11.404
 1814W        W61317  39.876  31.488   0.890
 1815W        W61318  12.159  12.119   4.649
 1816W        W61319   5.201  44.275  13.014
 1817W        W61320   3.264  15.683   3.840
 1818W        W61321  43.287  15.094   0.409
 1819W        W61322   3.723  37.083   3.813
 1820W        W61323  24.040  32.027  13.422
 1821W        W61324  30.622  22.081  10.625
 1822W        W61325  40.857  27.619   4.653
 1823W        W61326  30.112  27.994  14.282
 1824W        W61327  37.471   4.718   1.823
 1825W        W61328   0.286  36.545  13.016
 1826W        W61329  39.975   7.369   1.323
 1827W        W61330  26.668  39.995   0.396
 1828W        W61331  31.605   7.879   4.740
 1829W        W61332  24.619  14.707   0.948
 1830W        W61333  43.329  19.647  11.947
 1831W        W61334  39.554  18.188  13.351
 1832W        W61335  33.402  32.625   1.751
 1833W        W61336   8.357  21.515  10.442
 1834W        W61337  28.955   8.774  14.817
 1835W        W61338   1.254  34.416  11.995
 1836W        W61339  35.067   0.980  11.922
 1837W        W61340  25.555  18.729  12.036
 1838W        W61341  34.373  28.488  14.294
 1839W        W61342  21.107  37.838  11.463
 1840W        W61343   4.817  26.511  12.008
 1841W        W61344  14.315   6.717  12.547
 1842W        W61345   8.304  30.148   1.382
 1843W        W61346  26.561  35.085  13.888
 1844W        W61347  29.437   6.843   4.254
 1845W        W61348  23.735  28.130  10.558
 1846W        W61349   9.164  12.649  13.489
 1847W        W61350  43.312  12.831   3.340
 1848W        W61351  36.093  21.521  13.919
 1849W        W61352  41.453  16.186  11.458
 1850W        W61353  12.638  31.049   3.698
 1851W        W61354   4.790  40.812   2.679
 1852W        W61355  12.704  27.951  13.987
 1853W        W61356  20.591   7.886   0.479
 1854W        W61357  39.474  44.417  11.513
 1855W        W61358  31.410  11.693  10.456
 1856W        W61359  22.068  15.710  12.435
 1857W        W61360   4.800  19.773   4.706
 1858W        W61361   5.832  23.118  12.491
 1859W        W61362  25.072  32.409   2.837
 1860W        W61363  10.829  20.064   4.808
 1861W        W61364   6.860  29.087  14.478
 1862W        W61365   6.403  28.456   2.896
 1863W        W61366  19.702  42.289  10.969
 1864W        W61367   7.209   5.240   1.836
 1865W        W61368  16.800   8.307  14.498
 1866W        W61369  29.004  21.638  14.909
 1867W        W61370  15.301  27.670   2.784
 1868W        W61371  14.204   7.229  13.334
 1869W        W61372   2.307   8.348  13.977
 1870W        W61373  14.124   1.884   0.389
 1871W        W61374  40.410   8.256  11.415
 1872W        W61375  40.875  15.261   4.814
 1873W        W61376  19.230  29.508   2.832
 1874W        W61377  10.858  16.599   0.465
 1875W        W61378  12.640  28.173   4.228
 1876W        W61379  42.330  28.658   4.183
 1877W        W61380   2.339   5.317   1.927
 1878W        W61381  27.073   8.777  11.481
 1879W        W61382  14.826  32.621  11.523
 1880W        W61383  26.149  18.752   2.675
 1881W        W61384  12.755  42.938  11.577
 1882W        W61385  23.491  25.577  11.548
 1883W        W61386  20.094  25.051  14.413
 1884W        W61387   2.953  41.930  14.359
 1885W        W61388   1.301  35.473  13.403
 1886W        W61389  41.340   0.809   2.803
 1887W        W61390  25.487   7.833   0.381
 1888W        W61391  40.496   7.294   0.828
 1889W        W61392  27.146  20.225   1.873
 1890W        W61393  25.027   6.290  12.032
 1891W        W61394   7.683  18.193   0.350
 1892W        W61395  26.074  19.770  12.381
 1893W        W61396  31.448  32.072  11.896
 1894W        W61397  19.053  42.401   1.253
 1895W        W61398  44.977  30.988  12.026
 1896W        W61399  19.170  26.468  11.610
 1897W        W61400  20.223  26.458  14.423
 1898W        W61401  20.215  37.037   1.842
 1899W        W61402   9.184  23.057  11.114
 1900W        W61403  12.174  12.141   2.835
 1901W        W61404  32.413  40.841   4.689
 1902W        W61405  29.116  10.652   4.262
 1903W        W61406  43.796   3.321  14.032
 1904W        W61407   2.382  21.513  12.884
 1905W        W61408  26.517  34.945  12.995
 1906W        W61409   9.174  37.079   3.165
 1907W        W61410  19.264  21.575   3.369
 1908W        W61411   8.658  16.809   1.871
 1909W        W61412  24.146   6.235   1.832
 1910W        W61413  33.077   9.650  14.350
 1911W        W61414  16.078   5.861   4.114
 1912W        W61415   8.711   5.325  12.463
 1913W        W61416   0.409  38.985   3.258
 1914W        W61417   3.297  31.053  11.917
 1915W        W61418  20.586  35.941  13.385
 1916W        W61419  26.643  24.559   4.155
 1917W        W61420   7.788  23.141  11.405
 1918W        W61421  11.312  18.605   1.266
 1919W        W61422  30.436  40.431  14.508
 1920W        W61423  22.141   5.263   0.423
 1921W        W61424   9.370  11.345  11.115
 1922W        W61425  19.777  44.348   4.271
 1923W        W61426  43.316  11.166  10.962
 1924W        W61427   1.459  42.846  13.435
 1925W        W61428  33.948  35.002  13.423
 1926W        W61429  36.413   4.356   4.189
 1927W        W61430  41.846  36.376   3.273
 1928W        W61431  30.561  14.619   3.378
 1929W        W61432  10.797  16.801  13.050
 1930W        W61433  32.915  14.246   1.270
 1931W        W61434  33.033  33.124   1.855
 1932W        W61435   2.415  40.535  13.369
 1933W        W61436  43.436  22.576  10.143
 1934W        W61437  44.932  24.543   4.294
 1935W        W61438  20.596  32.025   3.313
 1936W        W61439  26.475  11.219  10.077
 1937W        W61440  44.982   3.244  12.948
 1938W        W61441  38.922  31.620  14.766
 1939W        W61442  39.847  43.955   1.327
 1940W        W61443   1.360   7.361   4.661
 1941W        W61444  14.690  25.158  12.473
 1942W        W61445  33.878  43.874  13.027
 1943W        W61446  33.417  35.520  10.912
 1944W        W61447  12.147  44.279  14.368
 1945W        W61448  29.513  14.664   4.637
 1946W        W61449  21.111   6.223  13.478
 1947W        W61450  22.022   9.730   4.769
 1948W        W61451  35.045  12.800   3.347
 1949W        W61452  24.095  11.850   4.280
 1950W        W61453   6.293  13.178   4.248
 1951W        W61454  23.212  38.376   2.410
 1952W        W61455  31.101  12.335  13.984
 1953W        W61456  12.248   7.766  10.515
 1954W        W61457  18.775  29.950   4.746
 1955W        W61458  42.443  19.176  11.861
 1956W        W61459  19.559  42.890   3.841
 1957W        W61460  36.492  39.469  12.882
 1958W        W61461  26.542  18.183  11.433
 1959W        W61462  35.946  42.420   3.307
 1960W        W61463  29.654   1.763  12.485
 1961W        W61464  28.961  33.401   0.878
 1962W        W61465  23.122  44.973  14.305
 1963W        W61466  32.901  28.096   2.776
 1964W        W61467   6.385  17.257  14.823
 1965W        W61468   7.702  42.886   3.817
 1966W        W61469   3.789  33.529   2.854
 1967W        W61470  13.612  44.389  14.967
 1968W        W61471  42.961   5.783  11.065
 1969W        W61472   0.475  11.862   0.948
 1970W        W61473   9.838  28.102  13.323
 1971W        W61474  40.838  17.627  12.071
 1972W        W61475  11.822  27.026   3.160
 1973W        W61476  27.528  32.398  14.516
 1974W        W61477  17.234  28.496   2.404
 1975W        W61478  30.045  22.246  11.581
 1976W        W61479  27.611   3.297   3.699
 1977W        W61480  10.862  19.232  13.342
 1978W        W61481  22.147  43.476   3.318
 1979W        W61482  10.650  30.949   2.390
 1980W        W61483  42.888  39.999   4.296
 1981W        W61484  25.678  18.080  10.896
 1982W        W61485  20.050  17.280   3.172
 1983W        W61486   9.792   7.237  10.953
 1984W        W61487  22.693  23.624  12.882
 1985W        W61488  13.732  39.342  13.871
 1986W        W61489  10.813  28.567   4.117
 1987W        W61490  37.353  44.360   3.643
 1988W        W61491  28.598  11.311  12.440
 1989W        W61492   4.404  33.031  11.465
 1990W        W61493  21.536  44.834  11.886
 1991W        W61494  20.673  14.621  11.529
 1992W        W61495   7.689  44.491  14.447
 1993W        W61496  13.270  31.980  12.571
 1994W        W61497  42.370  23.632   0.774
 1995W        W61498  10.218  26.675   1.813
 1996W        W61499  31.499  16.723   1.377
 1997W        W61500  26.189  24.213  12.521
 1998W        W61501  21.254  34.087  14.495
 1999W        W61502  20.104  17.627   2.334
 2000W        W61503  44.904  15.257   1.301
 2001W        W61504   5.846   0.829   1.380
 2002W        W61505  30.961  29.986   2.787
 2003W        W61506  17.634  31.589   1.928
 2004W        W61507  39.879  23.097  10.552
 2005W        W61508  17.756  34.455   4.623
 2006W        W61509  42.953  16.587  11.867
 2007W        W61510  35.517  14.793  10.429
 2008W        W61511  43.009   4.321  11.515
 2009W        W61512  19.646   0.951  14.886
 2010W        W61513  25.124  23.583   4.825
 2011W        W61514  35.927   5.211   3.661
 2012W        W61515  44.978   4.221  12.447
 2013W        W61516  27.179  27.622   1.852
 2014W        W61517  38.001  16.192   4.820
 2015W        W61518  25.149  26.056   2.182
 2016W        W61519  18.096  25.004   4.675
 2017W        W61520  15.218  15.095   2.672
 2018W        W61521  27.539  24.157   4.205
 2019W        W61522   7.788  24.017  12.888
 2020W        W61523  27.632  12.849  10.946
 2021W        W61524  36.539  14.144   1.846
 2022W        W61525   9.851  24.521   0.274
 2023W        W61526   8.331  24.679   2.820
 2024W        W61527  43.470  40.323   4.155
 2025W        W61528  13.108  44.937  13.997
 2026W        W61529   5.830  15.632   0.934
 2027W        W61530  25.591  17.301   4.730
 2028W        W61531  38.889   2.306  13.870
 2029W        W61532  15.174  30.919   1.820
 2030W        W61533  23.176  19.265  14.791
 2031W        W61534  10.647  27.485  10.899
 2032W        W61535   3.379  32.511   2.670
 2033W        W61536  21.260  44.960  10.448
 2034W        W61537  16.226  41.405   3.652
 2035W        W61538   5.268  38.478   4.334
 2036W        W61539  25.981   6.264  11.907
 2037W        W61540  12.231  33.568  11.570
 2038W        W61541  40.051  39.551   0.449
 2039W        W61542  14.244  44.428   1.698
 2040W        W61543  21.533  14.623   3.227
 2041W        W61544  25.647  42.344   4.719
 2042W        W61545  43.785  39.493  13.492
 2043W        W61546  36.528  10.765   0.317
 2044W        W61547  31.025  17.238  12.003
 2045W        W61548  27.190   2.845   4.329
 2046W        W61549  20.112  12.718  11.014
 2047W        W61550  43.991   7.693   2.262
 2048W        W61551  39.916  16.229   2.746
 2049W        W61552  27.032   1.399  13.962
 2050W        W61553  13.280  35.372   9.968
 2051W        W61554  34.016  42.981  13.918
 2052W        W61555  44.298  10.358   5.093
 2053W        W61556  35.865   1.754   1.704
 2054W        W61557  15.100  41.863   0.256
 2055W        W61558  22.741  10.149   9.978
 2056W        W61559  31.949  33.503  13.060
 2057W        W61560   9.681  35.106   0.878
 2058W        W61561  21.557   3.900  14.298
 2059W        W61562  39.981  42.464   2.396
 2060W        W61563  28.931  33.030   4.655
 2061W        W61564  26.632   3.300  10.974
 2062W        W61565  10.871  23.569  14.921
 2063W        W61566   8.832  12.276   5.753
 2064W        W61567   2.891  35.080   0.830
 2065W        W61568  12.673  34.040  14.448
 2066W        W61569  36.422  15.728  14.457
 2067W        W61570   6.873  33.958  12.483
 2068W        W61571  42.400  16.798   3.184
 2069W        W61572  13.213  21.581  12.088
 2070W        W61573  32.081  35.449   2.822
 2071W        W61574  37.963  23.231   3.831
 2072W        W61575  15.821  17.067  13.350
 2073W        W61576  34.584   3.271   5.098
 2074W        W61577  11.847  15.768  12.024
 2075W        W61578   1.846   2.409  11.375
 2076W        W61579  27.603  12.184   4.731
 2077W        W61580  29.981  33.063  12.853
 2078W        W61581  41.879  34.595  13.052
 2079W        W61582  21.074  22.178   2.881
 2080W        W61583  36.024   2.748   2.390
 2081W        W61584   4.269  39.332  10.591
 2082W        W61585  40.959  20.177  14.811
 2083W        W61586   6.323  38.520   2.836
 2084W        W61587  43.883   8.760   0.340
 2085W        W61588  39.552   5.732   9.980
 2086W        W61589   6.364   1.938   4.630
 2087W        W61590  16.115  37.085   1.429
 2088W        W61591   0.819  44.952  12.562
 2089W        W61592  12.779  20.748  13.873
 2090W        W61593  43.444  36.385  10.607
 2091W        W61594  20.150   4.376   0.943
 2092W        W61595  14.592   7.675  10.490
 2093W        W61596  36.015  39.001   4.620
 2094W        W61597   2.321  15.322   2.672
 2095W        W61598  24.222  11.793  13.889
 2096W        W61599  27.158  20.151  14.277
 2097W        W61600  42.489   9.711   3.196
 2098W        W61601  43.354  31.118   0.253
 2099W        W61602  19.195  23.096  13.491
 2100W        W61603   6.739  31.590  11.860
 2101W        W61604  17.076  24.561  10.488
 2102W        W61605  25.645  42.463  11.421
 2103W        W61606  24.636  10.876  14.870
 2104W        W61607   7.781  43.474   0.757
 2105W        W61608  44.364   1.437   3.871
 2106W        W61609  44.349   2.286  11.972
 2107W        W61610  24.611  24.710   2.380
 2108W        W61611  15.601  19.615  13.343
 2109W        W61612  20.587   9.671  12.929
 2110W        W61613  30.644  34.009   0.931
 2111W        W61614  43.457   3.399  13.982
 2112W        W61615  22.193  34.419  13.997
 2113W        W61616   1.398  29.600   4.285
 2114W        W61617  12.773  37.566  11.993
 2115W        W61618  41.352  37.390  12.401
 2116W        W61619  29.151  10.748   1.375
 2117W        W61620   9.811  38.474  11.485
 2118W        W61621  16.571  38.951  11.605
 2119W        W61622  12.151  32.577   4.611
 2120W        W61623  10.734  41.016   2.663
 2121W        W61624  41.829   0.985  12.511
 2122W        W61625  16.308   7.407   2.240
 2123W        W61626   1.297  11.854   3.732
 2124W        W61627  42.797  30.921  13.865
 2125W        W61628  15.225   8.863   0.249
 2126W        W61629  23.106  20.553   3.817
 2127W        W61630  37.838  32.611  12.450
 2128W        W61631  13.691  41.527  14.910
 2129W        W61632  34.891   6.304  11.125
 2130W        W61633  17.756  39.810   0.318
 2131W        W61634  10.343  28.497  11.424
 2132W        W61635  11.790  12.766  11.411
 2133W        W61636  32.569  13.248  14.493
 2134W        W61637  31.468   4.821  11.083
 2135W        W61638  20.639   1.324   3.707
 2136W        W61639  20.533  40.350  14.404
 2137W        W61640  11.232  25.208   4.838
 2138W        W61641  19.579  38.428  14.853
 2139W        W61642  37.901   9.689  12.057
 2140W        W61643   5.796   9.656   2.198
 2141W        W61644   6.687  11.708   3.181
 2142W        W61645  17.280  19.042   4.813
 2143W        W61646  31.512  17.212  13.026
 2144W        W61647  16.275  37.395  12.551
 2145W        W61648  30.443  42.952   1.368
 2146W        W61649   3.715  42.380  14.454
 2147W        W61650  19.645  36.558   0.847
 2148W        W61651   2.966   0.484   9.516
 2149W        W61652  44.393   2.250  11.540
 2150W        W61653  43.904   2.356   2.736
 2151W        W61654  42.447  10.667   4.658
 2152W        W61655   8.292  20.564   4.782
 2153W        W61656  16.260  11.719  12.343
 2154W        W61657  30.955  21.715  10.453
 2155W        W61658  43.777  34.967  11.480
 2156W        W61659  22.089  37.477  12.546
 2157W        W61660   6.711  38.448  12.488
 2158W        W61661  22.611  40.383   3.706
 2159W        W61662  10.678  35.519  12.545
 2160W        W61663  27.132  27.602  10.420
 2161W        W61664  44.370  25.099   1.733
 2162W        W61665  11.199  37.896  11.083
 2163W        W61666  34.467  37.902   2.364
 2164W        W61667  11.690  28.123   0.824
 2165W        W61668  37.019  29.464   1.839
 2166W        W61669   9.670  16.297   5.310
 2167W        W61670  27.030  16.257   4.657
 2168W        W61671  16.270  18.149   3.335
 2169W        W61672  24.003  39.456   3.751
 2170W        W61673  32.556  43.417   0.457
 2171W        W61674  42.499   7.787  11.499
 2172W        W61675  12.766   4.734   2.872
 2173W        W61676   5.933  11.148  11.505
 2174W        W61677  39.521  12.615  10.976
 2175W        W61678  42.900   7.408   4.152
 2176W        W61679  24.701  29.512  13.052
 2177W        W61680  40.409   4.428  12.349
 2178W        W61681  16.645  44.379   2.698
 2179W        W61682  21.204   5.423  10.544
 2180W        W61683   0.820  42.810   9.622
 2181W        W61684  13.738   6.374  13.819
 2182W        W61685   5.752  39.003   2.903
 2183W        W61686  30.009  37.001  11.929
 2184W        W61687  44.463   9.192   1.320
 2185W        W61688   2.265  38.045   0.946
 2186W        W61689  13.222  42.887  11.099
 2187W        W61690  40.037  40.890  11.529
 2188W        W61691  11.296  13.718  11.435
 2189W        W61692  13.288  25.117  11.967
 2190W        W61693  29.451   9.829  11.404
 2191W        W61694  26.693  22.739  10.480
 2192W        W61695  32.605  31.577   2.263
 2193W        W61696  32.631  29.169   2.338
 2194W        W61697   8.396  25.159  10.535
 2195W        W61698  37.964  38.914  10.004
 2196W        W61699  22.641  31.537  12.531
 2197W        W61700   4.421  36.914   4.778
 2198W        W61701  40.937  39.410  11.908
 2199W        W61702   7.855  38.030   2.805
 2200W        W61703  37.570  20.034  12.466
 2201W        W61704  44.429  35.050   3.815
 2202W        W61705  30.571  31.932  11.460
 2203W        W61706  44.300  31.403   3.814
 2204W        W61707  38.900   6.316  11.487
 2205W        W61708  21.036  32.551   0.953
 2206W        W61709  14.818   9.667  14.892
 2207W        W61710   9.844   2.896   2.740
 2208W        W61711  27.591  33.595  11.991
 2209W        W61712   9.206  36.515  11.075
 2210W        W61713  19.557  35.363  12.827
 2211W        W61714  27.628  14.806   3.684
 2212W        W61715  12.302   4.735   2.198
 2213W        W61716  25.677  12.760   2.324
 2214W        W61717  14.169   4.252  13.962
 2215W        W61718  14.269   6.249  14.873
 2216W        W61719  30.579  14.250  14.966
 2217W        W61720   5.411   3.803  12.378
 2218W        W61721  35.573  12.612   0.810
 2219W        W61722  23.155  20.672  14.367
 2220W        W61723  26.041  28.173  14.009
 2221W        W61724  13.631  16.639  14.450
 2222W        W61725  13.741  26.644   3.756
 2223W        W61726  20.557  34.014  12.017
 2224W        W61727  26.474  26.957   3.725
 2225W        W61728   1.947   6.209  11.946
 2226W        W61729  19.250  39.838  10.494
 2227W        W61730  39.846   9.765  10.561
 2228W        W61731  17.130  37.978  11.964
 2229W        W61732   3.331  16.098  13.374
 2230W        W61733   2.436  42.795   3.369
 2231W        W61734  12.220  15.608  11.531
 2232W        W61735  14.763  30.109   0.875
 2233W        W61736  39.831  29.011  14.436
 2234W        W61737  12.179  29.668   3.224
 2235W        W61738  21.681  26.195   1.396
 2236W        W61739  17.204  26.494   1.329
 2237W        W61740   3.797  23.155   2.213
 2238W        W61741   3.800  40.315  13.325
 2239W        W61742  40.035  42.522  10.470
 2240W        W61743  30.057  34.612   3.637
 2241W        W61744  44.408  30.137  12.914
 2242W        W61745   3.822  14.809  12.495
 2243W        W61746  15.086  29.543   2.205
 2244W        W61747  15.226   9.242   1.402
 2245W        W61748  44.873  40.546  13.944
 2246W        W61749  21.696  22.532  11.550
 2247W        W61750   1.410  31.508   2.379
 2248W        W61751  33.083  42.954   4.222
 2249W        W61752  33.408   1.429   0.935
 2250W        W61753  21.065  10.843  13.904
 2251W        W61754  38.937  34.048  12.424
 2252W        W61755  10.368  15.194   0.467
 2253W        W61756  18.638  10.664  14.283
 2254W        W61757  24.086  27.551   4.252
 2255W        W61758  14.628  27.059   4.743
 2256W        W61759   6.814  27.489   1.248
 2257W        W61760  18.095   0.985   0.917
 2258W        W61761  22.183   9.687   0.385
 2259W        W61762  21.188   8.780   2.818
 2260W        W61763   5.280  41.354   3.172
 2261W        W61764  29.124  38.344  12.962
 2262W        W61765  30.161  25.701   9.948
 2263W        W61766  23.152  20.653   1.754
 2264W        W61767  12.677  39.862   4.711
 2265W        W61768  44.459   8.748  13.959
 2266W        W61769  38.527  37.000  11.978
 2267W        W61770  32.477  41.022  11.888
 2268W        W61771  44.927  31.916   0.367
 2269W        W61772  17.788   3.816  11.975
 2270W        W61773  31.548  13.788  10.581
 2271W        W61774  34.384  40.417   3.343
 2272W        W61775   3.426   9.287  14.365
 2273W        W61776  35.522  23.541   1.822
 2274W        W61777   1.449  22.602  14.764
 2275W        W61778  20.086  44.902  12.890
 2276W        W61779  27.582  18.790  11.531
 2277W        W61780  29.592  44.789  12.003
 2278W        W61781  37.894   2.957   3.348
 2279W        W61782  44.855  39.377  12.024
 2280W        W61783  34.107  32.140   2.662
 2281W        W61784   1.864   4.445   4.633
 2282W        W61785   2.786  24.603   2.845
 2283W        W61786  43.356  26.670  10.468
 2284W        W61787   1.896  17.261   1.386
 2285W        W61788  23.110  14.634   2.670
 2286W        W61789  15.624  44.938   1.893
 2287W        W61790  10.236  20.685  10.126
 2288W        W61791  10.778  42.867  13.961
 2289W        W61792   5.841  15.822   3.333
 2290W        W61793  21.555  40.429  13.036
 2291W        W61794   2.924  25.649   3.640
 2292W        W61795  29.096  43.462   2.263
 2293W        W61796  15.598  25.022   4.144
 2294W        W61797  38.857  41.794   2.704
 2295W        W61798   3.331   1.886   3.755
 2296W        W61799   9.791  13.149   0.770
 2297W        W61800   7.400  14.255   1.720
 2298W        W61801  17.782  37.844   2.829
 2299W        W61802  33.525  34.894   0.340
 2300W        W61803  37.418  23.154  10.909
 2301W        W61804  29.520  16.215   2.359
 2302W        W61805  18.090   0.251  14.770
 2303W        W61806  17.565  24.076   2.251
 2304W        W61807  35.886  25.706  13.925
 2305W        W61808   7.818  26.030  11.429
 2306W        W61809  15.097   6.226   0.911
 2307W        W61810   5.365  20.693   3.861
 2308W        W61811   5.312  33.581   2.181
 2309W        W61812  12.669  27.614   0.733
 2310W        W61813  18.705   4.699   4.610
 2311W        W61814   3.924  42.945  12.477
 2312W        W61815  21.613   3.454   0.928
 2313W        W61816  33.991  24.667   0.433
 2314W        W61817  37.995  35.493  14.012
 2315W        W61818   9.729  34.980   2.883
 2316W        W61819   7.266  44.831   2.363
 2317W        W61820  32.486   0.873   0.254
 2318W        W61821  26.571  25.013   2.682
 2319W        W61822  35.025   1.808   1.255
 2320W        W61823  24.083  26.528  12.002
 2321W        W61824  34.420  28.090  13.406
 2322W        W61825  20.527  32.575   1.249
 2323W        W61826  36.480  41.335  10.526
 2324W        W61827  22.067  25.697  11.451
 2325W        W61828  44.817   0.363   2.294
 2326W        W61829   6.301   9.314  13.794
 2327W        W61830   1.475  43.823   0.964
 2328W        W61831  41.922  28.154   2.888
 2329W        W61832  37.468  20.551  14.966
 2330W        W61833  30.658   0.921  14.289
 2331W        W61834   8.171  40.942  11.072
 2332W        W61835  30.084  24.621  12.092
 2333W        W61836   9.213   6.201   2.732
 2334W        W61837  17.095   9.675   3.323
 2335W        W61838  27.084  19.699  14.293
 2336W        W61839   0.458   4.439   0.963
 2337W        W61840  11.800  22.046   2.300
 2338W        W61841  10.810   0.794   1.827
 2339W        W61842   1.276   2.265  12.011
 2340W        W61843   5.430  18.059   2.719
 2341W        W61844  44.948  14.619  14.869
 2342W        W61845  11.743  36.506   1.417
 2343W        W61846  26.558  26.544  14.420
 2344W        W61847  31.503  22.174  11.118
 2345W        W61848  23.002  21.225  13.534
 2346W        W61849  17.264   1.918  14.418
 2347W        W61850  30.001  28.122  12.963
 2348W        W61851  35.502  44.976  12.557
 2349W        W61852   6.252  19.738  12.999
 2350W        W61853   4.799  14.689  10.458
 2351W        W61854   3.821  27.648   2.809
 2352W        W61855  43.872  39.541  11.436
 2353W        W61856  35.370   4.330   1.407
 2354W        W61857  42.970  36.563   2.800
 2355W        W61858  44.928  15.767  14.763
 2356W        W61859  42.504  16.175   1.389
 2357W        W61860   9.729   6.679  14.365
 2358W        W61861  28.502  18.116   2.206
 2359W        W61862  38.860  21.555  13.980
 2360W        W61863  38.055  34.482  14.021
 2361W        W61864  12.640  41.787  10.977
 2362W        W61865   4.704  28.568   3.356
 2363W        W61866  16.314   1.442   0.356
 2364W        W61867   9.801   7.335  12.877
 2365W        W61868  18.268  21.741   3.688
 2366W        W61869  14.793  28.988  14.912
 2367W        W61870  31.978  34.886   1.785
 2368W        W61871  20.614   0.404  12.904
 2369W        W61872  31.101  22.141  11.608
 2370W        W61873  29.079  38.986  14.325
 2371W        W61874  10.214  23.023   2.883
 2372W        W61875  15.263   3.724  11.993
 2373W        W61876  25.590  23.225  11.546
 2374W        W61877  31.620   7.706  13.947
 2375W        W61878  31.133  24.666  11.427
 2376W        W61879  12.192  42.363  14.332
 2377W        W61880  26.471   3.769   2.711
 2378W        W61881   4.768  44.888  13.425
 2379W        W61882  41.006  24.589  12.372
 2380W        W61883  39.445  15.273  13.397
 2381W        W61884   7.289  44.462   2.409
 2382W        W61885   8.794  13.779   2.290
 2383W        W61886  30.465  23.172  11.495
 2384W        W61887  16.186   2.809   1.873
 2385W        W61888  34.098   4.345   3.146
 2386W        W61889  35.945   9.314  11.086
 2387W        W61890  14.136  10.828  10.455
 2388W        W61891  13.284  29.556  12.366
 2389W        W61892  35.394  35.364   4.347
 2390W        W61893  15.629   6.322   1.714
 2391W        W61894  27.079   7.888   4.182
 2392W        W61895  24.725  24.077   4.178
 2393W        W61896  40.312  35.400   3.192
 2394W        W61897  17.148  33.963   4.287
 2395W        W61898   9.233  32.403   4.286
 2396W        W61899  12.218  10.819   0.916
 2397W        W61900   5.268  41.920   0.307
 2398W        W61901  41.989  15.744   1.817
 2399W        W61902  32.954  29.557  13.957
 2400W        W61903  16.795  37.508  11.402
 2401W        W61904  34.073  37.548   2.734
 2402W        W61905  42.498   5.360  14.340
 2403W        W61906  12.768  14.835  12.003
 2404W        W61907   4.398  42.458   2.350
 2405W        W61908   8.281  34.103   1.267
 2406W        W61909  29.051  35.543  12.895
 2407W        W61910  31.646  41.469   1.216
 2408W        W61911  37.400  22.016   2.244
 2409W        W61912  14.264  22.512  13.064
 2410W        W61913  41.419  37.446   4.209
 2411W        W61914  16.702  34.606  12.444
 2412W        W61915  34.557  26.989  12.927
 2413W        W61916  43.499  15.781  12.826
 2414W        W61917  41.008  38.000   2.791
 2415W        W61918  27.690  34.523  14.359
 2416W        W61919  36.897  42.814   3.182
 2417W        W61920  31.005   9.700  12.573
 2418W        W61921   4.224   2.269   0.785
 2419W        W61922   6.237  35.490   1.381
 2420W        W61923  36.417  34.017  11.112
 2421W        W61924  10.646   1.329   4.352
 2422W        W61925  30.910  40.406  12.961
 2423W        W61926  16.123  12.784   1.429
 2424W        W61927   2.426   2.831  10.143
 2425W        W61928   5.418   3.739  14.503
 2426W        W61929  32.123  31.492  11.439
 2427W        W61930  21.649  29.993  12.053
 2428W        W61931   0.979  35.877   4.727
 2429W        W61932   5.430  40.824   4.245
 2430W        W61933  44.352   6.721   3.209
 2431W        W61934  24.058  13.164   3.175
 2432W        W61935  38.486  18.662   4.285
 2433W        W61936   6.422  35.970   5.254
 2434W        W61937  37.339  15.726   1.268
 2435W        W61938   9.259  18.241   0.910
 2436W        W61939  39.965  35.365  12.826
 2437W        W61940  23.567  29.975  14.452
 2438W        W61941  15.153  20.069  10.502
 2439W        W61942  39.517   6.201   1.899
 2440W        W61943  34.496   7.792   4.610
 2441W        W61944  12.739  36.426  13.963
 2442W        W61945  31.937  22.155  10.943
 2443W        W61946  10.700  22.571  10.562
 2444W        W61947  42.833  37.346  11.044
 2445W        W61948  21.254  19.730  12.432
 2446W        W61949  15.687  11.707  13.056
 2447W        W61950   1.435   1.342   3.836
 2448W        W61951  34.923  36.370   5.759
 2449W        W61952  42.939   9.382  11.478
 2450W        W61953  32.095  20.251  11.565
 2451W        W61954   2.916  21.127   5.113
 2452W        W61955   9.389  35.499  11.439
 2453W        W61956  33.953   7.320  14.498
 2454W        W61957  39.948  28.969   0.847
 2455W        W61958  10.368   7.712   1.818
 2456W        W61959  31.576  33.046  13.877
 2457W        W61960   2.307  16.144   1.231
 2458W        W61961  10.259  36.098   0.373
 2459W        W61962  21.099  30.450  13.489
 2460W        W61963  37.071  33.114   0.468
 2461W        W61964  44.379   3.371  10.624
 2462W        W61965  43.936  32.401   2.813
 2463W        W61966  43.271  38.410  10.407
 2464W        W61967   9.351   2.906   2.381
 2465W        W61968  11.177  25.581   3.334
 2466W        W61969  39.389   3.232  14.940
 2467W        W61970  15.639  20.198   4.334
 2468W        W61971  37.389  10.693  14.407
 2469W        W61972  11.211   9.689  13.809
 2470W        W61973  14.303  14.250   0.929
 2471W        W61974  31.423   9.859   4.640
 2472W        W61975   4.395  32.586  11.878
 2473W        W61976  43.271  29.483  14.005
 2474W        W61977  20.145  16.786  11.411
 2475W        W61978  33.096  28.538   1.791
 2476W        W61979  23.130  10.874  11.473
 2477W        W61980  17.737   4.247   2.681
 2478W        W61981  32.479  32.901   4.656
 2479W        W61982  29.962  41.360  10.559
 2480W        W61983  41.882  11.747   0.340
 2481W        W61984  11.697   3.222  12.919
 2482W        W61985  29.129   0.249  14.020
 2483W        W61986  38.973   9.202   1.787
 2484W        W61987   1.835  12.634  12.836
 2485W        W61988  21.561   4.414   4.118
 2486W        W61989  17.187  32.934   3.380
 2487W        W61990   8.172  33.389   2.381
 2488W        W61991   2.860  40.549  13.399
 2489W        W61992  35.051  36.867  11.466
 2490W        W61993  22.145   7.908   0.455
 2491W        W61994  36.557  11.330  14.297
 2492W        W61995  21.701  10.704   2.801
 2493W        W61996  18.592  21.118   4.179
 2494W        W61997  12.844  14.699  11.446
 2495W        W61998  18.612  42.293  11.567
 2496W        W61999  30.948   7.258  11.463
 2497W        W62000   8.868  29.096   0.417
 2498W        W62001  44.361   9.869  12.848
 2499W        W62002  21.658  15.279   3.732
 2500W        W62003  14.696  36.567   4.670
 2501W        W62004   2.269   8.277  14.995
 2502W        W62005  44.505  41.918  12.445
 2503W        W62006  24.065   2.871   1.874
 2504W        W62007  36.870  44.799  13.828
 2505W        W62008  11.149  41.836  14.371
 2506W        W62009  19.218  11.629   4.168
 2507W        W62010  33.112  43.900  12.350
 2508W        W62011  29.457  18.744  11.946
 2509W        W62012  21.077  30.616   4.274
 2510W        W62013   6.872   6.270   1.725
 2511W        W62014  38.927  31.107   5.313
 2512W        W62015  25.492  29.000  14.011
 2513W        W62016  17.137   8.798  14.825
 2514W        W62017  27.662  15.713   5.095
 2515W        W62018   2.405  43.409  13.817
 2516W        W62019   6.296  18.606  14.953
 2517W        W62020  27.508  24.033  12.548
 2518W        W62021  44.319  43.983  13.821
 2519W        W62022   6.777  31.077  14.376
 2520W        W62023  23.564  44.475   4.196
 2521W        W62024  15.604   4.268   0.898
 2522W        W62025  25.099   9.831   3.687
 2523W        W62026  38.025  40.949  14.878
 2524W        W62027  43.488   5.211  13.480
 2525W        W62028  38.013  25.128  11.090
 2526W        W62029  11.661  38.357  12.434
 2527W        W62030  24.625  41.917   3.695
 2528W        W62031  23.116  13.730  10.517
 2529W        W62032  33.493   6.679  14.007
 2530W        W62033  19.642  35.392  12.426
 2531W        W62034  40.511  41.993   3.232
 2532W        W62035  24.036  21.220  14.815
 2533W        W62036  35.997  41.298   3.674
 2534W        W62037  34.949   9.710  13.054
 2535W        W62038  42.516   4.705  10.548
 2536W        W62039  43.849  36.591   0.782
 2537W        W62040  27.528  26.144  11.121
 2538W        W62041  24.131   1.338   4.608
 2539W        W62042   3.438  33.971   2.895
 2540W        W62043  12.149  11.809  12.476
 2541W        W62044  10.820  35.361  13.062
 2542W        W62045  43.437  11.744   2.869
 2543W        W62046  13.816  39.541  11.978
 2544W        W62047  21.598  24.659  10.584
 2545W        W62048   5.724  34.075   0.968
 2546W        W62049  33.918  33.934  12.068
 2547W        W62050  17.639  29.500   3.171
 2548W        W62051  39.933  22.021  13.972
 2549W        W62052  41.352  21.746  13.429
 2550W        W62053  37.363   3.314  14.904
 2551W        W62054   4.825  23.688  14.793
 2552W        W62055  15.234  25.543  10.482
 2553W        W62056  30.631  16.706  12.341
 2554W        W62057  14.654  22.689   3.192
 2555W        W62058  42.919  20.143   0.374
 2556W        W62059  21.121   2.356  13.882
 2557W        W62060  14.264  33.099  12.499
 2558W        W62061  43.970  41.816   0.437
 2559W        W62062  25.097  11.733  11.387
 2560W        W62063   0.945  38.924   2.718
 2561W        W62064  34.900  25.169  11.058
 2562W        W62065  24.035   7.887   3.305
 2563W        W62066  44.782  18.565   0.459
 2564W        W62067  19.778  18.578  11.899
 2565W        W62068  44.332  40.042  13.951
 2566W        W62069   3.798  30.975   4.237
 2567W        W62070  24.620  13.329  12.519
 2568W        W62071  31.637   8.718  13.903
 2569W        W62072  31.444  26.066   2.742
 2570W        W62073  27.681  41.884  11.503
 2571W        W62074  44.855  15.257  12.467
 2572W        W62075  19.207   1.746   4.776
 2573W        W62076  25.980  14.760  10.952
 2574W        W62077  40.969  22.084  12.547
 2575W        W62078  25.131  33.438   1.851
 2576W        W62079  31.003   5.708   2.861
 2577W        W62080  16.753  32.984  14.024
 2578W        W62081  31.603   9.288   1.819
 2579W        W62082  31.071  44.943  10.621
 2580W        W62083  36.090   0.446  13.916
 2581W        W62084  20.674  39.843   3.353
 2582W        W62085  17.615  32.420   3.869
 2583W        W62086  20.557  43.915  10.950
 2584W        W62087   8.884  22.676  12.571
 2585W        W62088  40.378   8.220  14.884
 2586W        W62089  35.932  39.491  14.926
 2587W        W62090   0.877   8.399   1.797
 2588W        W62091  35.014  43.485   1.377
 2589W        W62092  21.735  38.332   3.844
 2590W        W62093   2.943   4.285  11.988
 2591W        W62094  40.328  11.692  12.344
 2592W        W62095  25.694   9.841   2.862
 2593W        W62096  24.990  12.271  13.487
 2594W        W62097  30.084   8.815   1.374
 2595W        W62098  25.213  32.451  14.441
 2596W        W62099  28.539  38.428  10.944
 2597W        W62100  28.467  11.685  12.462
 2598W        W62101  25.621   4.904  11.611
 2599W        W62102  29.035  30.131  11.023
 2600W        W62103   9.196  35.082  10.966
 2601W        W62104   0.976   6.692   3.255
 2602W        W62105  32.988   9.731  11.114
 2603W        W62106  30.493  33.918  10.430
 2604W        W62107  34.946  35.892  14.409
 2605W        W62108   6.317   0.816  12.493
 2606W        W62109  29.061   6.794   2.208
 2607W        W62110  39.449  17.636  11.491
 2608W        W62111  25.164  28.078  13.829
 2609W        W62112  15.294  37.383  14.994
 2610W        W62113  13.647  39.920  10.936
 2611W        W62114  43.407  14.700   3.361
 2612W        W62115  14.272  12.137  14.440
 2613W        W62116   3.333   5.203   0.940
 2614W        W62117  22.728  41.442  10.123
 2615W        W62118   8.728  25.683   4.128
 2616W        W62119  29.021  12.160  10.964
 2617W        W62120  34.567  44.784   2.798
 2618W        W62121   6.768  14.604  10.493
 2619W        W62122  10.336  19.757  10.498
 2620W        W62123  43.793  10.743   0.771
 2621W        W62124  16.652  34.922   0.863
 2622W        W62125  23.110  37.336  14.970
 2623W        W62126  14.603  43.442  14.025
 2624W        W62127  19.724   6.854   4.641
 2625W        W62128   9.179  21.115   4.694
 2626W        W62129  44.430  39.922   2.211
 2627W        W62130  42.779  10.277  14.028
 2628W        W62131   1.436   2.420  12.433
 2629W        W62132  12.822  12.753   0.739
 2630W        W62133  24.063  42.385   3.183
 2631W        W62134   1.972  19.536  12.544
 2632W        W62135  37.539  22.647   3.271
 2633W        W62136  20.630  35.108  13.381
 2634W        W62137   1.314   5.263  11.024
 2635W        W62138  14.234  14.144  12.874
 2636W        W62139  42.011  31.565   3.675
 2637W        W62140  24.987  19.079  14.804
 2638W        W62141  36.096  13.832   4.728
 2639W        W62142  21.585  41.417  14.024
 2640W        W62143  39.896   7.357   5.691
 2641W        W62144   3.908  40.800  12.562
 2642W        W62145  23.004  37.469  13.861
 2643W        W62146   1.329  33.909  10.631
 2644W        W62147  23.149  14.707   2.418
 2645W        W62148  15.248   2.792   0.291
 2646W        W62149  24.011  26.097  11.606
 2647W        W62150  42.346  27.491  13.032
 2648W        W62151  14.124  19.277   0.460
 2649W        W62152  32.553  20.263  11.944
 2650W        W62153  11.234  27.006   2.838
 2651W        W62154  41.840   4.938   2.389
 2652W        W62155  15.212  39.926  12.823
 2653W        W62156  26.960  17.248  11.528
 2654W        W62157  34.480   4.406   2.246
 2655W        W62158  21.738  13.331  11.555
 2656W        W62159  18.155  11.796   4.831
 2657W        W62160  21.078  34.009   3.346
 2658W        W62161   6.685  39.847  13.453
 2659W        W62162  15.802  30.129   4.207
 2660W        W62163   7.403  10.336   2.239
 2661W        W62164  30.630  18.784  13.447
 2662W        W62165  34.025  15.777  14.325
 2663W        W62166  41.935  43.338  14.766
 2664W        W62167   0.258  20.222   0.259
 2665W        W62168  12.174  29.471   3.830
 2666W        W62169  25.048   1.479  13.376
 2667W        W62170  23.151   5.193   4.179
 2668W        W62171  34.941  22.084  12.932
 2669W        W62172   8.194  36.452  12.489
 2670W        W62173  15.240  31.903  12.436
 2671W        W62174   8.219  16.602   3.760
 2672W        W62175   8.895   9.887  11.463
 2673W        W62176  33.403  32.061  13.058
 2674W        W62177  35.091  30.650  11.984
 2675W        W62178  19.751  39.951   3.749
 2676W        W62179  36.547  34.892  12.972
 2677W        W62180  22.530  31.430   2.242
 2678W        W62181  36.572  25.583   4.752
 2679W        W62182  34.369  38.424  11.423
 2680W        W62183  36.589  17.169   4.208
 2681W        W62184  40.377  20.035   1.925
 2682W        W62185   5.719  31.008   2.199
 2683W        W62186  30.976  26.524  11.544
 2684W        W62187  38.483   4.766   5.207
 2685W        W62188  13.176  36.953   2.323
 2686W        W62189  28.983  10.262  14.004
 2687W        W62190  29.030  42.992  10.986
 2688W        W62191   5.313  28.453  12.973
 2689W        W62192   1.881  34.908  14.379
 2690W        W62193  36.996  18.739  14.363
 2691W        W62194  12.705  12.620   2.200
 2692W        W62195  15.732  19.071  13.890
 2693W        W62196  34.593   9.250   1.324
 2694W        W62197  12.298  32.976  11.439
 2695W        W62198  32.001  14.163   1.247
 2696W        W62199  37.550   4.855   5.124
 2697W        W62200  36.351  34.113   0.892
 2698W        W62201  34.964  26.670  14.427
 2699W        W62202   0.937  37.455   2.740
 2700W        W62203  19.561  20.739  14.784
 2701W        W62204   8.343  22.736  13.337
 2702W        W62205   8.353  35.396   0.351
 2703W        W62206   6.313  16.797   2.877
 2704W        W62207   8.706  37.054  10.623
 2705W        W62208  32.530  16.623   3.748
 2706W        W62209  36.416  28.994  14.317
 2707W        W62210  39.418  31.602  13.440
 2708W        W62211  39.833  41.003   1.720
 2709W        W62212   3.231  19.658  10.131
 2710W        W62213   5.865  18.787  10.089
 2711W        W62214   4.427  43.491   3.295
 2712W        W62215  32.906  34.604  12.849
 2713W        W62216   9.805  10.636   2.287
 2714W        W62217  14.300  33.585   1.428
 2715W        W62218   9.313  44.408  11.409
 2716W        W62219  20.112  27.045   1.328
 2717W        W62220  39.347   8.358   9.595
 2718W        W62221  38.380   5.352  12.069
 2719W        W62222  26.562  24.184   0.360
 2720W        W62223   5.692  25.576  12.976
 2721W        W62224   2.780  27.641  14.283
 2722W        W62225   8.334  39.541  12.371
 2723W        W62226  24.175  12.299   0.930
 2724W        W62227  11.249   5.793   1.365
 2725W        W62228  14.686  22.563  12.029
 2726W        W62229   5.844  24.162  14.507
 2727W        W62230  32.403  12.732   1.884
 2728W        W62231  21.572  29.101  11.095
 2729W        W62232  33.975  21.538  11.450
 2730W        W62233  26.957  18.610   4.779
 2731W        W62234   7.749  41.319  11.073
 2732W        W62235   3.891  27.069  12.461
 2733W        W62236  44.476  26.058  12.382
 2734W        W62237   0.470  10.841  13.450
 2735W        W62238  16.302  25.088  11.395
 2736W        W62239   3.864  13.841   2.326
 2737W        W62240  11.221  36.919  13.008
 2738W        W62241  33.574  36.462  11.465
 2739W        W62242  10.722  20.751  11.941
 2740W        W62243  16.246   6.352   2.757
 2741W        W62244  44.983  26.511  11.567
 2742W        W62245  44.421  44.463   5.251
 2743W        W62246  16.210  16.190  10.900
 2744W        W62247  10.676  43.402   1.813
 2745W        W62248  39.521  22.572  10.991
 2746W        W62249  25.048  36.439   1.380
 2747W        W62250  21.210  31.626   0.395
 2748W        W62251  33.073  39.329  12.494
 2749W        W62252   1.826  39.034  12.829
 2750W        W62253  25.650  43.416  13.409
 2751W        W62254  44.376  27.565   1.787
 2752W        W62255   2.847   8.654   3.859
 2753W        W62256  17.785   5.804  11.523
 2754W        W62257  20.606  41.361   0.369
 2755W        W62258  33.574  16.577   9.938
 2756W        W62259  12.291  23.138  11.030
 2757W        W62260  12.659  43.348  13.340
 2758W        W62261  10.350   2.821   2.285
 2759W        W62262  27.990  33.597  12.048
 2760W        W62263   9.773  31.132  10.434
 2761W        W62264   4.782  21.096   0.334
 2762W        W62265   6.364  42.417   3.201
 2763W        W62266  36.382  17.759  14.412
 2764W        W62267  41.964  44.445  12.939
 2765W        W62268   3.756  29.482  13.474
 2766W        W62269   1.473  25.155  14.390
 2767W        W62270  10.376  10.725  11.104
 2768W        W62271   5.434  13.163   3.866
 2769W        W62272  19.196  41.369   0.885
 2770W        W62273  15.721  37.451   9.963
 2771W        W62274  21.577  25.667   1.744
 2772W        W62275  29.037  19.769   0.316
 2773W        W62276  33.894  32.062   0.464
 2774W        W62277  19.107   1.912   2.265
 2775W        W62278   6.811  16.160  10.068
 2776W        W62279  37.562  37.988  10.915
 2777W        W62280  28.441  38.903   1.324
 2778W        W62281  44.799   5.379   2.814
 2779W        W62282  41.006  17.704  14.762
 2780W        W62283   6.316   6.197  11.474
 2781W        W62284  40.478   0.422  12.478
 2782W        W62285  39.320   5.401   4.622
 2783W        W62286  19.079  31.051   0.797
 2784W        W62287  30.113   4.842  11.942
 2785W        W62288  31.580  32.024   3.306
 2786W        W62289  18.285   6.308  13.845
 2787W        W62290  23.052  10.865   4.276
 2788W        W62291  40.824  34.890   4.800
 2789W        W62292   8.745  30.583   1.797
 2790W        W62293  40.490  13.233   1.794
 2791W        W62294  18.544  30.559  13.814
 2792W        W62295   5.211  23.594  12.444
 2793W        W62296   9.355  11.725   9.934
 2794W        W62297  17.088  21.250  12.388
 2795W        W62298  16.751  34.001  14.922
 2796W        W62299  26.967  17.752   3.677
 2797W        W62300   8.895  17.617   0.950
 2798W        W62301  22.068  35.991  12.832
 2799W        W62302  14.309  16.601  11.600
 2800W        W62303  27.010  40.322   2.890
 2801W        W62304  38.495  23.629  10.552
 2802W        W62305  11.238  10.290  14.395
 2803W        W62306  41.933  33.473   0.849
 2804W        W62307  33.952  40.892   1.805
 2805W        W62308  13.273   8.219   0.425
 2806W        W62309  42.796  12.168   4.196
 2807W        W62310   7.847  26.160  14.859
 2808W        W62311  22.697   9.647  11.077
 2809W        W62312  34.863   8.236   0.441
 2810W        W62313  29.949  18.608   3.201
 2811W        W62314  15.615  32.551   2.202
 2812W        W62315   4.270  29.163  11.879
 2813W        W62316  25.479  40.908   1.210
 2814W        W62317  42.490   4.322  10.959
 2815W        W62318  12.360  33.616   4.803
 2816W        W62319  23.026  20.709   2.827
 2817W        W62320   3.826  22.553   9.969
 2818W        W62321  32.934  33.903  14.858
 2819W        W62322  35.401  26.687  13.983
 2820W        W62323  21.678  24.045   1.883
 2821W        W62324  42.866  22.173  12.905
 2822W        W62325   5.722  43.461   0.778
 2823W        W62326  18.591  43.273   2.180
 2824W        W62327   0.932   1.805  12.014
 2825W        W62328  15.722  35.367   1.444
 2826W        W62329  11.664  17.156  10.587
 2827W        W62330  10.817   0.381  13.993
 2828W        W62331   0.271  18.566   4.239
 2829W        W62332  34.888  41.338   2.202
 2830W        W62333  27.574  30.973   4.256
 2831W        W62334  13.242  44.274  14.968
 2832W        W62335  21.160  27.477  10.155
 2833W        W62336  14.235   2.785   2.386
 2834W        W62337  30.644  32.928  12.501
 2835W        W62338  21.696  34.939   4.782
 2836W        W62339   7.266  29.495  12.449
 2837W        W62340  32.001  44.784  12.425
 2838W        W62341  18.615  27.048  10.494
 2839W        W62342  15.736   0.868  10.907
 2840W        W62343  43.512  30.552  12.410
 2841W        W62344  26.520  21.259  12.872
 2842W        W62345  40.939  31.523  14.878
 2843W        W62346  17.636  30.910  14.356
 2844W        W62347  40.027   6.412   3.766
 2845W        W62348   0.471  34.951   3.287
 2846W        W62349  42.466  43.457  12.565
 2847W        W62350  43.454  26.679  11.591
 2848W        W62351  43.838  40.450  12.531
 2849W        W62352  19.538   7.373  13.948
 2850W        W62353   7.885   7.303  10.945
 2851W        W62354  21.098  31.038  11.420
 2852W        W62355  23.523  36.893   0.790
 2853W        W62356  25.633  35.552   1.226
 2854W        W62357  34.043   4.250  14.818
 2855W        W62358   6.757  37.509   4.121
 2856W        W62359  43.903   7.752  14.369
 2857W        W62360   0.314  33.880   4.127
 2858W        W62361   9.708  25.153   0.346
 2859W        W62362  41.352  36.474   3.812
 2860W        W62363  38.906  14.779   9.959
 2861W        W62364  17.218  34.898   2.828
 2862W        W62365  38.036  38.925   0.356
 2863W        W62366  44.761  38.442  10.537
 2864W        W62367  44.953   2.874  10.987
 2865W        W62368  14.610  32.141  12.981
 2866W        W62369  40.498  38.353   0.372
 2867W        W62370  17.299  43.329  13.876
 2868W        W62371  25.043   4.907   1.352
 2869W        W62372   6.316  12.231   2.338
 2870W        W62373  29.037  29.170  13.930
 2871W        W62374  26.702  12.205   4.703
 2872W        W62375   2.867  30.130   3.707
 2873W        W62376  38.935  30.929  10.024
 2874W        W62377  30.130  34.554   1.328
 2875W        W62378  23.660   3.822   0.738
 2876W        W62379  42.482   2.820   4.231
 2877W        W62380  39.988  32.039  11.066
 2878W        W62381  19.088   7.779  13.844
 2879W        W62382  11.251   6.778   3.671
 2880W        W62383   9.865   1.360   3.196
 2881W        W62384  44.836   7.885  14.420
 2882W        W62385  25.066  23.491  13.809
 2883W        W62386  33.055   3.788   3.688
 2884W        W62387  40.374  20.673  11.945
 2885W        W62388   8.343   1.342   3.831
 2886W        W62389  42.313  41.804   4.303
 2887W        W62390  35.562  23.672  13.969
 2888W        W62391   8.329  33.050   1.801
 2889W        W62392  29.597  30.475   2.243
 2890W        W62393  34.055  28.568  13.859
 2891W        W62394  18.675  14.242  11.000
 2892W        W62395  35.101  28.618  13.311
 2893W        W62396  35.928  44.466   0.334
 2894W        W62397   2.312  41.441   2.811
 2895W        W62398  32.634  12.691   1.415
 2896W        W62399  44.370   4.382  14.339
 2897W        W62400  23.119  26.136  10.977
 2898W        W62401  13.340  43.891  12.952
 2899W        W62402  42.857  20.723  14.946
 2900W        W62403  43.937  15.702  14.426
 2901W        W62404  23.176  29.523  11.967
 2902W        W62405  37.443  35.913  13.812
 2903W        W62406  17.163  38.068  10.973
 2904W        W62407   7.760  27.671   0.292
 2905W        W62408  37.570   6.727  11.523
 2906W        W62409   8.857  39.918  13.340
 2907W        W62410   9.681  14.782  14.914
 2908W        W62411  28.440  11.712  12.830
 2909W        W62412  33.128  11.756  14.373
 2910W        W62413   8.699  31.640  12.857
 2911W        W62414  42.021  17.264  13.544
 2912W        W62415  27.547  19.177  12.396
 2913W        W62416  10.792   0.253   2.877
 2914W        W62417  34.021  31.464   1.758
 2915W        W62418   6.709  37.446  11.533
 2916W        W62419  36.095  42.902   1.792
 2917W        W62420  18.736  29.930   3.730
 2918W        W62421   7.282  11.779   0.375
 2919W        W62422  40.455  19.159   3.755
 2920W        W62423  26.993  36.541   2.737
 2921W        W62424  16.268  27.529  11.960
 2922W        W62425   8.241  12.211  13.977
 2923W        W62426  34.919   2.833  10.943
 2924W        W62427  25.648   1.243   1.748
 2925W        W62428   9.232  18.577   1.762
 2926W        W62429  27.506  44.287  14.790
 2927W        W62430  31.128   5.278   1.440
 2928W        W62431  35.457  43.849   0.435
 2929W        W62432  41.449  21.243  13.791
 2930W        W62433   5.869  16.756  11.391
 2931W        W62434  26.700  33.052  11.998
 2932W        W62435  21.524   9.723  14.501
 2933W        W62436  23.215  23.076  13.877
 2934W        W62437  19.282  24.723  10.981
 2935W        W62438  17.142  42.347   3.794
 2936W        W62439  34.991  39.381   0.797
 2937W        W62440  27.488  11.260  13.865
 2938W        W62441  21.714  38.896  11.402
 2939W        W62442  38.939  37.349   3.817
 2940W        W62443  28.470   7.726   4.808
 2941W        W62444  10.276   4.430   3.858
 2942W        W62445  11.673  26.030   3.370
 2943W        W62446  22.086   0.952  13.512
 2944W        W62447  31.898  22.735   3.377
 2945W        W62448   2.376  24.680  11.947
 2946W        W62449  10.307  18.611   1.924
 2947W        W62450  39.981   6.727  12.086
 2948W        W62451  30.060   2.897   4.829
 2949W        W62452  41.792  27.161   2.693
 2950W        W62453  18.241  27.521   1.928
 2951W        W62454  10.268  42.948  14.970
 2952W        W62455   1.290  28.023  12.405
 2953W        W62456  44.280  42.028   4.746
 2954W        W62457   8.720  24.205   2.751
 2955W        W62458  37.558  20.560  12.549
 2956W        W62459  26.111   8.746   5.305
 2957W        W62460   5.930   8.715   3.185
 2958W        W62461  36.447  11.189  12.046
 2959W        W62462   5.432  39.405   4.181
 2960W        W62463  44.818   4.372  10.957
 2961W        W62464   1.388  28.582   4.216
 2962W        W62465  32.617  20.087   0.408
 2963W        W62466  10.207  25.668   3.148
 2964W        W62467   8.355  33.569  11.904
 2965W        W62468  44.290  38.856  13.482
 2966W        W62469  24.074  28.548   3.701
 2967W        W62470  12.728  22.211  14.901
 2968W        W62471  10.804  22.137  11.413
 2969W        W62472  11.232  10.684  12.835
 2970W        W62473  24.119  22.599   1.430
 2971W        W62474  35.448  22.237  13.350
 2972W        W62475   7.392  38.567   4.307
 2973W        W62476  31.557  41.356  14.922
 2974W        W62477  37.905  27.506  14.000
 2975W        W62478   9.849  14.634  13.908
 2976W        W62479   5.819  18.546  12.081
 2977W        W62480  16.679  32.922  13.052
 2978W        W62481   2.794  22.104   2.301
 2979W        W62482  36.519  10.642  12.986
 2980W        W62483  14.644  30.051  11.473
 2981W        W62484   5.222  15.599   4.816
 2982W        W62485   7.273  13.334  11.861
 2983W        W62486  21.563  10.266  10.921
 2984W        W62487  13.700  42.416  11.858
 2985W        W62488  32.478  32.014  10.965
 2986W        W62489  27.657   2.227  11.564
 2987W        W62490  16.309  39.418  13.049
 2988W        W62491  19.065   9.287   3.146
 2989W        W62492  24.557  22.132  10.623
 2990W        W62493  32.062   1.749   1.390
 2991W        W62494  34.989  10.773   4.743
 2992W        W62495  30.008  13.749   2.858
 2993W        W62496  27.619   3.725   0.952
 2994W        W62497  31.905   2.302   3.170
 2995W        W62498  32.015  18.757  14.390
 2996W        W62499  13.185   5.796  10.973
 2997W        W62500  34.906  22.066   2.866
 2998W        W62501   9.385  24.013   3.861
 2999W        W62502  25.601  22.118  14.387
 3000W        W62503  40.464  22.747   3.314
 3001W        W62504   0.748  17.713  14.950
 3002W        W62505  31.570  37.418   0.789
 3003W        W62506  26.556  19.577  10.983
 3004W        W62507  29.942   4.834  12.523
 3005W        W62508   2.728   2.815   3.696
 3006W        W62509   1.800  13.826   0.767
 3007W        W62510  28.498  41.981   1.859
 3008W        W62511  16.289  23.552  10.912
 3009W        W62512  28.174  14.741  11.487
 3010W        W62513  28.938  40.463   1.754
 3011W        W62514  33.025  16.602  13.841
 3012W        W62515   9.155  41.812   2.378
 3013W        W62516  10.797  38.889   1.801
 3014W        W62517  43.809  13.263   3.654
 3015W        W62518   4.319  40.980  14.801
 3016W        W62519   0.807  44.761  14.399
 3017W        W62520  23.027   2.888   0.909
 3018W        W62521  41.801  32.566   4.234
 3019W        W62522  16.117  35.384   4.289
 3020W        W62523   6.855  31.080   1.373
 3021W        W62524   7.814  39.958  11.976
 3022W        W62525  38.884  25.674  11.603
 3023W        W62526   6.853  30.569   3.150
 3024W        W62527   9.247  14.259   5.204
 3025W        W62528   8.829  24.145   3.236
 3026W        W62529  41.908  36.534   4.166
 3027W        W62530  20.626  12.676  13.845
 3028W        W62531  38.509  19.283   2.822
 3029W        W62532  30.133  38.990  12.841
 3030W        W62533  23.512  36.575   2.375
 3031W        W62534  34.062   5.399  10.623
 3032W        W62535  16.648   6.772  11.890
 3033W        W62536  39.938   2.394   1.828
 3034W        W62537  42.324  18.640   4.299
 3035W        W62538  13.665  34.910  12.966
 3036W        W62539   9.662  23.537  10.541
 3037W        W62540   0.258  40.798  11.395
 3038W        W62541  26.532  24.166   1.320
 3039W        W62542  34.393  10.850   1.278
 3040W        W62543  18.151  36.391   2.240
 3041W        W62544  42.405  35.571  11.508
 3042W        W62545  42.780   5.431   2.393
 3043W        W62546   1.911   5.360   3.245
 3044W        W62547  29.113  38.014  11.395
 3045W        W62548  23.071  14.669  14.512
 3046W        W62549  33.553  33.994  13.485
 3047W        W62550  40.367  37.490   4.676
 3048W        W62551   8.253  10.299  12.380
 3049W        W62552  38.834  22.577   5.298
 3050W        W62553  29.139  14.721   4.720
 3051W        W62554   5.318  33.454   1.811
 3052W        W62555   2.811  23.734   1.714
 3053W        W62556  44.481  42.336  12.394
 3054W        W62557  38.946  24.546  12.395
 3055W        W62558  14.309   2.236  11.407
 3056W        W62559  43.925  19.073  10.467
 3057W        W62560  43.421  30.152  10.449
 3058W        W62561  43.287   9.212   0.444
 3059W        W62562  15.682  43.853  10.961
 3060W        W62563   3.954  21.084   1.899
 3061W        W62564   4.429  31.009   3.342
 3062W        W62565  17.093  31.451   0.357
 3063W        W62566  23.133  18.122  14.900
 3064W        W62567  17.288  37.575   2.772
 3065W        W62568  15.190   3.339   0.415
 3066W        W62569  30.963  32.061   2.307
 3067W        W62570  41.887  12.692   0.769
 3068W        W62571  14.833  11.298  12.432
 3069W        W62572  40.929   3.233   1.217
 3070W        W62573  40.873  13.175  13.947
 3071W        W62574  22.547  14.732  13.334
 3072W        W62575  12.228  19.175   3.766
 3073W        W62576  36.970  43.294  14.332
 3074W        W62577  21.512  13.765   0.267
 3075W        W62578   1.750  32.482  11.503
 3076W        W62579   8.749  25.193  12.962
 3077W        W62580   7.807  42.517   3.671
 3078W        W62581  26.050   9.229  12.382
 3079W        W62582  28.500  22.081  14.007
 3080W        W62583  14.708  29.669  13.479
 3081W        W62584  43.879   3.320   1.265
 3082W        W62585  26.660  15.122   4.800
 3083W        W62586  25.994  38.357  10.907
 3084W        W62587  35.390  15.139  12.920
 3085W        W62588  19.255  34.970   4.208
 3086W        W62589  24.160  24.098  14.276
 3087W        W62590  26.574  11.834   4.310
 3088W        W62591   7.878  20.133   2.310
 3089W        W62592  31.148  29.601   2.409
 3090W        W62593  12.196  19.226   3.294
 3091W        W62594  39.918  22.139   4.678
 3092W        W62595  20.742   5.303   3.788
 3093W        W62596  19.575  29.651   2.863
 3094W        W62597  40.828   6.399   0.266
 3095W        W62598  19.675  14.325   0.414
 3096W        W62599  38.431   0.833  13.955
 3097W        W62600  15.688  32.934  10.139
 3098W        W62601   9.299  31.106  14.941
 3099W        W62602  39.037   7.905  11.492
 3100W        W62603  24.018  21.032  13.993
 3101W        W62604   1.845  37.007  12.945
 3102W        W62605  25.193  25.713  10.632
 3103W        W62606  38.825  39.359  10.482
 3104W        W62607  32.420  26.667  13.475
 3105W        W62608  31.901  21.715   1.334
 3106W        W62609  22.234  28.652  12.920
 3107W        W62610  28.991  33.441  11.390
 3108W        W62611  19.714  43.354  12.415
 3109W        W62612   6.428   3.317   2.282
 3110W        W62613  11.166   7.363   2.330
 3111W        W62614  26.675  26.041  14.311
 3112W        W62615  31.418  37.916  13.883
 3113W        W62616  15.139  32.969   0.347
 3114W        W62617  42.824  18.551   1.696
 3115W        W62618  36.414  39.925   3.740
 3116W        W62619  34.008  27.519   5.168
 3117W        W62620  23.025  10.260   4.695
 3118W        W62621  20.098   3.428   9.958
 3119W        W62622  32.053  29.643   2.782
 3120W        W62623   1.297  26.659  11.972
 3121W        W62624   0.292   2.275   1.436
 3122W        W62625  40.436  43.502   2.185
 3123W        W62626   9.792  25.524   0.848
 3124W        W62627   4.317  13.652  13.045
 3125W        W62628  12.665  24.642   2.708
 3126W        W62629  39.353  30.005   0.434
 3127W        W62630  24.191  44.258   0.837
 3128W        W62631  33.027  14.118   3.842
 3129W        W62632  39.477  12.804  10.443
 3130W        W62633  26.637  17.600  10.946
 3131W        W62634   4.809  44.258   4.629
 3132W        W62635  43.851  20.240  11.600
 3133W        W62636  22.029  14.115   0.328
 3134W        W62637  37.854  36.097   1.912
 3135W        W62638  33.086  43.348  12.380
 3136W        W62639  35.951  34.099   2.374
 3137W        W62640   6.257   8.165  14.350
 3138W        W62641  43.819   9.667   3.808
 3139W        W62642  15.116  29.457   2.755
 3140W        W62643  41.880  34.380  13.404
 3141W        W62644  22.159  32.069  14.277
 3142W        W62645  11.303  32.479   1.429
 3143W        W62646   0.847  40.027   4.687
 3144W        W62647  37.383  11.230   0.271
 3145W        W62648  44.942  24.048  10.427
 3146W        W62649  28.509  25.161   3.299
 3147W        W62650  19.620  10.174  14.998
 3148W        W62651   9.834  44.422  11.478
 3149W        W62652  38.831  40.532  14.841
 3150W        W62653  12.675  18.631   2.699
 3151W        W62654   7.223  20.542   0.964
 3152W        W62655  20.153  21.741   0.377
 3153W        W62656  31.099  33.468   4.743
 3154W        W62657  23.032   6.768  11.479
 3155W        W62658  20.110  25.608   0.376
 3156W        W62659  38.394   9.267   4.335
 3157W        W62660   4.740  43.361  12.412
 3158W        W62661  35.978  23.575   3.710
 3159W        W62662  13.135   9.313  12.902
 3160W        W62663  39.869  10.281  13.501
 3161W        W62664  18.262  22.107   3.256
 3162W        W62665  29.044  35.092  11.877
 3163W        W62666  25.986   1.920  14.795
 3164W        W62667  40.925  14.321  14.501
 3165W        W62668  20.699   4.816  10.414
 3166W        W62669  14.327  12.754  12.556
 3167W        W62670  26.528   1.443   3.182
 3168W        W62671  27.058  13.810  11.505
 3169W        W62672  22.702  13.649   3.791
 3170W        W62673  42.319  15.657  12.031
 3171W        W62674  29.440  14.755  12.475
 3172W        W62675  44.274   9.867  12.356
 3173W        W62676  17.739  42.441  13.839
 3174W        W62677  30.059  14.132  14.892
 3175W        W62678   9.302  10.857   3.247
 3176W        W62679   3.341   6.899   0.768
 3177W        W62680   6.284   4.825  13.517
 3178W        W62681  32.969   2.964   1.309
 3179W        W62682  34.035  40.371  13.544
 3180W        W62683  36.444  38.839  13.538
 3181W        W62684   6.806  36.350  14.296
 3182W        W62685  20.190   8.402   3.721
 3183W        W62686   8.858   0.825   5.191
 3184W        W62687  35.027  42.321  11.519
 3185W        W62688  36.025  23.646   0.384
 3186W        W62689   2.820  22.719  10.606
 3187W        W62690  15.213  31.037  12.928
 3188W        W62691   9.375  25.032   5.252
 3189W        W62692  13.247  29.550  11.951
 3190W        W62693  12.329  27.975  14.500
 3191W        W62694  39.811  32.599   4.789
 3192W        W62695  34.404  12.821  11.918
 3193W        W62696  38.998  32.030  14.333
 3194W        W62697  26.462  26.480   1.264
 3195W        W62698   8.226  43.846   3.826
 3196W        W62699  22.643  35.923   1.711
 3197W        W62700  17.599  10.369  12.923
 3198W        W62701   1.820  21.735  13.431
 3199W        W62702  17.294   9.361  10.939
 3200W        W62703  39.558   4.710  14.871
 3201W        W62704   4.332  38.909  10.537
 3202W        W62705  11.183  18.550  12.413
 3203W        W62706  16.772  27.497  14.011
 3204W        W62707  16.138  33.397   1.443
 3205W        W62708   1.826  22.549  11.458
 3206W        W62709  13.808  10.693  11.070
 3207W        W62710  25.508  16.668  12.496
 3208W        W62711  42.357  24.992   1.404
 3209W        W62712  10.721  23.596  10.443
 3210W        W62713  37.352  24.046  12.554
 3211W        W62714  12.811   5.303  11.877
 3212W        W62715  37.020  23.543  10.626
 3213W        W62716  22.200  43.839  13.008
 3214W        W62717  10.875  26.577  12.897
 3215W        W62718   7.802  30.037   1.933
 3216W        W62719  11.688  25.684   3.831
 3217W        W62720  26.581  44.463   3.640
 3218W        W62721  17.658  11.264  14.372
 3219W        W62722  18.160   9.776   0.422
 3220W        W62723  33.610  30.043   1.874
 3221W        W62724  42.286  30.428   3.728
 3222W        W62725  12.750  26.592   2.241
 3223W        W62726  34.007  20.724  12.853
 3224W        W62727  27.551  28.981   1.215
 3225W        W62728   5.285   4.903   0.823
 3226W        W62729  28.547  35.503  14.408
 3227W        W62730  25.551  11.688  12.381
 3228W        W62731   5.198  10.337   2.729
 3229W        W62732  26.146  19.557  11.982
 3230W        W62733  14.188  25.683  10.517
 3231W        W62734  38.525  26.624  12.541
 3232W        W62735   4.819  30.017  13.428
 3233W        W62736  29.540   4.361   2.847
 3234W        W62737   4.738  36.539   4.249
 3235W        W62738  27.107   5.278  11.899
 3236W        W62739  13.260  41.028   1.893
 3237W        W62740   3.847   5.246  13.354
 3238W        W62741   6.718  35.383  14.031
 3239W        W62742  22.702  20.526   4.756
 3240W        W62743   9.778  33.606  11.454
 3241W        W62744   4.223  27.637  10.609
 3242W        W62745  35.946   2.453  14.365
 3243W        W62746  33.106   6.345   3.310
 3244W        W62747   1.932   2.743   0.318
 3245W        W62748  14.696  44.766   0.919
 3246W        W62749  32.953   3.314  13.054
 3247W        W62750  30.963  42.978   4.162
 3248W        W62751  20.257   2.463  10.897
 3249W        W62752  36.929   8.317   2.380
 3250W        W62753  33.058  24.497   0.423
 3251W        W62754   2.879   5.930  14.318
 3252W        W62755  15.178   7.686  13.833
 3253W        W62756  21.692   6.210  13.544
 3254W        W62757  27.664  22.104   0.928
 3255W        W62758  23.166  14.121  10.921
 3256W        W62759  31.922   9.353   2.783
 3257W        W62760  17.178  25.122   4.627
 3258W        W62761  15.231  18.631  14.775
 3259W        W62762  22.118  10.693  12.537
 3260W        W62763  19.248  44.266  11.477
 3261W        W62764  40.439  32.607   3.796
 3262W        W62765  28.947  20.256  11.515
 3263W        W62766   8.238  13.623   2.342
 3264W        W62767  11.225  24.628   0.917
 3265W        W62768  27.961  10.338  13.961
 3266W        W62769  16.307  28.664  11.096
 3267W        W62770  21.714   9.651  13.064
 3268W        W62771  28.055  17.625  14.833
 3269W        W62772  23.508   3.791  13.541
 3270W        W62773  19.747   5.353  11.604
 3271W        W62774  17.300  21.071  13.501
 3272W        W62775  24.107   0.477  13.330
 3273W        W62776  29.049  43.279   3.329
 3274W        W62777  32.455   7.710   1.876
 3275W        W62778  38.855   0.843   2.393
 3276W        W62779  16.647  12.327  13.463
 3277W        W62780  15.598  32.432  14.316
 3278W        W62781  20.620   0.919  14.816
 3279W        W62782  19.196   4.334   4.616
 3280W        W62783  32.115  17.072   4.185
 3281W        W62784  21.556  13.225   4.281
 3282W        W62785  30.611  19.678  14.316
 3283W        W62786  29.162  23.139  11.114
 3284W        W62787  24.992  32.500   4.685
 3285W        W62788  28.100   4.744   1.324
 3286W        W62789  18.694  44.456  10.147
 3287W        W62790  26.008  28.515  11.072
 3288W        W62791  13.689   6.412   1.872
 3289W        W62792  11.170  24.554  14.971
 3290W        W62793   3.949  14.707  13.502
 3291W        W62794  36.979  20.535  13.894
 3292W        W62795  23.582  37.021   3.758
 3293W        W62796   8.300  14.237   3.234
 3294W        W62797  24.600  17.777   1.243
 3295W        W62798  17.061  26.509  12.048
 3296W        W62799   5.852  44.346   4.605
 3297W        W62800  17.788  33.451  12.899
 3298W        W62801   3.321   7.855  12.358
 3299W        W62802   9.826  37.379   0.246
 3300W        W62803  12.739   4.244  12.406
 3301W        W62804  43.777  35.962  13.520
 3302W        W62805  33.579  32.574   2.785
 3303W        W62806  15.583  33.086  14.516
 3304W        W62807  13.334  36.464   2.382
 3305W        W62808   8.359  21.168  11.964
 3306W        W62809  40.320  26.505  12.907
 3307W        W62810  32.602  20.656  12.511
 3308W        W62811  14.303  16.612  13.387
 3309W        W62812  40.037  11.804   2.897
 3310W        W62813  30.615  21.511  11.056
 3311W        W62814  38.429  22.171  14.764
 3312W        W62815  29.577  16.593   1.699
 3313W        W62816  18.246   4.428   1.780
 3314W        W62817  25.543   1.865  12.950
 3315W        W62818  35.534  15.088  14.511
 3316W        W62819  23.612   2.300  13.833
 3317W        W62820  34.998  42.800   5.236
 3318W        W62821  30.624  29.111  14.760
 3319W        W62822  28.995   6.736   3.303
 3320W        W62823  20.107  40.014  14.423
 3321W        W62824   9.365  11.320   0.263
 3322W        W62825   9.264   6.412   3.856
 3323W        W62826  42.442  11.182   4.602
 3324W        W62827  35.012  21.711  14.429
 3325W        W62828  36.550  29.129  12.372
 3326W        W62829  25.032  30.017  10.969
 3327W        W62830   5.912   7.239  11.090
 3328W        W62831  15.821  41.863  10.486
 3329W        W62832  23.522  37.546   1.772
 3330W        W62833   6.305  44.841   3.656
 3331W        W62834   2.345  43.308  12.412
 3332W        W62835  12.207   9.730  11.119
 3333W        W62836  28.488  19.708   4.686
 3334W        W62837  33.541   6.323   4.624
 3335W        W62838  41.898  27.448  12.351
 3336W        W62839  37.837  32.923  14.345
 3337W        W62840   2.286  15.672   9.968
 3338W        W62841  10.633  34.944  13.413
 3339W        W62842  35.861  42.331   4.308
 3340W        W62843   0.939  35.973   0.429
 3341W        W62844  11.248  14.784   4.208
 3342W        W62845  18.252  15.204  14.294
 3343W        W62846   9.234  14.790  12.040
 3344W        W62847  43.986  36.056   4.795
 3345W        W62848   4.869  14.148  10.890
 3346W        W62849  26.105  23.490   0.801
 3347W        W62850  30.113  17.757  13.453
 3348W        W62851  24.501   9.231   4.350
 3349W        W62852  22.070  22.609   4.207
 3350W        W62853  24.223   2.854  11.987
 3351W        W62854  21.149  14.238   3.821
 3352W        W62855  31.113  33.936  11.453
 3353W        W62856   2.447   1.436  10.512
 3354W        W62857  13.289  20.534   0.778
 3355W        W62858  31.969  38.341  12.918
 3356W        W62859  14.604   7.666   2.767
 3357W        W62860  21.073  21.183   4.654
 3358W        W62861  41.924  30.504  11.960
 3359W        W62862  41.989  22.595  11.049
 3360W        W62863  22.612   8.784  10.074
 3361W        W62864   8.291   4.430   0.832
 3362W        W62865  25.640  28.147   1.400
 3363W        W62866  21.199  13.719  12.096
 3364W        W62867  20.769  19.617   4.264
 3365W        W62868   3.743  40.884  13.902
 3366W        W62869  44.293   0.942   2.739
 3367W        W62870   0.352  23.171  14.351
 3368W        W62871  40.026  13.259   1.343
 3369W        W62872  14.112   0.400   3.777
 3370W        W62873  14.635   8.688  12.939
 3371W        W62874  21.678  18.083  14.398
 3372W        W62875  27.105  10.773  13.968
 3373W        W62876  23.599  25.015   3.167
 3374W        W62877  26.643  38.339   3.751
 3375W        W62878  37.371  23.491   2.264
 3376W        W62879   1.439  40.854  11.383
 3377W        W62880   2.399   6.182   3.807
 3378W        W62881  29.051  43.993  14.472
 3379W        W62882  25.501  27.032  12.826
 3380W        W62883  28.969  38.390   2.320
 3381W        W62884  32.491  19.667   1.403
 3382W        W62885  34.045  17.760   4.824
 3383W        W62886  43.354  12.784  11.484
 3384W        W62887  29.106  35.539  13.964
 3385W        W62888  42.002   9.174  10.417
 3386W        W62889  32.916  13.777   0.941
 3387W        W62890  21.191  12.751  10.097
 3388W        W62891  35.492  43.009   3.378
 3389W        W62892  21.065  39.474  14.487
 3390W        W62893  19.249  44.848  14.374
 3391W        W62894  39.428  28.018  11.925
 3392W        W62895  17.690  41.820  13.438
 3393W        W62896  25.108   9.182  12.981
 3394W        W62897  29.614   0.893  14.898
 3395W        W62898  30.526  11.154   1.319
 3396W        W62899  35.531  29.938  13.937
 3397W        W62900  34.026  12.635   2.850
 3398W        W62901  44.769  21.137  12.867
 3399W        W62902  10.697  39.560  10.428
 3400W        W62903  21.617  13.804   3.867
 3401W        W62904  39.513  28.147   4.291
 3402W        W62905   0.338  43.849  14.934
 3403W        W62906  41.415  24.714   3.359
 3404W        W62907  21.548  42.872   2.263
 3405W        W62908   7.883  30.427  11.508
 3406W        W62909  21.668  18.224  13.966
 3407W        W62910  34.441  30.936  10.982
 3408W        W62911  41.792   6.407  11.960
 3409W        W62912  39.365  36.365   3.245
 3410W        W62913  21.121  15.628  13.329
 3411W        W62914  21.235   9.776   5.309
 3412W        W62915  18.722  24.164  11.572
 3413W        W62916  41.038  36.452   1.416
 3414W        W62917  32.114  31.049  13.920
 3415W        W62918  44.314   4.428  11.501
 3416W        W62919  10.158  15.787  13.990
 3417W        W62920  23.662  10.707   4.712
 3418W        W62921  28.549  37.080  14.985
 3419W        W62922  15.162  34.042   0.776
 3420W        W62923  10.715  27.106  11.996
 3421W        W62924  28.441  11.631  13.382
 3422W        W62925  12.226   1.765  13.485
 3423W        W62926   9.761  22.511   1.297
 3424W        W62927   8.402  22.049   1.358
 3425W        W62928  21.692  40.459  11.956
 3426W        W62929   6.300  38.979  13.059
 3427W        W62930  28.641   7.204  13.025
 3428W        W62931  30.965  26.580  10.921
 3429W        W62932  18.093  29.463   2.403
 3430W        W62933  39.476  22.186  11.530
 3431W        W62934  14.816  17.277  13.969
 3432W        W62935  27.081   1.926   0.287
 3433W        W62936  11.248  29.440  13.902
 3434W        W62937   0.797  39.333   3.314
 3435W        W62938  31.468  21.166   3.857
 3436W        W62939  29.665  10.767  11.453
 3437W        W62940  35.988  15.727  13.463
 3438W        W62941  31.579  40.897   0.479
 3439W        W62942  25.714   6.881  12.548
 3440W        W62943  44.949  17.223   5.780
 3441W        W62944  24.224  36.095  14.901
 3442W        W62945  36.409  20.609   0.843
 3443W        W62946  30.076   1.452  14.296
 3444W        W62947  16.182  34.051   3.818
 3445W        W62948  19.748  35.018   0.295
 3446W        W62949  34.085  43.968  11.881
 3447W        W62950  30.963  14.275   0.371
 3448W        W62951  40.389   6.234  12.355
 3449W        W62952  24.981  30.526  12.892
 3450W        W62953  36.409  39.548  14.942
 3451W        W62954  29.464   1.402  10.996
 3452W        W62955  32.546  44.986  11.528
 3453W        W62956  22.007  33.529  13.463
 3454W        W62957  35.938   5.831  14.299
 3455W        W62958  18.219  29.102   1.418
 3456W        W62959  19.205  30.915  14.400
 3457W        W62960  35.023  15.254  11.480
 3458W        W62961  30.650   6.884  13.435
 3459W        W62962  12.615  42.338  11.083
 3460W        W62963  18.745  30.047   1.417
 3461W        W62964  24.039  10.864   3.347
 3462W        W62965  37.031  14.128  14.997
 3463W        W62966  26.702  27.080   5.163
 3464W        W62967  33.923  13.210   5.248
 3465W        W62968  34.478  28.493   4.700
 3466W        W62969  20.710  14.630   3.387
 3467W        W62970  43.855  18.731  11.472
 3468W        W62971  23.132  10.654   3.794
 3469W        W62972  39.489  40.507  13.813
 3470W        W62973   9.234  14.222  13.410
 3471W        W62974  10.705   5.836  14.320
 3472W        W62975  25.645  12.253  10.993
 3473W        W62976  44.460  41.520  10.891
 3474W        W62977   5.773  36.030   0.883
 3475W        W62978  42.873   0.260   2.739
 3476W        W62979  22.588   8.811   0.794
 3477W        W62980  27.691   3.351  14.305
 3478W        W62981  37.506   5.193   3.833
 3479W        W62982   2.894  11.218  11.879
 3480W        W62983  42.514   9.880   3.866
 3481W        W62984  32.048  15.216  12.432
 3482W        W62985  30.574  44.958  12.001
 3483W        W62986  14.733  28.184  10.970
 3484W        W62987  31.944  18.092  13.387
 3485W        W62988  34.956  14.775   4.709
 3486W        W62989  34.899  12.707  14.511
 3487W        W62990  44.855   0.451   1.909
 3488W        W62991  10.299  36.973   0.281
 3489W        W62992  12.773  28.120   0.268
 3490W        W62993   7.331   8.303   3.832
 3491W        W62994  29.509   1.447   0.393
 3492W        W62995  23.173  44.382  13.365
 3493W        W62996  24.043  15.628  12.882
 3494W        W62997  16.112  35.998  12.433
 3495W        W62998   1.856   8.238   1.792
 3496W        W62999  44.426   7.688  12.831
 3497W        W63000  30.550  24.146  11.400
 3498W        W63001  19.671  34.874   1.227
 3499W        W63002  37.421  41.521   2.812
 3500W        W63003   8.244  17.268   4.671
 3501W        W63004  15.671  15.713   1.336
 3502W        W63005  12.287  43.474  10.428
 3503W        W63006  38.023  12.753   2.238
 3504W        W63007  28.512   3.714   0.752
 3505W        W63008  35.360  43.481  10.935
 3506W        W63009  22.733   3.947   0.348
 3507W        W63010  39.406  15.242  12.564
 3508W        W63011  39.478  39.966  11.563
 3509W        W63012  21.666  15.664   1.300
 3510W        W63013   3.919  24.189  12.933
 3511W        W63014  26.188  36.865  14.936
 3512W        W63015  19.129   5.862  10.960
 3513W        W63016  37.952  15.268  13.327
 3514W        W63017  21.546  29.978  12.509
 3515W        W63018  15.278  42.803  10.551
 3516W        W63019  40.487  22.698   5.155
 3517W        W63020  15.730   9.173   0.468
 3518W        W63021  31.518  31.081   3.740
 3519W        W63022  19.535   1.819  14.904
 3520W        W63023  25.997  44.837   2.293
 3521W        W63024  26.133  18.274   3.159
 3522W        W63025  35.409  16.224   4.675
 3523W        W63026  31.140   8.198  14.490
 3524W        W63027  44.455  32.085  12.440
 3525W        W63028   6.792  34.103   0.885
 3526W        W63029  15.318  15.761   1.844
 3527W        W63030  17.618  34.109   3.278
 3528W        W63031  41.863   1.754  14.888
 3529W        W63032  29.440  22.573  14.784
 3530W        W63033  27.050  24.069  14.928
 3531W        W63034  38.052   2.287  13.536
 3532W        W63035  29.151  22.527  14.381
 3533W        W63036   8.388  34.503   0.739
 3534W        W63037  34.007  20.184  13.436
 3535W        W63038  24.035  42.511   2.354
 3536W        W63039  14.257  36.913  12.878
 3537W        W63040  42.315   8.195   3.302
 3538W        W63041  36.962   7.310   2.772
 3539W        W63042  14.600  26.583  14.024
 3540W        W63043  23.572  19.145  12.040
 3541W        W63044  44.346  12.136  11.471
 3542W        W63045  31.449   6.917   2.180
 3543W        W63046  43.934  42.487   1.423
 3544W        W63047  28.511   5.270  11.126
 3545W        W63048   0.765  17.205   1.255
 3546W        W63049  13.346  33.412  12.470
 3547W        W63050  32.082  41.805   1.269
 3548W        W63051   9.368  42.791   3.778
 3549W        W63052   8.201  17.067   9.666
 3550W        W63053   6.714  43.288   4.634
 3551W        W63054   5.728  13.839   1.879
 3552W        W63055   2.432  16.758  10.503
 3553W        W63056  18.235  27.513  10.413
 3554W        W63057  28.956  23.499   2.302
 3555W        W63058  33.074  31.564  10.422
 3556W        W63059  37.542  22.041  14.306
 3557W        W63060  42.325  17.103  12.994
 3558W        W63061  31.957   4.724  11.460
 3559W        W63062   5.280  39.353   0.392
 3560W        W63063  27.476  16.087   0.262
 3561W        W63064  32.089  27.524  11.409
 3562W        W63065  40.365  37.997   3.336
 3563W        W63066  22.579   1.245  12.984
 3564W        W63067  26.009  35.601   2.862
 3565W        W63068  17.707  41.374  14.404
 3566W        W63069  16.082   6.255  12.010
 3567W        W63070  23.034  20.138   3.850
 3568W        W63071  36.935  42.847  14.823
 3569W        W63072  26.972   8.331  12.890
 3570W        W63073  27.668   8.316  14.784
 3571W        W63074  11.661  35.066  11.972
 3572W        W63075  24.215  28.180   4.705
 3573W        W63076  32.498  36.555   1.221
 3574W        W63077   8.744  11.664   2.363
 3575W        W63078  27.581   6.900   2.786
 3576W        W63079  26.620   7.398   4.177
 3577W        W63080   6.290   2.263   3.336
 3578W        W63081  24.509  41.323   0.420
 3579W        W63082  10.380  44.930   1.818
 3580W        W63083  36.448  19.206  11.973
 3581W        W63084  37.875  38.987  11.422
 3582W        W63085  28.545  40.304  10.490
 3583W        W63086  18.630  38.004  12.523
 3584W        W63087  31.900  10.266  13.403
 3585W        W63088   6.757  23.232  12.944
 3586W        W63089  23.069  26.527  11.109
 3587W        W63090  21.529  19.710  14.849
 3588W        W63091  36.898   0.799  11.501
 3589W        W63092  23.133   7.840  14.496
 3590W        W63093  26.641   7.278  13.367
 3591W        W63094  30.995  34.549   4.212
 3592W        W63095  18.103  35.051   1.400
 3593W        W63096  24.111   6.300   0.941
 3594W        W63097  21.222  12.790   3.861
 3595W        W63098  24.027   9.181  10.599
 3596W        W63099  34.490   0.261  11.929
 3597W        W63100  10.208  37.076   0.877
 3598W        W63101  17.115   8.748   4.147
 3599W        W63102  12.840  20.591   1.727
 3600W        W63103  43.344  12.673   2.307
 3601W        W63104  10.678  18.614   2.844
 3602W        W63105  18.052  39.882   0.287
 3603W        W63106  35.073  11.172   2.838
 3604W        W63107  20.538  25.631  14.480
 3605W        W63108   3.709  24.572  13.876
 3606W        W63109  21.248  38.043   1.788
 3607W        W63110  29.927  19.756   0.462
 3608W        W63111  39.998  18.773   2.199
 3609W        W63112  29.954  14.259   1.717
 3610W        W63113  30.650  43.408   2.254
 3611W        W63114  39.001  17.066  14.835
 3612W        W63115  26.591  14.116   3.760
 3613W        W63116  40.314  15.296  12.460
 3614W        W63117  29.490  40.353  11.426
 3615W        W63118   0.817  30.136  10.445
 3616W        W63119   8.750  14.311   2.269
 3617W        W63120  17.229  27.138   0.480
 3618W        W63121  40.438  17.281   3.731
 3619W        W63122  44.321   8.249   2.328
 3620W        W63123  11.705   9.378   3.864
 3621W        W63124  17.107  13.673  13.805
 3622W        W63125   3.297  40.424   1.251
 3623W        W63126  14.148  20.706  12.090
 3624W        W63127   1.285  42.915   1.727
 3625W        W63128   2.435  36.996   0.892
 3626W        W63129  17.766  42.916   2.317
 3627W        W63130  42.863  23.575   0.901
 3628W        W63131  13.221  39.871  12.416
 3629W        W63132   2.949   9.719   4.126
 3630W        W63133  31.581  42.866  12.942
 3631W        W63134  38.473  31.589  14.949
 3632W        W63135   1.473   0.465  11.053
 3633W        W63136  30.578  23.635   0.477
 3634W        W63137   6.777  36.529   3.304
 3635W        W63138  30.642  24.569   2.356
 3636W        W63139  22.549  21.651   1.257
 3637W        W63140  20.613   4.709   1.795
 3638W        W63141  44.859  21.723  11.400
 3639W        W63142  38.946   4.235  13.439
 3640W        W63143  37.399  12.353   2.886
 3641W        W63144   6.722  28.480  13.818
 3642W        W63145  30.097   1.923  14.312
 3643W        W63146  29.577  22.540   1.827
 3644W        W63147  29.473  13.661   0.419
 3645W        W63148  27.617   3.247   1.312
 3646W        W63149   2.349  29.934   0.779
 3647W        W63150  16.286  38.982  11.909
 3648W        W63151  38.051  36.435   1.295
 3649W        W63152   8.263  18.147   5.151
 3650W        W63153  43.499  11.281  12.955
 3651W        W63154   1.804  28.618   4.764
 3652W        W63155  40.828  30.501   0.383
 3653W        W63156   2.326  25.480   4.239
 3654W        W63157  42.819  11.169   1.437
 3655W        W63158  12.615   3.744  11.562
 3656W        W63159  23.695  11.649  13.364
 3657W        W63160  28.085  40.503  10.429
 3658W        W63161  25.156   1.909   5.289
 3659W        W63162  40.991  15.118  11.469
 3660W        W63163   1.254  39.841  11.074
 3661W        W63164   7.289  12.797   3.792
 3662W        W63165  38.881  44.875  14.364
 3663W        W63166   7.194   6.385  12.061
 3664W        W63167  27.554  12.778   2.865
 3665W        W63168  11.238  14.755  14.511
 3666W        W63169  31.069  39.957   4.331
 3667W        W63170  42.890  44.961   2.720
 3668W        W63171  15.219   3.428  14.995
 3669W        W63172  35.093  37.875   1.833
 3670W        W63173  42.892   1.398   1.754
 3671W        W63174  41.312  29.091  13.893
 3672W        W63175  14.832   0.850  10.512
 3673W        W63176  42.924  21.184  11.455
 3674W        W63177  33.049  37.969   1.350
 3675W        W63178  44.782  31.953  13.420
 3676W        W63179  38.075   5.395  13.930
 3677W        W63180  28.509   8.676   4.725
 3678W        W63181  14.621  27.633   0.446
 3679W        W63182   4.912  11.723   4.814
 3680W        W63183  42.899  33.616   3.675
 3681W        W63184  12.615  11.863   3.322
 3682W        W63185  44.477  23.674   2.736
 3683W        W63186  31.436  38.866  12.545
 3684W        W63187  24.633  21.518   4.794
 3685W        W63188   9.203  31.436  14.922
 3686W        W63189  11.789   0.364   4.173
 3687W        W63190  40.510  44.287   1.407
 3688W        W63191  15.276   5.209   2.392
 3689W        W63192  19.745  15.264  12.489
 3690W        W63193  38.435  11.814  11.988
 3691W        W63194  17.217  10.374  14.924
 3692W        W63195  16.145  24.205  10.895
 3693W        W63196  26.201  31.103  11.007
 3694W        W63197  33.493  24.620   2.876
 3695W        W63198   3.731  33.567   0.904
 3696W        W63199  34.001  12.763   0.375
 3697W        W63200   1.754  17.091  11.082
 3698W        W63201  40.872  22.129   4.116
 3699W        W63202   5.784  40.510   2.418
 3700W        W63203   5.272  20.703   0.447
 3701W        W63204  36.377  30.009  13.001
 3702W        W63205  20.261  38.834  11.424
 3703W        W63206  25.502   1.307  13.051
 3704W        W63207   4.926  32.437   0.777
 3705W        W63208  40.358  34.434   2.347
 3706W        W63209  16.633  20.073   3.816
 3707W        W63210   3.228  33.431   1.703
 3708W        W63211  11.648  34.109   1.869
 3709W        W63212  16.162  24.580   4.144
 3710W        W63213  20.248  30.437   4.709
 3711W        W63214  24.141  40.384   3.314
 3712W        W63215  19.698  15.230   0.471
 3713W        W63216  13.687  38.831   4.793
 3714W        W63217  41.961   7.701   2.831
 3715W        W63218  41.034  21.146   3.172
 3716W        W63219  40.409  20.166  12.554
 3717W        W63220   5.910  11.265   3.354
 3718W        W63221  27.077  29.622  10.917
 3719W        W63222  28.068  41.357   0.881
 3720W        W63223  10.186  18.666  12.371
 3721W        W63224  36.418  44.493  12.860
 3722W        W63225  39.969  23.157   3.728
 3723W        W63226  42.845  20.152   0.831
 3724W        W63227  44.430  34.408   4.605
 3725W        W63228  24.709  31.623  14.904
 3726W        W63229  14.204   5.323  14.955
 3727W        W63230  23.728  14.125  13.964
 3728W        W63231  13.659  29.430  12.569
 3729W        W63232   0.469  40.308  14.806
 3730W        W63233  42.021   6.758   5.165
 3731W        W63234   0.898  20.707  14.006
 3732W        W63235  32.126  25.628  12.957
 3733W        W63236  38.477  24.976  11.920
 3734W        W63237  11.671  30.960   9.944
 3735W        W63238  37.910  12.224  13.951
 3736W        W63239  41.464   7.257   2.262
 3737W        W63240  15.163  15.313  13.942
 3738W        W63241   4.942  25.692   9.442
 3739W        W63242  43.476  11.154  14.817
 3740W        W63243  15.594  33.905   1.699
 3741W        W63244  22.007  41.878   3.164
 3742W        W63245   5.807  11.314   4.202
 3743W        W63246   4.930  11.204  10.089
 3744W        W63247   1.873  35.950   4.827
 3745W        W63248  36.899  43.979  12.848
 3746W        W63249   4.420  39.981   3.347
 3747W        W63250  27.470  30.140   4.722
 3748W        W63251  34.580  16.147  13.883
 3749W        W63252  29.146  42.912   2.843
 3750W        W63253   8.791   5.910  11.942
 3751W        W63254  44.321   7.203  12.474
 3752W        W63255  44.846  32.527   2.669
 3753W        W63256  39.882  33.926  10.908
 3754W        W63257  38.416  35.853  13.038
 3755W        W63258  38.377  17.755   2.879
 3756W        W63259  38.516  33.098  10.474
 3757W        W63260  18.127  43.775   3.164
 3758W        W63261   2.447  12.157   4.212
 3759W        W63262   6.684  31.000   0.815
 3760W        W63263  20.627   4.785   3.647
 3761W        W63264  34.045  13.781   9.628
 3762W        W63265  12.689  31.901  12.406
 3763W        W63266  35.922   1.863   2.713
 3764W        W63267  39.883  16.737   0.427
 3765W        W63268   8.763  24.138   1.710
 3766W        W63269  11.307   7.244   2.756
 3767W        W63270   7.770  20.187   1.703
 3768W        W63271  31.406   9.756  12.559
 3769W        W63272  36.566  16.573   3.329
 3770W        W63273  13.613  16.751   0.304
 3771W        W63274  30.989   4.383  11.552
 3772W        W63275  14.744  16.099  14.457
 3773W        W63276  13.160  14.750  13.037
 3774W        W63277  25.090  11.265  10.953
 3775W        W63278  28.054  15.124  12.860
 3776W        W63279  20.532  27.999   0.782
 3777W        W63280  37.962  19.684  10.504
 3778W        W63281  41.039   5.787   2.884
 3779W        W63282  28.589  11.230   0.348
 3780W        W63283  39.411  29.132   3.306
 3781W        W63284  19.095   8.722  12.074
 3782W        W63285  38.891  27.640  14.337
 3783W        W63286  43.290  38.018  10.533
 3784W        W63287  44.417   4.340  13.318
 3785W        W63288  41.859  18.246  12.961
 3786W        W63289  35.939  31.422  11.958
 3787W        W63290  24.564  36.404   4.317
 3788W        W63291  28.973  30.521   4.243
 3789W        W63292   0.916  39.406  14.922
 3790W        W63293  16.312  38.858  10.516
 3791W        W63294  38.823  35.027   4.278
 3792W        W63295  24.013  10.713   1.360
 3793W        W63296  43.413  35.019   4.122
 3794W        W63297  28.079  26.619   4.776
 3795W        W63298  44.265  22.164   0.311
 3796W        W63299  22.119  30.442  14.422
 3797W        W63300  10.338  26.660   1.330
 3798W        W63301  29.004   3.228  13.861
 3799W        W63302   8.851   3.252   1.334
 3800W        W63303  24.549  23.176   4.614
 3801W        W63304  30.164  25.605  10.450
 3802W        W63305  31.939  23.607  14.849
 3803W        W63306   4.287   4.338   1.298
 3804W        W63307  30.943  38.864  12.363
 3805W        W63308   8.321  12.847   1.745
 3806W        W63309  32.107  26.153   1.921
 3807W        W63310  34.115  33.098   0.426
 3808W        W63311  40.808  25.634  15.000
 3809W        W63312  42.301  43.455  12.075
 3810W        W63313  44.951  44.782  14.818
 3811W        W63314  32.031  21.659  14.393
 3812W        W63315  38.952  41.816   1.874
 3813W        W63316  42.399   8.876   4.183
 3814W        W63317  33.493  14.643  14.321
 3815W        W63318  24.493  18.223   4.622
 3816W        W63319   4.406  20.115  14.803
 3817W        W63320  20.063  34.565  10.614
 3818W        W63321  22.102   9.254  10.637
 3819W        W63322  18.625  41.821  12.890
 3820W        W63323  15.748  27.521  13.510
 3821W        W63324  30.432  14.148   2.757
 3822W        W63325   9.245  26.170   1.224
 3823W        W63326  25.976  22.212  13.930
 3824W        W63327  14.760   0.788  12.037
 3825W        W63328   1.734  28.063  11.977
 3826W        W63329  35.430   6.386   3.201
 3827W        W63330   4.763  40.452   4.354
 3828W        W63331  37.383  30.978  11.982
 3829W        W63332  36.037   2.336  10.620
 3830W        W63333   4.827  20.688  14.017
 3831W        W63334  20.736  12.175   1.911
 3832W        W63335  18.190  23.508  10.452
 3833W        W63336  32.572  40.805   1.883
 3834W        W63337  17.694  26.033  14.907
 3835W        W63338   2.804  41.949   1.444
 3836W        W63339   1.868  25.620  12.449
 3837W        W63340  18.762  39.419   4.135
 3838W        W63341  39.040  43.855  10.991
 3839W        W63342   5.783  22.745  14.419
 3840W        W63343  20.570   3.331   9.981
 3841W        W63344  38.023  30.653  11.458
 3842W        W63345   2.393  19.573   0.349
 3843W        W63346  10.702  26.658  13.515
 3844W        W63347   3.317  12.301  10.922
 3845W        W63348  33.489   1.255   1.258
 3846W        W63349  20.525  20.036  12.429
 3847W        W63350  41.032  27.029   1.899
 3848W        W63351   4.812  25.051   4.220
 3849W        W63352  20.266  29.454   2.370
 3850W        W63353   1.295   3.757   2.682
 3851W        W63354  13.811  36.525  13.314
 3852W        W63355   2.764   6.264  12.011
 3853W        W63356  44.975  24.487   0.369
 3854W        W63357  19.238  43.401   1.273
 3855W        W63358  33.942  33.579   2.664
 3856W        W63359  24.090  27.954  14.369
 3857W        W63360   0.855   3.861   2.327
 3858W        W63361  10.720  15.730  10.082
 3859W        W63362   6.404  36.500   3.688
 3860W        W63363  13.796  13.109   4.778
 3861W        W63364  12.355   4.241   3.148
 3862W        W63365  31.032  40.523  11.111
 3863W        W63366   7.665  14.637  12.963
 3864W        W63367  10.815  41.886   1.265
 3865W        W63368  36.548  35.589   4.816
 3866W        W63369  41.481   4.751   4.726
 3867W        W63370  18.717  30.943   4.693
 3868W        W63371   2.420  35.369  10.911
 3869W        W63372  31.475  34.895   0.824
 3870W        W63373  29.158   3.442  13.393
 3871W        W63374  27.455   6.771  12.491
 3872W        W63375  27.122  41.036  11.085
 3873W        W63376  26.489  13.281   5.192
 3874W        W63377   7.405  43.413   0.858
 3875W        W63378  38.348  35.481   0.388
 3876W        W63379  37.479  31.524   3.631
 3877W        W63380  20.534  22.693   3.371
 3878W        W63381   3.720  30.913   3.739
 3879W        W63382  24.481  35.072   1.231
 3880W        W63383  29.967  36.865   2.413
 3881W        W63384  14.753  43.516  12.578
 3882W        W63385   0.283   7.862   3.788
 3883W        W63386  13.237   4.832   5.193
 3884W        W63387  10.376  36.870  14.315
 3885W        W63388  20.210   4.320  14.471
 3886W        W63389  27.003  13.826   4.767
 3887W        W63390  15.621  44.852  13.308
 3888W        W63391   7.402  18.667  12.040
 3889W        W63392  27.556  26.207  13.414
 3890W        W63393  11.841  36.860  13.800
 3891W        W63394  10.652  40.303  13.436
 3892W        W63395   0.880  14.204   5.118
 3893W        W63396   8.830  19.750  12.466
 3894W        W63397  43.480  30.653  10.558
 3895W        W63398  33.876  31.526   3.688
 3896W        W63399  10.354  35.006  12.868
 3897W        W63400  37.387  12.795   4.656
 3898W        W63401  43.413  10.165   3.689
 3899W        W63402  43.502  29.426  14.381
 3900W        W63403  16.076   3.318   4.802
 3901W        W63404  15.765  18.785   4.763
 3902W        W63405  31.125  41.038   4.614
 3903W        W63406  18.074  27.539  12.021
 3904W        W63407  23.543  24.607  11.371
 3905W        W63408   0.959  17.734  12.470
 3906W        W63409  21.519  37.453  10.917
 3907W        W63410   2.787  43.776  11.995
 3908W        W63411  44.350   9.289   0.948
 3909W        W63412  27.973  21.650  13.464
 3910W        W63413  20.750  40.016  12.001
 3911W        W63414  15.784  12.838   1.258
 3912W        W63415  20.705  23.082   2.265
 3913W        W63416   0.948  16.727   1.435
 3914W        W63417  39.916   1.365  11.923
 3915W        W63418  38.513  12.718  13.026
 3916W        W63419   0.949   7.260   5.232
 3917W        W63420   3.758  12.766   2.312
 3918W        W63421  35.077  11.256   4.345
 3919W        W63422  28.024  18.235   4.346
 3920W        W63423  35.375  25.603   3.670
 3921W        W63424   1.904  26.617  12.018
 3922W        W63425   0.753  30.580   4.244
 3923W        W63426  30.124  41.008   2.702
 3924W        W63427  29.085   6.765  12.825
 3925W        W63428  44.482  36.460   5.197
 3926W        W63429   4.268  36.058   0.857
 3927W        W63430  18.610  41.301   5.257
 3928W        W63431  10.729  11.720  10.642
 3929W        W63432  10.848  26.080  14.495
 3930W        W63433  23.623  11.777   0.363
 3931W        W63434   1.299   3.283  14.845
 3932W        W63435  16.180  37.937   2.216
 3933W        W63436  14.218  42.780   4.788
 3934W        W63437  20.053  18.676   1.788
 3935W        W63438  43.337  32.042  13.960
 3936W        W63439  32.446   1.917  12.849
 3937W        W63440  29.607  31.407   2.402
 3938W        W63441  43.009   7.695   5.187
 3939W        W63442  29.042   4.885   3.771
 3940W        W63443  31.477  29.158  11.468
 3941W        W63444  14.809   6.911   4.206
 3942W        W63445   4.222  22.695  10.995
 3943W        W63446  14.696  20.028  14.797
 3944W        W63447  33.970  25.970   0.372
 3945W        W63448   1.447  20.238   2.763
 3946W        W63449   4.215  33.120   0.272
 3947W        W63450  36.360   4.837   1.796
 3948W        W63451  13.263  16.592   4.308
 3949W        W63452   2.283  14.172   2.305
 3950W        W63453   4.709   4.783  10.525
 3951W        W63454  31.505   9.380  12.945
 3952W        W63455  37.342  31.951  10.003
 3953W        W63456  28.087  32.107   3.680
 3954W        W63457  20.581  32.572  11.864
 3955W        W63458  10.726  15.090  13.798
 3956W        W63459  38.981  41.470  11.895
 3957W        W63460  12.167   7.261   3.811
 3958W        W63461  21.661  37.925   3.869
 3959W        W63462   1.269   9.792   1.797
 3960W        W63463  36.071   8.202  11.506
 3961W        W63464  14.727  13.731   0.314
 3962W        W63465  14.169  19.724   0.465
 3963W        W63466  21.514  29.662  13.420
 3964W        W63467  22.047   7.416  12.428
 3965W        W63468  38.890  24.720   0.839
 3966W        W63469  38.823  12.349   4.715
 3967W        W63470  12.189  28.496   0.728
 3968W        W63471  21.549   5.856   0.953
 3969W        W63472  22.040  26.997   0.823
 3970W        W63473  29.471  35.931   4.738
 3971W        W63474  43.819   0.749  10.893
 3972W        W63475   1.828   2.742  10.922
 3973W        W63476  24.723   7.243  11.039
 3974W        W63477  34.569  17.580  14.284
 3975W        W63478   9.335  14.235   5.586
 3976W        W63479  18.206   8.838  13.422
 3977W        W63480  37.867  43.005  11.585
 3978W        W63481  14.316  28.524   3.227
 3979W        W63482  32.052  12.812   0.269
 3980W        W63483   3.236  44.385  14.974
 3981W        W63484  11.252  35.065  11.855
 3982W        W63485  32.906  17.717  14.860
 3983W        W63486   2.265  44.472  10.123
 3984W        W63487  27.618   6.755  12.935
 3985W        W63488  27.664  39.502   2.726
 3986W        W63489  21.570   0.294   0.276
 3987W        W63490  41.485  29.613   3.749
 3988W        W63491  37.403  34.996   0.385
 3989W        W63492  35.064  36.568   0.873
 3990W        W63493  42.003  37.473  10.120
 3991W        W63494  15.794   6.856   1.755
 3992W        W63495  18.246  42.861  11.022
 3993W        W63496   1.466  16.249   3.782
 3994W        W63497   1.350  16.235  13.009
 3995W        W63498  44.300  18.059   5.700
 3996W        W63499  25.489  40.978  14.914
 3997W        W63500  18.262  14.120   4.148
 3998W        W63501  19.737  39.486   1.238
 3999W        W63502   4.783   2.907  10.568
 4000W        W63503  40.392  37.441   0.947
 4001W        W63504  14.677  26.114  12.530
 4002W        W63505  10.250   5.813  13.939
 4003W        W63506  22.578  10.765  14.491
 4004W        W63507  15.638  22.586   4.639
 4005W        W63508  40.325  39.899  10.420
 4006W        W63509  13.134  28.492   4.667
 4007W        W63510  28.146   0.445   3.233
 4008W        W63511  44.976  31.050   0.483
 4009W        W63512  29.005  23.729   2.797
 4010W        W63513   6.279  15.298  13.812
 4011W        W63514  13.675  38.377   3.840
 4012W        W63515  33.613  36.546  13.416
 4013W        W63516  11.245  31.408  13.531
 4014W        W63517  14.753  21.559  13.500
 4015W        W63518  30.068  23.202   2.374
 4016W        W63519  18.285  14.729  11.909
 4017W        W63520   8.393  13.142   0.478
 4018W        W63521  29.635  30.417   5.310
 4019W        W63522   5.874   5.794   0.874
 4020W        W63523  19.153  30.569  11.464
 4021W        W63524   0.346  12.837  14.951
 4022W        W63525   0.449   3.898   0.901
 4023W        W63526  39.921   1.884   2.203
 4024W        W63527  28.471  16.607  12.925
 4025W        W63528  32.443  42.439  10.596
 4026W        W63529  10.864   4.775  13.022
 4027W        W63530  16.131   0.438   4.121
 4028W        W63531  25.004  13.752  11.911
 4029W        W63532  17.125   1.905   1.871
 4030W        W63533  29.142  38.868  12.843
 4031W        W63534   2.322  17.637   1.392
 4032W        W63535  37.976  34.603   4.309
 4033W        W63536  40.823  26.051  13.792
 4034W        W63537  26.186   8.768   1.839
 4035W        W63538  23.565  16.126   3.150
 4036W        W63539  38.555  35.910  14.027
 4037W        W63540   6.735  39.012   2.368
 4038W        W63541   4.729  38.378   2.211
 4039W        W63542  31.966  16.079  11.993
 4040W        W63543  20.245  14.607   1.839
 4041W        W63544   4.926  25.607   3.218
 4042W        W63545  13.106  30.943  14.283
 4043W        W63546  18.129  42.988   1.360
 4044W        W63547   4.279  14.631   2.384
 4045W        W63548  32.612  35.415  11.874
 4046W        W63549   0.906  34.897  14.434
 4047W        W63550  26.101   2.748   1.444
 4048W        W63551  38.566  38.863   0.411
 4049W        W63552  17.257  27.607   3.828
 4050W        W63553   0.771  33.892  12.415
 4051W        W63554  38.343  20.564  14.410
 4052W        W63555   5.700   8.752   2.339
 4053W        W63556  29.569   7.789   1.264
 4054W        W63557   1.323  35.449   2.803
 4055W        W63558  30.444  31.980  11.902
 4056W        W63559  19.175  18.664  13.432
 4057W        W63560  36.871  19.207   4.230
 4058W        W63561  40.423  44.951  13.938
 4059W        W63562  11.685  43.012  13.319
 4060W        W63563   9.217  26.658   0.749
 4061W        W63564  10.799  32.532   1.451
 4062W        W63565  41.414  18.687  12.846
 4063W        W63566  28.469  25.991   1.913
 4064W        W63567  13.701  39.393   1.786
 4065W        W63568  14.615   4.339  14.957
 4066W        W63569  28.030   2.402   3.270
 4067W        W63570  36.434   6.329  14.844
 4068W        W63571  18.282  26.504  12.924
 4069W        W63572  17.568  33.092  10.645
 4070W        W63573  15.212  26.200  13.478
 4071W        W63574  37.471  43.324  10.609
 4072W        W63575  32.929   1.847  14.838
 4073W        W63576  16.263  32.512   1.318
 4074W        W63577  26.483  40.433  13.902
 4075W        W63578  17.108  20.189  14.774
 4076W        W63579  27.184   5.844   1.780
 4077W        W63580  16.570  22.059   0.305
 4078W        W63581  36.077   9.720  12.415
 4079W        W63582  14.119  21.699  14.763
 4080W        W63583  13.772   4.231  14.023
 4081W        W63584  12.265   1.886   1.317
 4082W        W63585  40.823  44.467   0.313
 4083W        W63586  21.178  31.945   1.394
 4084W        W63587  27.988  15.165  11.888
 4085W        W63588  22.505  12.170  12.823
 4086W        W63589  14.221  26.173   3.835
 4087W        W63590  22.661  44.938   3.171
 4088W        W63591  43.469  33.498  11.046
 4089W        W63592   5.427   3.798   2.194
 4090W        W63593  14.702  19.163  12.963
 4091W        W63594  19.251   2.797   1.863
 4092W        W63595   6.385  26.194   0.747
 4093W        W63596  23.534  19.567  10.553
 4094W        W63597   0.433  14.300   2.887
 4095W        W63598   0.466  29.049   2.669
 4096W        W63599   1.435  11.321  13.061
 4097W        W63600   5.840  34.977  11.583
 4098W        W63601   5.226  21.708  11.995
 4099W        W63602  14.597   0.967  14.493
 4100W        W63603  44.268  37.469  10.921
 4101W        W63604  43.384   5.391   5.129
 4102W        W63605  43.822  17.746   3.339
 4103W        W63606  18.782  35.497  12.061
 4104W        W63607  33.531  16.130   1.368
 4105W        W63608   1.856   1.413  11.008
 4106W        W63609   5.873  23.100  12.919
 4107W        W63610   8.655  19.722  10.596
 4108W        W63611  31.062  25.025   1.444
 4109W        W63612  41.958  30.439  13.342
 4110W        W63613  32.587  19.252   4.646
 4111W        W63614  40.053   0.950  14.311
 4112W        W63615  29.051   7.267  14.772
 4113W        W63616  36.576  23.185   2.216
 4114W        W63617   1.932  38.506   4.738
 4115W        W63618  22.659  40.335   4.599
 4116W        W63619  31.584  39.398  11.578
 4117W        W63620  24.575  21.042  13.498
 4118W        W63621   0.268  14.268  10.460
 4119W        W63622  37.438   5.737  13.985
 4120W        W63623   6.807  29.554   1.753
 4121W        W63624  39.424  17.269   4.192
 4122W        W63625   0.426  19.130  14.438
 4123W        W63626   9.870  13.750   3.263
 4124W        W63627  18.664  25.659   4.758
 4125W        W63628  18.264  36.516  12.035
 4126W        W63629  33.918  23.193  13.535
 4127W        W63630  29.139  37.054  12.530
 4128W        W63631  11.169   3.254   1.918
 4129W        W63632  14.193  17.276  13.795
 4130W        W63633  38.830  43.920   2.341
 4131W        W63634  39.385  41.946  14.955
 4132W        W63635  32.889   9.157  12.883
 4133W        W63636  28.652   5.259   3.720
 4134W        W63637  38.430   7.674   3.164
 4135W        W63638  43.371  19.162   1.274
 4136W        W63639  20.149  27.549   3.688
 4137W        W63640   4.839  35.970   0.871
 4138W        W63641  31.622   5.312   1.410
 4139W        W63642  16.799  44.859  13.471
 4140W        W63643  25.011  41.321   1.843
 4141W        W63644  38.971  22.627   1.234
 4142W        W63645  37.359   3.249  11.526
 4143W        W63646   1.918  16.319   1.859
 4144W        W63647  39.542   5.351   0.269
 4145W        W63648   7.794  30.494   0.444
 4146W        W63649  26.078   6.907   1.321
 4147W        W63650  44.837  21.051  14.887
 4148W        W63651  36.463  18.130  13.423
 4149W        W63652   9.391  19.039  12.924
 4150W        W63653  37.988  23.174   2.878
 4151W        W63654  44.843   1.867  13.321
 4152W        W63655  18.707  29.534  10.997
 4153W        W63656  22.077  22.146  12.033
 4154W        W63657  43.909  39.521  14.939
 4155W        W63658   3.725  30.067  11.071
 4156W        W63659   6.755  13.645  14.027
 4157W        W63660   8.799   7.712   1.281
 4158W        W63661   3.359   3.239  11.529
 4159W        W63662   1.954  39.540   3.219
 4160W        W63663  23.558  32.908   1.735
 4161W        W63664  27.963  14.824   3.648
 4162W        W63665  11.184  27.489  10.592
 4163W        W63666   1.956  38.562   1.225
 4164W        W63667   2.721  34.419   3.207
 4165W        W63668   1.971  32.953   4.663
 4166W        W63669  33.891  12.347   3.367
 4167W        W63670  17.101  35.088  14.766
 4168W        W63671  19.538   8.780   1.258
 4169W        W63672   7.853   9.382  12.493
 4170W        W63673   0.425  29.141   1.405
 4171W        W63674  32.922  14.114  14.967
 4172W        W63675   4.370  16.134  12.977
 4173W        W63676  22.705  39.488  11.877
 4174W        W63677  24.181  38.873  13.384
 4175W        W63678  29.995  37.882   4.715
 4176W        W63679  27.487   0.301   1.836
 4177W        W63680  17.201  34.576   2.211
 4178W        W63681  28.139  17.735  13.831
 4179W        W63682  32.504  29.010  11.886
 4180W        W63683  23.594  43.501  12.035
 4181W        W63684  15.808  40.824  14.444
 4182W        W63685   4.820  13.844  11.867
 4183W        W63686  32.608  29.089  13.351
 4184W        W63687   4.427  13.245  14.414
 4185W        W63688  32.476  33.493  10.443
 4186W        W63689  27.967   8.809   4.768
 4187W        W63690  19.122  15.113  14.911
 4188W        W63691  25.167  12.815  11.126
 4189W        W63692  30.932  34.560  11.392
 4190W        W63693   0.362  26.546   0.352
 4191W        W63694  27.013   3.460  13.360
 4192W        W63695  18.056   2.280   1.719
 4193W        W63696  17.764  22.619  14.981
 4194W        W63697  34.877  39.324   4.273
 4195W        W63698  10.255   6.761   4.174
 4196W        W63699   0.421  32.898  11.426
 4197W        W63700  20.249  20.632  13.364
 4198W        W63701   7.331   6.233   3.749
 4199W        W63702  34.421  26.665   0.818
 4200W        W63703  34.428  14.813   9.989
 4201W        W63704  32.548  22.072   1.934
 4202W        W63705  19.754  17.559  14.304
 4203W        W63706   4.808  30.913   3.746
 4204W        W63707  25.975   2.399   2.388
 4205W        W63708  37.509  19.121  11.031
 4206W        W63709  42.836  13.158   1.734
 4207W        W63710  30.612  43.337  13.381
 4208W        W63711  35.927   6.253  12.395
 4209W        W63712  17.185  13.741   0.816
 4210W        W63713   6.872  21.547  14.891
 4211W        W63714   6.215  22.021   0.867
 4212W        W63715  10.636   9.720   1.439
 4213W        W63716  22.010  30.580  10.517
 4214W        W63717   3.864  35.058  11.924
 4215W        W63718   3.923   9.857  10.944
 4216W        W63719  40.908   7.174  12.859
 4217W        W63720  10.758  31.024  11.893
 4218W        W63721  29.134   9.671  14.515
 4219W        W63722  40.414  12.776   4.831
 4220W        W63723  18.278   9.188  12.994
 4221W        W63724  19.582   8.174   2.232
 4222W        W63725  26.478  10.792   2.198
 4223W        W63726   8.786  24.179  13.360
 4224W        W63727  12.348  13.703  14.765
 4225W        W63728  21.671  24.230  12.453
 4226W        W63729  31.422  16.703  13.908
 4227W        W63730  44.479  26.194   0.965
 4228W        W63731  18.262  23.013   3.716
 4229W        W63732   5.309  41.005  14.993
 4230W        W63733  30.149  43.807  11.384
 4231W        W63734  37.049  36.979  13.003
 4232W        W63735  38.352  14.252  11.466
 4233W        W63736  20.617  21.176   5.126
 4234W        W63737   4.385  40.900   3.335
 4235W        W63738  17.723  22.502   0.937
 4236W        W63739  42.866  18.193   0.950
 4237W        W63740  34.575  41.472   3.697
 4238W        W63741  30.598  31.992   3.256
 4239W        W63742  43.794   7.680   4.293
 4240W        W63743  23.598  13.128   0.755
 4241W        W63744  20.237   6.295  14.292
 4242W        W63745  18.051  36.590   4.685
 4243W        W63746   2.961  14.204   4.653
 4244W        W63747  32.891  24.705  14.488
 4245W        W63748  19.606  12.722  10.416
 4246W        W63749  30.611   9.187  14.760
 4247W        W63750  34.078   4.435  11.450
 4248W        W63751  12.223   9.387  12.884
 4249W        W63752  21.521  43.291  12.464
 4250W        W63753  13.809  38.386  14.480
 4251W        W63754  15.696   3.847   1.302
 4252W        W63755  17.285  18.570  13.902
 4253W        W63756  18.616  30.163  10.938
 4254W        W63757  25.665   0.790  12.538
 4255W        W63758  33.976  19.068  14.477
 4256W        W63759  11.734  41.351   3.722
 4257W        W63760  18.756  40.374  14.766
 4258W        W63761   0.958  40.308   2.388
 4259W        W63762  32.026  36.481   1.233
 4260W        W63763  41.359  19.205  11.128
 4261W        W63764  34.886  43.946   0.424
 4262W        W63765   3.945  12.618  12.068
 4263W        W63766  27.558  43.419  13.548
 4264W        W63767   1.344  32.885   1.277
 4265W        W63768  15.265  23.225   0.448
 4266W        W63769  11.777  44.780  12.040
 4267W        W63770   1.394   9.662   2.338
 4268W        W63771  14.133  28.076   3.716
 4269W        W63772  10.765   7.373  10.913
 4270W        W63773  19.700  43.515  12.957
 4271W        W63774  18.603  22.108   3.657
 4272W        W63775  29.543   1.733   4.603
 4273W        W63776  15.590  11.781  13.537
 4274W        W63777   7.359  30.035   3.311
 4275W        W63778   4.846  41.902   2.665
 4276W        W63779  41.419   6.418   0.738
 4277W        W63780   1.287   9.344   3.247
 4278W        W63781  25.628  29.060   0.298
 4279W        W63782   2.409  35.509   3.808
 4280W        W63783  10.840  42.948   0.474
 4281W        W63784   3.286  14.123   1.898
 4282W        W63785  13.262  36.530  12.969
 4283W        W63786  41.318  33.406  13.408
 4284W        W63787  11.825  32.454   2.669
 4285W        W63788  36.976   6.344  12.537
 4286W        W63789  44.431   8.772   4.175
 4287W        W63790  12.304  34.594   5.265
 4288W        W63791  28.967  37.472   1.447
 4289W        W63792  30.619  39.952   4.214
 4290W        W63793  25.470  11.765   1.808
 4291W        W63794   4.235  19.719   3.864
 4292W        W63795  36.087  41.300  13.428
 4293W        W63796   6.765  26.148   2.361
 4294W        W63797  21.143  24.120   1.414
 4295W        W63798  12.668  34.893  12.921
 4296W        W63799  34.890   4.290  12.874
 4297W        W63800  20.151  34.000   4.729
 4298W        W63801  23.646  26.026  10.494
 4299W        W63802  22.995   4.776  13.003
 4300W        W63803  40.957  34.070  10.577
 4301W        W63804  14.191  28.935  14.497
 4302W        W63805   1.799  16.690  13.822
 4303W        W63806  32.077  44.494  13.406
 4304W        W63807   2.425  14.766   4.253
 4305W        W63808  38.875  44.288  14.951
 4306W        W63809  37.072  37.929   4.745
 4307W        W63810  38.922  20.682  13.449
 4308W        W63811   1.331  43.851   1.423
 4309W        W63812   8.275  37.339   4.192
 4310W        W63813   5.883  11.691  14.913
 4311W        W63814  34.585  31.153  14.301
 4312W        W63815  31.444  25.165  12.371
 4313W        W63816  24.504  12.611  14.368
 4314W        W63817  23.034  19.602  13.951
 4315W        W63818   9.753  36.098   2.694
 4316W        W63819  21.240  29.595  12.007
 4317W        W63820  13.809  41.358   1.852
 4318W        W63821  41.299  32.039  10.450
 4319W        W63822  10.639   4.910  10.414
 4320W        W63823   3.717  33.049   2.770
 4321W        W63824  38.975  19.753  11.975
 4322W        W63825  31.458  24.074   4.262
 4323W        W63826  34.375  14.187  11.122
 4324W        W63827  41.792  33.878  12.378
 4325W        W63828   2.341  32.931  13.842
 4326W        W63829  25.206  27.490   2.702
 4327W        W63830  18.140  10.173   3.376
 4328W        W63831  43.801  41.942  11.558
 4329W        W63832  31.136  39.385  12.377
 4330W        W63833   1.833  21.548   0.250
 4331W        W63834  40.046  18.245   0.908
 4332W        W63835  15.251  29.503   4.803
 4333W        W63836  39.889   4.351   1.374
 4334W        W63837  40.832  27.674   2.687
 4335W        W63838   6.251   3.934  12.027
 4336W        W63839  31.958   3.843   1.282
 4337W        W63840  39.027  30.062  14.409
 4338W        W63841   2.339  35.023  14.005
 4339W        W63842  34.094  24.035  10.531
 4340W        W63843  16.255  11.201  13.023
 4341W        W63844  10.338  14.626   9.620
 4342W        W63845   4.878  21.192   1.309
 4343W        W63846   5.439   5.880   4.816
 4344W        W63847  42.951  34.464  11.495
 4345W        W63848   8.373  22.139   0.924
 4346W        W63849   4.869  40.938   4.759
 4347W        W63850  40.933   3.429  10.964
 4348W        W63851  36.010  36.395  10.577
 4349W        W63852  37.031  44.967  10.461
 4350W        W63853   1.425  27.007   1.313
 4351W        W63854  34.550  44.409  10.605
 4352W        W63855  10.207   9.177  14.947
 4353W        W63856   0.473  41.311  10.087
 4354W        W63857   5.354  25.061  13.316
 4355W        W63858   4.369   7.694   0.318
 4356W        W63859  43.502  12.319   4.787
 4357W        W63860   6.193  31.564   4.180
 4358W        W63861  11.778  15.636  13.941
 4359W        W63862  30.551  24.053   1.299
 4360W        W63863  28.078   1.245  14.826
 4361W        W63864  19.074  36.075  13.995
 4362W        W63865  27.571  38.068   0.325
 4363W        W63866  26.625   1.274  11.972
 4364W        W63867  42.383  29.959  13.027
 4365W        W63868   2.775   4.927  13.919
 4366W        W63869  24.683  41.857   2.411
 4367W        W63870  41.316  39.533   0.375
 4368W        W63871  20.258  13.304  11.499
 4369W        W63872  37.914  19.045   0.416
 4370W        W63873  27.052  23.662  12.905
 4371W        W63874  25.641  17.233  11.083
 4372W        W63875  12.664  22.720  10.510
 4373W        W63876  30.618  11.736   1.747
 4374W        W63877  11.180  29.080   2.769
 4375W        W63878  24.135  22.525  13.881
 4376W        W63879  28.524  22.557   3.277
 4377W        W63880  24.059   1.769   2.352
 4378W        W63881   2.822   7.843  11.913
 4379W        W63882   1.812  18.778  12.848
 4380W        W63883   0.766   5.717  13.422
 4381W        W63884  33.969  28.185   2.198
 4382W        W63885  13.736   8.855  10.896
 4383W        W63886  10.688   2.807   1.761
 4384W        W63887  19.086  18.638  13.908
 4385W        W63888  38.422  11.315  11.380
 4386W        W63889  44.935  11.720  12.477
 4387W        W63890  27.131  38.373   0.788
 4388W        W63891  11.858  34.886  12.486
 4389W        W63892  16.114   4.938  12.410
 4390W        W63893  39.853   8.288   2.694
 4391W        W63894  33.016  31.085  12.398
 4392W        W63895  19.556  30.502  11.110
 4393W        W63896  17.564  34.502  12.358
 4394W        W63897  25.998  31.481   4.838
 4395W        W63898  35.408  32.099  14.310
 4396W        W63899  33.027  44.468  11.492
 4397W        W63900  14.731  44.853   4.203
 4398W        W63901  25.057  13.144  12.011
 4399W        W63902  44.338  16.588   1.889
 4400W        W63903  20.733  29.475   1.300
 4401W        W63904  44.963   8.776   4.772
 4402W        W63905  31.057  33.532  13.439
 4403W        W63906  29.583   6.234   1.247
 4404W        W63907  16.164   6.918  13.793
 4405W        W63908  10.817  15.120   3.629
 4406W        W63909  44.007  43.289  14.772
 4407W        W63910   9.316  11.363   4.775
 4408W        W63911  44.277  24.599   4.298
 4409W        W63912  34.468  18.627   0.929
 4410W        W63913  36.563  14.094  12.000
 4411W        W63914  44.960  26.031   1.377
 4412W        W63915  29.093   3.309   3.713
 4413W        W63916  20.200  13.143  13.913
 4414W        W63917  40.847  33.617   0.369
 4415W        W63918  43.298  34.041   4.816
 4416W        W63919  40.888  28.618  14.367
 4417W        W63920  23.568  19.192   2.792
 4418W        W63921   2.399  37.005   1.389
 4419W        W63922   5.199  28.947  10.616
 4420W        W63923   6.914  28.526  14.936
 4421W        W63924  17.703  36.905   1.805
 4422W        W63925  16.176  18.093  14.849
 4423W        W63926  30.539   2.301  12.037
 4424W        W63927  22.996   3.736   2.734
 4425W        W63928  26.682  15.667  10.104
 4426W        W63929  43.324  22.156  14.940
 4427W        W63930  24.579  31.533   1.440
 4428W        W63931  13.656  30.641   4.267
 4429W        W63932   0.493   3.233  10.482
 4430W        W63933  32.509  37.420   0.948
 4431W        W63934  32.126  11.146  10.483
 4432W        W63935   7.720  32.059  13.434
 4433W        W63936  32.457  18.566  14.479
 4434W        W63937  27.081  32.019  10.073
 4435W        W63938  20.112  34.083  14.462
 4436W        W63939  31.639  23.172   4.643
 4437W        W63940   3.819   4.311   3.648
 4438W        W63941  13.706  14.661  11.553
 4439W        W63942  20.538   3.772  12.428
 4440W        W63943  10.829  15.246   1.447
 4441W        W63944  28.061  38.915  11.943
 4442W        W63945  17.746  30.615  10.447
 4443W        W63946   8.179   5.863  14.023
 4444W        W63947  29.503  41.387   4.222
 4445W        W63948   7.240  24.675  13.992
 4446W        W63949  28.600  40.498   3.261
 4447W        W63950   5.376  20.039   3.852
 4448W        W63951  34.889   0.872  11.502
 4449W        W63952   5.216  43.012  13.793
 4450W        W63953  38.328  15.086  12.912
 4451W        W63954  12.312   5.778   0.904
 4452W        W63955  21.230   3.713   1.887
 4453W        W63956  28.675   8.887  13.879
 4454W        W63957  42.464  13.794  13.384
 4455W        W63958   3.313   6.285   4.229
 4456W        W63959  23.514  43.992  14.417
 4457W        W63960  25.064  41.338  13.928
 4458W        W63961  13.606  39.863   3.305
 4459W        W63962  12.822  27.154  14.502
 4460W        W63963  41.855  36.547   0.318
 4461W        W63964  20.218  19.275   4.118
 4462W        W63965  31.570   1.941  12.857
 4463W        W63966  40.971  40.980   4.337
 4464W        W63967  19.265  38.568  12.091
 4465W        W63968  22.595  26.088   0.795
 4466W        W63969  11.180  14.819   5.322
 4467W        W63970  30.614  22.183  13.019
 4468W        W63971  44.792   6.851   3.841
 4469W        W63972   0.935  23.242  10.146
 4470W        W63973  15.232  43.290  14.904
 4471W        W63974   1.820  19.152   3.825
 4472W        W63975  42.006  35.387  11.896
 4473W        W63976  21.747  10.307   5.170
 4474W        W63977   8.657  42.526  13.815
 4475W        W63978  24.693   9.375   3.709
 4476W        W63979  26.603  37.972   0.960
 4477W        W63980  32.437  35.586   4.330
 4478W        W63981  25.152  18.608   0.737
 4479W        W63982  34.535  11.715  10.458
 4480W        W63983  19.590  30.658   2.835
 4481W        W63984   7.772   3.380  11.074
 4482W        W63985  27.065  34.874   0.395
 4483W        W63986  44.462  26.679   0.381
 4484W        W63987   7.902  38.429  10.477
 4485W        W63988  30.079  34.490   0.281
 4486W        W63989  18.145   7.863  12.491
 4487W        W63990  19.719   3.324  11.930
 4488W        W63991  38.853  19.129   1.260
 4489W        W63992  23.072  16.704   4.681
 4490W        W63993  26.133   6.344  14.426
 4491W        W63994  34.483   9.276  12.067
 4492W        W63995  18.775  44.290   3.272
 4493W        W63996  29.049  31.123   0.751
 4494W        W63997  38.482  43.999   4.160
 4495W        W63998  10.331  40.974   4.216
 4496W        W63999  10.306  10.165  12.439
 4497W        W64000  38.519  20.543  12.951
 4498W        W64001  15.278  11.644   1.410
 4499W        W64002  14.142  33.914  11.465
 4500W        W64003  34.494  29.663   4.353
 4501W        W64004   5.366  17.737   2.409
 4502W        W64005  10.178  41.930  11.567
 4503W        W64006  18.782  28.099   2.795
 4504W        W64007  21.040   1.906   3.262
 4505W        W64008  37.869   7.782  13.842
 4506W        W64009   4.820  21.630   1.330
 4507W        W64010  11.215   9.883   2.831
 4508W        W64011  18.780  37.014  12.500
 4509W        W64012  22.220  21.030   4.730
 4510W        W64013  38.858  38.920  10.496
 4511W        W64014  12.166  37.446   2.245
 4512W        W64015  42.381  10.717   1.223
 4513W        W64016   4.329  17.653  13.402
 4514W        W64017  40.350  20.622   1.913
 4515W        W64018  32.609  14.648   3.352
 4516W        W64019  24.229  20.051   3.293
 4517W        W64020   8.349  25.205   3.842
 4518W        W64021  26.520  11.699   3.313
 4519W        W64022  43.971  28.049   0.335
 4520W        W64023  21.609  37.366   2.219
 4521W        W64024   5.837  24.616  12.045
 4522W        W64025  40.411  18.161  13.438
 4523W        W64026  33.919  28.988   0.304
 4524W        W64027   1.773  20.121   1.709
 4525W        W64028  14.202  26.664   0.913
 4526W        W64029   0.395  41.926   4.785
 4527W        W64030  12.814  29.485   3.155
 4528W        W64031  11.186  30.099   5.692
 4529W        W64032  38.944  12.610   4.827
 4530W        W64033  27.513  22.669  11.570
 4531W        W64034  29.524   1.357   1.341
 4532W        W64035  33.503  28.942   2.880
 4533W        W64036  32.636  32.097   1.725
 4534W        W64037  35.891  33.605   2.748
 4535W        W64038  38.044  12.847  13.874
 4536W        W64039   6.200  23.147  10.434
 4537W        W64040   8.301  22.569   4.130
 4538W        W64041  30.964  14.239  11.004
 4539W        W64042  24.039  29.474  14.500
 4540W        W64043  21.238  34.380   2.403
 4541W        W64044  25.074  43.019  14.857
 4542W        W64045   8.247  25.984   0.452
 4543W        W64046  11.205  41.340  12.881
 4544W        W64047  35.372  10.648   4.248
 4545W        W64048   3.317  19.197  14.377
 4546W        W64049   3.932  15.691   1.373
 4547W        W64050  42.016  35.924  12.557
 4548W        W64051  19.593  44.935  13.420
 4549W        W64052  21.562  38.473   1.813
 4550W        W64053   1.878   8.297   2.338
 4551W        W64054  30.652  26.095   5.292
 4552W        W64055  27.688  19.769  11.574
 4553W        W64056  39.391  39.411  11.980
 4554W        W64057  11.219  33.451  13.909
 4555W        W64058  31.919  11.687   4.784
 4556W        W64059  13.336  43.330  11.452
 4557W        W64060  29.155   5.735  12.849
 4558W        W64061   5.789  26.985  14.988
 4559W        W64062  29.951  44.291   3.848
 4560W        W64063  27.518  34.043   1.740
 4561W        W64064  33.572  13.811  13.880
 4562W        W64065  43.986  33.525   2.708
 4563W        W64066   0.743  35.453   3.318
 4564W        W64067   7.314  13.280  12.434
 4565W        W64068  30.130  21.050   0.789
 4566W        W64069  37.484  15.606   2.264
 4567W        W64070  40.314  24.590   1.711
 4568W        W64071  18.679  23.648   9.944
 4569W        W64072  26.513  37.989   3.797
 4570W        W64073  11.666  37.535  14.018
 4571W        W64074  33.955   6.868  14.276
 4572W        W64075  30.114  15.323   1.408
 4573W        W64076  32.445  28.128  12.902
 4574W        W64077   0.360  15.703   0.894
 4575W        W64078  20.075  11.144  14.499
 4576W        W64079  38.473  33.426  14.786
 4577W        W64080  39.858  18.755   0.817
 4578W        W64081  25.079  10.761   2.293
 4579W        W64082  19.191  33.129   4.601
 4580W        W64083  22.222   9.839  12.031
 4581W        W64084  37.982   1.330  12.052
 4582W        W64085  33.515  19.161   2.366
 4583W        W64086  27.192   0.877   0.879
 4584W        W64087   6.682  42.287  12.556
 4585W        W64088  30.939   7.782  14.852
 4586W        W64089  19.212  39.907   2.408
 4587W        W64090   1.440   6.236  10.996
 4588W        W64091  14.751  22.732  11.478
 4589W        W64092  30.149  15.730  11.997
 4590W        W64093  36.050  42.992  11.126
 4591W        W64094  33.485  28.085   5.317
 4592W        W64095  39.032  17.100   4.794
 4593W        W64096   4.801  44.789  13.829
 4594W        W64097  23.494  32.889   3.707
 4595W        W64098  31.491  26.532   0.966
 4596W        W64099  33.560  42.900   3.182
 4597W        W64100  18.632  35.992   0.766
 4598W        W64101  34.448  16.665   2.250
 4599W        W64102  29.928  39.334  12.902
 4600W        W64103  15.804  11.328   0.343
 4601W        W64104  26.067  28.048  11.587
 4602W        W64105  44.875  15.258   4.304
 4603W        W64106  28.535   3.437   0.767
 4604W        W64107  41.847   3.843   1.306
 4605W        W64108   2.804  39.049  11.492
 4606W        W64109  29.969  34.031  11.931
 4607W        W64110  16.807  39.045  13.469
 4608W        W64111   7.247   2.360   0.330
 4609W        W64112  33.120  39.856  13.321
 4610W        W64113  37.837  27.635   2.745
 4611W        W64114  21.554  25.070   0.887
 4612W        W64115  30.518  15.136   0.830
 4613W        W64116  16.116  20.203  10.897
 4614W        W64117  26.167  19.656   3.292
 4615W        W64118   1.804  38.875  13.447
 4616W        W64119  18.234  15.329   0.397
 4617W        W64120  11.153  34.370   1.427
 4618W        W64121  31.628  31.474   0.300
 4619W        W64122  26.169  36.520  13.807
 4620W        W64123  40.898  25.209   4.128
 4621W        W64124   0.819  28.054  14.959
 4622W        W64125  35.097  25.219  13.026
 4623W        W64126  24.061  42.340  11.973
 4624W        W64127  23.553   8.681  14.911
 4625W        W64128  11.810  40.819  13.317
 4626W        W64129   7.749  34.443   4.618
 4627W        W64130   6.286  37.445   1.440
 4628W        W64131  26.125  13.121  11.106
 4629W        W64132  19.732  21.752   3.638
 4630W        W64133  12.232   6.799  13.414
 4631W        W64134  24.198   2.859  13.318
 4632W        W64135  11.695  21.224  12.966
 4633W        W64136  39.035  24.537   2.291
 4634W        W64137  40.999  27.005   0.871
 4635W        W64138  28.996   8.704   4.700
 4636W        W64139  12.129   9.195  13.811
 4637W        W64140  40.805  35.067  13.429
 4638W        W64141  44.836  30.535   5.142
 4639W        W64142  18.665  13.666  13.844
 4640W        W64143  37.914   2.425  14.977
 4641W        W64144  21.585  22.025   0.449
 4642W        W64145   3.420  17.623  13.021
 4643W        W64146  19.723  41.299   2.298
 4644W        W64147   8.195  21.215   0.774
 4645W        W64148  25.988   7.367   0.276
 4646W        W64149  29.504  38.923  12.538
 4647W        W64150   4.234  17.236   1.430
 4648W        W64151   9.239   9.755   2.872
 4649W        W64152   6.696  40.473   0.849
 4650W        W64153  36.015  41.498  11.077
 4651W        W64154   3.271  20.255  14.500
 4652W        W64155   0.769  19.705   3.162
 4653W        W64156   8.186  11.711   4.214
 4654W        W64157  42.377  11.352  13.885
 4655W        W64158  22.660  20.641   0.851
 4656W        W64159   6.192  23.542   0.328
 4657W        W64160  41.461  23.999   0.430
 4658W        W64161  38.971  34.011  13.967
 4659W        W64162  20.539  13.664   0.460
 4660W        W64163   9.643  31.408   1.246
 4661W        W64164  15.119  17.304  10.623
 4662W        W64165  15.298  41.033  10.520
 4663W        W64166  34.996  28.980   0.818
 4664W        W64167  14.821  29.147   3.867
 4665W        W64168  18.100  35.985  10.437
 4666W        W64169  41.845  28.180  10.024
 4667W        W64170   5.874  34.455   2.317
 4668W        W64171  35.973  39.504  11.893
 4669W        W64172  10.356  20.068  10.044
 4670W        W64173  16.201  40.007   4.179
 4671W        W64174  17.713  21.737   0.940
 4672W        W64175  16.278  16.591   3.378
 4673W        W64176  23.148  10.320   2.194
 4674W        W64177  15.188  15.283   2.181
 4675W        W64178  14.156  12.131  13.376
 4676W        W64179   4.205  18.735  11.576
 4677W        W64180  20.193  38.385  11.381
 4678W        W64181  42.842  43.919  13.933
 4679W        W64182  20.536   2.848   1.851
 4680W        W64183   6.288   6.767   2.308
 4681W        W64184  15.675  44.465   4.248
 4682W        W64185  34.955  20.557   3.285
 4683W        W64186  44.316   6.852   1.232
 4684W        W64187   8.328  18.117   0.446
 4685W        W64188   9.261  18.136   3.289
 4686W        W64189  33.952  43.297  11.559
 4687W        W64190  15.112  24.071  13.030
 4688W        W64191  38.335  26.103   3.183
 4689W        W64192  27.103  39.497   4.700
 4690W        W64193  16.691  30.465   3.796
 4691W        W64194  38.355  36.412   3.659
 4692W        W64195  32.933  24.526   3.244
 4693W        W64196  14.625  41.909   4.202
 4694W        W64197  25.072  17.117   2.220
 4695W        W64198  44.909  11.654  13.458
 4696W        W64199  20.068  26.496   4.254
 4697W        W64200  20.227  17.196   2.739
 4698W        W64201  43.418  39.327  11.584
 4699W        W64202  31.609  15.809   3.682
 4700W        W64203   0.743  23.121   2.814
 4701W        W64204   1.774  15.285   0.884
 4702W        W64205  10.203  31.125   3.649
 4703W        W64206  37.431  44.385  11.946
 4704W        W64207  28.988  27.687   1.850
 4705W        W64208  44.303   4.388   1.343
 4706W        W64209  40.451  26.078   2.193
 4707W        W64210  41.880  33.595  13.796
 4708W        W64211  13.147  27.460   1.747
 4709W        W64212   9.748   2.302  11.930
 4710W        W64213  39.904   6.281  13.364
 4711W        W64214  33.934   7.748  14.838
 4712W        W64215  33.126  39.941  12.501
 4713W        W64216   4.383  36.443   1.821
 4714W        W64217   8.170  31.001  10.527
 4715W        W64218  20.730  21.061   1.424
 4716W        W64219   7.226  36.520   1.701
 4717W        W64220  34.942  15.610   2.206
 4718W        W64221   8.280  25.705   0.787
 4719W        W64222  42.929  27.578   4.163
 4720W        W64223  20.036  39.846   3.182
 4721W        W64224  27.011   0.372  12.520
 4722W        W64225  16.803  10.656  13.455
 4723W        W64226   2.329   9.758  12.545
 4724W        W64227   5.268  36.513  13.528
 4725W        W64228  35.889  17.794  12.360
 4726W        W64229  40.531  18.619   2.215
 4727W        W64230  35.068  23.646  11.963
 4728W        W64231  36.472  38.395  13.839
 4729W        W64232  40.459   4.342   3.672
 4730W        W64233  14.183   9.318   1.436
 4731W        W64234  17.247  15.797   3.710
 4732W        W64235  20.619  39.443  14.422
 4733W        W64236  38.413  34.422   1.731
 4734W        W64237  23.494   9.388  12.531
 4735W        W64238   5.789  40.936  10.577
 4736W        W64239  12.134  36.501  10.602
 4737W        W64240  40.846  37.414  14.846
 4738W        W64241  11.784  34.478   2.790
 4739W        W64242  42.458   6.424  13.528
 4740W        W64243  28.929  33.390  12.926
 4741W        W64244  31.537  33.983   2.379
 4742W        W64245  15.802  34.109   2.845
 4743W        W64246  18.600  25.642  13.324
 4744W        W64247   9.645   1.917   2.294
 4745W        W64248   1.260  39.401   0.392
 4746W        W64249  25.596  22.684  10.427
 4747W        W64250  22.173  44.912   5.607
 4748W        W64251  43.890  27.684  13.017
 4749W        W64252  33.494  39.997   0.728
 4750W        W64253   3.307  18.157  13.850
 4751W        W64254  38.385   5.373   2.238
 4752W        W64255  37.830  17.094  10.980
 4753W        W64256   8.292  32.623   4.718
 4754W        W64257   7.271  41.469   3.173
 4755W        W64258  31.625   4.315   2.805
 4756W        W64259  22.570  12.805   1.401
 4757W        W64260   6.890   0.841  10.442
 4758W        W64261  42.935  39.469   3.258
 4759W        W64262  40.932   6.861   5.593
 4760W        W64263  19.188  22.176  11.612
 4761W        W64264  44.761  42.334   4.667
 4762W        W64265  12.754  10.333   4.728
 4763W        W64266  44.426   2.936  10.453
 4764W        W64267  17.610  16.783   0.371
 4765W        W64268  12.764  14.814   1.790
 4766W        W64269  41.457  43.446  11.994
 4767W        W64270  38.832  17.775  14.503
 4768W        W64271   1.946   3.820   2.816
 4769W        W64272  37.976   3.913  11.044
 4770W        W64273  12.827   2.964   3.168
 4771W        W64274   3.912  28.108  13.809
 4772W        W64275  27.134  19.554  12.476
 4773W        W64276  25.706  30.989   2.680
 4774W        W64277  12.797  31.513  12.400
 4775W        W64278   7.210  37.518  11.586
 4776W        W64279  24.537  39.504   3.257
 4777W        W64280   2.913  39.022   4.775
 4778W        W64281  21.029  28.132   0.424
 4779W        W64282  31.059   9.644   3.731
 4780W        W64283  11.352   7.296  11.878
 4781W        W64284  37.844  32.138  11.609
 4782W        W64285  31.623  28.593   1.395
 4783W        W64286  35.043  25.161  11.454
 4784W        W64287  18.662  16.647  13.997
 4785W        W64288  32.624  19.729   2.820
 4786W        W64289  21.142  13.603  13.434
 4787W        W64290  16.205  29.125   0.846
 4788W        W64291   9.734   2.876  13.976
 4789W        W64292   7.267  38.909  10.090
 4790W        W64293  13.154   1.318   3.713
 4791W        W64294  11.821  28.597  12.575
 4792W        W64295  13.812   5.700   4.276
 4793W        W64296  38.923   2.236   1.248
 4794W        W64297  13.244  21.234  13.533
 4795W        W64298   5.369  35.565   0.751
 4796W        W64299   3.795  21.156  11.988
 4797W        W64300   7.750  25.591  12.070
 4798W        W64301  17.748   1.405   2.278
 4799W        W64302  14.612  23.198  12.065
 4800W        W64303   2.372  24.628   3.826
 4801W        W64304  20.251  27.129  14.791
 4802W        W64305  29.642  32.445  13.039
 4803W        W64306  16.288  34.965   0.748
 4804W        W64307   7.277  42.370   3.369
 4805W        W64308   8.214  19.184   1.370
 4806W        W64309  10.734  19.100  12.856
 4807W        W64310  42.414  11.756  13.027
 4808W        W64311  28.936   8.711   3.665
 4809W        W64312   1.308  44.504   2.379
 4810W        W64313  29.976  15.267  13.806
 4811W        W64314  23.238  31.629   2.301
 4812W        W64315  10.184  12.119  14.965
 4813W        W64316   1.382  36.995  13.801
 4814W        W64317  16.710  44.005   0.942
 4815W        W64318  23.194  19.047   2.396
 4816W        W64319  28.505  36.549  11.059
 4817W        W64320  30.979   8.744   0.950
 4818W        W64321  29.980   7.393  11.891
 4819W        W64322  26.552  38.428  13.482
 4820W        W64323  14.782  26.534   3.756
 4821W        W64324  15.792  17.582   0.746
 4822W        W64325  17.131   6.766   1.736
 4823W        W64326  16.076  40.995   0.341
 4824W        W64327  13.180  22.735   0.370
 4825W        W64328   3.835   7.248  10.504
 4826W        W64329  35.048   2.313  11.997
 4827W        W64330   8.890  31.028   3.700
 4828W        W64331   5.217  31.416  14.329
 4829W        W64332  28.099  32.570   3.342
 4830W        W64333  18.555  40.364  11.405
 4831W        W64334  34.409   5.836  11.061
 4832W        W64335  10.164  12.260   4.320
 4833W        W64336  34.608   4.737  11.493
 4834W        W64337   5.275  14.122   4.214
 4835W        W64338   9.387  39.017  14.825
 4836W        W64339   8.878  23.021   4.342
 4837W        W64340  21.528  15.211   1.372
 4838W        W64341  15.668  37.962   1.870
 4839W        W64342  32.520  15.597   3.174
 4840W        W64343  32.080  15.615  11.878
 4841W        W64344  18.190  17.246  10.444
 4842W        W64345  28.589  44.810   3.787
 4843W        W64346  12.184  31.531   2.362
 4844W        W64347  11.633  19.614   4.610
 4845W        W64348  28.446   6.400  12.005
 4846W        W64349   5.294  36.893  12.907
 4847W        W64350   1.416   9.178  10.912
 4848W        W64351  43.858  37.042   3.370
 4849W        W64352  31.625  20.762  12.969
 4850W        W64353   9.293   1.402  11.438
 4851W        W64354  13.145   7.355   4.660
 4852W        W64355  40.361  15.233   1.766
 4853W        W64356  30.582  13.840   0.483
 4854W        W64357  42.872   3.841   2.280
 4855W        W64358  18.108   7.716  13.386
 4856W        W64359  43.930   7.793   1.437
 4857W        W64360   7.697   7.211   3.843
 4858W        W64361  40.368  37.869   3.838
 4859W        W64362  20.625  15.716  11.384
 4860W        W64363  21.149  43.885  12.449
 4861W        W64364   2.279   7.224   3.650
 4862W        W64365  25.152   1.399  12.579
 4863W        W64366   2.340  11.681  11.423
 4864W        W64367   7.741  18.295  13.533
 4865W        W64368  43.471  23.621  13.806
 4866W        W64369  29.659  37.563  13.526
 4867W        W64370  24.512   1.793  13.980
 4868W        W64371  18.173   6.248  11.376
 4869W        W64372  26.492  37.382   0.382
 4870W        W64373  44.280   0.346   2.212
 4871W        W64374  41.367   3.835   2.317
 4872W        W64375   0.849  21.050  13.324
 4873W        W64376  39.040   5.312   1.270
 4874W        W64377  40.820  22.606   3.252
 4875W        W64378  15.090  17.667   4.652
 4876W        W64379  42.408  35.394   0.957
 4877W        W64380  18.554  12.131  12.439
 4878W        W64381  39.981  15.203   4.320
 4879W        W64382  11.693  12.728   1.383
 4880W        W64383   3.910  19.665  12.357
 4881W        W64384  11.709  16.654   0.476
 4882W        W64385  13.114  18.549  12.552
 4883W        W64386   0.962  18.114   0.252
 4884W        W64387  16.292   7.375  12.996
 4885W        W64388  34.494  36.526   0.905
 4886W        W64389  22.658  42.305   2.405
 4887W        W64390  22.035  31.641  13.861
 4888W        W64391  39.920  35.051  10.888
 4889W        W64392  12.273   8.784   0.254
 4890W        W64393   9.257  31.506  12.948
 4891W        W64394  21.211  17.279  13.316
 4892W        W64395  24.079  44.441   2.852
 4893W        W64396  34.879  20.628   1.249
 4894W        W64397  22.514  27.609  13.425
 4895W        W64398   4.865  25.548   3.684
 4896W        W64399   2.889  16.685   0.757
 4897W        W64400  39.936  19.547   1.800
 4898W        W64401  39.500  43.856   2.785
 4899W        W64402  26.462   3.311  14.764
 4900W        W64403   9.765   5.357   2.236
 4901W        W64404  24.013  20.050  12.825
 4902W        W64405  37.353   5.808   0.846
 4903W        W64406   1.441  35.537  12.912
 4904W        W64407  37.943  41.482   0.784
 4905W        W64408  26.099  41.818  12.011
 4906W        W64409  21.646  42.870   1.357
 4907W        W64410   1.439  26.627   0.957
 4908W        W64411  38.942  15.293   2.685
 4909W        W64412  40.899  21.680   0.895
 4910W        W64413  38.449   5.348  12.471
 4911W        W64414  22.701   2.409   2.182
 4912W        W64415  16.696  26.984   3.645
 4913W        W64416  13.346  35.472  11.452
 4914W        W64417  44.913   2.805   2.666
 4915W        W64418  20.068   1.246  10.411
 4916W        W64419  39.401  18.672  12.921
 4917W        W64420  41.020  10.779   2.722
 4918W        W64421  39.397  37.980  13.867
 4919W        W64422  15.761  33.455  11.510
 4920W        W64423  32.048  15.792   3.827
 4921W        W64424  12.191  35.994   2.265
 4922W        W64425  35.865  17.088  13.508
 4923W        W64426  28.955   9.289  12.560
 4924W        W64427   8.309  41.883   0.859
 4925W        W64428  37.422  26.188  11.480
 4926W        W64429  10.233  25.036   2.678
 4927W        W64430  10.650  39.025  12.971
 4928W        W64431  20.763  13.314  12.059
 4929W        W64432  33.563   1.260   2.193
 4930W        W64433  41.798   5.816  13.881
 4931W        W64434  41.945  39.026  12.051
 4932W        W64435  39.341  31.483   3.730
 4933W        W64436   4.374   4.731   1.379
 4934W        W64437   5.341   8.679   1.729
 4935W        W64438  11.725  33.421  12.419
 4936W        W64439   7.319  10.693  11.549
 4937W        W64440   2.330  40.837  13.427
 4938W        W64441  39.865  43.950   0.301
 4939W        W64442  13.201  32.918  14.861
 4940W        W64443  22.732   6.282  10.565
 4941W        W64444  14.762   2.730   1.763
 4942W        W64445   1.866  23.235   2.675
 4943W        W64446  18.072  10.822   3.235
 4944W        W64447  11.136  40.971  11.978
 4945W        W64448  26.010   5.827   0.931
 4946W        W64449  32.557  34.866   2.336
 4947W        W64450  10.794  38.539   4.683
 4948W        W64451  29.093  30.431   4.809
 4949W        W64452  31.952  27.503   0.949
 4950W        W64453  41.890  37.965   4.327
 4951W        W64454  15.211  40.883  11.879
 4952W        W64455   2.389  19.084  11.373
 4953W        W64456   6.367  37.935  11.604
 4954W        W64457  34.111  38.998   2.179
 4955W        W64458  12.770  16.199  13.997
 4956W        W64459   0.484  20.042   2.366
 4957W        W64460   8.286  16.191   5.258
 4958W        W64461  11.167  38.931  12.837
 4959W        W64462  10.716  17.247   2.232
 4960W        W64463  37.400  44.272   2.723
 4961W        W64464  14.639  12.756  14.795
 4962W        W64465  23.680  40.883   0.773
 4963W        W64466  37.453  37.371   4.654
 4964W        W64467   3.953  22.245   3.760
 4965W        W64468  26.557  19.132   4.659
 4966W        W64469  20.132  35.433   2.233
 4967W        W64470  12.711  38.350  14.843
 4968W        W64471  38.542  12.845  11.567
 4969W        W64472  19.572   9.341   3.251
 4970W        W64473  24.533   5.384   5.244
 4971W        W64474  41.991  38.514  12.880
 4972W        W64475   4.865  39.431   2.884
 4973W        W64476  31.459  43.781   0.801
 4974W        W64477  16.292   3.908   3.355
 4975W        W64478  30.630  28.936   2.185
 4976W        W64479  27.605  38.554   3.756
 4977W        W64480  40.525  20.742   2.387
 4978W        W64481  25.645  27.490  10.893
 4979W        W64482  44.425  23.678  12.375
 4980W        W64483  34.990  26.586  11.879
 4981W        W64484  34.395   9.171   4.296
 4982W        W64485  33.575  30.126  10.092
 4983W        W64486  23.618  43.449  14.022
 4984W        W64487  11.258   3.338  11.491
 4985W        W64488  33.079  18.068   1.345
 4986W        W64489  43.336  23.149   1.401
 4987W        W64490  12.313  36.533  14.276
 4988W        W64491  34.553  26.602  10.516
 4989W        W64492  17.604  26.960  14.446
 4990W        W64493  31.097  19.625  11.095
 4991W        W64494   1.963  13.816   3.180
 4992W        W64495  36.486  38.893  13.010
 4993W        W64496  44.502  22.649  13.992
 4994W        W64497  35.586  16.711  10.501
 4995W        W64498  37.408   0.787   1.285
 4996W        W64499  13.140  35.084   9.566
 4997W        W64500   5.917  37.527  11.504
 4998W        W64501  34.959  25.497  13.512
 4999W        W64502  10.315  27.515   1.786
 5000W        W64503   3.401  39.014   1.293
 5001W        W64504  22.690  14.647   2.337
 5002W        W64505  16.117  44.435  14.472
 5003W        W64506  22.027  10.350   4.690
 5004W        W64507  18.200  41.860  12.044
 5005W        W64508  32.598  10.735  11.045
 5006W        W64509  38.465   7.903  14.768
 5007W        W64510  17.644  24.517  14.350
 5008W        W64511  37.049   4.290   3.802
 5009W        W64512   3.938   8.379  12.538
 5010W        W64513  21.627  27.530  11.528
 5011W        W64514   5.403   5.365   0.477
 5012W        W64515  35.966   0.855   1.729
 5013W        W64516  34.587  35.971  10.567
 5014W        W64517   5.317  15.781   3.785
 5015W        W64518  14.110  13.778   4.667
 5016W        W64519  44.350  23.091  13.546
 5017W        W64520  17.711   7.197   2.869
 5018W        W64521  35.908   9.679   2.376
 5019W        W64522  11.806   2.851   2.798
 5020W        W64523  38.960   1.461  11.880
 5021W        W64524  42.360  32.092   3.345
 5022W        W64525  10.837  35.483  13.354
 5023W        W64526   2.416  26.087   4.150
 5024W        W64527  18.552  43.946  14.834
 5025W        W64528  28.462   6.276  10.027
 5026W        W64529  15.810  40.994   2.228
 5027W        W64530  28.179  24.088  13.914
 5028W        W64531  42.779   5.261   3.249
 5029W        W64532  28.635  42.840  13.482
 5030W        W64533  27.578  21.150  12.865
 5031W        W64534  10.342  25.214   9.935
 5032W        W64535   4.254  33.438   4.819
 5033W        W64536  26.622  13.619   1.381
 5034W        W64537  36.409  39.360  13.940
 5035W        W64538  13.611  38.865  11.441
 5036W        W64539   6.794   6.416   4.135
 5037W        W64540  37.919  14.258  11.036
 5038W        W64541  35.525  24.669   2.881
 5039W        W64542  31.093  37.855  13.813
 5040W        W64543  11.165   2.840   1.743
 5041W        W64544  18.711  36.478   0.832
 5042W        W64545  38.452  22.723   4.282
 5043W        W64546  39.055  39.846   0.336
 5044W        W64547  29.945  43.889  13.024
 5045W        W64548  40.361  42.338  14.825
 5046W        W64549  14.219  18.787  12.363
 5047W        W64550  41.036  26.554  13.996
 5048W        W64551   6.338  18.088   3.672
 5049W        W64552  34.440   9.861  10.409
 5050W        W64553  24.115  44.412   1.229
 5051W        W64554  15.276  13.810   3.728
 5052W        W64555  11.825   9.677   4.237
 5053W        W64556  19.271  44.826  11.924
 5054W        W64557  26.176  23.210   0.816
 5055W        W64558  31.006  20.604  12.986
 5056W        W64559   1.284  12.695   2.714
 5057W        W64560   0.884  11.291   4.765
 5058W        W64561  32.901   6.921  11.074
 5059W        W64562  18.148  28.443   2.353
 5060W        W64563  33.113  15.197  13.450
 5061W        W64564  18.106   2.279   4.612
 5062W        W64565  36.463   6.270   3.166
 5063W        W64566  30.535   9.761   4.331
 5064W        W64567  17.606  39.030   2.266
 5065W        W64568  35.862  18.756   3.244
 5066W        W64569  42.302  38.041   2.183
 5067W        W64570   5.215  18.757   0.358
 5068W        W64571  17.751   5.370  10.497
 5069W        W64572  17.664  19.586  10.433
 5070W        W64573  24.979  13.648   3.371
 5071W        W64574  32.136   1.296  14.998
 5072W        W64575  31.402  12.687  14.327
 5073W        W64576   9.251  12.790   5.224
 5074W        W64577   0.296   3.345  13.871
 5075W        W64578  16.291   9.740   2.340
 5076W        W64579  23.583   0.464   1.804
 5077W        W64580  16.245  27.970   3.292
 5078W        W64581  13.215  27.967   1.793
 5079W        W64582  22.710  42.976  14.402
 5080W        W64583   2.776  12.329   2.335
 5081W        W64584  20.209  42.030   0.459
 5082W        W64585  29.002  16.220  10.594
 5083W        W64586  24.993  18.203   3.725
 5084W        W64587  20.678  38.477   3.742
 5085W        W64588   9.360  23.584   4.260
 5086W        W64589   5.362  35.925  10.491
 5087W        W64590  29.980  21.038   1.283
 5088W        W64591  43.490   9.210   3.631
 5089W        W64592   8.309  36.584  14.392
 5090W        W64593  43.961  26.552   4.265
 5091W        W64594  10.157  32.530   1.885
 5092W        W64595  24.039  35.081   1.341
 5093W        W64596  14.646  21.539  12.052
 5094W        W64597  24.557   9.818   4.742
 5095W        W64598  16.180  25.703  12.374
 5096W        W64599  18.223  28.978   2.775
 5097W        W64600  32.951  13.273   1.313
 5098W        W64601  15.786  24.052  14.512
 5099W        W64602  10.765  41.486   3.259
 5100W        W64603  29.630  30.551  12.058
 5101W        W64604   8.797   2.889  14.032
 5102W        W64605   2.940  43.291   4.289
 5103W        W64606   5.794  31.430  10.912
 5104W        W64607   6.816   0.257  13.796
 5105W        W64608  41.497  38.983  10.501
 5106W        W64609  23.165  43.288   9.987
 5107W        W64610  15.661  15.743  14.769
 5108W        W64611  35.590  21.704   0.473
 5109W        W64612  18.565  30.954   2.730
 5110W        W64613   6.838  14.633  13.381
 5111W        W64614   6.809   0.989   4.660
 5112W        W64615   4.751  40.535   5.295
 5113W        W64616  13.733  24.061   4.243
 5114W        W64617  14.598  28.615   1.807
 5115W        W64618  27.458   4.914   0.331
 5116W        W64619  11.646  42.971  11.401
 5117W        W64620  37.904  44.335  11.920
 5118W        W64621  14.194  27.485  13.045
 5119W        W64622  10.314   0.428   2.295
 5120W        W64623  20.232  12.760   4.787
 5121W        W64624  20.203  18.228   2.227
 5122W        W64625  19.536  18.630  13.902
 5123W        W64626   7.862   2.861   4.727
 5124W        W64627  25.469   9.202  13.340
 5125W        W64628  39.536  22.619   0.957
 5126W        W64629  31.590  21.606  10.455
 5127W        W64630  40.464  10.160  10.642
 5128W        W64631  14.151  42.970  14.372
 5129W        W64632  23.114   2.782   3.657
 5130W        W64633  16.200  39.940   3.376
 5131W        W64634  28.526   9.304   2.386
 5132W        W64635  38.077  21.224   0.295
 5133W        W64636   6.283   7.735   0.321
 5134W        W64637  28.511  31.462  12.563
 5135W        W64638  34.525  22.705  11.994
 5136W        W64639   1.411  27.544  11.025
 5137W        W64640  13.687   3.217   2.763
 5138W        W64641   5.810  11.356   1.886
 5139W        W64642  18.789  18.081  12.355
 5140W        W64643  16.103   3.804  14.772
 5141W        W64644  31.563  17.167   3.254
 5142W        W64645  15.263   6.685  12.850
 5143W        W64646  17.102  17.568  12.340
 5144W        W64647  35.992   9.837   4.189
 5145W        W64648  39.525  37.915   0.917
 5146W        W64649   9.388   7.882   1.265
 5147W        W64650  14.593   2.289   2.866
 5148W        W64651  39.409  40.343  10.444
 5149W        W64652   7.858  42.833  13.936
 5150W        W64653  15.638  34.416  11.600
 5151W        W64654   3.892  22.668  14.776
 5152W        W64655  16.665  26.128   1.724
 5153W        W64656  19.589  35.051   0.772
 5154W        W64657  15.753   6.841   2.228
 5155W        W64658   1.850  21.211  11.459
 5156W        W64659  39.391  32.959   4.617
 5157W        W64660  43.798  14.136   1.355
 5158W        W64661   8.668  42.002  13.334
 5159W        W64662   1.830  32.077  12.072
 5160W        W64663  44.403  34.014   0.826
 5161W        W64664  39.889   2.950   3.733
 5162W        W64665  34.900  20.524  12.476
 5163W        W64666  37.339  23.187   3.823
 5164W        W64667   5.807  36.519   1.838
 5165W        W64668  25.573  35.872   3.312
 5166W        W64669  37.930  43.859  11.906
 5167W        W64670  26.114  14.324  14.306
 5168W        W64671  16.684  32.122   3.315
 5169W        W64672  31.631  18.097  11.962
 5170W        W64673  25.058  10.147  14.418
 5171W        W64674   4.769  29.467  13.442
 5172W        W64675  38.868  32.542  12.358
 5173W        W64676   5.847  12.162   3.787
 5174W        W64677  44.962  21.723   4.317
 5175W        W64678  19.175  34.465  14.488
 5176W        W64679  33.498  44.333   4.247
 5177W        W64680  27.178   7.326  11.918
 5178W        W64681  42.360  30.996  11.004
 5179W        W64682  39.400  34.562   4.198
 5180W        W64683  22.063  38.437   3.290
 5181W        W64684  14.824  25.512   4.787
 5182W        W64685   4.292   6.700  14.921
 5183W        W64686  36.561  13.116   1.855
 5184W        W64687  14.105  10.831   3.372
 5185W        W64688   6.800   9.703  13.329
 5186W        W64689   7.691   5.297   0.403
 5187W        W64690  37.922  21.212  13.417
 5188W        W64691  29.471  22.057  14.356
 5189W        W64692  25.208   4.849  11.966
 5190W        W64693  17.666  20.565   2.309
 5191W        W64694  44.893  27.548  14.004
 5192W        W64695  41.375  11.365   0.750
 5193W        W64696  27.148  12.115   2.307
 5194W        W64697  39.556  16.804   4.285
 5195W        W64698  13.128   3.828  12.876
 5196W        W64699  22.535   5.253  14.006
 5197W        W64700  33.124  35.550  14.455
 5198W        W64701  28.606  29.962   1.362
 5199W        W64702  19.650  21.225   3.182
 5200W        W64703  31.946   4.291   0.453
 5201W        W64704  18.109  42.371   1.357
 5202W        W64705  18.656  31.965   2.815
 5203W        W64706  13.730  40.438  11.124
 5204W        W64707  39.948  30.653  12.944
 5205W        W64708  24.177  24.491  14.454
 5206W        W64709   2.458   9.667  10.900
 5207W        W64710  34.477  15.160  12.018
 5208W        W64711  39.345  33.943  13.440
 5209W        W64712  24.717  11.692   2.247
 5210W        W64713  37.007  37.935   2.848
 5211W        W64714  11.798  36.477  13.870
 5212W        W64715  20.531  33.092   2.754
 5213W        W64716  38.870  39.962   3.696
 5214W        W64717  44.402   2.268   2.353
 5215W        W64718  43.908  31.976   3.244
 5216W        W64719  22.700  25.620  10.570
 5217W        W64720   7.283  44.381  13.888
 5218W        W64721  43.964   5.834   4.141
 5219W        W64722   0.341  15.167   0.338
 5220W        W64723  22.106  41.938   3.805
 5221W        W64724  27.119   9.340  13.922
 5222W        W64725  32.046   6.396   2.257
 5223W        W64726  10.280   5.399   3.841
 5224W        W64727  40.329  27.534   0.368
 5225W        W64728  38.990   1.309   1.731
 5226W        W64729  26.570  30.414  13.384
 5227W        W64730  29.566  39.845  10.467
 5228W        W64731  36.985  37.515   4.115
 5229W        W64732  29.073  29.632  12.455
 5230W        W64733  12.637  42.018  11.976
 5231W        W64734   1.962  24.113   1.272
 5232W        W64735  38.029  16.659  10.960
 5233W        W64736  26.523   7.416  14.282
 5234W        W64737  12.643  11.166  12.347
 5235W        W64738  21.178   1.356   3.819
 5236W        W64739  16.807   7.691   3.849
 5237W        W64740  30.466  42.032  14.285
 5238W        W64741  36.547  10.295   3.262
 5239W        W64742  10.747  36.551  13.996
 5240W        W64743  16.242  41.933  11.059
 5241W        W64744   9.823  26.499  12.434
 5242W        W64745  43.300   2.295   1.374
 5243W        W64746  32.120  44.850   0.943
 5244W        W64747  25.680  25.698  14.398
 5245W        W64748  24.226  37.909   0.411
 5246W        W64749  40.019  44.308   4.226
 5247W        W64750  36.413  43.509  13.409
 5248W        W64751  14.143   4.734   0.441
 5249W        W64752  23.623  33.128  10.961
 5250W        W64753  41.966  11.231   2.823
 5251W        W64754   5.404  29.065  12.373
 5252W        W64755  29.503  10.283  12.905
 5253W        W64756  12.137  19.233  14.003
 5254W        W64757   0.445  26.694  13.033
 5255W        W64758  43.982  10.843  13.985
 5256W        W64759  13.110  33.010   3.215
 5257W        W64760  34.875  30.961  12.370
 5258W        W64761   8.286  18.749  10.442
 5259W        W64762  14.652  33.965  14.856
 5260W        W64763  19.062  36.566   1.380
 5261W        W64764  22.149  36.089   3.779
 5262W        W64765  22.538  17.132  12.833
 5263W        W64766   5.704   1.332  10.410
 5264W        W64767   6.771  13.137  11.857
 5265W        W64768  13.627  15.805   0.866
 5266W        W64769  14.610  24.658  13.358
 5267W        W64770  35.992  13.756   0.280
 5268W        W64771  31.572  31.089  14.928
 5269W        W64772  29.559  12.827  11.085
 5270W        W64773  38.964   4.436  10.122
 5271W        W64774  36.064  19.137  13.944
 5272W        W64775  40.482  44.816  12.578
 5273W        W64776  14.340  16.767   0.341
 5274W        W64777  14.692  28.067   3.217
 5275W        W64778  29.997  30.505  14.005
 5276W        W64779   7.245  40.503   3.262
 5277W        W64780   1.330  35.545  10.526
 5278W        W64781  12.853  38.996  12.369
 5279W        W64782  29.078  10.224   4.622
 5280W        W64783  28.948  29.622   0.374
 5281W        W64784  18.558   6.357   3.291
 5282W        W64785   0.362  14.806   0.872
 5283W        W64786  37.475  36.843  11.378
 5284W        W64787   4.349  28.462  13.453
 5285W        W64788   5.827  35.923  11.050
 5286W        W64789  16.641  11.700   0.406
 5287W        W64790  30.958  12.681  13.485
 5288W        W64791  29.500  18.176   4.623
 5289W        W64792  13.155   4.434  14.945
 5290W        W64793  18.170   6.854   3.780
 5291W        W64794  28.593  39.850  13.318
 5292W        W64795  35.044   7.793   4.651
 5293W        W64796  18.207  23.091   1.830
 5294W        W64797  17.790  15.680  13.317
 5295W        W64798  14.104   4.400   0.787
 5296W        W64799  21.738  18.279   4.253
 5297W        W64800  31.404   1.791  13.971
 5298W        W64801  38.065  33.618  13.478
 5299W        W64802  28.576  42.910   5.135
 5300W        W64803  21.516  12.647   3.739
 5301W        W64804   1.942  36.441  10.573
 5302W        W64805  17.084  28.448   4.834
 5303W        W64806  23.023  27.076  14.366
 5304W        W64807  29.924   4.359  11.488
 5305W        W64808  30.426   1.412  14.439
 5306W        W64809  30.610  36.404  12.547
 5307W        W64810  15.257  38.347   0.433
 5308W        W64811  33.041  35.869   2.177
 5309W        W64812  34.026  42.796   2.667
 5310W        W64813  15.177  16.651  14.006
 5311W        W64814   1.383  36.431  10.568
 5312W        W64815  41.352  36.457  13.440
 5313W        W64816  33.966   5.773  13.030
 5314W        W64817  36.075  21.561   4.722
 5315W        W64818  25.120  20.623   0.471
 5316W        W64819  17.661  23.136  13.372
 5317W        W64820  10.242  26.965  12.513
 5318W        W64821   0.952  37.851   2.846
 5319W        W64822   1.320   9.881   0.854
 5320W        W64823  36.488  11.316   3.384
 5321W        W64824   0.985  26.988   0.808
 5322W        W64825  17.176  35.464   4.166
 5323W        W64826  32.632  44.430   2.276
 5324W        W64827  31.565   0.279  12.867
 5325W        W64828   0.366  13.279  10.478
 5326W        W64829  27.475  26.176  14.490
 5327W        W64830  27.509  43.277   4.784
 5328W        W64831  27.014  44.273   2.390
 5329W        W64832  12.819  43.455   2.662
 5330W        W64833  40.895  29.498  11.908
 5331W        W64834   8.344  35.482  10.926
 5332W        W64835  16.249  38.444  11.517
 5333W        W64836   4.206  34.587  14.891
 5334W        W64837  35.104   4.248  14.900
 5335W        W64838   0.265  36.360   0.924
 5336W        W64839   0.484   5.820  14.922
 5337W        W64840  22.500   9.834   2.390
 5338W        W64841  17.733  24.619   4.785
 5339W        W64842  34.969  24.134   2.223
 5340W        W64843  19.138  23.231   0.946
 5341W        W64844  10.211   0.463  13.916
 5342W        W64845  15.304  39.834   3.778
 5343W        W64846  17.128  33.967   0.458
 5344W        W64847  19.130  36.528  11.393
 5345W        W64848  20.545  18.160  13.058
 5346W        W64849   0.806  29.589   1.926
 5347W        W64850   6.875  17.717   2.295
 5348W        W64851  18.610  24.057   2.855
 5349W        W64852   9.184   6.888   4.277
 5350W        W64853   7.733   4.933   1.395
 5351W        W64854  41.444  16.788   3.240
 5352W        W64855  42.825  32.024   1.828
 5353W        W64856  26.559  42.006  13.477
 5354W        W64857  32.550  32.616   2.333
 5355W        W64858  36.583  41.520   2.384
 5356W        W64859  38.937   4.299  10.935
 5357W        W64860  25.516   3.273  13.013
 5358W        W64861  42.875  20.753  11.967
 5359W        W64862  43.971  41.329  11.391
 5360W        W64863  43.910  34.971   3.312
 5361W        W64864  29.941  18.753  12.878
 5362W        W64865  13.757   5.193   4.239
 5363W        W64866  24.218  24.621  12.065
 5364W        W64867  20.556  10.256  13.420
 5365W        W64868  42.321  11.264   1.221
 5366W        W64869  25.079  27.994  11.857
 5367W        W64870  22.142  25.966  10.546
 5368W        W64871   7.732   4.397   4.349
 5369W        W64872  42.962  30.529  10.120
 5370W        W64873  21.175  39.457  12.493
 5371W        W64874  26.701  40.932  10.466
 5372W        W64875  17.303  37.502  14.439
 5373W        W64876  40.971  39.005  10.930
 5374W        W64877  33.046  15.591  12.011
 5375W        W64878  34.395  34.059   0.813
 5376W        W64879  20.611  44.010   4.670
 5377W        W64880   9.881  36.942  12.845
 5378W        W64881  40.954  10.654   2.235
 5379W        W64882  20.053  18.128  12.853
 5380W        W64883   8.785  33.626  12.074
 5381W        W64884  21.066  37.572   1.700
 5382W        W64885   8.848   9.822  12.005
 5383W        W64886  29.455  34.065  11.407
 5384W        W64887  40.514  17.784   2.846
 5385W        W64888  32.103  34.530  11.106
 5386W        W64889  38.487  17.576  13.526
 5387W        W64890  21.642  32.554  12.969
 5388W        W64891  10.734  30.634   1.232
 5389W        W64892  20.122   3.379   3.647
 5390W        W64893  29.519  25.052   0.751
 5391W        W64894  11.242   1.892   1.242
 5392W        W64895  27.494  18.578   2.669
 5393W        W64896  38.899  25.027  10.893
 5394W        W64897   3.737  41.395  12.015
 5395W        W64898   9.866   8.888   0.442
 5396W        W64899   1.429  10.763  12.037
 5397W        W64900  33.992  31.513  11.860
 5398W        W64901  28.100  14.158  13.995
 5399W        W64902  17.736  23.989   2.736
 5400W        W64903  18.054  11.276   1.262
 5401W        W64904  19.693  25.122  10.638
 5402W        W64905  17.795  36.901   4.814
 5403W        W64906   0.350   0.877  14.792
 5404W        W64907   9.834   8.390  12.046
 5405W        W64908  17.186  35.480  13.495
 5406W        W64909  14.662  27.980   2.236
 5407W        W64910  11.791  20.203   2.690
 5408W        W64911  41.006  35.054  13.028
 5409W        W64912  23.217  18.183   0.832
 5410W        W64913   6.810  43.812   4.116
 5411W        W64914  11.130  26.969  14.849
 5412W        W64915  23.545  20.052   4.158
 5413W        W64916  10.362   5.198  10.428
 5414W        W64917  33.886  14.301   5.716
 5415W        W64918  21.688  38.554   0.444
 5416W        W64919  25.986  14.733   1.757
 5417W        W64920  23.094  42.986   1.378
 5418W        W64921  21.119  33.617  12.442
 5419W        W64922  43.288  32.948   3.352
 5420W        W64923   4.717  27.941   3.163
 5421W        W64924  44.408  22.513  14.968
 5422W        W64925  42.004   3.846   4.774
 5423W        W64926   1.793  40.333  12.911
 5424W        W64927  28.038  41.927   4.279
 5425W        W64928  17.127  41.396   2.776
 5426W        W64929  18.240   4.921   0.389
 5427W        W64930  43.423   7.840  10.140
 5428W        W64931  21.621  21.558  14.279
 5429W        W64932  30.419  30.457   3.783
 5430W        W64933  36.511  21.608  14.318
 5431W        W64934  29.944   9.313   2.766
 5432W        W64935   8.838   5.226   3.693
 5433W        W64936  20.106  26.080   3.234
 5434W        W64937  18.062   5.297  11.601
 5435W        W64938  39.954   3.433   4.788
 5436W        W64939  25.613  38.377   2.321
 5437W        W64940  13.791   3.403  14.806
 5438W        W64941  17.239  27.055   4.702
 5439W        W64942  42.839  28.967   2.336
 5440W        W64943  43.892  24.189  14.516
 5441W        W64944  39.513  43.309  13.332
 5442W        W64945  34.484   6.689   3.286
 5443W        W64946  21.703  31.111  13.017
 5444W        W64947  17.162  32.067  14.512
 5445W        W64948  29.980   8.280   4.704
 5446W        W64949  30.464  37.446   2.374
 5447W        W64950   2.769  13.260   4.648
 5448W        W64951   5.212  29.438  11.057
 5449W        W64952  27.049  23.006   2.284
 5450W        W64953  22.712  40.963  11.462
 5451W        W64954  18.626   6.302  12.057
 5452W        W64955  15.782  26.674   2.373
 5453W        W64956  41.525  18.243   2.392
 5454W        W64957  16.282  21.666  12.946
 5455W        W64958   4.275   6.888  10.474
 5456W        W64959  32.608  13.761   2.661
 5457W        W64960  36.500  34.595   1.911
 5458W        W64961  14.134  30.084   3.806
 5459W        W64962  27.561  31.938   0.354
 5460W        W64963  30.038   1.351   3.328
 5461W        W64964  27.160  39.907   0.944
 5462W        W64965  26.476  43.852  10.121
 5463W        W64966  33.601  37.953   0.881
 5464W        W64967  13.828  14.184  11.861
 5465W        W64968  16.291  42.970   1.414
 5466W        W64969  42.872  24.662  12.928
 5467W        W64970   1.814  20.740  11.441
 5468W        W64971  39.868   6.205  12.522
 5469W        W64972  12.682   7.252  14.905
 5470W        W64973   9.277  37.051  13.537
 5471W        W64974  29.611  21.613  13.936
 5472W        W64975  29.661  32.142  14.391
 5473W        W64976   6.350  22.179  14.791
 5474W        W64977  32.484  17.282   4.317
 5475W        W64978  12.306  32.891   1.881
 5476W        W64979  27.501  44.891   1.708
 5477W        W64980  38.443  26.529   2.790
 5478W        W64981  28.668  20.209   2.893
 5479W        W64982   7.686   6.201  13.797
 5480W        W64983  13.351  31.983  12.846
 5481W        W64984  25.058  16.803   1.818
 5482W        W64985  22.561  11.331  12.872
 5483W        W64986  29.004  19.117   3.725
 5484W        W64987  35.102  28.571   3.382
 5485W        W64988  29.600  25.195  11.995
 5486W        W64989  44.291   7.363   0.835
 5487W        W64990  10.636  27.188  11.390
 5488W        W64991  37.540  22.735  11.463
 5489W        W64992  24.483  40.999  11.862
 5490W        W64993  43.941  44.945   0.309
 5491W        W64994  12.175  40.986   0.450
 5492W        W64995  17.155  11.789   2.366
 5493W        W64996  18.162   9.261   2.272
 5494W        W64997  34.911   0.253   0.369
 5495W        W64998  29.636   8.676   1.867
 5496W        W64999  40.037  18.627   3.240
 5497W        W65000  33.919  28.556   2.249
 5498W        W65001  10.327  32.600   3.697
 5499W        W65002  16.797  36.453   3.200
 5500W        W65003   7.372  32.449  12.489
 5501W        W65004  42.946  25.619  13.436
 5502W        W65005  44.300  15.289  13.868
 5503W        W65006  17.799  19.579  12.958
 5504W        W65007  23.204  42.488  11.939
 5505W        W65008  11.221   1.917  12.851
 5506W        W65009  28.120   9.764  14.920
 5507W        W65010  34.401   8.260  14.932
 5508W        W65011  42.339  38.871   3.303
 5509W        W65012   0.351  26.119   1.398
 5510W        W65013  10.362  29.981   3.366
 5511W        W65014  32.935  14.770   3.288
 5512W        W65015  14.699  26.022  11.545
 5513W        W65016  44.483  30.419  12.891
 5514W        W65017  35.990  11.773  13.463
 5515W        W65018  11.283   1.467  13.533
 5516W        W65019  44.934  32.488   3.219
 5517W        W65020  16.801  32.084  13.049
 5518W        W65021   4.447  35.540  13.457
 5519W        W65022  35.012  12.133  12.534
 5520W        W65023  15.616  26.107  12.947
 5521W        W65024  38.479  21.088   0.455
 5522W        W65025  20.038   2.423   3.831
 5523W        W65026  12.238  27.504   1.377
 5524W        W65027  11.776  26.698  13.461
 5525W        W65028  14.166   1.731  13.834
 5526W        W65029  12.849  21.103   0.439
 5527W        W65030  40.359  27.989   1.245
 5528W        W65031  29.121  41.943   3.383
 5529W        W65032  40.394  44.772  10.449
 5530W        W65033  39.447  19.628  13.504
 5531W        W65034  35.961   7.286   3.215
 5532W        W65035  36.582  41.888   2.238
 5533W        W65036  19.243  19.174  12.434
 5534W        W65037   8.830  13.675  14.339
 5535W        W65038  38.924  14.142   1.782
 5536W        W65039  39.347  26.616  13.436
 5537W        W65040  35.062  11.794  13.877
 5538W        W65041  44.890  19.082   3.255
 5539W        W65042  36.432   4.320   3.339
 5540W        W65043   4.384  21.256   1.396
 5541W        W65044  37.851  12.212  10.503
 5542W        W65045   6.848  13.695  11.407
 5543W        W65046  30.492  42.822  14.783
 5544W        W65047  26.667  44.400  12.882
 5545W        W65048  14.182   8.756  13.025
 5546W        W65049  43.891  32.002  10.566
 5547W        W65050  16.240   4.704  14.798
 5548W        W65051   4.890  27.648   4.328
 5549W        W65052   2.407  42.502   1.842
 5550W        W65053  27.115  29.535  13.049
 5551W        W65054   7.211  36.495   1.401
 5552W        W65055  35.390   3.224   3.782
 5553W        W65056  42.967  38.056  14.442
 5554W        W65057  16.584  26.031   3.717
 5555W        W65058  10.272  43.011  14.299
 5556W        W65059  21.163   0.960   5.206
 5557W        W65060   4.926  20.101   0.767
 5558W        W65061   1.302  37.379  11.014
 5559W        W65062   3.782   2.275   0.728
 5560W        W65063   8.402  41.810  10.446
 5561W        W65064   5.380  38.362  14.938
 5562W        W65065  32.915  44.348  10.029
 5563W        W65066   6.244   9.351   3.681
 5564W        W65067  27.954  22.155   3.644
 5565W        W65068   2.910  31.056   0.778
 5566W        W65069  33.603   3.427   0.313
 5567W        W65070  27.503   0.961   4.264
 5568W        W65071  33.957  44.433  13.919
 5569W        W65072  22.193  41.475  13.874
 5570W        W65073  26.116   4.795  11.452
 5571W        W65074  28.499   2.767   1.776
 5572W        W65075  26.479  29.954  11.104
 5573W        W65076  19.716   1.450  13.897
 5574W        W65077  40.807  25.520  11.432
 5575W        W65078  24.608  12.762  13.850
 5576W        W65079   2.472  32.471  11.019
 5577W        W65080  23.699  37.936  13.826
 5578W        W65081  20.269  24.658   4.730
 5579W        W65082  29.069  28.488   1.842
 5580W        W65083  33.583  15.288   4.831
 5581W        W65084  11.155  10.349  11.471
 5582W        W65085  23.686   8.402  11.907
 5583W        W65086  26.038  37.073  13.437
 5584W        W65087  18.617   7.812  12.029
 5585W        W65088  12.741   7.179   3.737
 5586W        W65089  38.366  35.980   3.738
 5587W        W65090  28.502  43.993   1.792
 5588W        W65091  11.702  25.144  10.493
 5589W        W65092  30.447   2.909   0.301
 5590W        W65093   3.712  17.774   3.719
 5591W        W65094  13.755  40.858  13.981
 5592W        W65095  23.608  27.183   2.730
 5593W        W65096  35.093  23.675  14.436
 5594W        W65097  31.645  29.624  13.926
 5595W        W65098  28.964  10.201   1.708
 5596W        W65099  21.670  27.136   0.794
 5597W        W65100  27.188  44.898  14.805
 5598W        W65101  17.620  13.234  10.931
 5599W        W65102  28.961  43.882   3.341
 5600W        W65103  28.465  14.159  10.574
 5601W        W65104  24.506  23.587   2.384
 5602W        W65105  35.061   8.226   4.350
 5603W        W65106  15.619  39.901   3.780
 5604W        W65107   8.355  41.437  12.864
 5605W        W65108  17.679  37.996   4.731
 5606W        W65109   4.822   8.797  14.969
 5607W        W65110   2.294   4.433   0.280
 5608W        W65111  42.435  37.444   4.762
 5609W        W65112  44.417   6.190  12.363
 5610W        W65113  42.944  35.097   3.711
 5611W        W65114  23.229  12.305  11.105
 5612W        W65115  35.989  30.037   3.795
 5613W        W65116  42.827  42.807   3.151
 5614W        W65117  10.765  33.944   3.253
 5615W        W65118   7.234  25.151  12.559
 5616W        W65119  41.972  23.033  13.949
 5617W        W65120  42.424  36.884   3.684
 5618W        W65121  20.647  36.581  13.354
 5619W        W65122  11.136  17.701  11.602
 5620W        W65123  31.000   9.273  13.871
 5621W        W65124  41.445  24.633  13.002
 5622W        W65125  33.033  29.114   3.242
 5623W        W65126  20.182  37.441  11.539
 5624W        W65127  21.672  30.632   3.331
 5625W        W65128  35.986  13.766   1.258
 5626W        W65129  27.941  39.844  10.550
 5627W        W65130  11.307  15.086  13.921
 5628W        W65131  22.109  36.875  11.600
 5629W        W65132  10.772  24.040   0.749
 5630W        W65133  26.061  39.463  14.876
 5631W        W65134  33.072  43.353  10.932
 5632W        W65135  30.439  29.669   9.532
 5633W        W65136  21.676  34.869   3.790
 5634W        W65137  39.514  19.192  11.577
 5635W        W65138  14.716  36.895   2.358
 5636W        W65139  43.835  37.037  11.881
 5637W        W65140  40.413  36.512   0.840
 5638W        W65141  28.540  40.931   3.636
 5639W        W65142  38.382  27.478   3.826
 5640W        W65143   3.928  28.966   2.255
 5641W        W65144  25.132  25.068  14.981
 5642W        W65145  14.241  39.056   4.237
 5643W        W65146   1.420  23.726   1.422
 5644W        W65147  27.662   0.336  12.479
 5645W        W65148  30.083  42.935   4.623
 5646W        W65149  38.954  25.036   0.966
 5647W        W65150  24.224  25.159   2.760
 5648W        W65151  26.539   7.254  10.953
 5649W        W65152  31.122   9.663  13.941
 5650W        W65153   2.269   2.414  12.553
 5651W        W65154  38.494  23.227  12.528
 5652W        W65155  27.586  31.010   2.866
 5653W        W65156  30.487  35.358  14.336
 5654W        W65157   0.276  37.847  11.040
 5655W        W65158  43.990  10.761  14.878
 5656W        W65159  37.479   1.449   3.738
 5657W        W65160  29.659  36.516  14.397
 5658W        W65161   8.361  29.966   3.241
 5659W        W65162  11.726  40.350   4.716
 5660W        W65163  12.644  17.767   0.920
 5661W        W65164  19.131  35.382   0.906
 5662W        W65165  22.051  13.696   0.886
 5663W        W65166   1.867  32.434   1.341
 5664W        W65167  42.936  13.701  14.000
 5665W        W65168  17.194  43.386   0.877
 5666W        W65169   2.321  32.118   3.832
 5667W        W65170  29.142  39.426  12.971
 5668W        W65171  33.574  37.997   1.250
 5669W        W65172   3.876  35.382  12.392
 5670W        W65173  10.247  44.829  13.396
 5671W        W65174  19.704   8.289   2.876
 5672W        W65175  43.807  30.643  11.092
 5673W        W65176  34.067  32.553  11.522
 5674W        W65177  31.905  40.309   0.409
 5675W        W65178  28.460   8.312  13.861
 5676W        W65179  34.599   0.338  13.363
 5677W        W65180   6.330   4.255   0.769
 5678W        W65181  40.305  25.012   4.680
 5679W        W65182   8.194  42.439  13.813
 5680W        W65183   9.860  14.168  13.547
 5681W        W65184  20.152  25.012  10.076
 5682W        W65185  44.279   6.405  11.991
 5683W        W65186   0.904   8.354   3.262
 5684W        W65187   8.883  39.454   3.305
 5685W        W65188  15.663   0.868   0.909
 5686W        W65189  18.583   2.262  10.899
 5687W        W65190  17.616   1.438   0.806
 5688W        W65191  24.062   3.350  13.936
 5689W        W65192  23.687  44.966  14.921
 5690W        W65193  24.662  43.979   3.311
 5691W        W65194   3.272  34.994   0.950
 5692W        W65195  26.100  18.102   4.273
 5693W        W65196  44.385  15.639  11.887
 5694W        W65197  31.054  21.034   2.728
 5695W        W65198   0.312  15.800   3.329
 5696W        W65199  28.516  10.210   2.695
 5697W        W65200  37.848  37.576   1.412
 5698W        W65201  29.573  29.494  13.043
 5699W        W65202  43.427  13.710  14.318
 5700W        W65203  43.828  15.728   2.673
 5701W        W65204  15.703  27.651   0.848
 5702W        W65205   8.900   1.846  12.873
 5703W        W65206   9.247  20.052   3.757
 5704W        W65207   6.800  31.015  14.773
 5705W        W65208  32.902  19.537  10.621
 5706W        W65209  13.688  31.599  12.499
 5707W        W65210  40.474  31.090  14.877
 5708W        W65211  18.235   1.401  12.826
 5709W        W65212   0.436  18.057   1.436
 5710W        W65213  26.585   7.395  11.500
 5711W        W65214  27.960  37.038   3.179
 5712W        W65215  35.910  27.641  12.487
 5713W        W65216  24.084   3.837   0.741
 5714W        W65217  30.036  17.716   1.821
 5715W        W65218  22.701  23.086   1.366
 5716W        W65219  25.627  41.920   0.483
 5717W        W65220  31.031  29.565   4.636
 5718W        W65221  19.160   2.340  11.959
 5719W        W65222  18.664  18.723   3.654
 5720W        W65223  39.022   9.775   0.269
 5721W        W65224  34.537  32.079  11.523
 5722W        W65225   5.794  12.793   4.817
 5723W        W65226   1.287  18.170   2.260
 5724W        W65227  15.316   7.216   2.793
 5725W        W65228  28.160  20.586   4.294
 5726W        W65229  28.103  23.554   1.340
 5727W        W65230  20.162  30.519  11.523
 5728W        W65231  33.986  12.658  10.134
 5729W        W65232  40.865  14.696   3.811
 5730W        W65233  40.893   9.250  14.882
 5731W        W65234  28.586   3.718   2.296
 5732W        W65235   1.809   3.860   2.235
 5733W        W65236  34.064  23.498   1.891
 5734W        W65237  41.858  22.148  14.805
 5735W        W65238  43.854   4.858   0.345
 5736W        W65239   1.938  29.006   4.192
 5737W        W65240  15.692  23.548   4.805
 5738W        W65241  13.320   2.245  13.990
 5739W        W65242   7.359  15.159   3.314
 5740W        W65243   0.981  32.397   1.335
 5741W        W65244  20.750  16.571  14.425
 5742W        W65245  44.828  37.371   0.963
 5743W        W65246  17.097  27.500  12.946
 5744W        W65247  10.252  21.701   4.663
 5745W        W65248  26.085  18.631  12.880
 5746W        W65249  39.324  10.231  13.425
 5747W        W65250  31.929  16.262   1.710
 5748W        W65251  16.654   6.708  10.930
 5749W        W65252  12.763  21.257  12.379
 5750W        W65253  24.553  40.513   3.820
 5751W        W65254   7.834  39.873  10.932
 5752W        W65255  31.136  38.449  10.547
 5753W        W65256  21.593  23.000   0.892
 5754W        W65257  29.130  24.108   1.723
 5755W        W65258  31.964  22.138   0.453
 5756W        W65259  32.501  21.242  11.098
 5757W        W65260  19.766   1.895   1.229
 5758W        W65261  12.801  37.038  12.950
 5759W        W65262   1.256  23.611  13.392
 5760W        W65263  12.818   4.854  10.927
 5761W        W65264   9.800   9.359  13.970
 5762W        W65265  42.338  34.539  14.428
 5763W        W65266   3.342  20.062   1.314
 5764W        W65267  10.728  25.173   5.288
 5765W        W65268  32.119  13.283  12.044
 5766W        W65269  17.217  19.557  14.379
 5767W        W65270  37.058   9.227   3.719
 5768W        W65271   6.345  12.751   2.296
 5769W        W65272  24.705  22.618   3.179
 5770W        W65273  15.716  12.218  12.857
 5771W        W65274  38.049  43.985   0.815
 5772W        W65275  36.866  19.570  13.873
 5773W        W65276  41.936  21.235  12.385
 5774W        W65277  24.091  18.659  14.485
 5775W        W65278  28.512  33.460  12.969
 5776W        W65279  10.663   3.789  14.817
 5777W        W65280   0.450  39.554   3.161
 5778W        W65281  14.329   3.231  13.544
 5779W        W65282  26.036  21.727   2.713
 5780W        W65283  35.891   1.902   3.154
 5781W        W65284  15.632  23.634   2.285
 5782W        W65285  34.073  39.825   0.281
 5783W        W65286  39.902  23.179  13.353
 5784W        W65287  40.893  14.115   3.330
 5785W        W65288  11.723  17.776   0.774
 5786W        W65289   6.277  10.823  13.543
 5787W        W65290  30.494  15.102  14.417
 5788W        W65291   5.413  25.662   1.885
 5789W        W65292  26.531  38.491  10.146
 5790W        W65293  39.882  21.572  14.017
 5791W        W65294  42.485  21.184  12.438
 5792W        W65295   5.764   3.304  12.532
 5793W        W65296  11.242  23.995  11.049
 5794W        W65297  21.744   2.273   3.385
 5795W        W65298  39.004   2.790   1.376
 5796W        W65299  11.331  41.989  12.961
 5797W        W65300  20.235  29.010   3.302
 5798W        W65301  11.852   1.361  13.920
 5799W        W65302  33.911  36.078  11.508
 5800W        W65303  38.341   8.197   3.699
 5801W        W65304   5.348   8.703   2.856
 5802W        W65305   0.409  18.777  10.132
 5803W        W65306   5.247  40.023   4.606
 5804W        W65307  11.362  30.949   0.294
 5805W        W65308   0.906   7.728  14.451
 5806W        W65309  23.652  11.314   0.803
 5807W        W65310  28.142  13.223  10.619
 5808W        W65311  21.647  26.690   0.248
 5809W        W65312  36.375   9.218   1.805
 5810W        W65313  30.484  35.410  11.958
 5811W        W65314  14.183  39.971  14.349
 5812W        W65315  14.287  18.666  13.511
 5813W        W65316   3.311  12.796  11.553
 5814W        W65317  23.198  18.204   4.341
 5815W        W65318   2.738  30.911  14.390
 5816W        W65319  20.028  43.013  10.480
 5817W        W65320  21.514  24.487  12.356
 5818W        W65321  14.197  38.373  13.316
 5819W        W65322   9.162  28.587   2.258
 5820W        W65323  20.706   4.312   1.828
 5821W        W65324  11.185   3.925   3.680
 5822W        W65325  33.381  12.277   3.196
 5823W        W65326  27.069  24.161   2.350
 5824W        W65327  43.984  42.355  11.904
 5825W        W65328  26.703  10.865   4.265
 5826W        W65329  38.830  41.377  12.482
 5827W        W65330  12.221  13.706   4.789
 5828W        W65331  32.551  39.042  14.980
 5829W        W65332  28.972  42.304   3.660
 5830W        W65333  31.948  44.788  14.014
 5831W        W65334  21.520  19.709   1.801
 5832W        W65335   8.274   9.780  10.468
 5833W        W65336  42.776   0.923   4.226
 5834W        W65337  22.117   2.366  11.127
 5835W        W65338  20.619   4.908   4.340
 5836W        W65339   6.398   4.372  14.447
 5837W        W65340  10.751   4.709   0.791
 5838W        W65341  36.850  21.074   4.146
 5839W        W65342  19.600  18.173  12.942
 5840W        W65343   0.884  25.970  13.047
 5841W        W65344  43.438  24.066  13.405
 5842W        W65345  13.640  31.617  13.927
 5843W        W65346   5.251  44.815  11.533
 5844W        W65347  25.510  30.578   5.136
 5845W        W65348  36.083  37.044  12.090
 5846W        W65349  15.752  32.519   3.704
 5847W        W65350   7.735  42.814  10.109
 5848W        W65351  42.783  32.041  10.489
 5849W        W65352  27.506  41.949  10.620
 5850W        W65353  16.574   5.894   1.903
 5851W        W65354  38.370  27.145   1.365
 5852W        W65355  17.221   4.757   4.697
 5853W        W65356  21.589  36.940   2.875
 5854W        W65357  43.874  17.145   4.823
 5855W        W65358   8.792  28.052   2.232
 5856W        W65359  34.028   1.274  12.879
 5857W        W65360  35.458  26.586  13.313
 5858W        W65361  13.815  41.861   4.185
 5859W        W65362  42.836  25.991   3.850
 5860W        W65363  33.509  41.856   0.831
 5861W        W65364  39.824  13.123  13.962
 5862W        W65365   2.788  33.488  13.979
 5863W        W65366  22.201  44.262   1.918
 5864W        W65367  29.162  34.426   0.875
 5865W        W65368   1.943  29.662   1.361
 5866W        W65369   1.324  30.921   1.248
 5867W        W65370   6.728  44.262  12.544
 5868W        W65371   4.314   9.704  10.498
 5869W        W65372  38.013   5.895  14.516
 5870W        W65373   2.901   3.899  14.023
 5871W        W65374  32.003  33.610   3.219
 5872W        W65375  12.275  36.388   3.219
 5873W        W65376  38.556  30.961  12.451
 5874W        W65377   8.217  12.777  13.826
 5875W        W65378  16.129  12.625  10.553
 5876W        W65379   5.729   2.830   1.711
 5877W        W65380  12.690   9.711  13.378
 5878W        W65381   0.893  25.620   3.821
 5879W        W65382   0.764  40.338   3.746
 5880W        W65383  23.065  28.152  14.312
 5881W        W65384   5.425   8.657   1.383
 5882W        W65385  12.686  28.945  13.880
 5883W        W65386   0.372   1.877  11.878
 5884W        W65387  39.385  38.832  10.506
 5885W        W65388  15.240  19.274   0.801
 5886W        W65389   9.742   1.310  10.464
 5887W        W65390  36.592   0.424  10.590
 5888W        W65391  30.497  25.680  10.921
 5889W        W65392  28.609   8.295  12.992
 5890W        W65393  16.243  21.203  12.553
 5891W        W65394  39.961  44.816   0.319
 5892W        W65395   2.444   0.334  12.552
 5893W        W65396  31.102  37.830  13.508
 5894W        W65397  42.878  18.602  10.128
 5895W        W65398  33.461  14.236  12.040
 5896W        W65399   4.803  19.173  14.920
 5897W        W65400  42.290   9.175  10.536
 5898W        W65401  43.512   3.343   4.772
 5899W        W65402  19.651  42.776  11.496
 5900W        W65403  21.170  25.967   1.879
 5901W        W65404  44.370  21.598  13.537
 5902W        W65405  19.122  33.514  10.531
 5903W        W65406  11.683   6.680  14.314
 5904W        W65407  28.136  41.386  12.367
 5905W        W65408  10.740   6.248   3.304
 5906W        W65409  13.624   4.301   0.271
 5907W        W65410   6.382  25.713   3.780
 5908W        W65411  26.136   0.489   2.229
 5909W        W65412  18.554  25.671  11.612
 5910W        W65413   4.898  42.360  12.985
 5911W        W65414  21.216  38.462   0.816
 5912W        W65415   1.878   7.242   2.314
 5913W        W65416  25.662   5.759   2.665
 5914W        W65417  24.602  25.675   1.797
 5915W        W65418   6.768  32.927  12.562
 5916W        W65419  10.299  12.312   2.365
 5917W        W65420  13.126  26.966  13.020
 5918W        W65421  11.323  32.038  12.566
 5919W        W65422   3.232  30.451   1.413
 5920W        W65423  18.631  39.052  12.073
 5921W        W65424  10.203  35.018   3.268
 5922W        W65425  29.568  25.675  14.771
 5923W        W65426  18.108  10.840  14.515
 5924W        W65427   1.737   5.406   3.796
 5925W        W65428  17.643  19.041   3.661
 5926W        W65429  22.252  29.077   4.788
 5927W        W65430   4.702  34.441   2.696
 5928W        W65431  27.589   6.347  12.486
 5929W        W65432  29.052  14.336   4.790
 5930W        W65433  26.018  15.180  14.803
 5931W        W65434  23.606  36.849   4.285
 5932W        W65435  40.023  25.094   2.366
 5933W        W65436  18.209  34.952  10.987
 5934W        W65437  20.653   0.335   3.857
 5935W        W65438  13.120  24.137  10.935
 5936W        W65439  12.146  12.845   0.246
 5937W        W65440  30.912  40.841  13.865
 5938W        W65441  24.595  23.727   3.350
 5939W        W65442  16.777  32.464   4.710
 5940W        W65443  44.334   9.803  10.076
 5941W        W65444  24.611   2.454  14.283
 5942W        W65445   2.833  22.720   0.423
 5943W        W65446  21.721  29.633   2.788
 5944W        W65447  41.338  14.148  13.023
 5945W        W65448   6.417  27.506  13.528
 5946W        W65449  13.810  11.739  12.495
 5947W        W65450   0.435  16.173   2.255
 5948W        W65451  42.371   1.340  13.388
 5949W        W65452  22.549  36.005  10.941
 5950W        W65453  20.169  10.229   1.313
 5951W        W65454   7.728  29.563   1.400
 5952W        W65455   4.407  18.127  14.901
 5953W        W65456  34.422  10.278  12.421
 5954W        W65457  35.482  35.015  10.893
 5955W        W65458  35.892  14.767   3.637
 5956W        W65459  31.091  27.493  13.487
 5957W        W65460  26.674  24.615   1.917
 5958W        W65461  16.169  22.071   0.418
 5959W        W65462  33.128  41.533   2.681
 5960W        W65463  30.582   9.755   3.730
 5961W        W65464  21.081  16.310  12.561
 5962W        W65465  18.555  37.841  10.956
 5963W        W65466  21.604  41.404   4.298
 5964W        W65467  11.329  39.829   3.235
 5965W        W65468  13.159  31.402  14.977
 5966W        W65469  42.358  38.977  10.559
 5967W        W65470  21.041  30.157  14.397
 5968W        W65471  13.287  30.465   3.176
 5969W        W65472  22.125   1.905   3.197
 5970W        W65473  11.357  18.228   1.253
 5971W        W65474  43.959  24.717   0.385
 5972W        W65475  18.767  41.883   0.310
 5973W        W65476  20.665   0.308  14.819
 5974W        W65477  44.400  13.698  11.003
 5975W        W65478  26.043  36.419  11.497
 5976W        W65479  27.641   9.277   4.283
 5977W        W65480  16.131  10.253   1.694
 5978W        W65481   4.846  17.794   4.745
 5979W        W65482  17.228  41.360  12.003
 5980W        W65483  39.062   4.858  10.977
 5981W        W65484  38.398  44.758  13.849
 5982W        W65485  30.042  32.076   4.215
 5983W        W65486  19.765  34.978  10.991
 5984W        W65487  38.420  29.478   4.275
 5985W        W65488   1.971  30.006  12.430
 5986W        W65489   9.362  21.222   2.224
 5987W        W65490  27.637  11.258   2.315
 5988W        W65491  40.519  12.308  12.922
 5989W        W65492   5.707  28.960  14.850
 5990W        W65493  29.576  14.094   4.346
 5991W        W65494  38.545  43.292   1.335
 5992W        W65495  42.388   3.907   2.679
 5993W        W65496  17.261   1.429   0.261
 5994W        W65497  38.563   8.207   2.664
 5995W        W65498  40.003  27.145   3.305
 5996W        W65499  14.590   6.749  14.017
 5997W        W65500  28.987  16.575   1.799
 5998W        W65501  39.046  32.456   1.330
 5999W        W65502  14.731   6.848   2.845
 6000W        W65503  18.706  19.053   0.882
 6001W        W65504  20.128  15.728  12.080
 6002W        W65505  10.307   6.832  12.477
 6003W        W65506  18.693  35.907  11.493
 6004W        W65507  25.472   6.212   0.751
 6005W        W65508  44.443  32.441   1.849
 6006W        W65509  32.568  20.228  12.921
 6007W        W65510  22.058  41.972  10.980
 6008W        W65511   1.254   6.810   4.776
 6009W        W65512  18.141  24.104   3.197
 6010W        W65513   1.942  14.819   3.650
 6011W        W65514  42.812  38.550  12.008
 6012W        W65515  39.381  15.586   4.744
 6013W        W65516  24.079  28.940   4.774
 6014W        W65517  35.532   2.236   1.724
 6015W        W65518   5.201  18.082  10.997
 6016W        W65519  43.357  26.048   1.426
 6017W        W65520  31.630   5.338   4.316
 6018W        W65521  37.975  39.416  11.419
 6019W        W65522  21.658  31.015   3.729
 6020W        W65523  10.179  23.618   5.257
 6021W        W65524   4.881  25.101  10.503
 6022W        W65525  15.188  40.023   1.736
 6023W        W65526  21.142  34.880   4.261
 6024W        W65527  27.539  39.862   3.196
 6025W        W65528  28.182   8.372   4.827
 6026W        W65529  33.530  28.938   3.319
 6027W        W65530   6.311  11.763  14.395
 6028W        W65531   1.762  39.909   0.346
 6029W        W65532  40.944  34.961   1.422
 6030W        W65533  29.063  36.046  12.918
 6031W        W65534  20.662  24.548  12.029
 6032W        W65535  14.735  26.118   0.808
 6033W        W65536  31.557   5.923   1.908
 6034W        W65537  29.032  31.073   3.810
 6035W        W65538  40.929   3.225   4.128
 6036W        W65539  31.054  34.035   0.300
 6037W        W65540   2.308   7.775  12.447
 6038W        W65541  32.596  32.984   4.294
 6039W        W65542   9.852   4.869  13.872
 6040W        W65543  33.601  34.391   2.284
 6041W        W65544  39.491  32.059   2.234
 6042W        W65545   0.782  40.385   2.771
 6043W        W65546  23.001  40.543  13.019
 6044W        W65547   2.774  23.984   1.840
 6045W        W65548  43.000  38.900   1.731
 6046W        W65549  38.928  32.912   0.955
 6047W        W65550  19.558   8.285  14.489
 6048W        W65551   4.306   6.744  10.976
 6049W        W65552  17.796  29.551   0.271
 6050W        W65553  17.666  33.513   4.189
 6051W        W65554  34.609   1.264   0.264
 6052W        W65555   1.307  16.283   3.185
 6053W        W65556  14.215  14.763   0.829
 6054W        W65557   2.353  18.204  11.466
 6055W        W65558  36.961  28.657  10.986
 6056W        W65559  18.087  25.606   1.854
 6057W        W65560  39.960   4.440   1.792
 6058W        W65561  22.120  12.144  14.283
 6059W        W65562   2.867   0.833   4.710
 6060W        W65563  11.186  15.661  11.396
 6061W        W65564  33.615   4.216  12.417
 6062W        W65565   3.255  39.063   2.699
 6063W        W65566  13.120  32.125   2.187
 6064W        W65567  24.586  31.145   4.659
 6065W        W65568  40.003  21.686   0.396
 6066W        W65569  44.878  23.201  12.434
 6067W        W65570   5.901   8.812  13.429
 6068W        W65571  24.992  13.210  13.511
 6069W        W65572  37.495  11.176  14.403
 6070W        W65573  43.491  27.117  11.420
 6071W        W65574  31.495  44.990   2.758
 6072W        W65575   5.933  31.059  12.989
 6073W        W65576  43.989  26.511   5.223
 6074W        W65577  25.097   9.883  12.940
 6075W        W65578  44.310  12.799  13.994
 6076W        W65579  13.164  20.681  11.588
 6077W        W65580   4.818  18.775  13.464
 6078W        W65581  28.078   1.344   0.741
 6079W        W65582  44.858  23.033   1.379
 6080W        W65583  44.312  19.624   0.395
 6081W        W65584   2.843  11.845  13.443
 6082W        W65585   1.962  10.641  14.415
 6083W        W65586   0.388  23.541   1.728
 6084W        W65587  12.186   0.293  12.530
 6085W        W65588  26.011  13.667   0.830
 6086W        W65589  27.457   8.688  13.976
 6087W        W65590  39.831   3.899  12.565
 6088W        W65591  43.843  39.835   0.420
 6089W        W65592  32.608   6.355  10.026
 6090W        W65593  17.225  31.108   1.908
 6091W        W65594   8.367  33.456   3.297
 6092W        W65595  16.300  16.116   2.399
 6093W        W65596  41.519  26.653  10.622
 6094W        W65597  36.026  29.998   2.682
 6095W        W65598  26.181  32.568   4.724
 6096W        W65599  10.768   9.356  13.510
 6097W        W65600  12.728  42.885  12.415
 6098W        W65601   9.332  26.514   4.164
 6099W        W65602  31.454  34.594   0.876
 6100W        W65603   6.247  44.785  14.988
 6101W        W65604   6.313   2.353  12.373
 6102W        W65605  10.263  27.447   1.278
 6103W        W65606  40.304  19.662  12.463
 6104W        W65607  41.957  19.074   1.268
 6105W        W65608  19.268  25.210  11.548
 6106W        W65609  30.591  29.932  10.133
 6107W        W65610  19.604   3.747   1.372
 6108W        W65611  18.186  40.390   0.747
 6109W        W65612  35.077  22.542  13.476
 6110W        W65613  44.495  44.915  11.408
 6111W        W65614   7.754  34.519   0.483
 6112W        W65615  17.294  11.850  14.846
 6113W        W65616  18.644   3.737   0.911
 6114W        W65617  42.977   2.320   0.920
 6115W        W65618   4.258  22.225  12.910
 6116W        W65619  38.930  33.606  14.353
 6117W        W65620  14.178   2.443   5.210
 6118W        W65621   7.334  37.366   2.734
 6119W        W65622  21.203  40.905   4.676
 6120W        W65623  17.271  23.533   3.856
 6121W        W65624  33.496  31.402  12.469
 6122W        W65625  26.591  33.013  11.506
 6123W        W65626  23.049  12.856   2.871
 6124W        W65627  19.645  39.896  12.992
 6125W        W65628  21.536  20.049   0.772
 6126W        W65629  12.755   2.941   2.184
 6127W        W65630  27.120  27.643   2.234
 6128W        W65631   7.757  37.429   3.679
 6129W        W65632  20.692  19.778   1.707
 6130W        W65633   1.920  36.449  11.504
 6131W        W65634   7.737  19.094  12.365
 6132W        W65635  35.865  34.882   5.230
 6133W        W65636  36.382  20.567  14.835
 6134W        W65637  19.649  11.824  12.920
 6135W        W65638  34.084  13.658  11.106
 6136W        W65639  44.314  11.298   1.416
 6137W        W65640  14.095   5.263  11.923
 6138W        W65641  17.745  33.907   4.658
 6139W        W65642  42.809  31.609   1.792
 6140W        W65643  18.674  31.032   1.264
 6141W        W65644   3.955  13.328   0.270
 6142W        W65645   1.268  23.107   2.681
 6143W        W65646   3.830  23.048   3.243
 6144W        W65647  37.497  28.078  12.463
 6145W        W65648  41.029  23.043   3.230
 6146W        W65649   4.379   7.843  14.502
 6147W        W65650  23.198   5.722  10.974
 6148W        W65651  14.196  41.538  12.942
 6149W        W65652   0.812   6.406   2.284
 6150W        W65653  13.289  14.739   4.252
 6151W        W65654  41.522  41.859   1.310
 6152W        W65655  18.210  14.319  12.073
 6153W        W65656  29.668  28.065   2.306
 6154W        W65657  29.509  14.229  13.377
 6155W        W65658  16.785  35.909   4.636
 6156W        W65659   0.307   6.279  13.950
 6157W        W65660  42.413  16.735  14.348
 6158W        W65661  10.702  42.844  14.386
 6159W        W65662  23.600  20.265   1.223
 6160W        W65663  41.021  19.045  11.440
 6161W        W65664   0.354  10.335  12.414
 6162W        W65665   5.827  32.918  13.042
 6163W        W65666  22.715  17.684  11.446
 6164W        W65667  23.706  25.027   0.464
 6165W        W65668  28.626  17.274   1.766
 6166W        W65669  40.826  25.695  13.955
 6167W        W65670  38.897  19.588  14.356
 6168W        W65671  41.796  41.878  13.920
 6169W        W65672   4.217   5.290   1.316
 6170W        W65673  28.096  42.009   2.361
 6171W        W65674  16.189  17.291   0.904
 6172W        W65675  30.007  24.623   5.172
 6173W        W65676  13.772  32.599  12.345
 6174W        W65677  24.150   4.268  10.503
 6175W        W65678  44.339  18.179  11.572
 6176W        W65679  35.874  44.960  12.380
 6177W        W65680  11.720  29.013  10.505
 6178W        W65681  14.118  25.073   4.296
 6179W        W65682  30.106  17.235  12.371
 6180W        W65683   1.780   8.688  10.493
 6181W        W65684   4.737  32.569  14.373
 6182W        W65685  38.515  35.886  13.418
 6183W        W65686  41.996  42.312  14.824
 6184W        W65687  25.598  35.472   2.774
 6185W        W65688  29.923  37.844  14.498
 6186W        W65689  11.704  36.009  14.840
 6187W        W65690   6.427  16.215   3.227
 6188W        W65691  15.625  37.053  13.417
 6189W        W65692  31.405  29.967   2.289
 6190W        W65693  13.679  35.021  13.967
 6191W        W65694  24.647  35.452  14.332
 6192W        W65695  34.032  38.536  14.903
 6193W        W65696   3.796  36.917  11.379
 6194W        W65697  22.741  39.477   3.264
 6195W        W65698  36.913  39.837   1.322
 6196W        W65699   2.840  25.985  10.048
 6197W        W65700  40.343  36.892   0.427
 6198W        W65701  39.480  42.817  12.084
 6199W        W65702  39.370   4.761   4.290
 6200W        W65703  27.486   2.938  14.030
 6201W        W65704  21.574   5.333  14.470
 6202W        W65705  25.478  34.490   1.403
 6203W        W65706  17.199  32.552  11.444
 6204W        W65707  17.756  44.979  10.973
 6205W        W65708  32.951  33.895  10.590
 6206W        W65709  22.649  22.543   4.598
 6207W        W65710   5.344  29.993   1.299
 6208W        W65711  38.426  32.027   0.822
 6209W        W65712  15.126   1.875  12.378
 6210W        W65713  34.519  11.289   3.639
 6211W        W65714  20.208  28.951  12.930
 6212W        W65715  13.772  22.508   1.719
 6213W        W65716  24.982  32.004   4.817
 6214W        W65717  34.090  38.914  10.455
 6215W        W65718   2.410  27.546   1.356
 6216W        W65719   3.765   9.292  13.418
 6217W        W65720   5.307  13.284  14.979
 6218W        W65721  15.794   0.806  13.034
 6219W        W65722  29.128  17.628  12.064
 6220W        W65723  12.299  14.186   9.920
 6221W        W65724   6.900   4.795  14.285
 6222W        W65725  19.053   6.230   2.380
 6223W        W65726  27.091   4.291   4.637
 6224W        W65727  15.654  37.569  14.001
 6225W        W65728  10.310  29.666   5.204
 6226W        W65729  29.432  13.668  13.014
 6227W        W65730  32.469  15.675  12.062
 6228W        W65731  34.923   8.264  12.541
 6229W        W65732  22.562  36.903   0.443
 6230W        W65733  23.727  23.620  11.883
 6231W        W65734  22.049  27.639   3.697
 6232W        W65735   8.280  33.467   2.871
 6233W        W65736  30.561  38.984  13.312
 6234W        W65737  24.987  41.940  12.557
 6235W        W65738   6.683   7.905  11.003
 6236W        W65739  20.223   4.313   3.846
 6237W        W65740   4.801  37.016   1.739
 6238W        W65741  18.161  21.073  12.474
 6239W        W65742  22.559  42.456   3.816
 6240W        W65743  12.300   1.943   3.728
 6241W        W65744  28.036  33.436  12.531
 6242W        W65745  32.936  14.654   2.833
 6243W        W65746   8.296   1.948   3.832
 6244W        W65747   9.281  21.029   0.371
 6245W        W65748  30.106  10.349   3.797
 6246W        W65749  36.023   9.758  12.008
 6247W        W65750  36.526  11.734   3.773
 6248W        W65751   9.381   9.815   3.744
 6249W        W65752  37.907  26.641   1.898
 6250W        W65753  21.692   8.274  10.624
 6251W        W65754  38.366  20.207   3.338
 6252W        W65755   0.368  13.111   2.218
 6253W        W65756   8.342  11.791   4.671
 6254W        W65757  38.874  17.251   2.808
 6255W        W65758  35.901  37.490  12.523
 6256W        W65759  10.679   9.767   2.277
 6257W        W65760   0.778  21.126   4.665
 6258W        W65761  40.861  35.403   0.826
 6259W        W65762  44.321  21.150   3.357
 6260W        W65763  31.040  39.883   0.792
 6261W        W65764  19.109   0.951  12.880
 6262W        W65765  43.908   9.757   2.192
 6263W        W65766  44.881  16.149   2.836
 6264W        W65767  33.548  40.537   2.338
 6265W        W65768  26.121  44.316  10.502
 6266W        W65769   6.296   2.738   1.827
 6267W        W65770  40.371  38.011  13.795
 6268W        W65771  16.207  12.238  11.035
 6269W        W65772  23.614   3.415   1.437
 6270W        W65773   2.354  29.930   2.821
 6271W        W65774  10.322  17.727   2.277
 6272W        W65775  11.666  39.001   4.159
 6273W        W65776  40.473  22.515   4.620
 6274W        W65777   5.240   6.688  12.974
 6275W        W65778  28.523  24.508  10.021
 6276W        W65779  24.157  23.098  11.497
 6277W        W65780  17.156  28.677  13.548
 6278W        W65781  22.551  10.827   1.305
 6279W        W65782  27.183  27.963  11.126
 6280W        W65783  43.854  33.905   3.712
 6281W        W65784  26.992  42.008  13.444
 6282W        W65785  17.621  29.518   2.185
 6283W        W65786   7.702  16.081   0.431
 6284W        W65787  20.673  44.845  10.967
 6285W        W65788  10.377   7.327  11.481
 6286W        W65789  24.208  10.230  11.506
 6287W        W65790  36.054  40.356  11.918
 6288W        W65791  21.681  36.970   1.230
 6289W        W65792   7.797   9.238  13.829
 6290W        W65793   5.298  19.759   0.943
 6291W        W65794  14.268  26.611   2.752
 6292W        W65795  13.188  26.960  14.476
 6293W        W65796  24.074  37.070  11.470
 6294W        W65797  31.908   7.780   2.356
 6295W        W65798  40.476  15.104  13.383
 6296W        W65799  27.582  12.651  11.590
 6297W        W65800   7.857  19.266  10.444
 6298W        W65801  36.988  33.440  12.939
 6299W        W65802  34.373  38.920  11.455
 6300W        W65803  34.935  32.580  14.419
 6301W        W65804  29.056  34.394   2.320
 6302W        W65805  22.063  13.190   1.210
 6303W        W65806  25.609  12.622  13.864
 6304W        W65807  37.551  21.041   4.187
 6305W        W65808   6.768   6.806  12.360
 6306W        W65809  38.493  40.830   4.219
 6307W        W65810  21.189  14.766  11.506
 6308W        W65811  37.076  19.537   1.861
 6309W        W65812  25.194  40.471   4.716
 6310W        W65813   8.355  13.638  11.038
 6311W        W65814  35.502  13.134  11.514
 6312W        W65815   5.750   6.740   0.426
 6313W        W65816  21.102  36.019  13.536
 6314W        W65817  16.752   3.853   4.248
 6315W        W65818   3.918  19.617   5.159
 6316W        W65819   7.335  41.859  12.890
 6317W        W65820  42.860  44.320   2.316
 6318W        W65821   5.321  28.571  13.885
 6319W        W65822  10.731  25.985  11.386
 6320W        W65823  43.920  29.621   1.725
 6321W        W65824  40.440  33.462   0.735
 6322W        W65825  34.120  14.634   3.753
 6323W        W65826   2.762   3.781   1.711
 6324W        W65827  40.330  41.983  12.402
 6325W        W65828   3.398   6.194  10.485
 6326W        W65829  40.476  39.940  11.014
 6327W        W65830   9.684   2.285   2.757
 6328W        W65831  44.754  36.525  13.049
 6329W        W65832  20.187  22.999   1.382
 6330W        W65833  44.403  19.675   3.211
 6331W        W65834  19.714   1.330   1.340
 6332W        W65835   9.325  43.005  13.548
 6333W        W65836  30.440   3.369   4.696
 6334W        W65837  40.865   7.346   0.343
 6335W        W65838  14.649  37.493   1.367
 6336W        W65839  10.735  36.857  13.027
 6337W        W65840  34.038  37.527  12.843
 6338W        W65841   1.415  38.839   4.829
 6339W        W65842  19.256   0.795   2.779
 6340W        W65843  10.709   4.756  11.865
 6341W        W65844  24.616  39.885   1.275
 6342W        W65845  43.342   6.321  10.411
 6343W        W65846   4.753  17.261  10.471
 6344W        W65847  14.149  25.004   0.321
 6345W        W65848  43.335  42.030  13.522
 6346W        W65849  17.169  35.930  10.534
 6347W        W65850   0.797  15.589   4.303
 6348W        W65851  41.854  39.900  12.004
 6349W        W65852  24.007  39.443   2.203
 6350W        W65853  13.269   0.347   1.395
 6351W        W65854  13.109  40.378   4.604
 6352W        W65855  25.017   4.926  14.960
 6353W        W65856  22.220  12.689  14.973
 6354W        W65857  31.539  30.974  10.539
 6355W        W65858  39.841  28.574   0.391
 6356W        W65859  25.069  16.632  11.490
 6357W        W65860  20.071  28.144   3.265
 6358W        W65861  10.356  38.557   2.359
 6359W        W65862   3.386  10.816  10.559
 6360W        W65863  38.944  44.390   4.114
 6361W        W65864  21.214  28.178   3.774
 6362W        W65865  19.224  13.836   0.464
 6363W        W65866  23.022  37.522   1.880
 6364W        W65867  40.549  18.745   1.717
 6365W        W65868  42.518  28.444   0.276
 6366W        W65869  18.165   6.295  13.321
 6367W        W65870  21.645  44.930   0.846
 6368W        W65871  12.352  20.759   3.838
 6369W        W65872  41.966  33.444   2.869
 6370W        W65873  30.003  13.760  13.413
 6371W        W65874  25.206  37.889  11.873
 6372W        W65875  33.087  15.250   2.722
 6373W        W65876  23.598  12.360   2.401
 6374W        W65877   9.654  42.520   1.452
 6375W        W65878  42.012   2.383  12.938
 6376W        W65879  10.737  42.870  12.089
 6377W        W65880  30.940   2.755   1.309
 6378W        W65881   0.348  22.154  14.338
 6379W        W65882  26.489   9.859  14.872
 6380W        W65883   4.806  20.622   2.782
 6381W        W65884  38.552   9.879   3.746
 6382W        W65885   8.247   8.677  12.944
 6383W        W65886  15.119  44.403  13.420
 6384W        W65887  16.794  11.261  14.975
 6385W        W65888  33.020  42.832  11.538
 6386W        W65889  39.044  23.698  13.900
 6387W        W65890   3.882  31.928   1.223
 6388W        W65891   5.903  28.452   0.794
 6389W        W65892   9.833  22.740  10.978
 6390W        W65893  28.544  14.116  14.321
 6391W        W65894  16.284  14.254  12.908
 6392W        W65895  19.709  28.006  11.859
 6393W        W65896  40.303  27.561  11.932
 6394W        W65897  31.440  27.154   1.746
 6395W        W65898   8.873  31.955  14.821
 6396W        W65899  18.613   1.762  14.393
 6397W        W65900  14.710  14.760  14.011
 6398W        W65901  32.446  38.406  13.433
 6399W        W65902   8.856  13.215   1.836
 6400W        W65903  34.581  31.062  13.037
 6401W        W65904   8.401   3.407  14.923
 6402W        W65905  13.197  16.702   4.704
 6403W        W65906  19.697  17.171   2.204
 6404W        W65907  31.463  13.724   1.892
 6405W        W65908  41.019  38.972  14.870
 6406W        W65909  21.605  44.946   3.249
 6407W        W65910  31.030   6.857  12.438
 6408W        W65911  30.122  41.854   1.360
 6409W        W65912  42.387  42.519  13.900
 6410W        W65913  43.827   9.830  13.533
 6411W        W65914  24.572  26.170   0.420
 6412W        W65915  36.943  11.144   0.467
 6413W        W65916   7.274  10.175  12.385
 6414W        W65917  14.118  14.300   4.293
 6415W        W65918  13.644  23.006   1.236
 6416W        W65919   8.387   8.340   0.924
 6417W        W65920  41.791  43.014  13.408
 6418W        W65921   9.197  39.838  14.944
 6419W        W65922  43.488   9.872   0.841
 6420W        W65923  27.973  32.062  11.392
 6421W        W65924  38.359  17.128   2.291
 6422W        W65925  21.591  27.685   4.280
 6423W        W65926  10.267   3.264   0.769
 6424W        W65927   8.676  17.563  11.514
 6425W        W65928  13.653   9.806   3.697
 6426W        W65929  29.490  33.480   2.182
 6427W        W65930  24.212  33.007   1.388
 6428W        W65931   0.763  13.171   1.354
 6429W        W65932  24.984  18.138  11.424
 6430W        W65933   5.434  18.108   4.240
 6431W        W65934  34.481  44.922  11.559
 6432W        W65935  31.431  41.923  11.874
 6433W        W65936   6.753   9.710   2.394
 6434W        W65937  32.565   5.336  13.834
 6435W        W65938  38.947   5.295  14.956
 6436W        W65939  24.106  20.583   0.846
 6437W        W65940  25.676  30.514  11.041
 6438W        W65941   3.348  22.070   2.256
 6439W        W65942  27.998  20.611   1.252
 6440W        W65943  10.197  41.939  13.051
 6441W        W65944  27.449  38.912   2.235
 6442W        W65945  16.175  11.631  10.961
 6443W        W65946  10.843   1.315   1.398
 6444W        W65947   5.400   8.230  12.355
 6445W        W65948  39.060   7.742  12.375
 6446W        W65949   6.387  44.305  10.121
 6447W        W65950   9.691  26.688  13.961
 6448W        W65951  31.959  32.558   4.732
 6449W        W65952  23.196  23.118   3.725
 6450W        W65953  42.001   0.818  14.862
 6451W        W65954  25.021  24.723   1.719
 6452W        W65955  37.400   2.392   0.737
 6453W        W65956   6.805  25.181  10.909
 6454W        W65957  44.289  41.848  10.933
 6455W        W65958  42.501  41.473  12.959
 6456W        W65959  18.751  29.526   3.216
 6457W        W65960  19.223  18.262   0.414
 6458W        W65961  12.296  35.989   0.415
 6459W        W65962  23.556  28.481   4.170
 6460W        W65963  35.515  11.211   3.146
 6461W        W65964   8.691  11.699  11.518
 6462W        W65965  28.611  26.618   5.218
 6463W        W65966   1.954   0.370  12.572
 6464W        W65967   2.326  31.043   5.133
 6465W        W65968  36.368  37.037  10.488
 6466W        W65969  43.845  31.150   1.277
 6467W        W65970  19.624  29.133   0.956
 6468W        W65971   4.761  29.172  10.978
 6469W        W65972  34.429  34.612  13.883
 6470W        W65973  32.510  22.579   0.761
 6471W        W65974  22.613  10.375  13.400
 6472W        W65975  34.409  27.508   4.715
 6473W        W65976  44.340  34.010  14.381
 6474W        W65977  33.452  22.697   0.900
 6475W        W65978  38.900  11.327  11.921
 6476W        W65979   6.840  39.943  11.940
 6477W        W65980  28.512  38.830  10.635
 6478W        W65981  14.755  21.072  11.910
 6479W        W65982   0.424  19.779  12.061
 6480W        W65983   5.333  41.326   1.372
 6481W        W65984   7.800  23.100  14.963
 6482W        W65985  14.126  15.247  12.967
 6483W        W65986  10.384  23.985   4.178
 6484W        W65987  28.520  32.945   2.304
 6485W        W65988  19.708  39.355   3.346
 6486W        W65989  18.605   3.736   0.278
 6487W        W65990  22.673  34.910  10.572
 6488W        W65991   5.727  29.491   3.671
 6489W        W65992  43.407  19.040  14.967
 6490W        W65993   7.791   6.192   0.853
 6491W        W65994  31.019  42.498   1.714
 6492W        W65995   6.399  30.559  14.808
 6493W        W65996   1.296  20.600   0.846
 6494W        W65997  39.550   2.351   4.336
 6495W        W65998  10.337  15.139   2.670
 6496W        W65999  27.455  12.762   0.893
 6497W        W66000  23.223  17.798   4.717
 6498W        W66001  28.529  14.202  14.876
 6499W        W66002  41.529   2.318  14.327
 6500W        W66003  35.527  36.421  11.471
 6501W        W66004  15.308  27.150  12.963
 6502W        W66005  28.050  21.542  14.477
 6503W        W66006  40.039  17.077   2.375
 6504W        W66007   4.367  20.139   1.318
 6505W        W66008  26.114   9.184  11.086
 6506W        W66009  33.030   4.766   1.305
 6507W        W66010   2.455  29.014   3.271
 6508W        W66011  35.927  28.506   4.324
 6509W        W66012  25.518  24.602   4.188
 6510W        W66013  32.050  20.030   4.252
 6511W        W66014  17.700   7.878   2.350
 6512W        W66015  26.612  42.323   3.306
 6513W        W66016  23.599   5.752  11.912
 6514W        W66017   2.460  14.662  13.337
 6515W        W66018   1.307  28.515   2.718
 6516W        W66019  18.143  29.041   0.949
 6517W        W66020   9.371  16.630   1.379
 6518W        W66021  14.665  38.498   0.839
 6519W        W66022  22.743   5.369  10.636
 6520W        W66023  17.797  40.319   0.817
 6521W        W66024   1.813  12.855  10.907
 6522W        W66025  20.605  36.495  14.425
 6523W        W66026  28.641   7.374  10.528
 6524W        W66027  22.072   5.807  10.447
 6525W        W66028  10.144  16.229   1.366
 6526W        W66029  32.992  25.634  10.980
 6527W        W66030  28.106  11.197  14.490
 6528W        W66031  21.603  31.929  10.419
 6529W        W66032  38.040  19.767   4.752
 6530W        W66033   9.302  21.071   0.795
 6531W        W66034  29.488  20.060  12.929
 6532W        W66035  25.142  11.788   1.745
 6533W        W66036  31.526  32.542  10.454
 6534W        W66037   5.202  16.575  13.400
 6535W        W66038  24.142  27.590  12.034
 6536W        W66039  39.323  30.587   3.838
 6537W        W66040  24.720  39.027   3.728
 6538W        W66041  22.747   6.219   4.619
 6539W        W66042  12.822  10.246  12.455
 6540W        W66043  24.115   3.849  13.816
 6541W        W66044  25.518  16.666   1.300
 6542W        W66045  37.943  37.390  10.079
 6543W        W66046   5.212  37.949  12.898
 6544W        W66047   1.837   0.354   3.269
 6545W        W66048   2.948  40.918   1.247
 6546W        W66049  15.173  21.515  12.951
 6547W        W66050  10.344  14.230  12.055
 6548W        W66051  32.036  18.074  14.450
 6549W        W66052  30.946  21.246  14.379
 6550W        W66053   2.912  13.219  11.867
 6551W        W66054  13.130  25.186   2.711
 6552W        W66055   8.224  23.705  14.811
 6553W        W66056  29.951  12.173  14.032
 6554W        W66057   5.204  38.402  13.812
 6555W        W66058  37.430  27.058  14.455
 6556W        W66059  33.951  17.789  13.546
 6557W        W66060  44.439  38.015  13.823
 6558W        W66061   3.805   1.852   9.522
 6559W        W66062  37.384  36.357  11.396
 6560W        W66063  26.056  40.519   3.332
 6561W        W66064  32.058  38.447  12.407
 6562W        W66065  31.977  18.212  10.569
 6563W        W66066  43.001  25.531  14.364
 6564W        W66067  15.129  17.757  13.442
 6565W        W66068  44.273   1.391  11.945
 6566W        W66069  25.576  17.661   2.793
 6567W        W66070  20.542   9.172   4.803
 6568W        W66071  20.123  20.615   4.322
 6569W        W66072  20.186   1.943  11.516
 6570W        W66073  26.626  37.390  13.414
 6571W        W66074  14.294  27.548   0.959
 6572W        W66075  15.631  23.512   4.200
 6573W        W66076  30.964   4.872  12.363
 6574W        W66077  16.808  44.346   4.210
 6575W        W66078  39.515   6.770   2.212
 6576W        W66079  28.969  19.692   2.879
 6577W        W66080  38.903  35.985   3.282
 6578W        W66081  11.291  34.448  14.888
 6579W        W66082  12.793  16.709  11.966
 6580W        W66083  17.768   3.851  13.945
 6581W        W66084  44.869  18.612   2.210
 6582W        W66085  36.000  40.029   4.641
 6583W        W66086  35.086  31.633  12.389
 6584W        W66087   4.779   2.264  13.053
 6585W        W66088  13.649  30.158  10.489
 6586W        W66089   7.727  16.096  14.431
 6587W        W66090  12.815  26.565   3.757
 6588W        W66091   1.461  38.018  13.838
 6589W        W66092  16.753  39.516  14.321
 6590W        W66093  38.991  30.452   4.253
 6591W        W66094   1.457  32.464   2.197
 6592W        W66095   8.868  10.379  14.012
 6593W        W66096  33.094   2.837  12.373
 6594W        W66097   4.855  19.168  12.521
 6595W        W66098  17.776  38.018  14.365
 6596W        W66099  23.537  14.758   3.824
 6597W        W66100  11.654  13.247  13.002
 6598W        W66101   1.345   2.887  11.550
 6599W        W66102   0.313  26.540   2.416
 6600W        W66103  14.132  27.178  12.417
 6601W        W66104  37.458  38.422   3.375
 6602W        W66105  22.644  14.336   3.332
 6603W        W66106  33.541  38.459   0.405
 6604W        W66107  22.668   7.297   2.725
 6605W        W66108  32.129   6.696   3.302
 6606W        W66109  18.663   7.880  11.477
 6607W        W66110  40.392   2.239   0.471
 6608W        W66111  29.159   0.971   3.809
 6609W        W66112   7.205  25.967   0.416
 6610W        W66113  17.631  31.930   4.709
 6611W        W66114  18.133  23.728  14.322
 6612W        W66115  16.250  25.469  13.838
 6613W        W66116  13.266  13.304   3.290
 6614W        W66117  12.847  35.497   4.190
 6615W        W66118  41.457  17.219  12.912
 6616W        W66119  28.964  17.560  14.900
 6617W        W66120  43.495  40.863  13.843
 6618W        W66121  17.265  11.670  12.571
 6619W        W66122  24.559  27.055   2.369
 6620W        W66123  20.263  15.238   0.935
 6621W        W66124  35.981   8.349   4.660
 6622W        W66125  10.644  41.292  12.383
 6623W        W66126  25.109  36.081   0.747
 6624W        W66127  39.012  10.725   0.464
 6625W        W66128  16.287  36.849   4.130
 6626W        W66129  34.092   5.853  11.116
 6627W        W66130   4.701  34.594  12.395
 6628W        W66131  42.442  14.707  14.788
 6629W        W66132  20.589  33.065  14.834
 6630W        W66133  22.623  28.443  13.400
 6631W        W66134  41.830  33.063   0.419
 6632W        W66135  42.815   8.826  11.987
 6633W        W66136   1.457  44.767  13.536
 6634W        W66137  31.969   6.796   3.788
 6635W        W66138  14.188  36.956   3.661
 6636W        W66139  14.616  19.593  13.499
 6637W        W66140  40.417  43.433   1.805
 6638W        W66141  27.616   9.337   3.305
 6639W        W66142  40.451  12.348   2.787
 6640W        W66143  14.336   1.800  10.631
 6641W        W66144  37.415  28.124  11.409
 6642W        W66145   6.397   4.272  14.803
 6643W        W66146   0.948  28.956  14.281
 6644W        W66147  23.706  28.530   3.251
 6645W        W66148  35.464  31.074   0.783
 6646W        W66149  34.583  38.457   1.699
 6647W        W66150   0.745  14.295  14.023
 6648W        W66151  30.140   9.345   1.372
 6649W        W66152  10.239  11.213   2.666
 6650W        W66153  21.200   8.767   2.216
 6651W        W66154  34.422  21.698   3.711
 6652W        W66155  20.127   9.829  12.001
 6653W        W66156  36.853   8.765  11.966
 6654W        W66157   5.843  25.636  11.870
 6655W        W66158  40.496  36.451  14.879
 6656W        W66159  32.606  43.006  12.519
 6657W        W66160  17.731  26.189  12.042
 6658W        W66161  15.280  13.187  11.523
 6659W        W66162  20.125  36.886   4.666
 6660W        W66163  41.878  41.479   3.173
 6661W        W66164  14.196  31.425   4.312
 6662W        W66165  23.643   5.893   1.743
 6663W        W66166  12.704   7.311  12.025
 6664W        W66167  34.420   1.379   1.734
 6665W        W66168  39.554   4.309   4.347
 6666W        W66169  19.725  40.367   3.190
 6667W        W66170  23.059  34.511   4.692
 6668W        W66171  14.595  30.154  14.387
 6669W        W66172  13.336  18.752   2.768
 6670W        W66173  37.990  23.222  12.999
 6671W        W66174  10.140   0.442   3.812
 6672W        W66175  18.134  12.288  14.992
 6673W        W66176  15.635  44.793   3.630
 6674W        W66177  43.019  43.504   0.345
 6675W        W66178  28.450  15.214  11.990
 6676W        W66179   1.850  40.870   3.293
 6677W        W66180  17.090  24.714  13.434
 6678W        W66181  40.536  14.094   1.911
 6679W        W66182   6.422   4.910   0.810
 6680W        W66183  38.025  29.999  13.019
 6681W        W66184  11.367  15.641  10.065
 6682W        W66185  35.394  23.222   1.250
 6683W        W66186  38.495  22.075  11.041
 6684W        W66187  40.850  32.012  13.328
 6685W        W66188  26.617  21.117  14.937
 6686W        W66189   5.808  42.524   0.296
 6687W        W66190  43.011  44.270   4.774
 6688W        W66191  37.396  17.138   5.313
 6689W        W66192  13.690   7.242  10.636
 6690W        W66193  15.790  13.219  13.484
 6691W        W66194  44.328  44.854  14.771
 6692W        W66195  15.652  37.363  12.389
 6693W        W66196  27.639  25.662  14.368
 6694W        W66197  43.767  35.920   2.758
 6695W        W66198  10.288  21.176   4.291
 6696W        W66199   1.457  10.300  13.417
 6697W        W66200   9.761  33.051   5.131
 6698W        W66201  20.048  10.296  10.549
 6699W        W66202  43.954  15.100  10.489
 6700W        W66203   6.396   2.324   1.271
 6701W        W66204   7.318  22.622  12.983
 6702W        W66205  12.717  22.127  14.293
 6703W        W66206   9.886  30.570  10.091
 6704W        W66207  10.343   6.192  14.331
 6705W        W66208   0.426  43.004   1.286
 6706W        W66209  41.936  22.621   2.392
 6707W        W66210  38.069  21.615   3.723
 6708W        W66211  21.651  22.219   2.284
 6709W        W66212  16.239  31.154  12.999
 6710W        W66213  25.569  12.778  11.435
 6711W        W66214  26.022  29.989  10.933
 6712W        W66215  19.285  15.757   4.639
 6713W        W66216  16.084  43.997   3.716
 6714W        W66217  15.693   2.934  13.802
 6715W        W66218  15.783   8.715   3.723
 6716W        W66219  39.057  29.455  13.906
 6717W        W66220  29.079  44.836  10.511
 6718W        W66221  13.225  35.967   2.275
 6719W        W66222  12.251  18.780  12.919
 6720W        W66223  42.479  36.914   2.418
 6721W        W66224  25.551  10.846  14.883
 6722W        W66225  12.325   9.243   0.328
 6723W        W66226  23.073  21.252   2.334
 6724W        W66227  33.014  39.867  13.012
 6725W        W66228  35.050  28.158   5.318
 6726W        W66229  34.893  11.280   4.618
 6727W        W66230  17.219   1.842  11.124
 6728W        W66231  25.994   6.910  10.580
 6729W        W66232   1.764  17.237  14.829
 6730W        W66233   4.215  33.620   1.264
 6731W        W66234  42.902   4.937  11.394
 6732W        W66235  39.053  33.446   2.321
 6733W        W66236  42.826  16.174   4.787
 6734W        W66237   5.864   5.834  12.442
 6735W        W66238  24.723  17.304   0.900
 6736W        W66239  39.813  40.488  14.385
 6737W        W66240  31.011  19.126  12.359
 6738W        W66241   2.238  43.401   1.451
 6739W        W66242   3.281  32.042  12.572
 6740W        W66243  31.647  21.730   3.836
 6741W        W66244  18.603  20.659   2.846
 6742W        W66245  22.623   9.308   3.314
 6743W        W66246  20.624  11.331  10.535
 6744W        W66247  27.677  19.195  10.924
 6745W        W66248  25.632  25.106   9.955
 6746W        W66249   3.830  21.200   4.743
 6747W        W66250  12.230  32.572   1.349
 6748W        W66251  11.313  15.713   2.375
 6749W        W66252  17.107  10.287   1.751
 6750W        W66253   9.190  16.775   4.215
 6751W        W66254  44.854  24.984   0.741
 6752W        W66255   2.419  17.739   0.337
 6753W        W66256  28.671  10.138  11.991
 6754W        W66257  42.324  13.166   4.617
 6755W        W66258  15.104  41.043   1.389
 6756W        W66259  26.566   8.774  10.449
 6757W        W66260  11.177  44.839  11.906
 6758W        W66261   5.829  17.287  11.113
 6759W        W66262  29.653  33.464   1.860
 6760W        W66263  33.896   8.339   2.824
 6761W        W66264  13.812  43.919   2.370
 6762W        W66265  28.960   6.829  13.400
 6763W        W66266  30.002  42.314   4.277
 6764W        W66267   3.747  10.849   2.247
 6765W        W66268  42.481  33.911   2.367
 6766W        W66269   5.782   6.852   1.752
 6767W        W66270   5.706  15.299  12.545
 6768W        W66271   9.851   9.278   0.387
 6769W        W66272  23.566  22.102   2.854
 6770W        W66273  23.118  43.317   1.253
 6771W        W66274  22.023  25.657   3.207
 6772W        W66275   5.696  20.635   4.812
 6773W        W66276  22.731  15.142   1.302
 6774W        W66277  40.314   4.923   4.291
 6775W        W66278  35.423  26.121  11.054
 6776W        W66279  31.524  36.913  12.510
 6777W        W66280   8.167  20.552   1.321
 6778W        W66281  35.856  22.566   0.843
 6779W        W66282   5.296   8.662  13.370
 6780W        W66283  42.822  21.557  13.926
 6781W        W66284  23.684   0.393  12.930
 6782W        W66285  27.609  17.741  13.333
 6783W        W66286  26.105  10.227  11.466
 6784W        W66287  10.336  30.620  11.953
 6785W        W66288  13.673   3.847   4.245
 6786W        W66289  35.874  16.086  12.989
 6787W        W66290   0.919  25.539   9.524
 6788W        W66291  13.709  22.732  11.907
 6789W        W66292  28.029   4.291  14.954
 6790W        W66293  25.665  17.161  12.971
 6791W        W66294  13.184  17.074   4.318
 6792W        W66295  24.024   1.400   0.751
 6793W        W66296  19.569  21.208   5.229
 6794W        W66297   0.974   2.388  13.534
 6795W        W66298  19.202   4.931   0.387
 6796W        W66299  19.732   8.235   3.254
 6797W        W66300  20.223  10.721   3.282
 6798W        W66301  15.231   2.916  12.418
 6799W        W66302   8.257  14.304  11.579
 6800W        W66303  27.518   0.911   4.663
 6801W        W66304  27.967  43.319   0.322
 6802W        W66305  21.125  11.661   1.870
 6803W        W66306  30.599  34.380   0.478
 6804W        W66307  17.609  15.281  10.522
 6805W        W66308  16.666  26.474  12.439
 6806W        W66309  16.598   2.368  10.410
 6807W        W66310   2.351  25.671  14.963
 6808W        W66311   2.428  44.851   4.644
 6809W        W66312  25.565  10.678  13.844
 6810W        W66313  29.456  40.957  13.444
 6811W        W66314  21.522  24.142   0.318
 6812W        W66315   8.222  44.978  13.400
 6813W        W66316  21.641  17.583  14.932
 6814W        W66317  11.144  36.088   4.690
 6815W        W66318  30.506  16.203   1.695
 6816W        W66319  40.321  29.506   0.276
 6817W        W66320   3.878  30.515   5.180
 6818W        W66321   4.739  23.681  10.503
 6819W        W66322  37.947  38.944   1.712
 6820W        W66323   3.363  40.376  13.323
 6821W        W66324  28.675  32.981  11.526
 6822W        W66325   9.174   9.208  10.450
 6823W        W66326  22.737  10.166  12.851
 6824W        W66327  31.003  27.490   0.834
 6825W        W66328  28.066   0.368  11.552
 6826W        W66329  39.827  17.177   4.710
 6827W        W66330  33.875  30.935   0.462
 6828W        W66331   6.693  38.329   3.198
 6829W        W66332   1.963   8.299  14.353
 6830W        W66333  41.039  29.941  13.941
 6831W        W66334  28.439  42.870   2.888
 6832W        W66335  28.175  36.512   4.725
 6833W        W66336   8.406  19.191  14.970
 6834W        W66337  37.064  25.985  12.946
 6835W        W66338  15.709  23.500  13.366
 6836W        W66339  20.757   5.815   1.359
 6837W        W66340  12.838  14.222  11.943
 6838W        W66341  29.648  29.957  13.321
 6839W        W66342  33.111  18.612   4.656
 6840W        W66343   0.805  38.519  12.550
 6841W        W66344  20.598   7.291  11.386
 6842W        W66345  34.108  23.591  14.987
 6843W        W66346  19.597   1.361  10.930
 6844W        W66347  32.507  19.753  12.442
 6845W        W66348  29.149   3.943   4.731
 6846W        W66349  17.651  29.147   4.318
 6847W        W66350   6.866  39.904   0.462
 6848W        W66351  12.791  38.069   0.794
 6849W        W66352  34.373   2.267   0.287
 6850W        W66353  15.216  27.565  13.931
 6851W        W66354  23.050  32.953   4.335
 6852W        W66355  32.946  35.091   0.348
 6853W        W66356  21.691  23.171   1.219
 6854W        W66357  29.966   5.712  13.884
 6855W        W66358  32.535  10.232  14.491
 6856W        W66359  35.449  33.072  10.566
 6857W        W66360   6.824  17.137  12.563
 6858W        W66361  29.089   3.376   1.392
 6859W        W66362  25.135  29.093   0.735
 6860W        W66363  20.130   8.362   0.473
 6861W        W66364  12.326   2.791  12.430
 6862W        W66365  36.933  39.831  12.460
 6863W        W66366  18.232  41.888  14.433
 6864W        W66367  14.169  11.696  11.980
 6865W        W66368  15.726  21.730   1.694
 6866W        W66369   7.814  21.113   2.406
 6867W        W66370  36.000   7.248  12.075
 6868W        W66371  33.927  30.007   0.914
 6869W        W66372  17.792  39.427  10.589
 6870W        W66373  28.091   9.163  11.128
 6871W        W66374  40.488  11.770  14.513
 6872W        W66375  30.111  29.061  11.559
 6873W        W66376  26.997  10.651   0.377
 6874W        W66377  37.432  23.601  13.470
 6875W        W66378  12.747  44.387  13.839
 6876W        W66379  18.214  44.498  10.935
 6877W        W66380  44.376  41.822   0.326
 6878W        W66381  34.466   3.831   0.875
 6879W        W66382  42.377  21.107  14.341
 6880W        W66383  31.590  10.224   2.217
 6881W        W66384  29.083  21.528   3.229
 6882W        W66385  10.373  29.100   1.867
 6883W        W66386   8.837  22.580  12.071
 6884W        W66387  21.589  39.955   3.252
 6885W        W66388   5.420   7.404   2.324
 6886W        W66389  38.493  18.568   4.603
 6887W        W66390  43.444  17.773   4.283
 6888W        W66391  19.700  30.650  12.453
 6889W        W66392  24.987  34.028   0.789
 6890W        W66393  18.649  42.902   5.084
 6891W        W66394  41.479  27.099  14.312
 6892W        W66395  27.948  38.495   0.289
 6893W        W66396  21.635  17.117  10.014
 6894W        W66397  35.481  25.570  12.394
 6895W        W66398  27.111  21.524  12.445
 6896W        W66399  34.558  13.826  11.556
 6897W        W66400   3.434  15.752   4.208
 6898W        W66401  17.167  22.709   4.160
 6899W        W66402  31.946  17.635  12.534
 6900W        W66403  30.473  35.866  11.117
 6901W        W66404  38.464   3.951  11.426
 6902W        W66405  19.209  11.837   3.745
 6903W        W66406  32.106  33.126   1.810
 6904W        W66407  37.491   8.330   0.793
 6905W        W66408   7.367  25.048  13.375
 6906W        W66409  40.864  24.998   0.764
 6907W        W66410  16.114  28.167  14.507
 6908W        W66411  13.781  12.825  12.471
 6909W        W66412  18.776  12.225  11.049
 6910W        W66413  19.284   8.739   1.271
 6911W        W66414  24.157  15.586  10.157
 6912W        W66415  28.646   6.682  13.499
 6913W        W66416  37.867   1.842   4.772
 6914W        W66417  40.341  17.195   5.130
 6915W        W66418  31.134  10.771   2.793
 6916W        W66419  26.969  23.176  14.354
 6917W        W66420   7.381  44.944   4.784
 6918W        W66421  36.352  20.208  11.438
 6919W        W66422   6.192  15.689  13.346
 6920W        W66423   5.282  35.916   1.847
 6921W        W66424   1.291   2.270   2.262
 6922W        W66425  29.609   2.306  14.916
 6923W        W66426  17.575  30.942  11.553
 6924W        W66427   1.397  18.659   3.236
 6925W        W66428   0.876   9.223  12.906
 6926W        W66429  11.348  39.047   1.836
 6927W        W66430   9.671  16.699  12.843
 6928W        W66431  41.442  38.831   4.831
 6929W        W66432  33.553   3.222  14.402
 6930W        W66433  44.961  17.150   9.535
 6931W        W66434  36.475   3.280   3.777
 6932W        W66435  13.738  10.200  14.494
 6933W        W66436   4.851  27.522   0.386
 6934W        W66437  32.500  19.143   3.839
 6935W        W66438  33.563  29.145  13.326
 6936W        W66439  16.784  25.548   3.718
 6937W        W66440  34.890  40.925  10.511
 6938W        W66441   4.327  43.787  13.539
 6939W        W66442   9.690   3.742  12.962
 6940W        W66443  37.940  36.946  11.058
 6941W        W66444  21.172  15.723  13.820
 6942W        W66445  21.700  25.713   0.752
 6943W        W66446  10.180   4.405  13.497
 6944W        W66447  24.231  20.560  10.888
 6945W        W66448  27.959   9.738   2.239
 6946W        W66449  12.321   8.235  11.612
 6947W        W66450  17.633  17.095   2.229
 6948W        W66451   3.820  11.787  14.786
 6949W        W66452   0.412  38.502  12.377
 6950W        W66453   4.290   1.858  11.878
 6951W        W66454  41.402   5.807   3.187
 6952W        W66455  22.733  22.137  12.920
 6953W        W66456  31.648  11.706   4.704
 6954W        W66457   0.295  15.277  13.965
 6955W        W66458  14.730  44.772  12.496
 6956W        W66459  29.020  12.348   1.291
 6957W        W66460  40.031  19.644  11.518
 6958W        W66461  42.473  24.544  13.528
 6959W        W66462  19.549  34.977   3.200
 6960W        W66463  22.501  43.294  12.983
 6961W        W66464  25.686  38.955  11.464
 6962W        W66465  17.705   6.876  11.911
 6963W        W66466  27.604   1.302  13.792
 6964W        W66467  10.164   8.363   1.736
 6965W        W66468  36.938  31.633   0.928
 6966W        W66469  24.106  21.748  13.951
 6967W        W66470   5.801  24.051  12.366
 6968W        W66471  12.810   8.311  10.415
 6969W        W66472  42.325  38.931  13.012
 6970W        W66473  36.085  11.328  13.985
 6971W        W66474  32.116  17.638  14.391
 6972W        W66475  26.506  10.802   1.874
 6973W        W66476   4.935  30.040   2.295
 6974W        W66477  21.232   1.386   9.941
 6975W        W66478  44.991  43.335  11.918
 6976W        W66479  33.994  25.543   4.757
 6977W        W66480  25.203  10.160   0.285
 6978W        W66481  27.037   7.726  12.059
 6979W        W66482  22.678  44.838   1.911
 6980W        W66483  27.999  18.706  13.391
 6981W        W66484  26.696  20.073   2.414
 6982W        W66485   5.291  23.732  12.094
 6983W        W66486  37.424  21.743   1.253
 6984W        W66487   0.982  23.068   1.239
 6985W        W66488  15.642  41.865  10.890
 6986W        W66489  21.109  43.018  14.916
 6987W        W66490  34.492  19.208  12.434
 6988W        W66491  12.644   7.337   1.795
 6989W        W66492  16.298  33.549   4.122
 6990W        W66493  24.073  44.279   3.332
 6991W        W66494  11.357  43.793  14.020
 6992W        W66495  11.154  34.568  14.388
 6993W        W66496  44.472  41.453   9.946
 6994W        W66497  43.863  33.405  13.495
 6995W        W66498   3.362   4.396   4.747
 6996W        W66499  24.637  12.661   4.200
 6997W        W66500  25.480  21.589  12.961
 6998W        W66501  21.513  14.677  14.815
 6999W        W66502  27.633  33.061  13.344
 7000W        W66503  33.423  44.317  12.942
 7001W        W66504  41.458  43.320  12.371
 7002W        W66505  38.403  22.098   4.283
 7003W        W66506  21.619  14.719  13.057
 7004W        W66507  24.585   3.459   3.246
 7005W        W66508  15.824  33.974  14.300
 7006W        W66509  22.160  35.012   0.732
 7007W        W66510   9.867  16.163   2.416
 7008W        W66511  39.915  34.474  10.499
 7009W        W66512  20.220   6.270  12.905
 7010W        W66513  36.086  27.986  13.826
 7011W        W66514  32.598  27.570  12.479
 7012W        W66515   0.778  42.310  14.332
 7013W        W66516  24.064  36.972  13.884
 7014W        W66517   6.361  19.686   1.220
 7015W        W66518  41.335   6.893   5.208
 7016W        W66519  38.519  33.528  10.475
 7017W        W66520   7.340  32.560   4.249
 7018W        W66521   4.720  27.453  13.436
 7019W        W66522   5.828  37.404  10.922
 7020W        W66523  22.161  25.615  10.615
 7021W        W66524  25.090  30.998   2.886
 7022W        W66525  36.014  28.086   2.867
 7023W        W66526  25.196  16.177  12.911
 7024W        W66527   6.240  22.737   5.164
 7025W        W66528   3.764   5.785  14.903
 7026W        W66529  30.619  14.318  13.326
 7027W        W66530  44.372  33.079   3.748
 7028W        W66531  15.245  14.725  11.481
 7029W        W66532  37.934   2.251  11.590
 7030W        W66533  41.383   1.352   1.739
 7031W        W66534   0.349   7.405  12.350
 7032W        W66535  11.682  41.534   1.211
 7033W        W66536  26.584  10.691   0.478
 7034W        W66537  41.998  19.084   0.862
 7035W        W66538  16.568  27.176   0.428
 7036W        W66539  13.311  34.033   0.428
 7037W        W66540  32.089  36.973   1.829
 7038W        W66541  32.473  11.333  14.429
 7039W        W66542  21.188  28.005   4.326
 7040W        W66543  37.535  27.066   1.236
 7041W        W66544  35.010  33.475   3.726
 7042W        W66545  35.395  19.671  10.929
 7043W        W66546  19.271   9.754  13.330
 7044W        W66547  36.847  39.451   2.279
 7045W        W66548  24.129  30.602  13.331
 7046W        W66549  16.300  14.245  10.460
 7047W        W66550  29.526  21.530  12.954
 7048W        W66551  19.765  42.830  11.972
 7049W        W66552  16.261  40.037  14.855
 7050W        W66553  24.117   6.402   5.232
 7051W        W66554   2.438  38.422  10.605
 7052W        W66555  35.866  19.592  10.514
 7053W        W66556  15.137  15.189  10.490
 7054W        W66557  30.937  25.205   4.635
 7055W        W66558  26.047  22.542   2.743
 7056W        W66559   8.853   9.273   5.288
 7057W        W66560  32.620   1.379   0.311
 7058W        W66561  30.154   3.779  11.592
 7059W        W66562   2.879  32.511   0.346
 7060W        W66563  14.327  11.240  12.388
 7061W        W66564   7.404  11.627  12.054
 7062W        W66565  44.874  39.956  14.478
 7063W        W66566  39.463  44.259  11.951
 7064W        W66567   8.710  15.251  12.063
 7065W        W66568   1.755  19.049   1.733
 7066W        W66569   9.776  13.350  12.412
 7067W        W66570  29.523  20.041  12.020
 7068W        W66571  26.519  30.446  12.030
 7069W        W66572  29.124  23.017  14.776
 7070W        W66573  25.614  17.632   3.232
 7071W        W66574  33.546  39.558   1.223
 7072W        W66575   9.773  31.464  14.445
 7073W        W66576  31.972   6.772   1.365
 7074W        W66577  15.088  41.367   2.352
 7075W        W66578  18.134  33.542   0.397
 7076W        W66579  15.211  16.239   0.745
 7077W        W66580  29.023  43.881   4.114
 7078W        W66581   2.825   6.345  14.407
 7079W        W66582  22.723  10.275   3.262
 7080W        W66583  20.758  44.305   1.369
 7081W        W66584  29.034  21.709   3.844
 7082W        W66585  44.371  15.822  14.937
 7083W        W66586  29.138   7.234  13.392
 7084W        W66587  20.041   4.283  12.013
 7085W        W66588  39.007   5.727  11.529
 7086W        W66589  39.965  35.415  14.961
 7087W        W66590  21.040  31.143  13.953
 7088W        W66591  27.974   3.765  12.988
 7089W        W66592  18.056  14.761   3.755
 7090W        W66593  44.846  17.248  12.943
 7091W        W66594  28.121   7.344  14.861
 7092W        W66595   5.740  30.043  12.837
 7093W        W66596  25.044  11.244   2.399
 7094W        W66597  19.760  29.451   1.359
 7095W        W66598  22.026   3.452  10.967
 7096W        W66599   0.465  10.362  11.885
 7097W        W66600  40.030  33.995  10.474
 7098W        W66601  13.330  25.127  11.075
 7099W        W66602   3.876  18.590   3.723
 7100W        W66603  37.422  16.803   0.317
 7101W        W66604   0.970  44.326   0.882
 7102W        W66605  36.348  27.620  14.792
 7103W        W66606  33.129  22.145  13.832
 7104W        W66607  39.523   7.891  13.319
 7105W        W66608  44.286   5.814   4.170
 7106W        W66609   9.882  19.205   0.950
 7107W        W66610  18.554   9.841   4.837
 7108W        W66611   1.839   1.853   4.235
 7109W        W66612  10.184  25.022  10.975
 7110W        W66613  37.983  44.419  13.327
 7111W        W66614   0.890  20.603  11.036
 7112W        W66615  22.712  21.258  11.069
 7113W        W66616  40.808  21.145   1.704
 7114W        W66617  18.116  32.947  12.091
 7115W        W66618  11.259  32.930   3.220
 7116W        W66619  41.454  11.176  14.374
 7117W        W66620  15.716  12.139   2.888
 7118W        W66621   3.271  21.551   3.316
 7119W        W66622  35.892  36.495  10.897
 7120W        W66623  32.908  33.007  12.385
 7121W        W66624  40.997  15.277  13.031
 7122W        W66625  14.110  26.132  11.029
 7123W        W66626  33.920  33.487   3.377
 7124W        W66627   5.704   0.961  13.939
 7125W        W66628  35.055   7.285   4.622
 7126W        W66629  31.450  17.703   2.824
 7127W        W66630  12.794   3.829  11.099
 7128W        W66631   1.395  11.660   0.906
 7129W        W66632  21.542  35.385   3.383
 7130W        W66633  36.408  44.795  13.325
 7131W        W66634  14.109  28.535   4.141
 7132W        W66635  20.086  41.294   3.289
 7133W        W66636  34.977  16.175   1.244
 7134W        W66637  43.493  12.341  10.448
 7135W        W66638  21.590   7.250   0.367
 7136W        W66639  16.591   1.412   4.642
 7137W        W66640  42.455  15.285  13.349
 7138W        W66641  22.614  36.061  10.464
 7139W        W66642  23.156   9.260  13.937
 7140W        W66643  23.175  44.003   2.252
 7141W        W66644  12.287   6.268   1.829
 7142W        W66645  35.532  34.045  14.895
 7143W        W66646  30.119   3.774   4.269
 7144W        W66647  17.093  40.029  11.005
 7145W        W66648  38.067  40.039   1.913
 7146W        W66649  13.746  24.725  12.538
 7147W        W66650  32.532   8.190   1.381
 7148W        W66651  17.119  21.700   3.211
 7149W        W66652   2.266   2.270   2.731
 7150W        W66653  35.387  35.917  10.011
 7151W        W66654  30.070  21.758   1.261
 7152W        W66655  42.336  12.737  11.009
 7153W        W66656   4.435  12.121   3.714
 7154W        W66657  35.497  37.066  13.012
 7155W        W66658  32.449  44.959  12.461
 7156W        W66659  15.751  17.161  12.474
 7157W        W66660  20.546  30.109  13.458
 7158W        W66661  31.101  41.331   1.856
 7159W        W66662  33.918   2.878   3.183
 7160W        W66663  30.065  13.129  13.825
 7161W        W66664  20.637  15.674  13.913
 7162W        W66665  35.431  25.057  12.066
 7163W        W66666   6.331  11.662   2.812
 7164W        W66667  42.866  10.328  10.995
 7165W        W66668  44.403  13.777  12.566
 7166W        W66669  19.122  43.864  13.959
 7167W        W66670  12.340  24.013   3.729
 7168W        W66671  40.375  30.928   0.462
 7169W        W66672  22.037  25.671   1.389
 7170W        W66673  16.810  13.143  12.380
 7171W        W66674  34.464  44.850  10.494
 7172W        W66675   7.286  29.034   1.718
 7173W        W66676   7.846   7.741  12.540
 7174W        W66677  27.947  16.666  12.477
 7175W        W66678  35.558   8.876   3.698
 7176W        W66679  43.816  18.699   9.548
 7177W        W66680  36.434  28.179  13.441
 7178W        W66681  41.438   8.293  12.398
 7179W        W66682  28.152   6.287  13.492
 7180W        W66683   2.344  41.384  12.004
 7181W        W66684  34.979   8.691  12.357
 7182W        W66685   1.772  40.034  10.914
 7183W        W66686  19.171  17.755   4.716
 7184W        W66687  35.049  21.592   2.779
 7185W        W66688   3.758   0.935  12.878
 7186W        W66689   2.279  28.483   5.321
 7187W        W66690  22.145  15.799   2.827
 7188W        W66691  17.668   0.839   3.732
 7189W        W66692  33.036  10.185  12.037
 7190W        W66693   1.913   3.778   4.352
 7191W        W66694   9.229  30.026  10.992
 7192W        W66695  44.504  17.647  12.959
 7193W        W66696  33.459   5.341  13.850
 7194W        W66697  26.568  14.296   0.311
 7195W        W66698  33.450  33.412  13.881
 7196W        W66699  35.418   2.757  14.801
 7197W        W66700  14.618  34.050   0.866
 7198W        W66701  39.460  10.312  14.841
 7199W        W66702  18.563  41.326   4.283
 7200W        W66703  44.409  14.689   4.643
 7201W        W66704  18.226   6.212   2.851
 7202W        W66705   0.902   5.333  11.869
 7203W        W66706  28.048  14.166  10.460
 7204W        W66707  40.968  31.555   4.691
 7205W        W66708  16.584   9.694   1.715
 7206W        W66709  21.022   0.744  14.364
 7207W        W66710  19.606  36.538   2.683
 7208W        W66711   9.165  10.808  14.353
 7209W        W66712  35.453  12.651   3.849
 7210W        W66713  11.147  24.622  13.316
 7211W        W66714  21.613  32.408  11.950
 7212W        W66715  36.483   8.712   1.923
 7213W        W66716  22.576  25.655   2.825
 7214W        W66717  34.602  39.434   9.523
 7215W        W66718  26.996  31.563  14.451
 7216W        W66719  40.857   1.870   1.242
 7217W        W66720  28.650  21.049   2.750
 7218W        W66721  33.891   5.860   2.837
 7219W        W66722  25.636  21.674  13.513
 7220W        W66723  31.110  37.548  12.886
 7221W        W66724   7.226  34.492   2.297
 7222W        W66725  11.139  39.808  13.806
 7223W        W66726  28.103   6.395  11.927
 7224W        W66727  19.064  26.465   2.833
 7225W        W66728  27.070  29.428  12.453
 7226W        W66729   6.405  30.615  10.925
 7227W        W66730   3.404  20.262  13.023
 7228W        W66731   4.917  37.878   3.233
 7229W        W66732  12.196  39.900   3.688
 7230W        W66733  37.336  35.977   2.872
 7231W        W66734   7.241  20.523  12.569
 7232W        W66735  38.970  41.319   2.684
 7233W        W66736  21.535  44.898   4.179
 7234W        W66737  26.094  35.560   3.681
 7235W        W66738  12.278  28.484  10.432
 7236W        W66739  16.141  19.162  13.417
 7237W        W66740  44.311  25.184   1.234
 7238W        W66741   8.390  17.301   2.851
 7239W        W66742  36.433   6.347   5.306
 7240W        W66743  30.049  20.199  13.455
 7241W        W66744  12.358   4.299   0.962
 7242W        W66745  17.763  44.410  13.035
 7243W        W66746   0.743  34.893  12.951
 7244W        W66747  30.956  17.250  10.970
 7245W        W66748  29.972   4.244   0.893
 7246W        W66749  35.043  33.053  13.980
 7247W        W66750  35.874  29.081   3.267
 7248W        W66751  16.700  17.076  14.021
 7249W        W66752  17.694  27.960   4.206
 7250W        W66753  21.697  28.525   4.347
 7251W        W66754  29.936  37.873   1.856
 7252W        W66755  27.992   0.338   5.295
 7253W        W66756  18.278  24.707  11.104
 7254W        W66757   7.905  19.276  13.506
 7255W        W66758   1.885  10.634   3.305
 7256W        W66759  14.273  10.728  12.560
 7257W        W66760  40.528  27.194  11.086
 7258W        W66761  24.187   5.325  11.095
 7259W        W66762  13.266  38.934   3.187
 7260W        W66763   3.750  36.888   1.753
 7261W        W66764  11.307   7.796  13.469
 7262W        W66765  28.951  25.041   1.709
 7263W        W66766  24.610   1.424   1.401
 7264W        W66767   1.978  15.821   0.819
 7265W        W66768  39.931   7.367   2.373
 7266W        W66769   7.862  14.617   0.885
 7267W        W66770   2.877  43.866   5.170
 7268W        W66771  33.078   6.189   4.656
 7269W        W66772  15.706   7.294  14.816
 7270W        W66773  35.593  24.002  13.015
 7271W        W66774  26.547   6.211   0.473
 7272W        W66775  19.127  26.166   1.358
 7273W        W66776  27.167   4.416  10.545
 7274W        W66777  23.710  31.094  14.939
 7275W        W66778  26.103  29.164  10.435
 7276W        W66779  42.490   3.305   3.727
 7277W        W66780  20.557  44.967  11.858
 7278W        W66781  31.035  31.899  13.939
 7279W        W66782  23.624  12.307   0.440
 7280W        W66783  27.105  40.859  12.569
 7281W        W66784  37.523  27.539   3.713
 7282W        W66785   6.715  29.156   3.355
 7283W        W66786  10.266  15.274   3.711
 7284W        W66787  32.094  16.232   3.834
 7285W        W66788   3.455  19.095   1.223
 7286W        W66789  32.919  35.571   4.630
 7287W        W66790  22.732  22.652   2.807
 7288W        W66791  30.621   6.785  12.498
 7289W        W66792  30.929   0.900   3.811
 7290W        W66793   8.720  27.194  14.892
 7291W        W66794  24.483  23.732  14.870
 7292W        W66795   1.371  38.897  14.864
 7293W        W66796  41.376  16.789   2.900
 7294W        W66797  38.945   0.751   5.256
 7295W        W66798  34.518   7.907  14.910
 7296W        W66799   4.301  22.568  14.784
 7297W        W66800   4.439  12.353   1.296
 7298W        W66801  41.414  26.976   2.404
 7299W        W66802  36.886  14.105  12.366
 7300W        W66803   9.380  23.677  12.002
 7301W        W66804  22.574  18.096  14.287
 7302W        W66805  43.912  29.474  11.391
 7303W        W66806  21.614   6.828   1.430
 7304W        W66807  26.085  25.158  13.503
 7305W        W66808  32.019  22.735   4.126
 7306W        W66809  38.337   2.467   2.385
 7307W        W66810   5.244  30.528   4.302
 7308W        W66811   6.182   2.927  13.377
 7309W        W66812  30.492  30.449  13.358
 7310W        W66813  23.157  31.487  13.349
 7311W        W66814  24.601  40.405   2.389
 7312W        W66815  26.080  30.451  10.904
 7313W        W66816  40.820  20.669   4.651
 7314W        W66817  17.130  10.332   2.662
 7315W        W66818  37.409   4.274  12.904
 7316W        W66819  19.222   9.231   0.451
 7317W        W66820  11.224  12.842  14.338
 7318W        W66821  16.260  38.442   2.292
 7319W        W66822  14.795  16.294  10.623
 7320W        W66823  17.634  42.806  13.495
 7321W        W66824  11.146  25.667  13.973
 7322W        W66825  34.558  12.802   1.218
 7323W        W66826   0.835  42.314   4.269
 7324W        W66827  18.180  28.598  13.001
 7325W        W66828  28.943  19.243   3.327
 7326W        W66829  11.226  16.311  10.956
 7327W        W66830   2.886  36.850   4.648
 7328W        W66831  39.906  28.014  12.073
 7329W        W66832  29.530  38.831   4.744
 7330W        W66833  16.138  15.097  10.476
 7331W        W66834  43.504   6.420   3.196
 7332W        W66835  17.130  38.023   3.641
 7333W        W66836   7.814  44.831   4.774
 7334W        W66837  31.994  24.204  12.004
 7335W        W66838  19.169  18.085   4.308
 7336W        W66839  39.496  12.621   2.214
 7337W        W66840  37.996  31.137  12.931
 7338W        W66841  20.269   9.216   2.194
 7339W        W66842  43.438   4.293  13.358
 7340W        W66843  19.559   9.742  10.999
 7341W        W66844   3.884  40.317  11.897
 7342W        W66845  16.266   1.407  12.368
 7343W        W66846  28.181   1.367   2.370
 7344W        W66847   3.357   3.827   3.185
 7345W        W66848  25.092  18.647  12.545
 7346W        W66849  30.091   4.798  13.313
 7347W        W66850  22.674   2.854  14.811
 7348W        W66851  19.776   4.337  11.109
 7349W        W66852   3.726   0.283   2.664
 7350W        W66853  11.699   0.973  12.521
 7351W        W66854  13.112  27.175   0.966
 7352W        W66855  31.590  20.536   3.253
 7353W        W66856  37.833   3.272  11.484
 7354W        W66857  22.066  33.610  12.569
 7355W        W66858  19.618  43.470  11.586
 7356W        W66859  21.643  16.763  12.375
 7357W        W66860  39.846  13.266   0.466
 7358W        W66861   3.431  21.607  14.912
 7359W        W66862  34.962  28.481   0.482
 7360W        W66863  28.666  26.598   9.506
 7361W        W66864  42.968  34.398   2.193
 7362W        W66865  20.684  35.583  12.013
 7363W        W66866  10.226  17.138  11.867
 7364W        W66867   9.155   3.868   0.852
 7365W        W66868  37.840  19.750  13.052
 7366W        W66869  28.555   3.439   4.837
 7367W        W66870  13.188   6.351   1.887
 7368W        W66871  23.624  32.577  10.934
 7369W        W66872   9.281  22.704   0.828
 7370W        W66873  20.126  13.309   3.319
 7371W        W66874  31.954   4.442  10.489
 7372W        W66875  16.297  28.980   3.729
 7373W        W66876   1.869  29.037   5.700
 7374W        W66877  18.726  10.380   4.606
 7375W        W66878  28.178   2.465   0.271
 7376W        W66879  32.010  42.849   1.246
 7377W        W66880  21.036  21.710  12.043
 7378W        W66881   3.820  27.472   0.745
 7379W        W66882  11.190  17.135   2.200
 7380W        W66883  27.094   5.388  14.415
 7381W        W66884  37.933  21.599  14.777
 7382W        W66885  36.404   8.195   4.631
 7383W        W66886  35.425  42.982  13.516
 7384W        W66887  22.696  36.083   4.237
 7385W        W66888  14.104  20.168   3.856
 7386W        W66889  14.623  30.655   0.820
 7387W        W66890  20.673  35.563  11.526
 7388W        W66891  35.462  11.813   4.755
 7389W        W66892  19.649  36.391   1.729
 7390W        W66893  11.643  29.043   0.805
 7391W        W66894   4.710  28.619   4.125
 7392W        W66895  35.078   5.249   1.722
 7393W        W66896  24.535  30.453   2.714
 7394W        W66897  43.313  17.686   5.682
 7395W        W66898  27.085  35.932   2.886
 7396W        W66899   0.265  25.025   4.728
 7397W        W66900  25.038  23.599   3.324
 7398W        W66901  12.307   2.900   0.768
 7399W        W66902  39.369  16.581  13.341
 7400W        W66903  41.862  42.948   2.228
 7401W        W66904  32.960  40.394   1.355
 7402W        W66905  29.021  28.951  12.945
 7403W        W66906   7.391  40.441   2.328
 7404W        W66907  32.012  23.136  11.945
 7405W        W66908  10.298  31.567   4.609
 7406W        W66909  31.570  16.149   2.681
 7407W        W66910  15.684  41.509  13.510
 7408W        W66911   2.294  14.271  11.863
 7409W        W66912  30.515  42.412   3.208
 7410W        W66913   1.460  39.537   4.223
 7411W        W66914  20.259  20.179  14.444
 7412W        W66915  28.621  42.304   1.804
 7413W        W66916  17.619  40.335  11.899
 7414W        W66917  34.497   7.801  12.943
 7415W        W66918  23.713  42.942   1.361
 7416W        W66919  42.029  28.004   2.298
 7417W        W66920  38.327  11.829   1.711
 7418W        W66921  16.805  27.970   3.725
 7419W        W66922  11.780  33.065  13.040
 7420W        W66923   2.295  29.606  11.461
 7421W        W66924  18.641  12.227   0.289
 7422W        W66925  31.410  21.209  13.349
 7423W        W66926  31.950  42.332  13.006
 7424W        W66927  36.378  33.102  10.952
 7425W        W66928  34.489  38.944   4.259
 7426W        W66929  34.987  13.626  13.797
 7427W        W66930   7.883   8.674   3.705
 7428W        W66931   0.363  35.576   2.308
 7429W        W66932  38.370  42.940  14.860
 7430W        W66933  10.355   6.408  11.491
 7431W        W66934   9.666  21.699   3.655
 7432W        W66935  37.428  13.286   3.720
 7433W        W66936  22.072  21.255  14.477
 7434W        W66937  14.317  43.949  14.812
 7435W        W66938  35.992   2.275   0.841
 7436W        W66939   7.275  27.455   4.835
 7437W        W66940   7.716  33.076  13.981
 7438W        W66941  14.612   7.412  12.378
 7439W        W66942  20.136  12.850   3.694
 7440W        W66943  44.864  23.545  12.930
 7441W        W66944  10.236  17.281  12.854
 7442W        W66945  32.044  23.574   4.603
 7443W        W66946   1.883  19.718   1.405
 7444W        W66947  10.200   9.307   0.790
 7445W        W66948  35.104  41.482  11.109
 7446W        W66949  27.645  29.092  11.498
 7447W        W66950   7.382   6.303  14.761
 7448W        W66951  39.354  42.805   4.352
 7449W        W66952  39.463  27.114  10.981
 7450W        W66953  35.531  36.083  12.412
 7451W        W66954   4.246   5.408   2.763
 7452W        W66955   6.394   0.249  14.396
 7453W        W66956  34.486  43.944   3.234
 7454W        W66957   0.397  28.677   5.089
 7455W        W66958  44.432  10.159  13.953
 7456W        W66959   9.781  21.105  14.458
 7457W        W66960  22.714   5.233  14.417
 7458W        W66961  12.808  38.960  13.004
 7459W        W66962  12.260   5.732  10.462
 7460W        W66963  35.059  29.650   5.314
 7461W        W66964   3.226  10.316   4.767
 7462W        W66965  27.957  43.512   2.747
 7463W        W66966  42.296  33.006   1.425
 7464W        W66967  13.835  24.117   4.715
 7465W        W66968  25.048   4.211  11.959
 7466W        W66969  34.480  17.792  12.440
 7467W        W66970  26.004  32.072   2.180
 7468W        W66971  20.621  37.953   0.258
 7469W        W66972  23.585  12.316  10.510
 7470W        W66973  32.918  37.504   1.445
 7471W        W66974  30.450   4.937  14.813
 7472W        W66975  16.115   0.782   1.813
 7473W        W66976  40.932  27.535  11.876
 7474W        W66977   0.263  41.415  11.470
 7475W        W66978  29.931  44.259  12.351
 7476W        W66979  28.958   6.826   1.918
 7477W        W66980   6.884  41.378   2.242
 7478W        W66981  13.802   1.419  14.777
 7479W        W66982  19.132  33.080  13.948
 7480W        W66983   1.916  37.371   9.945
 7481W        W66984  35.939  36.524   0.967
 7482W        W66985  20.539  42.501   2.679
 7483W        W66986  11.823  20.041  12.933
 7484W        W66987  18.090   6.399   3.361
 7485W        W66988   7.708   3.879  11.096
 7486W        W66989  28.539  41.462   0.882
 7487W        W66990  20.249  42.284   4.229
 7488W        W66991  20.565  24.482   1.903
 7489W        W66992  19.259  36.577  14.909
 7490W        W66993   8.839  29.552   0.463
 7491W        W66994  22.252   1.737   3.753
 7492W        W66995  38.558  13.656  13.893
 7493W        W66996  28.159   8.800  10.577
 7494W        W66997  22.668   2.445  12.444
 7495W        W66998  34.552  43.924   0.805
 7496W        W66999  38.388   5.803  12.373
 7497W        W67000  14.335  32.099   9.626
 7498W        W67001  42.862   5.277   5.727
 7499W        W67002  22.130   7.881   4.616
 7500W        W67003  11.734   3.377   3.222
 7501W        W67004   0.781  16.072  13.399
 7502W        W67005   2.840  21.138  13.330
 7503W        W67006  40.464  42.451   2.201
 7504W        W67007  44.944  35.408  13.827
 7505W        W67008  39.513  31.579  11.921
 7506W        W67009   2.316   2.777  13.423
 7507W        W67010   3.805  44.485  14.497
 7508W        W67011  33.054  31.642  14.872
 7509W        W67012  18.260  22.573   1.848
 7510W        W67013  26.177  26.561   1.934
 7511W        W67014  28.534  44.909  12.936
 7512W        W67015   6.240  38.472  14.859
 7513W        W67016  16.738  23.121   0.276
 7514W        W67017  33.406  11.345   2.833
 7515W        W67018  14.221  31.943   3.347
 7516W        W67019  13.626   2.418   0.255
 7517W        W67020  13.606  40.309  14.924
 7518W        W67021  26.606   2.303  11.482
 7519W        W67022  31.021  40.400   0.878
 7520W        W67023  44.492  33.050  13.402
 7521W        W67024  12.224  16.081   3.354
 7522W        W67025  13.113  14.663   3.369
 7523W        W67026   6.203  40.375  11.048
 7524W        W67027  18.690  25.123   2.194
 7525W        W67028  12.641  12.754   0.468
 7526W        W67029  44.774  13.620   0.377
 7527W        W67030  22.722  15.588  13.926
 7528W        W67031  16.711  43.296  14.474
 7529W        W67032  10.721  27.581   3.272
 7530W        W67033  21.673  19.285  11.595
 7531W        W67034  10.260  18.745   4.670
 7532W        W67035   7.839  35.873   2.798
 7533W        W67036   8.259  42.861   2.228
 7534W        W67037  25.197  42.840   3.326
 7535W        W67038  17.070  37.477  12.411
 7536W        W67039   8.664   8.226  12.451
 7537W        W67040  32.605   3.270   1.450
 7538W        W67041  42.313  12.740  11.523
 7539W        W67042  37.405  38.022   4.233
 7540W        W67043  14.613  12.847   2.890
 7541W        W67044  42.343  36.006  10.509
 7542W        W67045  18.196  24.044  11.044
 7543W        W67046  39.948  11.261  14.401
 7544W        W67047  19.045  33.468  12.520
 7545W        W67048  22.628  28.563   0.813
 7546W        W67049  24.187  43.506   4.195
 7547W        W67050  35.373  22.192   0.924
 7548W        W67051  39.435  28.483  11.000
 7549W        W67052   5.292  12.253  12.071
 7550W        W67053  35.085  44.899   1.305
 7551W        W67054  12.128  22.667  12.416
 7552W        W67055  23.699  44.416  11.049
 7553W        W67056  39.338  22.575  10.433
 7554W        W67057   1.305   4.825  11.044
 7555W        W67058  16.237  35.597   1.232
 7556W        W67059  18.707  18.097  11.077
 7557W        W67060  10.198  20.069  14.031
 7558W        W67061  39.951   5.257   2.680
 7559W        W67062  10.648  42.884   1.932
 7560W        W67063  14.323   5.287  14.368
 7561W        W67064   2.370  12.701   1.866
 7562W        W67065   9.386  14.281  14.471
 7563W        W67066  21.252  32.530   3.641
 7564W        W67067  11.812  34.568   1.904
 7565W        W67068  37.369  39.450   4.822
 7566W        W67069   7.768  41.898   0.436
 7567W        W67070  28.099  35.906   1.414
 7568W        W67071  20.667  23.181  10.936
 7569W        W67072  22.672   1.905   2.712
 7570W        W67073  36.363  40.306   4.674
 7571W        W67074   9.331   3.843   4.692
 7572W        W67075  35.975  14.112  13.934
 7573W        W67076  10.336  43.477   1.718
 7574W        W67077  32.933  17.608  10.461
 7575W        W67078   6.792  40.027  14.375
 7576W        W67079  29.015  15.136  13.911
 7577W        W67080  32.479  42.849  13.935
 7578W        W67081  36.489   7.666  14.833
 7579W        W67082  35.567  22.726   1.324
 7580W        W67083  22.109   1.401   1.249
 7581W        W67084   5.214   5.725  13.372
 7582W        W67085  27.597  19.238  10.587
 7583W        W67086  16.144  12.132   4.214
 7584W        W67087   1.377  17.665  11.962
 7585W        W67088  44.263  17.653   5.185
 7586W        W67089  12.633  19.241  11.546
 7587W        W67090  36.018  29.666  14.981
 7588W        W67091  25.499  29.967  10.950
 7589W        W67092  14.260  13.644  11.419
 7590W        W67093  35.975  12.754  14.833
 7591W        W67094  38.425  20.191  12.836
 7592W        W67095  11.153  14.646   0.301
 7593W        W67096  22.231  30.989  11.598
 7594W        W67097   5.750   1.868  13.427
 7595W        W67098  21.658  22.115   2.879
 7596W        W67099  37.977  19.631   0.459
 7597W        W67100  43.277  23.157  11.607
 7598W        W67101  19.565  24.629  12.845
 7599W        W67102  37.924  38.351  12.563
 7600W        W67103  14.134  23.098   3.257
 7601W        W67104  36.441  29.996   3.183
 7602W        W67105  23.042  27.007  10.442
 7603W        W67106   0.282   8.373   4.304
 7604W        W67107  37.433  20.646   3.826
 7605W        W67108  18.606  37.925   3.184
 7606W        W67109  36.425  44.785  12.888
 7607W        W67110   9.209  15.214  14.809
 7608W        W67111  34.076  31.084  11.530
 7609W        W67112  22.050  40.369   3.723
 7610W        W67113  13.604  10.801  14.344
 7611W        W67114  17.081   3.231   0.344
 7612W        W67115   3.860  33.381  11.098
 7613W        W67116  34.392  44.353   3.796
 7614W        W67117  13.304  15.670   4.609
 7615W        W67118   9.742  35.963   4.652
 7616W        W67119  23.711  16.709  12.869
 7617W        W67120  13.309   3.769   2.791
 7618W        W67121  10.679   1.275   0.789
 7619W        W67122  31.560  26.643   1.708
 7620W        W67123  25.077  22.519  14.979
 7621W        W67124  20.709   7.385  14.487
 7622W        W67125  27.065  10.757   1.918
 7623W        W67126  32.895  30.163  10.989
 7624W        W67127  28.453  35.085   0.951
 7625W        W67128  24.068  41.887  12.421
 7626W        W67129  24.503  11.360  14.422
 7627W        W67130   0.340  20.270   0.947
 7628W        W67131  26.569  20.253  11.926
 7629W        W67132  18.682  13.233   1.696
 7630W        W67133  11.734   0.265   1.352
 7631W        W67134  13.133  10.311  13.405
 7632W        W67135  11.642  15.091  11.934
 7633W        W67136  31.102  21.732   2.262
 7634W        W67137  14.179  28.591  13.996
 7635W        W67138  16.739   3.222   2.857
 7636W        W67139  29.944  32.620  13.429
 7637W        W67140   4.383  35.364   2.330
 7638W        W67141  16.246   5.855  12.577
 7639W        W67142  11.727  24.662  11.100
 7640W        W67143  18.133  10.343  13.817
 7641W        W67144  44.330  13.666  13.457
 7642W        W67145   8.696  12.653  12.036
 7643W        W67146   2.780  27.162   1.240
 7644W        W67147  31.446  17.636  11.463
 7645W        W67148  39.323  28.099  11.005
 7646W        W67149  25.468  30.016  12.007
 7647W        W67150  44.766   1.246  10.947
 7648W        W67151   1.891  31.949   3.291
 7649W        W67152   8.206  10.252   0.879
 7650W        W67153  19.547  21.053  11.055
 7651W        W67154   1.957   7.755   1.708
 7652W        W67155  31.643  35.943   3.201
 7653W        W67156  42.362  18.140  13.928
 7654W        W67157  17.126  38.983   4.134
 7655W        W67158  23.057  38.991  12.352
 7656W        W67159  32.030  15.226   0.938
 7657W        W67160   4.422  18.145  13.338
 7658W        W67161  37.999   5.322   1.849
 7659W        W67162  28.668  18.191  11.914
 7660W        W67163   8.399  35.488   4.621
 7661W        W67164  18.737  18.176   3.704
 7662W        W67165  12.236   3.307  13.001
 7663W        W67166  10.766   5.914   1.895
 7664W        W67167  32.577  18.204  14.897
 7665W        W67168  19.616   8.779  10.986
 7666W        W67169   0.348  14.227  14.840
 7667W        W67170  24.004  40.925   0.463
 7668W        W67171   9.391  44.892  11.550
 7669W        W67172  22.058  13.259  14.844
 7670W        W67173  27.021  27.582   0.428
 7671W        W67174  32.571  18.185  13.832
 7672W        W67175  17.181  25.148  10.153
 7673W        W67176   2.890  24.161  10.454
 7674W        W67177   4.266  21.051  13.398
 7675W        W67178  35.858  14.655   2.290
 7676W        W67179  26.524  21.149   1.823
 7677W        W67180  30.967  41.895  11.967
 7678W        W67181   1.946  23.127   1.818
 7679W        W67182  23.096   3.300   4.284
 7680W        W67183  36.863  12.207  11.899
 7681W        W67184  20.095  36.521  10.472
 7682W        W67185   5.262  18.707  14.806
 7683W        W67186  40.404  10.867  13.044
 7684W        W67187  17.674  32.970  13.454
 7685W        W67188  24.977  10.168   3.747
 7686W        W67189  20.234  15.295  10.981
 7687W        W67190  35.445  39.977   3.370
 7688W        W67191  41.473  43.918   3.847
 7689W        W67192  26.046  34.106   1.732
 7690W        W67193  38.850   3.216  12.898
 7691W        W67194  20.597  37.338  14.913
 7692W        W67195  33.422  33.605  14.293
 7693W        W67196  23.087  10.644  10.912
 7694W        W67197  16.713  19.634  10.520
 7695W        W67198   0.793   8.828  12.359
 7696W        W67199  18.654  16.115   3.664
 7697W        W67200  10.715  38.349  13.904
 7698W        W67201  13.287  37.913   2.794
 7699W        W67202  32.055  17.205   1.729
 7700W        W67203  19.604  31.416  14.964
 7701W        W67204  41.937  15.241  11.978
 7702W        W67205  15.317  19.267  13.370
 7703W        W67206  40.886   6.259  11.988
 7704W        W67207  39.959  18.230  11.122
 7705W        W67208  40.477  14.686  13.817
 7706W        W67209  29.484  44.838  11.419
 7707W        W67210  39.468  41.855   2.879
 7708W        W67211  44.892  33.054  14.406
 7709W        W67212  35.902  12.667   4.767
 7710W        W67213   2.790  13.266   2.699
 7711W        W67214  37.080   3.348  14.811
 7712W        W67215  11.157   9.648  13.383
 7713W        W67216  15.653   5.330  12.398
 7714W        W67217   5.291  23.687  14.464
 7715W        W67218  23.069  25.983   4.269
 7716W        W67219   6.203   7.399   2.245
 7717W        W67220  32.031  19.750   3.260
 7718W        W67221  40.817  43.390  10.995
 7719W        W67222  42.384  40.044  10.636
 7720W        W67223  34.599   9.745  11.487
 7721W        W67224  36.964  26.995   0.350
 7722W        W67225  39.017  24.176  14.342
 7723W        W67226  20.137  18.733  13.920
 7724W        W67227  43.948   2.938  11.586
 7725W        W67228   3.846  28.953  11.993
 7726W        W67229  20.638  29.073   1.743
 7727W        W67230  15.314   2.314  11.431
 7728W        W67231  22.166  34.973   1.763
 7729W        W67232  43.384  39.498  13.027
 7730W        W67233  27.056  36.543  14.879
 7731W        W67234   7.908   2.871  12.846
 7732W        W67235  15.673  37.916   0.912
 7733W        W67236  38.003  37.342   2.847
 7734W        W67237  22.632  36.854  12.998
 7735W        W67238  21.669  19.616   4.185
 7736W        W67239   2.907  33.465  11.934
 7737W        W67240  15.754   3.872  11.042
 7738W        W67241  43.899  28.588  11.560
 7739W        W67242  13.138  11.804   0.348
 7740W        W67243   4.361  38.983  14.872
 7741W        W67244  11.838  42.020  14.010
 7742W        W67245   3.416  23.081  13.361
 7743W        W67246  16.806  35.385  14.330
 7744W        W67247  15.215  25.567   3.632
 7745W        W67248  29.575  41.859  14.987
 7746W        W67249   4.347  13.198   4.242
 7747W        W67250  17.749   3.272   1.377
 7748W        W67251  26.997  27.668   0.799
 7749W        W67252  42.484  39.344  10.989
 7750W        W67253  23.226  24.190  12.938
 7751W        W67254   4.893  14.298  10.449
 7752W        W67255   5.215  27.161   3.729
 7753W        W67256   9.778  21.653  10.959
 7754W        W67257  21.598   9.302  13.357
 7755W        W67258  11.208  32.974  11.382
 7756W        W67259  21.055   6.204   5.216
 7757W        W67260  21.110   5.735  11.039
 7758W        W67261  26.593  15.684   1.405
 7759W        W67262  21.037  14.115  10.406
 7760W        W67263  44.836  30.100  13.529
 7761W        W67264   9.315  20.700   4.283
 7762W        W67265  29.068  28.183  13.309
 7763W        W67266  16.210  35.908  11.092
 7764W        W67267  42.009   5.241   4.723
 7765W        W67268   4.896   6.426  12.890
 7766W        W67269  23.141  15.200   0.896
 7767W        W67270  18.060  42.924  13.400
 7768W        W67271  39.487  15.601  14.374
 7769W        W67272   1.923  15.135   4.198
 7770W        W67273  38.444  27.678  13.463
 7771W        W67274  34.897  13.839  10.610
 7772W        W67275  23.181  16.595   2.330
 7773W        W67276  38.874  13.842   3.726
 7774W        W67277  36.454   4.393  10.937
 7775W        W67278  39.808   2.896  11.586
 7776W        W67279  16.754  34.440   2.855
 7777W        W67280  32.419  23.658   3.214
 7778W        W67281  33.611   9.275  12.348
 7779W        W67282   3.823   6.277  11.907
 7780W        W67283  10.265  43.406  14.298
 7781W        W67284   0.910   9.225   3.221
 7782W        W67285  39.039   4.422  10.597
 7783W        W67286  16.214   0.343  13.424
 7784W        W67287  44.283   2.871  11.566
 7785W        W67288   5.231   4.778   1.326
 7786W        W67289  23.073  23.590  10.630
 7787W        W67290  26.001  29.140   1.436
 7788W        W67291   1.773   1.877   4.816
 7789W        W67292   5.899  16.305   4.116
 7790W        W67293  40.878  37.830   3.756
 7791W        W67294   5.241  30.433  14.299
 7792W        W67295  19.629  16.589  11.585
 7793W        W67296   3.867   7.229   1.263
 7794W        W67297   5.907  10.639   2.685
 7795W        W67298  15.609  12.307   2.185
 7796W        W67299  40.508   2.936  12.844
 7797W        W67300   2.833  20.694   0.801
 7798W        W67301  28.096  28.460  13.990
 7799W        W67302   7.788  10.744   4.113
 7800W        W67303  37.542  33.480   3.264
 7801W        W67304  21.557  20.552   1.705
 7802W        W67305   3.745   5.309   3.302
 7803W        W67306  24.480  25.204   4.348
 7804W        W67307  34.101  20.769  12.566
 7805W        W67308  19.178  11.779   0.344
 7806W        W67309  40.848  18.698  14.912
 7807W        W67310  21.093   1.409  14.796
 7808W        W67311  33.128  38.938  10.529
 7809W        W67312  31.541  42.462  12.862
 7810W        W67313  13.123  37.021  11.480
 7811W        W67314  24.605   8.755   3.163
 7812W        W67315  29.089  22.104  11.581
 7813W        W67316  36.851  22.015  14.785
 7814W        W67317  37.534  26.702   1.231
 7815W        W67318  28.053  33.534  11.071
 7816W        W67319   0.250  30.543   2.302
 7817W        W67320   1.237   5.862   2.397
 7818W        W67321  12.243   3.295  11.996
 7819W        W67322   3.349  38.568  10.508
 7820W        W67323  14.253   9.747   2.386
 7821W        W67324  32.420  16.651  11.553
 7822W        W67325  10.253  37.549   0.257
 7823W        W67326  30.416   1.941  10.489
 7824W        W67327   8.192   5.705  14.929
 7825W        W67328  44.873  28.929  14.842
 7826W        W67329  18.590  34.393   2.900
 7827W        W67330  35.881  29.936   2.344
 7828W        W67331   0.379  44.966  11.925
 7829W        W67332  16.197  41.485   2.820
 7830W        W67333  36.522  13.286  11.094
 7831W        W67334  34.466  10.643   1.696
 7832W        W67335  27.678  36.547   3.798
 7833W        W67336  34.977   2.240  14.998
 7834W        W67337   8.744   8.169  10.552
 7835W        W67338  18.714  19.250   3.272
 7836W        W67339  43.813  43.852  12.013
 7837W        W67340  34.565  25.987   0.819
 7838W        W67341   9.870   4.720  14.339
 7839W        W67342  19.549  23.230   4.664
 7840W        W67343   3.285  37.056  13.446
 7841W        W67344  39.050  44.764   1.819
 7842W        W67345   5.254  31.896   2.790
 7843W        W67346  38.060  24.080   4.714
 7844W        W67347  39.556   8.832  12.474
 7845W        W67348   4.837  33.486  13.438
 7846W        W67349  34.953   3.918   4.294
 7847W        W67350   0.304  37.924  11.473
 7848W        W67351  31.481   2.319  11.459
 7849W        W67352  11.287  30.568  12.577
 7850W        W67353  25.023  21.111  10.911
 7851W        W67354  43.417  38.350   2.790
 7852W        W67355   1.391  28.533  10.592
 7853W        W67356  37.501  43.881  11.115
 7854W        W67357  40.882  38.559  14.000
 7855W        W67358   4.761  34.954  12.074
 7856W        W67359  42.032  37.949   1.427
 7857W        W67360  21.054  27.568  11.052
 7858W        W67361  42.413   8.889  12.955
 7859W        W67362  31.900  42.904   2.719
 7860W        W67363  13.316  10.793  13.834
 7861W        W67364  11.359  42.506   0.745
 7862W        W67365  36.439  40.841  13.333
 7863W        W67366   4.247   4.253   2.346
 7864W        W67367   4.299   1.343   4.134
 7865W        W67368   2.794   3.260  14.813
 7866W        W67369  22.555  33.961  14.011
 7867W        W67370  32.587   8.889   1.906
 7868W        W67371   5.759  31.927   1.888
 7869W        W67372  12.818   4.283  14.895
 7870W        W67373  12.769  10.341  11.436
 7871W        W67374   3.381  23.999   2.419
 7872W        W67375  22.582  44.308  13.321
 7873W        W67376  18.233   3.845  12.408
 7874W        W67377   0.425  12.252  10.616
 7875W        W67378  38.532  44.801  12.421
 7876W        W67379  40.978  43.869  12.851
 7877W        W67380  23.604  16.640  12.087
 7878W        W67381  27.558  34.555  11.538
 7879W        W67382  11.160  41.815  12.033
 7880W        W67383  19.663  28.031   2.694
 7881W        W67384  33.959   4.707   3.168
 7882W        W67385  35.926  25.177   4.761
 7883W        W67386   9.196  34.985   2.370
 7884W        W67387  40.866  16.571  13.442
 7885W        W67388   5.692  37.548   1.752
 7886W        W67389  22.673  40.885   1.882
 7887W        W67390  28.536   4.225   0.321
 7888W        W67391  19.251   0.289  11.107
 7889W        W67392  34.595  37.432   4.313
 7890W        W67393  21.748   5.219   0.827
 7891W        W67394  19.710  16.693  14.940
 7892W        W67395  18.662  35.408   2.292
 7893W        W67396  22.247  32.110  13.842
 7894W        W67397   2.442  37.485  10.984
 7895W        W67398   8.720   3.840   1.395
 7896W        W67399  29.549   8.381   0.293
 7897W        W67400  31.082  14.287   2.376
 7898W        W67401  41.970  31.647  14.794
 7899W        W67402  25.631   6.809  13.795
 7900W        W67403  32.925   7.239   4.734
 7901W        W67404  18.065  35.911   1.329
 7902W        W67405  42.993  12.737   4.254
 7903W        W67406  31.460   4.392  14.917
 7904W        W67407   0.365  17.227   0.823
 7905W        W67408  28.123  31.963   2.410
 7906W        W67409  22.206  34.957  14.956
 7907W        W67410  12.344   2.900  12.973
 7908W        W67411  37.898  13.752   2.810
 7909W        W67412   4.405  31.421  12.468
 7910W        W67413   7.336  20.554  14.387
 7911W        W67414   7.687  10.294   1.370
 7912W        W67415  39.361  29.125  14.430
 7913W        W67416  14.697   9.279  14.371
 7914W        W67417  39.829  26.474   1.706
 7915W        W67418   5.427  25.020   1.837
 7916W        W67419  32.578  44.343   1.298
 7917W        W67420  32.063  19.239   3.804
 7918W        W67421   4.877  12.343   3.280
 7919W        W67422  22.243  14.616   0.281
 7920W        W67423   4.817  18.619   4.677
 7921W        W67424   2.439  39.355   3.299
 7922W        W67425  29.597  23.544   5.146
 7923W        W67426  43.020  11.298  14.794
 7924W        W67427  43.427   2.365   0.404
 7925W        W67428  39.341   7.198  12.007
 7926W        W67429  13.647  33.919  10.896
 7927W        W67430  40.491  34.560  11.123
 7928W        W67431  15.251  35.385   9.961
 7929W        W67432  43.924   8.331  13.797
 7930W        W67433  29.538  42.328  13.539
 7931W        W67434  31.908  16.603   3.212
 7932W        W67435  13.723  39.967  10.576
 7933W        W67436  14.685  24.569  13.846
 7934W        W67437  26.615  25.208  14.929
 7935W        W67438  14.643  13.752   2.325
 7936W        W67439  16.119   9.887   0.892
 7937W        W67440  36.503   0.331  14.022
 7938W        W67441  29.497   3.874   2.826
 7939W        W67442  33.087  38.031   0.344
 7940W        W67443  44.805  32.142  11.066
 7941W        W67444   6.909  37.040   0.404
 7942W        W67445  41.373  40.907   3.291
 7943W        W67446   0.946  26.530   1.745
 7944W        W67447  29.033  18.611   3.159
 7945W        W67448  40.532  29.625   4.783
 7946W        W67449  26.207  30.142  10.538
 7947W        W67450  28.664  41.464   1.696
 7948W        W67451   6.308  31.133   0.813
 7949W        W67452  19.074   1.762  13.378
 7950W        W67453  37.896  11.697   1.381
 7951W        W67454  33.559   4.349   4.131
 7952W        W67455   7.293  35.898  12.968
 7953W        W67456  18.259  30.609   4.774
 7954W        W67457  38.558  18.743  12.070
 7955W        W67458  28.448  38.864  14.930
 7956W        W67459  27.094   0.476  11.473
 7957W        W67460  20.672  24.196  11.863
 7958W        W67461  38.461   8.692   3.145
 7959W        W67462   5.843  42.303   3.308
 7960W        W67463  39.934  12.777  11.416
 7961W        W67464  20.250  28.636   3.267
 7962W        W67465  34.589  23.067   0.870
 7963W        W67466  10.310  43.425  12.082
 7964W        W67467  40.401  11.221   1.215
 7965W        W67468  39.949  34.941   1.328
 7966W        W67469   1.424  22.146  11.474
 7967W        W67470  22.585   4.240   3.645
 7968W        W67471  30.573  20.532  12.051
 7969W        W67472  12.284  36.441  13.934
 7970W        W67473  16.803  32.615  10.590
 7971W        W67474  33.124  34.560  10.511
 7972W        W67475  26.607  19.752  11.476
 7973W        W67476  35.092  35.591  14.850
 7974W        W67477  18.113   9.284  11.573
 7975W        W67478  16.130   3.235   3.688
 7976W        W67479  29.476  20.547  12.384
 7977W        W67480  15.597   9.853  12.476
 7978W        W67481  37.036  27.559  11.382
 7979W        W67482   8.399   9.722   0.390
 7980W        W67483   9.680   6.722  13.944
 7981W        W67484  26.179   7.689   2.188
 7982W        W67485  18.554  35.981  10.533
 7983W        W67486  19.604  13.244   0.891
 7984W        W67487  25.086  13.148  14.002
 7985W        W67488  22.128  34.399  10.505
 7986W        W67489  28.105  25.092  12.848
 7987W        W67490  30.454  21.572  13.548
 7988W        W67491   8.711   1.863  13.383
 7989W        W67492  23.188  26.527  10.524
 7990W        W67493  12.324   7.288  14.467
 7991W        W67494  33.957  13.773   2.283
 7992W        W67495  23.731  42.386  11.867
 7993W        W67496   7.731  14.630  11.398
 7994W        W67497   0.297  15.142  13.542
 7995W        W67498   8.869   3.270  13.807
 7996W        W67499  39.811   7.257  13.348
 7997W        W67500  21.729  28.666   0.929
 7998W        W67501  43.997  44.982  12.894
 7999W        W67502  23.085   8.294   1.727
 8000W        W67503  33.604  17.598   4.765
 8001W        W67504  35.432  21.020  10.549
 8002W        W67505  14.137  36.424   3.309
 8003W        W67506  34.945   6.299   4.733
 8004W        W67507  40.531   8.885  14.304
 8005W        W67508  25.114  24.570   0.452
 8006W        W67509  24.227  11.800   0.399
 8007W        W67510   4.754  24.494   1.428
 8008W        W67511  26.550  28.482   2.768
 8009W        W67512  42.941  36.470   4.340
 8010W        W67513  27.165   1.331  10.982
 8011W        W67514  38.914  22.154  13.494
 8012W        W67515   9.865  37.515  11.067
 8013W        W67516  10.641   1.320  14.905
 8014W        W67517  33.076  25.494  13.347
 8015W        W67518  44.007  14.264  13.856
 8016W        W67519  15.632  29.984  14.343
 8017W        W67520  29.957  36.399  14.853
 8018W        W67521  38.411  39.990  11.103
 8019W        W67522  38.028  30.468  14.917
 8020W        W67523  36.387  23.097   1.912
 8021W        W67524  10.314  21.059  14.023
 8022W        W67525  40.802  22.657   2.709
 8023W        W67526  10.352  44.376   0.737
 8024W        W67527  11.842  42.284   3.842
 8025W        W67528  44.338   1.812  14.440
 8026W        W67529   9.844  13.335  14.382
 8027W        W67530  18.082   0.933  14.846
 8028W        W67531   4.721   0.270  14.791
 8029W        W67532  21.572  12.355  11.118
 8030W        W67533  22.117  31.971  10.514
 8031W        W67534  21.018  37.553   9.925
 8032W        W67535  22.577  38.010   3.238
 8033W        W67536  37.057  38.453  14.300
 8034W        W67537  38.485  42.890  14.294
 8035W        W67538   0.778  15.240   4.770
 8036W        W67539  30.143  11.171   1.324
 8037W        W67540  18.112  32.904   4.738
 8038W        W67541  25.127  14.284  11.875
 8039W        W67542   0.267  13.213  14.906
 8040W        W67543   2.726  34.974   2.407
 8041W        W67544  23.195  41.439   2.834
 8042W        W67545  35.409  27.481  10.895
 8043W        W67546   5.745  31.484  13.409
 8044W        W67547  29.922   7.193  10.989
 8045W        W67548  29.170   6.414  14.843
 8046W        W67549  40.379  16.311   2.211
 8047W        W67550  31.081  10.337   3.385
 8048W        W67551  18.683  13.115   0.469
 8049W        W67552  36.402  33.521   0.263
 8050W        W67553  17.722  42.294   1.440
 8051W        W67554  33.611  18.188   2.184
 8052W        W67555  44.367   8.786   2.886
 8053W        W67556  27.511   5.332  12.948
 8054W        W67557  22.168  10.829  11.448
 8055W        W67558  39.351  24.659  14.822
 8056W        W67559  27.000  30.978   4.704
 8057W        W67560  44.909  14.695  11.565
 8058W        W67561  26.130  39.898   0.758
 8059W        W67562  32.409   2.430   4.324
 8060W        W67563  43.905  28.990  11.383
 8061W        W67564  18.293  14.307   0.351
 8062W        W67565  11.304   9.730   1.713
 8063W        W67566  33.991  27.579  14.509
 8064W        W67567  34.017  38.489  12.392
 8065W        W67568   0.885  17.282   0.846
 8066W        W67569  37.018  41.416   3.793
 8067W        W67570   6.863  33.106   2.195
 8068W        W67571  23.111  20.645   2.252
 8069W        W67572  33.119   1.972  14.466
 8070W        W67573   9.368   6.397  12.462
 8071W        W67574  44.856  33.621  12.897
 8072W        W67575   4.257  31.151  14.498
 8073W        W67576   4.269   8.376  10.566
 8074W        W67577  10.320  34.473   0.386
 8075W        W67578  23.038   6.768  12.453
 8076W        W67579  25.096  22.581   5.296
 8077W        W67580  44.932  14.626  14.016
 8078W        W67581  29.558  39.343  12.904
 8079W        W67582   9.210  29.550  11.047
 8080W        W67583  33.069  28.643  12.339
 8081W        W67584   9.746   2.248  11.021
 8082W        W67585  42.899  18.784   3.760
 8083W        W67586  43.949  13.297   1.816
 8084W        W67587  33.479  25.159  13.366
 8085W        W67588  18.099  24.542  11.427
 8086W        W67589   7.688  10.734   2.201
 8087W        W67590  36.971  24.640   0.847
 8088W        W67591  30.455  40.028  12.955
 8089W        W67592  11.807   1.976   4.756
 8090W        W67593  19.267  29.470   4.676
 8091W        W67594  18.557  32.002  14.383
 8092W        W67595  27.574  37.338  11.062
 8093W        W67596  16.722  10.794  13.834
 8094W        W67597  38.356  17.646   3.663
 8095W        W67598   3.776  40.495  11.541
 8096W        W67599  38.941   6.698  12.974
 8097W        W67600  43.284  17.795   0.408
 8098W        W67601  18.602   1.778  11.114
 8099W        W67602  21.263   3.458  13.332
 8100W        W67603  18.208  17.609   4.742
 8101W        W67604  14.644  18.071  10.898
 8102W        W67605   7.905  15.154   2.705
 8103W        W67606  31.578  41.390   1.758
 8104W        W67607  40.342  13.292  12.029
 8105W        W67608  21.681  43.892  12.573
 8106W        W67609  20.141  40.352  13.894
 8107W        W67610  14.125   0.898  13.479
 8108W        W67611  21.050   6.212  12.081
 8109W        W67612   4.770  34.902  10.457
 8110W        W67613  27.163  16.319   4.185
 8111W        W67614  19.566  24.202   4.244
 8112W        W67615  16.809  28.566  14.348
 8113W        W67616  29.434  42.348   3.811
 8114W        W67617  38.443   3.282  14.378
 8115W        W67618  18.550   7.909  11.099
 8116W        W67619   1.953  44.897   4.663
 8117W        W67620  23.680  22.996   2.749
 8118W        W67621  30.570  40.850   0.728
 8119W        W67622  22.096  40.338   3.315
 8120W        W67623  11.342  42.425  12.560
 8121W        W67624  24.539   7.193  10.594
 8122W        W67625  24.043  19.088   0.476
 8123W        W67626  33.968   9.711  10.966
 8124W        W67627   3.759  35.015  12.894
 8125W        W67628   0.470  29.120   4.151
 8126W        W67629   2.915  28.171  14.463
 8127W        W67630   6.248   8.847  13.802
 8128W        W67631  29.154  42.995  10.437
 8129W        W67632  22.233   6.197   1.257
 8130W        W67633  33.009  34.456   1.822
 8131W        W67634  20.053  28.446   0.909
 8132W        W67635  14.742  22.165   2.333
 8133W        W67636   4.399  15.301  11.053
 8134W        W67637  35.971  20.656   1.382
 8135W        W67638  10.797   1.469  12.402
 8136W        W67639  21.675  10.188   4.312
 8137W        W67640  40.422  28.502   3.374
 8138W        W67641   6.261  26.064   1.310
 8139W        W67642  34.027  35.501   0.787
 8140W        W67643  19.245  18.710   0.874
 8141W        W67644  37.374   8.664   9.951
 8142W        W67645  35.916  37.078   0.304
 8143W        W67646   3.233   2.361  10.889
 8144W        W67647   7.411  11.202  11.943
 8145W        W67648  40.044   5.809   0.298
 8146W        W67649  15.583   9.758  10.997
 8147W        W67650  23.129  42.966   1.898
 8148W        W67651   8.282  24.496   1.833
 8149W        W67652  21.577  35.952  14.978
 8150W        W67653   3.392  31.517  12.391
 8151W        W67654  31.556  16.807   3.668
 8152W        W67655   6.829  41.322   1.881
 8153W        W67656  16.798  30.497  11.958
 8154W        W67657  38.444   0.812  14.810
 8155W        W67658  44.439  24.199   4.809
 8156W        W67659  23.674  12.812  10.609
 8157W        W67660  24.056   0.369  14.965
 8158W        W67661  35.361   3.784   1.927
 8159W        W67662  19.231  33.407  12.062
 8160W        W67663  29.976  34.011   1.712
 8161W        W67664  23.656  31.636  12.839
 8162W        W67665  18.117  25.031   0.471
 8163W        W67666  30.470  22.594  11.980
 8164W        W67667  34.102  21.538   1.248
 8165W        W67668  37.052  34.401   4.187
 8166W        W67669  14.621   8.676   0.772
 8167W        W67670  24.572  35.950   2.892
 8168W        W67671   2.445   5.712   2.179
 8169W        W67672  25.047  24.529  11.097
 8170W        W67673  41.510   8.175   4.272
 8171W        W67674  41.883  32.486   0.291
 8172W        W67675  14.167  36.864   1.280
 8173W        W67676  21.134  37.039   2.747
 8174W        W67677   2.916  35.027   4.295
 8175W        W67678  29.560  16.759   5.257
 8176W        W67679  20.745  13.732  14.775
 8177W        W67680  21.127  12.749  13.403
 8178W        W67681  21.603  16.264   2.336
 8179W        W67682  16.685  18.200  12.924
 8180W        W67683  42.871  29.580  12.908
 8181W        W67684   2.470   7.715  11.457
 8182W        W67685  23.213  31.945  12.536
 8183W        W67686  11.228  28.061   3.650
 8184W        W67687  13.643  17.788  14.767
 8185W        W67688  44.814  23.696   3.215
 8186W        W67689  22.587  23.098   4.132
 8187W        W67690  22.542  43.907  11.933
 8188W        W67691  28.947   4.889  14.323
 8189W        W67692   6.860  19.579  12.073
 8190W        W67693  43.372  16.156   1.911
 8191W        W67694  17.646  37.395  10.488
 8192W        W67695  30.942  20.701  12.393
 8193W        W67696  17.636  23.668  13.476
 8194W        W67697  18.746  12.769  12.049
 8195W        W67698  36.434  42.338   2.386
 8196W        W67699  10.857  19.058   1.846
 8197W        W67700  32.409  17.755   3.800
 8198W        W67701  21.701   1.780   9.922
 8199W        W67702  41.400  11.824   0.845
 8200W        W67703  10.349  27.186   2.387
 8201W        W67704  42.867  38.474  11.025
 8202W        W67705  14.779   2.375  13.525
 8203W        W67706  21.061  10.827   5.257
 8204W        W67707  35.050  10.793   2.798
 8205W        W67708  32.511   4.864   2.681
 8206W        W67709   6.251  44.827  10.080
 8207W        W67710  22.021  17.759   1.914
 8208W        W67711  13.832  26.628  11.505
 8209W        W67712  40.009  18.694  10.465
 8210W        W67713  28.018  18.221  12.921
 8211W        W67714  32.421  16.781  11.883
 8212W        W67715  41.473  10.330  12.853
 8213W        W67716  33.121  24.981  11.608
 8214W        W67717   4.314  24.683   1.439
 8215W        W67718  28.660  44.439   2.776
 8216W        W67719  26.462  20.235  14.287
 8217W        W67720  22.542  36.449   2.766
 8218W        W67721  35.443  38.524   3.779
 8219W        W67722   0.925  24.697   1.847
 8220W        W67723   4.264  13.238   2.664
 8221W        W67724  13.244  21.531   4.122
 8222W        W67725  23.607  29.145  14.440
 8223W        W67726  33.470  22.689  12.930
 8224W        W67727  35.031  22.644  12.347
 8225W        W67728  11.729  13.747  10.626
 8226W        W67729  40.421  19.696  10.921
 8227W        W67730  21.113  24.098   3.871
 8228W        W67731   3.844   8.311  13.513
 8229W        W67732  32.559  39.366   3.744
 8230W        W67733  30.643  20.592   1.889
 8231W        W67734  13.348   9.701   0.339
 8232W        W67735  38.491   2.294  11.056
 8233W        W67736   2.403  25.122   4.604
 8234W        W67737  27.675   4.401  14.455
 8235W        W67738  41.824  44.798   0.251
 8236W        W67739  20.768   4.719  13.483
 8237W        W67740  32.545  17.060  14.951
 8238W        W67741   7.219  18.176  12.352
 8239W        W67742   7.373   0.954  11.120
 8240W        W67743   3.953  19.553  11.096
 8241W        W67744  24.588  35.569   2.777
 8242W        W67745  28.593  21.156   1.380
 8243W        W67746  37.980  34.012  12.096
 8244W        W67747  24.995  42.825  10.569
 8245W        W67748   3.427   5.193  11.529
 8246W        W67749  37.068  29.649  11.600
 8247W        W67750  34.964  44.265   0.754
 8248W        W67751  41.969   8.370  14.506
 8249W        W67752  12.638  31.080  14.278
 8250W        W67753  19.584  31.576  12.978
 8251W        W67754  43.768  25.219   2.734
 8252W        W67755  25.470  12.617   1.703
 8253W        W67756  30.539  29.024   1.313
 8254W        W67757  18.082  38.451   1.398
 8255W        W67758  18.687  15.767   3.169
 8256W        W67759  20.212  14.764  13.894
 8257W        W67760   9.653   4.215   2.699
 8258W        W67761   2.926   7.823   4.733
 8259W        W67762  15.621  37.384   2.253
 8260W        W67763   2.380  41.470  11.551
 8261W        W67764  14.255  35.599   4.165
 8262W        W67765  25.497  30.923  13.503
 8263W        W67766  29.988  43.911   1.445
 8264W        W67767  38.520  28.478  13.925
 8265W        W67768   9.187  12.674  10.103
 8266W        W67769  11.165  27.022  13.791
 8267W        W67770  30.977  15.763   3.369
 8268W        W67771  32.427  37.387   3.745
 8269W        W67772  12.658  17.662  10.630
 8270W        W67773  19.157  12.122   2.784
 8271W        W67774  33.886  42.527   1.406
 8272W        W67775  21.710  19.131   1.263
 8273W        W67776  19.539  23.683  13.895
 8274W        W67777  42.816  37.002  12.823
 8275W        W67778   3.789  10.659  12.920
 8276W        W67779  42.313  18.173   3.328
 8277W        W67780   5.909  26.078   1.784
 8278W        W67781  23.160   6.898   3.270
 8279W        W67782  35.900  19.139   3.204
 8280W        W67783  26.611  39.437  13.872
 8281W        W67784   8.354  41.968  14.301
 8282W        W67785  25.192  39.904   0.280
 8283W        W67786  35.409  25.705  14.974
 8284W        W67787  39.923  14.209   4.650
 8285W        W67788  24.661   7.740   2.879
 8286W        W67789  30.938  43.779  10.962
 8287W        W67790  13.133  20.610  13.512
 8288W        W67791  44.864  43.328  14.373
 8289W        W67792  33.494   0.806  11.027
 8290W        W67793  40.833  30.538   3.830
 8291W        W67794  21.625  24.158   4.782
 8292W        W67795   7.368   7.704   2.752
 8293W        W67796  44.485   0.389  10.963
 8294W        W67797  42.392   8.242  13.850
 8295W        W67798   9.166  23.051  11.971
 8296W        W67799   0.414  44.336  13.042
 8297W        W67800  23.684  23.233  13.322
 8298W        W67801  19.603   2.891  10.514
 8299W        W67802  22.209  16.158  13.387
 8300W        W67803   3.758  35.368   0.438
 8301W        W67804  11.707   9.342   1.235
 8302W        W67805  38.064  21.551   1.817
 8303W        W67806   8.662  30.646  13.347
 8304W        W67807   5.200  32.415   3.319
 8305W        W67808  27.679  43.472   1.286
 8306W        W67809  44.411  15.250  14.421
 8307W        W67810   4.701  42.472   1.731
 8308W        W67811  29.172  18.098   2.387
 8309W        W67812  14.174  36.962   3.380
 8310W        W67813  41.360  17.299   5.123
 8311W        W67814  37.539  12.130  11.556
 8312W        W67815  33.953  28.142   4.826
 8313W        W67816  15.676  40.528   4.218
 8314W        W67817  34.869  40.819   3.766
 8315W        W67818  36.071  26.456  12.383
 8316W        W67819  17.094   6.208   0.371
 8317W        W67820  40.989   3.902   2.703
 8318W        W67821  43.804  30.590  13.525
 8319W        W67822  23.990  31.050  11.463
 8320W        W67823  40.489  17.234   2.810
 8321W        W67824   5.410   2.735  11.012
 8322W        W67825   4.415  33.446   4.138
 8323W        W67826  18.066  12.689   3.317
 8324W        W67827  26.100   7.773  14.497
 8325W        W67828   8.349  14.213  10.111
 8326W        W67829  27.943  25.470  14.819
 8327W        W67830  36.089  10.687  10.608
 8328W        W67831  42.809  22.185  11.372
 8329W        W67832  25.566  19.148  13.890
 8330W        W67833  36.079  14.714  11.077
 8331W        W67834   9.315   8.291  10.455
 8332W        W67835  19.264  28.518  13.537
 8333W        W67836   1.280  39.963   0.752
 8334W        W67837  10.197  11.669   4.810
 8335W        W67838  38.854  27.603  11.512
 8336W        W67839  14.713  31.556  14.820
 8337W        W67840  20.070  44.461  13.322
 8338W        W67841  10.248  31.927   2.737
 8339W        W67842  25.036   5.759  13.854
 8340W        W67843  40.851  22.238  10.419
 8341W        W67844  28.154  33.469  14.462
 8342W        W67845  43.276   1.874   1.427
 8343W        W67846   2.296  24.558  14.026
 8344W        W67847  26.456  26.607   3.166
 8345W        W67848   8.281  30.134  12.498
 8346W        W67849   6.700  22.220  12.919
 8347W        W67850  21.112  13.802  12.416
 8348W        W67851   4.397  33.612   1.722
 8349W        W67852  15.764   6.305   3.276
 8350W        W67853  16.590  14.629  12.080
 8351W        W67854  26.524  23.004  11.055
 8352W        W67855  21.028   8.871  13.913
 8353W        W67856  26.060   1.387   3.271
 8354W        W67857  20.694  35.428   2.244
 8355W        W67858  43.373  37.863   2.692
 8356W        W67859  16.607   5.419  13.851
 8357W        W67860  12.778  20.194  10.522
 8358W        W67861  17.727  10.753  12.418
 8359W        W67862  10.157  34.512   4.731
 8360W        W67863  35.927  24.616  13.527
 8361W        W67864  11.708  15.125   0.352
 8362W        W67865  24.116  22.218  11.391
 8363W        W67866  10.633  32.407  12.084
 8364W        W67867  10.202  14.620  13.929
 8365W        W67868   2.801  11.746   1.432
 8366W        W67869  25.494   7.874  12.386
 8367W        W67870  15.114  39.915  14.875
 8368W        W67871  44.268   4.702  10.097
 8369W        W67872  30.470  36.500   0.809
 8370W        W67873  33.605  23.003   2.894
 8371W        W67874  17.597   9.732   4.634
 8372W        W67875  39.855  34.111   0.731
 8373W        W67876  37.991  18.128   3.673
 8374W        W67877  25.511   0.279  11.539
 8375W        W67878  22.076  15.725  11.482
 8376W        W67879  28.164  23.191   1.221
 8377W        W67880  37.474  17.099   3.845
 8378W        W67881  25.043  44.348   0.899
 8379W        W67882  35.530  40.994   2.823
 8380W        W67883  22.602  35.884   3.291
 8381W        W67884  29.941  27.185   1.776
 8382W        W67885   0.278   2.861  14.292
 8383W        W67886  33.419   6.907   3.770
 8384W        W67887  24.509   0.252  14.989
 8385W        W67888  41.308  39.331  12.556
 8386W        W67889  32.514  10.710  11.999
 8387W        W67890  25.520   2.886   1.912
 8388W        W67891   1.788   6.804  10.538
 8389W        W67892  22.071  39.911   1.280
 8390W        W67893  11.809  26.094  14.956
 8391W        W67894  12.309   9.800  11.448
 8392W        W67895  38.876  12.742  14.389
 8393W        W67896  15.736  20.732   3.773
 8394W        W67897  26.517  25.143   3.701
 8395W        W67898   3.828   1.410  14.804
 8396W        W67899  34.467   0.867   3.231
 8397W        W67900  26.668  23.631  14.816
 8398W        W67901   8.721  28.556   4.125
 8399W        W67902  19.062   4.699  14.798
 8400W        W67903  14.307  20.552   2.194
 8401W        W67904  14.752  32.020   3.815
 8402W        W67905  16.755  44.997  10.505
 8403W        W67906  15.249  41.510   4.755
 8404W        W67907   5.848   1.284  11.902
 8405W        W67908  34.385   7.802   1.701
 8406W        W67909  34.000   9.303  14.395
 8407W        W67910  42.820   3.768  14.830
 8408W        W67911  33.450   0.807  12.558
 8409W        W67912  25.175  11.156  13.410
 8410W        W67913   6.242  22.533   1.733
 8411W        W67914   2.304  21.102  11.087
 8412W        W67915  31.917  28.006  14.880
 8413W        W67916  35.073   6.259   3.235
 8414W        W67917  31.585  23.680   4.327
 8415W        W67918  19.071  43.880   2.700
 8416W        W67919  30.968   3.352   4.765
 8417W        W67920  34.035  36.043  13.992
 8418W        W67921   3.916  14.096  10.932
 8419W        W67922   1.845  13.793  12.873
 8420W        W67923  16.299  33.552  10.158
 8421W        W67924  30.508  24.565   4.261
 8422W        W67925  20.524  11.309  11.902
 8423W        W67926  37.836  13.673   1.716
 8424W        W67927  10.367  41.321   2.898
 8425W        W67928   4.379  28.149   2.223
 8426W        W67929  20.104  17.710   4.781
 8427W        W67930   7.383  24.978   1.916
 8428W        W67931  33.048   3.809  10.901
 8429W        W67932   7.311  33.608   1.733
 8430W        W67933  37.043   9.723   4.178
 8431W        W67934  22.055  14.812   1.842
 8432W        W67935  16.736  25.024  11.004
 8433W        W67936  42.871  44.831  12.502
 8434W        W67937  22.713  18.638  10.612
 8435W        W67938  21.057  38.489   4.734
 8436W        W67939  41.358   4.439   3.643
 8437W        W67940  36.381  24.627  11.969
 8438W        W67941  19.651   7.297  12.090
 8439W        W67942  16.277   8.831  11.510
 8440W        W67943  40.961  21.714  11.528
 8441W        W67944  36.384  35.092   1.748
 8442W        W67945  20.034  18.155  14.301
 8443W        W67946  26.968  38.921  13.978
 8444W        W67947  26.630  21.736  10.431
 8445W        W67948  30.615   5.726  14.341
 8446W        W67949   8.823   2.910  11.887
 8447W        W67950   1.269  31.573   5.625
 8448W        W67951  28.611   3.738  11.388
 8449W        W67952  12.295  36.422   0.378
 8450W        W67953  26.997  38.381   0.307
 8451W        W67954  18.248  17.116  12.832
 8452W        W67955  24.121   0.399   0.825
 8453W        W67956   0.910  18.553  13.058
 8454W        W67957  28.104  21.724   0.737
 8455W        W67958  42.503  23.084  11.456
 8456W        W67959  44.489  30.063  11.519
 8457W        W67960  36.589   7.191   0.434
 8458W        W67961   7.870  15.285  12.031
 8459W        W67962  18.079  22.506  11.463
 8460W        W67963  24.049  13.158  11.454
 8461W        W67964  35.419  29.432   3.279
 8462W        W67965  15.143  40.026   0.954
 8463W        W67966   9.724  36.972  14.954
 8464W        W67967   9.855   9.819   1.265
 8465W        W67968  20.649   7.258  12.990
 8466W        W67969  19.061  38.352   3.176
 8467W        W67970   9.166  25.988   2.811
 8468W        W67971  33.614   5.391  13.488
 8469W        W67972  13.182  35.468  10.454
 8470W        W67973   6.799   1.768  11.942
 8471W        W67974  23.068  30.955  14.960
 8472W        W67975  40.365  42.778  13.451
 8473W        W67976  15.197  24.661  12.389
 8474W        W67977   1.314   0.824   1.364
 8475W        W67978  44.961  28.444   4.706
 8476W        W67979  25.644  33.455   2.277
 8477W        W67980  28.078  23.572  13.029
 8478W        W67981  28.097  19.695  11.923
 8479W        W67982  17.570  39.534   4.800
 8480W        W67983   9.252  14.264  12.056
 8481W        W67984   8.886  29.932   0.939
 8482W        W67985  17.687   2.389   0.958
 8483W        W67986   0.272  29.428   3.275
 8484W        W67987  23.617  41.024  13.321
 8485W        W67988   7.250  19.143  13.399
 8486W        W67989  38.925  32.960   4.633
 8487W        W67990   9.758  25.131  11.945
 8488W        W67991   8.721  10.872   1.410
 8489W        W67992  31.074  18.653   2.404
 8490W        W67993  21.147  18.624   5.286
 8491W        W67994   3.378  14.589  10.554
 8492W        W67995  10.185  13.271   1.437
 8493W        W67996  18.745  38.023   3.815
 8494W        W67997   3.377  37.901  10.606
 8495W        W67998  37.926  11.692  12.928
 8496W        W67999  14.154  10.753  13.366
 8497W        W68000  20.529   5.847  11.126
 8498W        W68001   2.451  25.567  13.839
 8499W        W68002  20.582  36.931  13.454
 8500W        W68003   3.798  25.181  12.848
 8501W        W68004  35.857  33.554  12.575
 8502W        W68005  25.048  41.804  14.979
 8503W        W68006  32.492   9.305  13.936
 8504W        W68007  26.100  13.186   2.236
 8505W        W68008  40.546  21.139   1.323
 8506W        W68009  13.627  30.936  13.806
 8507W        W68010  36.350  34.067   3.308
 8508W        W68011  10.668  33.990   0.421
 8509W        W68012  32.502  20.602   2.812
 8510W        W68013  23.712   7.385  12.444
 8511W        W68014   9.699  15.735  13.451
 8512W        W68015   5.869  25.190  10.951
 8513W        W68016  20.757   5.193   0.368
 8514W        W68017   7.790  42.815   3.204
 8515W        W68018  31.585  35.517  12.975
 8516W        W68019  42.294  13.599  13.982
 8517W        W68020   8.658  14.755  13.418
 8518W        W68021   1.425  16.274  13.837
 8519W        W68022  39.449  35.456  14.910
 8520W        W68023  33.575  12.712  12.468
 8521W        W68024  10.724  28.667   0.472
 8522W        W68025   4.914  33.089   2.837
 8523W        W68026   5.235   9.215  13.861
 8524W        W68027  20.263  16.585   0.828
 8525W        W68028   5.688  15.215   0.744
 8526W        W68029  18.285  32.492   4.224
 8527W        W68030  43.891  11.332  13.488
 8528W        W68031  33.484  36.380  12.527
 8529W        W68032  28.048   7.665  12.547
 8530W        W68033  30.912  33.591  12.900
 8531W        W68034  16.170  15.127   1.896
 8532W        W68035  15.778  18.254  12.934
 8533W        W68036  20.726  43.427   4.226
 8534W        W68037  14.789  30.061  13.826
 8535W        W68038  36.053  25.216   3.386
 8536W        W68039  15.310  42.367   2.304
 8537W        W68040  42.861  41.866   5.100
 8538W        W68041  13.708  23.568   1.427
 8539W        W68042  22.225  28.483   1.388
 8540W        W68043  18.745  42.451  14.458
 8541W        W68044  23.017  19.577   1.228
 8542W        W68045  27.683  19.659  10.920
 8543W        W68046  34.942   4.823  13.433
 8544W        W68047  41.332  44.766   1.423
 8545W        W68048  29.923  10.161  11.404
 8546W        W68049  23.500  24.983   3.841
 8547W        W68050  31.629  24.481  14.779
 8548W        W68051  44.398  39.013   3.185
 8549W        W68052  31.068  18.735  10.528
 8550W        W68053  34.004   1.465  12.376
 8551W        W68054  32.938  23.622   0.354
 8552W        W68055  36.006   3.334  14.888
 8553W        W68056  22.544  18.612   4.232
 8554W        W68057  42.015  39.506  14.513
 8555W        W68058  37.559  10.269  11.602
 8556W        W68059  26.685   3.908  13.484
 8557W        W68060  33.042  37.888  12.549
 8558W        W68061  44.764  14.206   1.736
 8559W        W68062  37.560  25.966  13.374
 8560W        W68063  43.909  30.131   3.825
 8561W        W68064  43.473  10.166  12.896
 8562W        W68065  36.895  40.840   3.635
 8563W        W68066   7.415   8.341   2.697
 8564W        W68067  26.472   1.829   5.277
 8565W        W68068   8.183  10.734  14.290
 8566W        W68069  21.245   2.866   2.807
 8567W        W68070  22.500  43.329   2.413
 8568W        W68071  30.937  10.212   0.837
 8569W        W68072  41.459  23.168   2.209
 8570W        W68073  30.084  17.125   0.925
 8571W        W68074   7.366  20.273   4.638
 8572W        W68075  40.023  11.173   0.885
 8573W        W68076  27.554  25.172   1.263
 8574W        W68077  25.025  16.714  11.917
 8575W        W68078  30.977   2.303   2.343
 8576W        W68079  43.440   4.800   2.715
 8577W        W68080  32.903  11.174   2.824
 8578W        W68081  24.045   8.394  11.540
 8579W        W68082  28.963  19.546  14.988
 8580W        W68083  38.347  14.174  14.501
 8581W        W68084  17.692  42.282   2.397
 8582W        W68085  31.511  17.583   3.274
 8583W        W68086  35.552  23.526  13.534
 8584W        W68087   0.792  25.089  12.990
 8585W        W68088  36.475   0.951   5.147
 8586W        W68089  34.938   6.423   2.225
 8587W        W68090  27.108   1.428  14.434
 8588W        W68091   2.417  25.595  11.986
 8589W        W68092  38.424  17.084   3.354
 8590W        W68093   7.723   0.361  13.027
 8591W        W68094  37.860   6.801   2.867
 8592W        W68095   8.397  14.728   5.211
 8593W        W68096  27.522  17.219   4.181
 8594W        W68097  26.465  41.888  12.510
 8595W        W68098  42.288  34.005   2.861
 8596W        W68099  42.937  26.044  14.470
 8597W        W68100   7.691  43.477  12.989
 8598W        W68101  23.512   8.318  10.566
 8599W        W68102  27.589  34.958   2.336
 8600W        W68103  22.235  27.529  13.791
 8601W        W68104  25.549  27.642   4.166
 8602W        W68105  43.884   0.254  11.500
 8603W        W68106   3.265   4.330  12.548
 8604W        W68107  24.611  11.819  13.545
 8605W        W68108  12.776   2.285  13.352
 8606W        W68109  12.257  30.499   0.840
 8607W        W68110  23.712  23.139   3.779
 8608W        W68111  24.048  38.955   3.207
 8609W        W68112  14.803  37.973  11.447
 8610W        W68113  11.127  39.841  14.777
 8611W        W68114  20.209  17.081  14.003
 8612W        W68115  25.531   8.839   5.171
 8613W        W68116  27.178  34.070   1.769
 8614W        W68117  15.640  19.766   2.412
 8615W        W68118  42.491  15.765   2.777
 8616W        W68119  32.074   2.831  13.383
 8617W        W68120   8.761   8.683   2.390
 8618W        W68121  15.122  42.988  12.383
 8619W        W68122   4.214  41.425  12.570
 8620W        W68123  31.647  12.843   2.323
 8621W        W68124  34.924  35.101   2.367
 8622W        W68125  13.765  17.650   2.815
 8623W        W68126  33.063  24.128   4.195
 8624W        W68127  33.079  13.826   1.703
 8625W        W68128  35.365   0.761  10.629
 8626W        W68129   3.868   7.203   4.724
 8627W        W68130   1.454  10.162   4.623
 8628W        W68131  44.986  26.106  10.918
 8629W        W68132  10.376   2.442   3.791
 8630W        W68133  31.608  29.082   2.854
 8631W        W68134  11.719  39.386   4.701
 8632W        W68135  19.269  20.692   0.255
 8633W        W68136   9.736   9.703  14.875
 8634W        W68137  10.207  29.966  12.394
 8635W        W68138  38.048   3.781  14.493
 8636W        W68139  34.494  42.515  11.579
 8637W        W68140  17.658  12.297   0.289
 8638W        W68141   6.332  33.127   3.718
 8639W        W68142  19.243   5.213   0.475
 8640W        W68143  36.921   6.766  12.397
 8641W        W68144  16.275  26.653   4.326
 8642W        W68145  15.620  27.567   1.439
 8643W        W68146  31.929  20.707   0.826
 8644W        W68147   8.769  29.622  14.371
 8645W        W68148  43.812  23.619  14.367
 8646W        W68149   6.245  35.000  14.466
 8647W        W68150  30.616  29.637   0.280
 8648W        W68151   7.417  34.936   1.276
 8649W        W68152  33.421  35.469  13.007
 8650W        W68153  23.513  34.456  11.938
 8651W        W68154  33.954  28.644   3.378
 8652W        W68155  28.483   8.330   0.450
 8653W        W68156   7.283  12.794   4.731
 8654W        W68157  38.446  43.303   1.759
 8655W        W68158  37.498  13.771   0.435
 8656W        W68159  27.012  22.999   2.878
 8657W        W68160  11.284  21.153   4.614
 8658W        W68161  21.143  11.360   0.429
 8659W        W68162  36.577  16.723  14.939
 8660W        W68163  34.038  32.035  13.834
 8661W        W68164  28.555  22.646   0.820
 8662W        W68165   2.746   8.377   0.294
 8663W        W68166  28.014  29.579  12.531
 8664W        W68167  13.270  40.910   2.680
 8665W        W68168  13.739  35.080  13.368
 8666W        W68169  33.969  35.854   0.807
 8667W        W68170  12.751  28.094  14.492
 8668W        W68171  29.969   2.940  12.848
 8669W        W68172  31.494  27.157   2.194
 8670W        W68173  29.490  23.127   4.347
 8671W        W68174  29.486   8.713   3.806
 8672W        W68175   0.946  34.069   1.360
 8673W        W68176  31.993  34.077   1.341
 8674W        W68177  18.118  19.249  10.930
 8675W        W68178  12.752  18.262   4.324
 8676W        W68179  35.078  37.405  11.887
 8677W        W68180  30.025  28.550   4.215
 8678W        W68181  23.639  30.637  14.843
 8679W        W68182  16.259  42.523  12.999
 8680W        W68183   0.291  38.945  12.087
 8681W        W68184  19.746  36.909   1.705
 8682W        W68185  29.505  12.194   2.698
 8683W        W68186   3.323  44.762  12.374
 8684W        W68187   0.823  36.581  14.943
 8685W        W68188  30.025  14.103  13.973
 8686W        W68189  32.001   0.469   3.230
 8687W        W68190  19.061  33.113   3.149
 8688W        W68191  33.401  34.514   0.466
 8689W        W68192  27.508  43.935   2.687
 8690W        W68193  22.670  21.225   2.697
 8691W        W68194  25.153  24.979   0.892
 8692W        W68195  11.671   5.297  14.971
 8693W        W68196   2.895  36.005   0.243
 8694W        W68197  41.982  18.283   0.948
 8695W        W68198  29.513  17.574  12.342
 8696W        W68199  29.060  37.961  14.476
 8697W        W68200  13.698  24.558  11.427
 8698W        W68201  35.900  43.314   2.237
 8699W        W68202  29.630  43.399   2.178
 8700W        W68203   6.385   4.731   1.370
 8701W        W68204   1.941  24.653   4.289
 8702W        W68205  23.026  29.933  14.790
 8703W        W68206   6.774   7.777   1.726
 8704W        W68207  35.593  11.304  11.919
 8705W        W68208  13.683   9.281   3.333
 8706W        W68209  36.408  35.360   3.806
 8707W        W68210  42.895   2.389  13.000
 8708W        W68211   0.261   4.261   2.759
 8709W        W68212  24.705  35.901   3.714
 8710W        W68213   6.327  36.854  13.899
 8711W        W68214  12.209  24.088  14.894
 8712W        W68215   1.293  26.091  12.083
 8713W        W68216  29.053  24.148  11.045
 8714W        W68217  36.352   2.420  13.433
 8715W        W68218  10.273  31.451   4.354
 8716W        W68219  39.939  23.041  12.480
 8717W        W68220  39.324   5.809  13.011
 8718W        W68221   4.231  32.542   4.274
 8719W        W68222  23.022   0.955   0.254
 8720W        W68223  38.472  29.032   1.277
 8721W        W68224  42.920  43.891   3.677
 8722W        W68225  28.680  39.930   3.163
 8723W        W68226   2.946  25.009   2.790
 8724W        W68227   0.479   1.823  12.568
 8725W        W68228   8.747  26.959   2.413
 8726W        W68229  33.483  22.517  14.289
 8727W        W68230  39.876  41.978   2.299
 8728W        W68231   9.274  38.904  11.993
 8729W        W68232   8.841  25.115   0.903
 8730W        W68233   0.367  29.547  12.020
 8731W        W68234  17.556  43.861   2.673
 8732W        W68235   9.335  38.329   4.665
 8733W        W68236   8.811  15.643   2.225
 8734W        W68237  35.396  27.074  14.990
 8735W        W68238  43.296  11.246  13.919
 8736W        W68239  19.734  12.129   2.845
 8737W        W68240  37.991  13.197  14.403
 8738W        W68241  39.905  40.910  14.911
 8739W        W68242  33.390  28.046   9.954
 8740W        W68243   9.154  29.150  10.444
 8741W        W68244   4.826  35.514  11.894
 8742W        W68245  35.399  19.270   4.717
 8743W        W68246  44.424  29.519   2.403
 8744W        W68247  28.611  36.851   5.747
 8745W        W68248   7.902  26.546  14.394
 8746W        W68249  29.462  34.451  14.889
 8747W        W68250   4.344  41.910   1.932
 8748W        W68251  28.528   9.829  12.942
 8749W        W68252  38.841   8.810  13.509
 8750W        W68253  17.073  19.201  11.069
 8751W        W68254  13.633  38.890   3.638
 8752W        W68255  17.723  22.567  13.949
 8753W        W68256  40.959  23.179   2.403
 8754W        W68257  24.079   2.856  14.830
 8755W        W68258  13.173  22.607  10.509
 8756W        W68259  14.663  10.197  12.578
 8757W        W68260   2.859  15.607  12.959
 8758W        W68261  14.608  39.377   1.808
 8759W        W68262  18.118  25.519  12.041
 8760W        W68263   1.940  26.096   0.390
 8761W        W68264  19.097  19.189  13.798
 8762W        W68265  15.792   9.719  13.798
 8763W        W68266  42.471  30.525   2.203
 8764W        W68267  22.202  21.050  13.899
 8765W        W68268  35.395  12.685  14.019
 8766W        W68269  15.580  37.088   3.658
 8767W        W68270  42.406   7.751   3.323
 8768W        W68271  30.124  19.195  10.985
 8769W        W68272  37.037   7.272  13.385
 8770W        W68273  27.143  10.231  14.761
 8771W        W68274  14.218  33.426   2.739
 8772W        W68275  36.370  30.101   2.885
 8773W        W68276   0.275  12.707  12.445
 8774W        W68277  35.009  30.158  11.889
 8775W        W68278  40.955  21.735   4.798
 8776W        W68279  44.448  27.028   3.647
 8777W        W68280  18.108  13.177  11.382
 8778W        W68281  27.646  44.831  11.086
 8779W        W68282   4.394   6.344  12.447
 8780W        W68283   5.802   1.971   4.810
 8781W        W68284  43.817  14.672  11.946
 8782W        W68285  19.742   0.870  10.940
 8783W        W68286  24.617  30.924  11.390
 8784W        W68287  12.764  11.821   0.894
 8785W        W68288  37.530   2.377  13.810
 8786W        W68289  30.987  19.205  10.438
 8787W        W68290   5.214  11.702   1.393
 8788W        W68291  15.115  43.319  13.327
 8789W        W68292   8.788  32.043   2.894
 8790W        W68293  26.980  27.136  13.929
 8791W        W68294   9.221  23.106   0.782
 8792W        W68295  33.980   1.852  13.902
 8793W        W68296  30.090  21.166   1.698
 8794W        W68297  13.763  37.862   1.238
 8795W        W68298  21.545   2.470  13.942
 8796W        W68299  20.730  39.376   4.631
 8797W        W68300  10.819  40.404  12.010
 8798W        W68301  24.644  25.503   3.324
 8799W        W68302  11.186  23.187   4.217
 8800W        W68303  28.024  33.483   4.814
 8801W        W68304  44.968  44.298  14.513
 8802W        W68305   3.807  19.643  13.421
 8803W        W68306   5.334   5.363   0.954
 8804W        W68307  33.946  10.830   3.799
 8805W        W68308   5.922  18.137  12.535
 8806W        W68309  38.020   3.718   1.337
 8807W        W68310  24.489  34.939  12.539
 8808W        W68311  20.045  19.255  13.308
 8809W        W68312  21.710  30.928  11.117
 8810W        W68313  37.936  44.381   0.280
 8811W        W68314  28.971  10.673   2.749
 8812W        W68315   6.396  14.212   2.367
 8813W        W68316  25.504  34.466   0.767
 8814W        W68317  39.360  37.373  10.449
 8815W        W68318  26.647  39.540  10.600
 8816W        W68319  41.914   0.801  12.022
 8817W        W68320  10.239  22.996  11.540
 8818W        W68321  35.028  24.030  13.432
 8819W        W68322  20.059   3.224  13.462
 8820W        W68323   8.762   8.266  11.112
 8821W        W68324   3.915  39.974   4.195
 8822W        W68325  30.151  33.425  11.107
 8823W        W68326  14.611  23.527  10.908
 8824W        W68327  24.665  15.106   3.767
 8825W        W68328   8.744  41.908   0.854
 8826W        W68329  25.206  29.008  14.318
 8827W        W68330  25.016  44.946  14.293
 8828W        W68331  36.501   2.935  12.456
 8829W        W68332  41.866   0.482  13.947
 8830W        W68333  37.549  39.984   3.680
 8831W        W68334  11.796  23.025   3.263
 8832W        W68335  41.525  36.470  12.548
 8833W        W68336  35.603  29.608  13.041
 8834W        W68337  32.582  13.820   0.895
 8835W        W68338  26.191  28.999  11.118
 8836W        W68339   4.701  20.650   3.840
 8837W        W68340  17.637  22.657   3.688
 8838W        W68341   5.374  19.675   4.755
 8839W        W68342  34.561  30.058   1.706
 8840W        W68343  15.690  19.081   0.929
 8841W        W68344  23.017  20.049  14.868
 8842W        W68345   7.894  36.887   3.673
 8843W        W68346  17.298  41.331   2.323
 8844W        W68347  30.076  16.646   2.850
 8845W        W68348   8.303   0.320  13.835
 8846W        W68349  28.441  17.772  11.001
 8847W        W68350  12.218  11.265   2.668
 8848W        W68351  28.548  35.049   4.342
 8849W        W68352  16.148   3.239   0.358
 8850W        W68353  31.020  36.976   2.355
 8851W        W68354  23.020  38.915   2.201
 8852W        W68355  12.272  35.389  14.388
 8853W        W68356   9.345   4.885   1.751
 8854W        W68357   9.834  39.435   4.725
 8855W        W68358  19.279   6.388   0.806
 8856W        W68359  34.942  39.340  13.901
 8857W        W68360  39.020  24.499   3.691
 8858W        W68361  20.117  25.499   0.839
 8859W        W68362   3.306   0.832   0.250
 8860W        W68363  25.994  25.130  10.940
 8861W        W68364   3.812  43.916   3.211
 8862W        W68365   1.413  36.015   3.806
 8863W        W68366  10.862  15.728   2.342
 8864W        W68367  38.852  24.485  10.972
 8865W        W68368  33.907  13.815  14.471
 8866W        W68369  19.651  27.604  11.881
 8867W        W68370  20.196  26.654   1.874
 8868W        W68371  17.781  41.962  11.936
 8869W        W68372  43.389  32.485   3.835
 8870W        W68373  12.285   3.815  10.582
 8871W        W68374  18.598  26.189  11.890
 8872W        W68375  15.276  28.158  11.545
 8873W        W68376  23.541  34.445   4.688
 8874W        W68377  15.279  21.124   1.905
 8875W        W68378   2.769  17.263   1.725
 8876W        W68379  11.160  14.640  10.410
 8877W        W68380  14.786  13.823  14.905
 8878W        W68381   3.366   9.271   5.179
 8879W        W68382  20.217  31.549  14.783
 8880W        W68383  26.699  38.556  12.537
 8881W        W68384  26.577  11.819   2.797
 8882W        W68385  38.955   4.245  11.388
 8883W        W68386  40.032  42.439   0.335
 8884W        W68387  43.296  28.547   3.312
 8885W        W68388  13.845   3.902   0.967
 8886W        W68389  34.459  20.558  11.479
 8887W        W68390  40.802  17.239   1.898
 8888W        W68391  38.563  18.614   2.777
 8889W        W68392  16.265   7.415  13.917
 8890W        W68393   8.229  42.337  12.035
 8891W        W68394   9.329  41.952  12.418
 8892W        W68395  19.266  37.872  10.983
 8893W        W68396  36.505  36.556   3.673
 8894W        W68397  22.710  27.113   0.790
 8895W        W68398  15.736  35.090   5.322
 8896W        W68399  14.206   9.854  13.018
 8897W        W68400  41.021  15.253   3.352
 8898W        W68401   2.437  35.502  13.924
 8899W        W68402  20.107  32.889   0.253
 8900W        W68403   7.776   8.277  12.069
 8901W        W68404  27.680  27.030   3.260
 8902W        W68405  12.263   6.720   1.769
 8903W        W68406   3.219   9.878  14.813
 8904W        W68407  27.577   5.736   4.159
 8905W        W68408  11.352  22.502   3.277
 8906W        W68409  31.539  24.565   0.954
 8907W        W68410  39.971  41.863   4.637
 8908W        W68411  17.292  31.076  12.551
 8909W        W68412  13.219  33.123  12.877
 8910W        W68413  36.895  18.154  10.958
 8911W        W68414  29.947  36.387  14.401
 8912W        W68415  19.698   1.286  11.927
 8913W        W68416  16.212  36.098  11.871
 8914W        W68417   4.859   9.828   5.245
 8915W        W68418  40.985   1.336  10.470
 8916W        W68419  22.142  37.982  10.941
 8917W        W68420   6.307  39.377  13.310
 8918W        W68421   4.228  37.956   4.813
 8919W        W68422  22.729   8.389  14.988
 8920W        W68423   2.297  18.696  12.420
 8921W        W68424  10.205   1.399   2.223
 8922W        W68425  35.065  26.635   2.320
 8923W        W68426  12.724   8.822  11.506
 8924W        W68427  25.167  17.707   2.740
 8925W        W68428  18.117  28.636  12.514
 8926W        W68429  44.898  37.549  10.975
 8927W        W68430  11.322  25.048   3.367
 8928W        W68431  38.032  31.468  11.118
 8929W        W68432   7.413  30.047  11.514
 8930W        W68433  39.449  43.846  13.456
 8931W        W68434  43.001   7.810  12.423
 8932W        W68435  36.078  40.423  12.864
 8933W        W68436  44.841  30.042   1.293
 8934W        W68437  21.054  38.074   4.616
 8935W        W68438  15.253  18.253  14.328
 8936W        W68439  12.802   4.748   3.732
 8937W        W68440   6.187  28.035   2.706
 8938W        W68441  32.899  39.553  12.894
 8939W        W68442  37.844  41.810   0.458
 8940W        W68443  31.624  34.460  12.398
 8941W        W68444  11.727  34.098   0.852
 8942W        W68445  13.242  35.532   1.760
 8943W        W68446   0.297  15.123   0.901
 8944W        W68447  34.904  22.187  10.614
 8945W        W68448  38.849  15.741  14.459
 8946W        W68449  11.752  18.180  14.950
 8947W        W68450  22.245  15.089  13.976
 8948W        W68451  18.098  27.676   0.268
 8949W        W68452  21.635   5.328   4.656
 8950W        W68453  27.164  16.659  12.491
 8951W        W68454  38.336  42.946   4.811
 8952W        W68455   4.315  32.963  10.539
 8953W        W68456   1.414  34.963  14.759
 8954W        W68457  13.620  10.288   1.277
 8955W        W68458  10.366   4.909  14.434
 8956W        W68459  37.899  24.633   3.310
 8957W        W68460   3.917  23.570   3.843
 8958W        W68461  39.992  10.849  12.410
 8959W        W68462  35.904  44.955   4.342
 8960W        W68463   2.730  13.258   3.340
 8961W        W68464  34.993  22.112   0.729
 8962W        W68465  23.172  16.610  13.320
 8963W        W68466  18.578  14.691  10.467
 8964W        W68467  40.323  40.538  11.859
 8965W        W68468  12.341  29.445  12.880
 8966W        W68469  36.555  15.312  14.906
 8967W        W68470  42.475  19.241   1.219
 8968W        W68471   8.664  39.882   4.291
 8969W        W68472   1.955   7.337   1.815
 8970W        W68473  26.043  40.542  14.766
 8971W        W68474  22.556  26.619  12.852
 8972W        W68475  34.507   5.688  11.866
 8973W        W68476   6.862   0.442   4.817
 8974W        W68477  19.275  17.289  11.044
 8975W        W68478  30.506  27.998   1.901
 8976W        W68479  24.607   9.211  14.446
 8977W        W68480  23.679   3.819   3.348
 8978W        W68481  44.895  16.623   1.743
 8979W        W68482   9.754  12.271   4.730
 8980W        W68483   5.255  43.427   5.108
 8981W        W68484  21.716  17.235   0.290
 8982W        W68485   3.398   3.734  12.906
 8983W        W68486  28.659  29.514  11.890
 8984W        W68487  13.759  44.919   4.279
 8985W        W68488  10.828   5.264  12.937
 8986W        W68489   3.380  11.726  14.293
 8987W        W68490   8.682  29.049   4.813
 8988W        W68491   8.742  36.032   1.853
 8989W        W68492  10.159   0.944  13.354
 8990W        W68493  30.528  36.019   0.874
 8991W        W68494   3.335   2.243   2.896
 8992W        W68495  35.360  38.547  12.499
 8993W        W68496   9.819  19.164   1.396
 8994W        W68497  15.729  14.179   3.656
 8995W        W68498  41.939   9.677   3.814
 8996W        W68499  12.275  38.452  14.017
 8997W        W68500  40.433  20.724  10.641
 8998W        W68501  17.628  10.802  13.967
 8999W        W68502  19.597  23.092  13.792
 9000W        W68503   7.300  32.577  10.528
 9001W        W68504   8.291   3.350   4.621
 9002W        W68505  18.111   1.317   4.236
 9003W        W68506  35.855  30.538  12.459
 9004W        W68507  42.304   3.852  14.025
 9005W        W68508  43.013  33.397   0.781
 9006W        W68509  32.078   8.760  14.893
 9007W        W68510  10.838  20.592  14.433
 9008W        W68511  15.821   3.864   1.751
 9009W        W68512  31.554  16.789  14.770
 9010W        W68513  10.789   8.239  14.282
 9011W        W68514  35.883  39.396   1.771
 9012W        W68515  14.197  42.450  14.801
 9013W        W68516  30.600  35.892   5.236
 9014W        W68517   1.767   9.885   3.356
 9015W        W68518   8.374   1.288  12.003
 9016W        W68519   7.407  31.472   4.742
 9017W        W68520  38.049  11.647   0.943
 9018W        W68521  11.639  35.906   5.313
 9019W        W68522   9.846  40.498  14.442
 9020W        W68523  14.830   5.203  14.840
 9021W        W68524   0.442  20.565   1.760
 9022W        W68525  42.515  10.289  12.963
 9023W        W68526  11.682  32.097  13.433
 9024W        W68527  37.833  24.128   0.268
 9025W        W68528  29.602  35.424   2.330
 9026W        W68529   2.326  21.545  13.526
 9027W        W68530   7.185  16.743  11.923
 9028W        W68531  40.402  24.220  13.032
 9029W        W68532  23.584  36.557   0.769
 9030W        W68533  15.738   1.749   0.259
 9031W        W68534   0.264  36.415   4.668
 9032W        W68535  40.535  19.775   9.976
 9033W        W68536   5.218  10.226  10.958
 9034W        W68537  16.778  16.266   3.679
 9035W        W68538  14.220  41.323   0.895
 9036W        W68539  18.209   7.666  13.810
 9037W        W68540  11.658   7.844   2.312
 9038W        W68541   1.933  15.298  12.842
 9039W        W68542   5.272  28.018   2.215
 9040W        W68543  22.079  33.985  12.341
 9041W        W68544  40.866  19.224  11.010
 9042W        W68545  25.603  33.917  12.524
 9043W        W68546  42.293  13.346   1.319
 9044W        W68547  10.824  42.927   2.322
 9045W        W68548   6.263  16.276  13.444
 9046W        W68549  24.611  23.004   4.114
 9047W        W68550  35.942  16.588   1.303
 9048W        W68551   4.795  10.834   1.422
 9049W        W68552  36.434  32.118  14.793
 9050W        W68553  13.329  17.069  14.005
 9051W        W68554  13.277  28.646  14.785
 9052W        W68555  26.058  31.909  14.829
 9053W        W68556  25.000  35.594   1.910
 9054W        W68557   9.656   1.460   1.252
 9055W        W68558  15.240  42.892   3.173
 9056W        W68559  40.326  19.739  14.843
 9057W        W68560  13.162  24.705   4.814
 9058W        W68561  44.843  42.884  13.933
 9059W        W68562  15.216  25.122  11.045
 9060W        W68563   9.233   8.260   4.671
 9061W        W68564   0.849   6.240   4.771
 9062W        W68565  34.499   5.418   1.290
 9063W        W68566  10.259  34.507   2.683
 9064W        W68567  32.043  22.088   1.417
 9065W        W68568  24.160  27.080   2.188
 9066W        W68569  17.586  30.153   4.656
 9067W        W68570  11.850   7.398  14.516
 9068W        W68571  40.990  34.977  11.529
 9069W        W68572  16.191  40.844   2.195
 9070W        W68573  31.466  10.284  12.525
 9071W        W68574  44.753  40.435  13.309
 9072W        W68575  32.612  10.779  13.875
 9073W        W68576  12.855   9.312   1.781
 9074W        W68577   8.229  38.552  14.911
 9075W        W68578   7.900  28.964  11.466
 9076W        W68579   1.774  35.504   0.964
 9077W        W68580  35.501  44.456  12.489
 9078W        W68581  31.523  25.548  13.349
 9079W        W68582  16.617   6.414  13.385
 9080W        W68583  39.872  44.003  10.522
 9081W        W68584  10.344  41.958  13.875
 9082W        W68585  12.846  43.289  12.066
 9083W        W68586   8.217  42.852   0.314
 9084W        W68587   2.448  34.501   2.829
 9085W        W68588  34.002  28.579  12.438
 9086W        W68589  42.947   9.790   3.312
 9087W        W68590  21.156   2.247  14.421
 9088W        W68591  30.507  15.684   4.751
 9089W        W68592  37.536  36.459   0.357
 9090W        W68593  41.977   0.764  13.350
 9091W        W68594  42.526   3.451  12.860
 9092W        W68595  35.858  17.696  11.115
 9093W        W68596  42.835  34.462   1.710
 9094W        W68597  29.515  38.476  13.473
 9095W        W68598  44.368  13.269  10.562
 9096W        W68599  18.294   2.883  14.801
 9097W        W68600  39.435  30.136  12.529
 9098W        W68601  19.257  28.605   3.211
 9099W        W68602  36.964  38.558  11.522
 9100W        W68603  29.003  35.468   4.710
 9101W        W68604  26.489   4.877   0.959
 9102W        W68605  21.734   0.480   9.475
 9103W        W68606  39.869  13.846   1.320
 9104W        W68607  10.793  35.415   2.891
 9105W        W68608  33.890  22.190  14.860
 9106W        W68609  38.867  25.611  11.119
 9107W        W68610  22.690  36.457  14.958
 9108W        W68611  12.208  25.519   4.261
 9109W        W68612  21.110  36.580  14.380
 9110W        W68613   5.826  10.782  12.479
 9111W        W68614  23.519  13.711  13.939
 9112W        W68615  18.099  23.598   4.257
 9113W        W68616  25.092  10.739  12.362
 9114W        W68617  23.013  27.688  13.497
 9115W        W68618  44.356  15.650  13.421
 9116W        W68619  26.573  11.678   0.939
 9117W        W68620  36.549  27.151  11.458
 9118W        W68621  14.647  22.094   0.259
 9119W        W68622  11.841  16.638  10.533
 9120W        W68623  13.195  37.927   0.399
 9121W        W68624  42.421   5.744  13.444
 9122W        W68625   5.300   8.394  10.915
 9123W        W68626  13.750   5.266  10.552
 9124W        W68627  28.673  34.115   4.249
 9125W        W68628  44.326   8.220  13.945
 9126W        W68629  11.151  32.433   2.181
 9127W        W68630   5.204   7.740   3.323
 9128W        W68631  15.172   8.300   4.734
 9129W        W68632  24.667  37.398   2.708
 9130W        W68633   1.907   2.872   2.768
 9131W        W68634   5.691  29.663   4.710
 9132W        W68635  35.985   0.400  12.010
 9133W        W68636  31.568  11.847  14.867
 9134W        W68637  11.358  18.276   0.873
 9135W        W68638  33.937   8.224  12.384
 9136W        W68639   4.871  20.630  11.991
 9137W        W68640  30.978  10.848   2.197
 9138W        W68641  28.142  17.737   0.757
 9139W        W68642   4.365  25.668   2.749
 9140W        W68643  32.085  21.126  11.078
 9141W        W68644  19.163  25.688   3.340
 9142W        W68645  30.021   6.369   1.897
 9143W        W68646  29.159  40.968   2.848
 9144W        W68647   1.410  32.462   1.694
 9145W        W68648  27.138  20.095   3.801
 9146W        W68649   2.818   4.904  12.434
 9147W        W68650  10.764  21.605  13.522
 9148W        W68651   1.817  15.726  12.012
 9149W        W68652  23.199  43.924  13.542
 9150W        W68653  15.175   2.284   3.225
 9151W        W68654   7.735  26.145   0.868
 9152W        W68655  22.646  30.133   2.676
 9153W        W68656  12.211  42.300   0.770
 9154W        W68657  31.127  15.254  11.572
 9155W        W68658  29.958  38.883  12.525
 9156W        W68659  40.975  41.829   0.243
 9157W        W68660  27.669  12.362  12.516
 9158W        W68661  30.475  17.698  14.320
 9159W        W68662  30.139  32.937  13.366
 9160W        W68663  30.084  31.432   4.283
 9161W        W68664  25.128  21.076   4.645
 9162W        W68665   3.243  28.936   3.247
 9163W        W68666  26.465  36.546  14.945
 9164W        W68667  37.362  40.861   2.738
 9165W        W68668   8.199   7.894  11.045
 9166W        W68669  13.317   1.889  12.371
 9167W        W68670  30.043  44.008  10.550
 9168W        W68671  27.012  44.433  12.410
 9169W        W68672  33.114  26.556  14.360
 9170W        W68673   5.198  18.141   3.718
 9171W        W68674  29.630  28.166  10.478
 9172W        W68675  17.073  30.031  10.618
 9173W        W68676  42.301  35.601   4.683
 9174W        W68677  30.113  39.457  14.760
 9175W        W68678  41.470  10.648  11.962
 9176W        W68679  13.150  23.587   1.816
 9177W        W68680  21.663   9.225   2.223
 9178W        W68681  13.289  16.160  12.364
 9179W        W68682  34.921  35.043  14.275
 9180W        W68683  12.277  33.460  10.406
 9181W        W68684  36.348  28.979  10.581
 9182W        W68685  24.097   8.280  12.427
 9183W        W68686  20.177  19.734  10.107
 9184W        W68687  13.816  42.483  12.459
 9185W        W68688   7.743  12.290  13.883
 9186W        W68689  12.200  40.049  14.969
 9187W        W68690  23.675  37.895   3.224
 9188W        W68691  32.509   0.798  12.461
 9189W        W68692  33.401   0.260   1.296
 9190W        W68693   7.193  11.356  11.083
 9191W        W68694  20.139  42.804  11.014
 9192W        W68695  37.562   3.953   1.751
 9193W        W68696  10.158  37.486   1.428
 9194W        W68697  25.981  35.976  12.519
 9195W        W68698  33.914  20.714   3.738
 9196W        W68699  40.408   9.720  14.911
 9197W        W68700  38.908  23.576  10.480
 9198W        W68701  15.707  37.548  11.526
 9199W        W68702  36.040  11.266  10.962
 9200W        W68703   9.664  28.680   1.713
 9201W        W68704  37.441  30.910   3.808
 9202W        W68705  37.471   3.342  11.006
 9203W        W68706   4.789  17.205   1.337
 9204W        W68707  39.061  22.628   2.366
 9205W        W68708  35.864   2.247   4.205
 9206W        W68709  24.003  12.696   3.199
 9207W        W68710  40.987   0.936   0.318
 9208W        W68711   7.771   8.820  13.546
 9209W        W68712   3.279  34.981  11.894
 9210W        W68713   9.813  24.489  12.417
 9211W        W68714  25.096  26.471   2.859
 9212W        W68715  41.430  44.429   0.821
 9213W        W68716  44.813  24.712  11.441
 9214W        W68717  39.504   2.287   1.796
 9215W        W68718  28.965  19.583   0.923
 9216W        W68719  41.797  31.987  10.042
 9217W        W68720  15.262  33.973   9.933
 9218W        W68721  29.111   4.829   1.867
 9219W        W68722  13.317  22.016  12.089
 9220W        W68723  24.067   6.888  14.784
 9221W        W68724   3.870   5.298  12.555
 9222W        W68725  24.051  24.724  14.798
 9223W        W68726  36.583  25.555   3.367
 9224W        W68727  26.207  27.570   0.386
 9225W        W68728  16.301  30.449  10.495
 9226W        W68729  19.046  25.484   2.388
 9227W        W68730  15.211  29.531   4.147
 9228W        W68731  16.236  35.545  13.395
 9229W        W68732  37.411  23.498  11.871
 9230W        W68733   3.432  36.045  14.937
 9231W        W68734  33.891   3.876   3.334
 9232W        W68735  33.621  28.979  12.498
 9233W        W68736  40.419  33.588  14.826
 9234W        W68737  26.496  11.705  13.459
 9235W        W68738  10.733  17.710  12.853
 9236W        W68739  30.591  34.614  13.518
 9237W        W68740  42.502  18.590  11.978
 9238W        W68741  44.477  42.338   4.672
 9239W        W68742  18.279   0.894  11.971
 9240W        W68743  25.513  20.564   3.722
 9241W        W68744  22.504  11.820   5.187
 9242W        W68745  22.527   2.921  13.903
 9243W        W68746  33.027  32.977  10.524
 9244W        W68747  39.413   8.765   0.923
 9245W        W68748  39.328  28.625  12.836
 9246W        W68749  39.901  16.206   0.245
 9247W        W68750   6.803  38.535  11.069
 9248W        W68751   8.741  42.817   4.748
 9249W        W68752  35.451  39.548  12.963
 9250W        W68753  10.138  27.981  10.565
 9251W        W68754  26.567   1.878  13.349
 9252W        W68755  38.006  40.408  13.307
 9253W        W68756  25.144  35.528   4.216
 9254W        W68757  11.749  15.118   4.221
 9255W        W68758  29.470  14.598   2.782
 9256W        W68759  23.645  30.644   0.398
 9257W        W68760  18.153  31.952  10.500
 9258W        W68761   1.273  37.496  12.996
 9259W        W68762  14.705  20.725   0.792
 9260W        W68763  29.928  23.532  12.004
 9261W        W68764  21.141  34.070  13.340
 9262W        W68765  30.915  28.947   4.307
 9263W        W68766  40.812  22.726   1.400
 9264W        W68767  36.876  43.414  11.378
 9265W        W68768  31.127  21.138  14.926
 9266W        W68769  41.388  42.389  12.062
 9267W        W68770   7.849  35.916  11.469
 9268W        W68771   6.210  35.012  10.093
 9269W        W68772  39.023  25.700   4.830
 9270W        W68773  13.720  20.084   3.696
 9271W        W68774   0.899  26.513   0.913
 9272W        W68775  29.535   9.672  13.340
 9273W        W68776  42.381  37.507   0.937
 9274W        W68777   9.293  18.751  11.077
 9275W        W68778   0.764   1.975   0.336
 9276W        W68779  12.336  23.708   1.853
 9277W        W68780  15.644   9.364   0.900
 9278W        W68781  18.202  27.105   2.902
 9279W        W68782  11.633   1.761   1.384
 9280W        W68783  37.053  13.804   1.766
 9281W        W68784  28.995  29.175  14.321
 9282W        W68785  43.502  44.955  11.391
 9283W        W68786   0.348  22.054   2.341
 9284W        W68787  25.469   5.333  12.088
 9285W        W68788  21.202  17.106  11.445
 9286W        W68789  30.043   2.432   1.764
 9287W        W68790   3.838   6.851  11.881
 9288W        W68791   7.269  33.131   1.440
 9289W        W68792  33.010   0.890  12.448
 9290W        W68793  29.994  19.140  14.859
 9291W        W68794  12.836  36.007   3.699
 9292W        W68795  36.909   0.279   4.251
 9293W        W68796   3.791   1.349  14.377
 9294W        W68797   3.281  15.708  11.949
 9295W        W68798  28.096  21.670   2.221
 9296W        W68799  35.597  35.525   3.316
 9297W        W68800  18.252  26.486   1.427
 9298W        W68801   6.281  18.255   1.268
 9299W        W68802  15.736  28.643  14.370
 9300W        W68803   6.300  24.164  12.886
 9301W        W68804  17.626  13.724   4.811
 9302W        W68805   5.344  40.484   3.869
 9303W        W68806  30.519  38.974   0.920
 9304W        W68807  27.112  40.913   0.732
 9305W        W68808  36.455  26.591  12.490
 9306W        W68809  31.510  16.790  12.551
 9307W        W68810   3.917  37.562  11.923
 9308W        W68811  33.108  14.723   0.326
 9309W        W68812  33.102  16.245  11.501
 9310W        W68813   0.364   7.893  14.484
 9311W        W68814  43.354   6.717   4.167
 9312W        W68815   8.835  36.572  14.009
 9313W        W68816  13.748  21.614   4.312
 9314W        W68817  17.208  39.458   3.636
 9315W        W68818  18.550  36.047  11.865
 9316W        W68819  17.288   0.430  11.109
 9317W        W68820  18.259   0.348  13.999
 9318W        W68821  17.067  32.995   1.345
 9319W        W68822   6.263  26.086   4.257
 9320W        W68823   5.383  35.859  13.800
 9321W        W68824   2.304  41.832   0.933
 9322W        W68825  37.085  28.528  14.443
 9323W        W68826  10.266  33.401  14.917
 9324W        W68827  33.033  34.929   1.816
 9325W        W68828   2.821  21.757  14.922
 9326W        W68829  19.080  34.971   4.685
 9327W        W68830   0.321  25.551  12.520
 9328W        W68831  35.975  10.709   1.415
 9329W        W68832  29.066  25.492  13.883
 9330W        W68833  24.520  23.700  11.093
 9331W        W68834  43.315  34.893   2.198
 9332W        W68835  30.545  23.568  13.322
 9333W        W68836  29.960  27.056  13.324
 9334W        W68837  34.408   5.724   0.265
 9335W        W68838  27.057   0.842   5.100
 9336W        W68839   4.306  17.714   2.407
 9337W        W68840  32.959  41.302  10.463
 9338W        W68841  37.941  11.149  13.798
 9339W        W68842  27.544  39.488   4.829
 9340W        W68843  20.141  44.296   2.866
 9341W        W68844   8.342   0.418  12.527
 9342W        W68845   9.701   9.858  14.453
 9343W        W68846  13.154  33.889  14.832
 9344W        W68847  21.612   1.361   0.920
 9345W        W68848  25.513  27.504  11.558
 9346W        W68849  34.489  39.383  11.867
 9347W        W68850  26.039  39.808   2.669
 9348W        W68851  25.204  21.633   4.659
 9349W        W68852  25.540  12.116   0.877
 9350W        W68853  14.207   3.858   1.434
 9351W        W68854   0.829   9.677   2.415
 9352W        W68855  37.971  42.846  14.965
 9353W        W68856  26.129  43.769   4.804
 9354W        W68857  32.982  10.289   3.249
 9355W        W68858  33.122   8.875   0.341
 9356W        W68859  25.040   9.370  14.362
 9357W        W68860   8.245   3.838  13.349
 9358W        W68861  13.134  11.807  11.054
 9359W        W68862   3.378  35.514  13.876
 9360W        W68863  36.426  40.859  10.455
 9361W        W68864  13.731  43.965  14.792
 9362W        W68865  22.679  23.689  13.937
 9363W        W68866   7.407  34.982  12.061
 9364W        W68867  26.595  28.450   0.873
 9365W        W68868  42.339  19.264   3.270
 9366W        W68869  32.580  26.054  13.872
 9367W        W68870  26.508  13.348   1.281
 9368W        W68871  30.122  34.428   3.306
 9369W        W68872  35.447  42.286   4.760
 9370W        W68873  10.742  43.909   2.900
 9371W        W68874  37.044  20.032   2.400
 9372W        W68875   6.229  21.604  11.928
 9373W        W68876  42.028  35.548  13.848
 9374W        W68877  36.082  36.909   3.666
 9375W        W68878  21.156  18.566   3.179
 9376W        W68879   0.298  24.595   2.377
 9377W        W68880   8.669  21.141  13.040
 9378W        W68881  34.967  12.295   0.267
 9379W        W68882  25.664  34.402  11.113
 9380W        W68883  12.703  21.150  14.373
 9381W        W68884  32.613  17.217   5.091
 9382W        W68885  38.530   0.408   4.811
 9383W        W68886  35.443   6.828   2.353
 9384W        W68887   6.737  35.386   3.666
 9385W        W68888  29.998  44.967   2.344
 9386W        W68889  42.982  42.030   1.285
 9387W        W68890  33.921  24.498   2.818
 9388W        W68891  35.059  40.402  11.566
 9389W        W68892   4.322  14.132   0.366
 9390W        W68893  44.866   7.412  13.055
 9391W        W68894   2.919  36.370  14.816
 9392W        W68895   6.817  10.294  11.599
 9393W        W68896  40.444  19.749   0.464
 9394W        W68897  37.957  36.416  11.913
 9395W        W68898  11.762   3.793  12.080
 9396W        W68899   0.327  42.807  10.958
 9397W        W68900  44.313  20.745  11.551
 9398W        W68901  13.246  40.375  10.986
 9399W        W68902  15.314  16.139   4.731
 9400W        W68903  26.458  24.709  14.982
 9401W        W68904  27.975  30.130  10.425
 9402W        W68905  41.309  12.214  10.481
 9403W        W68906  21.680  27.556  14.281
 9404W        W68907  28.051  31.423   1.237
 9405W        W68908  40.871  15.721  13.859
 9406W        W68909  41.402  42.915   5.087
 9407W        W68910  33.561  36.441   1.831
 9408W        W68911   2.879  13.689   3.174
 9409W        W68912  10.647  22.656   1.854
 9410W        W68913  35.039  11.710   9.997
 9411W        W68914  38.488  10.811  11.014
 9412W        W68915   5.333  30.079  13.898
 9413W        W68916  29.117  38.445   2.819
 9414W        W68917  41.964  37.375   4.641
 9415W        W68918  20.715  16.193   2.890
 9416W        W68919  28.126  10.309  13.062
 9417W        W68920  25.570  30.433   4.162
 9418W        W68921  32.035  29.979  11.081
 9419W        W68922  39.915  35.487  13.517
 9420W        W68923  28.601  24.708   0.382
 9421W        W68924  42.021  11.685   0.827
 9422W        W68925  13.635  32.123   3.848
 9423W        W68926   6.243  21.159  14.940
 9424W        W68927  20.235  15.319  11.906
 9425W        W68928  19.763   7.744  12.448
 9426W        W68929  21.548  10.718   3.195
 9427W        W68930  42.864  29.118   1.231
 9428W        W68931  12.689  29.014   2.366
 9429W        W68932  14.191   8.873   0.309
 9430W        W68933  11.207  33.410   1.338
 9431W        W68934  14.137  44.827  11.979
 9432W        W68935  28.610  13.694   0.958
 9433W        W68936  27.193  33.056  12.084
 9434W        W68937   6.696  42.391  10.637
 9435W        W68938  18.247  16.270   4.761
 9436W        W68939  13.814  30.585   2.719
 9437W        W68940  19.746  23.566   0.806
 9438W        W68941  34.374  17.259  14.376
 9439W        W68942  44.816  19.615   1.771
 9440W        W68943   3.264  15.263   3.699
 9441W        W68944  16.642  33.008   0.788
 9442W        W68945  34.867  31.570   4.346
 9443W        W68946  31.905  19.197  10.917
 9444W        W68947  19.545  16.770  11.033
 9445W        W68948  27.585  34.449  10.590
 9446W        W68949   8.842  14.214   4.204
 9447W        W68950  32.996  35.534  13.539
 9448W        W68951  14.660   5.909   1.899
 9449W        W68952  33.902  31.535  14.934
 9450W        W68953   1.845  42.293   0.393
 9451W        W68954  28.039  15.304   4.639
 9452W        W68955  35.912  33.438   1.861
 9453W        W68956   7.751  13.224   3.165
 9454W        W68957  26.109  13.337   0.898
 9455W        W68958  22.591  42.848   1.718
 9456W        W68959  31.026  15.689  12.029
 9457W        W68960  41.917   3.259   2.809
 9458W        W68961  19.758  18.720   0.902
 9459W        W68962  15.150  38.387  13.995
 9460W        W68963   1.748  40.009  11.455
 9461W        W68964   1.415  30.914  11.554
 9462W        W68965  43.968  33.115   3.261
 9463W        W68966  36.364  38.475   1.327
 9464W        W68967   6.843  22.142   3.784
 9465W        W68968   8.897   8.769   1.388
 9466W        W68969   3.417  33.037   4.141
 9467W        W68970  43.400  17.230  13.925
 9468W        W68971  27.145  44.359   3.869
 9469W        W68972  30.973  38.016   1.881
 9470W        W68973   4.760  23.524   4.795
 9471W        W68974  27.069  19.644   3.852
 9472W        W68975  23.059  21.738  11.395
 9473W        W68976  38.494  36.017  11.102
 9474W        W68977  21.525  31.620  12.493
 9475W        W68978  22.553   0.773   0.923
 9476W        W68979  40.985   8.899   0.265
 9477W        W68980   0.934  43.373   2.288
 9478W        W68981  28.941  28.671   3.158
 9479W        W68982  16.184  43.989   2.188
 9480W        W68983  10.766   9.838   0.420
 9481W        W68984  40.876  28.136   1.284
 9482W        W68985   4.366  12.807  11.001
 9483W        W68986  40.017  20.643  10.544
 9484W        W68987   3.247   7.236  12.999
 9485W        W68988   3.314   7.368  14.971
 9486W        W68989   5.870  27.611   2.228
 9487W        W68990  17.644  38.891  12.917
 9488W        W68991  31.527  21.540   0.315
 9489W        W68992  12.323  30.570   5.147
 9490W        W68993  31.960   8.293   1.907
 9491W        W68994  29.573   4.921  13.043
 9492W        W68995  18.647   2.327   0.958
 9493W        W68996  27.499  10.220   2.798
 9494W        W68997  13.622  40.856  14.822
 9495W        W68998   1.401   4.311   0.483
 9496W        W68999  23.721  17.799   4.800
 9497W        W69000  44.302  24.526   3.807
 9498W        W69001  33.013  18.223   3.743
 9499W        W69002   8.299   8.204  13.331
 9500W        W69003   8.398   8.219  12.022
 9501W        W69004  28.524  24.547  14.789
 9502W        W69005  29.072  36.585  12.503
 9503W        W69006  43.938   8.660   2.878
 9504W        W69007  23.708  16.214  14.408
 9505W        W69008  34.984  43.459  13.046
 9506W        W69009  28.553  41.293   0.307
 9507W        W69010  42.352  36.441   1.264
 9508W        W69011  26.025  39.930  10.976
 9509W        W69012  14.835  40.384   0.793
 9510W        W69013  12.220   4.223  12.468
 9511W        W69014  40.315   4.357   2.857
 9512W        W69015  37.366  28.962  13.335
 9513W        W69016  41.928  11.264   1.402
 9514W        W69017  36.413   8.304  14.338
 9515W        W69018  36.088  35.550  11.453
 9516W        W69019  14.216  18.264   0.325
 9517W        W69020  38.060   8.811   1.230
 9518W        W69021  20.608  33.602  11.503
 9519W        W69022   4.797  35.918  10.550
 9520W        W69023  27.520  16.106  14.360
 9521W        W69024   8.785  19.557  10.937
 9522W        W69025   2.255  25.127   0.271
 9523W        W69026  22.510   7.835   0.727
 9524W        W69027  22.538  32.590  14.883
 9525W        W69028   5.791   9.367   4.116
 9526W        W69029   7.359  11.372   1.385
 9527W        W69030   5.809  43.790  13.940
 9528W        W69031  36.928  34.101  12.957
 9529W        W69032   6.361   3.863   0.357
 9530W        W69033  11.625  38.855   1.731
 9531W        W69034  13.680   9.328   0.447
 9532W        W69035  27.066   0.322  13.962
 9533W        W69036  31.957   0.887   4.627
 9534W        W69037   0.392  33.965   3.734
 9535W        W69038  11.144  25.162  11.855
 9536W        W69039  15.749   5.291  13.870
 9537W        W69040   4.894  10.802   3.824
 9538W        W69041   9.229   4.239  11.874
 9539W        W69042  33.047  26.203  13.428
 9540W        W69043   3.348  14.826   4.807
 9541W        W69044  23.701  30.500   4.134
 9542W        W69045   5.750  10.779   3.801
 9543W        W69046   8.205  18.101   3.862
 9544W        W69047  41.993   4.854   4.769
 9545W        W69048   2.862  11.329   1.773
 9546W        W69049  31.432   4.250   4.651
 9547W        W69050  20.541   5.298   3.313
 9548W        W69051  26.590  25.648  13.482
 9549W        W69052   6.834  42.883  14.762
 9550W        W69053   3.868  31.500  14.888
 9551W        W69054  22.093  34.969   3.199
 9552W        W69055  37.432  36.464  10.476
 9553W        W69056  38.915  26.971   0.965
 9554W        W69057  33.982  36.912  13.988
 9555W        W69058   9.249  30.951  14.386
 9556W        W69059  43.886   9.839  10.888
 9557W        W69060  14.196   0.425   4.756
 9558W        W69061   1.406  25.698   1.402
 9559W        W69062  21.251  22.565  11.033
 9560W        W69063   9.690  10.240   2.817
 9561W        W69064   4.714  24.995   2.715
 9562W        W69065  43.778  40.382  11.513
 9563W        W69066  16.738  17.727   3.717
 9564W        W69067  33.917  24.584  12.529
 9565W        W69068  30.551  38.827  14.351
 9566W        W69069   9.386  33.023  12.862
 9567W        W69070  23.663  38.045   1.420
 9568W        W69071  30.576  41.832   1.756
 9569W        W69072   0.303  37.896  13.445
 9570W        W69073   3.758  13.824   2.719
 9571W        W69074  23.545  43.956  10.947
 9572W        W69075  21.065  27.964  11.607
 9573W        W69076  13.192  26.037   2.823
 9574W        W69077  41.878   8.820   0.761
 9575W        W69078  12.204   3.339  10.433
 9576W        W69079  40.414  16.727  11.404
 9577W        W69080  33.515  13.192  14.866
 9578W        W69081  33.623  34.918  11.950
 9579W        W69082  40.994  17.124   4.161
 9580W        W69083  13.627  22.093   2.703
 9581W        W69084  21.564  39.871  11.514
 9582W        W69085  27.170  44.794  12.978
 9583W        W69086   6.372  42.344   3.730
 9584W        W69087  18.201  37.831  11.027
 9585W        W69088  26.568   5.842   0.769
 9586W        W69089  13.270  13.802   2.757
 9587W        W69090   3.732  16.257  13.865
 9588W        W69091  43.971  37.408   0.884
 9589W        W69092  14.266  15.138  13.917
 9590W        W69093  18.177  18.673   1.302
 9591W        W69094   3.833  41.897  14.478
 9592W        W69095   1.949  34.953  14.984
 9593W        W69096   6.897   4.324  14.968
 9594W        W69097  25.017   7.776  13.008
 9595W        W69098  37.936  29.109  14.458
 9596W        W69099  20.661  24.208   2.782
 9597W        W69100   6.310  40.518  12.444
 9598W        W69101  30.061   8.184   2.714
 9599W        W69102  23.060  22.730  11.463
 9600W        W69103  37.019   6.239   4.602
 9601W        W69104  34.914  15.318  12.574
 9602W        W69105  41.944   1.757   1.403
 9603W        W69106  32.519  36.850  11.903
 9604W        W69107  13.635  11.847  11.030
 9605W        W69108  28.528  38.463   5.692
 9606W        W69109  36.974  38.525   0.363
 9607W        W69110  41.529  42.401   3.693
 9608W        W69111  25.485   4.870  13.984
 9609W        W69112  12.810  37.455   0.815
 9610W        W69113  38.533   1.906   4.747
 9611W        W69114   8.406  33.130   0.835
 9612W        W69115   2.402   1.434   1.735
 9613W        W69116   0.821  39.942   3.161
 9614W        W69117   4.828  17.100  11.943
 9615W        W69118  39.413  13.308   4.613
 9616W        W69119  16.237   6.366  14.939
 9617W        W69120  33.513  30.554  14.387
 9618W        W69121  29.555  33.901  14.296
 9619W        W69122  18.062  11.715  13.060
 9620W        W69123  44.452  10.807   2.395
 9621W        W69124  14.136  13.112  14.765
 9622W        W69125   0.919   4.245  14.492
 9623W        W69126  28.622  44.787  10.625
 9624W        W69127  25.059   1.471   1.350
 9625W        W69128  16.279  44.283   4.204
 9626W        W69129  14.727   0.830  11.020
 9627W        W69130  12.819  24.556   4.718
 9628W        W69131  27.666  11.822   3.302
 9629W        W69132  36.040  32.986  14.869
 9630W        W69133  25.532  42.320  12.023
 9631W        W69134  16.166  36.574   3.347
 9632W        W69135   6.210  31.480  11.455
 9633W        W69136  32.075  25.599  12.355
 9634W        W69137  21.262   5.350  14.869
 9635W        W69138   7.716   9.664  10.486
 9636W        W69139  37.539  22.703   5.150
 9637W        W69140  29.988  35.444   4.177
 9638W        W69141  22.707  11.144  13.910
 9639W        W69142  13.758  19.081   3.196
 9640W        W69143  17.069  39.875   2.214
 9641W        W69144  12.752  33.455   3.232
 9642W        W69145  30.473  30.500   1.289
 9643W        W69146  25.204   7.753  13.985
 9644W        W69147  44.890  28.450  11.024
 9645W        W69148  32.456  44.832  13.813
 9646W        W69149  25.627  21.650  13.957
 9647W        W69150  30.502  37.475   1.827
 9648W        W69151  36.361  22.239   0.891
 9649W        W69152  17.680  39.511   1.338
 9650W        W69153  24.089  30.094   1.887
 9651W        W69154  42.950  26.664   3.835
 9652W        W69155  25.650   7.720   0.957
 9653W        W69156  15.681  19.083   3.713
 9654W        W69157  26.172   4.863   4.652
 9655W        W69158  19.103  41.830  12.479
 9656W        W69159  24.085   8.344  11.003
 9657W        W69160  19.776  13.185  14.449
 9658W        W69161  39.836   6.876  13.815
 9659W        W69162   7.902  32.033  11.065
 9660W        W69163  17.154  18.266  11.434
 9661W        W69164  43.790  13.718  13.934
 9662W        W69165   1.848  22.682  13.452
 9663W        W69166  28.678  36.471   4.798
 9664W        W69167  26.488  29.575  14.909
 9665W        W69168  39.021  13.799  14.784
 9666W        W69169  38.546  36.560  10.639
 9667W        W69170  41.891  24.527  10.547
 9668W        W69171   2.465  40.533   3.317
 9669W        W69172   5.351  31.431  14.998
 9670W        W69173  40.472  40.511   4.631
 9671W        W69174   2.385  13.796   1.334
 9672W        W69175  29.015  25.150  14.412
 9673W        W69176  10.646  13.325   0.928
 9674W        W69177  38.075   0.415   3.771
 9675W        W69178  15.156  14.260  10.999
 9676W        W69179   9.369  15.165  13.815
 9677W        W69180  25.690  36.422  11.987
 9678W        W69181  18.780  29.552  10.593
 9679W        W69182  44.891  42.447  13.483
 9680W        W69183  12.707  29.448  11.869
 9681W        W69184  25.050  23.178  11.089
 9682W        W69185  44.829   3.804  11.098
 9683W        W69186   0.818   1.806  14.374
 9684W        W69187  15.706   6.222  12.488
 9685W        W69188  22.539  35.404  11.038
 9686W        W69189  31.496  24.055  11.039
 9687W        W69190   2.927  34.512   4.345
 9688W        W69191  38.861  14.179  10.980
 9689W        W69192  28.676  18.160   0.889
 9690W        W69193  18.259  16.636  12.060
 9691W        W69194  20.106  23.177  13.905
 9692W        W69195  13.621  23.495   4.236
 9693W        W69196  39.049   7.349  11.980
 9694W        W69197  12.784   6.873  13.051
 9695W        W69198   5.761  14.301  10.557
 9696W        W69199   4.326  13.287   3.786
 9697W        W69200   5.930  42.405   1.413
 9698W        W69201   4.444  38.534   1.447
 9699W        W69202  21.548  25.195  14.892
 9700W        W69203  15.784  26.031   2.371
 9701W        W69204   5.281  20.112   2.744
 9702W        W69205  32.509  25.611  11.890
 9703W        W69206  20.582  40.398   1.901
 9704W        W69207  39.979  25.648  10.927
 9705W        W69208   8.675   4.402   3.379
 9706W        W69209  16.593  14.257  14.884
 9707W        W69210  41.435  31.934  10.959
 9708W        W69211  31.647  18.191  10.960
 9709W        W69212  38.005  35.072   2.750
 9710W        W69213  38.940  25.215  10.014
 9711W        W69214   2.457   7.693   4.692
 9712W        W69215  13.233   9.844  13.519
 9713W        W69216  40.942   8.284   1.440
 9714W        W69217  19.146   1.846  13.950
 9715W        W69218  36.922  37.343  12.854
 9716W        W69219  36.588   7.787  12.348
 9717W        W69220   9.671  40.457   2.227
 9718W        W69221  38.485  27.137   0.873
 9719W        W69222   8.309  42.792  14.952
 9720W        W69223  17.116  18.252  10.537
 9721W        W69224  12.765   0.415  14.891
 9722W        W69225  42.014   7.172   1.763
 9723W        W69226  38.891  17.682   4.248
 9724W        W69227  31.981   1.780  11.059
 9725W        W69228  14.669   6.268  12.997
 9726W        W69229   3.880  24.158   2.324
 9727W        W69230  13.334  42.287   3.332
 9728W        W69231  38.024  28.601   0.949
 9729W        W69232  14.653   5.838   4.757
 9730W        W69233  17.233  29.052  10.521
 9731W        W69234  11.293   4.302  12.007
 9732W        W69235  17.194  18.066   1.916
 9733W        W69236  29.039  22.635  13.936
 9734W        W69237  39.979  27.027  14.506
 9735W        W69238   3.347  23.702   0.889
 9736W        W69239  39.478  22.505   3.787
 9737W        W69240  35.110  12.240   2.893
 9738W        W69241  11.216  11.673  11.373
 9739W        W69242  26.006  30.016  11.544
 9740W        W69243  37.344  24.060   5.099
 9741W        W69244  15.639   6.784   0.408
 9742W        W69245  16.630  44.323  11.988
 9743W        W69246  32.576  24.689   3.800
 9744W        W69247  28.948  20.635  14.795
 9745W        W69248  31.963  18.278   4.185
 9746W        W69249  13.120  22.677  11.572
 9747W        W69250  41.933  18.679  12.087
 9748W        W69251  10.296  14.683  12.987
 9749W        W69252  11.727  21.705  13.453
 9750W        W69253  10.162  22.133   0.444
 9751W        W69254  14.163  42.901  12.488
 9752W        W69255   5.856  28.970  13.059
 9753W        W69256  44.439   3.357  12.987
 9754W        W69257  14.232  28.445  14.957
 9755W        W69258  23.110   9.295  13.491
 9756W        W69259  31.543   7.833  13.026
 9757W        W69260   7.174   7.820  12.971
 9758W        W69261  10.790  14.122  11.006
 9759W        W69262  27.068  21.589  14.970
 9760W        W69263  42.510  28.006   1.268
 9761W        W69264  22.521  24.064  12.041
 9762W        W69265   8.805  15.631  14.914
 9763W        W69266   0.903  20.765  14.984
 9764W        W69267   9.775   0.775  11.550
 9765W        W69268  15.796  29.037   3.285
 9766W        W69269  42.821  32.923   1.754
 9767W        W69270  37.566  42.922  11.446
 9768W        W69271  23.735  35.096  10.518
 9769W        W69272  43.352  36.402  14.439
 9770W        W69273  36.415  25.214  13.486
 9771W        W69274   2.918  27.673   2.234
 9772W        W69275  33.985  24.560  13.364
 9773W        W69276  24.107  34.937  11.453
 9774W        W69277   1.428  30.635  13.525
 9775W        W69278  25.003  20.692  11.080
 9776W        W69279  32.420  41.807  14.424
 9777W        W69280  35.430  14.187  12.358
 9778W        W69281  39.512  34.905  12.935
 9779W        W69282  29.599  24.512  13.958
 9780W        W69283  42.949  43.378   3.302
 9781W        W69284   5.279  42.425  14.317
 9782W        W69285  36.528  19.713   3.676
 9783W        W69286  12.232  11.135   4.311
 9784W        W69287   1.972   5.333  13.855
 9785W        W69288  44.433   5.799  11.092
 9786W        W69289  35.443   9.338   3.845
 9787W        W69290  39.878   3.366  12.057
 9788W        W69291  40.335  15.253  12.087
 9789W        W69292  12.632  28.066  10.971
 9790W        W69293  41.981  37.504   4.294
 9791W        W69294  18.134  12.744   4.805
 9792W        W69295  25.559  35.588  10.534
 9793W        W69296  42.999  29.588   0.871
 9794W        W69297   9.269  19.559   0.726
 9795W        W69298  13.126  24.187   3.645
 9796W        W69299   9.703  21.585  13.394
 9797W        W69300  12.726  30.129   3.302
 9798W        W69301  24.539  26.040  11.037
 9799W        W69302  35.895  14.302  12.017
 9800W        W69303  43.878   1.467  12.963
 9801W        W69304  26.140  34.915   1.316
 9802W        W69305  18.769  12.613  13.359
 9803W        W69306  25.121  41.416   1.450
 9804W        W69307  36.456   4.742  14.324
 9805W        W69308  41.017  34.392  13.451
 9806W        W69309  13.181   2.330  11.918
 9807W        W69310  18.579  33.543   9.965
 9808W        W69311  19.119  18.686   1.874
 9809W        W69312   7.800  21.636   1.860
 9810W        W69313  27.035  21.030  11.004
 9811W        W69314  21.690   2.893  13.053
 9812W        W69315  11.757  43.823  14.444
 9813W        W69316   9.677  29.655  13.537
 9814W        W69317  41.419  10.697  12.394
 9815W        W69318  13.110  37.385   5.203
 9816W        W69319  21.669  27.565   3.364
 9817W        W69320  10.189   2.370  12.343
 9818W        W69321   1.389  44.000  13.534
 9819W        W69322   6.197  10.229  14.348
 9820W        W69323  13.210  41.422   4.118
 9821W        W69324  40.826  30.055   3.845
 9822W        W69325   6.897   6.288   3.819
 9823W        W69326  20.055  40.040  12.953
 9824W        W69327  31.947   2.274   2.855
 9825W        W69328  38.866   3.712   4.142
 9826W        W69329  40.963  43.420  14.321
 9827W        W69330  19.700  30.139  14.975
 9828W        W69331   8.313  25.016  10.901
 9829W        W69332  37.990  13.728   0.847
 9830W        W69333  31.103  21.065   4.731
 9831W        W69334   5.875  20.667   0.344
 9832W        W69335  42.003  42.469   4.121
 9833W        W69336  22.014   7.242  14.439
 9834W        W69337  21.698  14.808   1.865
 9835W        W69338  42.417  27.050  10.564
 9836W        W69339  18.747   9.186  11.449
 9837W        W69340  40.538  15.822   3.221
 9838W        W69341  31.926  28.483  13.876
 9839W        W69342   9.197   8.661   2.813
 9840W        W69343  33.957  25.094  14.367
 9841W        W69344  32.579  38.928   4.677
 9842W        W69345  23.147   5.367  12.074
 9843W        W69346  40.993  20.528  11.491
 9844W        W69347  44.761   5.753   4.804
 9845W        W69348  40.831   9.838  13.317
 9846W        W69349  10.713  10.167  14.992
 9847W        W69350  26.621  44.867  10.468
 9848W        W69351  23.613  33.598   0.416
 9849W        W69352  19.154  23.542  12.525
 9850W        W69353  10.272   7.306   4.154
 9851W        W69354   5.749  39.907   4.212
 9852W        W69355  29.171  40.481  14.456
 9853W        W69356  21.623   1.319  11.992
 9854W        W69357   5.213  42.391   2.353
 9855W        W69358   6.765  28.065  13.403
 9856W        W69359  24.690  30.606   4.203
 9857W        W69360  24.049   8.258  14.420
 9858W        W69361   3.350  12.298   0.885
 9859W        W69362  12.628   8.259   0.422
 9860W        W69363  22.049  39.445   3.737
 9861W        W69364  13.113  41.437  14.014
 9862W        W69365  28.153  14.191   1.792
 9863W        W69366  17.079  36.887  10.937
 9864W        W69367   4.262  35.358   4.634
 9865W        W69368  20.054  17.199   3.716
 9866W        W69369  18.721  39.994   0.341
 9867W        W69370   5.407  31.487  12.556
 9868W        W69371   6.903  28.094   4.782
 9869W        W69372  25.035  24.693  13.342
 9870W        W69373  42.417  26.634   0.935
 9871W        W69374  20.257  21.106  10.419
 9872W        W69375  26.081  40.451   1.790
 9873W        W69376  27.945  28.964   3.233
 9874W        W69377  18.601  19.173  11.922
 9875W        W69378  11.133  11.803  13.395
 9876W        W69379  17.592  31.535  12.970
 9877W        W69380  42.419  32.918  11.525
 9878W        W69381  18.181  19.191   4.778
 9879W        W69382  16.282  26.203   2.695
 9880W        W69383  10.345  44.445   2.782
 9881W        W69384  25.088  30.110   1.399
 9882W        W69385  26.025  10.746   3.835
 9883W        W69386   7.390  38.525   0.320
 9884W        W69387  22.591  14.760   1.776
 9885W        W69388  44.353   9.743   0.945
 9886W        W69389  14.753  43.999   2.705
 9887W        W69390  26.959   2.347   5.674
 9888W        W69391  39.021   9.887   2.404
 9889W        W69392   8.327   2.323  13.997
 9890W        W69393  38.407   2.734   9.945
 9891W        W69394  37.525  20.176   0.431
 9892W        W69395  23.630   8.658  11.927
 9893W        W69396   4.881  22.657   4.754
 9894W        W69397  44.429  42.918  14.822
 9895W        W69398  10.345   3.224   4.705
 9896W        W69399   7.178  29.484   1.845
 9897W        W69400  16.143  32.091  13.385
 9898W        W69401  17.701  33.558  10.470
 9899W        W69402  14.144  23.233  12.914
 9900W        W69403   8.827  43.508  12.832
 9901W        W69404   1.821  35.387  13.442
 9902W        W69405  28.667  40.906  11.103
 9903W        W69406  21.110  22.185   9.986
 9904W        W69407  14.256   6.860  11.920
 9905W        W69408  13.708  30.042   2.347
 9906W        W69409   0.365  33.961  13.790
 9907W        W69410  22.574   3.428   0.766
 9908W        W69411   9.765  10.854  12.901
 9909W        W69412   2.859  31.959  13.848
 9910W        W69413  29.047  43.817  11.888
 9911W        W69414  43.791   2.335  14.355
 9912W        W69415  18.276  22.196  14.392
 9913W        W69416   0.751   4.800   0.789
 9914W        W69417  23.213  20.711   0.889
 9915W        W69418   2.375  25.587  13.387
 9916W        W69419  35.586  31.462  11.544
 9917W        W69420  38.373  27.170   4.235
 9918W        W69421  16.257  11.695   0.434
 9919W        W69422   9.186  44.776   3.633
 9920W        W69423  23.497  40.525   2.308
 9921W        W69424  15.652  16.233   2.273
 9922W        W69425  15.607   7.416   1.908
 9923W        W69426   1.822  44.277  11.976
 9924W        W69427  34.979  25.182   4.703
 9925W        W69428   5.302  14.801  11.536
 9926W        W69429   0.369  11.649   1.695
 9927W        W69430  39.915  28.145  12.345
 9928W        W69431  39.034  27.654   3.178
 9929W        W69432  15.667  44.329   0.396
 9930W        W69433  18.591  23.657   3.848
 9931W        W69434   3.843   2.449   9.950
 9932W        W69435  18.611  16.265  12.972
 9933W        W69436  23.162  40.490   1.428
 9934W        W69437   4.420   0.900  14.879
 9935W        W69438  15.651  12.773   2.769
 9936W        W69439  25.565  19.676   4.234
 9937W        W69440  38.914  40.798  11.435
 9938W        W69441  44.880  14.643  10.606
 9939W        W69442  39.948   6.731   0.812
 9940W        W69443  41.843  42.992  12.544
 9941W        W69444  13.830  33.548   5.222
 9942W        W69445  42.856  33.038   1.296
 9943W        W69446  19.638  19.244   2.205
 9944W        W69447  28.486   7.251   0.889
 9945W        W69448  17.751  15.730  14.764
 9946W        W69449  33.980   3.732  13.521
 9947W        W69450  31.150  26.589  14.378
 9948W        W69451  19.738  43.490   1.254
 9949W        W69452  10.264   3.329   3.666
 9950W        W69453  20.123  28.629  13.379
 9951W        W69454  41.402   6.272  12.556
 9952W        W69455   5.755  27.031  10.630
 9953W        W69456  14.148  41.333  12.454
 9954W        W69457  24.227  21.182   1.907
 9955W        W69458   8.281  43.776   4.306
 9956W        W69459  32.483  18.073   4.234
 9957W        W69460  18.708  13.333  10.936
 9958W        W69461  26.650  35.100  11.584
 9959W        W69462  39.336  28.182   0.788
 9960W        W69463  35.367   0.756   4.167
 9961W        W69464  24.034   5.852  14.489
 9962W        W69465  21.043  37.375   1.413
 9963W        W69466  42.403   7.670  11.932
 9964W        W69467  10.349  25.069   0.961
 9965W        W69468  36.404  20.735   3.717
 9966W        W69469  29.636   4.741   0.245
 9967W        W69470  16.622  11.295  14.422
 9968W        W69471  36.346  15.821  13.424
 9969W        W69472  11.296   5.770   2.365
 9970W        W69473  17.657  27.683   1.765
 9971W        W69474   3.425  30.656   0.483
 9972W        W69475  39.003   4.353   9.634
 9973W        W69476  43.487  39.060  13.439
 9974W        W69477  25.138   3.235  14.893
 9975W        W69478  11.773   2.808   0.739
 9976W        W69479  25.081   9.157  10.889
 9977W        W69480   3.394  40.472  11.577
 9978W        W69481  24.039   0.945  11.508
 9979W        W69482  41.007  42.997  12.080
 9980W        W69483  34.958  27.139   1.777
 9981W        W69484  10.157   4.362   4.784
 9982W        W69485  24.986  35.456  13.341
 9983W        W69486  38.050  27.515  11.090
 9984W        W69487  41.939  42.292   2.791
 9985W        W69488  25.581  14.660  11.006
 9986W        W69489   9.254  15.125   1.777
 9987W        W69490  31.921  21.607  11.941
 9988W        W69491  18.264   4.799  14.955
 9989W        W69492  18.769  39.480  13.854
 9990W        W69493  25.603  15.703  12.560
 9991W        W69494  29.443  26.471   1.387
 9992W        W69495  24.517  27.654  11.603
 9993W        W69496  36.365   3.355  14.279
 9994W        W69497   6.399  39.057   0.772
 9995W        W69498  24.643  36.912  14.998
 9996W        W69499   1.893  22.066  10.951
 9997W        W69500   2.827  12.732  14.838
 9998W        W69501  29.103   9.265  11.118
 9999W        W69502  20.706  43.509  12.064
10000W        W69503  30.155   9.273  11.944
10001W        W69504   5.253  14.605   0.267
10002W        W69505  44.763  18.732   1.408
10003W        W69506   5.742  17.572  11.895
10004W        W69507  13.320   2.817  12.554
10005W        W69508  37.435   6.835   4.707
10006W        W69509  43.014  26.619  10.990
10007W        W69510   9.151  28.527  13.311
10008W        W69511  43.467  33.390  10.144
10009W        W69512  11.136   5.781   0.260
10010W        W69513  42.886   9.863  12.919
10011W        W69514  12.711  17.162  13.991
10012W        W69515  18.772   9.150   2.737
10013W        W69516  16.302  33.398   2.219
10014W        W69517   3.810  28.576  12.885
10015W        W69518  38.398  14.162  12.435
10016W        W69519  40.951  30.422  10.952
10017W        W69520   7.237  42.833   3.223
10018W        W69521  32.067  20.084  12.536
10019W        W69522  15.822  39.934  14.432
10020W        W69523  43.425   1.245   0.858
10021W        W69524   4.425  13.205  11.440
10022W        W69525  15.305  24.214   3.179
10023W        W69526  36.545  18.210  14.016
10024W        W69527  22.050  26.995  13.030
10025W        W69528  27.614  17.581  10.496
10026W        W69529  15.145   5.231  14.992
10027W        W69530  35.923  44.372  11.578
10028W        W69531   4.843  12.745   2.734
10029W        W69532   7.382  20.580   2.229
10030W        W69533  21.564   6.801  14.992
10031W        W69534  44.299  32.413  13.984
10032W        W69535  26.481   3.741  12.878
10033W        W69536  40.863  42.958  10.948
10034W        W69537   8.884  39.044  14.477
10035W        W69538  35.952  16.261  12.577
10036W        W69539   5.727   6.186   2.351
10037W        W69540  28.583   6.776   2.179
10038W        W69541  37.501  44.994   2.268
10039W        W69542  32.961   4.263   3.837
10040W        W69543   6.683  40.485  11.406
10041W        W69544   7.774  16.688  10.550
10042W        W69545  17.576  41.462   1.227
10043W        W69546  17.118  12.341   3.292
10044W        W69547  39.888  10.798   0.904
10045W        W69548  41.984  39.043   3.197
10046W        W69549  17.642  32.912  12.430
10047W        W69550   2.942  42.506   3.212
10048W        W69551  30.094   2.435  10.624
10049W        W69552  18.724  41.518  14.509
10050W        W69553  34.395  19.055  14.759
10051W        W69554   9.286   0.917  13.420
10052W        W69555  14.703   5.307   3.784
10053W        W69556  17.179  20.143  12.555
10054W        W69557  15.270  43.863   1.404
10055W        W69558  17.223   3.303   0.777
10056W        W69559  31.951  35.106   5.131
10057W        W69560  19.657  32.570  12.512
10058W        W69561  41.537   9.359  11.496
10059W        W69562  16.735  20.054  12.442
10060W        W69563  42.310  41.930  14.325
10061W        W69564  17.158  30.926  13.842
10062W        W69565  33.115  31.025   4.728
10063W        W69566  28.051  38.887  13.883
10064W        W69567  29.459  36.858   2.313
10065W        W69568   8.717  19.723   2.275
10066W        W69569  43.883  36.546  13.792
10067W        W69570  11.713  41.954  14.500
10068W        W69571  31.108  25.983  12.842
10069W        W69572   0.364  16.632   2.766
10070W        W69573  40.346  14.588   4.143
10071W        W69574  14.186  24.515  12.854
10072W        W69575  27.149  21.045   2.220
10073W        W69576  43.949   0.985   2.784
10074W        W69577  38.912   7.183   3.792
10075W        W69578   7.837  26.172   1.769
10076W        W69579  35.515  39.489   9.945
10077W        W69580  40.538  14.216  11.435
10078W        W69581  24.992  12.261  12.340
10079W        W69582  12.763  24.980  12.444
10080W        W69583   2.873  42.985  10.519
10081W        W69584   1.354  30.590  12.508
10082W        W69585  34.904  31.552   2.738
10083W        W69586  34.916  38.346   2.708
10084W        W69587  22.711  31.556  13.497
10085W        W69588  17.786  39.960   3.711
10086W        W69589  12.762  24.980   2.395
10087W        W69590  13.224  26.025   3.352
10088W        W69591  42.983  15.715   4.137
10089W        W69592   0.477   8.247   3.761
10090W        W69593  12.691  24.193   2.674
10091W        W69594  25.075  13.284   5.208
10092W        W69595   8.854   0.419  11.026
10093W        W69596   3.388  35.993   4.798
10094W        W69597  33.902  33.612  14.442
10095W        W69598  22.172  32.475   2.754
10096W        W69599  22.158   5.438  12.842
10097W        W69600  11.826  43.298   4.249
10098W        W69601  29.645  22.555   2.804
10099W        W69602   2.454  11.623   1.258
10100W        W69603   6.732  34.999   3.741
10101W        W69604  39.360  19.199   2.734
10102W        W69605  41.827   6.202  12.515
10103W        W69606  18.058  25.698  13.807
10104W        W69607  39.831  20.552   4.187
10105W        W69608   0.492  26.131  11.454
10106W        W69609  40.495  17.722  11.925
10107W        W69610  35.496  28.132  11.115
10108W        W69611   4.786  22.152   0.814
10109W        W69612  36.377  15.596  14.762
10110W        W69613  42.322  33.931   1.900
10111W        W69614   8.897  27.456  13.344
10112W        W69615  29.500   2.739  14.461
10113W        W69616  36.372  15.580  11.089
10114W        W69617   9.700  12.695   1.826
10115W        W69618  32.982  11.289   1.343
10116W        W69619   0.880  32.064   1.352
10117W        W69620  10.854  17.768   4.625
10118W        W69621   6.754   2.429  10.413
10119W        W69622  44.438   0.926   1.786
10120W        W69623  16.619   5.373  14.387
10121W        W69624   4.400  28.006  10.093
10122W        W69625  22.730  37.521   0.411
10123W        W69626  12.792  31.606   1.359
10124W        W69627  10.279  32.621  12.461
10125W        W69628  23.018  19.249  10.941
10126W        W69629  10.283   4.398   0.877
10127W        W69630  29.562   5.376  11.890
10128W        W69631  29.617  36.086   1.857
10129W        W69632  13.686   6.829  14.985
10130W        W69633  20.031  17.162  11.536
10131W        W69634  22.577  39.917  10.895
10132W        W69635  14.625  34.457  12.472
10133W        W69636  14.752   2.431   4.711
10134W        W69637   9.326  22.570  13.427
10135W        W69638  42.871  31.921  12.379
10136W        W69639  31.465   4.324  10.492
10137W        W69640  32.427  33.391  10.114
10138W        W69641  14.687  42.823   2.867
10139W        W69642   9.652  32.888  12.048
10140W        W69643  27.546   0.908  13.897
10141W        W69644  20.169  40.372  14.362
10142W        W69645  21.053  21.669   0.874
10143W        W69646  41.912  11.282   4.768
10144W        W69647  19.763   9.164   1.317
10145W        W69648  25.144  14.661   5.256
10146W        W69649  30.935   5.342  14.810
10147W        W69650  18.590  35.069  10.565
10148W        W69651  22.596  27.133  14.961
10149W        W69652   9.653  24.546  13.491
10150W        W69653  36.583   1.371  14.391
10151W        W69654  13.811  24.633   2.261
10152W        W69655   4.731  22.701  14.904
10153W        W69656   3.287   2.301   4.600
10154W        W69657  30.416  17.659   2.225
10155W        W69658  26.957  17.071   0.890
10156W        W69659  39.367  39.001  13.496
10157W        W69660  39.859  12.342   0.746
10158W        W69661  19.557  36.921  11.551
10159W        W69662  26.183  29.941   4.272
10160W        W69663   5.932  25.706   1.828
10161W        W69664  40.806  19.733  14.323
10162W        W69665   9.394  23.681  13.942
10163W        W69666   8.177  37.349   0.777
10164W        W69667  34.402  26.125   5.645
10165W        W69668  12.248  25.625   4.652
10166W        W69669  33.540  44.903   2.348
10167W        W69670   3.359  21.742  14.444
10168W        W69671  35.510  21.201   1.333
10169W        W69672  18.154  10.185   2.198
10170W        W69673  36.056   5.419   9.960
10171W        W69674  35.459  12.615   4.121
10172W        W69675   1.273  17.225   1.791
10173W        W69676  24.188  27.155  10.989
10174W        W69677  32.906   8.176   3.251
10175W        W69678  23.613  18.724  14.453
10176W        W69679  31.969  10.198  11.458
10177W        W69680   9.704  36.527   5.242
10178W        W69681   7.673  22.500   5.205
10179W        W69682   7.759  40.838   1.737
10180W        W69683   2.321   7.210  12.426
10181W        W69684  11.781  32.026   3.377
10182W        W69685  20.110  22.226   1.907
10183W        W69686  26.974  31.555  10.568
10184W        W69687  18.570   2.958  12.866
10185W        W69688  14.784  11.309   0.813
10186W        W69689  28.950  39.872  12.440
10187W        W69690  43.277   8.738   1.850
10188W        W69691   8.797  35.568   2.296
10189W        W69692   1.286  37.858  12.864
10190W        W69693   8.201  21.152  13.817
10191W        W69694  29.157  15.732  11.125
10192W        W69695  36.543  28.643   3.345
10193W        W69696   6.411  33.030   1.366
10194W        W69697  40.421  31.914   1.893
10195W        W69698  26.669   9.720  12.399
10196W        W69699   9.722  43.313  13.345
10197W        W69700  11.631  41.473   3.298
10198W        W69701  11.201  26.639   0.471
10199W        W69702  35.410  28.637  12.451
10200W        W69703   8.316  13.737   9.526
10201W        W69704   9.365  35.371  12.522
10202W        W69705  24.982  26.470  12.413
10203W        W69706  25.654  16.606  10.984
10204W        W69707  34.432   1.343   3.710
10205W        W69708  31.589  19.096   4.199
10206W        W69709  38.383   7.179   1.377
10207W        W69710  37.494  25.026  12.919
10208W        W69711  34.543  25.521  10.514
10209W        W69712  12.819  16.139   2.258
10210W        W69713  31.909  41.379   3.254
10211W        W69714  38.942  22.628   4.161
10212W        W69715  33.573  12.293  13.966
10213W        W69716  26.191   6.317   0.893
10214W        W69717  44.845   8.655   2.819
10215W        W69718  22.069  30.654   3.781
10216W        W69719  23.059   4.912  11.950
10217W        W69720  33.875   3.319  10.497
10218W        W69721  26.605  16.138  11.052
10219W        W69722   2.846  32.406   3.632
10220W        W69723  39.936  21.236   0.365
10221W        W69724  44.327  10.271  12.839
10222W        W69725  34.530   2.741   2.266
10223W        W69726  11.160  11.760  12.564
10224W        W69727   1.372  29.522   3.218
10225W        W69728   3.430   8.296   3.825
10226W        W69729   2.912  20.172  12.474
10227W        W69730   8.761  11.821   0.273
10228W        W69731  40.383   7.349   5.214
10229W        W69732  24.113  43.813  13.380
10230W        W69733  37.507  35.917  11.990
10231W        W69734  21.526  28.969  10.442
10232W        W69735  40.026   7.699   3.343
10233W        W69736  12.302  14.256  12.464
10234W        W69737  13.308  22.569  13.511
10235W        W69738  32.006  12.136   5.275
10236W        W69739  34.870  31.006   2.229
10237W        W69740  11.347  29.475   1.927
10238W        W69741  29.078  21.153   0.737
10239W        W69742  14.247  23.188  13.872
10240W        W69743  18.129  12.741  13.405
10241W        W69744   2.720  30.587   0.306
10242W        W69745  18.130   8.739   0.269
10243W        W69746   2.898  28.111  13.405
10244W        W69747  34.032  42.414  12.423
10245W        W69748  34.903   2.794   1.779
10246W        W69749   0.357  13.153   3.211
10247W        W69750  29.521  39.349  10.986
10248W        W69751  28.957  41.527   0.276
10249W        W69752  20.693  32.503  13.390
10250W        W69753  34.391  25.483   4.341
10251W        W69754  17.578  44.796  14.760
10252W        W69755  40.520   5.824   2.255
10253W        W69756  39.861  15.615   3.702
10254W        W69757  42.975  12.202  14.999
10255W        W69758  39.899  14.817  13.526
10256W        W69759  16.661   0.317   2.836
10257W        W69760  30.092  22.174   4.716
10258W        W69761   4.810   3.870   4.815
10259W        W69762  39.861  37.950   2.815
10260W        W69763   3.780  15.140   0.473
10261W        W69764  44.350  22.220  11.995
10262W        W69765  27.591   9.258  13.934
10263W        W69766   4.238  10.773   0.913
10264W        W69767  40.865   6.347  11.555
10265W        W69768  36.914  13.323   0.281
10266W        W69769  22.560  23.159   2.679
10267W        W69770   1.434  16.612   2.411
10268W        W69771  15.632  16.571  14.351
10269W        W69772  38.064  44.987   1.228
10270W        W69773  39.329  40.930   3.759
10271W        W69774   9.174  21.529   4.672
10272W        W69775  34.465  27.190   0.342
10273W        W69776  11.802  24.656   0.345
10274W        W69777  19.234  13.291   2.399
10275W        W69778  29.639  43.388  12.518
10276W        W69779  44.393  21.550  12.848
10277W        W69780  14.181  16.302   3.386
10278W        W69781  16.134  42.448   1.413
10279W        W69782  26.042  41.859  14.490
10280W        W69783   3.450  37.548  10.946
10281W        W69784  25.489  13.208   1.818
10282W        W69785  21.038  32.475   2.268
10283W        W69786  20.225   7.705   3.691
10284W        W69787  42.919  42.403   3.233
10285W        W69788   7.911   3.769  12.882
10286W        W69789  43.456  32.484  10.906
10287W        W69790  25.078  24.210  13.316
10288W        W69791  29.624  11.157  12.841
10289W        W69792  31.556  42.971   3.728
10290W        W69793   4.225  22.124  11.014
10291W        W69794  27.551   3.256   0.300
10292W        W69795  16.652  42.908  14.363
10293W        W69796  38.415  23.038   4.781
10294W        W69797  25.487   2.451   1.826
10295W        W69798   7.197  30.590   4.790
10296W        W69799  17.720  11.155   1.815
10297W        W69800  36.092  23.585  13.426
10298W        W69801  11.662  40.522  11.003
10299W        W69802   4.403  42.319  11.925
10300W        W69803  20.104  13.830   3.808
10301W        W69804  41.973   5.852  14.884
10302W        W69805  29.653  11.833   4.220
10303W        W69806   6.240  23.689  14.393
10304W        W69807  21.235   0.908  12.364
10305W        W69808   3.304  23.022   2.215
10306W        W69809  42.444  43.953  10.413
10307W        W69810   8.751  10.863  11.904
10308W        W69811  21.192   5.703   2.882
10309W        W69812  38.970  13.231  10.978
10310W        W69813   4.242  18.202  14.487
10311W        W69814  24.575  31.439   2.352
10312W        W69815  19.192  18.789  10.499
10313W        W69816  35.429   4.272   0.814
10314W        W69817  17.306  11.671  11.489
10315W        W69818  18.696  40.828   3.837
10316W        W69819   1.803  29.927   2.784
10317W        W69820  24.706  36.560   2.727
10318W        W69821   7.238   5.797  10.550
10319W        W69822  21.702  25.027   4.315
10320W        W69823  30.431  37.538   0.242
10321W        W69824  23.201  14.659   0.730
10322W        W69825   3.338  32.503   3.670
10323W        W69826  27.090   2.887   1.338
10324W        W69827  31.459  18.218   0.439
10325W        W69828  20.160  10.821  10.480
10326W        W69829  27.528  25.116  10.047
10327W        W69830  29.068   8.790  14.456
10328W        W69831  23.705  44.811   0.895
10329W        W69832  31.023  41.022  10.569
10330W        W69833  18.241  35.962   2.770
10331W        W69834  29.050  14.668  12.025
10332W        W69835  34.436  42.343   0.933
10333W        W69836  12.135  42.327  13.943
10334W        W69837   1.311  34.115   2.789
10335W        W69838  26.021  15.763   0.939
10336W        W69839   1.772  32.049   2.181
10337W        W69840  32.131   3.441  14.758
10338W        W69841  13.178   0.301  13.968
10339W        W69842   3.319  34.490  12.510
10340W        W69843  24.129  17.582  14.953
10341W        W69844  12.241  24.508   2.180
10342W        W69845   4.393  11.767  14.459
10343W        W69846  12.324  33.410  14.956
10344W        W69847  10.673  22.722   4.712
10345W        W69848   2.305  42.420   3.233
10346W        W69849  26.470  14.602  13.543
10347W        W69850  30.073  31.591   2.315
10348W        W69851   1.293  28.107  14.912
10349W        W69852  37.437   2.745  11.980
10350W        W69853  31.443  19.052  12.984
10351W        W69854  19.775  41.310   4.219
10352W        W69855  42.007  17.145  13.966
10353W        W69856  11.777  17.678  12.834
10354W        W69857  20.167  27.608   2.240
10355W        W69858  42.935  36.387  12.539
10356W        W69859  18.227  22.512   4.158
10357W        W69860  29.572  30.130  11.928
10358W        W69861  25.519   8.823   3.652
10359W        W69862  21.680   2.321   4.699
10360W        W69863   6.299   3.438  13.883
10361W        W69864   9.338  10.155   2.348
10362W        W69865  22.069   2.391  11.858
10363W        W69866  10.328   8.220  13.469
10364W        W69867  11.682  34.565  13.866
10365W        W69868   5.375   4.880  12.067
10366W        W69869  21.708  43.386  10.914
10367W        W69870  21.607  43.843  12.857
10368W        W69871  40.375  37.442   4.181
10369W        W69872  24.676  37.384  11.538
10370W        W69873   1.918  11.858  10.419
10371W        W69874  32.141   9.379   0.337
10372W        W69875  42.005  31.028   1.368
10373W        W69876  24.709  29.949   0.401
10374W        W69877  14.597  40.974  12.882
10375W        W69878  16.132  28.931  11.524
10376W        W69879  41.304   8.700  14.917
10377W        W69880  20.045  15.691  14.956
10378W        W69881  41.971  12.356   3.289
10379W        W69882  30.136   5.822  14.882
10380W        W69883  19.260  43.883   0.246
10381W        W69884  22.584  22.131   1.824
10382W        W69885  32.463  17.756   3.227
10383W        W69886   0.810  12.235  10.633
10384W        W69887  31.011  19.552   2.190
10385W        W69888  15.697  23.086  14.023
10386W        W69889  39.812  16.813   4.283
10387W        W69890   6.734   7.683   3.284
10388W        W69891  24.699  43.924   5.216
10389W        W69892   4.700   9.200   4.195
10390W        W69893   1.367  36.034  11.502
10391W        W69894  26.985  19.609   4.698
10392W        W69895  42.810  28.576  11.511
10393W        W69896  43.815  18.104  12.034
10394W        W69897  35.536  36.547  12.534
10395W        W69898  39.414  14.611   2.397
10396W        W69899   7.789  42.375  11.390
10397W        W69900   2.331  12.618  11.541
10398W        W69901  24.509  42.371  13.990
10399W        W69902   4.446  29.546   2.416
10400W        W69903  37.419  26.565  14.835
10401W        W69904  40.818   2.418  10.964
10402W        W69905   2.343  23.175  10.470
10403W        W69906   6.280  34.379   0.817
10404W        W69907  25.637  20.196   0.921
10405W        W69908   4.341  41.326   2.869
10406W        W69909  20.153  32.590   0.818
10407W        W69910   9.879  29.925  13.918
10408W        W69911  16.742  26.691   4.233
10409W        W69912  19.587  44.839   3.669
10410W        W69913  42.013  28.135  14.289
10411W        W69914  22.688  42.002   5.101
10412W        W69915  22.175  36.394  13.044
10413W        W69916  33.418  22.037   3.768
10414W        W69917  22.677  44.344  13.911
10415W        W69918   5.300  39.473   0.747
10416W        W69919  10.775  43.891   4.312
10417W        W69920   3.442  42.500   4.278
10418W        W69921  13.663  44.346   1.379
10419W        W69922  35.997  27.652  14.848
10420W        W69923  18.173  22.679  11.905
10421W        W69924   6.391   0.262   0.392
10422W        W69925  26.982  20.563  14.903
10423W        W69926  38.485  20.730   4.764
10424W        W69927   0.931  14.192   2.749
10425W        W69928   0.445  24.035   0.823
10426W        W69929   6.363   9.274   0.474
10427W        W69930   1.940  38.059   4.630
10428W        W69931  35.086  27.985  13.398
10429W        W69932   8.682  21.229  14.908
10430W        W69933  20.068  16.629  13.537
10431W        W69934  34.589  38.551  10.924
10432W        W69935  11.349  23.165   0.878
10433W        W69936  33.935  30.907  13.011
10434W        W69937  23.509  43.849  11.554
10435W        W69938   6.784  24.569  11.544
10436W        W69939  36.028   4.801   4.799
10437W        W69940  23.157  24.025   2.387
10438W        W69941   0.940  26.068   5.146
10439W        W69942   2.860  35.853   0.812
10440W        W69943   4.859  44.301  12.532
10441W        W69944  17.700   3.738   3.725
10442W        W69945  24.115  38.383   1.419
10443W        W69946  10.821  37.425  12.061
10444W        W69947  18.296   7.673   3.797
10445W        W69948  17.143  36.419   0.430
10446W        W69949  22.601   8.844   5.198
10447W        W69950  22.531  30.030  12.016
10448W        W69951  39.865  17.277  12.044
10449W        W69952  27.517  39.421  10.469
10450W        W69953   3.915   4.239  13.960
10451W        W69954  39.334  15.758   3.260
10452W        W69955  25.664  14.108  11.408
10453W        W69956  25.114   2.385  13.330
10454W        W69957  26.996  39.556  13.005
10455W        W69958  21.750  34.431   1.399
10456W        W69959  32.399  24.203   0.930
10457W        W69960   7.259  12.623   5.254
10458W        W69961   3.369  17.588   4.751
10459W        W69962  25.219  12.709   1.375
10460W        W69963   7.314  29.014   2.336
10461W        W69964  21.197  22.516   0.395
10462W        W69965  13.123  43.899   3.701
10463W        W69966  43.496  38.459  14.890
10464W        W69967  21.555   6.820  13.007
10465W        W69968  28.568  36.015   4.313
10466W        W69969   4.281  39.017  12.538
10467W        W69970  12.265   5.276   0.367
10468W        W69971  29.931  20.080  11.015
10469W        W69972  21.174  26.562  11.373
10470W        W69973  38.472  27.038   3.837
10471W        W69974   9.344   4.731  10.953
10472W        W69975  24.083  31.567   2.854
10473W        W69976   2.466   5.221   4.189
10474W        W69977  13.614  29.176  13.958
10475W        W69978   1.862  34.554   4.178
10476W        W69979  25.477  33.604  12.076
10477W        W69980  19.672  18.082   2.726
10478W        W69981  12.746  13.600  12.985
10479W        W69982  30.647  15.209  11.096
10480W        W69983  37.477  38.341  12.438
10481W        W69984   1.833   6.826  14.923
10482W        W69985  14.301  10.323  14.283
10483W        W69986  29.463  32.488   3.639
10484W        W69987  36.492  10.172   1.849
10485W        W69988  39.450  11.262  13.432
10486W        W69989  30.911   9.861   2.262
10487W        W69990  43.447  40.860  11.948
10488W        W69991  31.906  27.508  13.810
10489W        W69992  14.822  41.007   3.755
10490W        W69993  23.060   6.703   0.867
10491W        W69994  15.128  11.667   0.268
10492W        W69995  38.405   9.381  11.977
10493W        W69996   1.786   8.855   0.944
10494W        W69997  42.461  17.299   2.739
10495W        W69998  11.155  11.743   1.367
10496W        W69999   7.218  44.457  14.377
10497W        W70000   4.710  36.434  10.538
10498W        W70001  17.126   9.744   4.653
10499W        W70002  40.428  10.782   0.301
10500W        W70003  41.428  17.115  13.796
10501W        W70004  18.062  32.980  10.406
10502W        W70005  13.203  25.565   2.664
10503W        W70006  35.534  29.603   3.740
10504W        W70007   2.321  32.058   3.306
10505W        W70008  44.968  12.121   4.166
10506W        W70009  10.700  37.858  13.874
10507W        W70010  30.547  43.816  10.452
10508W        W70011  21.098  10.303   4.826
10509W        W70012  41.438  30.115  11.065
10510W        W70013  43.802  12.343   3.233
10511W        W70014  10.654  41.413   4.247
10512W        W70015   1.356  19.196   0.787
10513W        W70016  17.557  40.492  10.611
10514W        W70017   2.240  29.461  14.339
10515W        W70018  35.518  25.168  12.848
10516W        W70019  13.612  14.817  12.373
10517W        W70020  37.488  10.649   3.747
10518W        W70021  23.184   0.943  13.904
10519W        W70022  29.585  14.829   0.912
10520W        W70023  18.146  32.625   0.307
10521W        W70024  36.961   5.856   0.831
10522W        W70025  20.249  28.467  13.924
10523W        W70026  40.318  32.459   3.319
10524W        W70027  39.033  34.526   1.880
10525W        W70028  39.446  27.449  14.838
10526W        W70029  11.232  26.065   4.614
10527W        W70030  28.678  22.052  13.405
10528W        W70031  37.374  36.452   4.835
10529W        W70032   2.808   3.753   0.402
10530W        W70033  18.721   1.416  12.549
10531W        W70034  12.700  42.404   0.965
10532W        W70035  17.106   2.940  10.601
10533W        W70036  33.109  34.606   2.324
10534W        W70037   0.797  34.935  13.847
10535W        W70038  42.357  41.795  12.999
10536W        W70039   8.312  38.975   0.904
10537W        W70040  41.875  35.501   0.373
10538W        W70041  42.467  20.649  14.412
10539W        W70042  22.105  30.986   2.372
10540W        W70043  44.992  24.979  14.381
10541W        W70044  38.529  19.227   4.730
10542W        W70045  44.451  29.933   2.688
10543W        W70046  21.579  13.684  12.418
10544W        W70047  17.745  33.408  12.023
10545W        W70048  41.394   4.350  11.519
10546W        W70049   8.315  44.963   3.314
10547W        W70050  18.646   1.760   0.437
10548W        W70051  35.063  32.064   3.697
10549W        W70052  34.968  33.607  12.845
10550W        W70053  43.894  27.515   0.465
10551W        W70054  16.674  14.307   2.693
10552W        W70055  25.522  42.449   2.764
10553W        W70056  17.783  17.188   1.928
10554W        W70057  13.739   4.932   0.789
10555W        W70058  36.889  35.524  12.387
10556W        W70059  35.910  26.166  10.600
10557W        W70060  28.002  17.709  10.966
10558W        W70061   0.295   4.915  12.393
10559W        W70062  39.823   9.855   0.889
10560W        W70063  30.462  15.785   4.204
10561W        W70064  30.065  43.377  11.473
10562W        W70065  32.064  27.567   1.348
10563W        W70066  11.795  18.290   9.938
10564W        W70067  10.212  18.706   3.284
10565W        W70068  19.767  29.542  10.506
10566W        W70069  11.257  39.553   3.218
10567W        W70070  41.945  22.235   1.718
10568W        W70071  40.345  14.299   0.431
10569W        W70072  18.095  40.809  14.827
10570W        W70073  28.980   8.176   0.857
10571W        W70074   8.235  36.025  11.106
10572W        W70075  37.523   6.714   4.351
10573W        W70076  38.520  18.580   1.249
10574W        W70077  28.949  22.621  13.322
10575W        W70078  17.208  24.170  11.979
10576W        W70079  10.184  16.184   0.452
10577W        W70080  38.854  31.987   4.119
10578W        W70081  31.577  19.041   1.294
10579W        W70082  15.308  17.118   2.416
10580W        W70083  28.531  20.217  12.491
10581W        W70084  11.745   3.880   3.347
10582W        W70085  27.002  19.676   0.851
10583W        W70086  42.979  39.447   3.868
10584W        W70087   2.338  15.147   0.421
10585W        W70088  24.016  13.648   2.719
10586W        W70089  29.466  39.018   2.834
10587W        W70090  10.276   0.254   4.127
10588W        W70091  18.105  14.690   4.340
10589W        W70092   1.825  15.673   5.235
10590W        W70093  10.215   4.374   3.173
10591W        W70094  21.548  26.202  14.359
10592W        W70095  13.225   7.342  11.038
10593W        W70096  31.541  30.629   0.360
10594W        W70097  39.040  33.493  12.905
10595W        W70098  35.450   4.921  11.955
10596W        W70099  13.349  15.613   1.919
10597W        W70100  12.286  13.739  10.988
10598W        W70101  41.474  42.500  13.910
10599W        W70102  36.041  14.709  14.323
10600W        W70103   8.365  39.005  12.896
10601W        W70104   6.859  43.280  10.908
10602W        W70105  30.507   2.419  10.991
10603W        W70106  29.958   3.893  13.935
10604W        W70107  31.141  38.534   4.651
10605W        W70108  38.565  39.484  13.491
10606W        W70109  36.355   3.323  11.945
10607W        W70110  11.707   6.285   3.841
10608W        W70111  13.618  20.178  12.540
10609W        W70112  16.746  15.133  12.922
10610W        W70113  39.364  16.262  10.575
10611W        W70114  15.131  29.043  13.307
10612W        W70115  29.078  39.423   9.548
10613W        W70116  29.578  43.305  11.991
10614W        W70117   5.924  42.401  10.937
10615W        W70118  29.000   0.771  12.357
10616W        W70119   1.753  12.340   3.692
10617W        W70120  34.613  37.866   4.204
10618W        W70121  29.651  42.851  11.408
10619W        W70122  22.606  35.599  11.923
10620W        W70123  15.702  22.177   9.971
10621W        W70124  16.199   2.235  12.052
10622W        W70125  22.541  44.485   2.800
10623W        W70126   1.753  29.498   5.226
10624W        W70127  24.206   8.403   4.163
10625W        W70128  38.872  35.581  10.988
10626W        W70129  35.589  35.540   1.704
10627W        W70130  17.151  42.822  10.974
10628W        W70131  17.665  35.897  12.416
10629W        W70132  19.735  29.567   2.178
10630W        W70133   6.247  25.987  13.052
10631W        W70134  15.771  24.616   1.882
10632W        W70135  32.461  25.473  14.467
10633W        W70136   2.241  44.008   0.754
10634W        W70137  36.565   5.353   2.364
10635W        W70138  24.481  20.729  10.406
10636W        W70139  35.467  10.852  10.525
10637W        W70140  26.699  23.987   3.262
10638W        W70141  37.062   1.280  13.008
10639W        W70142   9.227  35.509   4.272
10640W        W70143   1.332  23.163  12.851
10641W        W70144  16.645  25.613   2.209
10642W        W70145  36.498  31.627  13.349
10643W        W70146  26.553  41.891   3.798
10644W        W70147  14.258  19.278   4.747
10645W        W70148  29.098   3.820  12.042
10646W        W70149  27.107   1.440   2.307
10647W        W70150   7.802  31.985   3.363
10648W        W70151  33.535  13.700   3.869
10649W        W70152  27.112   7.675  10.513
10650W        W70153   4.338  20.240   3.192
10651W        W70154  15.215  42.022   4.263
10652W        W70155  10.355  30.947  11.943
10653W        W70156  21.739  15.188  10.521
10654W        W70157  27.129   8.726   1.300
10655W        W70158  33.560  23.102  14.331
10656W        W70159  12.843  44.362   2.794
10657W        W70160  27.621   0.801  10.030
10658W        W70161  19.075   1.835   3.714
10659W        W70162  29.099  43.983   0.342
10660W        W70163  13.201  29.048   4.302
10661W        W70164   2.810   0.442   1.387
10662W        W70165   3.315  40.036  12.046
10663W        W70166   8.214   3.942  14.848
10664W        W70167  34.897  41.011   3.251
10665W        W70168  33.090  33.963  12.573
10666W        W70169  12.255  11.156   0.449
10667W        W70170  13.216  20.052  11.016
10668W        W70171  43.314  23.059  12.427
10669W        W70172  27.998  25.120   0.844
10670W        W70173  41.524   1.341  13.476
10671W        W70174  23.102   3.872   0.899
10672W        W70175   9.391  13.766   4.300
10673W        W70176  26.199   1.909   3.817
10674W        W70177  43.490  18.759   2.233
10675W        W70178  14.621   9.236  13.880
10676W        W70179  38.896  17.731  11.894
10677W        W70180  20.208  26.668   2.815
10678W        W70181  32.034   7.699  11.517
10679W        W70182  37.349  29.636   5.296
10680W        W70183   2.728  16.716  14.300
10681W        W70184  21.522  39.950   2.873
10682W        W70185  42.306   6.365   3.322
10683W        W70186  26.578  17.093   4.141
10684W        W70187   8.738  24.697   2.819
10685W        W70188   1.265   6.200   4.671
10686W        W70189  20.611  27.596  13.982
10687W        W70190  43.803  38.381  11.545
10688W        W70191  26.519  11.340  11.929
10689W        W70192  19.773   4.394   2.291
10690W        W70193  27.481  16.177  11.384
10691W        W70194  20.763  21.106   4.804
10692W        W70195  24.112  18.561  13.817
10693W        W70196   4.274  29.428  14.818
10694W        W70197  13.167  10.759   2.808
10695W        W70198   7.708  18.099   5.206
10696W        W70199  10.816  16.639   3.816
10697W        W70200  42.421  42.424   2.732
10698W        W70201  44.425  32.037   2.868
10699W        W70202   0.904   9.295  12.482
10700W        W70203  27.513  18.073  13.915
10701W        W70204   2.297  35.093   4.210
10702W        W70205  36.362  18.199   3.860
10703W        W70206  32.967  24.549  11.985
10704W        W70207   1.361  42.906  12.882
10705W        W70208  36.414  15.283   0.961
10706W        W70209  35.892  21.633  11.974
10707W        W70210  31.086  25.115   0.417
10708W        W70211  12.716   4.298  12.830
10709W        W70212  39.857  11.643  13.495
10710W        W70213  42.869  39.045   2.723
10711W        W70214  11.141  13.112   3.296
10712W        W70215  24.514  17.069  14.905
10713W        W70216   5.280  34.952  13.049
10714W        W70217   1.313  28.458  11.986
10715W        W70218  16.171  39.553   4.635
10716W        W70219  15.578  21.565  13.497
10717W        W70220  21.065  20.741  10.472
10718W        W70221  35.956  10.637   2.814
10719W        W70222  35.469  26.008  11.920
10720W        W70223  22.035  42.932  11.890
10721W        W70224  24.674  35.986  14.478
10722W        W70225  31.412  44.853  12.900
10723W        W70226  34.100  36.448  10.139
10724W        W70227  24.500  27.541  10.973
10725W        W70228  13.218   6.887  10.641
10726W        W70229  30.561  27.966  12.988
10727W        W70230  12.745  16.276  10.893
10728W        W70231   8.247   2.239  14.975
10729W        W70232  27.059  44.848  11.876
10730W        W70233  41.418   7.219  14.475
10731W        W70234  33.126  43.855   4.718
10732W        W70235  22.672   8.373  11.554
10733W        W70236  12.263  42.513   4.794
10734W        W70237  21.094  35.907  12.060
10735W        W70238  43.334  43.429  12.580
10736W        W70239  23.558   3.749  12.428
10737W        W70240  44.468  20.153  14.984
10738W        W70241  38.893   1.752  11.498
10739W        W70242  27.164   1.321   1.352
10740W        W70243  25.482  14.332   1.826
10741W        W70244  15.229  31.466  14.937
10742W        W70245  33.073  40.912  10.602
10743W        W70246  17.078  20.680   4.780
10744W        W70247  41.525  25.561  10.916
10745W        W70248  26.134  21.649   1.247
10746W        W70249  13.287  30.136  10.574
10747W        W70250  21.017  15.233  12.933
10748W        W70251  34.913  10.826  12.456
10749W        W70252  19.050  32.126  14.968
10750W        W70253  36.928  37.365   4.621
10751W        W70254  15.276  19.240   1.697
10752W        W70255  11.131  10.793   4.743
10753W        W70256   4.228  17.073  14.004
10754W        W70257   6.740  31.962  12.008
10755W        W70258  16.798   4.448  12.393
10756W        W70259  12.197  14.173  14.852
10757W        W70260  17.607  38.521   1.699
10758W        W70261  10.290   5.915  10.627
10759W        W70262  36.046  26.638   2.713
10760W        W70263  18.553  27.613  12.454
10761W        W70264  25.049  33.614  12.053
10762W        W70265  36.383   1.927  12.403
10763W        W70266  44.907  37.047   3.334
10764W        W70267  12.258  34.423  13.967
10765W        W70268  24.034  29.633   3.384
10766W        W70269  41.501   0.289  12.447
10767W        W70270  42.941   6.760   4.602
10768W        W70271  34.371   6.336   2.689
10769W        W70272  19.270  19.150  10.528
10770W        W70273  21.037  20.590  10.053
10771W        W70274  42.986   1.885   4.823
10772W        W70275  42.004  38.027   0.341
10773W        W70276  43.360  23.621   2.360
10774W        W70277   5.281  15.609   0.905
10775W        W70278   4.393  17.159  13.504
10776W        W70279  43.338  18.131  12.824
10777W        W70280  24.090  16.149  15.000
10778W        W70281  42.879  17.727  14.030
10779W        W70282  18.074  23.661  13.844
10780W        W70283   8.896  32.391   1.261
10781W        W70284  27.579  18.610   4.720
10782W        W70285   0.760  44.788   3.257
10783W        W70286  39.942   3.458   0.408
10784W        W70287   0.858   6.325  12.926
10785W        W70288  18.557   0.910  11.403
10786W        W70289  41.486  22.010  12.049
10787W        W70290  38.984   0.950  12.987
10788W        W70291  23.693   6.875  14.276
10789W        W70292  27.549   4.430   0.795
10790W        W70293   9.303   6.864  11.502
10791W        W70294  36.499   7.285  10.932
10792W        W70295   1.961  39.376  13.039
10793W        W70296  39.895  28.117  14.016
10794W        W70297  17.665  20.230   3.244
10795W        W70298  37.525   1.744  11.910
10796W        W70299   0.826  10.235  11.406
10797W        W70300  21.183  14.236  12.965
10798W        W70301  36.927  34.431   3.350
10799W        W70302  35.013  16.118  10.613
10800W        W70303   0.816  38.552   3.640
10801W        W70304  15.320   7.799  12.918
10802W        W70305  42.386  38.353   1.264
10803W        W70306  28.979  13.718   3.354
10804W        W70307   5.263  16.115  14.504
10805W        W70308   7.771  22.573  10.417
10806W        W70309   7.384  27.671   1.270
10807W        W70310  25.189  37.567  12.909
10808W        W70311  18.605  28.945   0.744
10809W        W70312   5.203  37.470   2.322
10810W        W70313  18.155  15.731   0.262
10811W        W70314  12.135  27.630   4.658
10812W        W70315  37.421  28.575  14.315
10813W        W70316   3.327  27.020  12.420
10814W        W70317   4.709  15.268  14.956
10815W        W70318  25.575  35.442  12.826
10816W        W70319  26.124  15.317  14.330
10817W        W70320  41.908  26.064   2.352
10818W        W70321  30.507   9.290   1.337
10819W        W70322  41.402   1.272   3.819
10820W        W70323   4.328  22.641   0.293
10821W        W70324   7.216  24.540   3.727
10822W        W70325  41.507  44.470  14.971
10823W        W70326  18.078  10.636   4.215
10824W        W70327  17.233  31.647   0.788
10825W        W70328  16.587  11.641   0.924
10826W        W70329  16.802  35.041   3.159
10827W        W70330  20.679  40.525  11.460
10828W        W70331  19.103  44.819   0.752
10829W        W70332  24.609  36.555   3.269
10830W        W70333  31.634   0.791   1.799
10831W        W70334   6.395  22.148  12.502
10832W        W70335  39.910  35.947   1.385
10833W        W70336  10.361  26.061  10.950
10834W        W70337  41.883  30.024   4.176
10835W        W70338  25.478  24.064   1.324
10836W        W70339  32.554  35.596  11.597
10837W        W70340  20.526  33.894   3.305
10838W        W70341  28.011  29.597  10.629
10839W        W70342  11.183   6.886   3.221
10840W        W70343  24.973  32.999   1.882
10841W        W70344  30.132  32.401  13.802
10842W        W70345  14.606   3.238   0.257
10843W        W70346   7.332  12.756  12.085
10844W        W70347   3.947  15.632  12.889
10845W        W70348  35.364  35.057  11.530
10846W        W70349  41.380  29.482  10.597
10847W        W70350  20.606   4.701  12.341
10848W        W70351  22.725   0.891  13.857
10849W        W70352   4.364  42.941  13.841
10850W        W70353   9.667  33.947   3.223
10851W        W70354  36.577  20.713  11.124
10852W        W70355  38.862  18.611   2.807
10853W        W70356  44.260   7.338  13.880
10854W        W70357  11.344  23.586  14.393
10855W        W70358   4.321  26.643   1.933
10856W        W70359  34.435  10.715  13.973
10857W        W70360   2.831  32.071   1.218
10858W        W70361  25.005   3.460  11.868
10859W        W70362  19.204  31.593   0.775
10860W        W70363  27.075  22.166  11.499
10861W        W70364  11.681  33.004   1.251
10862W        W70365  26.013   8.869   4.812
10863W        W70366  13.206  39.425   0.256
10864W        W70367  15.672  22.548  11.003
10865W        W70368  37.952  26.139   4.688
10866W        W70369  26.185  43.501   1.729
10867W        W70370  33.903  31.999  12.931
10868W        W70371  27.534   1.435   0.889
10869W        W70372  18.104  38.415   1.801
10870W        W70373  26.554  42.504  14.445
10871W        W70374  29.488  11.706   0.333
10872W        W70375   4.922  41.451   0.855
10873W        W70376   0.383  22.103  14.923
10874W        W70377  35.592  43.479  12.536
10875W        W70378  23.066  17.792   0.964
10876W        W70379  41.002  11.317  11.490
10877W        W70380  22.130  33.444   4.798
10878W        W70381  40.915  36.395   2.787
10879W        W70382   2.433  12.116  12.475
10880W        W70383  17.070  25.476  10.076
10881W        W70384  28.633  37.948   3.858
10882W        W70385  37.999  43.949  10.934
10883W        W70386  10.805   9.386   0.946
10884W        W70387  31.999  38.073  10.930
10885W        W70388  14.277  17.663  11.028
10886W        W70389  42.996   5.878   4.223
10887W        W70390  28.130  11.704  13.461
10888W        W70391  26.092  22.700  13.479
10889W        W70392  38.075  10.206  13.845
10890W        W70393  23.616  11.799  11.939
10891W        W70394  14.313   7.272   1.401
10892W        W70395  32.009  44.775  13.307
10893W        W70396  39.869  12.220  14.987
10894W        W70397  17.569  11.625   3.318
10895W        W70398  20.037  34.606  13.898
10896W        W70399   8.217  19.651  12.875
10897W        W70400  10.234   2.337   4.729
10898W        W70401  17.778   7.274   3.650
10899W        W70402  29.564  22.568  13.415
10900W        W70403  24.592  44.771  13.437
10901W        W70404   2.841  22.206  10.056
10902W        W70405  35.412  23.117   3.674
10903W        W70406  38.471  23.014   1.784
10904W        W70407  23.506   2.338   0.909
10905W        W70408   2.300  18.587   4.771
10906W        W70409  22.195  31.013   4.268
10907W        W70410   0.432  26.507  14.953
10908W        W70411   3.761  20.144   4.727
10909W        W70412  34.086  26.654  11.435
10910W        W70413  33.579  27.563   9.515
10911W        W70414  39.057  39.416  13.349
10912W        W70415  10.789  23.519  11.597
10913W        W70416  32.543   0.837  13.844
10914W        W70417   3.440  38.416   4.203
10915W        W70418  34.882  16.574  12.411
10916W        W70419  26.679  19.276  12.033
10917W        W70420  25.036  16.160  11.951
10918W        W70421  27.653  20.766  10.907
10919W        W70422  31.993   2.268   1.238
10920W        W70423  34.567   8.242  13.538
10921W        W70424   6.792  22.250  12.412
10922W        W70425   9.153  41.318   0.362
10923W        W70426  17.652  27.610   3.278
10924W        W70427  40.960  39.032   1.274
10925W        W70428  36.551  36.034  14.798
10926W        W70429  15.260   5.257  12.554
10927W        W70430  21.044  19.728  14.865
10928W        W70431  23.231   8.736  11.459
10929W        W70432  24.148  17.793   3.192
10930W        W70433  28.127  35.094   0.430
10931W        W70434  27.951  24.523   4.799
10932W        W70435  21.618  16.276  13.334
10933W        W70436  44.450  21.521  14.440
10934W        W70437   5.876   3.316  10.525
10935W        W70438  18.655   6.787   4.609
10936W        W70439  28.029  20.176   2.886
10937W        W70440  38.047  22.181   1.761
10938W        W70441  15.298  16.243   3.676
10939W        W70442  41.893  37.077   2.895
10940W        W70443  21.092  21.757   3.209
10941W        W70444   4.300   7.674  12.072
10942W        W70445  37.079  38.847   2.724
10943W        W70446  33.433  43.441  10.552
10944W        W70447  34.027  14.153   1.272
10945W        W70448  18.247   4.846  13.989
10946W        W70449  11.189  15.100   1.708
10947W        W70450  13.784  28.167  12.865
10948W        W70451  11.268  44.393  10.583
10949W        W70452  14.651   4.219   4.768
10950W        W70453  44.861  27.654   2.747
10951W        W70454   5.843  33.610   3.222
10952W        W70455  35.874  43.811  12.390
10953W        W70456   2.365  41.856   2.866
10954W        W70457  40.803  35.373  14.029
10955W        W70458  32.427  21.217  14.320
10956W        W70459  31.143   7.690  12.475
10957W        W70460  17.263  37.844   1.304
10958W        W70461  38.511  37.376  13.519
10959W        W70462  18.687   3.711  11.493
10960W        W70463   8.170  26.062  11.467
10961W        W70464   3.263  29.549  11.487
10962W        W70465   6.306   8.719   3.371
10963W        W70466  19.721   5.919  11.099
10964W        W70467  38.870  37.940  11.428
10965W        W70468  32.422  15.143   3.236
10966W        W70469  44.290  41.979  14.977
10967W        W70470  31.641  18.241   0.817
10968W        W70471  29.968  38.951  14.277
10969W        W70472   3.306  40.041   2.893
10970W        W70473  28.672   0.767   4.758
10971W        W70474   4.249  32.087   2.242
10972W        W70475   3.850  29.151  14.279
10973W        W70476  11.236  17.152  14.959
10974W        W70477  39.347  24.534  13.511
10975W        W70478  23.106  40.349  13.325
10976W        W70479  26.650  27.164  12.422
10977W        W70480  15.637   1.276  11.879
10978W        W70481   3.226  26.667  11.595
10979W        W70482  39.976   4.803   0.471
10980W        W70483  40.838   4.775  12.830
10981W        W70484  36.927  29.641  12.870
10982W        W70485  32.900  43.443   3.690
10983W        W70486  17.671  36.049   4.659
10984W        W70487  18.244  24.195  13.943
10985W        W70488  37.357  39.523  14.880
10986W        W70489  25.582  33.900  12.999
10987W        W70490   3.793  34.473   0.930
10988W        W70491  12.153  33.125  10.061
10989W        W70492  29.043  43.423  10.990
10990W        W70493  16.703   9.647   3.789
10991W        W70494   9.670  16.142  14.999
10992W        W70495  23.037  17.557  10.603
10993W        W70496  38.483   6.273  12.489
10994W        W70497  40.045  25.636   1.828
10995W        W70498   1.842   0.932  12.979
10996W        W70499  37.024   7.717  13.438
10997W        W70500   4.770  34.513  11.029
10998W        W70501   8.669   2.368   4.801
10999W        W70502   7.392  22.163   0.950
11000W        W70503  27.018   4.331  13.471
11001W        W70504  20.577  28.558   4.616
11002W        W70505   5.871   6.393  10.617
11003W        W70506  33.507  22.588   1.338
11004W        W70507  10.273  14.242  13.934
11005W        W70508  14.591  25.160  13.459
11006W        W70509  40.443  17.206  14.500
11007W        W70510  41.329  42.894  11.038
11008W        W70511  26.692  21.743   1.323
11009W        W70512   6.366  17.135  12.938
11010W        W70513  36.009  11.774  12.042
11011W        W70514  37.479  41.434  12.983
11012W        W70515  23.507  23.563   3.198
11013W        W70516  32.587  37.427  12.550
11014W        W70517   9.720  44.989  11.462
11015W        W70518  28.136  13.282   2.236
11016W        W70519   3.445  27.482  12.477
11017W        W70520  18.688  34.472  13.436
11018W        W70521   0.892  40.516  13.358
11019W        W70522   1.839  38.935   2.305
11020W        W70523  44.822  42.281  14.397
11021W        W70524  28.658  22.573  11.428
11022W        W70525  41.424  33.411  11.100
11023W        W70526  12.652  21.245   3.288
11024W        W70527  33.507  31.904  10.931
11025W        W70528  12.156   1.742   0.917
11026W        W70529  35.916   3.351   3.746
11027W        W70530  21.122  31.124   3.176
11028W        W70531  12.167  25.714  11.864
11029W        W70532   4.787  37.376   3.634
11030W        W70533   0.321  38.017  12.942
11031W        W70534  13.675   7.337  14.442
11032W        W70535  32.093   4.800   2.246
11033W        W70536  38.895  36.591   2.739
11034W        W70537  24.690   5.235  13.462
11035W        W70538   3.372   7.286   2.681
11036W        W70539  15.286  25.998  12.571
11037W        W70540  27.612   7.809   3.213
11038W        W70541  19.677  37.392  14.278
11039W        W70542  11.364   1.812   3.811
11040W        W70543  32.441  41.961   4.746
11041W        W70544   6.893   7.247   1.729
11042W        W70545  21.201  12.704   0.271
11043W        W70546  42.380   5.270  14.914
11044W        W70547  44.324  22.074   2.779
11045W        W70548   9.652  32.547   1.825
11046W        W70549  36.541   9.841  11.406
11047W        W70550  44.833  36.470   4.237
11048W        W70551  11.369   0.428   1.909
11049W        W70552  38.338  40.545  13.328
11050W        W70553  41.023  33.099   4.340
11051W        W70554   0.311  24.006  13.437
11052W        W70555  25.660  27.495   3.253
11053W        W70556  37.931  31.127  14.291
11054W        W70557   5.919  20.181  14.416
11055W        W70558  21.239   3.749   4.263
11056W        W70559  27.590   2.403   3.184
11057W        W70560  41.885  44.421   3.809
11058W        W70561  25.667   0.857  14.317
11059W        W70562  24.173  12.723   2.261
11060W        W70563  10.696  11.203  11.461
11061W        W70564   2.291  36.556   1.776
11062W        W70565  26.581  17.792   2.400
11063W        W70566  17.765  44.331   4.157
11064W        W70567  31.009  34.475  11.998
11065W        W70568  34.003  28.661   1.224
11066W        W70569  20.120  40.004  10.109
11067W        W70570   9.368   8.793  14.948
11068W        W70571  32.924   4.272   0.331
11069W        W70572   6.219  43.966  11.872
11070W        W70573  19.665   1.833   3.182
11071W        W70574  39.476   3.255  11.591
11072W        W70575  43.400  27.973   3.737
11073W        W70576  13.814  31.438   1.789
11074W        W70577  44.482  31.033  12.376
11075W        W70578  19.067  38.953  14.482
11076W        W70579  29.082  22.030  14.781
11077W        W70580  16.683  11.250  13.373
11078W        W70581  18.631  14.213   1.742
11079W        W70582  17.699  35.592  13.026
11080W        W70583  17.765  11.198   3.689
11081W        W70584  33.535  25.664   0.442
11082W        W70585  25.122  35.985  11.115
11083W        W70586  41.932   7.285   3.148
11084W        W70587   9.643   5.914  12.094
11085W        W70588  40.357  12.299   2.359
11086W        W70589  16.094  10.765   0.465
11087W        W70590  37.046  21.036  12.404
11088W        W70591  20.705   6.192  11.911
11089W        W70592  25.470  26.458   3.160
11090W        W70593   3.459   0.812  12.397
11091W        W70594  31.982   4.868   1.451
11092W        W70595  13.351  38.918  14.487
11093W        W70596  10.215  25.501   1.763
11094W        W70597   0.868  22.743  13.477
11095W        W70598  18.644  28.168  13.957
11096W        W70599   7.259  22.539  14.773
11097W        W70600  34.064  40.851  10.486
11098W        W70601  30.615   3.297  14.469
11099W        W70602  11.688  43.879   4.657
11100W        W70603  30.469   7.905   5.237
11101W        W70604  20.176  32.472  13.025
11102W        W70605  11.306  20.108   3.152
11103W        W70606  37.478  17.220   0.890
11104W        W70607  40.501  26.641   0.401
11105W        W70608  23.218  19.647  11.007
11106W        W70609   9.812  36.417   2.733
11107W        W70610  39.334  13.260   2.404
11108W        W70611  21.756  41.486   3.631
11109W        W70612   6.695  38.860   4.188
11110W        W70613  18.076  33.549  10.480
11111W        W70614  24.577   6.215   0.428
11112W        W70615  39.466  42.803   4.602
11113W        W70616  19.638  37.852  12.077
11114W        W70617  23.577   8.312   4.641
11115W        W70618  13.111  30.430   3.723
11116W        W70619  10.349   6.417  11.118
11117W        W70620  37.552  12.636  14.771
11118W        W70621  34.573   8.289  14.509
11119W        W70622  14.751  34.914   2.404
11120W        W70623   4.784  32.058   1.923
11121W        W70624   9.732  42.414   0.478
11122W        W70625  26.574  24.212  14.864
11123W        W70626  15.113  42.014  13.372
11124W        W70627  26.628  44.324   0.309
11125W        W70628   0.282   5.811  13.312
11126W        W70629   5.782   2.931   1.449
11127W        W70630  27.566  37.902   0.785
11128W        W70631  11.790  35.904   4.801
11129W        W70632  19.709  12.702   0.960
11130W        W70633   0.770   7.260  14.840
11131W        W70634  39.989  25.636  12.886
11132W        W70635   7.374  22.517  11.585
11133W        W70636  17.786  21.670   3.369
11134W        W70637  28.130   2.881  12.559
11135W        W70638  32.491  21.017   3.862
11136W        W70639  13.822  38.893  10.485
11137W        W70640  11.152   3.729   0.288
11138W        W70641   0.473  26.628   0.922
11139W        W70642  42.287  30.152   3.775
11140W        W70643  15.320  30.560  13.835
11141W        W70644  13.190  17.715   3.672
11142W        W70645   1.796  33.518  13.492
11143W        W70646   6.288  18.671  10.520
11144W        W70647  11.276   9.322  10.608
11145W        W70648  10.334   9.352  14.029
11146W        W70649   1.252  29.961   2.347
11147W        W70650  19.605  32.933   1.228
11148W        W70651  40.882  37.445  14.318
11149W        W70652   2.902  41.991  11.444
11150W        W70653  32.888  44.293  10.960
11151W        W70654  16.760  22.718   3.168
11152W        W70655  34.445  43.945  13.539
11153W        W70656   2.959  23.031   3.300
11154W        W70657  29.031  29.980  12.018
11155W        W70658  37.907  39.964   3.790
11156W        W70659  34.531  25.196  12.515
11157W        W70660  23.135  21.206  11.128
11158W        W70661  34.519   6.823  11.514
11159W        W70662  35.986  39.854  14.904
11160W        W70663   8.873  30.478   4.648
11161W        W70664  16.736  35.019   1.327
11162W        W70665  35.585  25.595   1.785
11163W        W70666  31.043  18.701  12.434
11164W        W70667  27.985  31.605  12.058
11165W        W70668   2.395  10.278   3.784
11166W        W70669  14.635  22.707   1.293
11167W        W70670  14.754  43.839   2.185
11168W        W70671  23.182  40.396  12.359
11169W        W70672  14.255  10.380   3.645
11170W        W70673  42.917  40.838  11.930
11171W        W70674  32.985  15.147   0.365
11172W        W70675   8.262  22.164   0.479
11173W        W70676  17.108  11.364  11.550
11174W        W70677  38.842   9.162   2.822
11175W        W70678  19.677   4.289   0.397
11176W        W70679  35.050  34.081   4.318
11177W        W70680  30.923  23.562   3.864
11178W        W70681   1.404  18.221  11.427
11179W        W70682  12.690  16.076   1.387
11180W        W70683  20.233   2.872   1.421
11181W        W70684  26.993  31.995  14.882
11182W        W70685  33.994   3.933   0.884
11183W        W70686  21.584  13.769   4.265
11184W        W70687  17.221  29.052   1.400
11185W        W70688  34.528   6.823  13.317
11186W        W70689  36.904  22.677  10.640
11187W        W70690  22.063  23.675   0.460
11188W        W70691   0.357  14.682  12.484
11189W        W70692  27.688  25.211  12.892
11190W        W70693  40.812  30.082   0.422
11191W        W70694  31.129   6.362   1.336
11192W        W70695   7.272   1.439   4.121
11193W        W70696  36.954  41.326   2.735
11194W        W70697  22.514  16.613   2.383
11195W        W70698  43.481  16.622   4.212
11196W        W70699  36.550  20.186   4.244
11197W        W70700  22.040  37.517   5.107
11198W        W70701   1.291  38.884   2.415
11199W        W70702  18.602  16.676  12.983
11200W        W70703  17.674  42.876  14.361
11201W        W70704   5.831  32.132  14.939
11202W        W70705   4.922  12.763   3.722
11203W        W70706  32.928  16.079   3.152
11204W        W70707  35.541  14.171  12.919
11205W        W70708  20.707  34.065   4.658
11206W        W70709  44.869  22.516  12.929
11207W        W70710  12.121  42.420   3.256
11208W        W70711  31.057   2.939  11.093
11209W        W70712  43.270  26.148  11.965
11210W        W70713  29.101   0.302  14.974
11211W        W70714  12.683  13.742  14.864
11212W        W70715   9.668  12.838  13.030
11213W        W70716   4.401  37.480  12.394
11214W        W70717   4.862  42.023   3.369
11215W        W70718  24.013  31.432   2.208
11216W        W70719  23.009   4.384   3.261
11217W        W70720   5.917  28.946   1.214
11218W        W70721  27.046  44.456  13.376
11219W        W70722  31.990  27.624  10.590
11220W        W70723  44.307  36.395  13.339
11221W        W70724  41.959  21.745   3.296
11222W        W70725  17.727  18.788  13.002
11223W        W70726  10.353   5.285  14.841
11224W        W70727  41.478   3.268  13.400
11225W        W70728  18.160  17.133   4.800
11226W        W70729  33.616  40.849  11.995
11227W        W70730  24.513  25.510   0.280
11228W        W70731  26.520  14.659   3.717
11229W        W70732   4.291  26.619  11.125
11230W        W70733  34.402  32.411   0.874
11231W        W70734  21.210  16.118   0.251
11232W        W70735   7.377  10.774   4.652
11233W        W70736  19.102  33.477   1.765
11234W        W70737  35.866  25.119   0.419
11235W        W70738  28.000  21.122   9.931
11236W        W70739   0.272  20.261  12.451
11237W        W70740  23.728  37.002  12.037
11238W        W70741  32.904  37.343   0.851
11239W        W70742  31.057  38.454   0.311
11240W        W70743  11.651  29.152  11.017
11241W        W70744   6.854  42.393   3.354
11242W        W70745  28.636  11.665   1.317
11243W        W70746   4.896  35.512   4.824
11244W        W70747  31.428   8.655  11.539
11245W        W70748  33.616   3.714   1.303
11246W        W70749   4.414  24.086   2.406
11247W        W70750  23.566  36.387  12.409
11248W        W70751   8.687  32.071   9.463
11249W        W70752  36.507   5.297  11.869
11250W        W70753  15.626  38.829  10.533
11251W        W70754  25.136  28.047  14.343
11252W        W70755  14.310  35.368   3.290
11253W        W70756  23.671  37.087  14.337
11254W        W70757  34.957   8.229   3.267
11255W        W70758  30.630  12.143   1.408
11256W        W70759   6.426  22.016   3.753
11257W        W70760  12.779  37.933  12.982
11258W        W70761  42.827  27.195   0.801
11259W        W70762  43.996  27.987  12.499
11260W        W70763  28.176  44.480  10.945
11261W        W70764  10.750  25.497   4.693
11262W        W70765  24.170  37.481   3.668
11263W        W70766  40.871  19.559  13.336
11264W        W70767  40.439   9.744  11.911
11265W        W70768   0.977  18.595   5.087
11266W        W70769  23.207  22.681   4.683
11267W        W70770  25.978  27.064   2.709
11268W        W70771  40.862  12.155   2.865
11269W        W70772   0.441  20.751  13.010
11270W        W70773  32.477   4.238   1.441
11271W        W70774  37.970   7.234   1.443
11272W        W70775   1.785   1.315  13.451
11273W        W70776   4.267  20.732   4.323
11274W        W70777  38.996  44.350   1.302
11275W        W70778  22.190  15.227  14.958
11276W        W70779  30.927  24.176  14.929
11277W        W70780  12.283   0.329   1.430
11278W        W70781  14.140  15.216   1.290
11279W        W70782  32.997  17.710  14.335
11280W        W70783  16.696  13.163  10.562
11281W        W70784  14.722  34.010  10.497
11282W        W70785  24.662  37.061  12.870
11283W        W70786  27.540  26.070  14.932
11284W        W70787  11.223  39.972   0.459
11285W        W70788   8.716  28.977   3.791
11286W        W70789  31.934   4.908   3.669
11287W        W70790   0.366  33.922   1.818
11288W        W70791   3.948  16.575   0.937
11289W        W70792   0.931  37.445  12.824
11290W        W70793  35.523  22.050   2.718
11291W        W70794  33.985   1.837  10.447
11292W        W70795  38.424  37.968  13.971
11293W        W70796  42.000  20.169   2.902
11294W        W70797  36.846  43.474  13.842
11295W        W70798  15.740  25.080  13.332
11296W        W70799   5.221   9.302   0.243
11297W        W70800  27.162  39.433  14.486
11298W        W70801  37.866   9.859   0.899
11299W        W70802  44.975   8.256  13.542
11300W        W70803  27.451   8.379  13.015
11301W        W70804  16.638   3.274   3.351
11302W        W70805   7.217  41.018  11.039
11303W        W70806  33.043  11.132  14.275
11304W        W70807  38.345  38.431  13.535
11305W        W70808  39.425  31.060  14.492
11306W        W70809  40.505   9.326   3.184
11307W        W70810  28.958  40.390  11.564
11308W        W70811   3.715  44.972   4.154
11309W        W70812  11.309  36.529  12.048
11310W        W70813  20.260   3.816  14.938
11311W        W70814  26.979   1.757  13.821
11312W        W70815  11.196  22.629   1.358
11313W        W70816   8.310  15.115   0.755
11314W        W70817  34.582  29.610  11.005
11315W        W70818  27.187  26.585   4.832
11316W        W70819   2.395  38.463   0.768
11317W        W70820  35.078  35.373   1.374
11318W        W70821  18.122  15.675   4.833
11319W        W70822   0.920  24.606  13.952
11320W        W70823  16.282  22.162  13.470
11321W        W70824  41.878   7.744   1.866
11322W        W70825  12.810  36.077  14.454
11323W        W70826  15.222  36.452  11.581
11324W        W70827   0.923  18.597  14.325
11325W        W70828   6.765   8.791   3.253
11326W        W70829  12.797  43.991   2.696
11327W        W70830  33.945  26.575  13.842
11328W        W70831  16.590  21.206   2.859
11329W        W70832  15.212  10.677  12.368
11330W        W70833   5.774  16.670   1.383
11331W        W70834  21.684   5.773  11.942
11332W        W70835  13.809   7.296  10.976
11333W        W70836  21.612  44.897  10.536
11334W        W70837  35.904  41.427  13.969
11335W        W70838   8.871  33.054   4.755
11336W        W70839  15.795  17.733   1.791
11337W        W70840  38.454  41.350   3.837
11338W        W70841  25.666  19.671  11.400
11339W        W70842   3.392  10.354  12.427
11340W        W70843  41.971  17.099   0.289
11341W        W70844  13.647   9.155  14.348
11342W        W70845   7.229  25.626  10.556
11343W        W70846  31.502  11.219  13.894
11344W        W70847   8.169  20.094   4.631
11345W        W70848  41.500  44.915   3.747
11346W        W70849   8.323  37.408  14.765
11347W        W70850  12.294  25.701  14.473
11348W        W70851  22.045  36.591  14.791
11349W        W70852  34.963  39.031   0.466
11350W        W70853  17.592   5.857   4.261
11351W        W70854  10.191  13.831  13.818
11352W        W70855  34.908  36.868   3.198
11353W        W70856  32.952  37.466   3.174
11354W        W70857  11.732   6.853   4.180
11355W        W70858  14.602   2.759   2.895
11356W        W70859  10.292  30.069  10.500
11357W        W70860  23.173   2.447   2.318
11358W        W70861   3.218  39.517  10.989
11359W        W70862  31.638  28.652  12.986
11360W        W70863  21.112  28.604   3.669
11361W        W70864  44.413  12.146   4.254
11362W        W70865  40.871   0.287   0.933
11363W        W70866  40.940  42.819  10.639
11364W        W70867  36.560  11.654   2.715
11365W        W70868  25.083  39.891  13.884
11366W        W70869  40.523  21.645  12.406
11367W        W70870  22.518   1.891   0.847
11368W        W70871  29.441   8.205  13.429
11369W        W70872  43.488  40.421  12.480
11370W        W70873   4.703  34.426   4.134
11371W        W70874  28.458  29.597   4.781
11372W        W70875  37.493   5.896  11.592
11373W        W70876  43.927  33.441   0.967
11374W        W70877  34.449  11.780   4.650
11375W        W70878   8.706   9.696   3.855
11376W        W70879  15.720  22.736  13.408
11377W        W70880  39.855  11.790  11.066
11378W        W70881  28.612   4.359  14.814
11379W        W70882  42.986  21.646   3.304
11380W        W70883  22.029  33.019   0.380
11381W        W70884  30.021  40.522   9.986
11382W        W70885  27.168  17.067   4.343
11383W        W70886  27.538  35.042  10.598
11384W        W70887  21.175  44.815   4.709
11385W        W70888  43.894  14.705   3.285
11386W        W70889  18.784  28.976   5.269
11387W        W70890  14.105  19.155  12.397
11388W        W70891  28.067  30.092  14.758
11389W        W70892  36.950  42.847  14.307
11390W        W70893   0.805  14.109  12.534
11391W        W70894   2.385  13.623   2.342
11392W        W70895  36.034   6.758  12.912
11393W        W70896  10.374  32.018   0.280
11394W        W70897  32.577  25.976  11.420
11395W        W70898  30.942  12.357   4.123
11396W        W70899  12.226  34.004  13.371
11397W        W70900   8.293  11.338   0.957
11398W        W70901   2.892   6.357   2.358
11399W        W70902  37.372  34.432  12.363
11400W        W70903  34.071  33.009  11.925
11401W        W70904  24.041  16.101  10.534
11402W        W70905  21.544  34.983   0.957
11403W        W70906  33.430  42.450  13.862
11404W        W70907  15.650  41.935   4.602
11405W        W70908   9.383  21.224   3.786
11406W        W70909  19.168  27.185   0.447
11407W        W70910   8.882  17.207  13.378
11408W        W70911  20.245  44.869   3.716
11409W        W70912  30.610  38.513  14.490
11410W        W70913  30.433  40.920  11.613
11411W        W70914  27.543  17.215  10.902
11412W        W70915  30.630  27.608  13.308
11413W        W70916  16.663  33.553  12.515
11414W        W70917  21.158  36.385  11.899
11415W        W70918  39.434  11.359  11.469
11416W        W70919  32.938  28.567  14.388
11417W        W70920  42.304  18.054  14.344
11418W        W70921  17.596   9.652  14.382
11419W        W70922  39.835  29.019  12.071
11420W        W70923   1.268  35.497   4.821
11421W        W70924  41.404  32.984  14.837
11422W        W70925  27.170  15.814  10.527
11423W        W70926  24.992  37.895   4.244
11424W        W70927   2.899  44.774  12.367
11425W        W70928   2.430   8.748  13.881
11426W        W70929   5.221  20.560  12.921
11427W        W70930  13.649  18.666   4.754
11428W        W70931   1.839   9.728  10.424
11429W        W70932  41.838  31.058   3.647
11430W        W70933  41.299  29.473  11.006
11431W        W70934  30.586   3.228   3.293
11432W        W70935  17.591  15.258   1.834
11433W        W70936  24.189  16.211  11.545
11434W        W70937  19.768  18.725   3.831
11435W        W70938  26.669  23.025   2.807
11436W        W70939  38.900  40.449  13.332
11437W        W70940  13.704   0.755  11.557
11438W        W70941  41.311   9.800  13.795
11439W        W70942  29.473  11.358  13.792
11440W        W70943  42.029  23.164  11.495
11441W        W70944  29.612  23.088  12.943
11442W        W70945  27.503  11.635   1.357
11443W        W70946  38.053  22.032  13.865
11444W        W70947  20.207   3.861  11.903
11445W        W70948  29.933  10.681   3.736
11446W        W70949  10.719  35.086   0.300
11447W        W70950   3.222  31.045   4.264
11448W        W70951   7.365  39.416  10.589
11449W        W70952  43.816  21.249  14.885
11450W        W70953  39.929   2.741  12.076
11451W        W70954  39.538  30.909   0.291
11452W        W70955  43.012  28.022   3.257
11453W        W70956  33.978  18.587  10.609
11454W        W70957  18.632  15.677  11.409
11455W        W70958  43.828  21.213  10.638
11456W        W70959  21.209   4.762  12.503
11457W        W70960  13.249  16.612   2.219
11458W        W70961  34.471   2.266  11.973
11459W        W70962  41.438  24.214  13.894
11460W        W70963  34.993  39.422   4.690
11461W        W70964  22.210   0.811   2.331
11462W        W70965  17.194  14.158   5.141
11463W        W70966  12.334  44.927   3.860
11464W        W70967  36.506  23.722   3.712
11465W        W70968   7.769  41.348   1.702
11466W        W70969  19.047  19.623  11.483
11467W        W70970   7.792  24.697   4.316
11468W        W70971   6.807   7.184   3.777
11469W        W70972  25.075  27.086   3.688
11470W        W70973  33.460  34.419  12.898
11471W        W70974   5.258  43.506  13.519
11472W        W70975  33.582  40.321   5.292
11473W        W70976  10.813  14.243  13.037
11474W        W70977  12.312  42.822  10.552
11475W        W70978   8.305  39.816   4.167
11476W        W70979  29.059  37.081   3.359
11477W        W70980  24.564  43.000  14.962
11478W        W70981  36.514   5.793  10.069
11479W        W70982   2.454  20.090   0.385
11480W        W70983  26.577   1.834   9.968
11481W        W70984  17.061  30.587   1.784
11482W        W70985  35.446   6.291   0.389
11483W        W70986   5.326  29.448  11.874
11484W        W70987  11.322  17.079   0.297
11485W        W70988   4.846  26.569  10.628
11486W        W70989  19.190  33.392   3.805
11487W        W70990  19.569  21.026   1.450
11488W        W70991  43.506   9.225   1.222
11489W        W70992   4.425  14.663   0.425
11490W        W70993  41.493  18.188   0.912
11491W        W70994  35.541  41.011   3.760
11492W        W70995  41.429   6.832  12.436
11493W        W70996  43.892  19.220  14.928
11494W        W70997  42.853   4.223   2.805
11495W        W70998   8.731  37.011  12.867
11496W        W70999  29.504   9.759  14.462
11497W        W71000   8.235   5.348   0.728
11498W        W71001  38.946   9.850  11.467
11499W        W71002  43.336  32.564   0.438
11500W        W71003   7.881  18.593   2.837
11501W        W71004  15.673  28.944  12.482
11502W        W71005  16.087  26.528  11.861
11503W        W71006   2.437  11.237   4.614
11504W        W71007  25.657   3.809  11.034
11505W        W71008   4.369  28.593  11.905
11506W        W71009  38.822  13.220   3.701
11507W        W71010  14.227  36.587  10.578
11508W        W71011   0.978   4.713   2.372
11509W        W71012   0.803  38.917  13.320
11510W        W71013   7.239  18.060   4.167
11511W        W71014  21.184   2.435  11.866
11512W        W71015  34.517  25.168   4.350
11513W        W71016  22.052  16.201  13.052
11514W        W71017  34.580   3.403  10.429
11515W        W71018   0.903  19.604  14.820
11516W        W71019  39.036  32.425   1.932
11517W        W71020  25.502  40.965  10.517
11518W        W71021   5.260  39.898   4.241
11519W        W71022  18.107  22.130  12.896
11520W        W71023  24.572  28.989   1.302
11521W        W71024  19.759   9.385   3.699
11522W        W71025  44.946  13.297  13.521
11523W        W71026  19.065  26.640   1.432
11524W        W71027  27.511   3.786   3.835
11525W        W71028  14.630  38.420   1.409
11526W        W71029  27.642  22.606   1.300
11527W        W71030   8.176  19.644  14.980
11528W        W71031  13.782   6.838   0.889
11529W        W71032  18.652  34.890  11.393
11530W        W71033  16.079  36.096   2.243
11531W        W71034  14.106  35.581   2.319
11532W        W71035   4.857  15.299  10.125
11533W        W71036  38.353   6.739   3.333
11534W        W71037  25.614  29.430   9.953
11535W        W71038  30.444   4.375   1.348
11536W        W71039  10.252   9.319   1.798
11537W        W71040   1.394  37.861   4.309
11538W        W71041  35.520   2.802   4.258
11539W        W71042  36.047   9.182  12.093
11540W        W71043  42.518  28.501  12.857
11541W        W71044   5.706  21.121   2.808
11542W        W71045   3.321  19.650  11.068
11543W        W71046   1.307   8.819   3.195
11544W        W71047   8.305  21.259   1.332
11545W        W71048  38.369  24.162   0.775
11546W        W71049  13.152  21.594   1.219
11547W        W71050   3.223  35.902   2.233
11548W        W71051  21.169  16.286   3.851
11549W        W71052  18.291  26.585  10.464
11550W        W71053  30.488  35.892   3.639
11551W        W71054  13.266  34.606   0.478
11552W        W71055   5.251  37.474   0.757
11553W        W71056  18.233  33.081  11.392
11554W        W71057   6.303  12.627  10.508
11555W        W71058  17.603  35.361  10.956
11556W        W71059  16.101  20.122   1.442
11557W        W71060  14.700  33.878  13.859
11558W        W71061  15.318  34.891  13.432
11559W        W71062  33.596  42.859  11.449
11560W        W71063  12.639   1.968   0.857
11561W        W71064  26.067   7.251   0.747
11562W        W71065   7.381  33.047  11.032
11563W        W71066   4.731  31.106   1.772
11564W        W71067   6.402   9.749  12.379
11565W        W71068   1.935  29.476   3.257
11566W        W71069  26.486  26.191   2.407
11567W        W71070  33.559  21.037   0.305
11568W        W71071  30.414  17.240  12.852
11569W        W71072  42.031   7.701   1.343
11570W        W71073  36.981   3.461   1.388
11571W        W71074  31.950  36.941   2.350
11572W        W71075  32.416  33.065   2.383
11573W        W71076  34.994  42.442  13.365
11574W        W71077  39.330   2.919   2.851
11575W        W71078   1.745  31.523   0.763
11576W        W71079  26.105  29.638   4.758
11577W        W71080  32.532  22.024  12.565
11578W        W71081  41.871   0.330   1.905
11579W        W71082  10.180  25.115  11.499
11580W        W71083  12.666   1.778  10.626
11581W        W71084  35.064   5.840   1.908
11582W        W71085   7.752  20.133  11.065
11583W        W71086  30.083  34.945   3.378
11584W        W71087  33.545  25.695   1.826
11585W        W71088  37.875   9.675  14.948
11586W        W71089  24.510  16.635  13.375
11587W        W71090  28.970  30.513  13.816
11588W        W71091  28.035  33.011  14.478
11589W        W71092  19.189  32.070   0.805
11590W        W71093  10.780   9.773  14.020
11591W        W71094  15.806  38.529   0.863
11592W        W71095  14.667  34.990  14.276
11593W        W71096  22.718  41.030   1.247
11594W        W71097  25.691   8.323   4.184
11595W        W71098  18.688  23.664   1.394
11596W        W71099  25.074  10.383  11.951
11597W        W71100  13.150   2.732   2.744
11598W        W71101  13.140  14.320  12.555
11599W        W71102   9.340   5.359   1.396
11600W        W71103   0.294  29.603   1.736
11601W        W71104  15.635  25.204   4.670
11602W        W71105  27.573  40.317  11.878
11603W        W71106   9.835  24.178   4.605
11604W        W71107  23.992  30.023   4.146
11605W        W71108  29.102  29.527   4.288
11606W        W71109   3.762  39.924  14.449
11607W        W71110  33.421  20.744   2.791
11608W        W71111  42.938  21.134   4.812
11609W        W71112   8.372  39.422   4.771
11610W        W71113  35.045  31.119   0.272
11611W        W71114  42.028  36.396  14.387
11612W        W71115   3.841   9.797   4.161
11613W        W71116  30.538  41.813  10.484
11614W        W71117  27.461   7.705   4.269
11615W        W71118  39.457   5.753  11.874
11616W        W71119  15.092  34.874  13.879
11617W        W71120  23.165  27.612   0.260
11618W        W71121  43.387  29.943   3.859
11619W        W71122  30.019  14.196   0.813
11620W        W71123  42.514  29.447   1.809
11621W        W71124  28.447   0.346   3.252
11622W        W71125  30.484   0.399   1.400
11623W        W71126   5.721  15.775  11.872
11624W        W71127  19.679  35.040  14.764
11625W        W71128  12.144  42.895  12.477
11626W        W71129  32.108   2.745   0.760
11627W        W71130  37.424  30.507  12.409
11628W        W71131  14.226  26.500   1.397
11629W        W71132  10.632  12.692  10.975
11630W        W71133  15.286  34.104  10.571
11631W        W71134  42.399  11.671  13.536
11632W        W71135  38.557   7.208  12.890
11633W        W71136  23.046  30.496   1.212
11634W        W71137  13.252  30.113   2.701
11635W        W71138   3.769  36.512  13.372
11636W        W71139   3.330  14.290  10.148
11637W        W71140  41.854   1.374   0.858
11638W        W71141  28.132  17.598  13.045
11639W        W71142  13.630  24.077  11.440
11640W        W71143  24.106  12.722  14.333
11641W        W71144  15.105  30.571  10.525
11642W        W71145   0.870  11.707   1.320
11643W        W71146  27.581  30.054   2.903
11644W        W71147  20.685  20.090   3.175
11645W        W71148  40.944  13.203   1.265
11646W        W71149  23.201  13.304   0.426
11647W        W71150  21.038  16.718   2.394
11648W        W71151  26.135  33.987   0.849
11649W        W71152  19.583  23.714  12.959
11650W        W71153   3.898  35.066  13.307
11651W        W71154  11.810  38.970   3.816
11652W        W71155  29.444  24.155  13.461
11653W        W71156   6.817  23.732   3.845
11654W        W71157  21.628  22.150  12.037
11655W        W71158  35.358   1.424   3.232
11656W        W71159  13.802  32.052  10.561
11657W        W71160  22.175  24.212  13.426
11658W        W71161   8.793   1.366  12.399
11659W        W71162   5.797  30.438  11.589
11660W        W71163  37.496  40.975  12.974
11661W        W71164   3.299  28.030  10.980
11662W        W71165   0.455  16.572  10.121
11663W        W71166  22.717  17.634   3.835
11664W        W71167  25.524  35.031   1.375
11665W        W71168  18.702  29.445  10.045
11666W        W71169  32.566  12.660   2.418
11667W        W71170  19.546  34.487  12.899
11668W        W71171  34.489  27.518  12.477
11669W        W71172   1.951  40.436   2.406
11670W        W71173  44.993  21.151   5.634
11671W        W71174  37.876  11.779   3.278
11672W        W71175  34.893  15.243   0.313
11673W        W71176  31.025  32.128   0.759
11674W        W71177  31.534  26.545  13.882
11675W        W71178   4.271  40.979  10.921
11676W        W71179  20.624  44.465   3.632
11677W        W71180  22.734  42.992   3.677
11678W        W71181  36.472  44.976   2.210
11679W        W71182  11.827  22.245   4.129
11680W        W71183   8.346   8.786  10.913
11681W        W71184   6.329   8.808   2.685
11682W        W71185   7.365  37.849  10.524
11683W        W71186  19.779  21.610   4.140
11684W        W71187  31.621  20.732  12.438
11685W        W71188   5.810  12.190  12.023
11686W        W71189  31.038  22.020   0.797
11687W        W71190  21.713  20.209  13.856
11688W        W71191  21.050  35.008   2.354
11689W        W71192  23.995  15.266   0.837
11690W        W71193  17.100   5.909  13.312
11691W        W71194  23.547  32.001   2.274
11692W        W71195  40.869  16.684  11.594
11693W        W71196  23.601  26.640  11.565
11694W        W71197   9.772  30.648  13.843
11695W        W71198  10.686  25.069   3.630
11696W        W71199   3.905  40.446   2.179
11697W        W71200  16.114  41.310   5.221
11698W        W71201   1.450  26.685  14.321
11699W        W71202  38.515  37.893  11.934
11700W        W71203   4.388  16.672   5.604
11701W        W71204  29.155  11.784   0.265
11702W        W71205  11.689   9.841  12.874
11703W        W71206  34.108  38.536   0.806
11704W        W71207  32.959   9.772   1.382
11705W        W71208  21.686  12.752   0.294
11706W        W71209  41.972  32.125  11.424
11707W        W71210  29.928  36.009  13.389
11708W        W71211  36.585  41.846  11.021
11709W        W71212  14.227  34.061  14.949
11710W        W71213  17.103  43.888  12.399
11711W        W71214  10.689   5.260  13.401
11712W        W71215  40.310  44.461  11.555
11713W        W71216  30.983   9.161  12.048
11714W        W71217  38.940   6.734   2.752
11715W        W71218  35.582  16.189  14.295
11716W        W71219  11.758  32.030   1.807
11717W        W71220  35.501  26.993   0.815
11718W        W71221  39.994  26.578   4.764
11719W        W71222  17.740   4.722  14.827
11720W        W71223  40.479  24.501  14.447
11721W        W71224  23.719  24.988  13.887
11722W        W71225  26.496  32.568  11.389
11723W        W71226  17.642  26.592  12.420
11724W        W71227  37.074  16.214  13.431
11725W        W71228  14.603  14.798   2.339
11726W        W71229  41.963  26.070   4.292
11727W        W71230  17.783  22.058  13.985
11728W        W71231  12.130  31.946  13.925
11729W        W71232  41.863  13.127   2.790
11730W        W71233  22.036  20.058   4.251
11731W        W71234  27.675  41.944   2.228
11732W        W71235   2.840  29.501  14.420
11733W        W71236  29.537  21.517   4.755
11734W        W71237   8.660  13.608  10.895
11735W        W71238  11.670   4.833   3.720
11736W        W71239   7.339  30.488   1.835
11737W        W71240  25.199   7.377  14.334
11738W        W71241  21.252   8.868   1.874
11739W        W71242  35.083  21.251   2.292
11740W        W71243   9.866  12.696   3.820
11741W        W71244  43.312  37.548   4.122
11742W        W71245  42.972  28.670  14.948
11743W        W71246  35.978   3.223   2.751
11744W        W71247  28.579  24.527  13.836
11745W        W71248  21.662   5.362  12.348
11746W        W71249  36.954  12.200   0.423
11747W        W71250   6.742  20.215   3.273
11748W        W71251  16.680  34.521   4.667
11749W        W71252  26.023  44.380  14.840
11750W        W71253  22.236  37.879  13.950
11751W        W71254  19.739  36.362  11.511
11752W        W71255  30.642  44.496   3.182
11753W        W71256  25.020   0.758  13.873
11754W        W71257  26.636  20.711  10.932
11755W        W71258  21.612  33.472  12.484
11756W        W71259  27.969  28.092   4.761
11757W        W71260  38.876  17.620  14.840
11758W        W71261  26.968  33.559   0.314
11759W        W71262   3.453  37.378   9.934
11760W        W71263   9.237  17.789  10.894
11761W        W71264  35.497   6.793   4.680
11762W        W71265  42.029  29.536  11.887
11763W        W71266  38.568  38.423   1.396
11764W        W71267   9.679  39.485   3.177
11765W        W71268  24.651  10.699  12.473
11766W        W71269  21.195   8.229  11.106
11767W        W71270  22.165  17.693  13.534
11768W        W71271  39.065  38.420  14.339
11769W        W71272  16.314  26.628   2.415
11770W        W71273  34.493  37.965  14.380
11771W        W71274  25.567  41.960   3.856
11772W        W71275  38.462   0.377   1.236
11773W        W71276  32.441   6.184  12.059
11774W        W71277   7.826   5.760  14.306
11775W        W71278   7.832   6.773  14.777
11776W        W71279  27.619  26.105   3.660
11777W        W71280  32.127  18.588   0.929
11778W        W71281  33.093   7.828   0.274
11779W        W71282  19.770  38.932  13.932
11780W        W71283   7.888  14.253  10.528
11781W        W71284  17.596  39.472  12.077
11782W        W71285  43.441  33.552   3.687
11783W        W71286  31.417  13.347   0.905
11784W        W71287  33.392  12.790  14.803
11785W        W71288   1.440  33.438   0.780
11786W        W71289  33.482   5.351   4.740
11787W        W71290   1.878  12.187  11.612
11788W        W71291  19.069  33.591   0.472
11789W        W71292  23.120  34.115   4.292
11790W        W71293   4.391   9.320   3.184
11791W        W71294  33.012  36.893  12.880
11792W        W71295  24.120  14.094   0.777
11793W        W71296  21.246  22.066  14.399
11794W        W71297  41.435  41.410  12.504
11795W        W71298   6.689  22.126   2.353
11796W        W71299  28.015  10.376  14.321
11797W        W71300   2.274   3.912   3.721
11798W        W71301  21.529   2.284  10.942
11799W        W71302  36.570  15.150  14.402
11800W        W71303  19.281  11.346   3.644
11801W        W71304  33.038  24.229  11.046
11802W        W71305  17.308  44.971   3.150
11803W        W71306  36.591  32.107   2.191
11804W        W71307  14.727  34.921   2.732
11805W        W71308   0.837  40.018  10.027
11806W        W71309  11.664   7.318  10.523
11807W        W71310  41.343  36.033  12.959
11808W        W71311  41.992  42.317  13.471
11809W        W71312  40.381  42.846  10.076
11810W        W71313  22.074   0.982  13.015
11811W        W71314  37.541  19.257   0.835
11812W        W71315   3.285   4.808  12.342
11813W        W71316  29.600   2.725   3.369
11814W        W71317  21.677  25.554   3.310
11815W        W71318  18.169  25.101  10.582
11816W        W71319   6.783  14.221   0.299
11817W        W71320  27.017  40.028  14.862
11818W        W71321   0.788  27.076   2.691
11819W        W71322  15.192  14.200  11.575
11820W        W71323  15.665  10.238   0.958
11821W        W71324  19.778  21.681  10.937
11822W        W71325  29.670  32.084  13.813
11823W        W71326  43.410   4.901   1.276
11824W        W71327  19.283  33.098   0.342
11825W        W71328   0.814   8.366   4.819
11826W        W71329  14.741  30.929  10.629
11827W        W71330  27.470  32.442   1.221
11828W        W71331   0.785   1.298   4.178
11829W        W71332  21.058  17.289  10.973
11830W        W71333  18.558  15.210   1.333
11831W        W71334  40.960  10.224   1.306
11832W        W71335  27.046   6.841   1.391
11833W        W71336   1.850  18.783   0.355
11834W        W71337   3.741  17.755  13.337
11835W        W71338  37.069  20.127  14.896
11836W        W71339  24.115  15.681   1.752
11837W        W71340  15.329   5.204  11.085
11838W        W71341   0.801  32.431  13.394
11839W        W71342  29.926  36.850   0.744
11840W        W71343   1.242  35.511   3.684
11841W        W71344  20.058  15.682  13.522
11842W        W71345   6.344  24.053   0.811
11843W        W71346  32.444  39.399   0.278
11844W        W71347  10.700  41.321   0.769
11845W        W71348  39.058   5.831  13.940
11846W        W71349  37.351  41.034  13.503
11847W        W71350  35.476   5.335   4.206
11848W        W71351  15.678  28.032  14.868
11849W        W71352   0.915   5.919   2.310
11850W        W71353  21.543   3.342   1.849
11851W        W71354  11.240   0.395  11.924
11852W        W71355   1.404  27.984  13.403
11853W        W71356   0.383  28.964   2.305
11854W        W71357  36.459  43.425  13.929
11855W        W71358  33.607  19.603  12.436
11856W        W71359  21.202  29.587  11.489
11857W        W71360   3.879  31.542   0.950
11858W        W71361  30.042   5.258  14.991
11859W        W71362  21.710  40.329  10.403
11860W        W71363  37.029   2.378  10.500
11861W        W71364  40.886   4.901  13.895
11862W        W71365   1.340  27.542   1.434
11863W        W71366  30.626  17.611  12.059
11864W        W71367  16.573   9.388  14.325
11865W        W71368  26.516  34.025  13.448
11866W        W71369  36.494  28.936  12.950
11867W        W71370  35.997  39.925   3.730
11868W        W71371   6.399  38.062  14.869
11869W        W71372  33.011  12.344  14.496
11870W        W71373   0.755   8.872   1.357
11871W        W71374  11.281  21.572   3.215
11872W        W71375  13.827  18.059   0.317
11873W        W71376  30.629   8.340  12.951
11874W        W71377  15.101  18.165   0.477
11875W        W71378  36.433  24.613   4.168
11876W        W71379   4.858  40.388  11.944
11877W        W71380  36.578  31.906   9.945
11878W        W71381  17.647  34.968   4.654
11879W        W71382   2.335  40.344   1.363
11880W        W71383   3.401  35.424  12.355
11881W        W71384   2.855  12.663  11.488
11882W        W71385   1.809  37.877   2.772
11883W        W71386   7.881  15.698  12.047
11884W        W71387  13.321  14.745   1.816
11885W        W71388  24.003   5.432   5.260
11886W        W71389  11.189  15.244   2.842
11887W        W71390  22.569  12.153  11.420
11888W        W71391  24.588  44.287  11.414
11889W        W71392  29.107   9.761   4.722
11890W        W71393  27.169  13.133   0.856
11891W        W71394   5.327  40.337  11.914
11892W        W71395  38.352  33.605   0.952
11893W        W71396  27.133  43.996   9.604
11894W        W71397  20.581  24.098   0.762
11895W        W71398  11.775  29.575  13.320
11896W        W71399  16.219  44.362   1.733
11897W        W71400  24.588  13.830   2.881
11898W        W71401  39.892  26.174   1.328
11899W        W71402  29.503  22.029   3.869
11900W        W71403  16.302  23.177   3.689
11901W        W71404  35.102  30.414  12.369
11902W        W71405  18.633  17.607   0.881
11903W        W71406   0.325  10.329  13.054
11904W        W71407  11.769  27.983   3.638
11905W        W71408   2.453  38.991  10.432
11906W        W71409   1.378  37.453  14.494
11907W        W71410  12.270  22.627   0.871
11908W        W71411  39.900  37.954  13.031
11909W        W71412   2.425  17.235  10.499
11910W        W71413  28.553  36.582   0.950
11911W        W71414  20.248  22.514  14.983
11912W        W71415   7.881  39.858  12.907
11913W        W71416  22.073  22.662  13.397
11914W        W71417  17.240  39.917  14.804
11915W        W71418  21.174  19.544   0.728
11916W        W71419   5.237  12.140  11.514
11917W        W71420  19.558  44.837   4.157
11918W        W71421  43.426  23.601  12.949
11919W        W71422  32.443  44.755   0.353
11920W        W71423  22.548  33.993  14.329
11921W        W71424  32.929   8.705  11.026
11922W        W71425  34.087  22.591  12.463
11923W        W71426  32.622  28.075   0.777
11924W        W71427  25.039  24.125   3.259
11925W        W71428   7.363  27.456   3.158
11926W        W71429  22.612   5.400  13.053
11927W        W71430  24.060  23.494   0.959
11928W        W71431  31.930  10.181  12.968
11929W        W71432  27.515  40.361  12.956
11930W        W71433  29.988  33.888  13.956
11931W        W71434  26.043   0.822  14.442
11932W        W71435  31.545  43.370   2.414
11933W        W71436  29.033  25.017  10.898
11934W        W71437   3.353   7.191   2.394
11935W        W71438  19.672  44.417   4.614
11936W        W71439  20.196   5.264   3.827
11937W        W71440   0.939   0.278   1.844
11938W        W71441  29.005   1.474   1.228
11939W        W71442   8.761   8.250   1.749
11940W        W71443  20.076  37.570   0.962
11941W        W71444  21.628   6.701   3.236
11942W        W71445  43.335  21.240   2.237
11943W        W71446  20.157   9.158  12.893
11944W        W71447  42.479  34.555  13.912
11945W        W71448  31.987  13.603  10.418
11946W        W71449  28.967  26.166  14.004
11947W        W71450  34.379  44.406  12.393
11948W        W71451  29.942  38.888  10.462
11949W        W71452  14.174   7.754   2.349
11950W        W71453   1.832   6.234  10.468
11951W        W71454   9.797  13.125   3.177
11952W        W71455  21.696   9.160  13.992
11953W        W71456  31.623  25.590   2.295
11954W        W71457  29.513   6.349   0.257
11955W        W71458  15.679   2.391  13.317
11956W        W71459  27.595  42.400  14.978
11957W        W71460  26.458  22.224   0.276
11958W        W71461  42.791   1.759  12.540
11959W        W71462  32.454  37.454   1.700
11960W        W71463  32.427  37.367  13.963
11961W        W71464  36.046  17.267  11.573
11962W        W71465  11.785  44.933   2.709
11963W        W71466   2.731  20.269   2.676
11964W        W71467  39.844  23.058   0.471
11965W        W71468  26.608  35.568   4.268
11966W        W71469  44.827  34.445   2.674
11967W        W71470  44.259   4.893   0.856
11968W        W71471  10.359   7.281  14.491
11969W        W71472   9.758  30.934  13.927
11970W        W71473  37.546   6.234  12.879
11971W        W71474  43.377  15.644   4.264
11972W        W71475  25.677  28.665  14.842
11973W        W71476  11.142  36.001  12.874
11974W        W71477  24.090   1.329   1.733
11975W        W71478  44.872   2.721  13.792
11976W        W71479  36.431   9.213  14.763
11977W        W71480  13.625  39.538  14.508
11978W        W71481  40.547  38.934  10.015
11979W        W71482  37.038  10.148  11.092
11980W        W71483  13.710   2.358  13.012
11981W        W71484  23.023  11.755  12.347
11982W        W71485  43.792  33.538   0.475
11983W        W71486  30.969  24.714   4.329
11984W        W71487  26.586   5.315  11.451
11985W        W71488  18.097  30.039   3.284
11986W        W71489  34.555   5.268   0.330
11987W        W71490  14.723  22.637   2.413
11988W        W71491   9.827  36.024   3.271
11989W        W71492  26.966  15.222   2.766
11990W        W71493  20.630  15.137  14.288
11991W        W71494  39.549  23.538  14.957
11992W        W71495  20.669  10.336  11.479
11993W        W71496  32.399   2.925   3.251
11994W        W71497  15.169  10.261   4.716
11995W        W71498   2.754  42.521   3.718
11996W        W71499  22.167  20.100   2.699
11997W        W71500   3.380   3.829  10.614
11998W        W71501  27.492  33.127  12.065
11999W        W71502  32.581  32.505   0.951
12000W        W71503  24.519  32.041  10.572
12001W        W71504   8.340  26.991   0.264
12002W        W71505   0.358  43.413   3.245
12003W        W71506  12.665  19.685  11.468
12004W        W71507   4.333  27.044   3.802
12005W        W71508  28.178  34.101   0.391
12006W        W71509  40.410  10.872   3.666
12007W        W71510   6.191  19.210   2.381
12008W        W71511   9.782  36.977  11.062
12009W        W71512  25.625  28.975  14.316
12010W        W71513  32.043  30.005   1.698
12011W        W71514  27.976  20.100   4.139
12012W        W71515  21.042  33.557   2.288
12013W        W71516   1.790  16.138   3.734
12014W        W71517   5.704  26.963  12.066
12015W        W71518  22.669  16.799  14.899
12016W        W71519  43.441  10.708   1.696
12017W        W71520  27.115  30.046   4.833
12018W        W71521  39.832  26.985  11.425
12019W        W71522  42.378  44.390  11.920
12020W        W71523   3.716   4.908  13.370
12021W        W71524   2.253  32.033  13.943
12022W        W71525   2.934  34.443   0.461
12023W        W71526   9.303  44.999  12.394
12024W        W71527  18.627   5.243  10.909
12025W        W71528   5.933  17.196  11.564
12026W        W71529   6.237  42.997   3.361
12027W        W71530  15.732  21.691  14.876
12028W        W71531  42.438  30.596   4.837
12029W        W71532  40.431  21.202  14.501
12030W        W71533  18.120   5.360   2.327
12031W        W71534  22.656   8.190   3.730
12032W        W71535   8.719  13.789   0.314
12033W        W71536  33.979  21.212  12.550
12034W        W71537  18.560  43.351  11.597
12035W        W71538  43.361  25.549   4.835
12036W        W71539  23.172  39.897  11.105
12037W        W71540  17.243   4.897   3.712
12038W        W71541  26.172  29.554  13.862
12039W        W71542  42.509  16.638   1.736
12040W        W71543  34.081  26.515   3.727
12041W        W71544  23.223   8.247   2.319
12042W        W71545  30.958   7.795   3.217
12043W        W71546  11.746   3.264   5.108
12044W        W71547  39.375  25.002   3.325
12045W        W71548   5.424  40.359   1.282
12046W        W71549  43.849  10.865   1.445
12047W        W71550  21.157   4.803   5.194
12048W        W71551   9.666  13.764   1.828
12049W        W71552  19.652  36.015  13.849
12050W        W71553   6.854   2.732   0.274
12051W        W71554   7.237  35.370   2.679
12052W        W71555  37.474   9.310   0.361
12053W        W71556  34.590  32.413   1.266
12054W        W71557  14.782  38.036  10.538
12055W        W71558  38.509   1.928  13.791
12056W        W71559  34.033   1.741   3.848
12057W        W71560  43.427  29.922   1.820
12058W        W71561  30.095   5.297   1.762
12059W        W71562  44.354  37.016   3.327
12060W        W71563  28.552  10.819   3.687
12061W        W71564  42.526  38.374  11.390
12062W        W71565  12.745  15.214  11.561
12063W        W71566  40.042  33.038  11.055
12064W        W71567   8.179  12.194   1.335
12065W        W71568  18.654  24.676   0.766
12066W        W71569  32.612  26.638   1.894
12067W        W71570  16.709   8.357  12.057
12068W        W71571  36.519  37.383   3.760
12069W        W71572  11.723  25.002  13.389
12070W        W71573  18.090  31.125   3.148
12071W        W71574  39.547   3.423  13.342
12072W        W71575  35.548  32.111  14.029
12073W        W71576   3.900   2.964  12.533
12074W        W71577   6.299  28.504  12.824
12075W        W71578  32.898  11.866  13.414
12076W        W71579  39.374  37.867  10.969
12077W        W71580  38.834  37.966   1.236
12078W        W71581  28.587  20.138   4.731
12079W        W71582  27.971  39.049   0.743
12080W        W71583  42.806  24.201   0.415
12081W        W71584  26.041   1.343   0.374
12082W        W71585  27.104  31.613  13.515
12083W        W71586  33.544  44.327  13.921
12084W        W71587  12.248  40.401   4.715
12085W        W71588   2.879   7.803   0.327
12086W        W71589   5.389  12.350  13.428
12087W        W71590  31.979  12.194  13.032
12088W        W71591   2.414  25.175  11.965
12089W        W71592  25.524   7.726   2.694
12090W        W71593  21.733  23.141   1.769
12091W        W71594  40.963   7.272   1.731
12092W        W71595   2.255  21.261   4.734
12093W        W71596  38.047  33.967   0.821
12094W        W71597  32.518  28.626  12.549
12095W        W71598   0.977  16.796  10.532
12096W        W71599  12.794  19.097  13.943
12097W        W71600  17.740   6.402   0.785
12098W        W71601   2.463  15.673  10.571
12099W        W71602  13.230  42.481  14.500
12100W        W71603  40.835  18.732   0.877
12101W        W71604  30.080   8.193  10.441
12102W        W71605  29.616  44.410   4.335
12103W        W71606  43.512  26.159  13.339
12104W        W71607  35.391  32.594   3.166
12105W        W71608  43.883  25.051   5.295
12106W        W71609  23.095  34.120   0.931
12107W        W71610  39.823   6.909   0.383
12108W        W71611  19.630  14.140   1.790
12109W        W71612  26.050  18.750   4.232
12110W        W71613  12.178  35.862  10.434
12111W        W71614   6.407  16.679  13.862
12112W        W71615  27.466  12.718   1.368
12113W        W71616  41.793  41.896  11.045
12114W        W71617  16.246   8.316  12.569
12115W        W71618  43.944  18.091  13.001
12116W        W71619  21.186   9.301   2.778
12117W        W71620   6.405   6.815  12.442
12118W        W71621  44.404  19.098   2.222
12119W        W71622  23.607  28.641   3.749
12120W        W71623   3.772  39.816  12.030
12121W        W71624   7.873   1.841  14.292
12122W        W71625  12.698  41.407  14.318
12123W        W71626  40.021   7.287  14.455
12124W        W71627  21.646  24.566  12.881
12125W        W71628  17.682   6.728  14.000
12126W        W71629   3.418   3.821   4.340
12127W        W71630  35.992  19.195  12.514
12128W        W71631  33.921  10.867  13.462
12129W        W71632  32.396  22.123  13.323
12130W        W71633   1.852  32.074  13.519
12131W        W71634  42.026  40.473  12.834
12132W        W71635  34.104  13.279  13.853
12133W        W71636  23.186  36.933  11.601
12134W        W71637  11.260  42.347  13.500
12135W        W71638   1.429   7.220  11.420
12136W        W71639  41.837  35.979   2.810
12137W        W71640  38.865  22.128   2.706
12138W        W71641  15.635  41.329   4.245
12139W        W71642  16.190   0.919   0.388
12140W        W71643  27.949  32.092  14.936
12141W        W71644  44.770  42.988   3.651
12142W        W71645   4.266  18.060   2.337
12143W        W71646   7.307  23.606   4.606
12144W        W71647  24.145  43.512  14.313
12145W        W71648  24.991  29.636   1.268
12146W        W71649  31.569  39.906   4.316
12147W        W71650  13.315   2.318  12.473
12148W        W71651  17.227   7.789   2.809
12149W        W71652  41.944  12.273  10.454
12150W        W71653  34.014  25.678   0.863
12151W        W71654  15.315  21.745   1.713
12152W        W71655   0.782   5.385  12.549
12153W        W71656  30.451  29.990  13.459
12154W        W71657  30.027  26.981   2.835
12155W        W71658   2.240  28.015   1.353
12156W        W71659  36.500   9.164  12.469
12157W        W71660  28.565  16.183  10.912
12158W        W71661  18.100  27.500  12.857
12159W        W71662  15.235  32.079  10.594
12160W        W71663  37.450  36.917  12.576
12161W        W71664  31.567   9.191  14.860
12162W        W71665  26.982   8.676  14.890
12163W        W71666  27.156  41.981   1.218
12164W        W71667  36.976  40.981  12.948
12165W        W71668  43.350  20.194  14.453
12166W        W71669  40.933  25.207  14.767
12167W        W71670  28.099  16.810   1.737
12168W        W71671  20.202  36.463   2.894
12169W        W71672  28.994  34.524   2.738
12170W        W71673  24.515   5.224  10.903
12171W        W71674  44.770  11.734   3.716
12172W        W71675  34.034  14.804  13.438
12173W        W71676  31.414   3.226   1.740
12174W        W71677   3.911  16.269   4.277
12175W        W71678  11.783  22.561   0.806
12176W        W71679   8.245  22.613   3.203
12177W        W71680  18.239  43.507  14.925
12178W        W71681   8.699  12.764   4.343
12179W        W71682  21.520  32.571  12.405
12180W        W71683  28.947  40.443   3.295
12181W        W71684  33.071  36.566  13.413
12182W        W71685   0.925  19.580   1.295
12183W        W71686  17.564  20.126  14.464
12184W        W71687  18.188   0.762   2.673
12185W        W71688  41.441  33.052  11.124
12186W        W71689  38.829  41.367   0.861
12187W        W71690  44.762  15.237   2.316
12188W        W71691  40.892   2.856  10.590
12189W        W71692  14.639  16.761  10.575
12190W        W71693   3.230  35.431   0.921
12191W        W71694  27.943   0.944  13.014
12192W        W71695  15.206  44.979  10.634
12193W        W71696  29.647   9.237   1.840
12194W        W71697   3.730   7.789  14.439
12195W        W71698  29.071   4.350  13.307
12196W        W71699  41.910  34.119  10.904
12197W        W71700  21.638  27.145  13.808
12198W        W71701  28.639  44.400  11.517
12199W        W71702  38.987   2.238  10.549
12200W        W71703  29.104  15.640  12.430
12201W        W71704  34.418  23.185   1.288
12202W        W71705  15.712  18.066   4.125
12203W        W71706  30.474   2.951  13.464
12204W        W71707  37.989   8.735  14.865
12205W        W71708  27.094  39.515   3.831
12206W        W71709  21.531  33.108   0.256
12207W        W71710  17.107  30.148   1.215
12208W        W71711  36.937   8.326   2.876
12209W        W71712   3.300  14.828  12.438
12210W        W71713  27.511  27.654   2.840
12211W        W71714  31.122   4.813   1.318
12212W        W71715  26.088   5.337  13.354
12213W        W71716   9.175  15.199  14.339
12214W        W71717  13.770  18.620  10.551
12215W        W71718  20.041   0.476  14.390
12216W        W71719   0.749  10.160   4.327
12217W        W71720  10.818  42.513   2.304
12218W        W71721  32.477  22.240  10.574
12219W        W71722  38.330   1.267   0.330
12220W        W71723  11.673  34.997   0.736
12221W        W71724  31.042  18.642   2.714
12222W        W71725  37.022  36.048  12.547
12223W        W71726  22.032  33.552  14.395
12224W        W71727  44.446  28.181   2.858
12225W        W71728   2.260  34.875  12.359
12226W        W71729   0.912   1.283  11.887
12227W        W71730   8.900  12.344  12.528
12228W        W71731  19.565  36.490  14.374
12229W        W71732   5.439  41.805  12.846
12230W        W71733  25.168  14.186  14.782
12231W        W71734  18.776  12.192  12.006
12232W        W71735  32.929  31.486   0.475
12233W        W71736  10.756  20.111   1.925
12234W        W71737  20.611   4.872   3.191
12235W        W71738   8.194   0.986  12.026
12236W        W71739   3.392   0.473  12.491
12237W        W71740  26.700  13.136   3.152
12238W        W71741   6.827  12.634   4.334
12239W        W71742  41.441  30.940   4.341
12240W        W71743  33.586  13.615   1.332
12241W        W71744   5.405  31.091   2.255
12242W        W71745   2.732   9.806   1.783
12243W        W71746  27.457  21.543  12.374
12244W        W71747   9.708  37.476  14.789
12245W        W71748  17.216  12.332   4.735
12246W        W71749  12.338  18.742  13.886
12247W        W71750  20.045  23.691   1.895
12248W        W71751  21.119   2.948  13.017
12249W        W71752  37.384  12.145   3.291
12250W        W71753  30.119  38.450  13.544
12251W        W71754  29.620   3.847  13.944
12252W        W71755   0.899  23.170  10.938
12253W        W71756  11.840  34.378  11.916
12254W        W71757  12.223  20.044   1.210
12255W        W71758  43.930  44.805  12.422
12256W        W71759   1.297  39.027   0.929
12257W        W71760  36.516  41.463   0.797
12258W        W71761  31.588  32.035   0.450
12259W        W71762  30.640  39.534   3.856
12260W        W71763   0.883  11.295   2.216
12261W        W71764  13.271  30.613  10.969
12262W        W71765   9.890  21.618  12.458
12263W        W71766   4.811  35.537   2.384
12264W        W71767  17.617  14.753  10.508
12265W        W71768  17.697  19.689  14.285
12266W        W71769  37.469   0.469   4.721
12267W        W71770  18.077  32.117   4.294
12268W        W71771  39.982  15.206  14.381
12269W        W71772   8.216  25.471   1.741
12270W        W71773   1.381  43.363  12.365
12271W        W71774   1.897  11.250  14.874
12272W        W71775  14.270  12.671   4.319
12273W        W71776   0.309  32.069  12.549
12274W        W71777   5.418  17.576   4.611
12275W        W71778  39.502  31.050  11.989
12276W        W71779  25.071   8.828  12.415
12277W        W71780   9.359   6.762  10.892
12278W        W71781  37.880   0.371  12.365
12279W        W71782  25.594  25.696  13.417
12280W        W71783   3.228  34.469   3.710
12281W        W71784  27.568  32.886   4.747
12282W        W71785   0.981   0.313   2.736
12283W        W71786  25.133   8.279   0.731
12284W        W71787  24.531   7.310  12.939
12285W        W71788   8.703   2.834  10.975
12286W        W71789   4.756  19.094   4.254
12287W        W71790   4.777  13.696   5.201
12288W        W71791  42.302  24.579   0.410
12289W        W71792  17.757  29.090  12.359
12290W        W71793  41.000  35.907  14.977
12291W        W71794  36.390  41.868   0.917
12292W        W71795  32.114  30.485   3.296
12293W        W71796   1.334   7.726  13.329
12294W        W71797  28.614  35.595   0.287
12295W        W71798  35.023  36.539   4.743
12296W        W71799  34.467  42.380  10.411
12297W        W71800  20.093   7.714   4.651
12298W        W71801  20.094  29.617   4.632
12299W        W71802  19.119  39.317  10.427
12300W        W71803  18.121  27.037   1.339
12301W        W71804   2.728   8.720   1.269
12302W        W71805  35.923  42.841   1.251
12303W        W71806  35.029  15.159   3.295
12304W        W71807  16.640   2.847  14.762
12305W        W71808  13.316  29.468   2.685
12306W        W71809  26.540  14.704  14.873
12307W        W71810   7.669   2.834   2.662
12308W        W71811  27.080  24.137   3.767
12309W        W71812  19.281  10.259  14.784
12310W        W71813  27.549  26.196  12.967
12311W        W71814  36.900  27.491  13.491
12312W        W71815  18.114  30.971  13.459
12313W        W71816  41.316  42.966  11.411
12314W        W71817  37.835   9.344  13.818
12315W        W71818  29.513  34.967  11.378
12316W        W71819  26.640  25.111  13.968
12317W        W71820  18.777  17.258   4.203
12318W        W71821  11.667  31.601  11.907
12319W        W71822  39.857  25.205   0.726
12320W        W71823  26.162   2.880   4.814
12321W        W71824  42.820  23.177   2.259
12322W        W71825  28.994  34.950   3.163
12323W        W71826   2.268  26.119   5.097
12324W        W71827  19.204   5.795  12.036
12325W        W71828  44.822  21.583  14.773
12326W        W71829  36.855  28.522   0.445
12327W        W71830   8.746  27.111  13.796
12328W        W71831  44.402  42.522   4.275
12329W        W71832   7.173  21.106  11.867
12330W        W71833  23.534  22.107  12.938
12331W        W71834  33.004  34.016   3.718
12332W        W71835  37.966  36.841  12.085
12333W        W71836   6.263  40.813  12.990
12334W        W71837  11.663  13.728   1.816
12335W        W71838  44.265  30.085  14.933
12336W        W71839  27.063   9.816   4.280
12337W        W71840  10.227  14.270   4.241
12338W        W71841   5.912  27.527  10.415
12339W        W71842  16.705  36.898   2.861
12340W        W71843  25.690  31.055   0.812
12341W        W71844  28.452  23.197   3.799
12342W        W71845   9.754   6.260  12.484
12343W        W71846   5.923  39.412  14.805
12344W        W71847  20.030  13.676   4.774
12345W        W71848  40.373  15.157   3.719
12346W        W71849  22.042   5.713   2.786
12347W        W71850  41.449  27.175   3.633
12348W        W71851   2.258  39.537   3.754
12349W        W71852  11.844  15.721   2.336
12350W        W71853   3.865  16.096   1.880
12351W        W71854  12.261  22.694   0.291
12352W        W71855  36.591  38.511  11.560
12353W        W71856  38.945  34.885  13.895
12354W        W71857   0.274   8.667  10.572
12355W        W71858  24.006  28.953  14.887
12356W        W71859   3.821  12.216   2.812
12357W        W71860  35.442  26.189  12.909
12358W        W71861  44.400   7.785   0.435
12359W        W71862  17.641  27.594   4.249
12360W        W71863  30.574   6.814  13.895
12361W        W71864  10.786   7.854  12.043
12362W        W71865  43.403  28.023  12.934
12363W        W71866  24.712  43.893  11.463
12364W        W71867  24.599  11.803  12.869
12365W        W71868  41.878  11.833  14.407
12366W        W71869  18.745   7.871   4.347
12367W        W71870  23.065   2.727  12.516
12368W        W71871  24.976   6.423   0.765
12369W        W71872  15.743  23.057   1.379
12370W        W71873  10.858  12.164   1.301
12371W        W71874  24.665  27.567  13.064
12372W        W71875  13.841  23.166  10.903
12373W        W71876  24.115  33.528  10.126
12374W        W71877  25.085  17.569  11.061
12375W        W71878  44.363  13.291  11.878
12376W        W71879  39.869  26.189  13.790
12377W        W71880  10.315  19.609   4.630
12378W        W71881  17.746  19.762   1.889
12379W        W71882  22.633  35.569   1.768
12380W        W71883  40.542  18.256   2.750
12381W        W71884  22.039  37.516   2.705
12382W        W71885  27.544   3.721  12.453
12383W        W71886  11.737  30.133   2.786
12384W        W71887   1.968  30.090   1.215
12385W        W71888   2.388  27.143  14.955
12386W        W71889  15.692  26.050  10.011
12387W        W71890  22.552  44.488  11.380
12388W        W71891  15.653  20.222   3.681
12389W        W71892  19.585  26.174   1.354
12390W        W71893  29.172  24.160  14.478
12391W        W71894  24.976  20.605  14.995
12392W        W71895   3.906  41.316   0.433
12393W        W71896   0.806   4.402   9.976
12394W        W71897   1.863  20.037   3.241
12395W        W71898   7.229  31.929   2.701
12396W        W71899  13.318  44.778   2.725
12397W        W71900  33.093  41.498   3.311
12398W        W71901  16.317  39.329   1.886
12399W        W71902  31.006  23.076   4.770
12400W        W71903  19.220  15.742   4.121
12401W        W71904  35.441  27.449   1.874
12402W        W71905   3.305  37.403   2.807
12403W        W71906  38.994  42.464  10.515
12404W        W71907  41.508   0.941  13.941
12405W        W71908  32.410  16.122   3.860
12406W        W71909   5.848  16.094   2.729
12407W        W71910  22.006  16.577   0.788
12408W        W71911  14.250   3.740  11.414
12409W        W71912   1.851  34.388  13.955
12410W        W71913   1.349  13.115   4.806
12411W        W71914  42.506  16.216  13.062
12412W        W71915  43.279  42.391  12.922
12413W        W71916  14.736   1.947  14.032
12414W        W71917  37.948  29.142   4.812
12415W        W71918  37.074  16.072  11.587
12416W        W71919  14.187  32.129  11.906
12417W        W71920  43.398  29.540  13.447
12418W        W71921   4.873  14.153  11.573
12419W        W71922  29.511  19.623  13.409
12420W        W71923  39.550  27.523  12.036
12421W        W71924  11.832  21.135   2.387
12422W        W71925   3.728  38.399   0.483
12423W        W71926  28.480  26.476  14.937
12424W        W71927  10.205  38.377   3.673
12425W        W71928   0.775  35.881  11.424
12426W        W71929  41.858  29.049   3.636
12427W        W71930  34.009  24.624  10.429
12428W        W71931  19.622  10.761  11.962
12429W        W71932  42.490  14.616  14.348
12430W        W71933  24.146  18.627   4.713
12431W        W71934  29.584  26.632  13.026
12432W        W71935   5.754   2.781   3.784
12433W        W71936   9.312  30.997  10.565
12434W        W71937  40.811   5.399   5.190
12435W        W71938  24.218  40.833   2.235
12436W        W71939   7.356  19.594   2.380
12437W        W71940  14.624   6.424   3.700
12438W        W71941  35.447  19.239   0.286
12439W        W71942  33.009  18.708  12.353
12440W        W71943  20.211  36.509   0.787
12441W        W71944   8.883  15.607  14.371
12442W        W71945  40.866  21.605   3.264
12443W        W71946   7.667  14.316   3.708
12444W        W71947   5.359  36.866   3.687
12445W        W71948  10.198  29.501  14.368
12446W        W71949  44.347  31.416  11.037
12447W        W71950  31.983  33.055  13.889
12448W        W71951  26.602   1.334  14.488
12449W        W71952  22.680  22.184   1.341
12450W        W71953  26.649   7.224   2.816
12451W        W71954   3.819  28.545   3.796
12452W        W71955  18.558   3.873   3.721
12453W        W71956  29.924  14.199   2.411
12454W        W71957   2.459  11.309   2.784
12455W        W71958  38.827  39.422   3.287
12456W        W71959  42.930  42.459  12.956
12457W        W71960  14.249  22.009   3.356
12458W        W71961  35.041  10.215   1.381
12459W        W71962  30.628  39.010  12.349
12460W        W71963  23.221  39.382   1.718
12461W        W71964   4.239  39.364   4.158
12462W        W71965  34.983  37.892   2.790
12463W        W71966  28.955  38.378  12.567
12464W        W71967   0.249  31.516   3.664
12465W        W71968  26.673  12.630   1.373
12466W        W71969  17.071   6.206   1.411
12467W        W71970  44.847   0.299  10.893
12468W        W71971  18.181  39.381  14.862
12469W        W71972  36.046   6.874   3.312
12470W        W71973  23.110  14.151  10.465
12471W        W71974  15.261  25.060   0.890
12472W        W71975  21.611  13.663  13.519
12473W        W71976  36.399  16.598  11.607
12474W        W71977  34.042   4.718   1.932
12475W        W71978   4.216  43.496  12.011
12476W        W71979  24.065  17.759  11.405
12477W        W71980  43.428   8.194   1.720
12478W        W71981   2.226  13.645  12.901
12479W        W71982  36.506   6.302  10.642
12480W        W71983   1.369  17.563   4.185
12481W        W71984  29.161  39.880   1.852
12482W        W71985  22.672  12.799   2.209
12483W        W71986   0.929  17.624   2.404
12484W        W71987  32.450   7.378   4.740
12485W        W71988  43.021  44.418  14.298
12486W        W71989  34.003  22.062  14.515
12487W        W71990  38.477  37.459  10.939
12488W        W71991  12.347  37.556   3.240
12489W        W71992  34.904  18.791   0.958
12490W        W71993  42.389  22.116  10.936
12491W        W71994  18.734  28.556  12.839
12492W        W71995  42.806  32.115  12.028
12493W        W71996  24.121  40.439  11.891
12494W        W71997  20.613  16.592   0.850
12495W        W71998  30.994  16.716   0.299
12496W        W71999  42.012  37.070   4.318
12497W        W72000  22.678  11.373   0.336
12498W        W72001  17.153  18.634   1.859
12499W        W72002  27.680  29.086   0.434
12500W        W72003  42.024  12.749   2.284
12501W        W72004  25.978   1.794  10.972
12502W        W72005  37.448  28.068  12.881
12503W        W72006  30.650  15.244  13.544
12504W        W72007  11.275  24.705  13.819
12505W        W72008  11.857  29.932  13.456
12506W        W72009  23.657  13.271  10.571
12507W        W72010  10.835  16.288  11.470
12508W        W72011  39.062  31.075  12.889
12509W        W72012  22.549  25.184   4.648
12510W        W72013   0.867   8.881   3.203
12511W        W72014  16.283  28.464  12.030
12512W        W72015   5.206  13.617   3.212
12513W        W72016  30.423  20.214   4.707
12514W        W72017  33.911  28.576  14.393
12515W        W72018  41.523   4.804   0.248
12516W        W72019   2.414   3.726   0.359
12517W        W72020  41.858   6.386   1.445
12518W        W72021   2.751   7.801   1.241
12519W        W72022  36.071  34.023   0.287
12520W        W72023  31.557  22.155  11.534
12521W        W72024  29.660   1.300   3.705
12522W        W72025   7.225   3.366   4.778
12523W        W72026  23.041  43.989   1.709
12524W        W72027  40.520  30.057   0.941
12525W        W72028  33.408   9.347  10.426
12526W        W72029   1.367   3.236   2.388
12527W        W72030  17.270  13.228  13.457
12528W        W72031  19.209   6.416   2.814
12529W        W72032  23.652  42.444  13.531
12530W        W72033   0.377   9.391  13.909
12531W        W72034  24.123  37.541   5.292
12532W        W72035  19.085  10.203  11.034
12533W        W72036   6.391  12.832   4.181
12534W        W72037  18.775  23.111   4.833
12535W        W72038  21.042   8.274   2.711
12536W        W72039  31.539  33.963   3.660
12537W        W72040  37.071  25.477  12.551
12538W        W72041  37.391  28.120   0.833
12539W        W72042  31.631  36.420  12.055
12540W        W72043   7.319   8.886  10.618
12541W        W72044  32.012  36.857   4.336
12542W        W72045  16.280   6.230  12.515
12543W        W72046   1.483  14.756  14.759
12544W        W72047   8.724   0.879   2.667
12545W        W72048  26.124  12.230  10.439
12546W        W72049  11.750  42.874   3.675
12547W        W72050  44.919   6.193   1.919
12548W        W72051   3.913  30.955   1.264
12549W        W72052  43.946  40.926  11.585
12550W        W72053  37.520  22.078   1.772
12551W        W72054  24.988  34.443   2.233
12552W        W72055  36.082  10.670   4.348
12553W        W72056  41.003  38.822  13.307
12554W        W72057  13.713  39.066   4.242
12555W        W72058  18.171   5.233   4.163
12556W        W72059  34.496  43.444  14.906
12557W        W72060  34.967   8.348  14.321
12558W        W72061   3.344  31.459  11.606
12559W        W72062  35.079   7.392  14.844
12560W        W72063  37.903  28.561   4.774
12561W        W72064  11.273  11.819   2.349
12562W        W72065  38.856  32.088   2.419
12563W        W72066  14.282  21.651   4.828
12564W        W72067   0.478  10.798   0.431
12565W        W72068  39.347  39.956  11.113
12566W        W72069  36.911  15.818   2.903
12567W        W72070   9.757  23.022   1.838
12568W        W72071  35.036  11.361  10.464
12569W        W72072  36.945   5.776  12.911
12570W        W72073  22.603  16.281   0.891
12571W        W72074  18.559  32.632  13.529
12572W        W72075  10.338  39.822   2.251
12573W        W72076   0.247  24.156   0.432
12574W        W72077   9.270  20.675  10.937
12575W        W72078   1.360   9.755   4.674
12576W        W72079  32.100  31.508  12.382
12577W        W72080  20.267  30.478  12.456
12578W        W72081  33.428  17.784   2.851
12579W        W72082  15.172   9.242   0.940
12580W        W72083  35.855  19.079   1.281
12581W        W72084  35.002  32.900  10.984
12582W        W72085  16.162   5.814   0.965
12583W        W72086  22.149   9.365   2.179
12584W        W72087   6.687  12.761  13.441
12585W        W72088  16.262  41.841  11.579
12586W        W72089  38.385  26.593   0.796
12587W        W72090   5.222  24.577   0.961
12588W        W72091   0.449  13.222   4.338
12589W        W72092  33.115  37.362   1.718
12590W        W72093  31.459  21.722  13.900
12591W        W72094  25.012  10.292  10.926
12592W        W72095  13.679  10.695  12.963
12593W        W72096  11.825  36.463   2.816
12594W        W72097   2.240  25.209  13.503
12595W        W72098  15.754  29.955   1.243
12596W        W72099  19.687  33.430  12.441
12597W        W72100  44.977   7.203  13.391
12598W        W72101  24.209  35.986  11.591
12599W        W72102  35.526   2.356  11.955
12600W        W72103   4.789   6.796  10.605
12601W        W72104   1.975  30.501   1.403
12602W        W72105  31.613  18.633   1.739
12603W        W72106  30.075  23.521   3.711
12604W        W72107  26.673   4.320  10.991
12605W        W72108  36.979  39.908   3.274
12606W        W72109   5.338  22.038   4.319
12607W        W72110  20.534  28.974  14.341
12608W        W72111   2.315   5.317   3.707
12609W        W72112  13.186  31.631  12.518
12610W        W72113  36.014  40.867  13.347
12611W        W72114  39.939  11.218   3.795
12612W        W72115  38.992  19.779   2.198
12613W        W72116   0.277  43.400  14.402
12614W        W72117  29.526  28.108   0.896
12615W        W72118  38.010  20.082   1.839
12616W        W72119  40.314  24.000  10.632
12617W        W72120   6.720  41.417   2.833
12618W        W72121  24.722  31.901   0.362
12619W        W72122  32.992  14.232   2.727
12620W        W72123  18.213  19.059  14.963
12621W        W72124   1.838  17.793   4.737
12622W        W72125   4.223  20.745   3.330
12623W        W72126  19.749  40.919   3.737
12624W        W72127  28.154  38.548   4.303
12625W        W72128   1.927  21.198   4.822
12626W        W72129  37.986  11.216   4.209
12627W        W72130  28.082  33.466  10.593
12628W        W72131  11.249  25.489  11.862
12629W        W72132  24.640  37.068  10.944
12630W        W72133  39.363  26.549   0.885
12631W        W72134  32.415  30.595   4.232
12632W        W72135  36.549  35.483  11.531
12633W        W72136  25.624  31.017  14.323
12634W        W72137  18.145  33.575   0.788
12635W        W72138  21.025  16.250  14.969
12636W        W72139   7.676   4.734   4.649
12637W        W72140  21.737  41.513  12.096
12638W        W72141   0.451  31.624  11.388
12639W        W72142   8.196   0.757  14.960
12640W        W72143  18.077  26.698   3.335
12641W        W72144   0.959  21.652   3.867
12642W        W72145  39.983  33.031  13.926
12643W        W72146   7.910  30.427  10.406
12644W        W72147  29.923  26.029  11.947
12645W        W72148  40.904  34.964   3.233
12646W        W72149  38.480  28.007   0.363
12647W        W72150  11.780  19.612  11.867
12648W        W72151   2.255  11.238   0.425
12649W        W72152  36.585  22.110   4.625
12650W        W72153  28.674   3.709   1.742
12651W        W72154  23.099  41.410   3.694
12652W        W72155  16.152  25.133  14.349
12653W        W72156  26.130  21.640   4.817
12654W        W72157  32.093  22.598   5.105
12655W        W72158  24.665  23.531   1.779
12656W        W72159  27.044  32.545  13.412
12657W        W72160  25.188  19.573  12.459
12658W        W72161  10.360  35.445  13.857
12659W        W72162  17.262  32.456  11.058
12660W        W72163   8.171  20.761  10.641
12661W        W72164  30.511  13.227  13.799
12662W        W72165  40.460  14.627  11.576
12663W        W72166  13.681   6.275  10.643
12664W        W72167  11.790   0.420  14.808
12665W        W72168  32.955  18.606  14.920
12666W        W72169  21.229   6.406  14.836
12667W        W72170  28.540   9.743  13.906
12668W        W72171   5.264  18.774   1.724
12669W        W72172  39.482  35.944  13.449
12670W        W72173  23.590  18.133  14.375
12671W        W72174  24.551  16.608   4.743
12672W        W72175  30.148  20.223   4.748
12673W        W72176  33.447  43.341  13.346
12674W        W72177  21.524   6.426  12.349
12675W        W72178  10.210  30.418  12.953
12676W        W72179  22.207  31.945   1.389
12677W        W72180  17.077  18.682   4.740
12678W        W72181  42.449  23.179  13.883
12679W        W72182  18.730  14.233   4.603
12680W        W72183  36.092  16.783  10.636
12681W        W72184  39.396  42.454  10.940
12682W        W72185   1.737  13.692  14.376
12683W        W72186  17.706   6.426  13.010
12684W        W72187  23.039  31.984  12.883
12685W        W72188  43.781  11.203   3.147
12686W        W72189  42.922  42.453   4.767
12687W        W72190  44.947  22.145  13.428
12688W        W72191   3.254  31.560  10.904
12689W        W72192  14.827  14.762  10.405
12690W        W72193  27.970  31.439  10.991
12691W        W72194  32.896  31.939   4.708
12692W        W72195  32.965  13.284   1.915
12693W        W72196  22.603   6.876  10.133
12694W        W72197  43.293  36.573   2.399
12695W        W72198  10.358  34.938   2.375
12696W        W72199  21.594  14.320  12.403
12697W        W72200   8.816  30.164  10.454
12698W        W72201  27.637  41.900   4.693
12699W        W72202   2.329  30.586  14.933
12700W        W72203  14.269  11.324  10.471
12701W        W72204   7.172  33.048  10.624
12702W        W72205  25.192  31.468  10.891
12703W        W72206  13.817   1.743   0.932
12704W        W72207  14.278   7.737   3.204
12705W        W72208  30.031  14.291  12.541
12706W        W72209   9.869  13.347  11.382
12707W        W72210  35.435   5.354  14.780
12708W        W72211  19.735  21.059   2.854
12709W        W72212  41.399  15.739  11.455
12710W        W72213  24.500  43.948   0.454
12711W        W72214  18.709  31.975   4.299
12712W        W72215  12.674   2.437   2.665
12713W        W72216  21.520  41.422   1.798
12714W        W72217  22.738  37.862   1.221
12715W        W72218   6.376  14.291   3.798
12716W        W72219   3.951  23.070   2.715
12717W        W72220  20.080  14.779   0.901
12718W        W72221  14.749  11.781   4.304
12719W        W72222  14.694   0.252  10.910
12720W        W72223   8.343  12.801  12.376
12721W        W72224  25.091  11.850   3.630
12722W        W72225   0.439  43.997   1.722
12723W        W72226  30.064  44.757   1.845
12724W        W72227   9.260   3.938   3.640
12725W        W72228  37.973  29.547   0.788
12726W        W72229  24.098  42.360   2.704
12727W        W72230  38.842   7.801  14.816
12728W        W72231  16.715  21.026  10.058
12729W        W72232  25.512   1.737   4.353
12730W        W72233  32.126  25.476   2.711
12731W        W72234  26.470  35.922  10.628
12732W        W72235  17.790  24.063  13.421
12733W        W72236  29.495  42.031  13.508
12734W        W72237  15.760  28.557  10.536
12735W        W72238  35.599  26.053   2.720
12736W        W72239  39.994   1.876  11.921
12737W        W72240  25.540  21.624   1.312
12738W        W72241  20.551   1.418   2.243
12739W        W72242  35.364  20.136  14.425
12740W        W72243   6.329  41.474  10.583
12741W        W72244  26.144  33.079   3.211
12742W        W72245  25.544  35.970  11.038
12743W        W72246  20.085  29.067  11.471
12744W        W72247  44.454  26.001   0.259
12745W        W72248  31.958  23.535   3.295
12746W        W72249  33.596  23.640   4.696
12747W        W72250   0.270  35.523  14.890
12748W        W72251  40.016  19.590  13.796
12749W        W72252  39.023  24.012  10.498
12750W        W72253   9.360  39.403   4.677
12751W        W72254  32.029  14.117  11.944
12752W        W72255  27.998  22.171   2.418
12753W        W72256  43.358  16.210  12.441
12754W        W72257   8.842  24.007  14.409
12755W        W72258   3.438   9.387  14.958
12756W        W72259  16.787  29.106  11.902
12757W        W72260  40.427  16.075   3.304
12758W        W72261   4.774  15.649   1.242
12759W        W72262  31.011  42.812  12.551
12760W        W72263  10.741   3.926  14.491
12761W        W72264  28.656  40.000  10.410
12762W        W72265  40.312  30.948   2.215
12763W        W72266   8.765  13.690   4.731
12764W        W72267  30.986  31.071   3.298
12765W        W72268   6.770  38.937   0.967
12766W        W72269  26.057  19.221  12.450
12767W        W72270  38.347  27.015   4.748
12768W        W72271  15.103  25.208   2.325
12769W        W72272  15.102   4.276   0.297
12770W        W72273  23.236  35.961   3.635
12771W        W72274  12.847  19.704  13.361
12772W        W72275  10.218  31.930  10.582
12773W        W72276  37.884  10.735  12.994
12774W        W72277  20.223  28.149   1.423
12775W        W72278  13.603   8.346  13.485
12776W        W72279   5.406  32.527  10.994
12777W        W72280  18.632  37.006   1.351
12778W        W72281  16.663  38.404  13.955
12779W        W72282  36.012   7.850   1.852
12780W        W72283  30.160  10.665  14.368
12781W        W72284  16.303  31.118   1.320
12782W        W72285  38.360  13.732  11.409
12783W        W72286  39.058  42.506  13.477
12784W        W72287  25.014  27.079   4.616
12785W        W72288  26.518  26.132  14.943
12786W        W72289   0.399  15.149  11.461
12787W        W72290   9.151  38.917  11.425
12788W        W72291  31.923   7.352   4.155
12789W        W72292  26.487  24.601  12.887
12790W        W72293   0.351  40.445   0.857
12791W        W72294  35.529   8.686   1.750
12792W        W72295  29.939  15.210  13.469
12793W        W72296   1.846  29.968  10.612
12794W        W72297   4.336  41.957  12.945
12795W        W72298  39.969  17.608   0.303
12796W        W72299  17.246   5.780  12.480
12797W        W72300  43.847  43.993  13.409
12798W        W72301  30.624   2.809  14.872
12799W        W72302  38.470  13.842  11.090
12800W        W72303  31.113  34.972   2.278
12801W        W72304  20.032   3.297   5.168
12802W        W72305  38.544  31.968  11.002
12803W        W72306  36.419  24.094   1.429
12804W        W72307  17.689  25.014   0.859
12805W        W72308  41.416  21.647   0.387
12806W        W72309  30.930   7.304   3.325
12807W        W72310  20.594  15.270   4.739
12808W        W72311  42.412  43.353   4.298
12809W        W72312  28.621  34.431  10.953
12810W        W72313   1.375  12.655   1.897
12811W        W72314  41.381   5.428   2.246
12812W        W72315  36.527   8.716   1.305
12813W        W72316  38.942  14.668   1.394
12814W        W72317  38.013  14.261   1.397
12815W        W72318   7.176   0.317  12.438
12816W        W72319  12.249  34.546   5.700
12817W        W72320  15.799   3.256   0.731
12818W        W72321  19.778  20.590   2.741
12819W        W72322  20.671   2.811  11.493
12820W        W72323   0.903  25.487  10.915
12821W        W72324  29.552  22.569  11.985
12822W        W72325   3.257  23.570   2.743
12823W        W72326  34.017  38.367   2.407
12824W        W72327   7.229  42.829  14.961
12825W        W72328  26.133  10.292   0.259
12826W        W72329  43.500  23.572  11.984
12827W        W72330  24.536  23.122   0.858
12828W        W72331  27.574  10.256  11.575
12829W        W72332  33.471  25.214   4.809
12830W        W72333  24.107  40.467   5.095
12831W        W72334  20.765   6.878   0.806
12832W        W72335  33.053  37.455   2.808
12833W        W72336   0.853  25.193  10.502
12834W        W72337  28.644  35.027  13.504
12835W        W72338  14.613  29.076   4.150
12836W        W72339  16.227  30.576  14.874
12837W        W72340  14.735  21.603  11.480
12838W        W72341  29.592   7.665  10.517
12839W        W72342  28.482  36.427  12.510
12840W        W72343  31.476  20.767   2.721
12841W        W72344   1.419  16.717   1.240
12842W        W72345  23.736  24.007   0.427
12843W        W72346  34.454  12.220  10.452
12844W        W72347   9.349  20.259  11.857
12845W        W72348  19.219  40.378  11.944
12846W        W72349   9.723  20.530   3.327
12847W        W72350  39.898  11.212   4.813
12848W        W72351  28.998  34.947  12.463
12849W        W72352   5.433  27.484  12.503
12850W        W72353  38.039  29.060   3.641
12851W        W72354  30.130   6.382  14.764
12852W        W72355  29.568  21.166  13.923
12853W        W72356  37.460   2.347   2.404
12854W        W72357  35.947  43.781   0.433
12855W        W72358  43.001  10.662  11.968
12856W        W72359  10.817  33.558   3.313
12857W        W72360  12.172  38.424  14.461
12858W        W72361  17.204   8.830   0.474
12859W        W72362  20.606   8.357  11.484
12860W        W72363  17.573  37.577   4.259
12861W        W72364  20.722  43.446  13.453
12862W        W72365  36.468  31.918   0.308
12863W        W72366  24.510   7.773   3.643
12864W        W72367  32.091   1.773   3.680
12865W        W72368  33.610  36.394  14.925
12866W        W72369  15.677   1.848   1.789
12867W        W72370  34.067  41.350  10.613
12868W        W72371  15.616  26.101  12.441
12869W        W72372   2.766  29.665   2.733
12870W        W72373  30.959  19.725   3.264
12871W        W72374  20.124  14.694  11.451
12872W        W72375   8.241  34.044  11.867
12873W        W72376  19.669  25.679  10.896
12874W        W72377  29.161  25.470  11.982
12875W        W72378  40.866  32.437  11.114
12876W        W72379  24.019  37.385   2.214
12877W        W72380  26.635   5.412   3.357
12878W        W72381   7.277  32.420  14.309
12879W        W72382  32.550  26.016   2.870
12880W        W72383  32.555  44.387  13.343
12881W        W72384  28.487  18.732  14.872
12882W        W72385  33.918   0.852  12.922
12883W        W72386  42.997  36.558  14.009
12884W        W72387  43.829  37.990   0.418
12885W        W72388  18.133  19.049   1.274
12886W        W72389  12.208  34.505  14.871
12887W        W72390  12.679  27.514  14.430
12888W        W72391  14.827   8.258   2.661
12889W        W72392  17.262  16.195  10.531
12890W        W72393  18.105   1.923  11.070
12891W        W72394  33.393  32.118   5.152
12892W        W72395  19.779   0.801  13.462
12893W        W72396  24.089  13.269  14.989
12894W        W72397  37.467  28.148  10.465
12895W        W72398  41.798  23.003  12.874
12896W        W72399  14.107  21.520  11.074
12897W        W72400  15.697  15.264  12.405
12898W        W72401   1.453  34.015   4.328
12899W        W72402  32.445   1.870   1.412
12900W        W72403  44.436  43.269   2.349
12901W        W72404  23.515   9.306  13.447
12902W        W72405  36.554  17.080  14.443
12903W        W72406  37.562  43.911   0.929
12904W        W72407  37.882  24.674   3.659
12905W        W72408  14.640  30.572  14.444
12906W        W72409   3.311  22.026  12.442
12907W        W72410   8.749  31.600  10.097
12908W        W72411  13.715  18.196  14.022
12909W        W72412   1.245  16.293  14.323
12910W        W72413  38.559  16.685   1.245
12911W        W72414  20.556   2.804  14.508
12912W        W72415  15.745  37.028   2.395
12913W        W72416  28.982   3.256   2.708
12914W        W72417  18.196  33.966  14.464
12915W        W72418   3.449  17.578  10.448
12916W        W72419  43.465   0.421   1.241
12917W        W72420   5.836   2.910  11.578
12918W        W72421  32.029   8.764   1.863
12919W        W72422  32.029  31.454   2.668
12920W        W72423  13.711  29.610   3.666
12921W        W72424  41.849   2.236  13.389
12922W        W72425  29.635  31.409   0.403
12923W        W72426  37.062  41.994   2.740
12924W        W72427   5.737  12.283   3.206
12925W        W72428  26.082  13.658   1.398
12926W        W72429   2.750   7.323  14.368
12927W        W72430   5.219  24.548  11.053
12928W        W72431  41.831  41.494   0.476
12929W        W72432  27.183   2.963  10.550
12930W        W72433   4.212  12.293   0.937
12931W        W72434  30.517  37.072  12.428
12932W        W72435  18.290  23.134   4.280
12933W        W72436  44.416  37.076   0.816
12934W        W72437  43.862   3.908  10.917
12935W        W72438   3.849  36.926  12.061
12936W        W72439   3.722  16.212  14.884
12937W        W72440  16.096  12.825   4.815
12938W        W72441  13.310  25.541   1.740
12939W        W72442  17.257  33.072   3.727
12940W        W72443   2.899  42.982   1.866
12941W        W72444  10.824   1.897   1.444
12942W        W72445  41.944  28.601  10.947
12943W        W72446  31.628   6.821   4.268
12944W        W72447  22.572  38.931   3.347
12945W        W72448  29.038   4.307   2.810
12946W        W72449  38.488  34.369  14.988
12947W        W72450  16.645  14.208  12.882
12948W        W72451  30.603   9.876  11.098
12949W        W72452   7.286  20.050  10.618
12950W        W72453  43.484  20.639  13.945
12951W        W72454  26.514  42.945   0.886
12952W        W72455  19.691   3.257   4.191
12953W        W72456   1.430   6.184   2.878
12954W        W72457  20.197  37.510  10.955
12955W        W72458  36.909  12.776  12.497
12956W        W72459  32.044   4.769  13.025
12957W        W72460  25.711   5.832  10.063
12958W        W72461  38.037   3.818   2.178
12959W        W72462  42.959  43.821  11.041
12960W        W72463  43.884  23.571  11.920
12961W        W72464   1.755  28.145  12.836
12962W        W72465  12.630  33.026  12.410
12963W        W72466  24.044  32.132   3.827
12964W        W72467   8.316  42.285  13.517
12965W        W72468  24.605  34.556   1.825
12966W        W72469  37.071  19.258   3.848
12967W        W72470  15.274  21.545   0.399
12968W        W72471   7.310  11.132   3.198
12969W        W72472  29.060  25.632   4.298
12970W        W72473  39.845  14.107   1.285
12971W        W72474  40.506  13.707  14.500
12972W        W72475  22.117  15.611  12.908
12973W        W72476  21.111   7.335  11.406
12974W        W72477  11.336   1.262  13.939
12975W        W72478  24.103   3.889  12.547
12976W        W72479   1.906  20.550   2.849
12977W        W72480  23.180   6.279  12.075
12978W        W72481  18.099  10.318  12.471
12979W        W72482  30.919  25.019  10.933
12980W        W72483  24.603  39.902   0.432
12981W        W72484  15.770   5.391   3.703
12982W        W72485   5.747  27.080  14.514
12983W        W72486  23.236  37.498  12.069
12984W        W72487  32.137  35.940   2.771
12985W        W72488  40.810  10.748  13.460
12986W        W72489  20.138   0.770  14.015
12987W        W72490  19.741  27.008   3.664
12988W        W72491   7.727  19.751   4.333
12989W        W72492   6.730  28.150  14.803
12990W        W72493  32.470  22.624  12.046
12991W        W72494  37.357  19.776   2.215
12992W        W72495  30.630  17.102  13.524
12993W        W72496  17.720   2.805   0.844
12994W        W72497  24.667  32.129   3.357
12995W        W72498  44.269  14.689   1.743
12996W        W72499  43.796  32.968   1.889
12997W        W72500   2.423  22.641  14.397
12998W        W72501  23.608  16.112   3.861
12999W        W72502  28.582  43.870   2.334
13000W        W72503  32.454   1.769   0.911
13001W        W72504  10.347  31.507  11.078
13002W        W72505  35.530  31.125  12.462
13003W        W72506  43.811  27.961  14.861
13004W        W72507   4.433   5.755   4.804
13005W        W72508  12.827  18.219  13.372
13006W        W72509   0.844  27.163   2.336
13007W        W72510  40.447  35.874   0.377
13008W        W72511  44.944  12.214   2.355
13009W        W72512  41.337  20.691   3.347
13010W        W72513   0.444  36.451  10.495
13011W        W72514  42.880  40.819  11.046
13012W        W72515  16.712  21.037   4.745
13013W        W72516  30.038  41.393   3.224
13014W        W72517  38.056   8.355  12.072
13015W        W72518  42.991   3.795  10.423
13016W        W72519  31.954  37.876  11.884
13017W        W72520  23.616   8.850   4.340
13018W        W72521  19.556  15.245  13.930
13019W        W72522  21.595  38.932   1.882
13020W        W72523  32.990  33.494  14.774
13021W        W72524  21.022  32.411  11.098
13022W        W72525  17.305  39.940   3.730
13023W        W72526  15.723  10.201   3.318
13024W        W72527  37.001  20.260   1.286
13025W        W72528  32.463  13.189  13.983
13026W        W72529  12.714  38.912  11.127
13027W        W72530   9.689  12.659  14.445
13028W        W72531  23.677  44.391   3.849
13029W        W72532  32.927  17.133   1.750
13030W        W72533  23.208  20.096  11.495
13031W        W72534   6.219  40.024   2.218
13032W        W72535  12.715  19.583   4.132
13033W        W72536  12.120  31.094  11.943
13034W        W72537   4.910  13.724  14.834
13035W        W72538  17.746   2.417   1.290
13036W        W72539  33.483  38.820   0.781
13037W        W72540   9.309  39.506  10.996
13038W        W72541   3.358   3.805  11.608
13039W        W72542  41.388   8.163  13.031
13040W        W72543   6.356  22.643  13.517
13041W        W72544  27.017  38.475  10.948
13042W        W72545  23.177  38.420  14.457
13043W        W72546  11.144  37.083  10.108
13044W        W72547  43.880  11.305   0.770
13045W        W72548  29.100  12.823  13.448
13046W        W72549  35.875  19.636   1.786
13047W        W72550  32.473  19.149  10.439
13048W        W72551  42.846  26.078   2.683
13049W        W72552   4.735   0.832   2.182
13050W        W72553   2.448  10.738   4.640
13051W        W72554  29.575  37.863   3.181
13052W        W72555  39.388  17.800   0.735
13053W        W72556  26.952  41.336   2.339
13054W        W72557   5.365  17.723   0.925
13055W        W72558  16.163  18.159  12.389
13056W        W72559  29.642   9.878  11.966
13057W        W72560   6.725  32.994  14.477
13058W        W72561  28.093  12.315  11.104
13059W        W72562  19.114  20.268  12.368
13060W        W72563  44.884  12.242  10.461
13061W        W72564   8.852   9.353   4.265
13062W        W72565  25.210  19.610  13.528
13063W        W72566  40.392  30.595   3.669
13064W        W72567   5.375  38.386   4.757
13065W        W72568  31.467  30.012  14.875
13066W        W72569  41.030  13.696   3.322
13067W        W72570  24.716  35.926  12.513
13068W        W72571  42.380  42.810  14.398
13069W        W72572  30.547   4.921   1.824
13070W        W72573  32.522   0.872   3.340
13071W        W72574  34.989  40.508   0.762
13072W        W72575  17.226   8.665  12.992
13073W        W72576   2.439  33.120   2.795
13074W        W72577  26.094  22.174   3.175
13075W        W72578  29.425  32.548   1.450
13076W        W72579  19.583  23.716   4.790
13077W        W72580   8.757  30.631   3.213
13078W        W72581  15.188   3.321  11.917
13079W        W72582  14.103  38.881   5.115
13080W        W72583   0.746  10.749  12.512
13081W        W72584   2.949  41.459   2.285
13082W        W72585  27.976  37.582   4.652
13083W        W72586  38.823  42.500  12.568
13084W        W72587  11.672  44.468   3.236
13085W        W72588  18.785  34.943   1.435
13086W        W72589  25.550  18.190  12.888
13087W        W72590  28.468  18.250   0.376
13088W        W72591  37.503   2.252  11.385
13089W        W72592  11.343  13.142  14.892
13090W        W72593  38.958  19.741   4.339
13091W        W72594  36.863  13.334   3.383
13092W        W72595  29.126  40.318  12.939
13093W        W72596  36.481  29.920   1.344
13094W        W72597  18.562  25.062   0.453
13095W        W72598  17.209  18.595  10.141
13096W        W72599  43.320  38.939  14.935
13097W        W72600  43.385  33.039  12.348
13098W        W72601  39.519   1.783   4.347
13099W        W72602  14.638  12.253   3.746
13100W        W72603   5.321   2.934   1.924
13101W        W72604  38.824  34.568   0.250
13102W        W72605  36.494   1.865   4.634
13103W        W72606  29.525  24.543  11.438
13104W        W72607  27.652  34.584   0.811
13105W        W72608   4.710  41.918   0.908
13106W        W72609  34.087   8.290  13.918
13107W        W72610  42.322  26.147  13.852
13108W        W72611  15.231  41.793   3.319
13109W        W72612  20.580  43.922  14.938
13110W        W72613  13.713  34.085   2.417
13111W        W72614  24.554   4.710  14.442
13112W        W72615  25.198  20.234  14.924
13113W        W72616  39.845   2.406  11.495
13114W        W72617  20.222  16.285  10.474
13115W        W72618   8.674  26.515   1.277
13116W        W72619  28.570   5.703  13.950
13117W        W72620   2.798  28.148  10.497
13118W        W72621  14.317   6.270  10.439
13119W        W72622  20.050  11.667  11.034
13120W        W72623   5.424  18.241   0.730
13121W        W72624  32.092  18.652   4.598
13122W        W72625  25.475  14.281  14.818
13123W        W72626  39.404   5.425  10.567
13124W        W72627  37.076  31.575  13.327
13125W        W72628  13.254  41.338   5.294
13126W        W72629  30.462  16.218  14.392
13127W        W72630  10.328  15.170   1.423
13128W        W72631  17.742  32.466   4.243
13129W        W72632   7.240  26.514  12.372
13130W        W72633  25.068  31.034  11.000
13131W        W72634  12.846  26.606   4.658
13132W        W72635  41.396  35.490   1.265
13133W        W72636   5.344  23.106  14.280
13134W        W72637  44.381  24.716   1.358
13135W        W72638  11.148  30.055  11.559
13136W        W72639   6.749  28.117   3.260
13137W        W72640  12.680  38.490   3.662
13138W        W72641  22.653  31.927   2.720
13139W        W72642  26.657  29.606   1.314
13140W        W72643  38.936  16.668   3.712
13141W        W72644  28.092  38.435   3.372
13142W        W72645  32.484  37.366  11.105
13143W        W72646   3.822   4.906   4.335
13144W        W72647  29.474  34.870  12.379
13145W        W72648  41.944   4.794   4.354
13146W        W72649  38.436  21.623  11.097
13147W        W72650  10.705  40.368   3.786
13148W        W72651   8.841  40.332   0.832
13149W        W72652  15.765   4.894  11.573
13150W        W72653  43.783  36.429  12.363
13151W        W72654  32.891  42.837  12.561
13152W        W72655  24.028  39.477   0.283
13153W        W72656  29.174  32.567  14.307
13154W        W72657  14.675  41.815   0.344
13155W        W72658  25.704  17.086  12.482
13156W        W72659  21.219  35.044   3.648
13157W        W72660  15.664  21.564   3.184
13158W        W72661   3.409  37.912  14.023
13159W        W72662  43.832  16.156  11.454
13160W        W72663  34.455  39.332  14.906
13161W        W72664  32.497  10.373   0.300
13162W        W72665  21.575   7.822  11.599
13163W        W72666  12.696  25.158  11.488
13164W        W72667  32.036  14.300   3.186
13165W        W72668  26.696   0.428  10.518
13166W        W72669  25.687  40.995  12.373
13167W        W72670  20.082  36.894   3.230
13168W        W72671  24.500  21.633   0.829
13169W        W72672  32.933  31.437   2.355
13170W        W72673  15.183  24.513   1.229
13171W        W72674   7.322  20.123   3.705
13172W        W72675  39.844  21.111   1.848
13173W        W72676  23.728   9.369  10.922
13174W        W72677  42.926  12.271  12.540
13175W        W72678   9.719  40.399  11.923
13176W        W72679  38.852  31.516   2.212
13177W        W72680  19.223   8.725  14.385
13178W        W72681  42.496  15.170   4.241
13179W        W72682  25.991  13.340   1.372
13180W        W72683  30.066  17.670   0.849
13181W        W72684  16.310  14.728  14.299
13182W        W72685  27.558   2.748   1.764
13183W        W72686   2.729   9.790  12.913
13184W        W72687  19.064  19.728  10.432
13185W        W72688  22.088  21.018   1.701
13186W        W72689  31.411  40.007   1.884
13187W        W72690  16.252  40.806  13.004
13188W        W72691  25.985  42.959  10.430
13189W        W72692  36.415  34.913   1.393
13190W        W72693  33.068  38.499   0.954
13191W        W72694  18.615  28.153  10.063
13192W        W72695   9.155  15.233   2.194
13193W        W72696  28.051  31.990   2.685
13194W        W72697  25.071  18.767   0.427
13195W        W72698  21.057  24.578   3.314
13196W        W72699  12.620  36.897  12.420
13197W        W72700   4.317  23.560   4.164
13198W        W72701   9.770  18.770   4.264
13199W        W72702  17.144  12.725  14.032
13200W        W72703  23.017  34.921   2.899
13201W        W72704  35.589  33.073  11.988
13202W        W72705  24.045  23.609   0.342
13203W        W72706   9.840  35.466   3.334
13204W        W72707  19.148  25.674  12.407
13205W        W72708  17.791  17.614   4.209
13206W        W72709  33.571  20.138   4.209
13207W        W72710  31.065  13.258   3.312
13208W        W72711  36.992  16.179  10.916
13209W        W72712  14.619  24.178  14.455
13210W        W72713  40.332  43.274  14.895
13211W        W72714  23.993   6.269   4.325
13212W        W72715  36.846  38.975  12.913
13213W        W72716   2.371  38.402  14.999
13214W        W72717   5.896  21.717   2.302
13215W        W72718   8.325  24.679  12.911
13216W        W72719  33.897  18.223   2.665
13217W        W72720  14.616  25.604  14.368
13218W        W72721  18.184  34.108  13.310
13219W        W72722   2.963  40.847  14.401
13220W        W72723  22.044  19.225   3.336
13221W        W72724  31.442  23.170  10.489
13222W        W72725  24.167  25.685  14.297
13223W        W72726  34.994  15.108  13.463
13224W        W72727  37.578   4.703  14.512
13225W        W72728  17.755  15.780  10.105
13226W        W72729  19.138  29.046   0.771
13227W        W72730  28.988  12.282   0.795
13228W        W72731  34.991  19.242  14.935
13229W        W72732  30.922  14.742  13.818
13230W        W72733  41.342  26.200   4.270
13231W        W72734  17.239  20.537   2.843
13232W        W72735  41.041  31.914   2.829
13233W        W72736   4.286  24.630   1.807
13234W        W72737  35.857  42.941  13.924
13235W        W72738   8.288  15.614   2.741
13236W        W72739   7.403   2.277   1.419
13237W        W72740  44.963  26.544   2.329
13238W        W72741   7.362   8.821   1.272
13239W        W72742   0.288  21.658   0.371
13240W        W72743  35.011  25.128   1.720
13241W        W72744  16.725   2.377  10.961
13242W        W72745   3.376  13.167  10.919
13243W        W72746   0.263  26.190   2.189
13244W        W72747  28.047  35.062  14.882
13245W        W72748  20.637  33.474   4.284
13246W        W72749  38.477   0.267  11.590
13247W        W72750  28.074  28.673   4.817
13248W        W72751   7.878  37.049  14.847
13249W        W72752  43.416  27.609   4.648
13250W        W72753  44.790  23.689  14.926
13251W        W72754   6.735  37.362   0.872
13252W        W72755  27.503  15.159  12.039
13253W        W72756  26.540  42.358   2.881
13254W        W72757  19.121  10.654   0.263
13255W        W72758  42.942  15.097  14.905
13256W        W72759   9.725  17.168  10.931
13257W        W72760  16.300  15.603   3.814
13258W        W72761  38.873  36.993   2.690
13259W        W72762   4.918   0.880  12.489
13260W        W72763   4.326   9.349   4.224
13261W        W72764  13.673  25.575  10.508
13262W        W72765  38.032   6.382   0.456
13263W        W72766  24.502  32.482  13.376
13264W        W72767  12.189  31.121  11.006
13265W        W72768  38.331  21.691  12.977
13266W        W72769  33.542  12.226  11.109
13267W        W72770   2.244  25.502   0.416
13268W        W72771  26.099  27.954   0.320
13269W        W72772  37.556  30.005  11.429
13270W        W72773  34.920  33.495  11.937
13271W        W72774  20.547  35.579   2.732
13272W        W72775  33.588  13.602   3.154
13273W        W72776   9.793  41.389   0.875
13274W        W72777  21.044  13.231  10.404
13275W        W72778  43.346  26.605   9.632
13276W        W72779  28.013  37.896  10.444
13277W        W72780  37.344  11.264  12.938
13278W        W72781  41.789  31.116   2.216
13279W        W72782  38.344   9.719   0.862
13280W        W72783  28.571   9.710   4.280
13281W        W72784  41.372  38.417  12.043
13282W        W72785  32.412  24.719   5.605
13283W        W72786  12.730  33.933   5.623
13284W        W72787   0.435  19.233   2.707
13285W        W72788  36.022  44.477   1.930
13286W        W72789  40.967  26.585  14.940
13287W        W72790  11.182  28.490   0.266
13288W        W72791   6.313  11.864   1.866
13289W        W72792  24.658  30.999   3.360
13290W        W72793  21.209  33.611  11.483
13291W        W72794  28.027  34.986   2.798
13292W        W72795  16.570   5.725  12.430
13293W        W72796   9.681  27.190  13.338
13294W        W72797  41.838   7.701  11.455
13295W        W72798   5.816   1.342  12.497
13296W        W72799  24.491  12.332   2.388
13297W        W72800   2.815  26.148   4.729
13298W        W72801  43.341  37.572  14.015
13299W        W72802  16.810  10.837  12.872
13300W        W72803  12.855  40.940   2.891
13301W        W72804  27.638  20.663   4.603
13302W        W72805   2.363   5.195   2.667
13303W        W72806  10.638   0.324  12.476
13304W        W72807  27.642  13.682   2.264
13305W        W72808  25.584  40.387   3.661
13306W        W72809  22.562  40.933  12.015
13307W        W72810  22.674  22.233   3.201
13308W        W72811  13.291  21.516   3.820
13309W        W72812  27.185  33.590  14.907
13310W        W72813  19.246  28.961  11.520
13311W        W72814  32.479  38.043   1.404
13312W        W72815   0.340  42.454  14.923
13313W        W72816  21.603  18.059   1.713
13314W        W72817  23.152  29.921   2.284
13315W        W72818   4.902  11.244  14.475
13316W        W72819  26.062  37.381   3.657
13317W        W72820  26.571  11.685  10.618
13318W        W72821  30.602  15.579  13.981
13319W        W72822  17.768  36.996  10.502
13320W        W72823  26.991  44.828  11.464
13321W        W72824  42.796  20.042   4.786
13322W        W72825  11.764  42.928   5.269
13323W        W72826  17.307  43.799  10.459
13324W        W72827  24.143  11.302   1.380
13325W        W72828  13.712   4.880   4.123
13326W        W72829  10.804  22.741   2.240
13327W        W72830  43.299   5.709  12.445
13328W        W72831  19.244  36.000  11.070
13329W        W72832  26.693   9.348   1.732
13330W        W72833  11.830   1.329  10.979
13331W        W72834  13.624  31.107  12.824
13332W        W72835  38.402   2.756   3.259
13333W        W72836  17.647  12.277   2.254
13334W        W72837  26.001   2.470   3.768
13335W        W72838  32.986  14.697   5.234
13336W        W72839  41.366  14.311  12.510
13337W        W72840   6.899  13.797   4.295
13338W        W72841  13.225  34.931  12.965
13339W        W72842  41.371  30.112   0.862
13340W        W72843  28.021  12.737   9.988
13341W        W72844   8.661  24.989   2.823
13342W        W72845  20.623  21.197  14.758
13343W        W72846   0.363  13.339  11.427
13344W        W72847  17.603  11.243   0.326
13345W        W72848  41.960  12.724   3.175
13346W        W72849  23.497  41.331  11.400
13347W        W72850  20.532  25.661   1.723
13348W        W72851  41.468  17.692   4.193
13349W        W72852  10.182   7.352   1.887
13350W        W72853  23.011  39.525   3.748
13351W        W72854   1.839  37.086  12.368
13352W        W72855  23.182  11.820  14.776
13353W        W72856  32.434   4.248   3.279
13354W        W72857  21.143  27.108  12.506
13355W        W72858  17.687  43.950   1.725
13356W        W72859   7.200  32.012  13.385
13357W        W72860  31.099  38.516   0.786
13358W        W72861  35.868  43.506  12.958
13359W        W72862  37.894  34.416   0.254
13360W        W72863  27.044  27.043   3.652
13361W        W72864  26.539  41.372  11.011
13362W        W72865  18.191  44.949   0.356
13363W        W72866   1.254  21.636   2.227
13364W        W72867  23.567  23.080   4.637
13365W        W72868  18.610  11.234   2.746
13366W        W72869  18.161  33.428  13.005
13367W        W72870  32.553  38.410   4.266
13368W        W72871  37.488   9.691  12.501
13369W        W72872  38.967  40.814  13.466
13370W        W72873  13.193  37.478  13.526
13371W        W72874  10.819   6.846   2.284
13372W        W72875  25.048  24.145   3.862
13373W        W72876  44.388   9.853   4.662
13374W        W72877  15.208   4.364  13.361
13375W        W72878  16.803  13.731   4.124
13376W        W72879  18.167  32.978   2.748
13377W        W72880  15.284  32.405   5.276
13378W        W72881  18.177  41.482   3.728
13379W        W72882  14.756   6.748  14.847
13380W        W72883  39.469   0.796  13.544
13381W        W72884  42.437  18.572  14.438
13382W        W72885   9.333  32.131   2.845
13383W        W72886  22.103  33.095   4.731
13384W        W72887  32.939  18.758  12.839
13385W        W72888  26.174  37.943  12.877
13386W        W72889  16.157  39.813   2.903
13387W        W72890  33.465  27.146  12.433
13388W        W72891  27.595  27.047  14.957
13389W        W72892  23.143  10.825   0.386
13390W        W72893  23.143   0.974   2.731
13391W        W72894  22.517  41.976  11.897
13392W        W72895  16.649  39.985  14.897
13393W        W72896  14.299   7.665  10.988
13394W        W72897  33.071  22.195   1.874
13395W        W72898  25.007   5.872   3.216
13396W        W72899  20.134   7.413   2.354
13397W        W72900  38.915   9.776  13.805
13398W        W72901  35.480  22.673   3.168
13399W        W72902  32.941   8.763   2.830
13400W        W72903   4.778  39.015   3.348
13401W        W72904  36.057  12.843  10.902
13402W        W72905   3.251  19.756  13.917
13403W        W72906  15.172  29.497  11.870
13404W        W72907  32.403   7.722   1.271
13405W        W72908  32.592  23.695   4.698
13406W        W72909  29.966  30.119  10.891
13407W        W72910  33.474  14.106   4.780
13408W        W72911  42.925  40.924   4.741
13409W        W72912  36.443  34.551   1.338
13410W        W72913  22.656  41.031  12.549
13411W        W72914  32.499  37.929  12.356
13412W        W72915  27.593   5.737  12.013
13413W        W72916  21.689   9.676   4.798
13414W        W72917  26.458  30.004  13.799
13415W        W72918  17.154  16.687  11.916
13416W        W72919  22.522   7.896  13.970
13417W        W72920   3.926  31.987  11.870
13418W        W72921  11.224  40.432  14.031
13419W        W72922   2.751  43.772   3.869
13420W        W72923  24.575  28.445  13.938
13421W        W72924  28.983  16.217   4.749
13422W        W72925  29.107  39.901  14.504
13423W        W72926  25.666   7.348  10.529
13424W        W72927   7.825  33.022   1.265
13425W        W72928  34.052  22.545   2.769
13426W        W72929  44.004  35.931  12.994
13427W        W72930  32.622  19.657  14.908
13428W        W72931  35.855  42.927  11.956
13429W        W72932  18.169  37.030   2.723
13430W        W72933  15.258  12.219  14.829
13431W        W72934   4.345   2.904  11.553
13432W        W72935  43.845  41.538   4.216
13433W        W72936  23.063  23.162   3.185
13434W        W72937  31.595  34.960   1.246
13435W        W72938  12.624   7.371  11.540
13436W        W72939  44.470   1.938  11.390
13437W        W72940  28.442  35.963   1.762
13438W        W72941  29.439   1.452   4.644
13439W        W72942  10.824   2.372   0.395
13440W        W72943  35.979  38.420  13.395
13441W        W72944  35.951   1.887  13.045
13442W        W72945  43.880  20.271  13.981
13443W        W72946   6.362  31.906  10.466
13444W        W72947  44.969  20.135   0.910
13445W        W72948  12.116  22.048  12.990
13446W        W72949   1.439  43.510   2.833
13447W        W72950  15.302   7.740   0.733
13448W        W72951  40.990  24.705   2.815
13449W        W72952  23.625  19.566  12.462
13450W        W72953   4.414  25.172   4.609
13451W        W72954  16.808   4.934  12.093
13452W        W72955  27.084  31.494   0.737
13453W        W72956  44.443  33.498   2.853
13454W        W72957  27.051  18.744   3.197
13455W        W72958  20.669  31.971   0.435
13456W        W72959  41.531  23.602   1.322
13457W        W72960   0.831  39.823   2.676
13458W        W72961  21.713  28.634  14.941
13459W        W72962  25.218  28.506  14.445
13460W        W72963   4.749   1.884   4.698
13461W        W72964  25.682  26.509   1.849
13462W        W72965  11.739  34.089   4.311
13463W        W72966  29.110  40.956   4.616
13464W        W72967  29.990  34.407  14.921
13465W        W72968   8.833  28.111   4.635
13466W        W72969   5.243   9.805  12.024
13467W        W72970  26.981  17.161  13.415
13468W        W72971  42.787  36.465   0.947
13469W        W72972  34.584  14.773  13.320
13470W        W72973  43.378  21.591  13.044
13471W        W72974  10.713   6.804  12.037
13472W        W72975  11.312  34.994   1.380
13473W        W72976  39.026  39.950   4.290
13474W        W72977  31.408   6.716  13.457
13475W        W72978  28.026  23.155   0.463
13476W        W72979   2.927  11.668   1.896
13477W        W72980   9.839   8.212  12.518
13478W        W72981  28.641  43.484   2.762
13479W        W72982   8.822   9.289  10.457
13480W        W72983  10.814  33.571   2.352
13481W        W72984  19.730   4.910  14.323
13482W        W72985  10.312  15.315   1.782
13483W        W72986  24.987  17.266  13.955
13484W        W72987   9.352   4.798  13.449
13485W        W72988  30.637  36.573  13.478
13486W        W72989  10.138  28.676   3.791
13487W        W72990   8.227  34.549  12.510
13488W        W72991  25.491  13.776   3.800
13489W        W72992  21.741  15.713  14.333
13490W        W72993  36.528   7.407  10.116
13491W        W72994  28.668   5.839   1.405
13492W        W72995  11.823  21.599   4.713
13493W        W72996  37.540   0.980   0.423
13494W        W72997  31.404   7.186   0.740
13495W        W72998   3.711  12.148   1.865
13496W        W72999  20.107   4.326   1.445
13497W        W73000  13.231   0.326  11.065
13498W        W73001  44.405  16.244   1.932
13499W        W73002  33.555   7.876  12.895
13500W        W73003  38.061  11.709  14.945
13501W        W73004   8.273   5.405   1.740
13502W        W73005  36.904  30.002   4.345
13503W        W73006  30.071  34.508   1.932
13504W        W73007   8.331  30.641   3.226
13505W        W73008  41.430  34.002  14.499
13506W        W73009  15.323  12.256   2.285
13507W        W73010  29.503  32.060   3.325
13508W        W73011  11.209   8.894  14.440
13509W        W73012   4.390  43.842   0.274
13510W        W73013   7.350  14.264  10.983
13511W        W73014   4.388  25.567   2.325
13512W        W73015  13.115  29.106  11.547
13513W        W73016   1.887   4.802   0.770
13514W        W73017  36.997  27.459   3.749
13515W        W73018  15.740   1.382   0.345
13516W        W73019   3.341  17.756  11.080
13517W        W73020  36.957  38.395  11.898
13518W        W73021   0.358  22.244   3.853
13519W        W73022  35.519  21.746   4.304
13520W        W73023  38.508  11.783  13.477
13521W        W73024   9.858  24.626   4.269
13522W        W73025  11.199   4.804  11.504
13523W        W73026   1.960  44.324   1.285
13524W        W73027  38.356   2.242   0.366
13525W        W73028  15.742  13.742   2.896
13526W        W73029   3.324  42.347   0.350
13527W        W73030  19.652   4.853   0.325
13528W        W73031   3.322  33.035   1.390
13529W        W73032   7.867  34.568   1.790
13530W        W73033   1.788   6.805   3.688
13531W        W73034   9.749   7.293  13.314
13532W        W73035  40.949  38.832  12.883
13533W        W73036  41.522  25.521   0.849
13534W        W73037  35.444  21.028   1.929
13535W        W73038  42.507   1.382   2.276
13536W        W73039  25.696  33.620  13.840
13537W        W73040  26.970  33.090  13.418
13538W        W73041  41.332  31.427   1.451
13539W        W73042  38.879  15.189   1.312
13540W        W73043   3.290  27.603   1.260
13541W        W73044  44.345  35.531   2.729
13542W        W73045   4.739   3.223   3.778
13543W        W73046   2.289  19.275  11.906
13544W        W73047  31.991  44.913   1.748
13545W        W73048  28.622  13.730   5.185
13546W        W73049   0.824  38.346   0.289
13547W        W73050  27.954  12.188  11.418
13548W        W73051  19.154  14.261   2.775
13549W        W73052  24.220  17.601  14.346
13550W        W73053  38.879   3.822  13.816
13551W        W73054  43.915  33.967   3.271
13552W        W73055  35.378  21.249   4.838
13553W        W73056  38.467  40.386   2.352
13554W        W73057  14.101   4.350  10.106
13555W        W73058  25.192  26.971  11.953
13556W        W73059   7.840  11.245   4.121
13557W        W73060   0.764  37.885   1.229
13558W        W73061  21.066  20.123   4.351
13559W        W73062  35.046   2.351  12.550
13560W        W73063   3.424  29.982   1.312
13561W        W73064   9.760  24.161  13.328
13562W        W73065   1.453  23.510   0.755
13563W        W73066  23.130  14.158   2.770
13564W        W73067  31.991  23.606   2.374
13565W        W73068  24.065   7.792  13.517
13566W        W73069   4.401  36.430  11.502
13567W        W73070  44.487  14.715  11.045
13568W        W73071  33.051  26.608  11.952
13569W        W73072  39.950  29.075  13.038
13570W        W73073  25.508  14.647   2.359
13571W        W73074  31.132   5.196  11.991
13572W        W73075  42.288  24.614  12.476
13573W        W73076  35.881  37.831   3.281
13574W        W73077  28.629  19.582  11.524
13575W        W73078  15.767  12.245   0.946
13576W        W73079  39.012  28.152  13.405
13577W        W73080  31.111   6.402   2.696
13578W        W73081  30.089  39.976   1.908
13579W        W73082  38.962  33.986  14.857
13580W        W73083  20.613  36.564  14.801
13581W        W73084  10.331   9.881  11.957
13582W        W73085  30.433  21.210   3.759
13583W        W73086  17.134  23.528  11.429
13584W        W73087  14.210  28.630   2.402
13585W        W73088  13.765  32.928  14.505
13586W        W73089  29.472  42.992   3.252
13587W        W73090  41.873  14.646  11.496
13588W        W73091  19.632  32.419  11.054
13589W        W73092  19.732  37.379   0.299
13590W        W73093  43.834  17.121  10.948
13591W        W73094  19.673   2.255   0.243
13592W        W73095  16.091   5.723   1.802
13593W        W73096  43.365  43.013  13.802
13594W        W73097  34.943  16.097  14.789
13595W        W73098  30.443  32.493   2.272
13596W        W73099  29.042  24.064   2.674
13597W        W73100   2.755  28.458  14.313
13598W        W73101  19.572  19.741  11.922
13599W        W73102  31.116  29.573   4.117
13600W        W73103  39.417   4.815  10.113
13601W        W73104   7.364  31.611  11.426
13602W        W73105   8.273   3.822   2.194
13603W        W73106  38.944  26.561  13.998
13604W        W73107  25.010  31.039   5.189
13605W        W73108   8.816  26.630  14.779
13606W        W73109  21.023  18.597  12.019
13607W        W73110   6.363  20.193  11.526
13608W        W73111  42.916  30.021   3.852
13609W        W73112  33.007  30.152   3.817
13610W        W73113  12.124  28.605   0.457
13611W        W73114  12.359  10.225  10.928
13612W        W73115  27.031  28.531  12.984
13613W        W73116  28.171  40.897   3.215
13614W        W73117  26.569  26.049   4.810
13615W        W73118  22.591  13.205  11.040
13616W        W73119   4.809  31.918   4.607
13617W        W73120  25.540  34.470   2.388
13618W        W73121  16.577  34.953   3.723
13619W        W73122   7.798  18.165  12.436
13620W        W73123  35.475  44.440   1.802
13621W        W73124  28.086  31.038  10.465
13622W        W73125  10.803   6.314   1.392
13623W        W73126   0.284  30.096   0.437
13624W        W73127   5.431  32.541  11.543
13625W        W73128  34.573  29.972   4.323
13626W        W73129  16.803  41.323  11.556
13627W        W73130  31.003  35.031  11.115
13628W        W73131  37.335  44.763   1.922
13629W        W73132   5.912  21.173   0.872
13630W        W73133  35.383  40.044  12.879
13631W        W73134  15.205  31.599  12.911
13632W        W73135  23.038  14.314   2.230
13633W        W73136  32.441  15.123  11.006
13634W        W73137  18.130  14.747  12.354
13635W        W73138  38.858  12.183  10.530
13636W        W73139  23.716   6.189   3.171
13637W        W73140  15.775   3.376   1.344
13638W        W73141  35.054   7.321   2.818
13639W        W73142  14.833  38.388  11.895
13640W        W73143  27.101  15.703   4.718
13641W        W73144  30.045  41.927  13.009
13642W        W73145  32.489  11.153   3.731
13643W        W73146  14.281  19.748   1.843
13644W        W73147  44.805   6.420   0.386
13645W        W73148  12.123  44.778   1.438
13646W        W73149   0.483  16.682   3.368
13647W        W73150  14.245   1.274  11.468
13648W        W73151  10.355  40.941   2.266
13649W        W73152  24.988  30.442   1.325
13650W        W73153  27.652   9.660  11.946
13651W        W73154  11.824   5.402  10.637
13652W        W73155  29.631  24.989  10.998
13653W        W73156   8.854  13.129   5.194
13654W        W73157  38.869  31.024   4.603
13655W        W73158  17.113  40.351   2.403
13656W        W73159  29.998   1.823  11.482
13657W        W73160  10.141  21.246  11.513
13658W        W73161  37.068  37.462  14.835
13659W        W73162  13.689  12.731  11.957
13660W        W73163  14.689  13.251  10.959
13661W        W73164  24.548   7.774   1.897
13662W        W73165   1.969  26.655  13.866
13663W        W73166  16.265  28.009  10.155
13664W        W73167  19.060  24.638   4.239
13665W        W73168  35.470  40.834  11.532
13666W        W73169   1.304  42.431  10.039
13667W        W73170  10.308  34.968  14.944
13668W        W73171  30.550  39.837  11.566
13669W        W73172  20.534  28.554   2.334
13670W        W73173  38.881  20.270   1.811
13671W        W73174  29.950  15.275  14.415
13672W        W73175   4.720   7.317   0.386
13673W        W73176  33.471  34.374   4.838
13674W        W73177  39.974  15.784  14.329
13675W        W73178  25.025  42.316   1.932
13676W        W73179  22.124  23.726   1.395
13677W        W73180  42.006  42.830   2.787
13678W        W73181  18.569  18.575  13.311
13679W        W73182  42.319  32.619   4.140
13680W        W73183  31.936  17.276  12.002
13681W        W73184  21.599  42.964  14.026
13682W        W73185  40.006   4.896  11.066
13683W        W73186   1.929   9.243  10.610
13684W        W73187  40.538  31.134  13.926
13685W        W73188  28.609   7.912  13.437
13686W        W73189   4.861  37.957   0.456
13687W        W73190   3.272  23.123   0.920
13688W        W73191  18.190  10.335   4.214
13689W        W73192  26.036   4.912   4.281
13690W        W73193  42.287  10.168   4.652
13691W        W73194  26.549  15.634  10.619
13692W        W73195  27.164  14.263  12.496
13693W        W73196  42.430  32.625   2.344
13694W        W73197  18.137  40.390  14.766
13695W        W73198  15.740  27.598  14.784
13696W        W73199  12.737  35.956   3.165
13697W        W73200  18.142   3.709  13.405
13698W        W73201  42.887  22.724  14.927
13699W        W73202  26.523  42.392  13.837
13700W        W73203  14.131  21.223  13.371
13701W        W73204   9.822   0.336   2.363
13702W        W73205  11.702  18.636  13.972
13703W        W73206   9.666   1.804   4.202
13704W        W73207  17.276   4.346   1.742
13705W        W73208  13.160  43.364  13.933
13706W        W73209  30.070   7.910   0.398
13707W        W73210  40.547  36.095  14.360
13708W        W73211  40.923  35.915  11.966
13709W        W73212   6.775  40.350   1.309
13710W        W73213   1.468  12.662   4.125
13711W        W73214  34.002  30.030   3.367
13712W        W73215   5.695  19.197   1.234
13713W        W73216   2.325  32.427   2.362
13714W        W73217  13.839  24.992  13.964
13715W        W73218  39.819   2.863   2.751
13716W        W73219  21.717  22.602   9.933
13717W        W73220  30.914  39.042  14.471
13718W        W73221   4.913  12.252  11.421
13719W        W73222  41.039  16.614   1.348
13720W        W73223  16.692  23.518  14.760
13721W        W73224  30.624  44.870   3.695
13722W        W73225  44.376  22.657  11.557
13723W        W73226  31.562  16.748   2.235
13724W        W73227  25.141  29.471  13.362
13725W        W73228  36.588  21.622   3.765
13726W        W73229   5.780  33.482  13.357
13727W        W73230  23.680  25.641  13.924
13728W        W73231   0.965  18.563   0.782
13729W        W73232  36.999  42.363  12.073
13730W        W73233  19.232  39.525  14.905
13731W        W73234  40.042  35.546   0.297
13732W        W73235  33.411  38.071   1.811
13733W        W73236  44.427  10.690   0.401
13734W        W73237  39.505  25.064  11.443
13735W        W73238  19.730  30.015   3.792
13736W        W73239  12.268  44.793   0.472
13737W        W73240  23.598  16.598  11.079
13738W        W73241  33.472  11.813   0.283
13739W        W73242  21.652  25.513  11.477
13740W        W73243   0.907   2.828  13.969
13741W        W73244  25.105  39.557  11.027
13742W        W73245  34.400  24.594  10.933
13743W        W73246  20.034  22.672  10.594
13744W        W73247  25.515  29.447   0.833
13745W        W73248  24.632  29.008   2.681
13746W        W73249  17.798  39.403   1.797
13747W        W73250  22.700   4.316  11.904
13748W        W73251   2.256  16.715  14.478
13749W        W73252  27.110   6.733  10.630
13750W        W73253  24.522  22.561   0.958
13751W        W73254  28.136   1.794   3.716
13752W        W73255  44.338  31.107  10.415
13753W        W73256  25.975  30.549   4.157
13754W        W73257   0.288  10.194   2.236
13755W        W73258  23.164  36.556  14.834
13756W        W73259  39.044  30.135  12.541
13757W        W73260  30.428   7.793   0.843
13758W        W73261   5.395  37.490  12.006
13759W        W73262  32.619  37.019  12.348
13760W        W73263  10.734  21.530  12.568
13761W        W73264   3.415  21.550   3.746
13762W        W73265  18.074  37.940  14.780
13763W        W73266  12.120  12.322   1.394
13764W        W73267   1.437  23.990  13.870
13765W        W73268  38.466  24.654  10.625
13766W        W73269  38.542  21.038  11.440
13767W        W73270  27.105  18.635  13.831
13768W        W73271  27.455  44.423  11.597
13769W        W73272  35.520   2.738   3.633
13770W        W73273  29.475  29.930   2.872
13771W        W73274  19.227   8.717   4.717
13772W        W73275  19.631  24.165  13.461
13773W        W73276   4.846  32.055   3.705
13774W        W73277  19.585  22.160  14.430
13775W        W73278  23.199  44.976   5.735
13776W        W73279  25.506  39.549  13.535
13777W        W73280  26.158   9.852   4.642
13778W        W73281  11.731   2.798   0.467
13779W        W73282  40.955  30.542   1.243
13780W        W73283  18.545  43.811   2.762
13781W        W73284  28.636  37.029  13.805
13782W        W73285   7.882   0.872   0.939
13783W        W73286  13.618  22.035  13.946
13784W        W73287  25.667  16.173  12.878
13785W        W73288  34.554  28.168  14.357
13786W        W73289  27.945  25.024  11.891
13787W        W73290  26.663  34.576  12.023
13788W        W73291  12.788  31.000  11.093
13789W        W73292  39.925  31.112  11.013
13790W        W73293  27.186  22.109  12.077
13791W        W73294   9.247  15.269   1.366
13792W        W73295  27.597  40.335  11.014
13793W        W73296   0.478  42.414   4.710
13794W        W73297  13.738  35.094   0.259
13795W        W73298  27.646  25.555  12.410
13796W        W73299  17.075  39.479  14.412
13797W        W73300  41.849  10.193  12.549
13798W        W73301  42.294  27.654   2.706
13799W        W73302  41.017   4.909   5.240
13800W        W73303  37.455  24.571   2.887
13801W        W73304  39.914  37.957  13.849
13802W        W73305   2.249  13.237  12.929
13803W        W73306  23.515   7.188   4.610
13804W        W73307  38.429  43.311  10.450
13805W        W73308  28.441  28.602  13.889
13806W        W73309  31.632  43.310   3.295
13807W        W73310  18.158  25.008  13.007
13808W        W73311   7.673  43.004  10.504
13809W        W73312   7.827  38.957  14.963
13810W        W73313   9.369  17.598   1.717
13811W        W73314   7.872   8.825   4.722
13812W        W73315  14.201  40.855   1.771
13813W        W73316  39.481  39.966  14.295
13814W        W73317  10.273  39.555  10.093
13815W        W73318   3.942  16.314  11.595
13816W        W73319  35.081  42.435   4.837
13817W        W73320   0.328  42.296  12.958
13818W        W73321  30.996   3.723   3.720
13819W        W73322  22.243  15.200   3.864
13820W        W73323  20.068   1.907   0.767
13821W        W73324  17.197  29.631  12.884
13822W        W73325  41.402  38.002  14.786
13823W        W73326   0.964  20.051  12.849
13824W        W73327  33.085  31.929   3.779
13825W        W73328  13.251  14.212   4.814
13826W        W73329  30.908  18.132   1.389
13827W        W73330  30.501  13.264   0.964
13828W        W73331  11.222  16.188  12.383
13829W        W73332  14.243  26.001  12.387
13830W        W73333   1.414  17.685   2.228
13831W        W73334  16.278  24.598  12.944
13832W        W73335   5.362  29.504  13.534
13833W        W73336  31.610   6.228  13.006
13834W        W73337  44.000  36.384  11.542
13835W        W73338  30.644  21.615  10.496
13836W        W73339  10.738   4.720   4.302
13837W        W73340  32.111  27.679  14.463
13838W        W73341  26.023   6.907  11.072
13839W        W73342  15.108  19.259   4.632
13840W        W73343  30.040  23.629   0.889
13841W        W73344  13.832   3.729   4.668
13842W        W73345  15.100  34.954   2.785
13843W        W73346  36.468   8.674  10.515
13844W        W73347  20.189  22.530  14.444
13845W        W73348   2.426  13.829  12.511
13846W        W73349  27.114  14.241   0.386
13847W        W73350  17.685  22.248  12.456
13848W        W73351  23.213  34.523   1.695
13849W        W73352   7.877  34.503   2.410
13850W        W73353  12.682  11.210   1.912
13851W        W73354  38.907   6.380  11.902
13852W        W73355   0.415  24.993   2.212
13853W        W73356  24.002  17.599  12.483
13854W        W73357  33.982  16.143  13.336
13855W        W73358  39.444  29.119   0.949
13856W        W73359  19.602  16.643   4.162
13857W        W73360   4.393  24.134   4.697
13858W        W73361   8.807  15.218  14.807
13859W        W73362  14.703  27.681  10.411
13860W        W73363  11.300  31.957  12.005
13861W        W73364  42.909  32.101  12.836
13862W        W73365  31.412  19.123  12.425
13863W        W73366  37.010  43.765   0.447
13864W        W73367  22.188  36.516  13.321
13865W        W73368  25.035   5.210   3.240
13866W        W73369  24.570   6.835  13.810
13867W        W73370   1.977   2.850  14.345
13868W        W73371  18.585  12.223  14.888
13869W        W73372  29.542  17.587   4.771
13870W        W73373  14.807  14.115  11.994
13871W        W73374  41.508  33.027   4.650
13872W        W73375  13.133  23.662  11.477
13873W        W73376   7.382   5.755  11.969
13874W        W73377  23.536  33.111   4.270
13875W        W73378  39.860   3.860  14.315
13876W        W73379  17.080  41.787   0.312
13877W        W73380  30.559   1.773   0.803
13878W        W73381  34.980   8.833   0.794
13879W        W73382  10.738  39.022   9.950
13880W        W73383  27.010  29.999  10.543
13881W        W73384   3.229  13.636   3.764
13882W        W73385  36.391  12.183   0.743
13883W        W73386   1.822  37.039  11.399
13884W        W73387  13.200  14.646   0.789
13885W        W73388  42.360  21.213   0.803
13886W        W73389  13.216  11.256   1.450
13887W        W73390  40.971  34.990  13.894
13888W        W73391  14.200  20.619  13.920
13889W        W73392  33.416  28.565   4.186
13890W        W73393  12.739  14.275   2.787
13891W        W73394  21.139  24.624  13.828
13892W        W73395  26.065  41.934   4.222
13893W        W73396  38.848  37.425  14.863
13894W        W73397  17.639  23.563  14.010
13895W        W73398  12.214  19.758  11.910
13896W        W73399  21.749   9.255   4.807
13897W        W73400  14.825  14.286  12.375
13898W        W73401  27.008   9.678   1.880
13899W        W73402  14.211   4.757  10.526
13900W        W73403  23.583  12.615   0.257
13901W        W73404  27.999  19.066   3.345
13902W        W73405  35.598  16.698  14.969
13903W        W73406  27.988  34.606   3.247
13904W        W73407  22.699   5.306   0.313
13905W        W73408  12.686  30.972   3.341
13906W        W73409  14.126   3.398  11.981
13907W        W73410  39.809  21.527  13.063
13908W        W73411  26.587  32.471   2.359
13909W        W73412  43.866  14.707   0.246
13910W        W73413   8.654  38.916   2.705
13911W        W73414  20.084   8.717  12.390
13912W        W73415  13.294  26.596   3.864
13913W        W73416  42.837  20.185  11.897
13914W        W73417  15.132  32.002  12.858
13915W        W73418  37.839  44.906   1.841
13916W        W73419  44.330  20.271   0.428
13917W        W73420   6.192  16.298   1.358
13918W        W73421  40.033  37.973   4.158
13919W        W73422  28.679  31.604  13.817
13920W        W73423  15.601  19.283  13.514
13921W        W73424  30.620  25.066   2.263
13922W        W73425  17.646  31.461  13.367
13923W        W73426  36.452   2.825   2.355
13924W        W73427  19.255  43.283  11.419
13925W        W73428  30.647  29.480   4.134
13926W        W73429  40.353  12.633   3.855
13927W        W73430   0.340  31.915   3.215
13928W        W73431  36.513  34.466   2.676
13929W        W73432  43.931  44.918  13.964
13930W        W73433  38.076   1.815  10.606
13931W        W73434  12.290  27.477   2.301
13932W        W73435  35.097  22.155  13.442
13933W        W73436  24.657  44.444  10.994
13934W        W73437  13.789  15.781   4.797
13935W        W73438  30.974   5.928   0.841
13936W        W73439  18.207  10.824  14.943
13937W        W73440  10.314  38.834   2.400
13938W        W73441  13.252  29.105   0.319
13939W        W73442  24.682  17.649  14.904
13940W        W73443  29.423   9.841   2.299
13941W        W73444  30.981  31.556   1.436
13942W        W73445  43.856   8.723  11.460
13943W        W73446  36.902  15.620   3.238
13944W        W73447   0.790  28.142  12.996
13945W        W73448  16.292   6.294   3.292
13946W        W73449  35.059   7.303   1.422
13947W        W73450  43.888  37.866  11.873
13948W        W73451  17.727  11.715  10.931
13949W        W73452  36.860  30.610  14.474
13950W        W73453   1.852  21.037  13.391
13951W        W73454  43.875  14.709  13.429
13952W        W73455   4.827  12.123   4.305
13953W        W73456  32.614  41.024  13.429
13954W        W73457  20.561  38.453  13.893
13955W        W73458   2.303  29.637  12.347
13956W        W73459  26.562   5.216   0.360
13957W        W73460  32.122  30.071   3.643
13958W        W73461  23.236  29.942   0.753
13959W        W73462  11.828   0.281  12.481
13960W        W73463   9.644  10.246   2.278
13961W        W73464  40.313  35.982  13.980
13962W        W73465   7.783  30.162  11.511
13963W        W73466   5.704  39.052   1.715
13964W        W73467  39.818  16.227   4.749
13965W        W73468  32.925   4.205  12.871
13966W        W73469  40.467  38.974   2.287
13967W        W73470  22.138   0.817   1.246
13968W        W73471  24.529  29.961  14.022
13969W        W73472  13.147   1.812   2.850
13970W        W73473  20.219  20.764  10.967
13971W        W73474  30.991   8.280   4.180
13972W        W73475   4.801  37.830  12.024
13973W        W73476  25.174  31.437  13.421
13974W        W73477  42.501  26.134  12.895
13975W        W73478  35.426  25.031  10.456
13976W        W73479  34.096   9.307   4.262
13977W        W73480  38.040   6.214  13.891
13978W        W73481  42.019   6.792   3.836
13979W        W73482  18.242  32.496  14.770
13980W        W73483   6.381  34.551   5.251
13981W        W73484  32.434  44.373  14.932
13982W        W73485  36.937  36.921   4.718
13983W        W73486   2.431  17.719  13.482
13984W        W73487  34.003  19.749  13.389
13985W        W73488  18.663   6.692   1.333
13986W        W73489  12.350  44.409   4.800
13987W        W73490  21.538   3.435   4.266
13988W        W73491  16.809  15.728   2.251
13989W        W73492  40.340  21.693  11.377
13990W        W73493  19.103  17.252  11.909
13991W        W73494  44.943  40.916   4.299
13992W        W73495   3.274  28.945   3.797
13993W        W73496  12.621  37.992  14.412
13994W        W73497  31.610   7.669   3.328
13995W        W73498  37.994  24.668  10.899
13996W        W73499  25.661  34.065   0.385
13997W        W73500  22.516  32.059  12.869
13998W        W73501  36.041  28.489  12.902
13999W        W73502  30.925  40.812   4.314
14000W        W73503  44.969  36.850  12.570
14001W        W73504  21.134   3.760  14.407
14002W        W73505  26.672  44.929   3.702
14003W        W73506  37.010  41.406   0.338
14004W        W73507  27.967   6.398   2.266
14005W        W73508   1.740  21.130  10.945
14006W        W73509  17.197  17.064   2.874
14007W        W73510  14.786   9.174  12.523
14008W        W73511  37.963  37.014  11.474
14009W        W73512  44.418   4.311  12.980
14010W        W73513  14.302  40.884   4.742
14011W        W73514  14.202  31.930  10.510
14012W        W73515  12.181  16.757   0.835
14013W        W73516  14.132  28.946  11.444
14014W        W73517  34.121  35.044   2.330
14015W        W73518  39.470  40.373  13.365
14016W        W73519  42.788  27.005  12.375
14017W        W73520  25.079  21.132  11.584
14018W        W73521  22.697   4.768  11.578
14019W        W73522  21.665  13.321   1.762
14020W        W73523   6.404  26.522  14.453
14021W        W73524  34.604  31.101  12.458
14022W        W73525   4.788  30.618   2.211
14023W        W73526  43.309  19.563  12.879
14024W        W73527   5.911  44.445   1.725
14025W        W73528  26.132   7.843   3.149
14026W        W73529  32.534   5.756   4.759
14027W        W73530  19.761  41.318   3.819
14028W        W73531  38.025  29.513   1.348
14029W        W73532   7.762  27.073   0.768
14030W        W73533  29.946   6.322   1.231
14031W        W73534  11.311  35.547  14.372
14032W        W73535  41.934  30.014   2.714
14033W        W73536  12.641   0.746   3.742
14034W        W73537  35.096  39.419   1.342
14035W        W73538   5.302   6.256   3.839
14036W        W73539  23.573  29.978  14.889
14037W        W73540  13.128  19.633   4.771
14038W        W73541  18.208   9.696  11.000
14039W        W73542  11.629  18.788   3.723
14040W        W73543  12.693  10.746   2.859
14041W        W73544  16.749  15.180   1.437
14042W        W73545  28.972  39.491  14.417
14043W        W73546  14.184  38.539   4.233
14044W        W73547  12.344  17.669  13.025
14045W        W73548  44.456  34.543   9.935
14046W        W73549  41.382  34.026   3.756
14047W        W73550  40.950  25.505   4.674
14048W        W73551   8.748  23.186  10.439
14049W        W73552  40.860  11.308   3.859
14050W        W73553  16.780  17.622  11.032
14051W        W73554   0.435  39.462  14.765
14052W        W73555   6.913  20.208  12.889
14053W        W73556  40.928  29.546   4.156
14054W        W73557  20.639  11.791   2.693
14055W        W73558  14.737  25.659  12.472
14056W        W73559  27.549   2.829   3.635
14057W        W73560  22.517  35.028  12.975
14058W        W73561   9.806  27.586  14.368
14059W        W73562  21.612  36.956   0.391
14060W        W73563   2.235  20.690   3.644
14061W        W73564  17.224  41.846  14.825
14062W        W73565  34.534  24.076  14.486
14063W        W73566  14.234   5.837   1.927
14064W        W73567  36.848  26.953   3.696
14065W        W73568  41.532  35.514  14.359
14066W        W73569  15.084  39.527   4.763
14067W        W73570  38.460  22.720   1.839
14068W        W73571  23.103  12.809   3.212
14069W        W73572   3.292  26.550  14.361
14070W        W73573  30.070   4.403   4.671
14071W        W73574  19.118   9.346   1.787
14072W        W73575  24.038  43.800   5.650
14073W        W73576  38.522   1.789   0.371
14074W        W73577  24.493   0.327   2.717
14075W        W73578  38.337  15.735  14.288
14076W        W73579  34.556  23.593   4.149
14077W        W73580  32.987  13.286   3.227
14078W        W73581  31.410   9.681  14.912
14079W        W73582   7.312  38.990  13.840
14080W        W73583  31.583  43.347   0.789
14081W        W73584   2.401   7.709   3.680
14082W        W73585  15.790   0.879  14.426
14083W        W73586  26.099   8.208   0.456
14084W        W73587  39.037   7.814   3.709
14085W        W73588  44.271  42.983   3.870
14086W        W73589  16.696   9.393   3.807
14087W        W73590  21.640   4.389  12.419
14088W        W73591   3.240   8.251   1.352
14089W        W73592  22.506  24.561   4.829
14090W        W73593   4.939   1.856  11.950
14091W        W73594  39.967  36.534  12.465
14092W        W73595  38.862  23.117  10.924
14093W        W73596  33.519  27.652  11.089
14094W        W73597  39.424  18.068   2.273
14095W        W73598  23.063  25.048   1.398
14096W        W73599   7.739  43.392   4.681
14097W        W73600   2.779  17.772   3.696
14098W        W73601  33.025  23.623   1.290
14099W        W73602   1.940  15.162  13.407
14100W        W73603  10.821  17.174   1.714
14101W        W73604   1.910  12.735   3.746
14102W        W73605  18.697  42.336   2.337
14103W        W73606  40.327  42.477   0.772
14104W        W73607  40.799  19.727  12.931
14105W        W73608  34.903  16.786   1.908
14106W        W73609  17.626   6.738   4.168
14107W        W73610  25.611  25.144   5.231
14108W        W73611  38.472  31.017   1.824
14109W        W73612   3.789  25.569  14.827
14110W        W73613  19.762   3.235   1.823
14111W        W73614  12.261  28.961   3.384
14112W        W73615   6.419  35.498  11.056
14113W        W73616  17.139  42.910   3.858
14114W        W73617  39.321   2.929  11.917
14115W        W73618  14.690   4.771   1.445
14116W        W73619  35.549  17.221  11.027
14117W        W73620   3.883   5.840  13.462
14118W        W73621  44.434  43.994  13.363
14119W        W73622  20.235  30.152   1.450
14120W        W73623  22.014  25.186  12.965
14121W        W73624  28.050  26.548  12.007
14122W        W73625  10.676  35.914   5.247
14123W        W73626  13.290  23.209  12.962
14124W        W73627   8.674  35.595   2.863
14125W        W73628  40.541  33.995  13.791
14126W        W73629  24.216  41.023  11.062
14127W        W73630  28.503  33.532  11.505
14128W        W73631   2.412  36.913  11.452
14129W        W73632  34.414   2.383  13.315
14130W        W73633  35.374  31.455  10.575
14131W        W73634  18.578   2.365   2.209
14132W        W73635  43.350  30.431  13.939
14133W        W73636   4.868  39.910  14.856
14134W        W73637   5.806  31.953   4.706
14135W        W73638   3.337  20.256  13.881
14136W        W73639  10.156   9.306  12.470
14137W        W73640  24.584  10.716   3.789
14138W        W73641   1.274  29.168  11.986
14139W        W73642  40.408  24.582  13.347
14140W        W73643   3.430  26.134   2.225
14141W        W73644   1.478  36.972  13.367
14142W        W73645  22.237  36.855  12.502
14143W        W73646  13.771  20.588  11.897
14144W        W73647  28.636  28.491   4.775
14145W        W73648  22.722  40.362  14.846
14146W        W73649  17.767  27.985   2.259
14147W        W73650  35.864  34.380  11.604
14148W        W73651  19.166  13.769  11.538
14149W        W73652   4.830   2.425  10.615
14150W        W73653  30.534  20.728   3.830
14151W        W73654  42.502  27.982  10.579
14152W        W73655  37.870  43.004  11.078
14153W        W73656  21.517  32.027   2.245
14154W        W73657  29.114  41.041   3.252
14155W        W73658  43.341  10.670   1.402
14156W        W73659  35.060   7.188  12.955
14157W        W73660  22.030  28.531   4.834
14158W        W73661  31.041  14.299  14.846
14159W        W73662   5.367   4.426  11.948
14160W        W73663  23.713  13.625  11.536
14161W        W73664  14.302   2.336   0.437
14162W        W73665  31.592  43.848   2.354
14163W        W73666  33.002  44.501  10.474
14164W        W73667   7.371   4.811   0.416
14165W        W73668   6.287  42.954  12.423
14166W        W73669  30.498   4.230   4.298
14167W        W73670  24.061  11.197  10.616
14168W        W73671   8.377  20.699  14.960
14169W        W73672  12.624  44.422  12.975
14170W        W73673  42.900  24.137  11.485
14171W        W73674   9.393  31.554   1.906
14172W        W73675  15.200  25.135  13.893
14173W        W73676  36.592  37.922  10.452
14174W        W73677   2.838  17.604  14.959
14175W        W73678  30.075  42.971   0.431
14176W        W73679  14.304  26.956  14.781
14177W        W73680  15.126   6.767   3.842
14178W        W73681  33.076  39.926   1.357
14179W        W73682  30.434  39.914  13.528
14180W        W73683   2.227   2.395  12.024
14181W        W73684  16.723  24.697   4.666
14182W        W73685  29.506  24.725   4.291
14183W        W73686   8.669   8.782   3.693
14184W        W73687  35.517  36.039   3.838
14185W        W73688  32.048  23.594   4.186
14186W        W73689  13.799  43.348  11.986
14187W        W73690  21.061   0.888   4.228
14188W        W73691  43.477  23.584  10.538
14189W        W73692  18.667  30.576  12.860
14190W        W73693  28.136  41.371  11.464
14191W        W73694   5.756  43.510   1.908
14192W        W73695  11.843  23.026   0.318
14193W        W73696  24.111  37.562  10.971
14194W        W73697  11.341   2.369   3.657
14195W        W73698  25.542   8.694  14.968
14196W        W73699  20.231  39.014   3.207
14197W        W73700  38.552  32.484  11.471
14198W        W73701  31.078  17.271   2.768
14199W        W73702  19.160  33.516  12.891
14200W        W73703  12.613  22.546  11.914
14201W        W73704  37.559  42.838  13.332
14202W        W73705  42.833  18.158  13.476
14203W        W73706   4.771  39.383   3.280
14204W        W73707  33.876  24.144  11.064
14205W        W73708  30.098  21.183  11.889
14206W        W73709   9.169   5.207   0.477
14207W        W73710  32.608  16.780   0.389
14208W        W73711  26.190   8.164   4.623
14209W        W73712  43.347   0.431   1.792
14210W        W73713  29.626  26.126  10.485
14211W        W73714  15.684  12.276  13.875
14212W        W73715   5.753  39.057  10.962
14213W        W73716  14.789  13.178   3.316
14214W        W73717   9.330  18.068   4.820
14215W        W73718  27.945   1.756   0.737
14216W        W73719   5.692  29.075  11.054
14217W        W73720  11.714  22.062  12.550
14218W        W73721  40.379  44.753   3.691
14219W        W73722  11.719   8.750   0.773
14220W        W73723  23.586  37.872  11.986
14221W        W73724  37.883  36.093   2.221
14222W        W73725  32.559  31.932   0.476
14223W        W73726  19.540   5.890   3.839
14224W        W73727  32.070  25.609  13.947
14225W        W73728   4.843  17.247   4.652
14226W        W73729  19.627  24.530  14.031
14227W        W73730  18.683  13.637  12.453
14228W        W73731  18.626  29.599   1.729
14229W        W73732   4.755  18.752   0.730
14230W        W73733   2.411  42.395  13.519
14231W        W73734  32.519  24.079   1.296
14232W        W73735  28.677   3.802  12.065
14233W        W73736  27.169   4.933   3.743
14234W        W73737  23.711  10.232  12.854
14235W        W73738  38.361  33.626   1.410
14236W        W73739  12.155  36.859  14.792
14237W        W73740   3.775  19.071   3.166
14238W        W73741  26.625  32.094  14.872
14239W        W73742  15.163  13.223   0.814
14240W        W73743  33.030  20.165   1.395
14241W        W73744  43.981   8.299  14.405
14242W        W73745  32.100  24.528   0.861
14243W        W73746   0.384  17.260  12.832
14244W        W73747  43.911  13.306  12.874
14245W        W73748  38.487   6.741  12.872
14246W        W73749  28.002  18.209   3.843
14247W        W73750   0.924  11.817   2.322
14248W        W73751   5.299  32.535   0.245
14249W        W73752  35.033  40.998   0.477
14250W        W73753  26.655  10.797  14.966
14251W        W73754  25.122  24.155  12.406
14252W        W73755  12.175   3.456   0.770
14253W        W73756  39.557  44.429   1.318
14254W        W73757   5.790  21.028   5.221
14255W        W73758  16.702  20.240   2.703
14256W        W73759  23.675  36.987  13.503
14257W        W73760   0.853  10.667   4.758
14258W        W73761   0.305  31.547  14.934
14259W        W73762  20.712  20.090  11.602
14260W        W73763  37.349  43.804   1.364
14261W        W73764   7.832   8.353   3.637
14262W        W73765  32.992  19.720  13.349
14263W        W73766  39.422  23.237   0.344
14264W        W73767  31.929  23.030   2.178
14265W        W73768  40.855  25.676   3.245
14266W        W73769  12.153  41.930  11.412
14267W        W73770  35.598  18.170   0.282
14268W        W73771  40.470  34.408   4.608
14269W        W73772  38.565   5.723   2.203
14270W        W73773  11.195  44.860  11.015
14271W        W73774  25.157   7.192   2.362
14272W        W73775  24.122  12.243  11.552
14273W        W73776  22.691  17.276  14.416
14274W        W73777  25.640  23.655  14.806
14275W        W73778   3.293  22.682   3.286
14276W        W73779  29.506  35.981  14.451
14277W        W73780  37.038  24.209   0.876
14278W        W73781  42.287   4.715  11.103
14279W        W73782   5.423   9.321   2.764
14280W        W73783  38.449  30.565   1.743
14281W        W73784   1.401  31.566  13.477
14282W        W73785  39.385  11.829   2.287
14283W        W73786  25.059  24.589   4.779
14284W        W73787  16.659  11.633   4.693
14285W        W73788   3.416  11.358   0.822
14286W        W73789  42.775  39.011  12.873
14287W        W73790   0.300  27.168   3.325
14288W        W73791  23.115  40.544  11.860
14289W        W73792  28.558  31.552  10.918
14290W        W73793  30.657  13.287   1.779
14291W        W73794  41.848  34.864   3.676
14292W        W73795  37.849   0.961   2.361
14293W        W73796  21.179  21.227  12.034
14294W        W73797  31.589  13.823   1.222
14295W        W73798  14.736  18.295  12.023
14296W        W73799  11.629   1.947  13.498
14297W        W73800  10.215  14.734  12.001
14298W        W73801  34.424  23.610  12.547
14299W        W73802  14.144  17.257   0.256
14300W        W73803  25.660  37.994   1.719
14301W        W73804  41.906  17.298   0.763
14302W        W73805  39.340  20.615   4.341
14303W        W73806   6.781   6.871  12.001
14304W        W73807  43.432  37.046   2.280
14305W        W73808   5.293  19.592   2.194
14306W        W73809   3.215   6.843  13.836
14307W        W73810  24.079  28.438  14.464
14308W        W73811  34.972  36.879   2.841
14309W        W73812  26.688  35.109   0.362
14310W        W73813  23.173  29.573   1.216
14311W        W73814  39.813  11.736   4.113
14312W        W73815   1.361  31.113   1.822
14313W        W73816   1.744  37.391  14.945
14314W        W73817  38.938  23.642   4.709
14315W        W73818  42.937  21.226  14.352
14316W        W73819  26.493  18.276  11.970
14317W        W73820  20.180   0.302   3.804
14318W        W73821  44.434  29.471   1.877
14319W        W73822   7.739  37.464  14.499
14320W        W73823  36.474  31.151   3.334
14321W        W73824  31.614  28.605  14.002
14322W        W73825  26.104  25.656   1.694
14323W        W73826  16.774  17.674  11.390
14324W        W73827  21.728  43.996   3.854
14325W        W73828  40.328  41.351   1.222
14326W        W73829  17.151   5.439   3.370
14327W        W73830  36.493  17.614   4.786
14328W        W73831   1.749  35.593  12.480
14329W        W73832   4.403  27.450   9.600
14330W        W73833  14.613  22.675   4.209
14331W        W73834  37.440  26.553  13.937
14332W        W73835  41.537  13.170   2.847
14333W        W73836  26.161  44.792   2.687
14334W        W73837  31.514  44.495   4.754
14335W        W73838   7.701  16.313   0.828
14336W        W73839   6.913  21.038  12.010
14337W        W73840   7.355  35.899   1.424
14338W        W73841   1.424  17.140   3.674
14339W        W73842  14.277  18.175   1.321
14340W        W73843  27.176  36.370  11.113
14341W        W73844  11.266  26.194  13.481
14342W        W73845   0.481  32.425  11.405
14343W        W73846  25.118  19.247   2.705
14344W        W73847  21.236  42.447  13.822
14345W        W73848  30.545  15.792  13.309
14346W        W73849  37.513  19.281  10.554
14347W        W73850   7.315  34.931  11.371
14348W        W73851   3.369  43.813  12.346
14349W        W73852   4.856  42.383  14.516
14350W        W73853  31.568   3.745  13.045
14351W        W73854  13.162  24.652  14.449
14352W        W73855  31.962  21.733   4.743
14353W        W73856  37.443  32.040  11.117
14354W        W73857  25.047  35.070  10.933
14355W        W73858   6.270   5.834   2.893
14356W        W73859  23.686  22.073   2.196
14357W        W73860  32.086  20.122   5.194
14358W        W73861  40.380   3.244  12.850
14359W        W73862   8.341  37.525  11.486
14360W        W73863  15.186  42.312   3.269
14361W        W73864  27.051   1.881   1.293
14362W        W73865   8.798   1.447  11.418
14363W        W73866  32.965   2.276   1.842
14364W        W73867  37.402  41.810   1.865
14365W        W73868   3.388  44.934   0.863
14366W        W73869  36.925   4.343   0.854
14367W        W73870  36.940  29.487   0.882
14368W        W73871  29.497  21.239   3.676
14369W        W73872   6.390  27.966   3.868
14370W        W73873  44.988  19.242  12.080
14371W        W73874  14.810  30.648   1.816
14372W        W73875  33.589  23.231  13.898
14373W        W73876  11.667  27.978   2.762
14374W        W73877  24.169  41.440  11.081
14375W        W73878  33.032  15.201   3.690
14376W        W73879  30.116  37.885  12.569
14377W        W73880  24.649  16.112   0.838
14378W        W73881  38.983  26.512  14.834
14379W        W73882   2.860  15.242  11.082
14380W        W73883  14.317  12.621  13.541
14381W        W73884  12.210  38.507   3.204
14382W        W73885  23.008  11.282  14.869
14383W        W73886  30.643   2.797  11.932
14384W        W73887   4.238  27.486   2.745
14385W        W73888   8.406  10.706  11.076
14386W        W73889  38.012  34.878   3.777
14387W        W73890  11.372   3.256  14.787
14388W        W73891   1.865   6.890  11.977
14389W        W73892  26.129  26.695   3.318
14390W        W73893  24.021  40.951  10.498
14391W        W73894  18.075  42.016   4.699
14392W        W73895   4.941   9.700  14.956
14393W        W73896  13.602  42.432  10.984
14394W        W73897  39.406   7.795  10.041
14395W        W73898  25.086   4.782  13.433
14396W        W73899  39.961  23.151  11.543
14397W        W73900  27.188  12.713   2.294
14398W        W73901  26.082   6.888   0.347
14399W        W73902  45.000   4.884  11.518
14400W        W73903  34.023  28.646   2.758
14401W        W73904   0.478  13.325  11.968
14402W        W73905  32.567   4.775   3.300
14403W        W73906   9.686   6.237  11.054
14404W        W73907  42.974  43.857  13.033
14405W        W73908   6.371  44.803  12.467
14406W        W73909  39.947  40.429   3.686
14407W        W73910  30.541  41.409   4.701
14408W        W73911   6.835   1.817  12.449
14409W        W73912  12.791  21.624  10.611
14410W        W73913  13.652  10.236   1.749
14411W        W73914  39.949  14.802   0.471
14412W        W73915  27.170  15.325  14.879
14413W        W73916  35.009   6.190  10.623
14414W        W73917  39.049  29.632   3.732
14415W        W73918  18.547  40.427   3.183
14416W        W73919  30.534  20.582  10.985
14417W        W73920  19.118  31.606   1.358
14418W        W73921  21.091  15.315   3.318
14419W        W73922  44.839  18.123   2.882
14420W        W73923   5.688  30.434  14.928
14421W        W73924  41.296  32.081   5.189
14422W        W73925  11.636  16.225  14.889
14423W        W73926  30.493  36.077  10.011
14424W        W73927  21.026   5.315   2.194
14425W        W73928  18.548  41.917  14.506
14426W        W73929  16.609  24.119   3.264
14427W        W73930  16.212  44.983   1.707
14428W        W73931  41.507  44.362  10.988
14429W        W73932   3.924   0.763  11.469
14430W        W73933  43.788   8.353  10.637
14431W        W73934  30.980  13.687   1.737
14432W        W73935  14.812  20.669  14.358
14433W        W73936  15.677  30.005   3.822
14434W        W73937   3.244  20.763  11.471
14435W        W73938  30.028  17.593   2.665
14436W        W73939  16.101  40.357   0.299
14437W        W73940  30.436  28.636   2.875
14438W        W73941  34.558  40.491  11.856
14439W        W73942  19.550  20.756   2.231
14440W        W73943  28.556  38.548   3.343
14441W        W73944  24.005  35.044   1.852
14442W        W73945  39.560  26.648   3.639
14443W        W73946  20.084  41.006   2.662
14444W        W73947  34.060  26.160   1.314
14445W        W73948   2.894   1.405   4.226
14446W        W73949  27.669   6.292   4.127
14447W        W73950  34.488  22.720  11.002
14448W        W73951  25.058  13.312   2.832
14449W        W73952  21.245  19.116  12.993
14450W        W73953  19.274  24.158  14.505
14451W        W73954  27.660  24.191  12.843
14452W        W73955  25.086  26.491   4.248
14453W        W73956  29.126  41.927   3.847
14454W        W73957  40.399  24.547   2.317
14455W        W73958  23.735   4.832  11.375
14456W        W73959  30.588  32.627   1.744
14457W        W73960  29.629  15.601  13.329
14458W        W73961  43.281   2.468  11.859
14459W        W73962  37.866  34.535   4.732
14460W        W73963  29.517  43.974  11.861
14461W        W73964  27.652   2.735  11.114
14462W        W73965  44.274  16.137  10.994
14463W        W73966  44.434  42.902   5.159
14464W        W73967  20.085  30.120   0.735
14465W        W73968   4.314   1.462   0.245
14466W        W73969  12.637   4.853   3.375
14467W        W73970  17.790  33.876   2.264
14468W        W73971  14.833  12.702   0.799
14469W        W73972   4.426  41.321  14.372
14470W        W73973  41.807  40.052   2.694
14471W        W73974   7.822   5.814   2.231
14472W        W73975  36.502  33.583  11.581
14473W        W73976  10.340  10.669   4.190
14474W        W73977  23.001  22.036   0.918
14475W        W73978  13.271  26.653  13.385
14476W        W73979  10.854  13.739  12.849
14477W        W73980  20.187  32.036   4.178
14478W        W73981   0.821  26.160   0.891
14479W        W73982  30.478  24.037   2.396
14480W        W73983  39.318  11.161  13.981
14481W        W73984  36.061  44.842  13.022
14482W        W73985  10.736  39.348   4.131
14483W        W73986  23.107  17.185   2.334
14484W        W73987  12.344  40.528  13.876
14485W        W73988  12.357  14.624   1.879
14486W        W73989  27.588  11.856  14.789
14487W        W73990  40.468  26.676  14.010
14488W        W73991  22.661  26.624  13.980
14489W        W73992  10.297  29.120  13.314
14490W        W73993  38.070   8.234   1.221
14491W        W73994  41.467  39.040   1.367
14492W        W73995  28.530  16.244   4.170
14493W        W73996  44.356  39.356   4.350
14494W        W73997  21.150  31.478   2.818
14495W        W73998  25.007  26.183  14.379
14496W        W73999  17.678  44.405   0.263
14497W        W74000   2.935  30.099  10.611
14498W        W74001  35.885  41.887   4.838
14499W        W74002  40.954  24.541  14.030
14500W        W74003  23.141   9.332   3.745
14501W        W74004  17.257  13.194   0.728
14502W        W74005  38.041  33.100   1.241
14503W        W74006   3.767   2.852  14.896
14504W        W74007  20.073  17.221  12.477
14505W        W74008  12.635   4.425  13.518
14506W        W74009  15.326  43.469  11.019
14507W        W74010  18.206  11.774  11.517
14508W        W74011  40.426  27.051  13.921
14509W        W74012  44.858   8.177   3.215
14510W        W74013   1.919  35.091   3.368
14511W        W74014  43.294  39.961  14.354
14512W        W74015  17.121  23.589  12.495
14513W        W74016  39.917  33.568  10.939
14514W        W74017  38.990  30.519  12.419
14515W        W74018   4.860   7.244  10.972
14516W        W74019  37.538  37.477  14.934
14517W        W74020  13.753  39.892  11.391
14518W        W74021  11.227  20.647   3.678
14519W        W74022   8.708  42.909   3.726
14520W        W74023  12.247   4.813   1.295
14521W        W74024   3.831   9.839  10.489
14522W        W74025  18.121  20.230  14.282
14523W        W74026  39.403  34.874  11.096
14524W        W74027  16.603  13.788  11.561
14525W        W74028   1.948  31.034  14.476
14526W        W74029  35.044  29.439  13.036
14527W        W74030  14.708  37.456  11.856
14528W        W74031   2.843  39.034  10.450
14529W        W74032  19.118  27.071   1.747
14530W        W74033   3.285  23.671  14.334
14531W        W74034   5.243   7.905  13.317
14532W        W74035  26.006   3.253   4.211
14533W        W74036  36.457  11.332  12.511
14534W        W74037  44.308   7.778   3.188
14535W        W74038   9.768  39.481  10.531
14536W        W74039  33.626  40.437   1.279
14537W        W74040  37.004  16.156  11.868
14538W        W74041   7.269  43.364   1.367
14539W        W74042  18.119   2.464  10.978
14540W        W74043  39.037   7.226   4.742
14541W        W74044   7.800  39.015  14.445
14542W        W74045  38.450  31.974   1.853
14543W        W74046  42.417  15.690  14.465
14544W        W74047  20.028   8.243  11.524
14545W        W74048  26.474  28.639  13.487
14546W        W74049   9.169  35.887   4.299
14547W        W74050  34.894  35.088   4.613
14548W        W74051  24.973  32.891   3.268
14549W        W74052  29.638  18.116  10.503
14550W        W74053  39.372  31.451  11.067
14551W        W74054   6.187   6.364  12.025
14552W        W74055   6.294   8.209  10.952
14553W        W74056  32.452  26.601  12.890
14554W        W74057  10.300  42.463   0.339
14555W        W74058   2.865  25.654   0.894
14556W        W74059  37.515  41.995   5.092
14557W        W74060  16.785   6.717  13.870
14558W        W74061  20.546  12.854   0.394
14559W        W74062   5.754  22.084   2.233
14560W        W74063   9.381  17.218   3.231
14561W        W74064  41.009  42.414   1.822
14562W        W74065  13.277  19.283  10.519
14563W        W74066  17.279  32.603   1.415
14564W        W74067   5.865  16.686  10.632
14565W        W74068   7.809   1.805   4.273
14566W        W74069   2.384   3.424  13.358
14567W        W74070  44.443  13.117   4.617
14568W        W74071  40.999  15.119  13.958
14569W        W74072  39.339  21.557   1.355
14570W        W74073  24.011  24.975   3.736
14571W        W74074   1.934   8.215   4.667
14572W        W74075  13.703  31.462   4.714
14573W        W74076   7.910  33.503   1.255
14574W        W74077   0.886  33.908   0.908
14575W        W74078  20.662   2.350  12.902
14576W        W74079  30.999  44.914   0.399
14577W        W74080  16.594  25.044   2.379
14578W        W74081  42.001  22.656  12.916
14579W        W74082  14.655   9.297  10.902
14580W        W74083   9.771  16.148   0.291
14581W        W74084  14.817  16.110   2.215
14582W        W74085  36.530  42.913   5.134
14583W        W74086   1.768   8.710   1.844
14584W        W74087  32.474   8.686  12.495
14585W        W74088  40.039   5.231  13.048
14586W        W74089  26.483  29.533   1.853
14587W        W74090  13.244  36.367  10.016
14588W        W74091  15.749  10.195   2.417
14589W        W74092  11.317  26.519   1.828
14590W        W74093  10.338  37.466  12.055
14591W        W74094  12.257  38.506   2.867
14592W        W74095   3.270  20.043  11.573
14593W        W74096  13.644  20.723  13.424
14594W        W74097   1.732  25.219   1.902
14595W        W74098   7.201  43.897  13.886
14596W        W74099  25.471  33.404   1.319
14597W        W74100  20.626   4.800  11.114
14598W        W74101   1.877  17.303  12.853
14599W        W74102  10.729  14.258   0.892
14600W        W74103  24.095  12.845   4.633
14601W        W74104  27.978  18.691   1.304
14602W        W74105  21.547   4.721   3.318
14603W        W74106  26.135   6.743   3.797
14604W        W74107   5.747  28.627   1.911
14605W        W74108  39.371  11.300  12.523
14606W        W74109  37.537  29.541   0.871
14607W        W74110  35.484  27.653  12.496
14608W        W74111  43.281  12.345   2.237
14609W        W74112  35.428  22.204   3.366
14610W        W74113   1.241  16.663   4.691
14611W        W74114  24.499   2.826   0.905
14612W        W74115  20.580  19.760  13.542
14613W        W74116  10.871  11.643  11.058
14614W        W74117  14.201  11.821   5.243
14615W        W74118  31.565  34.006   1.283
14616W        W74119   8.287  44.457   3.305
14617W        W74120  19.554  10.221   0.841
14618W        W74121  23.155  40.473   3.794
14619W        W74122  19.135   5.253   4.319
14620W        W74123  15.285  17.207  12.486
14621W        W74124   7.834  11.657  14.411
14622W        W74125  26.476   5.292  10.538
14623W        W74126  20.182  27.530  12.377
14624W        W74127   8.322   5.338  12.369
14625W        W74128  19.202  30.961  12.393
14626W        W74129  39.982  31.435  13.356
14627W        W74130  22.574  21.659   0.446
14628W        W74131  41.907  22.037   0.334
14629W        W74132  20.633   4.375  12.519
14630W        W74133  42.365  18.690   2.344
14631W        W74134  42.375  29.922  11.495
14632W        W74135  20.582   6.712   0.401
14633W        W74136  44.815  23.189  13.888
14634W        W74137   1.893  11.847  12.429
14635W        W74138  26.979  24.594   4.662
14636W        W74139  34.582  43.280   3.741
14637W        W74140  10.265   7.227   3.644
14638W        W74141  31.500  26.512  14.995
14639W        W74142   4.388   5.318   1.825
14640W        W74143  21.233  41.991   1.399
14641W        W74144  27.012  26.699  13.380
14642W        W74145  33.057  10.143  14.317
14643W        W74146  36.045  18.694   2.844
14644W        W74147  13.169  43.948  11.581
14645W        W74148  42.863  15.239   2.267
14646W        W74149  11.765  31.022  11.102
14647W        W74150  12.208   1.385  13.798
14648W        W74151  30.926  19.184  14.027
14649W        W74152  18.597   1.371   3.352
14650W        W74153  25.589  26.980  11.881
14651W        W74154   6.844  28.580   1.335
14652W        W74155  42.373  31.981  11.501
14653W        W74156  17.722  39.033   3.742
14654W        W74157  15.739   1.923   4.781
14655W        W74158  43.811  30.552   1.718
14656W        W74159   5.914   2.916  13.974
14657W        W74160  23.725   9.770   0.475
14658W        W74161  33.970  40.835   3.159
14659W        W74162   4.429  27.022  13.914
14660W        W74163  33.917  41.791  12.341
14661W        W74164  37.350  33.537  14.937
14662W        W74165   5.316  31.608   4.194
14663W        W74166  11.320  41.967   3.202
14664W        W74167  32.423   5.829   1.761
14665W        W74168  35.396   5.702   4.822
14666W        W74169  11.261  26.986   1.807
14667W        W74170  14.680  10.200  13.064
14668W        W74171   2.293  23.167  14.812
14669W        W74172  41.914  43.439   2.726
14670W        W74173  35.469  40.409  14.787
14671W        W74174   3.361  30.436  13.548
14672W        W74175  12.208  21.046   1.771
14673W        W74176  28.085  43.865  14.313
14674W        W74177  38.568   8.783  12.039
14675W        W74178  21.626   1.323  13.836
14676W        W74179  37.463   4.878  11.591
14677W        W74180   2.356  33.469  13.544
14678W        W74181  39.321  16.597   2.354
14679W        W74182  39.064  38.936  10.934
14680W        W74183  11.824  17.175   2.400
14681W        W74184  17.633  34.605   1.873
14682W        W74185  39.500   9.275   2.805
14683W        W74186   2.900  33.470  12.379
14684W        W74187  43.777  28.015  13.364
14685W        W74188  19.766   4.840   5.090
14686W        W74189  11.363  42.303   2.867
14687W        W74190  23.180   7.851   4.127
14688W        W74191  21.658   5.383  11.030
14689W        W74192  11.866   4.251  12.909
14690W        W74193  39.819  17.195  14.807
14691W        W74194  18.784   5.429  12.358
14692W        W74195  35.491  35.423   1.440
14693W        W74196  24.109  42.340   3.850
14694W        W74197  16.102  19.115  11.528
14695W        W74198  40.412  31.978  10.137
14696W        W74199  20.700   0.930   1.886
14697W        W74200  40.052   4.857   4.152
14698W        W74201  39.367  36.979   4.649
14699W        W74202  16.808  15.585   3.292
14700W        W74203  26.476  39.996  14.862
14701W        W74204   5.834   8.890  11.427
14702W        W74205   0.438  24.487  13.864
14703W        W74206  18.672  42.804  12.371
14704W        W74207  36.507  11.158   4.816
14705W        W74208  44.806   8.401   4.613
14706W        W74209  28.008  16.172  12.983
14707W        W74210  41.990   3.942   0.389
14708W        W74211  24.974  12.155  14.002
14709W        W74212  33.131  22.707   4.284
14710W        W74213  24.714  11.667   3.832
14711W        W74214   7.795  14.149   9.589
14712W        W74215   5.386  44.973   0.956
14713W        W74216  14.306  36.098   0.810
14714W        W74217  41.876   2.253   3.350
14715W        W74218  37.445  42.440  13.917
14716W        W74219  18.676   8.358   3.306
14717W        W74220  40.917   2.817   2.877
14718W        W74221  38.370  20.698   1.926
14719W        W74222  42.356  15.762   0.316
14720W        W74223  16.295   5.881  11.955
14721W        W74224  14.181   9.674   4.793
14722W        W74225  18.206   3.790  12.092
14723W        W74226   7.261  18.219   3.857
14724W        W74227  28.954   3.740  14.991
14725W        W74228   4.755   6.803  12.446
14726W        W74229   3.780  29.515   0.392
14727W        W74230  24.683  21.079  11.125
14728W        W74231  28.152  44.437  13.920
14729W        W74232  37.920  39.905  10.493
14730W        W74233  42.296  13.700  12.530
14731W        W74234  16.116  31.612   1.393
14732W        W74235  16.123  18.656   1.865
14733W        W74236   6.676   3.289  13.452
14734W        W74237   0.358  14.614   1.328
14735W        W74238   9.889  18.702  14.816
14736W        W74239  24.225  14.598  12.437
14737W        W74240  12.306   7.827  13.322
14738W        W74241   5.317  16.569  14.763
14739W        W74242  10.825  39.931  14.030
14740W        W74243  43.784   6.860   3.766
14741W        W74244   9.200  38.939   1.226
14742W        W74245  20.149  39.416  14.485
14743W        W74246  15.193  37.482  11.115
14744W        W74247  35.877  42.805  11.405
14745W        W74248  27.062  21.213  10.449
14746W        W74249   2.801  10.185  12.563
14747W        W74250  19.238  42.884  11.879
14748W        W74251  17.711   2.351  14.957
14749W        W74252  37.437  29.152   3.847
14750W        W74253  39.925   2.740   0.454
14751W        W74254   1.300  38.429  10.908
14752W        W74255  10.320  39.431  14.911
14753W        W74256  30.165   5.323  11.981
14754W        W74257   4.728  12.760   2.207
14755W        W74258  21.090  13.829   1.220
14756W        W74259  10.185  21.591   4.158
14757W        W74260  43.768  22.730  12.883
14758W        W74261  30.643  10.809   1.449
14759W        W74262  35.079  28.623   3.753
14760W        W74263   0.266  12.690   1.334
14761W        W74264  42.918  38.012   1.759
14762W        W74265   7.867  21.028   3.860
14763W        W74266  32.435  39.356  11.880
14764W        W74267  14.800  10.677   0.352
14765W        W74268  17.261  42.476  11.554
14766W        W74269  23.067  37.011  10.414
14767W        W74270  33.996  11.199  11.446
14768W        W74271  24.977  40.957   1.898
14769W        W74272   6.704  20.041  10.583
14770W        W74273  32.528  19.258  11.077
14771W        W74274  13.286  39.822   3.244
14772W        W74275  17.075   2.341  12.372
14773W        W74276  43.289   0.325   4.273
14774W        W74277  24.984   0.396  14.769
14775W        W74278  17.688  40.512  14.490
14776W        W74279  28.614  40.896   4.683
14777W        W74280   9.351  24.652  10.528
14778W        W74281   3.836  30.420  14.448
14779W        W74282  16.095   8.857   3.708
14780W        W74283  16.576  18.075   0.369
14781W        W74284  40.921  27.982  14.386
14782W        W74285   2.801  30.555  12.366
14783W        W74286   7.834  27.607  13.808
14784W        W74287  28.944  40.418   3.728
14785W        W74288  41.458  40.943  12.446
14786W        W74289  39.905  28.183   4.743
14787W        W74290  33.079   2.411   0.832
14788W        W74291   9.189  10.731   3.691
14789W        W74292  13.725  13.638   4.649
14790W        W74293   9.369  18.546  10.421
14791W        W74294  37.371  19.153   3.788
14792W        W74295   0.757   4.307   2.372
14793W        W74296  40.445  25.493  14.986
14794W        W74297   5.346   3.933   0.845
14795W        W74298   7.224  26.993   2.863
14796W        W74299  44.438  23.634  12.835
14797W        W74300  38.954  41.407  10.591
14798W        W74301  10.676   2.327  14.019
14799W        W74302  19.106  43.966   1.214
14800W        W74303  30.045   7.782  10.550
14801W        W74304  43.771  42.391  14.507
14802W        W74305  38.560  29.445   3.368
14803W        W74306   2.252  42.456   1.431
14804W        W74307   1.333  42.830  13.792
14805W        W74308  30.094  24.537   4.137
14806W        W74309  44.754  42.011   3.849
14807W        W74310  19.567  15.682  12.565
14808W        W74311   0.881  43.894   1.864
14809W        W74312   4.899  39.003   1.815
14810W        W74313  28.997  42.849  11.856
14811W        W74314  18.711   5.785   3.664
14812W        W74315  10.340  18.625  13.482
14813W        W74316  29.081  25.682   0.737
14814W        W74317  43.873  32.571  13.817
14815W        W74318  21.671  17.129  14.463
14816W        W74319  23.080   4.407  14.974
14817W        W74320   8.398  40.491   3.311
14818W        W74321  23.549   5.336   4.823
14819W        W74322  17.596  30.552   3.753
14820W        W74323   0.493  21.511  14.024
14821W        W74324  14.765   6.207  13.824
14822W        W74325  12.185  33.473  12.034
14823W        W74326   3.349  35.923  13.869
14824W        W74327  28.612   0.254   2.402
14825W        W74328  44.467  21.252  14.509
14826W        W74329  36.501  19.576   4.601
14827W        W74330  14.151   7.367   0.902
14828W        W74331  24.171  20.766  13.033
14829W        W74332   1.741  37.362   2.271
14830W        W74333  14.122  33.418   5.170
14831W        W74334  44.366  10.733   4.647
14832W        W74335  33.467  23.999   4.157
14833W        W74336  28.461  44.770  13.528
14834W        W74337  20.069  27.455   3.348
14835W        W74338   4.931   1.845  14.286
14836W        W74339  34.534  31.124  11.588
14837W        W74340  40.447  32.609   1.425
14838W        W74341  40.520   3.730  12.571
14839W        W74342   2.331  20.223   0.823
14840W        W74343  20.125  32.431  13.318
14841W        W74344  43.293  18.611  13.954
14842W        W74345  35.101   1.310   2.822
14843W        W74346  14.338   0.970   4.191
14844W        W74347  39.830  26.045   0.480
14845W        W74348  28.436  31.621   4.664
14846W        W74349  39.847  23.650   0.772
14847W        W74350   3.391  41.828  14.827
14848W        W74351  15.745  11.861   1.810
14849W        W74352  19.172   1.964   1.233
14850W        W74353   0.938  35.559  14.391
14851W        W74354  12.699  31.535  14.980
14852W        W74355  21.570  26.095   3.371
14853W        W74356  41.892  25.548   2.678
14854W        W74357   4.785  22.014  14.828
14855W        W74358   4.437  17.617   0.803
14856W        W74359  44.270  11.797   4.755
14857W        W74360   0.846  15.263   2.713
14858W        W74361  12.763  15.766   4.288
14859W        W74362   3.374   5.428  10.460
14860W        W74363  18.620  35.867   1.706
14861W        W74364  33.015  13.241  11.372
14862W        W74365   1.761  25.073  13.851
14863W        W74366   6.400  24.712   3.337
14864W        W74367  15.774  11.169  12.079
14865W        W74368  34.896  29.548  11.531
14866W        W74369  30.587  29.577  11.465
14867W        W74370  30.654  18.558   4.677
14868W        W74371  12.737  31.492   2.808
14869W        W74372   5.798  34.938   0.939
14870W        W74373   6.197  26.984   4.227
14871W        W74374   5.903  35.004   1.221
14872W        W74375  22.101  15.319   3.222
14873W        W74376  17.162   9.736  14.867
14874W        W74377  18.769  44.862  12.851
14875W        W74378  40.369  33.587   4.316
14876W        W74379  34.606  34.601   1.723
14877W        W74380   2.411  22.605  12.434
14878W        W74381   0.773   9.308  11.471
14879W        W74382  19.744   0.821   2.419
14880W        W74383   1.249  40.306   3.382
14881W        W74384  34.592  15.252   3.335
14882W        W74385   1.758   9.171  12.943
14883W        W74386  31.454  20.098  12.960
14884W        W74387   0.755  31.100  12.883
14885W        W74388  35.492  27.502  12.991
14886W        W74389  31.628  17.755  14.368
14887W        W74390  15.147  13.602   3.195
14888W        W74391  14.271   4.318   2.310
14889W        W74392  20.671  43.773   3.764
14890W        W74393  29.992  13.610   3.352
14891W        W74394  16.280  27.584  11.129
14892W        W74395  18.606  44.861  11.991
14893W        W74396  37.402  20.227  13.953
14894W        W74397   3.306  20.610  14.428
14895W        W74398  20.752  25.974   3.262
14896W        W74399   4.818  22.599   3.366
14897W        W74400  29.561   7.289  11.972
14898W        W74401  26.626  20.109   1.247
14899W        W74402  14.333  16.274  10.490
14900W        W74403  26.533   8.715   0.907
14901W        W74404  17.761  40.885  14.360
14902W        W74405  39.825  24.058   4.345
14903W        W74406  12.637   5.815   2.706
14904W        W74407  34.613  26.006   5.176
14905W        W74408  32.002  32.470   5.129
14906W        W74409   3.869   4.885   3.815
14907W        W74410   3.858  19.145   3.703
14908W        W74411   1.447  36.369  11.551
14909W        W74412  42.839   8.238  11.114
14910W        W74413  37.043  29.072   2.287
14911W        W74414   0.789  16.178  12.983
14912W        W74415  10.376  36.519   3.702
14913W        W74416  32.053  25.103   0.847
14914W        W74417  25.079  25.661  10.931
14915W        W74418  38.550   5.751  13.833
14916W        W74419  44.415   8.804   0.461
14917W        W74420  16.256  20.718   3.831
14918W        W74421  44.396   7.823   2.339
14919W        W74422   5.296  12.221  10.645
14920W        W74423  36.355  16.662   0.447
14921W        W74424  29.014  33.081   3.705
14922W        W74425   8.761  12.140  10.140
14923W        W74426  10.728  29.076  11.606
14924W        W74427  38.336  32.620  12.509
14925W        W74428   5.270  22.508   3.801
14926W        W74429  34.057   5.240  13.961
14927W        W74430  29.116  22.017  14.281
14928W        W74431  27.173  29.163   1.275
14929W        W74432  28.157  41.826   1.735
14930W        W74433  38.451  35.975   4.176
14931W        W74434   4.204  35.922  12.452
14932W        W74435   3.828  25.580   1.421
14933W        W74436   4.230  18.106  11.580
14934W        W74437  14.333  36.589  12.384
14935W        W74438  29.492  41.030  10.640
14936W        W74439   2.357  31.936   5.141
14937W        W74440   4.377   8.310   2.379
14938W        W74441  18.241   5.739   1.214
14939W        W74442  42.968  39.435  13.054
14940W        W74443  34.518  24.629   4.185
14941W        W74444   8.848  10.680   2.407
14942W        W74445   9.853  41.376  11.391
14943W        W74446  34.086   3.732   4.727
14944W        W74447  26.054  31.059   3.253
14945W        W74448  42.463  23.186   0.946
14946W        W74449   0.346  43.981  12.959
14947W        W74450  33.584  24.662   4.705
14948W        W74451  31.147   8.233   1.412
14949W        W74452  13.120  36.961   2.865
14950W        W74453  40.968  43.386  11.587
14951W        W74454  27.680  32.528  10.520
14952W        W74455  41.946  32.484  10.631
14953W        W74456  41.536  15.738   1.403
14954W        W74457  24.492  33.912  11.916
14955W        W74458  44.786  24.543   1.864
14956W        W74459  38.456   1.768   1.925
14957W        W74460  13.720   5.756   1.732
14958W        W74461  16.725   1.792   0.259
14959W        W74462  25.065   6.359   4.249
14960W        W74463   9.765   4.892  11.594
14961W        W74464   7.365   7.333   3.858
14962W        W74465  14.332  29.960  13.865
14963W        W74466  18.106   4.293  13.857
14964W        W74467  21.145   1.927  12.974
14965W        W74468  26.563  25.126  12.414
14966W        W74469  24.174  13.763   4.652
14967W        W74470  37.888  14.272   0.954
14968W        W74471  13.204  39.005   1.353
14969W        W74472  21.546  38.910   0.862
14970W        W74473  11.685  43.007   4.727
14971W        W74474  39.942   7.742   4.255
14972W        W74475  30.964   4.878  10.104
14973W        W74476   2.344  42.851  11.404
14974W        W74477  30.031  40.943  14.962
14975W        W74478  29.620   8.839  11.456
14976W        W74479  14.246  14.675   5.306
14977W        W74480  36.846  32.610  14.870
14978W        W74481  33.470  14.728   3.767
14979W        W74482  29.054  29.149   0.314
14980W        W74483  42.380  19.726  11.413
14981W        W74484  24.725  16.666   0.434
14982W        W74485  29.159  10.208   0.473
14983W        W74486  15.702   7.843  14.501
14984W        W74487  43.313   8.689  13.918
14985W        W74488   8.355   9.246   4.280
14986W        W74489  32.615  19.273   0.478
14987W        W74490  30.057  20.193   0.471
14988W        W74491  23.500  30.022  11.555
14989W        W74492  27.949  26.493  12.446
14990W        W74493  32.116  16.098   4.244
14991W        W74494   6.422  28.054  13.899
14992W        W74495  18.181  27.527   2.739
14993W        W74496  39.508  34.492  11.111
14994W        W74497  22.071  42.326  11.983
14995W        W74498  22.545  43.477   1.300
14996W        W74499  26.160  17.715  11.013
14997W        W74500  26.143  10.227   3.722
14998W        W74501  37.562  25.488   5.113
14999W        W74502   5.886  33.947  13.428
15000W        W74503   1.386   2.912   0.887
15001W        W74504  35.486  43.495   2.214
15002W        W74505  26.589   4.358   2.247
15003W        W74506  38.827   0.296   1.390
15004W        W74507  38.988  33.579   4.789
15005W        W74508  12.631  16.640   4.678
15006W        W74509   4.901  15.093  14.482
15007W        W74510  40.835  43.942  13.518
15008W        W74511  24.991   1.465   3.278
15009W        W74512  16.746  16.769  14.498
15010W        W74513  14.708  43.959  14.473
15011W        W74514  23.660   2.226  13.407
15012W        W74515  23.658  34.377   4.123
15013W        W74516   9.890  15.269   3.321
15014W        W74517  44.828  13.284   0.429
15015W        W74518   6.251  33.625   0.338
15016W        W74519   2.923  37.386  14.883
15017W        W74520   6.351  31.493   2.338
15018W        W74521  37.881  30.076   1.414
15019W        W74522  22.108  40.364   0.476
15020W        W74523  38.504  18.703  14.372
15021W        W74524  23.185  23.230   4.303
15022W        W74525  21.123  23.182   3.707
15023W        W74526  22.529  31.022   4.642
15024W        W74527  15.592   4.875  14.506
15025W        W74528  37.848  17.609  10.576
15026W        W74529   3.786  23.678   1.801
15027W        W74530   5.918  34.504   4.763
15028W        W74531  39.401  38.380  14.973
15029W        W74532   1.404  35.019   4.190
15030W        W74533  16.109  40.864   1.432
15031W        W74534  10.235  35.427   0.280
15032W        W74535  34.547  31.427  11.523
15033W        W74536  14.625  40.440  10.929
15034W        W74537  10.162  31.454   3.339
15035W        W74538   0.254  37.439  10.435
15036W        W74539  23.236  28.510  14.499
15037W        W74540  34.988   0.460   1.859
15038W        W74541  40.917  17.637  12.947
15039W        W74542  28.996  34.569   4.722
15040W        W74543  24.139   6.260  12.397
15041W        W74544  40.035  34.555  12.359
15042W        W74545  20.656  29.172  11.105
15043W        W74546   8.863  29.971  11.122
15044W        W74547  26.662  38.023   1.732
15045W        W74548   8.659  29.601  12.971
15046W        W74549   8.188  43.801  14.992
15047W        W74550  43.457  16.702  14.768
15048W        W74551  17.114  23.219   0.322
15049W        W74552  35.502  25.583   4.128
15050W        W74553  17.150  17.234   5.159
15051W        W74554  44.794  35.584  11.015
15052W        W74555  30.913  34.524   0.822
15053W        W74556   4.371  13.731   0.839
15054W        W74557   6.324  19.169  10.602
15055W        W74558  14.320  43.274  12.529
15056W        W74559  35.988  28.632   4.679
15057W        W74560  22.592  30.417   5.114
15058W        W74561  36.545  20.047   2.318
15059W        W74562  12.230   9.666   3.332
15060W        W74563  40.356  17.260   3.221
15061W        W74564  32.494  40.849  12.437
15062W        W74565  28.100  33.451  13.433
15063W        W74566  10.257  13.603   3.644
15064W        W74567   2.315  40.462   0.926
15065W        W74568  13.672  16.093  13.062
15066W        W74569  20.072  31.953  12.516
15067W        W74570  25.155  10.221  12.363
15068W        W74571  11.750  37.423  11.417
15069W        W74572   6.734  27.085   2.405
15070W        W74573  27.064  27.579   3.347
15071W        W74574  41.372  20.551  12.938
15072W        W74575   9.244  16.156  13.373
15073W        W74576   3.881  26.478   2.345
15074W        W74577  25.630  19.194   3.293
15075W        W74578  41.297  40.481  13.368
15076W        W74579  22.707  34.919  11.989
15077W        W74580  42.495   9.763  14.017
15078W        W74581  42.311  24.006   3.323
15079W        W74582  29.992   4.721  11.038
15080W        W74583  33.876  20.568   2.228
15081W        W74584  33.488   8.834  13.509
15082W        W74585  37.393  18.583   0.289
15083W        W74586  16.631   0.771   0.426
15084W        W74587  39.466  40.352   2.802
15085W        W74588  30.044  34.999   4.236
15086W        W74589   3.323  37.939  14.380
15087W        W74590  13.278   6.792   2.259
15088W        W74591   0.285  27.494  10.468
15089W        W74592  35.375  31.898  10.597
15090W        W74593  29.471  16.624  11.569
15091W        W74594  11.156  21.095   1.346
15092W        W74595  40.920  42.454   0.420
15093W        W74596   1.366  11.365   2.879
15094W        W74597  27.656  32.536   0.469
15095W        W74598  18.101  25.543   4.262
15096W        W74599  21.028  26.529   2.340
15097W        W74600   1.923  19.090   3.293
15098W        W74601  41.857  31.533   1.272
15099W        W74602  40.527  32.090  10.965
15100W        W74603  13.228  37.526  10.951
15101W        W74604  12.243  42.810   2.216
15102W        W74605  24.712  33.959  11.046
15103W        W74606  24.095  10.732  14.354
15104W        W74607   1.346  41.019  12.522
15105W        W74608  10.206  18.244  13.994
15106W        W74609   6.871  39.368   0.362
15107W        W74610  39.409  38.465   3.836
15108W        W74611  33.380  40.883  14.851
15109W        W74612  41.472   7.855  14.410
15110W        W74613  41.956  16.169   0.930
15111W        W74614   2.419   8.180   1.250
15112W        W74615  23.645  41.038   2.831
15113W        W74616  36.938  14.717   1.247
15114W        W74617   3.451  44.443   2.881
15115W        W74618   8.225  11.752  11.420
15116W        W74619  31.647   8.189  13.309
15117W        W74620   6.184   0.447   3.766
15118W        W74621  33.597  39.895  12.890
15119W        W74622  42.479  23.714  10.926
15120W        W74623  39.455  32.433   0.396
15121W        W74624   9.264  10.197   0.937
15122W        W74625  34.863   8.222   0.922
15123W        W74626  42.022   6.771   2.357
15124W        W74627  29.562   3.722  14.788
15125W        W74628  31.595  39.552   0.839
15126W        W74629  41.315  16.647  14.979
15127W        W74630  26.612  41.828  10.922
15128W        W74631  19.238  34.492   2.796
15129W        W74632  29.625  31.108   0.947
15130W        W74633   4.719  37.355   2.225
15131W        W74634  10.830  43.509   1.214
15132W        W74635  16.080  33.510   0.948
15133W        W74636   2.260  18.175   4.692
15134W        W74637   7.868  41.004  12.511
15135W        W74638  31.617  42.437   4.759
15136W        W74639  22.535  24.077  13.452
15137W        W74640  20.722   2.753  12.011
15138W        W74641  14.242  26.190  14.317
15139W        W74642   5.248  28.001  11.507
15140W        W74643  21.615  29.980  13.310
15141W        W74644  18.259   2.814   3.286
15142W        W74645  24.147   3.929   4.833
15143W        W74646   0.384  11.355  14.322
15144W        W74647   5.720  34.495   2.747
15145W        W74648  13.694  20.657   1.415
15146W        W74649  13.223   7.252  10.452
15147W        W74650  44.900  35.504   1.695
15148W        W74651  42.401   9.217  11.061
15149W        W74652   7.862  28.561  13.407
15150W        W74653  20.206  35.522   3.749
15151W        W74654   0.764  41.033   0.361
15152W        W74655  10.665  23.001  14.373
15153W        W74656  24.006  11.220  11.114
15154W        W74657   8.167  29.663   2.248
15155W        W74658  12.761  29.918   4.669
15156W        W74659   5.915  39.552  11.020
15157W        W74660  38.066  29.979  13.418
15158W        W74661  12.350  37.431  13.945
15159W        W74662   1.465  23.527   2.379
15160W        W74663  18.136  37.409  13.812
15161W        W74664   3.715  13.301   2.722
15162W        W74665  22.140  11.342   4.135
15163W        W74666  28.935   4.740   0.767
15164W        W74667  14.155   1.386  13.050
15165W        W74668  20.588  36.943   0.273
15166W        W74669  22.619  12.347   2.367
15167W        W74670   5.330  40.466   4.355
15168W        W74671  40.803  28.056   0.451
15169W        W74672  20.669  35.894  12.398
15170W        W74673  40.392  31.977  14.970
15171W        W74674  28.126  38.075  14.789
15172W        W74675  23.217  28.525   4.205
15173W        W74676   9.217   9.829   2.363
15174W        W74677  24.975  35.584   3.204
15175W        W74678  36.515   1.800  10.977
15176W        W74679  22.551  39.861  13.878
15177W        W74680  43.505  30.155  13.369
15178W        W74681  25.133  16.238  12.364
15179W        W74682  17.267  21.099  13.886
15180W        W74683  29.601  39.492   4.758
15181W        W74684  16.672   2.389  11.995
15182W        W74685  11.236   1.893  12.577
15183W        W74686   6.897  29.926   0.419
15184W        W74687  27.134  18.683   2.847
15185W        W74688  20.048  31.557   2.711
15186W        W74689  22.251  38.527   2.252
15187W        W74690  17.227  14.321   4.788
15188W        W74691  23.118   9.847   0.841
15189W        W74692   3.940  34.871   4.147
15190W        W74693  40.896  33.927  12.894
15191W        W74694  38.560  38.335   1.744
15192W        W74695  11.744  11.858   2.240
15193W        W74696  40.368  14.798   4.767
15194W        W74697  20.585  41.437   2.180
15195W        W74698  35.390  40.367   2.827
15196W        W74699   8.232   8.748   1.364
15197W        W74700  31.592  21.660   4.280
15198W        W74701  37.040  11.673   3.236
15199W        W74702  25.660  31.106  13.035
15200W        W74703   9.858  34.477  10.991
15201W        W74704  15.724  23.035   1.875
15202W        W74705  28.558  17.268  10.495
15203W        W74706  13.329  16.804   9.982
15204W        W74707  23.138  23.645  13.407
15205W        W74708  35.896  10.240   1.252
15206W        W74709  27.606  14.749   3.189
15207W        W74710   5.809  14.654   0.800
15208W        W74711  26.155  19.644  14.939
15209W        W74712   5.423  28.178   0.788
15210W        W74713   0.926   8.894  12.902
15211W        W74714  34.061  44.844  10.572
15212W        W74715  24.046   3.926   4.174
15213W        W74716  11.188  25.158   3.688
15214W        W74717  27.486  12.257  14.444
15215W        W74718   0.959  36.911  13.966
15216W        W74719  15.623  32.057   0.962
15217W        W74720  21.017  44.915  14.850
15218W        W74721  38.975  34.908   1.253
15219W        W74722  14.661   8.690   3.755
15220W        W74723   7.792  33.523   4.331
15221W        W74724  43.370   7.383   0.327
15222W        W74725   6.280  43.483   5.799
15223W        W74726  32.955  42.820  11.888
15224W        W74727  23.503  37.355  12.839
15225W        W74728  44.003  35.104  12.503
15226W        W74729   1.928  28.028  11.435
15227W        W74730  43.428  43.458   0.745
15228W        W74731  28.457  14.761   5.653
15229W        W74732   9.200  21.207  12.371
15230W        W74733  15.308  21.202   2.351
15231W        W74734  11.288  11.775  14.029
15232W        W74735  17.680  42.821   0.869
15233W        W74736  44.459   4.742   3.808
15234W        W74737  39.049  20.646  10.560
15235W        W74738  36.860  10.326  13.338
15236W        W74739  44.867   3.869   3.366
15237W        W74740  24.714  26.554   3.853
15238W        W74741  22.068  16.756   3.187
15239W        W74742  31.547  23.050  13.805
15240W        W74743  11.254  38.061  13.405
15241W        W74744  14.258  24.056  10.409
15242W        W74745  21.563  39.950   0.811
15243W        W74746  40.044  31.007   4.825
15244W        W74747  36.938   2.247   3.251
15245W        W74748  39.467  23.228   1.930
15246W        W74749   1.308  22.571   0.932
15247W        W74750   9.722   4.854   1.407
15248W        W74751   2.404  37.366  13.385
15249W        W74752  15.639  17.607   4.186
15250W        W74753  36.940   4.303  10.420
15251W        W74754  20.261  24.080  10.475
15252W        W74755  31.905  17.640   1.416
15253W        W74756  34.018   4.396   2.789
15254W        W74757  30.656   6.393   5.282
15255W        W74758  30.604  24.547   3.833
15256W        W74759  39.556  24.549  11.888
15257W        W74760  19.077   4.359   2.384
15258W        W74761  36.360  30.540  10.049
15259W        W74762   6.364   4.874  11.386
15260W        W74763  35.559  30.005  11.592
15261W        W74764  22.626  35.505   1.307
15262W        W74765  40.984  23.732  12.043
15263W        W74766  21.032   6.246   0.256
15264W        W74767  28.977  43.305  13.333
15265W        W74768  26.052   1.279  12.981
15266W        W74769  15.134  21.255  13.879
15267W        W74770   8.869   7.268   3.707
15268W        W74771   0.743  20.613  11.966
15269W        W74772  20.134  24.150   1.256
15270W        W74773   4.323  17.625   1.251
15271W        W74774   0.821  39.991   2.231
15272W        W74775  19.654  15.293   2.684
15273W        W74776  11.846  41.360   0.956
15274W        W74777   2.795  26.195  13.540
15275W        W74778  33.492   0.304  10.451
15276W        W74779   8.383  29.458  13.445
15277W        W74780   9.257  35.911   3.153
15278W        W74781  19.153  43.483  12.548
15279W        W74782  38.538   9.845  13.309
15280W        W74783  41.424  28.654   0.887
15281W        W74784  44.968  33.034   1.410
15282W        W74785   9.816  26.021   4.630
15283W        W74786  26.494  33.917   4.317
15284W        W74787  35.522  17.655  14.913
15285W        W74788  17.222  18.567  14.359
15286W        W74789  13.130  28.000  14.815
15287W        W74790  19.680  32.931   0.915
15288W        W74791  34.569  41.390   4.116
15289W        W74792  31.589  38.992  10.983
15290W        W74793  27.665  35.048  13.377
15291W        W74794   9.784  20.714   0.361
15292W        W74795  33.433   6.910  11.956
15293W        W74796  16.199  11.782   3.153
15294W        W74797  41.524  41.403   2.204
15295W        W74798  29.478  12.251   0.384
15296W        W74799  18.174  24.067   1.265
15297W        W74800  15.707   2.887  11.590
15298W        W74801  20.216  22.145  13.015
15299W        W74802   5.325  40.805   3.818
15300W        W74803   1.378  17.163  14.799
15301W        W74804  43.001  38.860  10.937
15302W        W74805  31.455  13.304  13.904
15303W        W74806  17.291   4.757   4.206
15304W        W74807   6.286  36.425  11.890
15305W        W74808  43.279   3.911  12.472
15306W        W74809  27.595  11.673   2.398
15307W        W74810   8.306   1.799  11.866
15308W        W74811  14.309   1.828   1.272
15309W        W74812  42.364  15.709  12.933
15310W        W74813  15.114  24.170  10.545
15311W        W74814  42.354  22.665   4.338
15312W        W74815  10.362  43.806   4.229
15313W        W74816  21.653  20.630   2.669
15314W        W74817  39.951  12.188  11.372
15315W        W74818  43.924  27.671   5.704
15316W        W74819   7.707   5.791   3.349
15317W        W74820  29.089  26.096   0.825
15318W        W74821  13.753  29.085  13.501
15319W        W74822   3.238  21.123   4.803
15320W        W74823  27.062  34.896  11.457
15321W        W74824  15.777  22.695  11.533
15322W        W74825  16.780  20.103  13.931
15323W        W74826  10.636  44.409  11.970
15324W        W74827  30.927   5.755   1.418
15325W        W74828   1.266   0.408  14.828
15326W        W74829   4.238   4.220  14.974
15327W        W74830  14.700   5.383  13.359
15328W        W74831  40.366  40.332  12.437
15329W        W74832  19.215  20.767   4.607
15330W        W74833  22.034  29.089   2.895
15331W        W74834  16.699  44.488  10.917
15332W        W74835  30.484  14.661  10.906
15333W        W74836  26.031  10.878   0.743
15334W        W74837  15.219  14.744  14.769
15335W        W74838  31.137  33.088  10.413
15336W        W74839  10.162  39.530  13.904
15337W        W74840   5.411  25.576   9.657
15338W        W74841  22.568  14.260  14.834
15339W        W74842   9.712  25.573   2.290
15340W        W74843   0.248   0.378  10.963
15341W        W74844   6.851   3.779   3.239
15342W        W74845   2.886  33.425   4.666
15343W        W74846  10.277  11.764   0.871
15344W        W74847  21.157  39.514  11.525
15345W        W74848  26.125  34.928  11.103
15346W        W74849  38.501  24.071  11.503
15347W        W74850  11.812   8.783  12.080
15348W        W74851  42.918  35.072   4.791
15349W        W74852   6.777  21.097  10.981
15350W        W74853  31.615  38.475   3.677
15351W        W74854  34.569  34.943   2.376
15352W        W74855  42.317  33.428   0.250
15353W        W74856  39.536   7.207  10.615
15354W        W74857  29.526  40.913   2.381
15355W        W74858  17.070  28.472   3.247
15356W        W74859  19.159  36.497  13.428
15357W        W74860  13.209   6.719  12.532
15358W        W74861  37.382  29.506   1.710
15359W        W74862   9.231   2.308   1.751
15360W        W74863  43.399  35.941  12.084
15361W        W74864   3.386  12.296  11.964
15362W        W74865  21.645  43.878   2.270
15363W        W74866   9.677  43.772  14.473
15364W        W74867  12.135  11.265  10.453
15365W        W74868  18.619  41.009   4.215
15366W        W74869  31.435  41.462   4.160
15367W        W74870  28.031   8.205  11.390
15368W        W74871  19.700   2.372  14.500
15369W        W74872  29.954  32.610   4.719
15370W        W74873  17.196  29.536  13.919
15371W        W74874  16.243  22.640  10.142
15372W        W74875  10.653  14.258   3.286
15373W        W74876  30.468  11.254  10.004
15374W        W74877  42.379  15.328   0.838
15375W        W74878  34.457  38.376   0.262
15376W        W74879  28.982  16.276   2.748
15377W        W74880   8.730  17.700   2.671
15378W        W74881  25.054  12.167   4.641
15379W        W74882  15.190   0.396   0.914
15380W        W74883  30.023  15.129   4.706
15381W        W74884  34.425  24.677   2.212
15382W        W74885  16.236  39.934  10.449
15383W        W74886  19.666  32.030  14.484
15384W        W74887  39.923  10.137  14.361
15385W        W74888  27.096  15.127   4.268
15386W        W74889  17.167  16.734  11.460
15387W        W74890  36.502   8.750  14.316
15388W        W74891  38.336  26.089  10.990
15389W        W74892  41.306  36.970  11.434
15390W        W74893  39.556  41.999  13.799
15391W        W74894  38.045  42.467   4.829
15392W        W74895  24.095  40.464   2.419
15393W        W74896  28.997  12.855  14.367
15394W        W74897   6.304  20.539  10.504
15395W        W74898  22.582  38.457   4.289
15396W        W74899  13.146   4.348  11.862
15397W        W74900   8.731  37.019   0.336
15398W        W74901   3.771   5.746   3.327
15399W        W74902  34.091  35.932   4.311
15400W        W74903  41.812   5.407  11.426
15401W        W74904  25.545  13.246  14.009
15402W        W74905  41.508  12.742   4.328
15403W        W74906   8.325  26.639  12.086
15404W        W74907  33.912   9.361   4.598
15405W        W74908  35.035  37.869   0.768
15406W        W74909  41.483  22.620   2.755
15407W        W74910   0.839  23.160   9.510
15408W        W74911   6.761  29.147  10.532
15409W        W74912  32.608  26.093  10.046
15410W        W74913  32.432  23.586   4.124
15411W        W74914   8.846  33.958   0.364
15412W        W74915  40.429  28.986  14.958
15413W        W74916  17.674  41.303  13.327
15414W        W74917  20.212  32.022  13.408
15415W        W74918  15.263  38.055  14.464
15416W        W74919   9.787  27.067   1.754
15417W        W74920  20.249  12.135   4.711
15418W        W74921   9.807  41.952   0.329
15419W        W74922  41.845  44.977  14.417
15420W        W74923  35.495   4.253   4.200
15421W        W74924  31.987  22.710   0.340
15422W        W74925  18.182  22.181   1.349
15423W        W74926  27.628  33.453   1.708
15424W        W74927  10.189   2.406   4.127
15425W        W74928  43.835  23.114  12.837
15426W        W74929   7.797  44.404   1.379
15427W        W74930  34.056  26.677   2.255
15428W        W74931  15.219  32.449   2.192
15429W        W74932   4.215  44.271  14.385
15430W        W74933   5.899  31.603   2.801
15431W        W74934   2.287  16.700   2.411
15432W        W74935   4.855  17.590   4.146
15433W        W74936  43.765  29.512   0.757
15434W        W74937  33.469  30.566  12.522
15435W        W74938  11.212  43.795  14.897
15436W        W74939  41.895   5.329   1.892
15437W        W74940  36.948   8.659  12.842
15438W        W74941  18.733  36.581  10.950
15439W        W74942  27.673  28.070  10.553
15440W        W74943  18.235  44.389   4.204
15441W        W74944  40.049  41.468   4.823
15442W        W74945   4.734  33.437   0.794
15443W        W74946  27.557  12.733   3.332
15444W        W74947  41.824  13.822  10.558
15445W        W74948  34.029  33.498  13.044
15446W        W74949  34.389  29.949  13.373
15447W        W74950  37.032  23.117   4.833
15448W        W74951  12.702  34.912  10.100
15449W        W74952  26.148   9.732   2.707
15450W        W74953  37.533  17.279  12.479
15451W        W74954  31.033   1.959   3.257
15452W        W74955  31.437  33.035   0.466
15453W        W74956  24.501   6.823  11.604
15454W        W74957  27.057   3.796   1.810
15455W        W74958   0.428  15.754  10.444
15456W        W74959   9.821  42.417   0.737
15457W        W74960   8.878  38.931   1.722
15458W        W74961   7.713  31.466  12.549
15459W        W74962  23.067  31.445  12.026
15460W        W74963  18.155  30.114   3.844
15461W        W74964  30.137  14.230   5.095
15462W        W74965  16.297  43.876   4.274
15463W        W74966  28.985  40.526   1.337
15464W        W74967  15.703  41.927   0.831
15465W        W74968  20.529   8.779  11.969
15466W        W74969  34.967  10.745  12.832
15467W        W74970  26.029   0.285  12.975
15468W        W74971  31.462  21.217   0.471
15469W        W74972   3.899  25.569  10.982
15470W        W74973  34.942  28.038   3.172
15471W        W74974  39.478   8.395   2.812
15472W        W74975  10.240  21.221  12.365
15473W        W74976  25.568  27.031   3.280
15474W        W74977   0.333   8.323   0.288
15475W        W74978  32.919  44.377  14.886
15476W        W74979  20.099   7.759   2.688
15477W        W74980  27.048  24.644   0.260
15478W        W74981  28.967   7.808  12.536
15479W        W74982  21.077  12.142   4.287
15480W        W74983  34.075   6.200  14.488
15481W        W74984  20.028  36.527   0.268
15482W        W74985  26.049  23.722   3.822
15483W        W74986  25.147  34.885   3.846
15484W        W74987  10.657  37.938  11.474
15485W        W74988   6.740  35.886   0.429
15486W        W74989  41.790  25.523  14.408
15487W        W74990  25.659  31.415  10.466
15488W        W74991  12.190  31.511   9.479
15489W        W74992  40.342  17.213   1.447
15490W        W74993  42.373  40.379   4.342
15491W        W74994  40.970   8.211   2.769
15492W        W74995  12.129  27.179  12.352
15493W        W74996  13.232   2.885   0.322
15494W        W74997  32.462  31.447  14.011
15495W        W74998  42.399   5.741   2.209
15496W        W74999  15.780  31.643  14.791
15497W        W75000  17.793  21.708  10.460
15498W        W75001  32.071  21.233  11.862
15499W        W75002  38.557  17.122   0.878
15500W        W75003  43.945  14.338   1.899
15501W        W75004   2.931   1.406   5.104
15502W        W75005  24.213  39.855  13.941
15503W        W75006  38.348  18.727  12.393
15504W        W75007   2.457  16.253   4.322
15505W        W75008  33.570  13.773  10.047
15506W        W75009  26.111  44.337  11.106
15507W        W75010  11.672   0.403   1.915
15508W        W75011  43.516  16.281  10.946
15509W        W75012  12.259  11.732  14.343
15510W        W75013  33.623   0.291  13.354
15511W        W75014   0.391  43.447  12.011
15512W        W75015  28.437  30.057  11.411
15513W        W75016   0.422  26.461  13.479
15514W        W75017  29.172  19.701  10.493
15515W        W75018   1.938  44.367   2.838
15516W        W75019  11.304  28.066   4.322
15517W        W75020   8.675   6.715   2.696
15518W        W75021  23.003  28.998  11.582
15519W        W75022  23.086   4.870  14.501
15520W        W75023   9.839  11.734  14.883
15521W        W75024   6.684  14.156  13.889
15522W        W75025   9.318  27.964  13.873
15523W        W75026   0.812  29.122  12.920
15524W        W75027  10.706  41.401  13.018
15525W        W75028   3.754   4.717   1.401
15526W        W75029   0.849  16.126   3.821
15527W        W75030  13.113  26.992  10.502
15528W        W75031  38.027  35.384  13.349
15529W        W75032   2.780  42.364  10.076
15530W        W75033  27.050   1.957  14.478
15531W        W75034  20.750   7.389  12.362
15532W        W75035  42.971  31.449   1.374
15533W        W75036   3.417  10.793   4.154
15534W        W75037  18.578  29.066   1.354
15535W        W75038  17.071  15.762  11.488
15536W        W75039  16.158   0.381  14.832
15537W        W75040  40.322  38.914   5.275
15538W        W75041  27.069  15.157   1.287
15539W        W75042  38.916   3.905   4.619
15540W        W75043  22.613  36.508  13.335
15541W        W75044  24.525  42.419   3.147
15542W        W75045  35.898  42.359  14.384
15543W        W75046  14.793  17.658  14.767
15544W        W75047  37.548   0.488  10.945
15545W        W75048  18.261  26.098   4.146
15546W        W75049   7.235  22.043  13.983
15547W        W75050  40.797  20.625   2.298
15548W        W75051  43.766  16.621  11.022
15549W        W75052  29.160  32.490   4.261
15550W        W75053  44.354  16.715   4.635
15551W        W75054  10.834  20.722   2.280
15552W        W75055   5.320   7.258   0.949
15553W        W75056  37.503   5.862  14.456
15554W        W75057   0.847  30.598  13.866
15555W        W75058  23.698  36.587   3.197
15556W        W75059  19.255   8.858   1.742
15557W        W75060  11.635  20.153   2.181
15558W        W75061   9.149   9.695  11.532
15559W        W75062   3.762  23.584   4.249
15560W        W75063  17.173   7.210   0.762
15561W        W75064  23.061  13.349  11.080
15562W        W75065  13.195  20.710   3.776
15563W        W75066   5.251  23.145   1.927
15564W        W75067   9.393  20.140  12.910
15565W        W75068  27.101   7.339   3.675
15566W        W75069   4.353  29.663  10.546
15567W        W75070  25.563   3.380   3.338
15568W        W75071   2.413   1.878   2.754
15569W        W75072  26.121  14.780   4.331
15570W        W75073  26.618  33.096  14.408
15571W        W75074  35.924  32.412   1.839
15572W        W75075  43.463  23.183   3.153
15573W        W75076  18.260  34.372  12.990
15574W        W75077   7.271  37.389  11.933
15575W        W75078  17.754   5.412  12.574
15576W        W75079  17.125   2.866  13.936
15577W        W75080  17.298  21.620  13.016
15578W        W75081  16.702  14.681   2.732
15579W        W75082  22.621  17.088   0.886
15580W        W75083  26.088  34.980  11.979
15581W        W75084  10.813  41.410   1.302
15582W        W75085  40.495  30.114   2.261
15583W        W75086   9.293  24.139  13.839
15584W        W75087   9.375   7.779  10.426
15585W        W75088  10.167  23.683  11.932
15586W        W75089  38.488  18.776   0.949
15587W        W75090  20.613  34.479   3.311
15588W        W75091  21.107   7.792   1.399
15589W        W75092   0.911  14.224   3.308
15590W        W75093  15.261   0.382  14.285
15591W        W75094   0.960  25.583  14.878
15592W        W75095  22.103  36.556   4.714
15593W        W75096   6.764   3.287   4.248
15594W        W75097   9.360  30.018  14.401
15595W        W75098  13.221  41.873   2.340
15596W        W75099  35.459   7.768  12.006
15597W        W75100  18.079  17.672   4.311
15598W        W75101  15.199  22.224  13.416
15599W        W75102   6.268  17.729   0.274
15600W        W75103  24.071  18.753  12.835
15601W        W75104  21.032  34.548   3.324
15602W        W75105  26.617  19.159   0.749
15603W        W75106  16.118  31.149   2.693
15604W        W75107  14.767  32.565  13.951
15605W        W75108   5.228  35.907  11.478
15606W        W75109  30.602  27.106  14.359
15607W        W75110  25.522   2.358  12.996
15608W        W75111   3.290  11.263   4.266
15609W        W75112  15.230   5.910  14.333
15610W        W75113  29.431  44.872   0.840
15611W        W75114   3.866  11.711   0.388
15612W        W75115  27.541  16.715   2.737
15613W        W75116  18.121  43.873   1.228
15614W        W75117  38.856  44.798  12.498
15615W        W75118  25.597  23.651   1.375
15616W        W75119  40.488  40.899  14.344
15617W        W75120  18.203  43.775   1.772
15618W        W75121  41.518  26.981  13.363
15619W        W75122  13.306  38.555   4.803
15620W        W75123  22.643  33.598   0.792
15621W        W75124   3.952  19.592  11.436
15622W        W75125   1.754  12.191  12.446
15623W        W75126  12.131  19.280   2.665
15624W        W75127  35.015  23.203  14.412
15625W        W75128   4.929  22.240  14.486
15626W        W75129  28.461   3.836   1.213
15627W        W75130  37.390  33.123  11.580
15628W        W75131  19.759  10.206  11.985
15629W        W75132  36.450   7.909  10.926
15630W        W75133  14.205  37.507   3.190
15631W        W75134   9.811  26.123   3.796
15632W        W75135  42.474   1.312   4.185
15633W        W75136  20.551   3.729   4.152
15634W        W75137  44.492  41.016   1.346
15635W        W75138  30.436  27.473   2.378
15636W        W75139  29.453   2.959   2.735
15637W        W75140   9.257  26.167   2.389
15638W        W75141  41.509  36.353   4.162
15639W        W75142   1.917  32.984   4.270
15640W        W75143   4.758  23.227   3.364
15641W        W75144  31.119  42.389  13.010
15642W        W75145   5.193  13.632   3.772
15643W        W75146  29.460   3.312  14.404
15644W        W75147  14.750  43.419  14.951
15645W        W75148  26.171  12.762  14.878
15646W        W75149  19.695  23.590  14.928
15647W        W75150  14.614  24.145   0.907
15648W        W75151   8.248  27.462   2.342
15649W        W75152  28.525  39.492   2.415
15650W        W75153  17.267  32.988  13.815
15651W        W75154   0.789  27.575  12.067
15652W        W75155  33.532  32.620  11.409
15653W        W75156   9.351  44.298  10.126
15654W        W75157  26.516   0.804  10.431
15655W        W75158   6.269  39.001  10.958
15656W        W75159  26.109  24.013   0.849
15657W        W75160  23.663  31.056  11.911
15658W        W75161  31.591  12.189   0.817
15659W        W75162  28.589  23.507   4.134
15660W        W75163  40.967   0.404  13.443
15661W        W75164   2.794  38.929  13.478
15662W        W75165   3.825  37.968  14.362
15663W        W75166  41.476   0.438   1.245
15664W        W75167  42.300  28.168   2.705
15665W        W75168   9.690  40.842   2.296
15666W        W75169  43.503   2.951  10.462
15667W        W75170   4.438   8.359   3.329
15668W        W75171  41.293  10.849   4.674
15669W        W75172   0.859  21.747   1.362
15670W        W75173  35.046  25.071  10.597
15671W        W75174  29.503  15.691   0.293
15672W        W75175  36.388  25.630   3.657
15673W        W75176   7.241  14.833  12.504
15674W        W75177   7.194  18.050   2.901
15675W        W75178  36.493  19.095   1.829
15676W        W75179  25.675  19.108   2.354
15677W        W75180  25.476   6.192   4.349
15678W        W75181   2.816   0.416   0.269
15679W        W75182   7.203  32.409   1.281
15680W        W75183  22.216  18.155  11.997
15681W        W75184  24.489  32.086   2.733
15682W        W75185  33.534   9.688   3.735
15683W        W75186  24.026  10.198   1.368
15684W        W75187  10.764  27.491   4.745
15685W        W75188  15.729  40.383   4.605
15686W        W75189  28.646  41.450   3.713
15687W        W75190  13.123  25.034  12.824
15688W        W75191  44.360  44.886   4.210
15689W        W75192  40.362  31.415  11.446
15690W        W75193  32.089  23.606  13.965
15691W        W75194  35.867  44.333   4.801
15692W        W75195   6.861  17.758  11.387
15693W        W75196   4.416  20.552  13.816
15694W        W75197  17.276  38.051  13.457
15695W        W75198  38.461  15.801  14.026
15696W        W75199  43.386  15.276  12.858
15697W        W75200  16.116  23.595  12.359
15698W        W75201   9.649   3.442  11.606
15699W        W75202  44.395  41.506   2.215
15700W        W75203  10.690   4.252   2.199
15701W        W75204  35.067  38.488  14.381
15702W        W75205   7.866  23.709  12.896
15703W        W75206  21.586  34.594  11.464
15704W        W75207   7.846   2.320  12.552
15705W        W75208  14.700  37.502  14.798
15706W        W75209  19.769  30.552   1.342
15707W        W75210  13.649  23.553  14.284
15708W        W75211  44.831  23.599  12.456
15709W        W75212  14.232  17.757   4.294
15710W        W75213   7.746  43.006   2.901
15711W        W75214  31.555  24.714   2.264
15712W        W75215  20.034  16.758  11.859
15713W        W75216  31.553  34.575  10.436
15714W        W75217  29.152  10.651  14.362
15715W        W75218  34.571  35.498   3.387
15716W        W75219  10.263  16.138   3.827
15717W        W75220  17.298  26.556  10.475
15718W        W75221   9.777  36.468  13.057
15719W        W75222  23.022   8.673   3.179
15720W        W75223   9.819  23.072  11.013
15721W        W75224  28.463  32.068   3.151
15722W        W75225  31.445  21.546   2.224
15723W        W75226  30.594  21.686  12.855
15724W        W75227  36.513  32.494  10.987
15725W        W75228   7.318  21.181   3.170
15726W        W75229  34.946  11.748  14.904
15727W        W75230  39.985  11.128   0.405
15728W        W75231  18.707  19.093   4.180
15729W        W75232   2.874  30.084  12.520
15730W        W75233   0.926   3.737  10.444
15731W        W75234  10.251  13.287   4.115
15732W        W75235  27.056  25.601   0.424
15733W        W75236  11.765  39.352   3.215
15734W        W75237  37.849  17.276  11.491
15735W        W75238  23.126  39.984   3.855
15736W        W75239  44.958  36.847  11.425
15737W        W75240  25.165  10.233   2.752
15738W        W75241   8.294  25.143  12.449
15739W        W75242  43.804  32.531  11.468
15740W        W75243  11.303  18.728   2.769
15741W        W75244   4.723  25.148  12.504
15742W        W75245   3.344   5.232   1.799
15743W        W75246  42.382  24.521  13.028
15744W        W75247  23.004  22.035  12.998
15745W        W75248  12.246  31.902   3.361
15746W        W75249  38.897  42.881  13.545
15747W        W75250   9.683  30.625   2.204
15748W        W75251  43.299  34.927  11.552
15749W        W75252  40.397  43.874   2.762
15750W        W75253  31.994  35.411  10.980
15751W        W75254  42.419  42.888  14.968
15752W        W75255  29.175  22.664   0.959
15753W        W75256  20.195  32.558  11.487
15754W        W75257   8.297   7.775  10.422
15755W        W75258  29.992  17.186   4.349
15756W        W75259  12.130  38.895   2.228
15757W        W75260  28.538  32.006   2.722
15758W        W75261  33.921   5.734  13.840
15759W        W75262  36.363  30.418  13.421
15760W        W75263  20.136  11.768   2.309
15761W        W75264   9.764  10.239  13.512
15762W        W75265  23.086  44.387   0.275
15763W        W75266  41.466  43.000   0.848
15764W        W75267   7.234  10.650  11.085
15765W        W75268  17.259   0.484  14.862
15766W        W75269   0.349  39.464   0.831
15767W        W75270  20.542  33.400  13.026
15768W        W75271  35.092   5.337   1.428
15769W        W75272   3.241  31.053   3.377
15770W        W75273   8.325  43.359  13.367
15771W        W75274  41.313   3.306   0.446
15772W        W75275   4.824  27.506  13.029
15773W        W75276  17.200  20.650   1.431
15774W        W75277  41.894   9.858  14.408
15775W        W75278  14.135  38.359  14.407
15776W        W75279  22.132  30.071  10.570
15777W        W75280   1.863  40.840   1.413
15778W        W75281  10.841   8.897  10.578
15779W        W75282  32.019  37.354  10.954
15780W        W75283  30.108  12.360  14.390
15781W        W75284   7.316  43.992   3.667
15782W        W75285  21.604  11.661  11.458
15783W        W75286   2.472   8.893   4.765
15784W        W75287  13.124   3.753   0.795
15785W        W75288  24.590  33.059   0.903
15786W        W75289  33.582  30.107   5.166
15787W        W75290  44.952   5.720  12.470
15788W        W75291   6.843  13.737   2.414
15789W        W75292  26.490  11.142  14.873
15790W        W75293   3.745  44.004   2.803
15791W        W75294  19.679  43.000  14.933
15792W        W75295  24.700  26.076   4.601
15793W        W75296  41.870  35.416   2.872
15794W        W75297   8.688  33.619   4.211
15795W        W75298  38.966  42.782   3.767
15796W        W75299  10.362  21.168  13.378
15797W        W75300  23.604   9.874   0.806
15798W        W75301  20.073  40.844   4.218
15799W        W75302   9.810   3.324   4.796
15800W        W75303  27.151  21.524   1.771
15801W        W75304  21.119  23.238  12.389
15802W        W75305   8.813  10.810  13.958
15803W        W75306  17.134   9.886  12.866
15804W        W75307  26.470  12.731  13.863
15805W        W75308  13.609  37.880   1.933
15806W        W75309  28.009  43.495  11.592
15807W        W75310  43.391   0.828  14.320
15808W        W75311  26.629  37.438   4.325
15809W        W75312  15.248  15.658   3.708
15810W        W75313  20.248  11.785   4.113
15811W        W75314   0.977  29.026   2.405
15812W        W75315   2.253   9.176  11.463
15813W        W75316  17.673  24.061   4.706
15814W        W75317   7.682  21.646   1.417
15815W        W75318   0.401  21.535  11.076
15816W        W75319   9.852  12.358   3.268
15817W        W75320  33.113   3.801  10.626
15818W        W75321   1.927  31.402   2.846
15819W        W75322  44.903  25.508  10.889
15820W        W75323  44.766  44.773  12.376
15821W        W75324  22.588  19.086  12.438
15822W        W75325  39.819  38.894  11.902
15823W        W75326   6.295   3.292  12.367
15824W        W75327  30.019  24.687  14.839
15825W        W75328  13.780  37.372  11.544
15826W        W75329   8.718  26.665  13.333
15827W        W75330  20.728   8.789   5.236
15828W        W75331  29.585  23.695  14.854
15829W        W75332  42.346   3.244  10.979
15830W        W75333  11.348  13.109  13.326
15831W        W75334   7.354  14.273  13.920
15832W        W75335  23.172  24.630   1.210
15833W        W75336  26.506  28.624  11.959
15834W        W75337   1.375  31.432   0.825
15835W        W75338  28.137  43.475  11.870
15836W        W75339  34.121   5.211  12.359
15837W        W75340   9.871  21.200  11.467
15838W        W75341   0.742  12.267   3.698
15839W        W75342  35.964  15.317  14.383
15840W        W75343   6.919   9.342   0.415
15841W        W75344  19.615  28.173  11.569
15842W        W75345  19.078  10.177   1.805
15843W        W75346  27.536  11.817  12.350
15844W        W75347  34.602   9.230  13.841
15845W        W75348   7.266  13.160   0.464
15846W        W75349  37.429  33.411   5.094
15847W        W75350  22.046  42.346   1.792
15848W        W75351  23.587  28.562  14.975
15849W        W75352  29.930  30.967  11.896
15850W        W75353   8.855   7.258  14.890
15851W        W75354  10.855   3.724   2.240
15852W        W75355  40.917  17.137  14.454
15853W        W75356  16.621  37.513   1.752
15854W        W75357  44.769  16.209  14.286
15855W        W75358  15.754  40.911  13.388
15856W        W75359  23.131  37.032   0.379
15857W        W75360  43.830  43.385  11.027
15858W        W75361  29.458   5.393  14.943
15859W        W75362  14.645  35.584   2.365
15860W        W75363  37.942  41.513   4.341
15861W        W75364  33.481  21.042   4.644
15862W        W75365   7.757  19.164   3.750
15863W        W75366  44.411   3.948   4.291
15864W        W75367  15.108  10.649   0.286
15865W        W75368  39.014  34.981   1.880
15866W        W75369  20.537  39.443  11.412
15867W        W75370  33.478   5.337   3.827
15868W        W75371  44.272  35.389   0.294
15869W        W75372  34.569  16.264   9.512
15870W        W75373  37.375   0.404  14.360
15871W        W75374   1.789   2.730  14.847
15872W        W75375  14.324  22.675   1.371
15873W        W75376  10.865   6.832  13.445
15874W        W75377   3.908  43.349  13.365
15875W        W75378  30.116  23.198   0.388
15876W        W75379  35.987  19.689   0.727
15877W        W75380   6.214  16.170  14.954
15878W        W75381  40.371  42.026  10.910
15879W        W75382  43.972  43.775   2.763
15880W        W75383  19.106  31.949  13.829
15881W        W75384  36.842   4.858  10.464
15882W        W75385  19.741  30.506   4.305
15883W        W75386  35.873  22.537  11.961
15884W        W75387   8.678  36.581  11.978
15885W        W75388  42.512  41.335   1.759
15886W        W75389  38.458  26.467   4.190
15887W        W75390  43.314  29.031   0.355
15888W        W75391   2.263   3.389   4.627
15889W        W75392  23.996  35.857   1.729
15890W        W75393  21.668   9.350  14.373
15891W        W75394  33.043  11.797  12.855
15892W        W75395  42.289  28.446  11.548
15893W        W75396  19.079  24.650  14.949
15894W        W75397  43.777  34.904   0.835
15895W        W75398  10.639  27.002   3.668
15896W        W75399   9.785  20.057   2.404
15897W        W75400  43.427  35.078   3.218
15898W        W75401  40.391  17.176  14.869
15899W        W75402  23.213  26.978   2.835
15900W        W75403  41.363  34.478  11.989
15901W        W75404  13.829   2.896  13.916
15902W        W75405  19.657  37.846   0.458
15903W        W75406  28.956   0.920  14.825
15904W        W75407  24.055  41.978   2.768
15905W        W75408  32.971  10.675  13.467
15906W        W75409  26.526  40.849  14.781
15907W        W75410  26.581  33.087   1.885
15908W        W75411   1.891  29.121   9.650
15909W        W75412   8.403  12.718   2.185
15910W        W75413   0.775  44.410  13.462
15911W        W75414  19.580  43.782  13.507
15912W        W75415  21.021  42.947  13.385
15913W        W75416  29.596  44.466  12.060
15914W        W75417  10.858  35.060   0.743
15915W        W75418  40.936  25.605  13.001
15916W        W75419  39.858   1.963   3.717
15917W        W75420  30.559   8.824   1.702
15918W        W75421  27.451   2.720   3.214
15919W        W75422  36.475  33.531  14.937
15920W        W75423  30.128   5.293  12.949
15921W        W75424   0.977  19.106  11.543
15922W        W75425  42.433  20.635  13.509
15923W        W75426  34.461  30.484  13.796
15924W        W75427  10.266  11.315  10.040
15925W        W75428  18.181  38.066   4.221
15926W        W75429  42.466  18.148  11.473
15927W        W75430  31.423  28.950  14.378
15928W        W75431  36.071  10.874   2.248
15929W        W75432  44.962  36.552  11.111
15930W        W75433  23.169  32.028   3.681
15931W        W75434  18.156  21.702  14.803
15932W        W75435  14.265  44.393  10.467
15933W        W75436  28.677  41.524  12.576
15934W        W75437  36.359  27.499   4.116
15935W        W75438  38.361   6.921  12.420
15936W        W75439  15.259  41.025  13.989
15937W        W75440  17.278  23.553   4.234
15938W        W75441  31.993  28.064  12.574
15939W        W75442  15.292  20.722   2.178
15940W        W75443  40.969   0.419  14.473
15941W        W75444  37.841  40.398  10.576
15942W        W75445  42.432   1.817  13.790
15943W        W75446   6.737  18.728   2.786
15944W        W75447  38.873   4.895  13.034
15945W        W75448  39.048  35.949   2.275
15946W        W75449  20.058  10.175  11.376
15947W        W75450   9.726  11.194   1.871
15948W        W75451  44.987  22.706  14.888
15949W        W75452   7.313  23.629   2.322
15950W        W75453   4.745  34.909   3.198
15951W        W75454  14.718  21.253   4.245
15952W        W75455  19.129  30.154  13.819
15953W        W75456   7.871  13.734   1.932
15954W        W75457  30.586  33.426  11.600
15955W        W75458   0.382  18.118   4.156
15956W        W75459  19.149  13.296   1.749
15957W        W75460   8.327  25.127   0.263
15958W        W75461  38.563  22.080  11.407
15959W        W75462  13.798  17.658  11.885
15960W        W75463  21.215  20.032   2.844
15961W        W75464  36.437  13.117  14.898
15962W        W75465   1.270  42.308  12.541
15963W        W75466  18.582   1.353  14.791
15964W        W75467   4.882   6.192   2.377
15965W        W75468  31.907  42.351  13.502
15966W        W75469   2.957  22.137   0.478
15967W        W75470  11.361  13.843   3.761
15968W        W75471   8.745  18.622   1.236
15969W        W75472  38.970   7.355  13.999
15970W        W75473  27.168  21.735  11.939
15971W        W75474  34.996   9.849   2.728
15972W        W75475  23.164  11.169  12.049
15973W        W75476   3.358  14.592  14.482
15974W        W75477   5.796  38.880  11.983
15975W        W75478   4.838  40.536  12.379
15976W        W75479  29.568  10.226   2.792
15977W        W75480  18.103   8.193   1.302
15978W        W75481  31.567   4.242  12.507
15979W        W75482  35.599  42.820  13.026
15980W        W75483   6.864  40.923  10.405
15981W        W75484  37.983   0.390   2.247
15982W        W75485   2.882  20.164   1.427
15983W        W75486  15.585   7.812  13.514
15984W        W75487  28.127   2.776   1.786
15985W        W75488  16.676  36.010  11.960
15986W        W75489  19.062  35.372   4.648
15987W        W75490  30.581   8.763   0.836
15988W        W75491   3.241  17.736   1.892
15989W        W75492  28.448   5.269  13.534
15990W        W75493  36.513  43.285  11.957
15991W        W75494  27.978  42.858  11.399
15992W        W75495  32.122  13.111  13.406
15993W        W75496   7.407  24.630  13.376
15994W        W75497  28.542  17.730  12.478
15995W        W75498  13.631  10.353   0.452
15996W        W75499  32.529  27.634  12.843
15997W        W75500   0.324  11.369   4.648
15998W        W75501   1.896  31.593  13.429
15999W        W75502   8.296  11.284   1.281
16000W        W75503  18.607  24.572  10.935
16001W        W75504  22.726  19.047   1.332
16002W        W75505  38.825  32.898   3.187
16003W        W75506  42.467  28.666  10.627
16004W        W75507   5.338  16.133  11.857
16005W        W75508  32.487  27.992  12.473
16006W        W75509  25.481  32.492  10.973
16007W        W75510  17.677  43.930  12.016
16008W        W75511  33.564  26.674   1.804
16009W        W75512  37.546   0.757   2.727
16010W        W75513  19.571  31.917   0.905
16011W        W75514   4.882  41.997   1.376
16012W        W75515  16.699  39.503  12.511
16013W        W75516  18.552  33.388  12.892
16014W        W75517  22.163  14.147  10.426
16015W        W75518  12.857  35.090   2.335
16016W        W75519  32.504  16.150  12.962
16017W        W75520  25.026   1.446   1.753
16018W        W75521  38.376   4.379   3.674
16019W        W75522  36.932   3.310  13.534
16020W        W75523  25.029  15.649  10.568
16021W        W75524  20.646  27.016  11.100
16022W        W75525  39.976  16.694  14.460
16023W        W75526  17.577  36.003   1.921
16024W        W75527  38.003  14.144  13.390
16025W        W75528  28.033  13.766   2.194
16026W        W75529  39.977  18.581  13.050
16027W        W75530   8.861  35.562  13.430
16028W        W75531  44.901  27.672   2.298
16029W        W75532  21.691  26.533   1.709
16030W        W75533  25.172  38.395   3.729
16031W        W75534  34.888  18.665   2.857
16032W        W75535  37.478   8.365  14.925
16033W        W75536  38.531   9.267   1.292
16034W        W75537  27.165  18.633   3.665
16035W        W75538   0.272   6.413  12.365
16036W        W75539  39.494  34.589  12.433
16037W        W75540  10.222  30.088  11.057
16038W        W75541  17.752  31.070  11.073
16039W        W75542   1.255   2.749  13.885
16040W        W75543  23.683   6.370   0.289
16041W        W75544  29.947  25.627   3.374
16042W        W75545  26.568   5.930   1.800
16043W        W75546  26.578  42.955   9.951
16044W        W75547   6.862   6.270   0.860
16045W        W75548  30.568  16.296  12.923
16046W        W75549  36.533  22.734  10.974
16047W        W75550   8.363  33.509   0.950
16048W        W75551   6.845  39.978   2.816
16049W        W75552  28.623  14.247   0.860
16050W        W75553  43.270  25.011   2.336
16051W        W75554  25.018  39.485   2.291
16052W        W75555  27.497   4.259  12.004
16053W        W75556   3.898   9.343  12.375
16054W        W75557  31.413  15.639  11.942
16055W        W75558  31.913  40.526  10.583
16056W        W75559   7.769  37.006  13.031
16057W        W75560  39.323   1.464  13.851
16058W        W75561  31.487   8.255  14.416
16059W        W75562  31.642  35.561  13.894
16060W        W75563  11.700  39.015  11.923
16061W        W75564  25.620  43.458   3.314
16062W        W75565  24.999  26.582   0.944
16063W        W75566  33.580  18.696   4.685
16064W        W75567  12.234  29.106  14.414
16065W        W75568  18.155  13.635   4.754
16066W        W75569  39.827  34.944   0.322
16067W        W75570  39.322  16.806   0.366
16068W        W75571  33.943   3.238   4.770
16069W        W75572   2.257  44.928   1.865
16070W        W75573  30.479   4.893  13.333
16071W        W75574  33.085   4.943   2.815
16072W        W75575  41.811  31.104  14.784
16073W        W75576  41.447  35.063  12.375
16074W        W75577   3.921  22.682  13.971
16075W        W75578  13.297  33.615   3.354
16076W        W75579   1.812   4.274  13.327
16077W        W75580  20.550  42.380  11.093
16078W        W75581  44.919  33.013  13.041
16079W        W75582  26.668  29.604   4.787
16080W        W75583  23.621  40.024  14.792
16081W        W75584   0.338  10.856  14.774
16082W        W75585  40.971  25.679  14.494
16083W        W75586  24.594  44.474   4.726
16084W        W75587   2.940  44.001  10.109
16085W        W75588   4.732  21.569  11.464
16086W        W75589  13.306  11.147   2.233
16087W        W75590  43.381  37.999  14.324
16088W        W75591  29.111   4.809  12.409
16089W        W75592   8.369  26.696  12.548
16090W        W75593  13.290  44.456  10.623
16091W        W75594  22.044   9.826   4.118
16092W        W75595  23.526   2.314   4.739
16093W        W75596  42.804  33.012  13.884
16094W        W75597  16.791   1.376  11.568
16095W        W75598  13.157  36.399   5.120
16096W        W75599  14.294   4.364  12.383
16097W        W75600   0.963  13.737   9.921
16098W        W75601   2.921  27.472  11.445
16099W        W75602  43.450  10.721   3.261
16100W        W75603   4.272  21.567  13.352
16101W        W75604  14.743  31.110   0.873
16102W        W75605  11.322  15.663   3.232
16103W        W75606  25.984  36.055  14.410
16104W        W75607  33.023  31.966   4.304
16105W        W75608  44.774  44.403  10.902
16106W        W75609   4.424  29.114  13.371
16107W        W75610   4.891  18.083   4.757
16108W        W75611  18.072  13.277   1.386
16109W        W75612  36.491   5.760   5.284
16110W        W75613  26.646  29.961   0.761
16111W        W75614   5.341  33.518  12.495
16112W        W75615  26.503  15.094  14.491
16113W        W75616   4.362  33.560   0.933
16114W        W75617   1.313  33.105   3.680
16115W        W75618  35.377  40.367  12.537
16116W        W75619  21.706  35.430  12.389
16117W        W75620  16.150  28.619  13.878
16118W        W75621  14.657  24.527  12.565
16119W        W75622   5.852  36.045  13.843
16120W        W75623  17.651   4.768   1.395
16121W        W75624  24.541  20.059   2.212
16122W        W75625   5.257  11.697  11.000
16123W        W75626   5.785  20.714  12.897
16124W        W75627  40.474  18.747   0.384
16125W        W75628  18.259   2.899   4.263
16126W        W75629  28.557  13.826   0.446
16127W        W75630   7.236   8.869   5.197
16128W        W75631  16.600  16.608   1.872
16129W        W75632  17.795  10.783   3.675
16130W        W75633  44.947   5.415  11.433
16131W        W75634  16.152  23.640   1.856
16132W        W75635   9.768  10.645   0.753
16133W        W75636  18.697  22.157   3.156
16134W        W75637  32.453   9.192   1.705
16135W        W75638  32.484   5.873  14.362
16136W        W75639  25.044  33.073   2.817
16137W        W75640  25.679  41.903   4.669
16138W        W75641  33.874  40.331   9.937
16139W        W75642  22.504  10.301  10.936
16140W        W75643  27.626  35.997  11.994
16141W        W75644   3.215  11.774   1.234
16142W        W75645  30.618  32.039  10.987
16143W        W75646  33.612  33.413   2.827
16144W        W75647  34.428  29.064   1.236
16145W        W75648  37.530  39.524  11.124
16146W        W75649  20.054   4.738   0.851
16147W        W75650  32.112  36.542  14.304
16148W        W75651  25.045  30.597  10.893
16149W        W75652  33.974  26.549   2.703
16150W        W75653  11.250   1.935  10.405
16151W        W75654  42.931  35.559   0.449
16152W        W75655  22.059   5.402   2.822
16153W        W75656  14.727  23.121  10.935
16154W        W75657  25.160   3.421   4.285
16155W        W75658   6.769  17.142   1.880
16156W        W75659  30.636  22.086   3.672
16157W        W75660  19.206  25.127   4.346
16158W        W75661  11.135   2.927   3.252
16159W        W75662  18.746  35.373  14.788
16160W        W75663  31.504  10.666   4.322
16161W        W75664  32.405  31.631  12.428
16162W        W75665   0.298   3.458   2.319
16163W        W75666  32.514   5.811   2.872
16164W        W75667  17.743  44.370  12.507
16165W        W75668  25.549  26.048  12.383
16166W        W75669  18.747  38.927  14.413
16167W        W75670  10.685  40.814  11.923
16168W        W75671  40.808  19.707   1.396
16169W        W75672  28.602  14.147   5.624
16170W        W75673  21.144  40.322   2.720
16171W        W75674   3.345  30.549  10.949
16172W        W75675  44.478  10.157   0.472
16173W        W75676  39.460   2.451   4.688
16174W        W75677  35.361  13.755  13.960
16175W        W75678  26.501  20.563   2.370
16176W        W75679  23.665  30.419   2.310
16177W        W75680  18.557  17.574   0.382
16178W        W75681   3.324  20.047   2.831
16179W        W75682  10.740  37.528   1.722
16180W        W75683  39.999  32.581  12.350
16181W        W75684  40.922  25.521   0.857
16182W        W75685  18.587   5.721  13.014
16183W        W75686  26.679  18.583  12.579
16184W        W75687  19.593  42.504   4.790
16185W        W75688  26.607  26.123  10.081
16186W        W75689   9.782  43.474   4.677
16187W        W75690   5.692  11.755  11.400
16188W        W75691  44.498  16.265   4.253
16189W        W75692  22.539  33.994  13.399
16190W        W75693   6.300  37.979   0.834
16191W        W75694   9.787  43.890  12.550
16192W        W75695   0.467   3.829   3.192
16193W        W75696  26.468  40.905   3.763
16194W        W75697  40.814  10.177  13.445
16195W        W75698  37.932  28.650   3.740
16196W        W75699  18.653  26.606   1.935
16197W        W75700  24.046   5.753   2.267
16198W        W75701  14.266  19.639  12.452
16199W        W75702   6.280  44.478   5.238
16200W        W75703  39.024  26.634  12.360
16201W        W75704   4.302  12.669   4.300
16202W        W75705  30.430  41.839   0.730
16203W        W75706  18.616  38.448  12.005
16204W        W75707  21.720  35.071   1.813
16205W        W75708  11.758  35.023  14.477
16206W        W75709  13.695  41.469  10.417
16207W        W75710   7.882  17.658   5.591
16208W        W75711   3.837  20.636   0.788
16209W        W75712  23.984   3.232   4.827
16210W        W75713  28.005  28.001   4.316
16211W        W75714   5.704  42.888  14.959
16212W        W75715  16.805  30.078   1.879
16213W        W75716  27.157   2.443  10.462
16214W        W75717  27.645  15.801   4.784
16215W        W75718   6.747  26.584  11.081
16216W        W75719  31.555   3.226  10.982
16217W        W75720   9.355  44.314  14.304
16218W        W75721  18.773  31.609   4.339
16219W        W75722  30.009   9.244  14.030
16220W        W75723  15.115  13.610  10.980
16221W        W75724  17.755  12.188   4.199
16222W        W75725  19.778  31.928  12.387
16223W        W75726  19.779  34.599   2.220
16224W        W75727  19.647  10.370  14.492
16225W        W75728   3.407  12.227   1.210
16226W        W75729  29.484  12.633  11.469
16227W        W75730  37.857  21.559   0.813
16228W        W75731  28.448  16.073   1.914
16229W        W75732   6.710  19.749  10.980
16230W        W75733  13.786  14.160   2.299
16231W        W75734  43.827  26.179  14.394
16232W        W75735  20.583  10.323  12.948
16233W        W75736  37.473  21.136   4.763
16234W        W75737  39.031  31.591   1.708
16235W        W75738  27.453   3.232  13.362
16236W        W75739  28.134  39.538   0.949
16237W        W75740  33.526   8.326   1.701
16238W        W75741  27.977  25.216   4.796
16239W        W75742  29.063   3.339  11.503
16240W        W75743  12.843  30.452  12.879
16241W        W75744  10.276   0.306   0.465
16242W        W75745  27.015  11.723  12.490
16243W        W75746  18.677   1.798   0.908
16244W        W75747  34.040  22.168  12.990
16245W        W75748  10.284  11.350   2.321
16246W        W75749  44.347  27.960  14.362
16247W        W75750  33.547  37.478   3.808
16248W        W75751  26.955  19.625   1.779
16249W        W75752  44.940  35.029   0.936
16250W        W75753  36.925  11.743   2.215
16251W        W75754  20.246  18.249  11.393
16252W        W75755  25.220   7.282  12.044
16253W        W75756  30.507  25.027  12.913
16254W        W75757  40.406   3.315  11.905
16255W        W75758  13.311   1.375  10.427
16256W        W75759  35.079  36.924   0.475
16257W        W75760  27.056  22.112  12.407
16258W        W75761  23.513   3.777  10.111
16259W        W75762  41.324  36.967   3.281
16260W        W75763   8.333   2.358   2.692
16261W        W75764  34.563  10.310   3.704
16262W        W75765  36.369  31.436   2.232
16263W        W75766  33.460  22.686   4.598
16264W        W75767  25.969   1.733   0.263
16265W        W75768  35.945  20.629   4.194
16266W        W75769   8.384  19.690   1.703
16267W        W75770  12.358  15.094  12.048
16268W        W75771  10.761  28.501  13.814
16269W        W75772  16.629   5.893   4.817
16270W        W75773  21.056  21.262   5.101
16271W        W75774  39.062   0.940  11.964
16272W        W75775  37.922  19.725  11.922
16273W        W75776   6.778  15.133   0.478
16274W        W75777   8.210   1.786   4.231
16275W        W75778   0.800  17.791   0.251
16276W        W75779   5.238  43.282   0.472
16277W        W75780  27.098  25.058   2.270
16278W        W75781  27.036  25.549  14.321
16279W        W75782  26.488  25.155  13.473
16280W        W75783   0.435  32.635  13.488
16281W        W75784  14.773  36.965   3.753
16282W        W75785  35.956  37.350  13.379
16283W        W75786  40.523  43.860  12.878
16284W        W75787  36.480  13.127  10.499
16285W        W75788  36.036  10.811  12.900
16286W        W75789  31.475  21.520  14.510
16287W        W75790  28.437  36.580   2.671
16288W        W75791  28.181  21.255   0.892
16289W        W75792  43.835   9.710   4.266
16290W        W75793  43.833  18.770  11.992
16291W        W75794  18.245   1.744   3.773
16292W        W75795  22.645  34.937   4.717
16293W        W75796   9.750  26.020  13.330
16294W        W75797  11.825  41.434  13.480
16295W        W75798  22.013  33.445  11.045
16296W        W75799  27.006  29.143  13.548
16297W        W75800  42.433  31.644  10.944
16298W        W75801  34.986  32.599   1.732
16299W        W75802   4.207   2.847   4.159
16300W        W75803  33.555  23.123   4.175
16301W        W75804  30.648  37.930   9.982
16302W        W75805   5.730  39.417  11.984
16303W        W75806   6.698  36.444   4.683
16304W        W75807  32.527  13.142  12.438
16305W        W75808  33.433  36.351  10.979
16306W        W75809   4.244  16.643   0.868
16307W        W75810  20.602  41.326  13.930
16308W        W75811  36.010   1.370   4.266
16309W        W75812   2.429  20.600  13.540
16310W        W75813  31.047  22.550  12.505
16311W        W75814  27.474  19.767   1.382
16312W        W75815   9.158  26.003  12.094
16313W        W75816  17.645  33.534   0.813
16314W        W75817   6.325  31.995  11.084
16315W        W75818   0.477   3.415   2.758
16316W        W75819  15.284  39.455  11.539
16317W        W75820   7.706  34.583  10.077
16318W        W75821  25.521   7.391  14.766
16319W        W75822  40.344  32.065  13.432
16320W        W75823  22.216  18.625  10.992
16321W        W75824   3.850   2.328  12.912
16322W        W75825   1.736  28.994   2.896
16323W        W75826  31.522  32.593   0.951
16324W        W75827  40.515  18.234   1.921
16325W        W75828  27.550   1.975   0.332
16326W        W75829  43.484  36.066   2.194
16327W        W75830   1.737  35.944  12.049
16328W        W75831  38.999   9.666   3.629
16329W        W75832  12.229  15.686   4.118
16330W        W75833  27.177   1.732   0.836
16331W        W75834   8.835   6.920   4.245
16332W        W75835  40.345  28.482  10.511
16333W        W75836  12.244  33.419   2.186
16334W        W75837   6.356  19.584  13.354
16335W        W75838   5.849  15.660   1.415
16336W        W75839  25.195  15.587   1.716
16337W        W75840  41.845  44.329   4.118
16338W        W75841  41.916  40.850  11.114
16339W        W75842   8.892  37.023   2.400
16340W        W75843  23.149  18.054  13.827
16341W        W75844  38.372  29.925   4.126
16342W        W75845  37.372  42.795   1.283
16343W        W75846   6.376   9.189   3.345
16344W        W75847  27.102  25.573   0.858
16345W        W75848   3.814  35.984   1.404
16346W        W75849   5.717  43.509   3.775
16347W        W75850  32.139  15.620  12.922
16348W        W75851  17.691   9.856  13.856
16349W        W75852  16.086  16.796  12.974
16350W        W75853  41.363  35.473  14.887
16351W        W75854  11.254  12.224   4.115
16352W        W75855  14.832  15.698   3.346
16353W        W75856  44.454  24.156  13.018
16354W        W75857  37.051   6.276   3.201
16355W        W75858  12.170   0.965   2.341
16356W        W75859  17.145  39.824  12.047
16357W        W75860  27.038   9.864   3.747
16358W        W75861  18.758   0.917   3.343
16359W        W75862  17.140   3.765   1.313
16360W        W75863   5.409  40.426  13.478
16361W        W75864   4.851  34.084  14.882
16362W        W75865  39.436  17.584  14.437
16363W        W75866   7.363  17.798  13.859
16364W        W75867  23.675  18.622  11.871
16365W        W75868   7.240  32.555  14.868
16366W        W75869  13.109  30.492  14.031
16367W        W75870  43.849  12.264   4.605
16368W        W75871  13.228  35.525  10.922
16369W        W75872  40.922  31.951   3.315
16370W        W75873  34.101  30.426   4.826
16371W        W75874  31.976  15.758  13.421
16372W        W75875  28.007  40.046   1.443
16373W        W75876  38.531   1.408  14.504
16374W        W75877   1.757  29.547  14.995
16375W        W75878   2.435   7.204   4.278
16376W        W75879  29.540  18.781  10.609
16377W        W75880  37.876  42.490  10.519
16378W        W75881   1.366  13.691   1.729
16379W        W75882  12.780  31.988  13.538
16380W        W75883  11.697  20.039  10.934
16381W        W75884   8.168  16.786  12.538
16382W        W75885  36.994  37.834  12.580
16383W        W75886  11.627  43.411  11.017
16384W        W75887  41.495  25.999  12.937
16385W        W75888   0.775  30.936   0.877
16386W        W75889  40.386  32.013   4.601
16387W        W75890   8.362  20.630  13.883
16388W        W75891   3.415  39.356   3.169
16389W        W75892  37.906   4.892  10.161
16390W        W75893  23.587   2.945  12.396
16391W        W75894  20.628   6.823  10.915
16392W        W75895  11.223  42.947   3.768
16393W        W75896   3.437  24.086   1.253
16394W        W75897  30.139  35.891  10.493
16395W        W75898   9.796  40.433  13.901
16396W        W75899  33.090  17.276   4.204
16397W        W75900  26.966   0.335   2.829
16398W        W75901  40.521  31.457  10.424
16399W        W75902  13.228  19.202   2.868
16400W        W75903  25.601  32.590   0.798
16401W        W75904  32.440  40.465   4.205
16402W        W75905  39.436  25.065   2.312
16403W        W75906  40.478  16.185  12.901
16404W        W75907  24.617  27.565   4.322
16405W        W75908  20.680  42.820  13.324
16406W        W75909   3.882  23.038  14.499
16407W        W75910  14.287  25.121   1.814
16408W        W75911   7.201  21.035   4.662
16409W        W75912  27.551  11.749  11.434
16410W        W75913   4.401   8.789   0.403
16411W        W75914  28.633  20.161  14.319
16412W        W75915  43.912  31.615   0.390
16413W        W75916  39.828  40.981  12.027
16414W        W75917  41.525  28.521   3.833
16415W        W75918  30.615   1.759   2.695
16416W        W75919  18.592  41.508   2.788
16417W        W75920  27.134   8.901  10.469
16418W        W75921  10.840  40.834  10.997
16419W        W75922   3.846  44.475  12.432
16420W        W75923  22.671  44.919   5.312
16421W        W75924  18.287  10.185  10.929
16422W        W75925  17.073  21.052   1.748
16423W        W75926  31.055  22.716  14.322
16424W        W75927   8.330  33.078   0.378
16425W        W75928  30.579  41.877  10.921
16426W        W75929  13.323   3.251  12.010
16427W        W75930   0.824  10.333   4.691
16428W        W75931  30.090  25.976  13.350
16429W        W75932  38.896   8.198   4.298
16430W        W75933   4.210  24.994  13.016
16431W        W75934  12.730  11.366  13.922
16432W        W75935  30.501  31.985   1.217
16433W        W75936  15.310  37.946   1.262
16434W        W75937  14.240  25.022   4.691
16435W        W75938  37.833  24.014   0.779
16436W        W75939   9.821   2.755  13.480
16437W        W75940   0.367  24.630   0.330
16438W        W75941  35.027  31.965   0.436
16439W        W75942   3.233  34.069   2.234
16440W        W75943  19.218  11.671  14.785
16441W        W75944  42.858  14.114   1.850
16442W        W75945  36.048  29.090   3.678
16443W        W75946  31.635   6.873  14.329
16444W        W75947  44.911  42.299  11.610
16445W        W75948  22.185   8.376   0.428
16446W        W75949  32.591  33.391  11.902
16447W        W75950  34.104  13.799   0.870
16448W        W75951  39.947   3.398  12.899
16449W        W75952   8.255  18.695   0.257
16450W        W75953   2.855  26.044   0.378
16451W        W75954  31.611  12.146  14.472
16452W        W75955  44.818  33.055   3.235
16453W        W75956  44.874  35.091   2.815
16454W        W75957  30.969  35.544   5.732
16455W        W75958   8.388  12.297   3.658
16456W        W75959  20.045   4.749  13.542
16457W        W75960   8.868  21.226   9.932
16458W        W75961  30.123   1.842   1.365
16459W        W75962   3.796  14.277  11.921
16460W        W75963  38.888  31.648   3.332
16461W        W75964  12.290  37.848   4.183
16462W        W75965   1.269  32.454  13.014
16463W        W75966   5.284  17.085  14.496
16464W        W75967  17.797   5.759  12.843
16465W        W75968  13.199  41.010  13.916
16466W        W75969  14.742  32.531   2.798
16467W        W75970   2.361  23.504  14.985
16468W        W75971  41.504  26.568   3.372
16469W        W75972  18.176  32.577  12.398
16470W        W75973  20.065  27.448  11.009
16471W        W75974  19.112   4.884   1.815
16472W        W75975   4.865  18.275   0.729
16473W        W75976   3.851  39.876   0.841
16474W        W75977  36.366  15.327   3.717
16475W        W75978  33.457  16.206   2.701
16476W        W75979  22.615   1.767   4.669
16477W        W75980  40.842   6.802   3.240
16478W        W75981  30.958  42.435   1.433
16479W        W75982  44.937  37.060  11.974
16480W        W75983  18.569  32.111  11.943
16481W        W75984  38.989  34.536  13.483
16482W        W75985  14.652   3.869   3.863
16483W        W75986  25.024  44.902   4.679
16484W        W75987  10.650  37.556   3.751
16485W        W75988  44.503  33.451   1.239
16486W        W75989   6.305   5.813   3.266
16487W        W75990  40.421  22.554  13.479
16488W        W75991  10.304  44.301   0.386
16489W        W75992  17.087  20.557   3.262
16490W        W75993   0.882  24.551  10.958
16491W        W75994  18.068  26.145  11.910
16492W        W75995  24.130  15.653  12.370
16493W        W75996  37.892  10.834  14.397
16494W        W75997  19.081  44.878  10.891
16495W        W75998  13.608  24.665   3.279
16496W        W75999   3.326  15.104   0.966
16497W        W76000  33.989  11.820   2.693
16498W        W76001   7.365  17.598   3.756
16499W        W76002  28.102  17.290   1.308
16500W        W76003  16.209  15.798  11.386
16501W        W76004   7.870  23.159  10.977
16502W        W76005  25.652   1.772  13.318
16503W        W76006   3.313  20.603   3.251
16504W        W76007   6.183  27.140  14.944
16505W        W76008   9.323  17.787   0.784
16506W        W76009  23.061   3.905   0.377
16507W        W76010  36.865  19.751  12.346
16508W        W76011  32.404  30.515   0.755
16509W        W76012  39.386  40.371  14.341
16510W        W76013  30.493  30.423   0.897
16511W        W76014  44.929  11.246  11.070
16512W        W76015  32.056  15.579  11.593
16513W        W76016  11.247  37.365  14.872
16514W        W76017   8.864   6.426  12.891
16515W        W76018   3.321  32.514   0.845
16516W        W76019  38.401   3.394  10.462
16517W        W76020   7.201  21.611  11.121
16518W        W76021  20.600   7.289   1.919
16519W        W76022  20.028  13.813   1.739
16520W        W76023   2.390  34.543   0.450
16521W        W76024  43.271  14.126  11.885
16522W        W76025  43.905   2.229   4.821
16523W        W76026  36.493  32.116  11.425
16524W        W76027  15.313  32.518  14.279
16525W        W76028  13.779  24.714   4.663
16526W        W76029  42.431  20.031   3.374
16527W        W76030   5.271  17.713   3.228
16528W        W76031   6.827   0.309   1.386
16529W        W76032   0.796  34.482   2.706
16530W        W76033   6.677  39.363   3.835
16531W        W76034  24.165  43.785  10.532
16532W        W76035  18.238  37.561   4.742
16533W        W76036  30.927  27.966   3.354
16534W        W76037  24.725  42.896  13.540
16535W        W76038  34.036  17.643   0.801
16536W        W76039   1.328   6.344  13.916
16537W        W76040  18.585  27.941  12.066
16538W        W76041  33.557  12.323  14.835
16539W        W76042  43.474  33.555  11.960
16540W        W76043  11.186  13.223   4.825
16541W        W76044   3.903   7.761  13.912
16542W        W76045  12.796  12.165  14.028
16543W        W76046  13.666  21.213  13.855
16544W        W76047  19.689  35.898   0.803
16545W        W76048  36.054  33.437  11.494
16546W        W76049  26.066   5.439  13.956
16547W        W76050  35.521  42.917   2.363
16548W        W76051  22.129  33.040   2.398
16549W        W76052  13.144  36.430   2.847
16550W        W76053  24.231  19.736  14.357
16551W        W76054  33.936   2.755   4.722
16552W        W76055  20.744  28.032  13.804
16553W        W76056  28.150   9.364   2.348
16554W        W76057   4.706  41.912   3.730
16555W        W76058  25.162  37.944  10.485
16556W        W76059  18.684  15.610   0.407
16557W        W76060   4.211  11.670   0.382
16558W        W76061  14.339  24.650   3.811
16559W        W76062  24.073  35.104  14.030
16560W        W76063  33.936  21.728   4.328
16561W        W76064  31.058  34.940  14.019
16562W        W76065  35.015  27.998  14.364
16563W        W76066   9.813  15.250   2.386
16564W        W76067   6.919  43.344   2.858
16565W        W76068   1.930  30.989  13.419
16566W        W76069  40.351   2.361   4.240
16567W        W76070  18.596  29.528  11.483
16568W        W76071  27.960  23.556  14.301
16569W        W76072   8.293  31.433  11.098
16570W        W76073  25.214  36.405  12.979
16571W        W76074  21.027   2.277  11.403
16572W        W76075  19.202  30.916   4.707
16573W        W76076   9.810  42.311  14.400
16574W        W76077  29.545  32.507   1.826
16575W        W76078  20.659  15.292   1.765
16576W        W76079  26.627  35.391   3.280
16577W        W76080  14.750   4.298   2.355
16578W        W76081  30.066  20.154   3.724
16579W        W76082   2.348   8.289  12.858
16580W        W76083  33.607  24.099  11.921
16581W        W76084  37.391  36.449   1.380
16582W        W76085   2.380   5.761   1.324
16583W        W76086  31.612  19.132   4.759
16584W        W76087  13.220  28.585   0.444
16585W        W76088  24.642  12.246   0.255
16586W        W76089  43.010  37.929   3.322
16587W        W76090  44.900  41.834  14.939
16588W        W76091  23.179  28.539  11.958
16589W        W76092  16.169  38.832  12.516
16590W        W76093   9.736   3.943  12.552
16591W        W76094  19.129  11.316   1.815
16592W        W76095  39.900  21.632  11.376
16593W        W76096   6.342  22.690   4.787
16594W        W76097  38.002   5.199  10.539
16595W        W76098  40.972  28.972   3.169
16596W        W76099  31.065   9.328  14.441
16597W        W76100  14.733  43.361   3.853
16598W        W76101  10.810  13.130  10.567
16599W        W76102  29.148  29.044   0.793
16600W        W76103  12.634  30.964  13.350
16601W        W76104  27.965  25.017   2.415
16602W        W76105  41.948  33.462  12.875
16603W        W76106  17.273  17.569  11.516
16604W        W76107   3.260  31.403  13.430
16605W        W76108  42.302  33.436  11.045
16606W        W76109   5.804   2.785   0.951
16607W        W76110   3.951  39.515  13.475
16608W        W76111  22.666  12.334  12.403
16609W        W76112   9.388  14.606   3.349
16610W        W76113  40.981  33.496   2.251
16611W        W76114  38.071  38.399   0.272
16612W        W76115  20.030  11.241   1.694
16613W        W76116  25.213  24.610   3.743
16614W        W76117   9.766  12.833   2.848
16615W        W76118  20.149  18.588   2.225
16616W        W76119  42.334   4.873   3.784
16617W        W76120  43.832  36.866   2.890
16618W        W76121   9.372  23.086   1.761
16619W        W76122  31.919  23.698  13.475
16620W        W76123  16.678  40.336   4.787
16621W        W76124  37.509  41.939  12.873
16622W        W76125   3.767   3.354   5.144
16623W        W76126  26.537  19.102   0.368
16624W        W76127  16.809   7.346   1.229
16625W        W76128  44.891   3.369  11.914
16626W        W76129  38.490  33.421  14.471
16627W        W76130  20.153  22.086   2.344
16628W        W76131  23.157  42.303   0.372
16629W        W76132  31.466  43.284  11.927
16630W        W76133   8.827   0.886  14.465
16631W        W76134  12.812  34.417  13.308
16632W        W76135  14.203   3.912  10.573
16633W        W76136   6.369  32.065   0.799
16634W        W76137  14.164   6.251  13.315
16635W        W76138  36.404  18.090   1.877
16636W        W76139  15.084  29.540  11.408
16637W        W76140   4.768  40.016   0.323
16638W        W76141  38.850  42.467   0.339
16639W        W76142   2.337  38.328   3.655
16640W        W76143  31.531  24.529  11.056
16641W        W76144  23.220   2.838  14.318
16642W        W76145   7.772  40.512  11.566
16643W        W76146  23.667  23.144   0.831
16644W        W76147  24.491  13.834   0.455
16645W        W76148  33.504  40.537  11.931
16646W        W76149  44.395  27.468   5.082
16647W        W76150  36.532  12.612   0.367
16648W        W76151  39.510  34.608  13.015
16649W        W76152  15.697  27.630  11.880
16650W        W76153  19.703  44.995   2.878
16651W        W76154  19.543   5.378  11.039
16652W        W76155  40.549  15.259  10.589
16653W        W76156  32.531  10.328   1.260
16654W        W76157  27.447  33.562   3.809
16655W        W76158  28.557  28.559  10.572
16656W        W76159  15.255  29.545  10.405
16657W        W76160   8.290  34.113  13.420
16658W        W76161  14.220  39.918  12.392
16659W        W76162  36.970  21.114  13.853
16660W        W76163   4.808  30.154   2.838
16661W        W76164  11.667  10.649  10.923
16662W        W76165  43.811  40.885   2.758
16663W        W76166  16.236  31.561   0.922
16664W        W76167  33.423  32.107  10.031
16665W        W76168  17.733  34.913   1.365
16666W        W76169  25.186  14.709  14.760
16667W        W76170  26.162  14.713   2.343
16668W        W76171  26.660   0.800  14.765
16669W        W76172  25.108   2.404   2.295
16670W        W76173   5.431  44.928   1.825
16671W        W76174  11.266  29.631  13.009
16672W        W76175  33.399  41.031   4.648
16673W        W76176  23.207  17.562  14.940
16674W        W76177  30.650  14.108   1.695
16675W        W76178  24.589  43.442   0.797
16676W        W76179  16.125   3.768   3.682
16677W        W76180  43.865  28.962  13.374
16678W        W76181  19.726   7.257   1.263
16679W        W76182  14.616  20.637   1.377
16680W        W76183  22.659  39.450  14.387
16681W        W76184  16.667  26.186  12.019
16682W        W76185  33.427  33.484   0.321
16683W        W76186  13.676  33.039   3.311
16684W        W76187  12.153  44.010  11.026
16685W        W76188  21.028  18.551   0.258
16686W        W76189  36.871   9.259  14.811
16687W        W76190  21.231  24.601   1.868
16688W        W76191   5.382  31.965   1.333
16689W        W76192  15.605   2.236  14.975
16690W        W76193  23.007   4.823   1.878
16691W        W76194  25.685  19.584   0.909
16692W        W76195  37.363  10.817  11.416
16693W        W76196  43.976  17.149  11.548
16694W        W76197  38.430  25.526  12.077
16695W        W76198  22.239  26.701  12.399
16696W        W76199   4.291  31.092  11.421
16697W        W76200  12.332  25.619   0.283
16698W        W76201  31.534  19.047  13.967
16699W        W76202  33.894  39.328  14.780
16700W        W76203   2.810  42.473   1.857
16701W        W76204  20.086  24.979   2.185
16702W        W76205  21.623  26.575  13.421
16703W        W76206  34.496  28.997  10.161
16704W        W76207  30.588  19.259  11.558
16705W        W76208  35.985  34.103   1.252
16706W        W76209  29.996  16.209   0.814
16707W        W76210  32.909  14.304   5.219
16708W        W76211  39.440   1.938  13.913
16709W        W76212  27.127  30.015   0.794
16710W        W76213  19.230  34.564  12.426
16711W        W76214   3.718  21.240  12.451
16712W        W76215  15.180   2.878  10.545
16713W        W76216  28.550  14.717  12.989
16714W        W76217  28.530  43.320   2.265
16715W        W76218   4.392  23.021   1.357
16716W        W76219   0.353  31.124   1.236
16717W        W76220  22.684  25.583  13.475
16718W        W76221  11.299  42.386   0.378
16719W        W76222  12.221  27.679   2.790
16720W        W76223  19.610  40.327   4.832
16721W        W76224  20.242  18.550  14.482
16722W        W76225  19.120   4.844   2.350
16723W        W76226  36.542  37.500   4.195
16724W        W76227  20.674  32.016   1.217
16725W        W76228   3.911  36.583   4.808
16726W        W76229  27.066  41.926   1.919
16727W        W76230  40.863   9.645  12.878
16728W        W76231  37.379  27.997   3.671
16729W        W76232  30.488  10.843  11.376
16730W        W76233  20.094  41.525   0.864
16731W        W76234  29.937   4.214   3.318
16732W        W76235  27.668   6.771   2.227
16733W        W76236  12.708  16.752   1.788
16734W        W76237  41.303   9.832   0.854
16735W        W76238  39.915  39.402  10.544
16736W        W76239  22.653  42.441  14.957
16737W        W76240  31.133   3.733   0.369
16738W        W76241  36.410   7.880   9.658
16739W        W76242  26.695  31.052   3.728
16740W        W76243  10.876   6.201   4.654
16741W        W76244  29.998  40.481   0.330
16742W        W76245  17.748  43.370   0.939
16743W        W76246  24.621  25.110  10.620
16744W        W76247  19.720  22.083   4.287
16745W        W76248   7.273  18.632  14.882
16746W        W76249   0.456  11.722  10.606
16747W        W76250  36.358  23.643   9.929
16748W        W76251  34.386  16.718   2.794
16749W        W76252  41.408   0.871   4.609
16750W        W76253  16.167  13.634  14.451
16751W        W76254  31.074  28.033   4.241
16752W        W76255  44.290  15.780  12.830
16753W        W76256  40.389  44.346  12.864
16754W        W76257  44.335  30.546  14.457
16755W        W76258  36.373  28.034  11.606
16756W        W76259  37.450  30.630  14.275
16757W        W76260  12.123   2.265   0.338
16758W        W76261  32.601  34.864  13.856
16759W        W76262  18.065  26.145   1.256
16760W        W76263  35.023  41.470   3.754
16761W        W76264  19.565  25.131   2.663
16762W        W76265  44.976  10.767  12.419
16763W        W76266  29.642  10.696   1.432
16764W        W76267   7.171  14.266   5.096
16765W        W76268   5.873  38.821  12.392
16766W        W76269  42.832  18.786   2.719
16767W        W76270  21.135  13.293   0.294
16768W        W76271  14.797   4.905  14.353
16769W        W76272  38.984   9.745  14.999
16770W        W76273   7.824  22.214   3.809
16771W        W76274  25.164   7.678   2.837
16772W        W76275  30.999  44.963  14.305
16773W        W76276  42.482  22.120  14.854
16774W        W76277  14.139  17.683  10.571
16775W        W76278  26.558  21.178  10.515
16776W        W76279   8.183   7.779  14.946
16777W        W76280  34.450  17.118  10.588
16778W        W76281   1.790   9.247  14.901
16779W        W76282  15.794  24.183   2.263
16780W        W76283   3.299  16.170  12.456
16781W        W76284   8.694   5.201  13.911
16782W        W76285  14.323  30.964   2.304
16783W        W76286  27.655  43.854   3.642
16784W        W76287  15.114  16.134  13.356
16785W        W76288  30.974   7.873  10.433
16786W        W76289  17.070  11.867  11.113
16787W        W76290  25.217  43.293  12.450
16788W        W76291  26.168  32.072  13.973
16789W        W76292   6.221  23.993   3.690
16790W        W76293  26.562  34.108   2.808
16791W        W76294  42.858   4.316   4.253
16792W        W76295  38.931  22.686   4.767
16793W        W76296  15.329  23.054  11.452
16794W        W76297  21.027   5.898  10.613
16795W        W76298  13.643  37.548   1.427
16796W        W76299   3.947   8.290   2.348
16797W        W76300  29.656  18.688  14.791
16798W        W76301  34.912  16.274  13.485
16799W        W76302  21.044  34.041   3.664
16800W        W76303  44.977  18.082  14.817
16801W        W76304  15.199  34.107  14.902
16802W        W76305  18.095  18.294   3.662
16803W        W76306  30.061  11.313  11.120
16804W        W76307  28.121  21.069   2.289
16805W        W76308  30.983  22.055  12.934
16806W        W76309  21.578  19.548  10.909
16807W        W76310  44.809  28.603  13.974
16808W        W76311  13.305   7.356  12.363
16809W        W76312  15.779  20.143  11.945
16810W        W76313  10.169  42.514  10.421
16811W        W76314  17.142  34.423   4.258
16812W        W76315  29.587  42.785  14.313
16813W        W76316  25.971  11.352   1.710
16814W        W76317  11.805  14.793  13.864
16815W        W76318  28.056   4.790  13.889
16816W        W76319  21.680  34.460  14.857
16817W        W76320  35.032  11.318   3.313
16818W        W76321  42.397  27.169   2.868
16819W        W76322   0.293   8.264   2.882
16820W        W76323   4.854  12.696  10.576
16821W        W76324  39.459  31.942  14.289
16822W        W76325  12.757  23.199   0.264
16823W        W76326   4.802  23.997  10.541
16824W        W76327  15.746  15.102  13.002
16825W        W76328  19.146  24.625   4.801
16826W        W76329  15.603   8.253  10.539
16827W        W76330  18.546  21.624   4.319
16828W        W76331  18.614  19.146  12.866
16829W        W76332  27.018  24.594   3.356
16830W        W76333  28.112  36.079   0.306
16831W        W76334   2.827  14.128  13.830
16832W        W76335  40.907  14.241  12.856
16833W        W76336  12.248  42.508  10.607
16834W        W76337  31.521  23.611  14.503
16835W        W76338  43.303   2.928  11.585
16836W        W76339  28.671  11.201  13.007
16837W        W76340  25.669  31.088  11.607
16838W        W76341  21.545  30.995   4.135
16839W        W76342   5.245  35.483  13.547
16840W        W76343  16.812   9.732   3.160
16841W        W76344   2.833   3.891   0.876
16842W        W76345   6.756  18.629   2.257
16843W        W76346   3.306  21.754  13.906
16844W        W76347  23.496  20.107   0.304
16845W        W76348   6.301  43.990  10.943
16846W        W76349  44.446  22.535   0.430
16847W        W76350  36.378  35.976   4.804
16848W        W76351  32.471  17.753  13.428
16849W        W76352  43.829  40.443  14.423
16850W        W76353  25.185   6.790  13.042
16851W        W76354   8.369  42.511   4.827
16852W        W76355   2.943  38.866   1.361
16853W        W76356  10.861  19.586   4.190
16854W        W76357  40.443  32.127  11.865
16855W        W76358   5.855   8.206   3.709
16856W        W76359  24.500  34.397  13.866
16857W        W76360  13.171  41.915  14.481
16858W        W76361  16.279  26.044   1.804
16859W        W76362  31.099  28.457   4.121
16860W        W76363  20.723  13.278   2.676
16861W        W76364  31.919  29.600  11.068
16862W        W76365  10.724  25.201   3.276
16863W        W76366  34.580  42.005   0.911
16864W        W76367   7.883   3.955  14.410
16865W        W76368  25.985   4.793   3.655
16866W        W76369   3.876  19.567  10.478
16867W        W76370  10.146  40.465   3.154
16868W        W76371   6.343  17.638  12.879
16869W        W76372  20.183  35.862  11.452
16870W        W76373  39.405  14.679   0.873
16871W        W76374  43.396  13.626   2.365
16872W        W76375   6.394  27.537   1.832
16873W        W76376  36.508  23.011   3.867
16874W        W76377  23.050   1.347   0.856
16875W        W76378   5.320  15.734  11.531
16876W        W76379  11.743   3.336  10.936
16877W        W76380   0.785  23.076  13.507
16878W        W76381  36.045  22.123  12.445
16879W        W76382   2.386  13.702  10.486
16880W        W76383  20.154  19.191  12.877
16881W        W76384  41.800   0.842   3.214
16882W        W76385  17.664  41.296  10.419
16883W        W76386  35.454  24.576  14.513
16884W        W76387  37.967  35.040  10.541
16885W        W76388  30.013  29.480   2.691
16886W        W76389  29.058  23.497  11.968
16887W        W76390  13.760  30.973   1.433
16888W        W76391  16.269  11.232   1.350
16889W        W76392  22.023   5.414  11.585
16890W        W76393  34.410  16.092  11.883
16891W        W76394  40.368  22.093  12.977
16892W        W76395  17.085   7.415  14.323
16893W        W76396  12.741  17.177   2.254
16894W        W76397  11.317  40.340  11.962
16895W        W76398  41.885  42.373   4.786
16896W        W76399  11.716  10.144  10.533
16897W        W76400   1.906  16.812  12.898
16898W        W76401   6.272  11.710   1.366
16899W        W76402  11.215  36.027  13.913
16900W        W76403  27.188  39.553  11.975
16901W        W76404   0.936  29.922   0.481
16902W        W76405   0.756   7.176   0.314
16903W        W76406  24.638  29.514   1.836
16904W        W76407  44.919  28.508  14.490
16905W        W76408  18.748   0.306  12.914
16906W        W76409  21.224  17.662   0.862
16907W        W76410   2.450  30.973  11.008
16908W        W76411  33.498  36.460   2.229
16909W        W76412  23.656  43.918   5.114
16910W        W76413  25.179  30.954   3.317
16911W        W76414  17.784   3.870   2.685
16912W        W76415   2.462  43.890  13.846
16913W        W76416  36.418  36.366  12.388
16914W        W76417  32.979  22.057  14.981
16915W        W76418  32.021  30.498  12.482
16916W        W76419  41.848  31.441   2.700
16917W        W76420   0.802  36.006  10.517
16918W        W76421  29.146  42.867  14.822
16919W        W76422  34.556  14.660   5.748
16920W        W76423   3.799  35.491   2.385
16921W        W76424  10.286   3.900   3.845
16922W        W76425  15.189  44.447   1.855
16923W        W76426  11.637  33.537  14.505
16924W        W76427   0.916  35.870  11.067
16925W        W76428  14.694  40.421   2.285
16926W        W76429  42.486   7.255   3.657
16927W        W76430  27.191   9.388   4.611
16928W        W76431  19.200  16.808   1.778
16929W        W76432  44.891  31.522   2.294
16930W        W76433  30.576  33.552   2.895
16931W        W76434  13.803  38.862   0.959
16932W        W76435  38.334   5.704  13.454
16933W        W76436  10.746  18.244  10.021
16934W        W76437  37.914  41.806   4.718
16935W        W76438  41.377  17.709   0.847
16936W        W76439   9.761  38.483   0.884
16937W        W76440   8.893  36.426   2.405
16938W        W76441   0.320  31.615   0.440
16939W        W76442  36.400  35.429  13.319
16940W        W76443   8.859  40.422  14.297
16941W        W76444  20.159  34.405  14.812
16942W        W76445  32.925   6.788   4.287
16943W        W76446   7.253  28.470   3.241
16944W        W76447  31.589  30.041   4.729
16945W        W76448  26.078  43.285   4.228
16946W        W76449  34.598  36.976   4.236
16947W        W76450  21.061  33.977   0.907
16948W        W76451  27.080  17.759   1.334
16949W        W76452  43.329  38.445   3.273
16950W        W76453   2.850  19.096  13.535
16951W        W76454  44.790  31.079   3.690
16952W        W76455  11.140  26.100  14.759
16953W        W76456  14.629  41.382   0.256
16954W        W76457  23.022   8.244   1.225
16955W        W76458  20.711   3.738  10.020
16956W        W76459  19.133  40.445  14.870
16957W        W76460   5.911  34.953  10.461
16958W        W76461  23.542  28.154   0.270
16959W        W76462  24.212  37.959  13.385
16960W        W76463   1.961  21.675  14.972
16961W        W76464  24.705  28.669   0.890
16962W        W76465   5.235  16.181  12.529
16963W        W76466  30.438   4.281  11.579
16964W        W76467   6.762   7.682  10.583
16965W        W76468  16.799   3.792  12.034
16966W        W76469  26.511  13.120  13.481
16967W        W76470  37.402  13.333  10.961
16968W        W76471  30.657  13.796   1.928
16969W        W76472  10.659   8.778  12.935
16970W        W76473  43.961  35.426   4.599
16971W        W76474  35.381  30.044   3.866
16972W        W76475  44.862  12.314  13.395
16973W        W76476  22.540  43.917  11.608
16974W        W76477  14.591  33.520   3.317
16975W        W76478   7.822  20.079   2.847
16976W        W76479  17.566  43.441  11.104
16977W        W76480  18.691  31.041  12.417
16978W        W76481   4.915  21.545  13.837
16979W        W76482  23.078  42.862   2.684
16980W        W76483  34.001  17.704  12.840
16981W        W76484  27.137  22.713   1.910
16982W        W76485  42.027  26.652   2.284
16983W        W76486  40.538  20.044   0.773
16984W        W76487  28.008  38.540  13.946
16985W        W76488  37.960  21.050   2.418
16986W        W76489  40.953   9.856   3.719
16987W        W76490  28.054  20.074  14.861
16988W        W76491  15.099  39.390   2.235
16989W        W76492  20.709  27.945  13.364
16990W        W76493   1.745   7.408  11.553
16991W        W76494  25.161  24.195   2.680
16992W        W76495  10.320  19.591  10.093
16993W        W76496  23.038  18.093  11.598
16994W        W76497  22.713   9.309  12.442
16995W        W76498  25.009   5.238   4.335
16996W        W76499  31.455  38.569  10.059
16997W        W76500  20.591   6.845  14.409
16998W        W76501   7.375  27.943  14.475
16999W        W76502  42.470  20.150   5.211
17000W        W76503  14.225  39.892   2.901
17001W        W76504   5.314  42.370  10.417
17002W        W76505  26.505  20.638   4.235
17003W        W76506  37.905  12.751  11.921
17004W        W76507  12.169  33.472   4.131
17005W        W76508  16.686  37.854   0.728
17006W        W76509   5.934  43.275  13.496
17007W        W76510  24.114  25.628   2.874
17008W        W76511  20.124  24.503  12.995
17009W        W76512  42.514  39.930  11.045
17010W        W76513   2.777  44.311  10.453
17011W        W76514   9.668  20.725   4.723
17012W        W76515  27.158  38.515   1.289
17013W        W76516   6.739  39.953   3.734
17014W        W76517  31.951   1.454   0.874
17015W        W76518   3.806  19.277   1.884
17016W        W76519  15.309  16.242   0.364
17017W        W76520  44.455  34.473  10.559
17018W        W76521  12.234  12.741   1.886
17019W        W76522  31.943  44.327  13.050
17020W        W76523   0.323  13.661  14.842
17021W        W76524  35.360   5.721  11.031
17022W        W76525  13.732  11.234   2.370
17023W        W76526   5.737  20.736  13.417
17024W        W76527  24.034  15.731  10.905
17025W        W76528  10.319  38.016  11.574
17026W        W76529  17.773  30.479   4.223
17027W        W76530  21.678  19.536   3.717
17028W        W76531  33.383  12.685   1.348
17029W        W76532   7.801  31.051   0.760
17030W        W76533  15.109   7.711  14.820
17031W        W76534  19.264  40.939   0.863
17032W        W76535  12.795  33.488   1.841
17033W        W76536   8.694  10.296  14.794
17034W        W76537   4.909  19.674   5.110
17035W        W76538  34.095  10.803  13.922
17036W        W76539  30.968  38.062  12.524
17037W        W76540  35.602   6.332  12.926
17038W        W76541  12.752  26.673   4.290
17039W        W76542  35.997  18.060  10.425
17040W        W76543   9.748  42.008  10.550
17041W        W76544   5.895  11.370  10.612
17042W        W76545  27.599  14.255   0.477
17043W        W76546  43.930  18.191  13.497
17044W        W76547   8.180  42.445  11.405
17045W        W76548  42.963  13.114   4.291
17046W        W76549  20.196   4.370  10.608
17047W        W76550  11.214  27.985   2.338
17048W        W76551  29.065   3.775   3.748
17049W        W76552  31.132  26.521   2.773
17050W        W76553  43.467  39.414  10.952
17051W        W76554  20.621   6.308   0.368
17052W        W76555  43.327  36.061   0.369
17053W        W76556  43.398   4.203   3.729
17054W        W76557  34.976  23.503  11.383
17055W        W76558   0.841  12.703   1.915
17056W        W76559  14.280  11.167   2.777
17057W        W76560   8.355  29.972  14.284
17058W        W76561  25.054  28.446  11.921
17059W        W76562   0.834  20.749  13.356
17060W        W76563   3.766  44.803  14.510
17061W        W76564   1.811   5.751  10.465
17062W        W76565  21.223  27.043   0.425
17063W        W76566  42.815   0.947  12.548
17064W        W76567  41.522  13.692  14.510
17065W        W76568  13.766   9.684   4.229
17066W        W76569  36.421  44.824   3.848
17067W        W76570  23.661   6.229  14.885
17068W        W76571  25.037  44.360  11.506
17069W        W76572  10.377   2.343   5.127
17070W        W76573   6.754  19.140   1.892
17071W        W76574  25.501  37.883   1.375
17072W        W76575  12.742  29.067  14.812
17073W        W76576  14.214   6.400  14.018
17074W        W76577   7.357  30.592  11.013
17075W        W76578   9.197  28.067   1.402
17076W        W76579  28.535  29.434   0.908
17077W        W76580   8.842  43.814  11.537
17078W        W76581  11.801  22.666  12.578
17079W        W76582  17.648   0.323  11.528
17080W        W76583  39.056  25.071   2.812
17081W        W76584  14.714  14.185  11.382
17082W        W76585   7.667  23.228   3.716
17083W        W76586   1.244  28.163   0.337
17084W        W76587  14.220   9.800  13.490
17085W        W76588  19.065   1.259   3.857
17086W        W76589   9.282   9.337  13.910
17087W        W76590  10.179  29.080   3.831
17088W        W76591   5.244   1.254  14.463
17089W        W76592  32.997  42.988   0.904
17090W        W76593  18.748  21.122  10.945
17091W        W76594  20.715  11.812   4.221
17092W        W76595  41.301  18.662   1.927
17093W        W76596  17.664  23.606   3.278
17094W        W76597   1.960  17.616  11.083
17095W        W76598  24.026  22.209  10.945
17096W        W76599  27.607  34.607   4.213
17097W        W76600  33.064  16.806   3.705
17098W        W76601  34.573  44.417   4.774
17099W        W76602   0.791  33.624  10.044
17100W        W76603  10.661  44.853  12.831
17101W        W76604  39.054  20.200  11.077
17102W        W76605  11.682  19.602  13.379
17103W        W76606  42.517  14.191   4.657
17104W        W76607   7.182  12.299  10.140
17105W        W76608  10.168   4.835   5.286
17106W        W76609  31.459   3.331   5.101
17107W        W76610  26.640  38.547  14.289
17108W        W76611  23.534  39.525   0.388
17109W        W76612   4.442  44.436   5.098
17110W        W76613  44.761  16.210   4.649
17111W        W76614  28.040   8.874   3.681
17112W        W76615  38.360  37.929  10.431
17113W        W76616  16.689  39.422   4.782
17114W        W76617  26.496  28.581   2.293
17115W        W76618  37.027  43.816  11.039
17116W        W76619  38.442   5.368   0.890
17117W        W76620  19.718   6.922   1.861
17118W        W76621  19.599  12.857   3.781
17119W        W76622  31.012  30.613   2.379
17120W        W76623  33.449  19.164   3.785
17121W        W76624   6.800  30.495  14.885
17122W        W76625  33.884   8.402   3.211
17123W        W76626  41.330  13.307   3.709
17124W        W76627  14.652  31.416   0.319
17125W        W76628  20.042  35.368  14.412
17126W        W76629  27.195   3.419  14.307
17127W        W76630  14.236  32.896   0.873
17128W        W76631  19.286  38.928  11.124
17129W        W76632  21.690  42.394   3.736
17130W        W76633  29.936  22.613   0.354
17131W        W76634  39.555  17.167   3.286
17132W        W76635  15.642  33.997   0.331
17133W        W76636   3.798  35.490  10.424
17134W        W76637  40.420  11.144   2.395
17135W        W76638  37.356  40.871   3.283
17136W        W76639  13.759  40.458  13.383
17137W        W76640  33.504  23.610   9.946
17138W        W76641   4.748   0.874  12.990
17139W        W76642  37.492  17.726  11.526
17140W        W76643  17.794   1.950   4.182
17141W        W76644   3.750  28.548  11.070
17142W        W76645  25.525  44.855   0.388
17143W        W76646  10.216   5.869  14.887
17144W        W76647  35.455  26.178   4.701
17145W        W76648  35.077   8.258   2.387
17146W        W76649  28.152   8.406  14.014
17147W        W76650  40.041   0.772   3.258
17148W        W76651  16.276  36.904   2.283
17149W        W76652  31.421   4.724  12.083
17150W        W76653  26.509  26.957  14.961
17151W        W76654   1.774  17.164   2.699
17152W        W76655   3.322  25.679  11.108
17153W        W76656  30.659  42.367  12.966
17154W        W76657   1.903  37.859  11.550
17155W        W76658  36.054   4.853   0.385
17156W        W76659  19.147  42.288   4.830
17157W        W76660   8.257   0.304  12.056
17158W        W76661  39.988  43.772  12.394
17159W        W76662   9.713  29.523  14.850
17160W        W76663  30.580   4.729  12.967
17161W        W76664  28.526  34.067  11.948
17162W        W76665  29.999  11.261  12.406
17163W        W76666   9.767  36.562  14.501
17164W        W76667   1.390   2.762   1.746
17165W        W76668   4.229  23.537   2.208
17166W        W76669   6.711  19.648  13.892
17167W        W76670  35.392  14.662   1.781
17168W        W76671  42.332  33.916   1.416
17169W        W76672  27.510  11.325  14.789
17170W        W76673  29.643  20.615   1.298
17171W        W76674   4.842  26.091   2.416
17172W        W76675  31.970  24.687   0.422
17173W        W76676  24.064   6.407   3.243
17174W        W76677  32.931  34.893  12.429
17175W        W76678  30.457  29.165   3.848
17176W        W76679  17.631   2.384  12.394
17177W        W76680  27.658  20.035   0.925
17178W        W76681  22.025   3.929   1.233
17179W        W76682  27.046  30.561   4.666
17180W        W76683  41.830  27.573   4.187
17181W        W76684  43.513  28.541   0.956
17182W        W76685  30.514   3.717  14.768
17183W        W76686  38.332  40.344  10.604
17184W        W76687   9.766  35.905  10.615
17185W        W76688   6.301  15.235   3.650
17186W        W76689  19.667  36.028   0.296
17187W        W76690  10.378  42.390   4.188
17188W        W76691  14.782   9.196   3.227
17189W        W76692  19.273  25.167   0.963
17190W        W76693  25.028  11.225  14.446
17191W        W76694  22.050  31.955   3.214
17192W        W76695  24.145  18.653   3.226
17193W        W76696  11.672  32.059  11.595
17194W        W76697  35.447  24.511   3.154
17195W        W76698  43.319  20.159   1.448
17196W        W76699  29.485  25.705   1.402
17197W        W76700  44.846  37.875  11.387
17198W        W76701  10.172  25.968  14.374
17199W        W76702  37.012   3.888   0.887
17200W        W76703  14.787  17.761   4.330
17201W        W76704  27.125   9.302   4.279
17202W        W76705   8.248  19.060  12.876
17203W        W76706  28.491  38.538  14.411
17204W        W76707  35.575  20.650  11.102
17205W        W76708  36.591  14.595   1.237
17206W        W76709   5.304  11.137  13.856
17207W        W76710   9.283  40.425  13.526
17208W        W76711   5.796  24.481  11.565
17209W        W76712   1.956  31.567   2.200
17210W        W76713  40.446  43.276   3.197
17211W        W76714   4.447  16.569   2.663
17212W        W76715   5.332  39.856  13.458
17213W        W76716  11.854  39.339   4.243
17214W        W76717  31.500  34.565  13.345
17215W        W76718  27.091  42.015  11.046
17216W        W76719  13.284  21.124  10.928
17217W        W76720   8.262  14.268  12.399
17218W        W76721  34.047  19.739  11.890
17219W        W76722  11.693   4.699  11.012
17220W        W76723  14.276  19.082  13.835
17221W        W76724  13.657  26.093  13.317
17222W        W76725  20.142  16.734   1.316
17223W        W76726  25.602  22.565   0.379
17224W        W76727  27.491  21.678  14.939
17225W        W76728  41.983  16.672   2.202
17226W        W76729  15.297  24.621  13.421
17227W        W76730  29.062  38.442  11.863
17228W        W76731  41.473   3.889  13.505
17229W        W76732  44.363  17.252  10.898
17230W        W76733  31.585  25.574   1.785
17231W        W76734  29.606   0.248  14.335
17232W        W76735   6.257  31.457  13.989
17233W        W76736  11.369  31.554  10.489
17234W        W76737  28.663  42.927  10.909
17235W        W76738   8.353   7.339  11.034
17236W        W76739  40.369  37.389   5.197
17237W        W76740  12.116  11.134   2.337
17238W        W76741  15.227   2.465  13.525
17239W        W76742  30.475   5.331  11.526
17240W        W76743   4.791  32.434   0.323
17241W        W76744   4.383  41.013   2.231
17242W        W76745  30.619  12.253  10.029
17243W        W76746  30.613  21.107  11.583
17244W        W76747   1.402  22.248   0.744
17245W        W76748  36.454   5.794  14.833
17246W        W76749  22.093  31.021  13.883
17247W        W76750   9.701  26.105  12.464
17248W        W76751  12.699  42.393  13.026
17249W        W76752  15.814  19.272   1.356
17250W        W76753  25.647  37.529   1.883
17251W        W76754  19.164  40.537  12.998
17252W        W76755  41.975   5.280   5.805
17253W        W76756   9.859  37.851  11.917
17254W        W76757  15.592  34.472  14.297
17255W        W76758  24.648  20.736  12.001
17256W        W76759  29.128  13.795   5.687
17257W        W76760  15.143  20.197   0.828
17258W        W76761  42.400  10.355  12.406
17259W        W76762  35.425   9.753   3.835
17260W        W76763   3.734  22.688  12.020
17261W        W76764  33.928  22.199   4.282
17262W        W76765   7.681  34.501  11.571
17263W        W76766  38.043  16.159  10.550
17264W        W76767   0.330  21.059  14.367
17265W        W76768   8.218  26.669   0.966
17266W        W76769  23.201  38.329  12.460
17267W        W76770  16.186  17.720   1.373
17268W        W76771  12.226  36.880   4.599
17269W        W76772  42.875  26.524   1.865
17270W        W76773  18.674  22.069  14.824
17271W        W76774   8.167   1.258   4.204
17272W        W76775  40.418  29.626  10.583
17273W        W76776   8.251  28.115   1.807
17274W        W76777  41.808   6.367   3.351
17275W        W76778   2.949  23.062   2.877
17276W        W76779  30.603  21.616   4.656
17277W        W76780   8.894   5.210   1.777
17278W        W76781   2.730   0.407  14.874
17279W        W76782   0.252  31.414  12.875
17280W        W76783  34.605  25.555  13.506
17281W        W76784  32.037  41.021   3.205
17282W        W76785  11.808   6.331   4.816
17283W        W76786   0.806   6.677  14.418
17284W        W76787  26.579  19.612  13.815
17285W        W76788  32.544  26.036   3.326
17286W        W76789   3.245   1.359  13.831
17287W        W76790   9.240  41.390   1.799
17288W        W76791  33.913   0.743   0.911
17289W        W76792  11.332  34.610  11.426
17290W        W76793  10.646  20.712   1.450
17291W        W76794   5.422  19.262   0.787
17292W        W76795  25.474  39.492  14.832
17293W        W76796  30.985  19.707  10.121
17294W        W76797   8.162  21.203  11.386
17295W        W76798  34.505  41.987   0.358
17296W        W76799  43.324  22.220  13.802
17297W        W76800   7.748  39.882   1.355
17298W        W76801   2.918  14.308  11.596
17299W        W76802  36.897  21.589  11.938
17300W        W76803  26.004  20.588  13.360
17301W        W76804  28.183  20.534  14.774
17302W        W76805  39.383   2.846   1.307
17303W        W76806  26.555  29.456   0.744
17304W        W76807  28.059  37.538  14.403
17305W        W76808  33.451  23.573  12.894
17306W        W76809  12.331   7.294   1.280
17307W        W76810   8.310  17.698  14.986
17308W        W76811  18.067  20.588   3.840
17309W        W76812  42.306   1.961  14.833
17310W        W76813  38.502  30.447  10.642
17311W        W76814  21.202   4.441  13.884
17312W        W76815  22.626  28.563  13.871
17313W        W76816  29.588  20.246  13.432
17314W        W76817  14.199   9.280  14.423
17315W        W76818  35.108  18.767   3.707
17316W        W76819  35.066  42.783  11.428
17317W        W76820  31.991  38.046  13.054
17318W        W76821  14.706  29.944   0.302
17319W        W76822  27.029  33.477  14.438
17320W        W76823  17.596  19.752  12.024
17321W        W76824  33.901  28.169  12.355
17322W        W76825  27.470  44.869   3.649
17323W        W76826  16.784  39.959   4.177
17324W        W76827  24.010  11.206  14.994
17325W        W76828  34.512  42.880   0.926
17326W        W76829  22.718  38.036  13.035
17327W        W76830  39.816  38.877  10.554
17328W        W76831  16.077  21.754   1.713
17329W        W76832  34.984  18.765  14.331
17330W        W76833  22.236  34.932  10.472
17331W        W76834  20.676  39.431   1.703
17332W        W76835  40.385   6.831   3.162
17333W        W76836  27.039  24.045   1.428
17334W        W76837  20.734  37.981   1.449
17335W        W76838   3.281  15.233   0.261
17336W        W76839  14.763  40.457   1.795
17337W        W76840  33.966   9.375  12.026
17338W        W76841  36.392  10.721  10.441
17339W        W76842   4.717  40.338  13.794
17340W        W76843   9.304  35.362  11.123
17341W        W76844  32.115   6.860  11.495
17342W        W76845  12.331  28.514   3.799
17343W        W76846  33.425  23.164   2.363
17344W        W76847   0.451   0.357   1.330
17345W        W76848  11.205  17.555   4.694
17346W        W76849  14.139  33.585  11.935
17347W        W76850   7.906  43.306   1.422
17348W        W76851  17.165  19.089   3.368
17349W        W76852  21.122  14.638   0.300
17350W        W76853  39.920  33.608  14.912
17351W        W76854   6.228  12.121   3.240
17352W        W76855  40.418  34.456  12.070
17353W        W76856   8.328  27.987  11.500
17354W        W76857  16.626  23.507  11.414
17355W        W76858  13.266  32.598   3.284
17356W        W76859  20.077  30.617   3.863
17357W        W76860  22.555   1.402   2.665
17358W        W76861  34.049  16.747   0.808
17359W        W76862  13.707  24.658   0.933
17360W        W76863  28.464  16.640   4.798
17361W        W76864  42.459   6.209   0.261
17362W        W76865  11.252   6.833  11.860
17363W        W76866  41.397  44.863  12.472
17364W        W76867  41.318   2.764  13.543
17365W        W76868  24.597  43.820   4.207
17366W        W76869   9.672  27.170   0.363
17367W        W76870   8.701  43.925  13.927
17368W        W76871  11.290  37.074   4.137
17369W        W76872  16.199  42.009   3.671
17370W        W76873   9.739  32.904  10.126
17371W        W76874   4.803   9.247  11.956
17372W        W76875  39.833   2.937  14.425
17373W        W76876  30.417   0.789   2.218
17374W        W76877  42.321   4.353  12.535
17375W        W76878  35.028  26.154  12.401
17376W        W76879  40.352  29.501   1.210
17377W        W76880  36.434  16.635  12.881
17378W        W76881  36.415  21.191   4.226
17379W        W76882  27.631   2.268  14.806
17380W        W76883  42.959  44.907  14.826
17381W        W76884  12.246  36.060  12.402
17382W        W76885   5.420  28.020  13.848
17383W        W76886   3.931  24.647  13.466
17384W        W76887   6.264  11.635   3.870
17385W        W76888  16.663  19.050  11.432
17386W        W76889  18.197  40.335  13.319
17387W        W76890  36.425  11.701  14.939
17388W        W76891  18.269  43.919   3.795
17389W        W76892   5.926   0.250  14.868
17390W        W76893  37.913  24.044   3.790
17391W        W76894  12.339  33.537  10.148
17392W        W76895  28.183  41.482   4.801
17393W        W76896  21.523   3.232   1.285
17394W        W76897  13.195  20.062  14.994
17395W        W76898  24.165  11.178  12.093
17396W        W76899  24.644  24.536   3.641
17397W        W76900   4.798   3.826  11.950
17398W        W76901   7.747   7.732  11.085
17399W        W76902  34.941  26.157  10.452
17400W        W76903  27.120  36.892   4.805
17401W        W76904  23.222  42.830  14.000
17402W        W76905  16.142  27.613  11.438
17403W        W76906  33.616   9.232   3.210
17404W        W76907  34.020  14.665  11.443
17405W        W76908  29.968  31.432  13.912
17406W        W76909  24.583   5.402   2.857
17407W        W76910  32.993  27.677   2.868
17408W        W76911  20.092   0.886   1.241
17409W        W76912  26.523  39.063  11.593
17410W        W76913  27.167  38.538   1.764
17411W        W76914  12.834  16.768  14.932
17412W        W76915  18.055  34.948   3.233
17413W        W76916  29.576  18.293  12.570
17414W        W76917  36.081  17.062   5.234
17415W        W76918  29.492  37.028   2.751
17416W        W76919  11.324  30.433   4.150
17417W        W76920  34.591  21.655   3.367
17418W        W76921  12.740  29.585  14.027
17419W        W76922  30.941  44.836  11.424
17420W        W76923   5.204   5.848   1.933
17421W        W76924  10.280  19.278  11.892
17422W        W76925  10.383  39.836   9.928
17423W        W76926  17.578  32.035   4.273
17424W        W76927  30.549  24.033  11.125
17425W        W76928  21.035   0.483  11.956
17426W        W76929  25.662   3.876   1.263
17427W        W76930   1.402  15.101  13.966
17428W        W76931  37.890   9.762  14.460
17429W        W76932  36.067  24.683  11.872
17430W        W76933  44.864   9.708   4.807
17431W        W76934  15.682  19.089   4.826
17432W        W76935  17.216  10.265   4.130
17433W        W76936  36.443  29.538  13.935
17434W        W76937  17.187   6.699  14.340
17435W        W76938  39.474  17.787  12.926
17436W        W76939  41.325  15.114  12.944
17437W        W76940   2.315  38.486  13.378
17438W        W76941  14.804  20.113   2.806
17439W        W76942   2.827  23.514   2.786
17440W        W76943  40.904   1.771   3.339
17441W        W76944  30.456  26.028  12.049
17442W        W76945  19.062  34.593   4.351
17443W        W76946  31.126   2.966  14.014
17444W        W76947  12.682  21.613  12.363
17445W        W76948  29.109  34.414  14.329
17446W        W76949  18.790  27.128   1.747
17447W        W76950  29.569   4.407   0.949
17448W        W76951  36.548  42.989  14.928
17449W        W76952  14.257  26.632  13.903
17450W        W76953  14.737   1.904   4.709
17451W        W76954  19.608  10.840   0.319
17452W        W76955  28.453  31.089  12.573
17453W        W76956  19.705  26.465   0.341
17454W        W76957  33.519  27.500   1.330
17455W        W76958  38.392  17.729  13.976
17456W        W76959  29.647  14.236  13.993
17457W        W76960  17.082  38.336   2.771
17458W        W76961  33.475  41.901   3.745
17459W        W76962  34.563  35.433  13.499
17460W        W76963  42.017  34.499  12.366
17461W        W76964  43.868  23.987  13.342
17462W        W76965  17.659  21.728  10.900
17463W        W76966   8.288  16.260  13.995
17464W        W76967  12.727  22.546  14.919
17465W        W76968  21.082   2.341  11.057
17466W        W76969  37.373  18.697  10.525
17467W        W76970  44.367  23.540  10.897
17468W        W76971   6.744  26.119   2.717
17469W        W76972  14.301  26.038  12.855
17470W        W76973  43.000  43.357  12.548
17471W        W76974  33.919  18.149  14.905
17472W        W76975  13.620  21.248  13.362
17473W        W76976  31.407   2.357  11.013
17474W        W76977  43.500   5.288  10.562
17475W        W76978  26.543  30.528  12.503
17476W        W76979  39.481  32.025  11.427
17477W        W76980   5.739  10.687  11.421
17478W        W76981  29.114  12.137   3.280
17479W        W76982  28.970  21.693   0.848
17480W        W76983  42.352   1.339  10.587
17481W        W76984  33.885   0.345   3.267
17482W        W76985  17.261  12.344   2.892
17483W        W76986  36.518  42.303   4.604
17484W        W76987  14.163   8.367   3.782
17485W        W76988  31.984  42.313   0.283
17486W        W76989   9.332  22.168  14.430
17487W        W76990   6.254  32.133   2.780
17488W        W76991  36.395   1.459  10.931
17489W        W76992  42.785  18.706   3.242
17490W        W76993  44.768   3.774   4.820
17491W        W76994  16.696  34.933  13.390
17492W        W76995  37.477  37.506  10.024
17493W        W76996  33.437  37.021  13.333
17494W        W76997  21.528   2.356  12.380
17495W        W76998  21.619   7.807   2.740
17496W        W76999   9.758  14.826  12.910
17497W        W77000   7.394  15.179   1.798
17498W        W77001   1.760  23.213  12.554
17499W        W77002  19.548  13.808   1.368
17500W        W77003  42.947  38.493   1.410
17501W        W77004  21.046   2.897  11.911
17502W        W77005  44.962  11.695   4.613
17503W        W77006  42.951  10.253   0.309
17504W        W77007   2.228  29.999  12.852
17505W        W77008  10.373  30.164   3.813
17506W        W77009  29.596  31.458   1.922
17507W        W77010   5.807   9.773  11.435
17508W        W77011  18.149  13.323  14.810
17509W        W77012   5.364  22.737   1.798
17510W        W77013  11.657   9.200  12.927
17511W        W77014   7.239  19.678   0.399
17512W        W77015  18.126  13.752   2.691
17513W        W77016  41.364  18.642   0.341
17514W        W77017   2.426  13.176  14.957
17515W        W77018   5.922  28.436  14.941
17516W        W77019  42.390  13.829  14.505
17517W        W77020  18.595   4.871  12.937
17518W        W77021  24.688   6.799  13.496
17519W        W77022  12.146  42.785  14.369
17520W        W77023  41.890  17.083   2.283
17521W        W77024  26.086  19.557  14.441
17522W        W77025  23.713   3.280   4.125
17523W        W77026  32.471   3.860  11.961
17524W        W77027   2.746  43.992  13.820
17525W        W77028  32.528  28.468  10.637
17526W        W77029   8.250  16.781   0.377
17527W        W77030  23.501  31.443  12.000
17528W        W77031  40.540  34.510  12.850
17529W        W77032  19.625  42.030  14.972
17530W        W77033   3.399   3.307   1.884
17531W        W77034  20.590  29.122   3.802
17532W        W77035  19.217  17.211  14.857
17533W        W77036  32.967  36.079  10.095
17534W        W77037  14.650  43.327   4.837
17535W        W77038  18.705   7.777  14.500
17536W        W77039  39.531  43.860   4.115
17537W        W77040  18.121  43.795  11.563
17538W        W77041  39.982  10.730  11.002
17539W        W77042  11.862  21.127   3.748
17540W        W77043  28.562   4.863  12.079
17541W        W77044  15.661  34.016   2.208
17542W        W77045   3.837  32.533   0.339
17543W        W77046  14.757   0.269   3.281
17544W        W77047   2.958   0.455   4.192
17545W        W77048   3.389   5.777   2.250
17546W        W77049  28.456  22.661   1.856
17547W        W77050  29.021  31.424  14.787
17548W        W77051  36.395  40.982   0.393
17549W        W77052   1.265  20.543  12.084
17550W        W77053   1.276  25.588   0.422
17551W        W77054  30.525  31.007   4.121
17552W        W77055  41.360  35.534   4.676
17553W        W77056  39.813  41.896  10.529
17554W        W77057  18.295  44.982   4.698
17555W        W77058  15.214  10.368   2.816
17556W        W77059  33.007  36.520  14.306
17557W        W77060  16.796  35.976   0.842
17558W        W77061   1.978  27.186  14.909
17559W        W77062  41.455  41.907  13.021
17560W        W77063   2.727  18.069   3.640
17561W        W77064   2.232  19.724  10.911
17562W        W77065  26.519  39.996  11.429
17563W        W77066  33.014   1.395  13.312
17564W        W77067  15.779  38.867   2.371
17565W        W77068  15.641  18.287   0.465
17566W        W77069  24.075  39.976  13.525
17567W        W77070  14.810  25.083  11.069
17568W        W77071  29.497   3.787   4.705
17569W        W77072  33.923  41.395  11.547
17570W        W77073  29.106  27.495  13.954
17571W        W77074  20.633  38.029  10.601
17572W        W77075  33.880  22.643  12.066
17573W        W77076  16.726  26.652   3.159
17574W        W77077  17.247   3.311  10.989
17575W        W77078  19.716  18.642   2.827
17576W        W77079  16.191  42.507   1.880
17577W        W77080  14.608   1.359   3.680
17578W        W77081  43.366  41.035  14.282
17579W        W77082  36.390  21.711  13.355
17580W        W77083  44.873   3.832   3.846
17581W        W77084   1.466   9.860  14.899
17582W        W77085  43.492  41.339  11.078
17583W        W77086  28.950  22.663   3.631
17584W        W77087   9.738  24.511   3.223
17585W        W77088  33.582  18.621  13.369
17586W        W77089  41.390  41.507   0.959
17587W        W77090   8.765  29.558  13.792
17588W        W77091  40.962  41.937   4.331
17589W        W77092  15.590  37.454   3.146
17590W        W77093   6.259   0.478   4.775
17591W        W77094   0.989  37.493   2.331
17592W        W77095   2.342   8.754  11.906
17593W        W77096  38.571   7.892  12.461
17594W        W77097   4.735   1.765   2.202
17595W        W77098  20.264  39.034   2.363
17596W        W77099  11.627  27.945   1.752
17597W        W77100  15.623  43.825   3.344
17598W        W77101  10.756  30.444  13.368
17599W        W77102  26.119  12.814  12.835
17600W        W77103   2.239  30.958  14.777
17601W        W77104  22.213  30.469  12.072
17602W        W77105   9.818  41.810  12.040
17603W        W77106  38.388  18.253  11.466
17604W        W77107  30.606   7.766  11.454
17605W        W77108  10.735  44.377   3.283
17606W        W77109  35.425  19.638   1.394
17607W        W77110   8.287  32.523  13.464
17608W        W77111  32.510  35.565  10.622
17609W        W77112   3.417  44.371  12.413
17610W        W77113   8.235   8.867   0.389
17611W        W77114   3.434   7.242  11.568
17612W        W77115  21.150  40.816   1.886
17613W        W77116  22.634  28.058   1.439
17614W        W77117  30.609  28.094   0.353
17615W        W77118  28.545  26.027   2.212
17616W        W77119  23.080   9.648   1.257
17617W        W77120  39.557  35.391  13.007
17618W        W77121  29.617  15.627  10.934
17619W        W77122  16.118  21.099  14.852
17620W        W77123  23.110   4.723   2.877
17621W        W77124  23.525   3.949   2.750
17622W        W77125  41.525  31.128   1.349
17623W        W77126  21.083   7.851   2.836
17624W        W77127  27.605   1.399   4.714
17625W        W77128  27.109  10.309  10.519
17626W        W77129   6.213  13.679  14.890
17627W        W77130  30.034  41.525  12.946
17628W        W77131  31.422   4.826   3.687
17629W        W77132  13.295  22.635  13.955
17630W        W77133  20.562  23.071   3.840
17631W        W77134  32.122  22.075  12.961
17632W        W77135  33.095  27.048   0.447
17633W        W77136  31.418  13.775   2.709
17634W        W77137  23.123  10.651  10.528
17635W        W77138  38.500  32.589  14.502
17636W        W77139  13.231  31.585   4.789
17637W        W77140  15.283  21.617   4.185
17638W        W77141  23.205  37.049   0.865
17639W        W77142  36.484  28.047  14.346
17640W        W77143  43.814  44.339   4.147
17641W        W77144  31.983   5.763  11.908
17642W        W77145   4.291  24.194   3.653
17643W        W77146   0.987  10.183  14.504
17644W        W77147   0.322  37.886  14.951
17645W        W77148  15.790  30.630  10.468
17646W        W77149  29.592  28.012  12.391
17647W        W77150  42.450  17.306   3.362
17648W        W77151  24.560  37.854  12.013
17649W        W77152  25.117   9.805  12.529
17650W        W77153  43.352  23.990  14.433
17651W        W77154  24.188  24.224  10.596
17652W        W77155  19.229  28.035   4.640
17653W        W77156  29.537  41.383   2.191
17654W        W77157  36.909  33.092   1.286
17655W        W77158  44.860  14.779  10.977
17656W        W77159   3.775  34.093  12.360
17657W        W77160  38.502  30.925  14.759
17658W        W77161   3.733  36.975   2.356
17659W        W77162  25.571  42.994  11.594
17660W        W77163  39.492  20.596  13.000
17661W        W77164  42.998  38.820   4.816
17662W        W77165  29.006  37.988   1.243
17663W        W77166  15.203  43.442  11.987
17664W        W77167  14.247  13.151  12.412
17665W        W77168  40.504  24.109   1.250
17666W        W77169   2.909  33.012   1.753
17667W        W77170  33.563  18.657  11.411
17668W        W77171   1.387  31.565  14.514
17669W        W77172  19.066  26.128   0.878
17670W        W77173  40.369  26.189   2.750
17671W        W77174  38.448  38.402  10.582
17672W        W77175  27.942   3.744  11.411
17673W        W77176  34.501  15.145   4.322
17674W        W77177   7.308  21.550   1.297
17675W        W77178  44.466  17.205   2.321
17676W        W77179  20.568   9.230   3.723
17677W        W77180  33.931   9.820   3.666
17678W        W77181  22.619   7.334   4.705
17679W        W77182  13.338  28.142   2.665
17680W        W77183  18.193  43.807   4.700
17681W        W77184   3.325  38.929  12.535
17682W        W77185  21.591  42.826  14.283
17683W        W77186  42.289  13.197   0.464
17684W        W77187  39.521  13.280   0.944
17685W        W77188  11.138  36.002  13.479
17686W        W77189   2.322  15.133  11.923
17687W        W77190  19.070  13.691   3.320
17688W        W77191   8.187  27.062   1.805
17689W        W77192  21.222  23.104   0.322
17690W        W77193   6.752  33.383   4.177
17691W        W77194  14.216  34.925  11.054
17692W        W77195   4.828  14.203  12.962
17693W        W77196   0.434   4.436   2.230
17694W        W77197  25.109  16.806  12.858
17695W        W77198  28.039  25.631  11.889
17696W        W77199  25.546  16.081   0.480
17697W        W77200  32.090  31.509  14.814
17698W        W77201   7.387  10.172   4.624
17699W        W77202  13.218   0.854   3.794
17700W        W77203  29.645   7.879   0.920
17701W        W77204  36.057  35.862   4.821
17702W        W77205  43.426  10.847  11.000
17703W        W77206  27.594   3.794   3.323
17704W        W77207  11.700   8.875  10.441
17705W        W77208   8.242  38.885  13.964
17706W        W77209  28.144  11.231  10.495
17707W        W77210  38.858  31.123  10.584
17708W        W77211  34.565  33.565  13.043
17709W        W77212  21.076  17.099   2.317
17710W        W77213  42.383   4.287   3.870
17711W        W77214  32.113  44.873  10.535
17712W        W77215  32.632  32.091   2.407
17713W        W77216  26.137   9.803   3.643
17714W        W77217   1.966   8.723   3.855
17715W        W77218   5.324  11.314  12.531
17716W        W77219  43.300  21.187  14.823
17717W        W77220   9.262   3.726   0.459
17718W        W77221   2.386  44.906   0.443
17719W        W77222   7.171  15.221  14.765
17720W        W77223  13.752  14.147  10.414
17721W        W77224  24.191  19.099  12.403
17722W        W77225  11.788  25.482   0.826
17723W        W77226  17.228  18.076   0.366
17724W        W77227  12.650  27.987  12.027
17725W        W77228  24.039   9.378   4.816
17726W        W77229  19.745  44.008   2.333
17727W        W77230  24.069  31.091   1.813
17728W        W77231  42.807  12.732   0.961
17729W        W77232  18.061   7.190   1.410
17730W        W77233   9.353  38.371   1.292
17731W        W77234  10.684  16.797  11.970
17732W        W77235  36.495  36.446   4.648
17733W        W77236  32.436   6.381  12.347
17734W        W77237  20.598  33.555  10.427
17735W        W77238  43.934  11.167   1.881
17736W        W77239  32.458   4.845   1.696
17737W        W77240  18.790  11.822  11.916
17738W        W77241  40.926  15.292   1.318
17739W        W77242  37.877  36.975   2.743
17740W        W77243   1.244   9.393  14.821
17741W        W77244  27.168  44.811   4.610
17742W        W77245  25.090  23.722  12.525
17743W        W77246   4.306  18.592  14.886
17744W        W77247   7.801  27.685  10.403
17745W        W77248  33.960   7.860  13.489
17746W        W77249  20.040  41.396  11.123
17747W        W77250  37.576  15.601   5.199
17748W        W77251  23.685  18.052   3.234
17749W        W77252  30.068  33.088   0.405
17750W        W77253   1.470  12.308   1.329
17751W        W77254   6.339  41.933   2.326
17752W        W77255  31.599  44.295   1.274
17753W        W77256  30.571   7.745  11.103
17754W        W77257  27.070   5.313   3.676
17755W        W77258  41.309  12.622  10.942
17756W        W77259  28.522  38.007  10.514
17757W        W77260  44.938  39.910   4.797
17758W        W77261  19.621  25.583   5.309
17759W        W77262  32.633   1.948  12.445
17760W        W77263  39.523  16.289   1.927
17761W        W77264   4.278  21.154   4.145
17762W        W77265  23.097  17.622  12.972
17763W        W77266  13.795  11.684   0.776
17764W        W77267  17.277  29.548   5.128
17765W        W77268  15.701  10.649   0.945
17766W        W77269  36.401  33.075  11.590
17767W        W77270  41.419  35.488  13.351
17768W        W77271  43.936   4.882  14.863
17769W        W77272  25.121  26.985  10.549
17770W        W77273  24.505  16.176  12.568
17771W        W77274  19.547  11.848   3.236
17772W        W77275   5.833  32.133   4.258
17773W        W77276  11.354   4.710  11.064
17774W        W77277  29.432  34.114  14.967
17775W        W77278  27.467  27.565   0.818
17776W        W77279  39.557  13.605   2.747
17777W        W77280   2.428  44.960  11.928
17778W        W77281  14.156  44.984   1.872
17779W        W77282  43.288  40.385   2.408
17780W        W77283  20.623  27.153   1.715
17781W        W77284   8.804  43.982   4.688
17782W        W77285  12.254  26.503   0.324
17783W        W77286  29.471  13.195   3.186
17784W        W77287  20.608   3.395  14.488
17785W        W77288   9.263  30.064  11.603
17786W        W77289  28.120  22.191   0.804
17787W        W77290  24.049  31.647  10.924
17788W        W77291  21.686  18.675  10.628
17789W        W77292  36.018  23.092   2.685
17790W        W77293  37.471  16.289   1.812
17791W        W77294  15.593  42.389  10.639
17792W        W77295  35.998  39.873   0.361
17793W        W77296   1.274   5.769  13.363
17794W        W77297  18.632  32.484   0.865
17795W        W77298  35.386  11.755  13.052
17796W        W77299   9.177  25.632   3.809
17797W        W77300   7.787   1.395  13.915
17798W        W77301  40.430  22.118  11.997
17799W        W77302  12.250   1.408   1.407
17800W        W77303   3.767  42.781   0.408
17801W        W77304  16.189  34.390   3.675
17802W        W77305  10.312  11.786  12.365
17803W        W77306  29.542   0.325   1.844
17804W        W77307   2.470  25.033   1.848
17805W        W77308   6.300   4.815  12.339
17806W        W77309   1.297  37.020  11.437
17807W        W77310  27.052  18.085  10.005
17808W        W77311  12.853  43.421   4.733
17809W        W77312  44.362  38.331   1.240
17810W        W77313  34.489  23.679   1.408
17811W        W77314  16.772  18.115   2.287
17812W        W77315   2.911  35.467  14.382
17813W        W77316  35.581  24.202   4.349
17814W        W77317  32.110  23.490  13.007
17815W        W77318   7.326  21.610  13.466
17816W        W77319  41.324   2.952  10.934
17817W        W77320  19.284  20.149  11.423
17818W        W77321  10.317  43.492   3.807
17819W        W77322  25.202  30.914   4.347
17820W        W77323  20.599  23.641   2.344
17821W        W77324  22.040   3.291  13.410
17822W        W77325  13.641  31.988  13.875
17823W        W77326  16.144  39.315  12.560
17824W        W77327  21.758  31.587   1.243
17825W        W77328  22.117  37.572   2.315
17826W        W77329  41.906  20.171  13.913
17827W        W77330  17.626  34.965   2.763
17828W        W77331  43.006  36.866   4.186
17829W        W77332  20.535   5.842  14.875
17830W        W77333  13.201  38.495  11.002
17831W        W77334  33.966  36.914  14.337
17832W        W77335  25.075   3.300  13.447
17833W        W77336   7.903   9.705   1.437
17834W        W77337  11.817  37.419   0.740
17835W        W77338   9.810  39.968  12.461
17836W        W77339  17.670  33.461   1.412
17837W        W77340  27.469   4.821   2.668
17838W        W77341   9.234  38.552  11.561
17839W        W77342  16.229  29.052   0.386
17840W        W77343   5.735  13.311   3.359
17841W        W77344  36.348   6.778   4.136
17842W        W77345   1.888   1.840  14.806
17843W        W77346  26.574  29.433   2.200
17844W        W77347  14.780  14.108  10.124
17845W        W77348   6.887  40.983   4.799
17846W        W77349  32.439  42.865   2.849
17847W        W77350  31.957  28.046   0.756
17848W        W77351  26.586   3.722   1.240
17849W        W77352  44.270  12.678   0.932
17850W        W77353  16.788  20.039   0.359
17851W        W77354   9.335   4.714   1.326
17852W        W77355  18.735  22.539   2.743
17853W        W77356  20.131  24.123  11.922
17854W        W77357   5.218   0.396   4.601
17855W        W77358  23.508   6.205   1.794
17856W        W77359  34.045  14.738   2.720
17857W        W77360  11.803  16.134   0.920
17858W        W77361  20.057  33.923  14.765
17859W        W77362  25.662  23.701   2.293
17860W        W77363   0.789  42.467  12.859
17861W        W77364  31.129   8.265  11.387
17862W        W77365  31.972   3.844   3.714
17863W        W77366  24.507   4.822   2.295
17864W        W77367  10.359  27.124   0.728
17865W        W77368  10.864  27.079  12.362
17866W        W77369  25.699  18.660  13.007
17867W        W77370   6.708  22.164   0.339
17868W        W77371  26.015   2.869  12.903
17869W        W77372  16.300  17.156  12.934
17870W        W77373  31.518  43.768  11.596
17871W        W77374  17.135  28.931   3.264
17872W        W77375  33.404  28.651  12.518
17873W        W77376  16.706  18.774   3.732
17874W        W77377  42.969   8.702  11.565
17875W        W77378   1.397  13.237   1.695
17876W        W77379   3.831  41.997   3.314
17877W        W77380   6.380  20.675  12.519
17878W        W77381   0.755   8.263   1.397
17879W        W77382  24.143  13.300   4.625
17880W        W77383  20.250  35.082  11.954
17881W        W77384  30.505  17.194   3.220
17882W        W77385  24.581  23.017  10.926
17883W        W77386  28.007   3.430   3.310
17884W        W77387  20.053   4.258   1.935
17885W        W77388  24.176  12.339   2.415
17886W        W77389  10.173   5.704   1.280
17887W        W77390  11.750   3.771  13.949
17888W        W77391   5.723   5.933   3.179
17889W        W77392  21.166   0.772   0.829
17890W        W77393  25.657  20.707   3.160
17891W        W77394  17.618  19.675  11.406
17892W        W77395  19.171  18.061  12.339
17893W        W77396  14.630  21.107  10.524
17894W        W77397  36.391  27.949   3.352
17895W        W77398  37.352  32.481   5.248
17896W        W77399   2.826  29.633  10.503
17897W        W77400  25.611  36.037   2.790
17898W        W77401   3.820  11.255   0.245
17899W        W77402  16.662  32.549   4.181
17900W        W77403   7.815  16.658   3.199
17901W        W77404  39.465  29.430  14.855
17902W        W77405   6.199  39.826  12.458
17903W        W77406   4.309  34.488   2.314
17904W        W77407   5.382  24.012  13.519
17905W        W77408  44.390   2.900   3.639
17906W        W77409   5.808  10.164  14.860
17907W        W77410  31.123  16.216  13.057
17908W        W77411  15.771  20.760  13.355
17909W        W77412  37.417   4.433  14.515
17910W        W77413   6.238   1.785  11.888
17911W        W77414   8.672  31.995  13.521
17912W        W77415  13.117  23.498  13.949
17913W        W77416  12.215  25.603   2.287
17914W        W77417  39.352  40.546   4.652
17915W        W77418  12.348   5.285   4.750
17916W        W77419   8.824   4.849  12.381
17917W        W77420  15.735   0.296   1.230
17918W        W77421  18.788  15.128   2.779
17919W        W77422  17.300  22.144  11.909
17920W        W77423   6.902  36.382  13.984
17921W        W77424  28.455  26.500  13.055
17922W        W77425  39.955  38.346   4.831
17923W        W77426  32.496   9.662   2.890
17924W        W77427  35.417  35.094  12.536
17925W        W77428  15.153   2.874  12.947
17926W        W77429  23.661   4.794   4.822
17927W        W77430  21.591  23.048  11.905
17928W        W77431  26.568  27.176  13.446
17929W        W77432   1.278  14.644   3.256
17930W        W77433  18.145   8.334   3.210
17931W        W77434  25.977   8.706  12.358
17932W        W77435  34.026   6.737  14.030
17933W        W77436   7.196  26.977  11.962
17934W        W77437  18.284  43.957  13.951
17935W        W77438   3.430   6.212   2.394
17936W        W77439  23.126  13.188   4.259
17937W        W77440  22.615  19.225  10.901
17938W        W77441   7.683  31.628  13.019
17939W        W77442   5.331   6.386   4.664
17940W        W77443  23.568  22.719  11.124
17941W        W77444  11.201   8.877   2.312
17942W        W77445  20.207  41.453  12.031
17943W        W77446  30.533  18.775  13.866
17944W        W77447  22.522  21.072   5.081
17945W        W77448  41.795  38.477   1.732
17946W        W77449  16.726  31.020   3.702
17947W        W77450  43.291   5.805   2.813
17948W        W77451  42.029  11.323  11.993
17949W        W77452   9.754  10.753  12.521
17950W        W77453   2.917  26.138   0.809
17951W        W77454  19.579  31.541   1.706
17952W        W77455   5.790  28.570  11.045
17953W        W77456  39.860  33.935   2.725
17954W        W77457  10.143   8.310   2.716
17955W        W77458  42.800  40.830   1.923
17956W        W77459  20.708  42.980   3.280
17957W        W77460  40.890  41.042  10.542
17958W        W77461  34.089  14.271  13.936
17959W        W77462  25.108   9.347   2.407
17960W        W77463  35.035  37.461   5.088
17961W        W77464   0.458  41.518  10.940
17962W        W77465  23.220  21.639   1.825
17963W        W77466  38.472   4.399   0.391
17964W        W77467  29.527  36.579  10.530
17965W        W77468  12.617  13.628   1.809
17966W        W77469  40.543  36.582  12.912
17967W        W77470  29.152  13.288   3.177
17968W        W77471  19.752  30.429  11.527
17969W        W77472  14.645  26.066  10.532
17970W        W77473  19.728  43.352   5.109
17971W        W77474  17.220  33.946  10.960
17972W        W77475  15.635  37.470   1.752
17973W        W77476   1.326  13.757  13.903
17974W        W77477  34.019  40.360   2.882
17975W        W77478  13.163  34.957  14.305
17976W        W77479  21.200   3.246  10.958
17977W        W77480  43.938   7.879   0.309
17978W        W77481  43.900  42.355  13.418
17979W        W77482  38.009  13.312  14.760
17980W        W77483  15.199   0.910  12.868
17981W        W77484  23.666  17.662   0.730
17982W        W77485  27.043  12.703  12.849
17983W        W77486  18.708  19.686   2.725
17984W        W77487  32.051  26.571  13.375
17985W        W77488   8.189  23.131  11.072
17986W        W77489   5.776  30.453  11.909
17987W        W77490  12.170  32.032   0.332
17988W        W77491   0.369  19.064   1.777
17989W        W77492  44.430   4.765  12.870
17990W        W77493  13.148  44.421  11.978
17991W        W77494  44.779  30.649   3.817
17992W        W77495   8.300  32.521  10.072
17993W        W77496  28.178  32.000  10.575
17994W        W77497  38.853  32.410   2.343
17995W        W77498  31.917  32.537  12.892
17996W        W77499   4.839  42.852   2.272
17997W        W77500  19.249  21.226   3.706
17998W        W77501   6.812  17.598  12.463
17999W        W77502   5.746  21.530  11.459
18000W        W77503  28.471  12.215   1.773
18001W        W77504  36.030  32.444   3.196
18002W        W77505  34.449  21.692  10.405
18003W        W77506  29.064  22.183   1.832
18004W        W77507  44.319  28.002  11.885
18005W        W77508  44.492   5.777   0.901
18006W        W77509  24.549  39.004   3.242
18007W        W77510  27.629   4.363   4.647
18008W        W77511  33.940  26.513   0.934
18009W        W77512  23.632  29.531   0.408
18010W        W77513  40.506   4.753   3.354
18011W        W77514  23.509  30.640   1.697
18012W        W77515  34.092  26.558  10.536
18013W        W77516  27.493  44.474  12.557
18014W        W77517   7.416  19.630   0.818
18015W        W77518  28.645  11.366   5.238
18016W        W77519  17.110  36.370  10.415
18017W        W77520  28.623   6.309  14.801
18018W        W77521  22.702  35.001  14.884
18019W        W77522  23.554  39.984   3.665
18020W        W77523   8.837  38.063   0.352
18021W        W77524  32.013  13.845  11.954
18022W        W77525   6.384  39.862  10.605
18023W        W77526  14.715  10.382   3.258
18024W        W77527  26.026   7.811   0.798
18025W        W77528  42.372   4.901  11.992
18026W        W77529   1.283   0.375  11.979
18027W        W77530  17.790  18.230  10.442
18028W        W77531  30.639  17.786   1.880
18029W        W77532  33.489  27.154  10.588
18030W        W77533  37.900  42.414   0.420
18031W        W77534   4.943  31.430   4.745
18032W        W77535  17.657  32.627  10.578
18033W        W77536  38.330  15.287   0.384
18034W        W77537  33.905   6.824   2.855
18035W        W77538   2.927  37.375   1.356
18036W        W77539  25.029  12.775   1.749
18037W        W77540  11.625  36.892  13.464
18038W        W77541   3.854  29.524   1.885
18039W        W77542  41.937  21.741  11.528
18040W        W77543   7.410  22.036  13.034
18041W        W77544  44.441  44.797   0.296
18042W        W77545  39.348  33.942   1.757
18043W        W77546  40.498   1.873   0.445
18044W        W77547   6.800  25.190  13.444
18045W        W77548  22.503   6.366  13.938
18046W        W77549  41.988  24.201  13.476
18047W        W77550  40.916   9.684  11.970
18048W        W77551  18.221   3.860   4.700
18049W        W77552  37.401  17.619   2.244
18050W        W77553  33.531  19.066  13.485
18051W        W77554  16.605  37.993  10.516
18052W        W77555  43.432   6.393  13.398
18053W        W77556  10.196   0.395  12.499
18054W        W77557  12.125  17.110   4.232
18055W        W77558  20.616   9.888   3.650
18056W        W77559   6.201   3.302  13.327
18057W        W77560  37.555  43.881   1.820
18058W        W77561  12.309  41.930  11.068
18059W        W77562   9.677  13.794   3.728
18060W        W77563  38.841   2.287   2.302
18061W        W77564  31.466   8.208   2.760
18062W        W77565  44.010   9.218   2.839
18063W        W77566  22.048  17.627   3.321
18064W        W77567  37.951  26.693  10.015
18065W        W77568  34.045  24.495   4.212
18066W        W77569  37.439   9.657  11.906
18067W        W77570  26.642   8.175  13.513
18068W        W77571   8.711  25.083  10.541
18069W        W77572  32.087   2.419  10.632
18070W        W77573  13.305  33.931   2.305
18071W        W77574   3.429   5.209   0.276
18072W        W77575  27.572  16.795   4.248
18073W        W77576  20.037   3.914   1.364
18074W        W77577  23.063  43.335   4.632
18075W        W77578   7.733  42.362   0.764
18076W        W77579  24.213   0.472  11.522
18077W        W77580  27.955   5.833   3.861
18078W        W77581  34.995  34.066  14.993
18079W        W77582  17.648  35.499  12.375
18080W        W77583  25.692  40.389  12.415
18081W        W77584  12.691   9.746  11.028
18082W        W77585  44.476  36.460   2.882
18083W        W77586  40.995   6.739  11.437
18084W        W77587  40.344  39.511   1.313
18085W        W77588  37.367  24.211   2.206
18086W        W77589  19.202   4.362  11.044
18087W        W77590  16.598  33.606  12.959
18088W        W77591  12.678  31.427  12.077
18089W        W77592  11.274  30.429   2.194
18090W        W77593  23.198  23.149   4.814
18091W        W77594  31.488   0.431   3.288
18092W        W77595  23.129  23.618   1.829
18093W        W77596  21.024  17.186  12.896
18094W        W77597  28.474  41.838  11.469
18095W        W77598  36.448  36.999  14.858
18096W        W77599  10.280  11.247  10.518
18097W        W77600  13.243  42.811  13.879
18098W        W77601  44.493  26.545   4.636
18099W        W77602  26.119  42.348  10.447
18100W        W77603  17.596  12.791   1.351
18101W        W77604  22.162  24.546  11.588
18102W        W77605  41.386  26.529  14.777
18103W        W77606   2.741  37.415   3.298
18104W        W77607  32.069  35.477  12.495
18105W        W77608  11.851  25.559  14.760
18106W        W77609  39.530  36.351   0.837
18107W        W77610  43.928  31.633   1.767
18108W        W77611  19.752  37.979   3.371
18109W        W77612  42.354  28.050   3.715
18110W        W77613  13.753   6.222   4.117
18111W        W77614  28.657  39.417  10.974
18112W        W77615  13.644  44.473   4.615
18113W        W77616  37.491   3.715  13.308
18114W        W77617  11.144  30.510  10.039
18115W        W77618  20.723  10.864  13.419
18116W        W77619  29.093  15.731   5.582
18117W        W77620  33.484  39.361   0.752
18118W        W77621  18.687  42.902   3.772
18119W        W77622  38.533   7.314  10.641
18120W        W77623  38.860  13.644  11.945
18121W        W77624  24.691  39.329  14.952
18122W        W77625  13.212  16.078  10.546
18123W        W77626  10.204  11.764  13.383
18124W        W77627  43.482   2.783   3.191
18125W        W77628   1.843  21.593   2.823
18126W        W77629  44.898  30.424   3.304
18127W        W77630  25.188  10.171   1.231
18128W        W77631  22.524  30.466   4.200
18129W        W77632  15.173  25.140  14.799
18130W        W77633  44.472  38.029   4.163
18131W        W77634  42.998   6.215   4.148
18132W        W77635  17.697   6.242   3.240
18133W        W77636  13.190  44.992   0.965
18134W        W77637  16.274  43.481   3.714
18135W        W77638  42.310  12.793  12.449
18136W        W77639  42.441   8.382   2.895
18137W        W77640  13.634  29.566   1.352
18138W        W77641   4.803   5.271   1.855
18139W        W77642   5.419  29.941  11.398
18140W        W77643  38.435  12.143  14.005
18141W        W77644   8.385  39.040  14.406
18142W        W77645  16.119  20.701  12.832
18143W        W77646  34.515  18.618  11.418
18144W        W77647  38.325   0.933  13.365
18145W        W77648  16.086  24.060   0.302
18146W        W77649  29.513  18.554  12.889
18147W        W77650  23.510   0.284   2.831
18148W        W77651  39.868  14.712   4.158
18149W        W77652  12.714  13.843  10.947
18150W        W77653  23.612  17.184   0.787
18151W        W77654  18.178  44.877   3.292
18152W        W77655  39.820  41.967  13.494
18153W        W77656   1.355  20.618  10.979
18154W        W77657   9.670   8.335   1.760
18155W        W77658  40.919  30.132  13.345
18156W        W77659  20.599  14.619  13.984
18157W        W77660  27.145  28.530   4.646
18158W        W77661  30.996  11.273  11.002
18159W        W77662  44.406   1.751   2.839
18160W        W77663  31.054  36.526  12.508
18161W        W77664  40.489   4.824  13.484
18162W        W77665  35.857  32.411  13.817
18163W        W77666   8.786   3.393   0.324
18164W        W77667  33.947  30.634  13.440
18165W        W77668  35.932  34.054  11.456
18166W        W77669  10.800  15.737  13.862
18167W        W77670  33.890   7.412   4.334
18168W        W77671   1.835   4.906  10.558
18169W        W77672  26.038   1.431  13.834
18170W        W77673  32.085  23.582   9.969
18171W        W77674  25.568  30.550   0.879
18172W        W77675  11.318  41.405  11.006
18173W        W77676  28.089   6.735   1.286
18174W        W77677  40.490   3.404   3.270
18175W        W77678  41.969   1.835  13.975
18176W        W77679   2.328  11.742  13.484
18177W        W77680  44.261   6.908   2.774
18178W        W77681  28.050  11.313  11.933
18179W        W77682  39.015  41.867   2.349
18180W        W77683  28.935  15.769   0.297
18181W        W77684  13.154   8.772  12.070
18182W        W77685  38.839   5.245   0.727
18183W        W77686  16.176   2.727  10.492
18184W        W77687   1.479  26.536   3.249
18185W        W77688   9.718  36.450  13.450
18186W        W77689   8.344  21.694  12.992
18187W        W77690  43.878  38.339   0.871
18188W        W77691  15.667   2.390   2.823
18189W        W77692  39.966  32.891   3.744
18190W        W77693  21.233  30.603  12.926
18191W        W77694   2.909  17.655  10.535
18192W        W77695  36.083  40.912  14.516
18193W        W77696   8.400   8.734  12.487
18194W        W77697   1.804  19.131   4.219
18195W        W77698  11.857   3.355  14.886
18196W        W77699  10.280  23.538  14.482
18197W        W77700   1.765  34.610   2.385
18198W        W77701  22.246  22.675   4.752
18199W        W77702  35.094  37.883   1.245
18200W        W77703   0.925   0.978  13.476
18201W        W77704  29.996   6.774  14.379
18202W        W77705  17.131   5.244   4.234
18203W        W77706   9.882  28.115  13.936
18204W        W77707  26.579   0.306  14.892
18205W        W77708   5.824  31.930  10.426
18206W        W77709   7.325   0.969  12.377
18207W        W77710  12.348   6.365   1.238
18208W        W77711  35.093  39.339   0.321
18209W        W77712   7.297  25.026   0.900
18210W        W77713  12.775  27.541   3.195
18211W        W77714  19.770   1.850   4.203
18212W        W77715  14.154  31.492   2.290
18213W        W77716  38.872  23.725  10.109
18214W        W77717  27.589  17.180   2.196
18215W        W77718  24.647  20.559   2.692
18216W        W77719  39.888  39.380  12.850
18217W        W77720  31.015  43.386   2.889
18218W        W77721   7.769   0.355   0.308
18219W        W77722  21.568  16.589  14.970
18220W        W77723  10.276  14.783  10.447
18221W        W77724  18.061   6.801  10.520
18222W        W77725  34.067   6.685   4.150
18223W        W77726  34.538   4.745   2.249
18224W        W77727  35.983  26.957   4.161
18225W        W77728   8.845  19.764  12.835
18226W        W77729   0.986   4.860   3.146
18227W        W77730  33.395  25.500   4.624
18228W        W77731   7.201  14.325   3.179
18229W        W77732  21.165  34.513   1.925
18230W        W77733   4.862  29.071  11.423
18231W        W77734   3.917  14.119  14.285
18232W        W77735  17.207  34.518   0.406
18233W        W77736  35.909  23.155   1.305
18234W        W77737   3.943  13.744   0.338
18235W        W77738  23.001  40.805   3.223
18236W        W77739  25.104   4.450  13.462
18237W        W77740   2.323  18.152  11.898
18238W        W77741   9.202  17.210  14.971
18239W        W77742  41.846   7.393   4.621
18240W        W77743  23.163  31.569  13.917
18241W        W77744   8.869   3.860   2.865
18242W        W77745   3.844   3.834   2.350
18243W        W77746  27.454  41.330  13.454
18244W        W77747  44.477  26.154  13.908
18245W        W77748  22.527  40.803   3.275
18246W        W77749   7.353  26.589  13.435
18247W        W77750   2.801  32.551   1.355
18248W        W77751   5.847   5.380  10.919
18249W        W77752  13.816  26.674   0.282
18250W        W77753  17.133  17.068   1.287
18251W        W77754  26.686  42.862   4.653
18252W        W77755  28.539  18.264   1.757
18253W        W77756  38.479  38.918  11.603
18254W        W77757   4.324  22.147   1.321
18255W        W77758   5.222  18.624  14.303
18256W        W77759  16.775  42.030  12.824
18257W        W77760   7.323  13.724   0.333
18258W        W77761  39.030  20.595   1.722
18259W        W77762  38.970  22.060   3.257
18260W        W77763   5.896  28.128   3.717
18261W        W77764  20.046  28.455  12.040
18262W        W77765   5.229  43.371   4.309
18263W        W77766  35.397  36.013  14.018
18264W        W77767  40.462  37.399  11.015
18265W        W77768  41.023   9.695  14.336
18266W        W77769  28.093  30.071   2.711
18267W        W77770   8.700  37.004   1.704
18268W        W77771  22.125   2.727   2.713
18269W        W77772  39.326  18.641   0.950
18270W        W77773  25.201  30.638   1.926
18271W        W77774  32.958  10.724   0.256
18272W        W77775   4.438  26.146   0.292
18273W        W77776   3.298   1.393  12.008
18274W        W77777  29.505   3.916  12.351
18275W        W77778  38.878  32.447   4.681
18276W        W77779  41.031   1.913  13.438
18277W        W77780  42.987  34.949  14.449
18278W        W77781  30.082  18.763  11.577
18279W        W77782  11.868  24.054  11.888
18280W        W77783  14.178  44.867   0.319
18281W        W77784  27.042  38.538  13.888
18282W        W77785  24.724  23.594  12.025
18283W        W77786  13.825  28.592  11.017
18284W        W77787  16.143   4.710   3.227
18285W        W77788   0.971  17.068  12.938
18286W        W77789  34.400  32.546   0.382
18287W        W77790  33.010  16.688   2.830
18288W        W77791   3.296  18.644   4.604
18289W        W77792  33.951  11.233  14.797
18290W        W77793  31.407   5.906  13.059
18291W        W77794   7.196  18.291  12.851
18292W        W77795  30.910  20.670   1.721
18293W        W77796   4.290   5.426  12.443
18294W        W77797  25.638  12.852  12.580
18295W        W77798  33.452  28.600   2.867
18296W        W77799  30.048   5.813   1.801
18297W        W77800  35.447  30.614  13.004
18298W        W77801   7.296   7.353   0.764
18299W        W77802  26.660  23.562   4.170
18300W        W77803  14.295  15.691   1.385
18301W        W77804  41.888  44.379  11.951
18302W        W77805  27.032  16.295   2.277
18303W        W77806  42.903  32.521   2.214
18304W        W77807  26.474  28.526  10.581
18305W        W77808  37.397  39.011  12.516
18306W        W77809   1.757  28.949  12.484
18307W        W77810  13.246  27.088  13.857
18308W        W77811   4.728   3.397  14.506
18309W        W77812  13.692  23.115   3.680
18310W        W77813  24.203  28.652  12.368
18311W        W77814   7.189  37.392  14.499
18312W        W77815  10.241  10.218   1.348
18313W        W77816  24.521  28.104   2.213
18314W        W77817   7.717   7.350   5.274
18315W        W77818  30.418  35.969   4.659
18316W        W77819   9.787  16.145  13.024
18317W        W77820  27.963   3.955  13.926
18318W        W77821  27.456  28.638  14.838
18319W        W77822  18.185  13.314   4.152
18320W        W77823  21.078  43.835  14.796
18321W        W77824   7.236  37.515  12.384
18322W        W77825  26.173  17.198  12.005
18323W        W77826  41.933  36.581  14.906
18324W        W77827  17.649  12.754   3.788
18325W        W77828  18.777  18.219   3.251
18326W        W77829   7.197  38.062   2.774
18327W        W77830   6.908  14.820   0.480
18328W        W77831  42.778  41.324   2.273
18329W        W77832  27.174  24.073  10.964
18330W        W77833   5.781   0.833   4.766
18331W        W77834  18.054  37.509   3.812
18332W        W77835  29.655  43.443  13.803
18333W        W77836   1.793  43.851  14.475
18334W        W77837  18.137  29.089  13.528
18335W        W77838   3.367   5.868   1.709
18336W        W77839   5.322  24.632   0.361
18337W        W77840  30.026  18.722  13.444
18338W        W77841  17.163  40.891   2.305
18339W        W77842  10.242   5.197   2.695
18340W        W77843  43.396   9.796   2.319
18341W        W77844  32.399  39.973   4.769
18342W        W77845  44.478  20.117   2.355
18343W        W77846  10.168  34.091  11.900
18344W        W77847   2.467  30.440   3.746
18345W        W77848  24.585  31.438  11.924
18346W        W77849  18.062  36.986   0.732
18347W        W77850   5.776  11.297  14.000
18348W        W77851  35.492   0.466  14.357
18349W        W77852  32.965  39.396   3.653
18350W        W77853  10.663  10.256  14.364
18351W        W77854  16.589  38.820   2.306
18352W        W77855  38.440  14.743   2.318
18353W        W77856  20.095  31.039   3.291
18354W        W77857  17.704  11.823  10.579
18355W        W77858   7.732  36.863  11.378
18356W        W77859  29.059  41.793   2.711
18357W        W77860  30.153  20.621   4.771
18358W        W77861  40.804  19.152   0.285
18359W        W77862  39.989   1.951   0.380
18360W        W77863  14.668  27.447   3.772
18361W        W77864  26.989   1.790  12.912
18362W        W77865   6.301   5.753   4.827
18363W        W77866  23.530  23.181   2.307
18364W        W77867   3.309  22.096  12.035
18365W        W77868   2.742   2.938   4.174
18366W        W77869  33.033  20.075  13.530
18367W        W77870  26.577   4.278  13.463
18368W        W77871  13.259  34.870   3.267
18369W        W77872  10.149   3.276  13.431
18370W        W77873  30.442  26.649  14.872
18371W        W77874  30.015  18.078  14.459
18372W        W77875  19.544  36.996  10.489
18373W        W77876  30.022  25.540  14.290
18374W        W77877  25.001  24.993  11.052
18375W        W77878  43.417  28.972   2.850
18376W        W77879  37.343  32.090   1.729
18377W        W77880  40.493   9.862   2.704
18378W        W77881  33.985  20.624  10.561
18379W        W77882  43.975  33.597   3.309
18380W        W77883  42.790  10.708   2.331
18381W        W77884  39.390  11.775   1.252
18382W        W77885  36.579  39.523  14.425
18383W        W77886  16.291  27.478  10.526
18384W        W77887  38.429   9.788   3.301
18385W        W77888  42.003  41.339   1.347
18386W        W77889  19.100  17.128   3.732
18387W        W77890  18.261  19.210   3.791
18388W        W77891  25.086  12.646  11.914
18389W        W77892  32.480  14.267  10.542
18390W        W77893  21.112  16.730  14.504
18391W        W77894   2.771  22.154  12.883
18392W        W77895  26.519  30.495   0.911
18393W        W77896  21.668   0.286  14.962
18394W        W77897   5.766  44.917   2.298
18395W        W77898   0.424  40.498  12.017
18396W        W77899  23.577  24.520   1.816
18397W        W77900  17.572  35.013  12.984
18398W        W77901  25.155   6.231  10.994
18399W        W77902  41.425  14.271  11.922
18400W        W77903   4.216  43.409  13.906
18401W        W77904  10.303  17.792  10.942
18402W        W77905  24.108   8.331   2.369
18403W        W77906  37.014   6.318  13.823
18404W        W77907  12.686  44.979   2.237
18405W        W77908   1.855  23.674   3.766
18406W        W77909   4.368  19.073   3.244
18407W        W77910  44.769  13.745   2.363
18408W        W77911  25.569  42.813  10.092
18409W        W77912  17.193  15.281   2.737
18410W        W77913  28.450  43.892   2.837
18411W        W77914   2.756  44.941   2.196
18412W        W77915  41.381  21.570  10.910
18413W        W77916  31.558  22.532   2.832
18414W        W77917  22.110  33.128   1.362
18415W        W77918   2.844  36.474  10.926
18416W        W77919   2.310  18.263   0.349
18417W        W77920   6.184  29.530   0.795
18418W        W77921  11.786  19.087  13.527
18419W        W77922  39.051  43.932   4.122
18420W        W77923  42.999  11.792  12.452
18421W        W77924  32.572  38.862   3.805
18422W        W77925  30.131  21.059  10.937
18423W        W77926   3.823  41.493   3.258
18424W        W77927  29.615  28.664  11.490
18425W        W77928  21.731   2.389   4.198
18426W        W77929   9.380  41.437   4.134
18427W        W77930  10.358  16.620  14.776
18428W        W77931  34.963  17.801   1.299
18429W        W77932   4.397  30.019   0.288
18430W        W77933  36.509  27.580   4.660
18431W        W77934  14.736  33.974   1.354
18432W        W77935  41.953   5.920   3.645
18433W        W77936  14.611  24.674   0.314
18434W        W77937  35.944  30.470  11.905
18435W        W77938  26.190  33.909   2.214
18436W        W77939   7.756  23.647   3.811
18437W        W77940  13.166  27.464   0.444
18438W        W77941  39.892  10.246   2.875
18439W        W77942  37.480   9.247  12.569
18440W        W77943   9.825  29.637   4.343
18441W        W77944  42.416  10.251  11.061
18442W        W77945   2.931  24.044  14.017
18443W        W77946   6.265  29.150  11.914
18444W        W77947  19.747  41.936   1.222
18445W        W77948  13.216  17.762   3.153
18446W        W77949  39.535  34.956  12.417
18447W        W77950  13.722   9.654   0.797
18448W        W77951   1.976  29.606  14.443
18449W        W77952   4.405  12.266   1.710
18450W        W77953  10.369  16.253  12.845
18451W        W77954  40.045  25.993  10.619
18452W        W77955  31.587  31.619  11.567
18453W        W77956   1.460   4.216  10.411
18454W        W77957  12.810  26.693  12.437
18455W        W77958  27.569   0.296   0.858
18456W        W77959   2.463  30.025  13.875
18457W        W77960  40.047  26.158  14.504
18458W        W77961   9.844  30.634   0.794
18459W        W77962  19.777  13.650   3.772
18460W        W77963  29.949  20.210   2.184
18461W        W77964  42.361  37.438   1.294
18462W        W77965   8.230  38.548   0.285
18463W        W77966  14.131   1.969   1.844
18464W        W77967  33.917  41.833  13.821
18465W        W77968  13.731  10.300  13.921
18466W        W77969  43.874  17.243  10.433
18467W        W77970  36.370   3.342  10.888
18468W        W77971  10.138  30.496   0.775
18469W        W77972  38.464  24.580   3.741
18470W        W77973  40.951  22.707   4.205
18471W        W77974  36.912  39.891   4.303
18472W        W77975   8.265  36.995  13.325
18473W        W77976  10.317  16.274   5.207
18474W        W77977  38.024   5.206   4.755
18475W        W77978  35.916  33.077  10.895
18476W        W77979   9.689   7.784  13.496
18477W        W77980  15.255  27.523  13.383
18478W        W77981  11.832   4.336   1.382
18479W        W77982  27.508  23.030  13.920
18480W        W77983  22.506  22.739  10.600
18481W        W77984  28.933  32.493  13.365
18482W        W77985  36.502  13.130   3.756
18483W        W77986  31.548  14.267  13.907
18484W        W77987  31.124  12.129   0.443
18485W        W77988  41.480  27.997   3.260
18486W        W77989  38.387  33.962   2.201
18487W        W77990  28.953  20.683   4.653
18488W        W77991  44.975   3.876  14.277
18489W        W77992   1.819  22.092  12.841
18490W        W77993   3.298  35.570  10.577
18491W        W77994  19.074  23.644   1.715
18492W        W77995  11.158  26.026   1.748
18493W        W77996  15.787  36.094   1.705
18494W        W77997  12.615  26.047   2.800
18495W        W77998   1.954  43.325   0.876
18496W        W77999  22.576  40.432   2.351
18497W        W78000  11.677   0.313   2.252
18498W        W78001  44.443  21.234  13.932
18499W        W78002  36.939  12.147  14.870
18500W        W78003  20.599   8.298   3.630
18501W        W78004  22.202  43.935   0.827
18502W        W78005  33.621  11.254   1.372
18503W        W78006  41.492  43.398  13.528
18504W        W78007  13.229  12.737   3.701
18505W        W78008  33.012   9.212  12.543
18506W        W78009  27.972  18.264  13.984
18507W        W78010  18.615  20.080   0.409
18508W        W78011   7.738  27.987  13.475
18509W        W78012  42.853  21.691   0.323
18510W        W78013  30.644  21.643   0.269
18511W        W78014   6.741   7.386  14.325
18512W        W78015  34.906   5.204  11.479
18513W        W78016  40.452  10.232   3.838
18514W        W78017   3.216  16.573   4.732
18515W        W78018   0.494  22.617  11.992
18516W        W78019   5.751  25.711   3.754
18517W        W78020   1.374  41.433  13.809
18518W        W78021  15.274   7.280   3.788
18519W        W78022  38.861  20.645   0.248
18520W        W78023  30.582  44.767  14.927
18521W        W78024  36.390   4.211   2.822
18522W        W78025  24.590  22.532   4.705
18523W        W78026   5.919  21.560   3.684
18524W        W78027  41.944  10.840  10.635
18525W        W78028  25.557  34.101   4.815
18526W        W78029  42.799  15.705   2.677
18527W        W78030  35.975  28.671  14.798
18528W        W78031  11.699  16.203  12.963
18529W        W78032  26.636  34.603   4.827
18530W        W78033  18.636   0.299   4.219
18531W        W78034  22.240  10.834   3.859
18532W        W78035   1.744   4.217  10.482
18533W        W78036  33.993  27.554   4.348
18534W        W78037   6.348  12.706   5.145
18535W        W78038  36.043  43.929  14.943
18536W        W78039  32.907  43.441   0.915
18537W        W78040  42.010  39.970  14.812
18538W        W78041  31.432   1.867   4.694
18539W        W78042  43.825  25.219  11.066
18540W        W78043  27.174  39.834  11.931
18541W        W78044  17.131  36.071   1.221
18542W        W78045  38.469  28.154  10.918
18543W        W78046  20.669  13.125   0.297
18544W        W78047  17.595  37.015  11.606
18545W        W78048  19.085  21.220   4.303
18546W        W78049  38.361  18.266   4.706
18547W        W78050  23.712  14.298  12.562
18548W        W78051   3.298   6.796   1.437
18549W        W78052  19.752   5.358  11.908
18550W        W78053  37.371  26.086   2.751
18551W        W78054  36.497   7.275  12.841
18552W        W78055   8.201  36.996  14.921
18553W        W78056   7.394  23.704   0.789
18554W        W78057  39.526  32.474   4.834
18555W        W78058  31.625  12.667  12.968
18556W        W78059   6.712  25.131   2.224
18557W        W78060   2.819  40.347   3.370
18558W        W78061  40.804  29.503  10.968
18559W        W78062  37.511   8.246  12.522
18560W        W78063  24.134   4.759   4.302
18561W        W78064  24.024   8.799   1.280
18562W        W78065  42.293  28.517   1.316
18563W        W78066  19.052  10.212   0.426
18564W        W78067  40.049   6.391  10.926
18565W        W78068  14.744  38.364   4.607
18566W        W78069  28.525  15.204  14.420
18567W        W78070   8.299   9.153  12.445
18568W        W78071  14.590  18.183  11.460
18569W        W78072  24.643  13.688   3.263
18570W        W78073  10.791  17.659   2.331
18571W        W78074  44.835  31.489  10.962
18572W        W78075   0.277  28.531  13.852
18573W        W78076  26.178  36.361   2.811
18574W        W78077  15.282  29.092  12.444
18575W        W78078  17.244   4.335  11.893
18576W        W78079  28.183  36.974  11.493
18577W        W78080   5.772  40.537   3.644
18578W        W78081   8.283   9.707  13.055
18579W        W78082  32.112  18.776  10.616
18580W        W78083  31.446  22.072   4.255
18581W        W78084  44.791  32.960  10.413
18582W        W78085   9.288  29.537   1.399
18583W        W78086  31.031  40.479   2.785
18584W        W78087   2.896  26.547  12.368
18585W        W78088  13.184  29.124  13.819
18586W        W78089  21.610  25.710   1.354
18587W        W78090   7.798  33.413  12.834
18588W        W78091   4.337  23.549   1.859
18589W        W78092  15.247   2.931  13.462
18590W        W78093  32.626  32.006  10.512
18591W        W78094  42.886  21.128   1.356
18592W        W78095   5.202  31.912  12.069
18593W        W78096  34.455  30.505  12.456
18594W        W78097  18.141  41.808  11.457
18595W        W78098  39.045  18.569   5.320
18596W        W78099   0.763  19.572   2.771
18597W        W78100  21.651  26.954   4.752
18598W        W78101   1.463  34.882  11.538
18599W        W78102  12.323  36.389  12.569
18600W        W78103  10.294  14.649   5.181
18601W        W78104  30.490  14.633   1.775
18602W        W78105  39.018  26.612   5.185
18603W        W78106  22.035  34.572  11.564
18604W        W78107  16.657  27.072  12.492
18605W        W78108  33.885  24.163   0.298
18606W        W78109  28.663  23.116  11.117
18607W        W78110  25.073   6.298  14.277
18608W        W78111   3.722  31.433   4.138
18609W        W78112  29.161  28.574   2.194
18610W        W78113  28.604  16.755   3.216
18611W        W78114  19.753  12.341  10.993
18612W        W78115  25.198  39.950  10.579
18613W        W78116   9.349   1.332   0.751
18614W        W78117  24.153  35.405   4.648
18615W        W78118  13.154  26.461  13.969
18616W        W78119  30.107  26.994   2.204
18617W        W78120  17.590   8.799   0.795
18618W        W78121  28.029  26.990  13.524
18619W        W78122  41.916  16.728  12.841
18620W        W78123  31.086  41.980   0.859
18621W        W78124  30.587  29.005  12.090
18622W        W78125  42.826  41.465  10.603
18623W        W78126  19.143  34.554  11.056
18624W        W78127   2.799  12.616   3.208
18625W        W78128   2.422   2.892  11.583
18626W        W78129  34.593  18.578  12.066
18627W        W78130  43.005  28.667   1.737
18628W        W78131  37.434  24.225  14.314
18629W        W78132  19.613  39.031   5.147
18630W        W78133  42.492  36.561  10.902
18631W        W78134  12.264   2.416  12.011
18632W        W78135  37.544  14.207  13.361
18633W        W78136  18.694  18.721  10.503
18634W        W78137  32.946  39.927  10.543
18635W        W78138  37.342  23.056   2.301
18636W        W78139  27.488  19.666   1.886
18637W        W78140  30.931  33.926   4.729
18638W        W78141  22.746  20.530  13.420
18639W        W78142  15.153  19.283   3.295
18640W        W78143   5.894  32.448  11.084
18641W        W78144  29.521   3.261   9.938
18642W        W78145   5.887   3.365   2.662
18643W        W78146   7.173  37.457   0.404
18644W        W78147  25.138  11.826  10.596
18645W        W78148  24.543  37.509   4.672
18646W        W78149  39.556   0.746   3.340
18647W        W78150  44.836  22.705  11.458
18648W        W78151   9.388  19.110  12.446
18649W        W78152  42.479  38.076  11.375
18650W        W78153  13.170  30.522   2.782
18651W        W78154  34.504  24.574   4.803
18652W        W78155   7.183   8.226   1.856
18653W        W78156  43.892   4.413  12.007
18654W        W78157   7.336   7.404  13.498
18655W        W78158   5.433  34.610  14.964
18656W        W78159  38.540  11.752  10.596
18657W        W78160  37.426  32.430  11.973
18658W        W78161  27.027  12.649   3.754
18659W        W78162  35.418   1.264  11.002
18660W        W78163   2.330   6.885  12.438
18661W        W78164   2.228  35.455   2.757
18662W        W78165   5.836   5.810  10.497
18663W        W78166   4.844  38.529   1.263
18664W        W78167  18.186  10.324   1.344
18665W        W78168  21.071  40.418   5.314
18666W        W78169   1.953  13.660   3.728
18667W        W78170  17.659  40.004   4.633
18668W        W78171  37.374  21.701  13.993
18669W        W78172  35.913  19.252   2.252
18670W        W78173  26.115   0.762   3.379
18671W        W78174  40.510   9.355  12.945
18672W        W78175  36.999  17.085  12.017
18673W        W78176  43.440   1.328  13.973
18674W        W78177  30.516  25.524  10.645
18675W        W78178  39.334   0.396   0.327
18676W        W78179  30.514  12.249   0.847
18677W        W78180  30.110  19.168  10.567
18678W        W78181  14.282  26.697  13.059
18679W        W78182  19.223  34.470  13.315
18680W        W78183  38.544   4.381   0.869
18681W        W78184  11.139  25.492   1.920
18682W        W78185   1.951  20.579  12.386
18683W        W78186  33.617   0.449   1.896
18684W        W78187  33.920  28.508  11.586
18685W        W78188  34.389  32.936  13.323
18686W        W78189  16.672  20.645   4.271
18687W        W78190   6.196  24.715   2.271
18688W        W78191  20.547  16.247  11.573
18689W        W78192  19.046  20.576  12.045
18690W        W78193  26.136  31.521  11.122
18691W        W78194  32.110  29.007   0.411
18692W        W78195   4.448   8.293   0.766
18693W        W78196  35.400  23.130   2.678
18694W        W78197   5.440  34.873  10.474
18695W        W78198  32.495  19.265  11.424
18696W        W78199  16.633  33.885  12.579
18697W        W78200  30.102  42.909  11.995
18698W        W78201  14.617  11.362  10.593
18699W        W78202  39.953  37.349  14.509
18700W        W78203  20.160  13.184   4.746
18701W        W78204  25.609  35.051  11.093
18702W        W78205  18.181  11.238  12.434
18703W        W78206  12.204  24.663   0.817
18704W        W78207  29.134  26.046   5.566
18705W        W78208  19.752  11.152   3.839
18706W        W78209  19.221   4.904  11.494
18707W        W78210  35.556  13.674  14.845
18708W        W78211   8.378   4.218  14.451
18709W        W78212  25.066   5.827  11.915
18710W        W78213  26.582  32.127  11.584
18711W        W78214  14.321  14.617   4.806
18712W        W78215   8.264  44.945   4.637
18713W        W78216  34.057  10.272   4.263
18714W        W78217  35.916  11.353  12.362
18715W        W78218  44.959  15.300   1.753
18716W        W78219  16.132  27.544   0.463
18717W        W78220   7.314   6.870   2.216
18718W        W78221  17.614  19.041   4.696
18719W        W78222  20.729  37.908  14.758
18720W        W78223  28.679   3.348  14.982
18721W        W78224  33.879  27.615   5.584
18722W        W78225  23.048  41.856   1.386
18723W        W78226  23.094  24.216  12.446
18724W        W78227  28.581  24.099   0.246
18725W        W78228  30.023  26.564   1.900
18726W        W78229  22.623  30.164   0.389
18727W        W78230  31.981  29.969   3.316
18728W        W78231   6.423  28.486   0.355
18729W        W78232  18.272  17.710  11.089
18730W        W78233  38.509  29.097  14.938
18731W        W78234  36.959  30.057  11.936
18732W        W78235  30.432  12.281   2.308
18733W        W78236   9.843  14.135   2.417
18734W        W78237  43.324  37.432   1.297
18735W        W78238  13.608  19.779  14.825
18736W        W78239  13.346  44.283  12.887
18737W        W78240  44.348  24.127   2.842
18738W        W78241  28.016  14.744   0.743
18739W        W78242  13.715  36.096  10.447
18740W        W78243  27.647   5.424   1.921
18741W        W78244  35.104   3.282   2.328
18742W        W78245  19.629  24.100   3.835
18743W        W78246  42.297  39.431  14.333
18744W        W78247  20.675   7.697   3.786
18745W        W78248  39.991  30.522   3.834
18746W        W78249   5.909  42.895   1.731
18747W        W78250   5.801  29.919   3.696
18748W        W78251  11.153  42.870   4.651
18749W        W78252  27.040  14.714   0.945
18750W        W78253  17.127  35.460   1.225
18751W        W78254  43.917  24.984   1.781
18752W        W78255  43.443  11.288   2.327
18753W        W78256  39.025  13.122   0.759
18754W        W78257  44.452   6.761  12.933
18755W        W78258  28.181  27.514  11.375
18756W        W78259  24.177   7.785   2.796
18757W        W78260   9.227   8.795  13.424
18758W        W78261   6.191   5.882   1.260
18759W        W78262  13.209  24.030   2.345
18760W        W78263  21.230  42.929   0.351
18761W        W78264   8.729  38.999   2.252
18762W        W78265  42.414  25.982   2.735
18763W        W78266   7.791   3.257  10.028
18764W        W78267  26.505  17.738   1.759
18765W        W78268  39.359   8.769   2.686
18766W        W78269  23.552  25.142   0.864
18767W        W78270   7.286  21.756   3.690
18768W        W78271  36.004  26.007  11.959
18769W        W78272  16.307   5.833   3.704
18770W        W78273  12.298  43.283  11.082
18771W        W78274  17.122   6.700   3.833
18772W        W78275  29.565  44.942   0.285
18773W        W78276  19.779  11.164  10.016
18774W        W78277   2.227  16.631  12.980
18775W        W78278   1.904   6.272  13.368
18776W        W78279  29.990  27.603   0.859
18777W        W78280  14.332   2.417   1.835
18778W        W78281  42.822   2.924   3.309
18779W        W78282  21.736  11.763   2.804
18780W        W78283  31.450  36.868   0.792
18781W        W78284   5.719   6.282  14.429
18782W        W78285  25.661  22.653  12.898
18783W        W78286  43.488   1.948   3.160
18784W        W78287  13.235  12.623   0.747
18785W        W78288  28.169  26.549  14.854
18786W        W78289  32.447  20.575   4.235
18787W        W78290  11.697  17.298   3.169
18788W        W78291  37.085  38.941   1.786
18789W        W78292  12.212  26.153  13.389
18790W        W78293  17.166  38.354  10.938
18791W        W78294   2.877  31.995   4.763
18792W        W78295  25.704  17.203  10.550
18793W        W78296  32.518   9.870   4.682
18794W        W78297   0.387  44.770   2.902
18795W        W78298   1.385  34.440  11.075
18796W        W78299  10.303   6.234   0.940
18797W        W78300  17.301  38.366  13.043
18798W        W78301   9.298  26.469   1.706
18799W        W78302  14.252  10.260   2.267
18800W        W78303   6.833  42.430  13.311
18801W        W78304  32.449  15.171  12.081
18802W        W78305   1.818  37.962  13.338
18803W        W78306  35.962  29.561  13.322
18804W        W78307   3.843  44.440   3.187
18805W        W78308  18.246  22.603   3.262
18806W        W78309  11.649  24.977  12.579
18807W        W78310  14.213  23.159   1.781
18808W        W78311   3.952  18.614   1.791
18809W        W78312  23.556   6.803   0.778
18810W        W78313  16.149  43.892  11.059
18811W        W78314  33.410  20.164  12.918
18812W        W78315  43.804  23.147   1.326
18813W        W78316   2.781  41.946   4.177
18814W        W78317  36.527  35.543  11.021
18815W        W78318  25.070  12.675  14.975
18816W        W78319  20.660   9.272  10.954
18817W        W78320  18.615   6.184   5.107
18818W        W78321  34.538  22.511  11.589
18819W        W78322   6.796  21.111  11.393
18820W        W78323  12.690  34.093  14.783
18821W        W78324  38.940  15.098  10.063
18822W        W78325  39.535  12.360  12.931
18823W        W78326   6.787  37.020   3.833
18824W        W78327  43.812  16.812   3.642
18825W        W78328  43.002  34.376  12.424
18826W        W78329  21.218  22.665  11.508
18827W        W78330  29.930  28.117   2.730
18828W        W78331  43.439  26.049  14.512
18829W        W78332  19.549  28.631   3.226
18830W        W78333   1.808  42.846  12.392
18831W        W78334  10.717  27.692  13.057
18832W        W78335  24.199  11.249  13.495
18833W        W78336  18.657  23.190  14.286
18834W        W78337  32.920  31.602   1.434
18835W        W78338  33.879  15.803  12.404
18836W        W78339   5.883  10.183   2.874
18837W        W78340  32.994  31.925   0.836
18838W        W78341  44.996  44.341  13.477
18839W        W78342   3.806   8.878  13.027
18840W        W78343  29.068  33.433   3.178
18841W        W78344  36.357  27.161  13.831
18842W        W78345  24.094  13.144  11.059
18843W        W78346   6.227  23.093   2.786
18844W        W78347  43.001  15.800   4.627
18845W        W78348  39.912  32.610   1.822
18846W        W78349  42.810  42.505   2.297
18847W        W78350  22.041   4.738   1.329
18848W        W78351  24.565  40.943   4.766
18849W        W78352   7.223  31.436  13.946
18850W        W78353  13.772   8.222   0.286
18851W        W78354  32.135  37.380   3.337
18852W        W78355  36.528  25.484  14.906
18853W        W78356  44.356  25.006   3.230
18854W        W78357  42.525   7.362  15.000
18855W        W78358  14.129  41.029   2.312
18856W        W78359  29.054  19.069  12.006
18857W        W78360  15.736   1.770  13.950
18858W        W78361   3.796   8.879  10.510
18859W        W78362   3.324  16.312  14.946
18860W        W78363  23.546   7.840  12.888
18861W        W78364   2.800  26.661   3.206
18862W        W78365  18.145  13.115  10.467
18863W        W78366  26.093  35.408  13.853
18864W        W78367  43.012  32.964   3.274
18865W        W78368  40.327  25.710   2.334
18866W        W78369  10.644  44.408  11.421
18867W        W78370  38.461  26.551  14.861
18868W        W78371  39.810  13.185  13.424
18869W        W78372  44.764  24.112   3.355
18870W        W78373  37.428   4.707  12.088
18871W        W78374   9.354  34.120   4.171
18872W        W78375  25.082   0.959  13.377
18873W        W78376   3.746  30.078  13.433
18874W        W78377  25.621  14.820  13.972
18875W        W78378  29.146  41.298  10.618
18876W        W78379   8.739  24.013  10.629
18877W        W78380  40.980  26.606   2.870
18878W        W78381  32.991  38.485  12.868
18879W        W78382  19.277  24.126  10.409
18880W        W78383  16.172  25.081   4.693
18881W        W78384  21.584   2.721  12.366
18882W        W78385  21.524   1.387  12.870
18883W        W78386   9.244  40.979  10.478
18884W        W78387   4.389  30.053   1.275
18885W        W78388  20.128   8.229  11.077
18886W        W78389  37.968   8.708  13.386
18887W        W78390  29.172   3.433   0.376
18888W        W78391  39.345  15.296  11.459
18889W        W78392  26.480  36.888   1.389
18890W        W78393   4.737  41.523   2.771
18891W        W78394  23.569  28.569  14.458
18892W        W78395  24.626  12.135  11.418
18893W        W78396   1.780  12.808   1.769
18894W        W78397  23.188  33.550  11.856
18895W        W78398  29.967  34.084   2.843
18896W        W78399  32.435  32.047   3.817
18897W        W78400   3.867  10.337   2.248
18898W        W78401  10.704  38.878   2.397
18899W        W78402  26.572   0.791   2.703
18900W        W78403  43.327  29.609   0.933
18901W        W78404  16.121  37.413  12.001
18902W        W78405  25.979  39.337   1.925
18903W        W78406   9.652  42.888  10.512
18904W        W78407  16.095   1.419   3.742
18905W        W78408  27.540  26.515   2.818
18906W        W78409  11.310  41.441   4.604
18907W        W78410  17.092  31.598   1.883
18908W        W78411   6.201  38.969   0.407
18909W        W78412   5.851  32.547   2.864
18910W        W78413  15.767   4.814  13.032
18911W        W78414  33.979  22.614   3.719
18912W        W78415   6.752  37.869  12.056
18913W        W78416  20.700  43.381  14.798
18914W        W78417   8.700  29.569   2.719
18915W        W78418   9.201  20.063   1.697
18916W        W78419  17.649  10.867   3.147
18917W        W78420  20.590   6.420  12.997
18918W        W78421   3.908  22.234  10.446
18919W        W78422  41.530   0.378   1.860
18920W        W78423  43.368  23.098   0.417
18921W        W78424  29.094  32.533  11.466
18922W        W78425  43.828   5.736  10.956
18923W        W78426  18.737  23.726  11.035
18924W        W78427  19.651   2.229   1.760
18925W        W78428  37.354  10.858  13.001
18926W        W78429  39.836  32.945  14.455
18927W        W78430  19.257  35.588  13.442
18928W        W78431  26.649  44.277  13.468
18929W        W78432  31.002   1.752  12.558
18930W        W78433  15.255  12.278   1.303
18931W        W78434  25.067  19.246  10.897
18932W        W78435   6.867  33.027   4.635
18933W        W78436  12.815   2.418  12.911
18934W        W78437  34.380  27.025   2.183
18935W        W78438  44.947  44.317  10.489
18936W        W78439  25.545  25.123  13.934
18937W        W78440   3.280  31.527   1.926
18938W        W78441  42.481  30.002   1.847
18939W        W78442  27.452  13.720  11.591
18940W        W78443  32.429  29.519  12.569
18941W        W78444  28.951  16.248  10.906
18942W        W78445  19.199  10.741  14.797
18943W        W78446  20.629   8.283  11.886
18944W        W78447  14.233  35.543   1.350
18945W        W78448  43.364  33.559   4.695
18946W        W78449  11.763  19.777  14.886
18947W        W78450  39.503  40.932   2.393
18948W        W78451  29.543  17.621  11.935
18949W        W78452  19.165  25.061  14.882
18950W        W78453  29.462  23.058   1.303
18951W        W78454  40.326   5.882  12.459
18952W        W78455  21.642  27.074  11.912
18953W        W78456  21.752  14.748   2.299
18954W        W78457   0.767  23.710   1.751
18955W        W78458  43.829  21.642   1.784
18956W        W78459  44.831  22.728  10.923
18957W        W78460  41.311  17.797  12.919
18958W        W78461  39.545  19.057  14.355
18959W        W78462   9.322  23.147   2.863
18960W        W78463   0.804  44.956  13.520
18961W        W78464  10.673  32.043   0.798
18962W        W78465  30.616  42.385  14.914
18963W        W78466  23.045  21.746  13.861
18964W        W78467  23.557  30.113   0.811
18965W        W78468  30.104  36.559   3.220
18966W        W78469  38.953  40.961   4.335
18967W        W78470  12.744   5.296  12.942
18968W        W78471  35.567  18.104   1.370
18969W        W78472  10.766  44.335   0.460
18970W        W78473  14.591   0.328  13.453
18971W        W78474  17.752   0.282   4.747
18972W        W78475  30.003  20.574   4.344
18973W        W78476   2.940  32.539  10.625
18974W        W78477  26.624   9.326   0.932
18975W        W78478  31.962   0.285   1.903
18976W        W78479  26.600  17.713  11.877
18977W        W78480  27.992  21.044   2.824
18978W        W78481  29.057  27.963   4.820
18979W        W78482  16.728  39.356  13.436
18980W        W78483  41.848  41.332  11.077
18981W        W78484  22.121  39.055  13.415
18982W        W78485  21.165  35.364   4.346
18983W        W78486  42.930  22.197  14.014
18984W        W78487  17.172  39.407   1.378
18985W        W78488  26.011  34.557   1.728
18986W        W78489  27.039  13.108   1.255
18987W        W78490  44.330  41.788   0.953
18988W        W78491  43.806  33.046  13.374
18989W        W78492  43.468  37.895  12.471
18990W        W78493  10.757  19.056   0.463
18991W        W78494  31.001  22.683   0.841
18992W        W78495  30.565  14.716   0.871
18993W        W78496   4.816  42.479   3.635
18994W        W78497   0.251  44.958  14.919
18995W        W78498  18.244  16.679   4.229
18996W        W78499  25.578  14.598  11.562
18997W        W78500  34.523  24.594   3.762
18998W        W78501  10.796   5.285   1.929
18999W        W78502  30.929  32.052  13.477
19000W        W78503  20.625  13.223  12.436
19001W        W78504  36.911  19.556   3.849
19002W        W78505  19.596  44.426   2.709
19003W        W78506  21.148  39.850   0.928
19004W        W78507  31.145   1.311  13.955
19005W        W78508  24.537  27.984  12.063
19006W        W78509   4.229  23.018  13.423
19007W        W78510  37.042  32.464   2.805
19008W        W78511   6.885  42.495   2.304
19009W        W78512  36.366  40.342   3.728
19010W        W78513   6.826  34.969  11.964
19011W        W78514  17.069   7.727   1.857
19012W        W78515  41.972  11.226  10.622
19013W        W78516   4.932  30.010  14.428
19014W        W78517  13.315   9.674   2.236
19015W        W78518  36.384  28.639   2.676
19016W        W78519  24.626  33.458   0.355
19017W        W78520  15.268  33.442   2.354
19018W        W78521  14.793   3.259   1.338
19019W        W78522  17.188  20.120  12.913
19020W        W78523  44.382  28.566  13.999
19021W        W78524  16.609  14.828  14.480
19022W        W78525  40.028  39.350  13.419
19023W        W78526  37.565   5.908   3.699
19024W        W78527   6.341  21.572   0.959
19025W        W78528  34.048  43.858   2.301
19026W        W78529  26.125   1.454   5.716
19027W        W78530  21.041  41.386  11.509
19028W        W78531  32.959  34.470   3.195
19029W        W78532  30.422  19.181   2.381
19030W        W78533  43.472   6.886  12.073
19031W        W78534  20.250  10.288  12.357
19032W        W78535  37.855  40.510  14.829
19033W        W78536   3.217  38.978   0.358
19034W        W78537   8.836  13.302   4.132
19035W        W78538  20.260  38.886  12.344
19036W        W78539  16.673  32.124  13.871
19037W        W78540  37.377   3.255  12.879
19038W        W78541   4.262   0.837   1.284
19039W        W78542   4.741  43.294   2.775
19040W        W78543  36.405   4.790  10.894
19041W        W78544  23.231   9.735   0.342
19042W        W78545   3.912   0.872   5.730
19043W        W78546  40.358  13.237   4.656
19044W        W78547  24.155   1.269   0.347
19045W        W78548  31.101  10.876  12.468
19046W        W78549  32.496  32.420  12.433
19047W        W78550  38.845  38.018   2.813
19048W        W78551  18.257  39.502   0.403
19049W        W78552  26.566   5.263  11.953
19050W        W78553  42.306  27.554   3.822
19051W        W78554   5.864   6.688  11.388
19052W        W78555  35.925  41.971   1.376
19053W        W78556  37.374   8.871   3.633
19054W        W78557  15.175  16.182  10.419
19055W        W78558   5.221  33.426   3.676
19056W        W78559  29.996  36.351   0.399
19057W        W78560  35.461  22.596   3.802
19058W        W78561  30.486   6.919   2.409
19059W        W78562  16.158  28.078   4.147
19060W        W78563  23.135  27.683   3.289
19061W        W78564  35.069   5.215  13.035
19062W        W78565  13.271  29.547   3.674
19063W        W78566  32.028  35.525   9.952
19064W        W78567  21.624  31.549   3.377
19065W        W78568  33.055  27.649  12.567
19066W        W78569  36.995  44.467  10.518
19067W        W78570  19.255  35.906  10.452
19068W        W78571  24.651   2.840   4.230
19069W        W78572  22.626  16.213  13.431
19070W        W78573  34.393  12.199  10.928
19071W        W78574   9.848   6.362  14.476
19072W        W78575  36.056  11.191  10.495
19073W        W78576  13.229  18.154   1.386
19074W        W78577   0.432   2.819   0.837
19075W        W78578  10.778  26.674   2.690
19076W        W78579  33.559   7.354   2.381
19077W        W78580  30.581  33.480  10.957
19078W        W78581   9.683  27.545  13.824
19079W        W78582   8.213   6.704   2.890
19080W        W78583  37.542  43.821  14.968
19081W        W78584  11.371  18.784  14.279
19082W        W78585  34.535  32.606  10.474
19083W        W78586  41.498  33.574  13.021
19084W        W78587  17.098   2.829  11.452
19085W        W78588   7.234   6.272  13.969
19086W        W78589  42.027  20.611   4.753
19087W        W78590  39.374  40.415  11.091
19088W        W78591  39.919  36.442   0.866
19089W        W78592  34.949  41.873  13.902
19090W        W78593  21.186   6.778  11.602
19091W        W78594  44.848  31.416  10.494
19092W        W78595   2.806  25.170   2.192
19093W        W78596  22.079  34.958  11.421
19094W        W78597  14.105  11.656   1.235
19095W        W78598   9.660  16.579   0.274
19096W        W78599  28.468  21.657   4.656
19097W        W78600  24.085  24.104   0.356
19098W        W78601  39.328  10.284   9.962
19099W        W78602  17.601   7.362  11.539
19100W        W78603  25.008  11.339  13.801
19101W        W78604  10.140  13.688  12.974
19102W        W78605  35.852   3.916  12.984
19103W        W78606   7.681  22.740   2.871
19104W        W78607  43.778   8.212   0.829
19105W        W78608  33.560  28.076   1.725
19106W        W78609  43.986   5.225  14.818
19107W        W78610  44.988  43.326   1.735
19108W        W78611  18.176  20.610   0.939
19109W        W78612  18.604  37.943   1.416
19110W        W78613  30.626  39.449   2.193
19111W        W78614  16.079  18.151   4.287
19112W        W78615  11.790  15.229   3.213
19113W        W78616  36.563  16.236  11.001
19114W        W78617   2.868  14.634  12.010
19115W        W78618  36.868  33.614   1.835
19116W        W78619  34.908  38.948  14.300
19117W        W78620  37.384  25.096  10.592
19118W        W78621  34.522   9.684   2.803
19119W        W78622  37.406  26.477   4.243
19120W        W78623  25.122  22.070  11.910
19121W        W78624  23.530   0.364   2.231
19122W        W78625  12.242  33.105   2.678
19123W        W78626  35.077  35.936   0.339
19124W        W78627  22.587  42.876  13.037
19125W        W78628  44.995  15.647   4.117
19126W        W78629  39.540   9.655   2.738
19127W        W78630   7.351  21.085  14.016
19128W        W78631  19.584   9.204   5.184
19129W        W78632  23.022  11.855   3.842
19130W        W78633  44.341  33.410   3.699
19131W        W78634  19.757  27.173  14.275
19132W        W78635   2.244  31.130   4.162
19133W        W78636  33.111  34.545  11.019
19134W        W78637  14.180  11.644  11.014
19135W        W78638  19.651  18.663   5.177
19136W        W78639  16.088  28.674  13.380
19137W        W78640   2.368   0.493  12.975
19138W        W78641  44.770  24.635  13.995
19139W        W78642  12.324  11.261  13.060
19140W        W78643  44.382  17.740   0.758
19141W        W78644  44.388   6.905   3.666
19142W        W78645  25.045  31.147  12.349
19143W        W78646  43.406  17.743  10.134
19144W        W78647  15.106   5.700  12.058
19145W        W78648  15.198  43.998  10.462
19146W        W78649  44.496  31.575  12.077
19147W        W78650  41.395  11.209   0.336
19148W        W78651  13.789  31.142   1.707
19149W        W78652  39.042  22.162  13.038
19150W        W78653  16.121  43.902   1.860
19151W        W78654  25.544  14.782   0.344
19152W        W78655  36.367  28.039   4.267
19153W        W78656  21.204  19.663   5.110
19154W        W78657  23.076  10.648   4.748
19155W        W78658  12.737  29.040  11.052
19156W        W78659   2.753  15.285  14.914
19157W        W78660  31.644  43.001   5.182
19158W        W78661  15.234  22.565   1.262
19159W        W78662  23.017  29.952  12.432
19160W        W78663   7.798  35.915   3.822
19161W        W78664   0.928  14.163  13.353
19162W        W78665  32.506  18.561  13.523
19163W        W78666   2.749  20.250  13.446
19164W        W78667  15.156  11.185   0.361
19165W        W78668  40.838  21.611   2.225
19166W        W78669   3.771  12.727  12.458
19167W        W78670  28.479  20.202   0.772
19168W        W78671  34.957  28.006   3.667
19169W        W78672  30.067  41.029  10.978
19170W        W78673   2.290  25.088  14.792
19171W        W78674  25.003  36.966   0.314
19172W        W78675  42.961  40.891   0.819
19173W        W78676  31.524  27.512   2.775
19174W        W78677   6.318  40.541  14.363
19175W        W78678   0.269  37.369  14.487
19176W        W78679   0.349  30.108   2.255
19177W        W78680  14.197   8.377  13.810
19178W        W78681  30.929   9.655   4.322
19179W        W78682  21.746  37.371   3.688
19180W        W78683  19.157  14.226  14.329
19181W        W78684  14.299  25.623   0.962
19182W        W78685  36.989  43.844   3.839
19183W        W78686  39.431  42.461  12.409
19184W        W78687  25.502  23.052   1.287
19185W        W78688  20.103  25.120  11.860
19186W        W78689  37.458  33.554   0.276
19187W        W78690  21.068  23.987  14.794
19188W        W78691  27.659   4.824  12.577
19189W        W78692  30.528  30.055   0.760
19190W        W78693  35.366   3.320   2.313
19191W        W78694   5.862  36.374  10.516
19192W        W78695  19.225  22.228  14.951
19193W        W78696  21.057  40.485   4.267
19194W        W78697  19.558   3.254   2.818
19195W        W78698  29.940  35.442  13.380
19196W        W78699   5.240  35.092   0.733
19197W        W78700  23.639  21.676  10.949
19198W        W78701  29.056   7.398   2.894
19199W        W78702  26.661  24.083  13.027
19200W        W78703  25.198  44.478  14.999
19201W        W78704  38.872  44.384  12.830
19202W        W78705  32.930   1.430   0.383
19203W        W78706  36.057  33.053  13.479
19204W        W78707  44.328  44.947   2.240
19205W        W78708   7.368  16.754  12.513
19206W        W78709   3.370   7.405   1.269
19207W        W78710   3.381  19.216  12.893
19208W        W78711  28.154  31.082  12.827
19209W        W78712   7.778  29.973   2.307
19210W        W78713  29.924  41.418  11.430
19211W        W78714   7.357  42.336   2.729
19212W        W78715  15.682  28.070  12.341
19213W        W78716   5.872   2.793  13.533
19214W        W78717  13.781  18.123  10.921
19215W        W78718   4.838  20.099   4.733
19216W        W78719  12.836  20.568  13.323
19217W        W78720  14.747  31.404   4.348
19218W        W78721  25.587   4.929  13.046
19219W        W78722  44.502  11.219   2.216
19220W        W78723  17.306  28.963  12.025
19221W        W78724   3.822  19.675  11.937
19222W        W78725  12.219  24.976   2.766
19223W        W78726  16.115  37.521  12.941
19224W        W78727  25.077  33.945   2.217
19225W        W78728   9.386  33.035  13.313
19226W        W78729  31.948  28.092  13.474
19227W        W78730  13.119  42.777   4.218
19228W        W78731  23.542   5.821   0.424
19229W        W78732  41.930  23.642   0.762
19230W        W78733   7.341  22.198   4.684
19231W        W78734  16.110  31.942  14.302
19232W        W78735  11.624  18.682   1.415
19233W        W78736  39.529  30.957   3.195
19234W        W78737  14.281  18.627   4.627
19235W        W78738   8.672  39.008   1.442
19236W        W78739  15.582  28.675   4.325
19237W        W78740  24.059  33.404   3.345
19238W        W78741  32.473  36.085   1.730
19239W        W78742  28.503   1.784   1.341
19240W        W78743  20.221   7.679   3.222
19241W        W78744  25.523  16.207  11.951
19242W        W78745  12.266  16.599   4.681
19243W        W78746  43.271  12.835  10.479
19244W        W78747  33.541  17.594  14.933
19245W        W78748   9.689  37.039   3.713
19246W        W78749  26.697  40.049   0.965
19247W        W78750  30.955  30.456  11.012
19248W        W78751  36.449  13.339   2.339
19249W        W78752  39.979   0.433   4.825
19250W        W78753  40.542  18.589   5.168
19251W        W78754  19.185  14.689  13.339
19252W        W78755  44.268   0.804   4.265
19253W        W78756  26.508  15.786  11.923
19254W        W78757  15.607  23.683   1.336
19255W        W78758  41.311  44.953   1.931
19256W        W78759  19.093  26.586   3.287
19257W        W78760  44.418  26.992   3.155
19258W        W78761   0.985  11.797   9.929
19259W        W78762  36.359  22.554   1.290
19260W        W78763  35.385  32.103   2.280
19261W        W78764  19.285   7.237  10.979
19262W        W78765  28.635  32.908   0.866
19263W        W78766  41.534  33.927   2.804
19264W        W78767   9.287  30.453  11.405
19265W        W78768  22.185  10.212  11.581
19266W        W78769   8.815   5.384  13.344
19267W        W78770  19.041  20.616   3.694
19268W        W78771  13.632  42.832   2.417
19269W        W78772  33.441  30.008   4.252
19270W        W78773  17.061  25.614  11.029
19271W        W78774  41.837  29.950   3.694
19272W        W78775  37.844  42.775   4.821
19273W        W78776  21.613  43.415  14.479
19274W        W78777   6.409   9.808  14.328
19275W        W78778  34.409  21.618   1.863
19276W        W78779  20.545  44.771  10.642
19277W        W78780  33.067   0.272  11.581
19278W        W78781  31.581  38.513  11.856
19279W        W78782  25.067  15.709  14.324
19280W        W78783   4.412  19.661  11.076
19281W        W78784   1.362  44.806  11.903
19282W        W78785  10.142   8.873   3.242
19283W        W78786   0.892  39.866   0.369
19284W        W78787   9.742  30.117  11.998
19285W        W78788   1.405  10.143  12.580
19286W        W78789  37.367  36.511   1.709
19287W        W78790  25.218  31.142  13.932
19288W        W78791  35.586  15.812   2.862
19289W        W78792   0.984  24.571  14.491
19290W        W78793   2.383  22.220   4.339
19291W        W78794  16.231  36.860   0.430
19292W        W78795  38.029   1.768  13.884
19293W        W78796  32.116  32.576   1.322
19294W        W78797  24.107  28.545  14.819
19295W        W78798  14.704   5.762  10.967
19296W        W78799  42.471  41.501   2.736
19297W        W78800  16.175  38.544  12.538
19298W        W78801  10.225  10.277   1.898
19299W        W78802   4.843  32.609  10.543
19300W        W78803  13.807  35.879   4.690
19301W        W78804  22.527  28.951   3.335
19302W        W78805  40.022  20.267  12.350
19303W        W78806  44.387  36.534   4.838
19304W        W78807  18.140   8.852   2.842
19305W        W78808   2.298  17.281  14.492
19306W        W78809   9.868  26.060  14.464
19307W        W78810  21.053  43.419  12.470
19308W        W78811  19.721  32.563   0.404
19309W        W78812  42.382  40.502  11.613
19310W        W78813  36.975   3.405   0.815
19311W        W78814   1.914  42.395  14.465
19312W        W78815   8.211  38.060   2.205
19313W        W78816  38.024  19.091  12.512
19314W        W78817  15.127   6.724   0.910
19315W        W78818  22.223   3.936   2.356
19316W        W78819  36.077  37.993   0.735
19317W        W78820  33.578  23.077  11.608
19318W        W78821   4.212  23.118  14.374
19319W        W78822  22.574  29.136   2.741
19320W        W78823  33.943  34.906   0.248
19321W        W78824  24.701   0.774   2.732
19322W        W78825  20.051  11.307   2.677
19323W        W78826  44.447   2.279  14.822
19324W        W78827  42.829  38.038  13.485
19325W        W78828  25.969   7.826  14.762
19326W        W78829  16.268  38.887   4.706
19327W        W78830  19.195  31.978  14.476
19328W        W78831  27.078  24.572  12.935
19329W        W78832   2.456  31.130  10.036
19330W        W78833   2.778  19.044  14.357
19331W        W78834  29.619   2.764   0.882
19332W        W78835  13.267  41.382  12.856
19333W        W78836  43.911  21.567   0.253
19334W        W78837  27.446   5.811   0.418
19335W        W78838  11.666  37.491   1.380
19336W        W78839   1.291  19.265   2.720
19337W        W78840  31.087  16.318   1.421
19338W        W78841   2.913  25.042  13.310
19339W        W78842  27.589  31.988  10.632
19340W        W78843  16.784   5.739   0.835
19341W        W78844  11.795  15.622   0.732
19342W        W78845   8.825  24.659  14.014
19343W        W78846  31.950  18.246   4.805
19344W        W78847  15.756  34.109  11.871
19345W        W78848  41.828  40.920  13.535
19346W        W78849  14.673  44.341   1.425
19347W        W78850   0.878  31.926   3.846
19348W        W78851   8.270  11.227   0.357
19349W        W78852  25.551   9.376  11.550
19350W        W78853  34.073  17.581   4.296
19351W        W78854  10.651  32.957   3.731
19352W        W78855  40.428  35.548   4.152
19353W        W78856  10.195  26.006   3.356
19354W        W78857  26.975  28.567  11.993
19355W        W78858   9.755  38.965   1.722
19356W        W78859  36.497  24.560  11.606
19357W        W78860  33.003   5.274  14.769
19358W        W78861  19.274   2.879   3.227
19359W        W78862  43.789  10.234  12.927
19360W        W78863  17.111  17.682   4.123
19361W        W78864  37.515  33.403   4.708
19362W        W78865  16.576  15.162  10.570
19363W        W78866   8.660  42.008   4.690
19364W        W78867  17.199   9.159  14.476
19365W        W78868   8.172  17.231  11.591
19366W        W78869  43.958  43.354  12.459
19367W        W78870  28.498  26.615  10.970
19368W        W78871   5.689  44.268   0.367
19369W        W78872   5.293   0.814  12.962
19370W        W78873   2.242  25.975  13.871
19371W        W78874  40.912  43.012   1.863
19372W        W78875  36.095  42.880  12.526
19373W        W78876   9.832  41.022  12.997
19374W        W78877  44.484  32.085   4.129
19375W        W78878   8.322  34.878  14.344
19376W        W78879  17.796  28.091   1.337
19377W        W78880  27.629   8.174   1.344
19378W        W78881  21.174   5.417   0.400
19379W        W78882  35.380  27.665  13.407
19380W        W78883  18.227  20.091  11.055
19381W        W78884  16.621  12.299  14.402
19382W        W78885  28.639  32.086  12.359
19383W        W78886  14.797  26.484   0.845
19384W        W78887  33.978  21.565  13.947
19385W        W78888  25.130  12.333  10.910
19386W        W78889  34.507  34.034   0.286
19387W        W78890  32.932  29.070   4.750
19388W        W78891  42.480  31.561   2.808
19389W        W78892  13.200  33.118  13.421
19390W        W78893  40.479  29.549  13.006
19391W        W78894   2.406  34.390  10.475
19392W        W78895  38.472  11.260   4.649
19393W        W78896   6.846   3.771  11.050
19394W        W78897  25.101   3.454  11.392
19395W        W78898  41.983  17.575   1.232
19396W        W78899  33.957  20.058  14.869
19397W        W78900   0.822   0.303  11.382
19398W        W78901  10.725  19.208   3.156
19399W        W78902   9.672  42.299  11.981
19400W        W78903   8.355   4.931   2.805
19401W        W78904  41.994  24.567  12.346
19402W        W78905  10.864  30.137   0.738
19403W        W78906  33.935  26.198  13.437
19404W        W78907  26.658  32.437  11.955
19405W        W78908  16.236   2.468  11.568
19406W        W78909  38.474  43.409   4.762
19407W        W78910  27.945  42.334  11.440
19408W        W78911  43.869  42.918  13.959
19409W        W78912   2.472   3.228   2.377
19410W        W78913   4.903  39.817  12.461
19411W        W78914  15.803  23.106   3.224
19412W        W78915  35.445  24.068   3.750
19413W        W78916   1.768  22.573   3.241
19414W        W78917   0.931  41.841  11.909
19415W        W78918  23.625  34.450  13.397
19416W        W78919   8.735  23.628  10.980
19417W        W78920  12.298   2.291   0.830
19418W        W78921  25.702  44.458   1.886
19419W        W78922  42.293  26.539  11.595
19420W        W78923  41.845  43.766  12.396
19421W        W78924  35.022  36.898   0.743
19422W        W78925  11.751  14.236  13.885
19423W        W78926  10.232  14.275  13.400
19424W        W78927  14.235  39.001   4.832
19425W        W78928  23.578  17.205   0.414
19426W        W78929  16.249  12.824   3.630
19427W        W78930   8.392  18.628  11.391
19428W        W78931  11.857  40.932  13.985
19429W        W78932  24.091  32.960  11.076
19430W        W78933  13.748  32.070   1.836
19431W        W78934  41.318  36.525   1.223
19432W        W78935  38.362  37.968  14.844
19433W        W78936  22.693  43.335  14.860
19434W        W78937  26.185  25.174   1.235
19435W        W78938   3.274  20.189   1.925
19436W        W78939  38.917  32.124  12.518
19437W        W78940   0.417  31.073  11.582
19438W        W78941  43.446  18.637   2.878
19439W        W78942   0.748  13.616  12.537
19440W        W78943   5.790  20.223   1.285
19441W        W78944  32.125  14.697  12.483
19442W        W78945  23.185  13.197   2.213
19443W        W78946  21.159   8.311   4.239
19444W        W78947   8.680  26.027  14.475
19445W        W78948  37.566  42.479  11.507
19446W        W78949  22.049   8.803  11.466
19447W        W78950  39.938  37.475   3.349
19448W        W78951   1.803   3.866   1.930
19449W        W78952  21.662  25.536  13.010
19450W        W78953  38.429   0.886  10.493
19451W        W78954  23.051  15.118  10.941
19452W        W78955  20.262   3.237  13.841
19453W        W78956   8.403   9.243   3.717
19454W        W78957  25.110  36.551   4.265
19455W        W78958  35.915  32.558   0.770
19456W        W78959   8.255  11.860  11.949
19457W        W78960  10.183  15.110  12.922
19458W        W78961  19.654  31.009  12.580
19459W        W78962  14.114  28.069  14.970
19460W        W78963  43.010  14.118  12.913
19461W        W78964  40.412  12.261   0.361
19462W        W78965  30.094  42.779  14.001
19463W        W78966   5.217   9.881   0.915
19464W        W78967   8.297  40.374   0.246
19465W        W78968  41.310  43.929   4.230
19466W        W78969  15.327  39.940   4.126
19467W        W78970   2.462  29.551  13.956
19468W        W78971   7.788  30.590   3.221
19469W        W78972  31.051   6.918   1.707
19470W        W78973   5.404  34.116  10.470
19471W        W78974  16.694   0.780  11.497
19472W        W78975  22.250  12.820  13.385
19473W        W78976   3.936  22.559  10.542
19474W        W78977   8.212   8.258  14.857
19475W        W78978  32.621  10.871   4.790
19476W        W78979  16.289  22.168  10.469
19477W        W78980  30.424  28.068   3.171
19478W        W78981   9.803  16.583   2.326
19479W        W78982  26.584  38.335  12.989
19480W        W78983  20.228  14.162   1.367
19481W        W78984  23.519  26.559   0.329
19482W        W78985  21.652   8.730  10.973
19483W        W78986  24.716  21.610   4.231
19484W        W78987  35.068  13.670   1.273
19485W        W78988  16.589  39.879   2.871
19486W        W78989  29.455  43.966  14.942
19487W        W78990   6.424  20.539  13.809
19488W        W78991   2.846  11.212   4.768
19489W        W78992   4.810  29.135   2.338
19490W        W78993  37.886  30.006   1.810
19491W        W78994  33.994   9.343  13.024
19492W        W78995  10.652  40.905  12.972
19493W        W78996  27.674   1.345   0.394
19494W        W78997   1.935  28.640   5.210
19495W        W78998  36.444  13.208   3.275
19496W        W78999  26.045  28.569   1.782
19497W        W79000   6.371  17.245  13.358
19498W        W79001  41.337  35.486   3.688
19499W        W79002  38.923   2.811  14.853
19500W        W79003  24.079  33.958   2.260
19501W        W79004  25.963   8.714   2.868
19502W        W79005  44.823   4.743   3.753
19503W        W79006  14.135  31.624  13.393
19504W        W79007  29.577  25.577   4.209
19505W        W79008  38.404  21.647  14.438
19506W        W79009  31.003  14.182  10.066
19507W        W79010  26.132  36.870  11.862
19508W        W79011  31.008  26.188  10.053
19509W        W79012  43.794  21.564  12.472
19510W        W79013  33.412  12.624  12.843
19511W        W79014  40.830  15.701  10.074
19512W        W79015  12.228  44.759  13.510
19513W        W79016  31.987  39.524  14.905
19514W        W79017  17.282  17.238   3.713
19515W        W79018  40.496  31.034   3.789
19516W        W79019   9.231   5.420   4.271
19517W        W79020   9.171  37.035  12.080
19518W        W79021   8.276  25.498   2.842
19519W        W79022  35.546  24.669   0.331
19520W        W79023  13.829  31.931   0.803
19521W        W79024  40.356   3.770   4.148
19522W        W79025  37.402  34.491  11.010
19523W        W79026  11.640   9.288  12.073
19524W        W79027   8.219  42.488  10.538
19525W        W79028  11.705  10.218  14.986
19526W        W79029  23.632   6.374   4.204
19527W        W79030  18.709  32.020   2.297
19528W        W79031   8.885  24.529   1.787
19529W        W79032  10.793  28.009  11.553
19530W        W79033  30.988  17.173  14.288
19531W        W79034  25.013  44.848   2.780
19532W        W79035   5.709   8.707   1.850
19533W        W79036  28.592  33.581   1.392
19534W        W79037  33.520  30.592  11.077
19535W        W79038  43.965  15.634   1.796
19536W        W79039  11.646  43.414  12.450
19537W        W79040  21.144  20.033  14.821
19538W        W79041  36.501  11.704  13.801
19539W        W79042  40.409   2.447   2.210
19540W        W79043   1.840   2.400   4.133
19541W        W79044  10.824   2.393  13.414
19542W        W79045  27.132  28.521   2.236
19543W        W79046  30.578  10.274   3.228
19544W        W79047   7.836  12.830   0.762
19545W        W79048   8.662  10.748  12.443
19546W        W79049   3.776  39.410   4.651
19547W        W79050   1.412  15.690   4.737
19548W        W79051  42.024  17.704  12.510
19549W        W79052   1.917  30.921  11.073
19550W        W79053  44.839  10.678   3.266
19551W        W79054   0.284  26.555   3.378
19552W        W79055  10.143  21.247   3.236
19553W        W79056  16.573  32.500   0.370
19554W        W79057  22.126  34.594   1.404
19555W        W79058  37.914  13.770   2.193
19556W        W79059   5.270  21.024  13.006
19557W        W79060  28.534  19.662  14.378
19558W        W79061  22.593  14.148  11.098
19559W        W79062  30.468  14.296  14.348
19560W        W79063  15.134  25.215  14.402
19561W        W79064   0.830  36.558   3.264
19562W        W79065   5.238  35.039  11.394
19563W        W79066   1.370  31.464   3.254
19564W        W79067  43.495  14.816  13.924
19565W        W79068  29.087  22.104  11.011
19566W        W79069  10.193  26.565  11.128
19567W        W79070  19.059   2.372  11.006
19568W        W79071  14.724  13.334  10.415
19569W        W79072  13.723  26.066   0.345
19570W        W79073  33.083  37.963   0.927
19571W        W79074   2.350  39.313  12.948
19572W        W79075  35.545  29.462  13.341
19573W        W79076  32.113   4.747   9.961
19574W        W79077  17.219  41.815  11.901
19575W        W79078  40.879  41.957   2.354
19576W        W79079  22.591  28.528  11.955
19577W        W79080  24.008  23.024  13.311
19578W        W79081  11.219  36.095  12.002
19579W        W79082  20.176  23.085   3.386
19580W        W79083  13.326  39.399  11.498
19581W        W79084  36.872  20.639   3.212
19582W        W79085  30.470  35.977  12.847
19583W        W79086  13.310   3.264  11.060
19584W        W79087   4.935  44.883   4.655
19585W        W79088  16.258  43.513   0.847
19586W        W79089  27.660  37.895   2.305
19587W        W79090  28.053   0.954   4.148
19588W        W79091  22.602  21.242  14.766
19589W        W79092  44.312  34.995  12.501
19590W        W79093  37.381  29.040   2.320
19591W        W79094  22.177  31.021  14.793
19592W        W79095  42.891   0.871   0.364
19593W        W79096  24.173   7.748  11.457
19594W        W79097  43.910  28.097   4.713
19595W        W79098  39.534  18.618   2.199
19596W        W79099  41.296  17.095  12.564
19597W        W79100  34.075   9.270  13.437
19598W        W79101  15.275  33.978  13.443
19599W        W79102  10.294  12.233  11.565
19600W        W79103  20.533  33.030  12.081
19601W        W79104   1.834  41.390   1.723
19602W        W79105  35.393  10.831   2.888
19603W        W79106   9.231  21.688   1.238
19604W        W79107   2.345  37.044   2.810
19605W        W79108  29.638  34.481   2.298
19606W        W79109  31.504  36.857   3.696
19607W        W79110  11.141  43.381  11.383
19608W        W79111  34.463  28.460   9.966
19609W        W79112  33.881  19.615  12.562
19610W        W79113  32.469  37.335  11.926
19611W        W79114   6.288  34.071   0.405
19612W        W79115  11.670  29.620   4.726
19613W        W79116  24.664  22.122   2.340
19614W        W79117   9.788  25.073   1.763
19615W        W79118  19.561  34.506   4.225
19616W        W79119  24.113  33.087  11.610
19617W        W79120   0.829  10.838   1.903
19618W        W79121  20.107   2.453   4.206
19619W        W79122  30.584   3.821  11.106
19620W        W79123  25.488  22.598  11.866
19621W        W79124  20.089  41.430  13.835
19622W        W79125  26.641  20.588  13.806
19623W        W79126   7.771   8.309   4.122
19624W        W79127  32.071  37.402  14.461
19625W        W79128   8.316  19.119  12.038
19626W        W79129  12.267  27.494  14.320
19627W        W79130  35.502  20.607  12.453
19628W        W79131  44.394  16.635   3.852
19629W        W79132   6.761  16.651   4.792
19630W        W79133  11.785  18.125   4.762
19631W        W79134  42.319  10.710   2.233
19632W        W79135  14.678  17.163   4.778
19633W        W79136  34.380   8.241   0.898
19634W        W79137  10.735  11.664   2.327
19635W        W79138  42.866   7.220   2.677
19636W        W79139   7.303   0.263   3.338
19637W        W79140  23.239  30.540  14.492
19638W        W79141  21.539   0.910   2.312
19639W        W79142  32.923  36.989  12.507
19640W        W79143  34.870   4.335   2.774
19641W        W79144   5.394  19.080   2.825
19642W        W79145  34.887  31.495  11.482
19643W        W79146   3.726  34.940   0.781
19644W        W79147   9.260  31.122   1.363
19645W        W79148  23.996   4.938   2.730
19646W        W79149  28.161   4.408   1.716
19647W        W79150  30.492  33.945   0.395
19648W        W79151   2.828  38.870   0.306
19649W        W79152  22.098  26.703  11.484
19650W        W79153  40.465  27.984   2.862
19651W        W79154  22.522  30.429   1.723
19652W        W79155  34.451   5.350  14.355
19653W        W79156  12.701  10.675  10.490
19654W        W79157  15.243  31.499  11.464
19655W        W79158   0.976  12.683  10.023
19656W        W79159  40.816   7.331   2.720
19657W        W79160  22.651  32.423  13.442
19658W        W79161  35.032  12.711   2.278
19659W        W79162   0.425   9.772  10.970
19660W        W79163  18.054  32.491   3.721
19661W        W79164  31.545   9.289  13.432
19662W        W79165  39.011  41.834  11.110
19663W        W79166   3.823   5.413   4.647
19664W        W79167  24.594  23.035  12.892
19665W        W79168  40.444  30.485   4.770
19666W        W79169  14.658   6.236   3.175
19667W        W79170   9.227   6.259   3.224
19668W        W79171  21.062  40.333  13.942
19669W        W79172   5.371  13.327  14.497
19670W        W79173  19.765  13.207   4.233
19671W        W79174  29.022   8.379   3.832
19672W        W79175  36.534  18.114   1.427
19673W        W79176  30.054  40.909  13.313
19674W        W79177   3.804   5.243  10.569
19675W        W79178  41.511   6.336  14.882
19676W        W79179  18.728  13.267  14.323
19677W        W79180   2.798  15.738  14.990
19678W        W79181   1.342   8.826   1.409
19679W        W79182  22.668  13.812  13.517
19680W        W79183  36.964   8.366   4.232
19681W        W79184  30.620  21.097   0.923
19682W        W79185  17.730   3.730   0.376
19683W        W79186  16.614  33.079   0.456
19684W        W79187   6.349  23.640   1.899
19685W        W79188   8.714  43.800  12.379
19686W        W79189  23.591  27.496  10.915
19687W        W79190  28.069   5.205   1.751
19688W        W79191   2.940   7.842  11.611
19689W        W79192  11.269  23.596   0.801
19690W        W79193  28.592  19.213  12.064
19691W        W79194   5.270  28.110   1.375
19692W        W79195   2.227  17.743  11.394
19693W        W79196  37.462  33.915  14.955
19694W        W79197   7.803   4.336  11.128
19695W        W79198   9.736  40.866  13.356
19696W        W79199   7.326   8.332  10.890
19697W        W79200  20.065  39.514   3.801
19698W        W79201  20.091  42.013   3.351
19699W        W79202  29.929  30.500  12.010
19700W        W79203  23.129  34.495   4.133
19701W        W79204   6.216   5.213  11.509
19702W        W79205  20.696  27.014   0.784
19703W        W79206  10.327  20.073   0.948
19704W        W79207  33.909  31.597   3.267
19705W        W79208  32.424  12.728   5.798
19706W        W79209   7.324   1.881  14.798
19707W        W79210  23.135  35.552  11.887
19708W        W79211   0.248  42.886   4.125
19709W        W79212  23.238   7.890  13.012
19710W        W79213  43.953  29.064  12.959
19711W        W79214  17.791  27.601   1.260
19712W        W79215  24.084  16.242   0.966
19713W        W79216  28.179  44.298   0.864
19714W        W79217  18.068   8.278  14.764
19715W        W79218  29.089  14.796   3.747
19716W        W79219  13.607  12.132  13.045
19717W        W79220  38.029   5.420   9.465
19718W        W79221  13.719   5.197   2.225
19719W        W79222  13.178  22.225   0.853
19720W        W79223  26.522  35.504   1.695
19721W        W79224  39.424  43.955   2.270
19722W        W79225  33.492  27.947  10.911
19723W        W79226  18.162  18.108   2.367
19724W        W79227  28.960   9.355   0.459
19725W        W79228  27.501  39.826   1.932
19726W        W79229   8.883  21.610  11.891
19727W        W79230   8.664  30.003  14.398
19728W        W79231   7.391   1.796   1.711
19729W        W79232   0.356  11.806  11.098
19730W        W79233   7.202   0.390  14.424
19731W        W79234  32.990   3.711  12.866
19732W        W79235  24.493  21.522   1.696
19733W        W79236  41.476   4.719   0.884
19734W        W79237  20.071  42.873   2.881
19735W        W79238  44.470  12.676  13.023
19736W        W79239  44.454  25.043  11.958
19737W        W79240  35.969  29.154  10.998
19738W        W79241  38.497  42.826   0.457
19739W        W79242  11.659   3.297   0.465
19740W        W79243  24.542  43.478   2.750
19741W        W79244  25.028   1.278  13.877
19742W        W79245  17.232  36.363   3.250
19743W        W79246  12.252  40.802   0.930
19744W        W79247  35.962   7.398   2.787
19745W        W79248  33.443   8.877   4.693
19746W        W79249  33.077  39.043   1.915
19747W        W79250   3.387  23.592   3.843
19748W        W79251  10.320  37.418  13.375
19749W        W79252   8.306   2.888  12.939
19750W        W79253  25.966   5.400   2.360
19751W        W79254  27.079  43.956  14.275
19752W        W79255  13.142  18.673  13.962
19753W        W79256  38.477  16.651   4.638
19754W        W79257  24.519  35.962  12.015
19755W        W79258  16.304  12.302  10.451
19756W        W79259  39.486  11.731  11.051
19757W        W79260  38.530   3.389   5.248
19758W        W79261  16.111  27.488  12.501
19759W        W79262  17.760  12.180   3.721
19760W        W79263  38.997  20.261  12.559
19761W        W79264  31.642   3.241   1.419
19762W        W79265  39.346  39.870   4.810
19763W        W79266   1.367   9.310   0.332
19764W        W79267   6.258  19.223   3.252
19765W        W79268  33.954  27.167   3.806
19766W        W79269  20.718  10.864   0.790
19767W        W79270  41.873  44.405   4.739
19768W        W79271  19.194  42.407   0.741
19769W        W79272  14.769  36.373  14.769
19770W        W79273  32.468   7.861   0.760
19771W        W79274   6.796   3.714  11.979
19772W        W79275  24.190  14.689   2.874
19773W        W79276  16.775  26.578  10.624
19774W        W79277  24.170  44.002   4.823
19775W        W79278  17.223  27.520   4.278
19776W        W79279  13.706  35.420   2.733
19777W        W79280  39.880  10.329  13.060
19778W        W79281  11.665  29.545   1.351
19779W        W79282  26.542  23.144   1.895
19780W        W79283  15.633  34.046  14.813
19781W        W79284  28.022   5.802  10.422
19782W        W79285  33.011  28.592   4.189
19783W        W79286  43.372  39.016   3.365
19784W        W79287  23.070   4.394   4.737
19785W        W79288  15.219  26.171   3.270
19786W        W79289  29.573  30.483  10.433
19787W        W79290  15.764  17.265  14.958
19788W        W79291  22.595  10.228   1.344
19789W        W79292  30.456  35.029  11.390
19790W        W79293  18.762   3.339   4.202
19791W        W79294  40.347   7.869   1.904
19792W        W79295  29.084  42.873   0.739
19793W        W79296   8.176  21.215  10.523
19794W        W79297  37.908   8.189   0.314
19795W        W79298   5.337  13.736   1.826
19796W        W79299  41.418  30.567  11.919
19797W        W79300  32.964   0.388   3.820
19798W        W79301  17.278   4.382  13.978
19799W        W79302  32.447   7.264  13.471
19800W        W79303   8.395  41.901  14.999
19801W        W79304  31.449  20.118   1.312
19802W        W79305  32.519  19.087  13.887
19803W        W79306  10.785   1.389   2.871
19804W        W79307   4.705  22.548   0.397
19805W        W79308  23.168  39.878  14.778
19806W        W79309  20.167  44.966   3.351
19807W        W79310  13.761  15.688  11.447
19808W        W79311  24.193  33.503  11.900
19809W        W79312  27.172  44.812   5.762
19810W        W79313  20.112  26.541  10.518
19811W        W79314  31.019  27.475  13.969
19812W        W79315  15.718   4.347   1.311
19813W        W79316   0.979   5.377  14.393
19814W        W79317  40.445  38.381  13.824
19815W        W79318  17.301   1.735  12.948
19816W        W79319   5.857  36.357   2.407
19817W        W79320   2.251  12.180   2.232
19818W        W79321   3.824   7.752   3.385
19819W        W79322  11.720   1.934   5.165
19820W        W79323   1.797  37.371   5.169
19821W        W79324  12.243  21.669   1.880
19822W        W79325  41.871   2.282   0.871
19823W        W79326  13.819  27.099  10.937
19824W        W79327  30.910  10.337  12.395
19825W        W79328  13.214  20.198   0.307
19826W        W79329   1.833  10.363   3.351
19827W        W79330  40.801  34.952   2.878
19828W        W79331   3.853  37.893   4.832
19829W        W79332  17.732  30.956  12.474
19830W        W79333  14.661   8.250   0.960
19831W        W79334  19.754  34.958  14.446
19832W        W79335  11.810   7.387   9.982
19833W        W79336  24.090  21.676  10.412
19834W        W79337  39.553  26.181   4.737
19835W        W79338  15.154  33.897  11.953
19836W        W79339   8.663  15.721   9.941
19837W        W79340  35.870  36.417   2.400
19838W        W79341   1.786  31.569  12.946
19839W        W79342  32.108  30.620  12.923
19840W        W79343  16.652  33.548   2.756
19841W        W79344  38.853  44.264  11.569
19842W        W79345  21.069  24.988  12.543
19843W        W79346  20.270  32.532  14.769
19844W        W79347  30.517  39.892  12.431
19845W        W79348  28.624  37.380  11.042
19846W        W79349  10.713  29.139  12.913
19847W        W79350   5.238  15.767  13.848
19848W        W79351  33.569   6.914   1.844
19849W        W79352  41.422  11.776  14.972
19850W        W79353  39.930  38.529   2.769
19851W        W79354   3.719  38.450  13.062
19852W        W79355   0.441  41.925  11.585
19853W        W79356  36.024   0.320  10.951
19854W        W79357  30.159  18.771  10.625
19855W        W79358  10.641  34.574   1.290
19856W        W79359  27.039  42.031   2.251
19857W        W79360  40.356   8.233  13.813
19858W        W79361   5.380  30.495  14.884
19859W        W79362  13.688  11.143  14.498
19860W        W79363   2.311  17.289   2.412
19861W        W79364  34.565   0.805  11.513
19862W        W79365  16.292  24.128   1.422
19863W        W79366  24.208   4.369   1.755
19864W        W79367  33.055  29.611   0.832
19865W        W79368  13.258  40.504  13.372
19866W        W79369   2.941  21.169   4.795
19867W        W79370   6.739  29.094   2.794
19868W        W79371  30.946  26.579   4.168
19869W        W79372  37.898   7.223  12.839
19870W        W79373  34.498   6.785  11.924
19871W        W79374  16.139  37.337  13.895
19872W        W79375  24.648  17.247  10.565
19873W        W79376  40.845  12.810   3.655
19874W        W79377   4.931  13.831   2.238
19875W        W79378  40.432  14.107  12.906
19876W        W79379  10.309  14.762   4.230
19877W        W79380  17.798   6.695   2.311
19878W        W79381  40.441  35.881   1.701
19879W        W79382  23.199  39.972  13.903
19880W        W79383  40.013  27.617   2.727
19881W        W79384   0.282  23.615  11.858
19882W        W79385  18.552  10.139   5.254
19883W        W79386  15.594  33.983   1.418
19884W        W79387  40.890  29.573   2.754
19885W        W79388  40.420  31.642  13.526
19886W        W79389  14.652  23.177   3.247
19887W        W79390  17.666   6.758   3.201
19888W        W79391  26.524  25.652   3.639
19889W        W79392   7.806  29.520   3.734
19890W        W79393  32.986  23.198  14.006
19891W        W79394  36.551  18.647   4.671
19892W        W79395  24.598  38.053  10.515
19893W        W79396  41.988  25.124  14.975
19894W        W79397  25.065   9.855  12.060
19895W        W79398  35.109  23.030  12.865
19896W        W79399  29.459  32.082  13.340
19897W        W79400  38.996  14.261  13.939
19898W        W79401  38.353   3.454   2.291
19899W        W79402  16.127  29.596   2.893
19900W        W79403  25.030  43.468  11.398
19901W        W79404  40.926  36.375   2.396
19902W        W79405  37.957  17.556   1.376
19903W        W79406  32.051  20.568   1.342
19904W        W79407  29.060  12.129   2.693
19905W        W79408  22.734  12.768  10.560
19906W        W79409  41.987  28.976   2.340
19907W        W79410   9.774  18.065   4.350
19908W        W79411  39.406   3.225  11.052
19909W        W79412  24.230  29.480   3.814
19910W        W79413  25.565  26.600  13.059
19911W        W79414  29.534   7.177  10.625
19912W        W79415   6.267  36.995  14.925
19913W        W79416  11.836  23.226   4.196
19914W        W79417  16.281  32.139   2.391
19915W        W79418  18.109  31.449  13.835
19916W        W79419  30.643  44.268  12.859
19917W        W79420  18.074  28.171   4.602
19918W        W79421  19.123   5.932   3.681
19919W        W79422  44.420  37.563   0.937
19920W        W79423  35.478  41.480   1.340
19921W        W79424  21.601  32.942   2.875
19922W        W79425  31.639  44.931  10.478
19923W        W79426  28.598  32.486   1.395
19924W        W79427  12.174  13.723  13.986
19925W        W79428  14.330  24.115  13.545
19926W        W79429  14.741  32.538   0.741
19927W        W79430  28.603  13.274  13.791
19928W        W79431  24.062  10.165   3.354
19929W        W79432  40.306  10.871   1.929
19930W        W79433  12.245  42.890   4.782
19931W        W79434  35.087  32.591   3.759
19932W        W79435  28.679   5.751  14.986
19933W        W79436  31.111   0.773  11.068
19934W        W79437  19.119  39.391  13.512
19935W        W79438  43.828  42.802   4.627
19936W        W79439   1.876  25.509  10.888
19937W        W79440  17.104  17.205  11.014
19938W        W79441  17.267   9.323   3.174
19939W        W79442   8.270  27.157  13.476
19940W        W79443  19.151   6.868   1.785
19941W        W79444   4.776  28.679  11.508
19942W        W79445  12.308  31.093   5.119
19943W        W79446  15.724  11.218  10.447
19944W        W79447  10.175  17.266   3.232
19945W        W79448  29.153  24.481   0.947
19946W        W79449  23.236  24.493  14.876
19947W        W79450  23.067  17.287  14.280
19948W        W79451  34.088  26.974   1.719
19949W        W79452  32.928  26.082  14.900
19950W        W79453  17.185   0.374  13.541
19951W        W79454  36.912  14.808  13.512
19952W        W79455  24.065  32.628  12.958
19953W        W79456  24.572  11.777  10.918
19954W        W79457   9.166  35.070  12.971
19955W        W79458  16.735  37.344   4.140
19956W        W79459  28.437  27.677  11.373
19957W        W79460  33.087  35.940   1.812
19958W        W79461  40.331   2.755   0.959
19959W        W79462   9.651   7.776   4.807
19960W        W79463  41.306  23.014   1.732
19961W        W79464  25.609  20.653   4.289
19962W        W79465  21.260  23.174   2.859
19963W        W79466   8.654   2.300  10.409
19964W        W79467  27.069   1.766   2.787
19965W        W79468   2.427  25.535  11.521
19966W        W79469  20.664  10.338  14.993
19967W        W79470  10.201  18.788   1.231
19968W        W79471  17.759  34.977  10.415
19969W        W79472  25.992  23.099  14.803
19970W        W79473  22.574  26.205   3.707
19971W        W79474  29.573  42.426   4.702
19972W        W79475  12.839  11.180   1.438
19973W        W79476   2.312   8.837  10.154
19974W        W79477  29.961  31.142  12.872
19975W        W79478  43.277  43.391   3.203
19976W        W79479   5.208  13.609  14.337
19977W        W79480   4.712  13.114  11.931
19978W        W79481  40.815  10.214   4.334
19979W        W79482  26.520  34.498   1.813
19980W        W79483  20.620  27.531  10.949
19981W        W79484  42.006   2.809  10.641
19982W        W79485  21.113  32.599  12.062
19983W        W79486   6.827   0.255   1.715
19984W        W79487  30.089  19.173   2.797
19985W        W79488   2.304  22.066  11.421
19986W        W79489  39.009   9.802  14.499
19987W        W79490   8.385  23.105  13.356
19988W        W79491  32.035  30.959  13.410
19989W        W79492  40.405  21.601   2.402
19990W        W79493  27.690  29.950   1.294
19991W        W79494   0.847  23.537   0.445
19992W        W79495  43.806  19.744   2.189
19993W        W79496  19.098  20.648  10.902
19994W        W79497  28.627  11.335  13.394
19995W        W79498  13.778   6.759   2.368
19996W        W79499   7.256  32.974   1.778
19997W        W79500  14.121  23.731   2.705
19998W        W79501   1.246  29.108   3.216
19999W        W79502  11.351  12.824   4.187
20000W        W79503  10.205   9.231   3.789
20001W        W79504  18.179   8.896  12.015
20002W        W79505  10.383  28.106  11.401
20003W        W79506  44.897  18.175   9.919
20004W        W79507  14.153  11.730  13.461
20005W        W79508   5.925  23.150  13.909
20006W        W79509  29.980  37.489  12.854
20007W        W79510   4.841  26.680  12.535
20008W        W79511  12.155  33.970   1.910
20009W        W79512  42.904  39.860  13.820
20010W        W79513  28.567  43.416   4.743
20011W        W79514  12.164  43.907   2.365
20012W        W79515  30.124  10.351   3.274
20013W        W79516  41.032   3.807   1.887
20014W        W79517  35.856   6.222   1.395
20015W        W79518   6.833  39.969   3.289
20016W        W79519   1.879  23.204   0.460
20017W        W79520  16.784  27.677  12.493
20018W        W79521  10.802   1.778  11.541
20019W        W79522  33.883  25.593  12.969
20020W        W79523  11.150  31.574  12.017
20021W        W79524   7.722   1.481  12.852
20022W        W79525  12.216   8.194   2.407
20023W        W79526  11.193  15.172  14.389
20024W        W79527   2.388  20.561  14.840
20025W        W79528  21.549  43.019  11.555
20026W        W79529  12.242  24.520  11.594
20027W        W79530  16.638  31.582  10.946
20028W        W79531  29.428  13.662   2.406
20029W        W79532  34.461  22.184  12.359
20030W        W79533   4.408  36.966  13.842
20031W        W79534   3.365  38.333   0.400
20032W        W79535  23.105  38.495  13.530
20033W        W79536   9.310  23.555   5.140
20034W        W79537  26.105  12.813  14.368
20035W        W79538  19.125  38.820   0.383
20036W        W79539   7.273   0.479  12.832
20037W        W79540  13.273  28.629  12.965
20038W        W79541  25.979  27.142  14.455
20039W        W79542  16.788  19.595  13.366
20040W        W79543  16.769  20.215   1.783
20041W        W79544  37.388  27.542   2.730
20042W        W79545  31.940  31.958   1.326
20043W        W79546  36.872  26.102  11.870
20044W        W79547   7.718  27.573  11.571
20045W        W79548  33.990  39.005   4.350
20046W        W79549  43.339  41.965   4.205
20047W        W79550  27.080  26.542  14.364
20048W        W79551  38.435   1.313  12.374
20049W        W79552  24.564  23.201   0.275
20050W        W79553   2.944  43.450  13.826
20051W        W79554   7.257   3.939   4.123
20052W        W79555  33.921  12.122   1.848
20053W        W79556   5.832  13.224   0.841
20054W        W79557  18.288  37.401   3.202
20055W        W79558  42.362  40.509  10.605
20056W        W79559  31.526  32.011  13.399
20057W        W79560  11.216  37.080   0.828
20058W        W79561  29.543  20.730  10.470
20059W        W79562   7.178  34.485   1.830
20060W        W79563  21.603  38.935  13.892
20061W        W79564  38.877   2.735   4.298
20062W        W79565  26.641  29.479  14.329
20063W        W79566  24.225  27.176   2.819
20064W        W79567  30.984  40.026  12.444
20065W        W79568  15.706  24.581   2.275
20066W        W79569  34.600  34.490   4.770
20067W        W79570   9.710  32.963  12.513
20068W        W79571  33.553  10.356   3.840
20069W        W79572  18.649  44.879  12.527
20070W        W79573  38.868   5.202   0.412
20071W        W79574   2.262   7.831  10.409
20072W        W79575  16.122  18.669  10.496
20073W        W79576  11.756  40.359  12.882
20074W        W79577  29.062   0.369  12.865
20075W        W79578  28.176  41.883  14.301
20076W        W79579  35.997  37.996   3.670
20077W        W79580  29.627  21.256  10.937
20078W        W79581   3.284  37.958   2.711
20079W        W79582   9.311   3.839  14.985
20080W        W79583  43.496   1.448   2.318
20081W        W79584  16.779  24.572  11.946
20082W        W79585  18.673  21.726  10.960
20083W        W79586  20.134   0.249   1.877
20084W        W79587  27.688  23.697   4.218
20085W        W79588  41.908  23.611  12.082
20086W        W79589  17.178  29.569   4.662
20087W        W79590  39.836  41.526  13.990
20088W        W79591  29.459  32.008  10.576
20089W        W79592  36.942  44.767  14.491
20090W        W79593   0.484  42.908   5.319
20091W        W79594  32.956  23.064   3.255
20092W        W79595  14.119  30.515   3.667
20093W        W79596   7.896   8.676  11.553
20094W        W79597   7.191   5.396   3.750
20095W        W79598  24.650   4.292  14.289
20096W        W79599  31.126  41.464   1.315
20097W        W79600  41.370   3.917  10.977
20098W        W79601   5.751  30.587   4.351
20099W        W79602  16.640   0.748  14.867
20100W        W79603  44.905  44.424   1.385
20101W        W79604  17.188  27.963  14.031
20102W        W79605  18.771  12.628   3.767
20103W        W79606  16.730  31.550   3.810
20104W        W79607  29.451  17.261   4.229
20105W        W79608  16.742   5.849   3.708
20106W        W79609  41.498  27.083   4.309
20107W        W79610  17.618   7.418   3.292
20108W        W79611  11.700  42.291   4.135
20109W        W79612   9.825   9.714   1.819
20110W        W79613   9.221  36.071  12.425
20111W        W79614  21.024  40.803   4.209
20112W        W79615  17.229   2.728   3.295
20113W        W79616  31.037   4.395   4.153
20114W        W79617  36.565  19.283   2.746
20115W        W79618   6.385  35.102  12.858
20116W        W79619  15.638  38.846  13.512
20117W        W79620  36.888  30.643   2.777
20118W        W79621  11.267  32.995  12.469
20119W        W79622  36.097  18.133  10.961
20120W        W79623   4.437  30.055  13.999
20121W        W79624   7.341  40.333   4.775
20122W        W79625  13.669  32.441   1.344
20123W        W79626  34.581  17.292   2.242
20124W        W79627  25.714   2.865   2.734
20125W        W79628  20.038   7.892   0.472
20126W        W79629  19.735   5.877   4.663
20127W        W79630  28.564  39.410  13.312
20128W        W79631  29.603  33.605  10.429
20129W        W79632  32.108  19.212   0.450
20130W        W79633  13.645  31.004   4.317
20131W        W79634  10.838  31.112  14.936
20132W        W79635  34.076  44.455   3.797
20133W        W79636   4.943  20.694  11.428
20134W        W79637  20.731  11.226  13.399
20135W        W79638  22.181  15.246   4.335
20136W        W79639  33.035  13.837   3.802
20137W        W79640   9.793   2.940   3.654
20138W        W79641  35.383   4.741  14.845
20139W        W79642  43.359  20.615  12.001
20140W        W79643   7.416  12.327   1.426
20141W        W79644  18.681   2.955  13.918
20142W        W79645  19.211   1.482   0.930
20143W        W79646  30.981   7.716  13.014
20144W        W79647  44.957  22.108   3.825
20145W        W79648  37.932  43.487  10.518
20146W        W79649  39.808  23.694  13.826
20147W        W79650  34.055   2.393   2.756
20148W        W79651  20.213  21.220  11.492
20149W        W79652   8.775  25.578  11.537
20150W        W79653  32.391  15.175   0.273
20151W        W79654   4.923   3.801  10.475
20152W        W79655  29.017  12.848  10.507
20153W        W79656  29.500   9.278  14.960
20154W        W79657  41.878  36.347  11.086
20155W        W79658  16.246  33.499  12.855
20156W        W79659  33.109  30.908  13.544
20157W        W79660  19.178  21.598  12.477
20158W        W79661  30.915  31.543   4.644
20159W        W79662  27.526   4.449   3.279
20160W        W79663  31.909  10.753  12.395
20161W        W79664  21.099  19.644   4.207
20162W        W79665  40.862  21.123   4.785
20163W        W79666   9.342   2.752   3.742
20164W        W79667  39.928  16.721  11.495
20165W        W79668  19.136  43.514  13.991
20166W        W79669  42.315  12.690   1.393
20167W        W79670  42.296  28.988  10.456
20168W        W79671  40.360  28.185  13.426
20169W        W79672   1.364  28.673  14.847
20170W        W79673   3.869  29.622  10.918
20171W        W79674  28.053  20.044   0.256
20172W        W79675   4.294   7.382   2.701
20173W        W79676  44.381  13.704  10.018
20174W        W79677  18.262  31.495  11.060
20175W        W79678  21.075   4.328  11.086
20176W        W79679  39.469  25.163   2.734
20177W        W79680  11.676   2.928  10.907
20178W        W79681  19.126  30.494  14.394
20179W        W79682  16.288  43.013  12.956
20180W        W79683  25.501   4.756  14.776
20181W        W79684  28.453   4.730  12.510
20182W        W79685  25.136  41.985   0.259
20183W        W79686  22.067  20.644   0.325
20184W        W79687  22.138  27.616  12.978
20185W        W79688  35.905  14.699  12.422
20186W        W79689  22.167  36.971   2.833
20187W        W79690  19.262   8.163  11.418
20188W        W79691  13.297  30.565  11.901
20189W        W79692  26.176  13.806  12.963
20190W        W79693  22.551  40.944  14.477
20191W        W79694  27.590  14.815  12.439
20192W        W79695  34.534  15.732   2.214
20193W        W79696  19.615  33.121   3.269
20194W        W79697   1.884  19.627  12.941
20195W        W79698  27.157  17.734  14.370
20196W        W79699   8.357  41.853  13.385
20197W        W79700  35.965  12.836   2.865
20198W        W79701  41.452  34.095   4.638
20199W        W79702  39.325  10.744  12.472
20200W        W79703  10.661  36.520   4.224
20201W        W79704   3.397  12.803   1.369
20202W        W79705  17.586  16.659  13.062
20203W        W79706  31.071  35.425   2.349
20204W        W79707  38.883  26.480  11.096
20205W        W79708   5.360   1.743   0.373
20206W        W79709  36.042  14.224  10.561
20207W        W79710  20.239   8.405   1.724
20208W        W79711  33.066  31.008  13.987
20209W        W79712  39.060  28.533   3.798
20210W        W79713  25.534  20.093   2.716
20211W        W79714  38.009  31.050  11.891
20212W        W79715  38.344  23.726  14.476
20213W        W79716  33.110  28.455  13.314
20214W        W79717  17.254  15.129  13.414
20215W        W79718  30.471  11.712   2.300
20216W        W79719  25.178  13.715   0.267
20217W        W79720  13.345  24.094   4.291
20218W        W79721  29.471   7.760   4.171
20219W        W79722  28.637  37.414   2.858
20220W        W79723   6.688  11.351  13.535
20221W        W79724  42.013   8.255  11.888
20222W        W79725  35.473  38.891  13.487
20223W        W79726  26.649  18.700  14.016
20224W        W79727   1.263   5.315   2.813
20225W        W79728  41.992  19.557  10.015
20226W        W79729  28.501   3.901  13.508
20227W        W79730  40.378  17.579  10.453
20228W        W79731  25.984   6.358  10.901
20229W        W79732  35.918  20.575   1.826
20230W        W79733  29.478  31.047  13.822
20231W        W79734  40.799   3.350  12.390
20232W        W79735  37.454   4.829  13.397
20233W        W79736  32.074  19.613  11.486
20234W        W79737  42.790  24.635   3.681
20235W        W79738  32.568   3.782  14.452
20236W        W79739   8.859  39.372  12.579
20237W        W79740  24.024  44.923   5.097
20238W        W79741   0.777   6.698   1.846
20239W        W79742  21.592   7.181   2.714
20240W        W79743  28.170   8.759   2.333
20241W        W79744  16.692  26.987  13.394
20242W        W79745  21.530  44.498   3.774
20243W        W79746  12.225  32.498   0.852
20244W        W79747   7.843   5.348  11.524
20245W        W79748  36.959  23.213   3.247
20246W        W79749  11.144  10.771   0.859
20247W        W79750  33.055  16.782   0.781
20248W        W79751  31.068  15.580   4.129
20249W        W79752  18.294  34.379  12.544
20250W        W79753  25.628  41.396   3.817
20251W        W79754   7.409   2.947   3.675
20252W        W79755  21.578  20.645  10.905
20253W        W79756  19.047   7.837  14.314
20254W        W79757  17.279  38.474  12.423
20255W        W79758  15.744  13.671   0.276
20256W        W79759  44.984  37.919   4.788
20257W        W79760  37.956  24.542  11.479
20258W        W79761  11.132  16.686   2.883
20259W        W79762  37.358  14.237   1.376
20260W        W79763  15.322  14.150  13.422
20261W        W79764  26.696  39.358  13.310
20262W        W79765  14.190   7.680   0.861
20263W        W79766  44.926  11.314   4.637
20264W        W79767  22.659  37.067   3.239
20265W        W79768  29.943  16.159   3.837
20266W        W79769   8.406  28.041  14.419
20267W        W79770  14.167  17.096  10.972
20268W        W79771   8.843   2.847   1.730
20269W        W79772  22.534  25.691   1.219
20270W        W79773  15.151   1.400  13.964
20271W        W79774   5.906  40.391  10.548
20272W        W79775  36.448  22.530  10.617
20273W        W79776  14.779  14.267  14.021
20274W        W79777   8.164  10.736   2.263
20275W        W79778   3.284   0.974   3.378
20276W        W79779   2.934  41.299  10.135
20277W        W79780  42.458  22.528   1.366
20278W        W79781  18.162  23.012   0.378
20279W        W79782  30.907  11.323   2.824
20280W        W79783  24.611  15.283  13.418
20281W        W79784  29.041  24.665   1.834
20282W        W79785  19.609   8.701  13.040
20283W        W79786  33.027  44.271   2.274
20284W        W79787  43.943  22.079  10.592
20285W        W79788  36.391  23.669  12.008
20286W        W79789  29.512  26.184   0.898
20287W        W79790  35.937  27.943   1.437
20288W        W79791  17.667   0.883  14.856
20289W        W79792  25.708   3.320   2.666
20290W        W79793  38.846  14.789  10.405
20291W        W79794   6.383  43.458  11.059
20292W        W79795  43.905  23.721  13.471
20293W        W79796  35.866  29.589   1.300
20294W        W79797  22.123  17.148  12.967
20295W        W79798  14.135  24.582   2.891
20296W        W79799  29.121   1.394  14.413
20297W        W79800   3.274  24.212  12.547
20298W        W79801   9.318  10.860  10.466
20299W        W79802  34.006   3.807  13.957
20300W        W79803  10.817  27.174  12.934
20301W        W79804  32.041  39.998   1.759
20302W        W79805  26.109  40.308   1.361
20303W        W79806  31.104  11.217   0.389
20304W        W79807   2.915  33.460   0.435
20305W        W79808  35.465  19.180  12.027
20306W        W79809   1.364  16.759   3.838
20307W        W79810  18.186   1.360   1.225
20308W        W79811  23.049   7.682   3.722
20309W        W79812  43.779  19.632  11.594
20310W        W79813   4.716  29.957   3.283
20311W        W79814   9.206  44.848   0.483
20312W        W79815  41.495  13.231  10.920
20313W        W79816  16.771  16.158  11.965
20314W        W79817  19.270  30.161  11.502
20315W        W79818  42.937  26.653  10.032
20316W        W79819  40.918  20.112  10.418
20317W        W79820  18.726  35.953   5.244
20318W        W79821  43.434  33.388   3.245
20319W        W79822  41.526   2.858  10.499
20320W        W79823  21.567  18.260   0.247
20321W        W79824  39.816  24.150   3.866
20322W        W79825  22.635  38.325   2.350
20323W        W79826  20.166  17.626  14.512
20324W        W79827  21.560  24.033   2.409
20325W        W79828  37.009   5.271  14.437
20326W        W79829  21.569   9.782   3.361
20327W        W79830  25.035  18.717  14.955
20328W        W79831  39.815  10.202   0.926
20329W        W79832  28.601  19.142   1.422
20330W        W79833   2.471  24.509  14.876
20331W        W79834  24.494  22.713   2.674
20332W        W79835  41.004  33.063  14.444
20333W        W79836  34.878   9.195   3.242
20334W        W79837  21.088  19.222  14.342
20335W        W79838  38.552  44.816   0.463
20336W        W79839  12.190  28.562   4.207
20337W        W79840  40.006  11.740  14.421
20338W        W79841  15.679   5.367   3.207
20339W        W79842  33.536  10.728  14.459
20340W        W79843  29.619  15.777   1.358
20341W        W79844  21.739  33.595   1.274
20342W        W79845   7.310  15.713  12.831
20343W        W79846   9.759   3.795   4.351
20344W        W79847  23.990  21.636  11.012
20345W        W79848  10.725  36.956  10.447
20346W        W79849  38.826  10.269   0.282
20347W        W79850  25.491  21.142  14.282
20348W        W79851  42.518  16.296   0.451
20349W        W79852  11.769  16.167  14.409
20350W        W79853  25.054  28.015   2.373
20351W        W79854   5.813  29.114   3.708
20352W        W79855  41.894  43.772  14.925
20353W        W79856  28.934  31.941   2.307
20354W        W79857   3.430  28.587  11.452
20355W        W79858   9.251   4.917  12.070
20356W        W79859  26.153  40.985   2.734
20357W        W79860  28.943  23.581   4.612
20358W        W79861  44.883  33.577  10.905
20359W        W79862  31.897  17.269   0.357
20360W        W79863  31.063  18.735  11.008
20361W        W79864   8.798  25.633   0.836
20362W        W79865   9.224  24.086   1.835
20363W        W79866   6.367   3.881  10.926
20364W        W79867  24.714   5.206   9.605
20365W        W79868  24.500  23.606  13.931
20366W        W79869  24.224   1.454  11.444
20367W        W79870   7.292  35.890   0.266
20368W        W79871   6.222   1.449  11.914
20369W        W79872  18.546  16.151   0.799
20370W        W79873  43.489  27.110   1.323
20371W        W79874  18.060  43.384  10.966
20372W        W79875  34.973  36.587  13.370
20373W        W79876  32.530  30.579   2.894
20374W        W79877  29.081  35.893  14.815
20375W        W79878   4.940  39.360  12.491
20376W        W79879  13.705  32.004   4.744
20377W        W79880  13.792  33.392   4.603
20378W        W79881   4.836  10.717  13.971
20379W        W79882  39.503  43.880   3.363
20380W        W79883  26.167   6.887   2.314
20381W        W79884  44.464  18.216  12.477
20382W        W79885  33.947  35.060   3.236
20383W        W79886  33.558   8.802  10.055
20384W        W79887  10.768  35.854   1.245
20385W        W79888  21.055   5.805  14.477
20386W        W79889  15.713  25.064  11.057
20387W        W79890  42.844   5.333  10.566
20388W        W79891  19.688  27.585  10.930
20389W        W79892   8.838  32.451  12.941
20390W        W79893  22.152  14.622  10.942
20391W        W79894   4.205  26.547   3.247
20392W        W79895   7.231  29.957   2.362
20393W        W79896  32.976  19.670   1.751
20394W        W79897  44.308   0.388  12.854
20395W        W79898  31.442  14.138   2.219
20396W        W79899  24.079  40.525   0.403
20397W        W79900  42.976  21.571   1.902
20398W        W79901   7.782  33.614   2.888
20399W        W79902  18.562  37.560   2.766
20400W        W79903  33.049  10.738   3.282
20401W        W79904   7.705  38.850  12.848
20402W        W79905  34.118   5.842   3.697
20403W        W79906   8.205  38.515   1.880
20404W        W79907  12.231   2.246  11.540
20405W        W79908  25.626  38.000   3.697
20406W        W79909   7.832  38.412   3.725
20407W        W79910  12.268  10.202   0.469
20408W        W79911  41.512   8.882  11.577
20409W        W79912   4.366  28.491  12.530
20410W        W79913   5.791  35.434  11.990
20411W        W79914   9.276  22.691   3.369
20412W        W79915  22.111  17.142   2.867
20413W        W79916  21.745  40.435   4.319
20414W        W79917  44.475  18.656  12.865
20415W        W79918  20.584  23.056  11.557
20416W        W79919   7.691  28.607   0.873
20417W        W79920   8.663  11.825   1.295
20418W        W79921  27.145  29.471  14.507
20419W        W79922  16.779  18.709   0.810
20420W        W79923  14.317  29.971   2.318
20421W        W79924  10.690  35.443  14.786
20422W        W79925  41.915  13.722   0.812
20423W        W79926  25.680  43.802  14.919
20424W        W79927  41.400  24.102  12.994
20425W        W79928   1.318  26.031   3.165
20426W        W79929  22.189   9.859   1.745
20427W        W79930  27.022  33.992   1.380
20428W        W79931  43.850   6.356  12.071
20429W        W79932   4.820  18.664  13.856
20430W        W79933  31.526  20.212  10.918
20431W        W79934  21.071  16.124  10.894
20432W        W79935  37.556   2.236   1.775
20433W        W79936  35.411  27.178   3.665
20434W        W79937  22.043  28.579  13.503
20435W        W79938  34.925   7.283  13.938
20436W        W79939  42.898  16.648   1.394
20437W        W79940   2.435  18.248  13.429
20438W        W79941  13.644  30.633   0.757
20439W        W79942  41.463   8.765   3.318
20440W        W79943  13.686   9.763  10.626
20441W        W79944  30.618  13.119   1.442
20442W        W79945  16.141  33.432   2.881
20443W        W79946   2.827  32.044   1.793
20444W        W79947   1.473  12.850   3.206
20445W        W79948   5.850  35.412  10.509
20446W        W79949  28.155  37.830  12.517
20447W        W79950   4.728   7.726  12.452
20448W        W79951  13.321  20.193   1.809
20449W        W79952  26.955  41.536  10.618
20450W        W79953   8.685  36.001  11.922
20451W        W79954  36.864   4.906  12.958
20452W        W79955  31.074  24.080  12.492
20453W        W79956  18.749  43.916  11.411
20454W        W79957  38.051  16.765   2.662
20455W        W79958  14.818  14.669   4.813
20456W        W79959  28.997  40.496  14.842
20457W        W79960  21.022   9.868  11.411
20458W        W79961  18.734  13.129  13.460
20459W        W79962   7.245   1.803  11.570
20460W        W79963  36.914  29.995  13.979
20461W        W79964  15.226  32.529  11.054
20462W        W79965  28.614  17.586  13.910
20463W        W79966  39.547  40.026   0.414
20464W        W79967   9.769   3.441   3.632
20465W        W79968   5.734  36.509   3.179
20466W        W79969  15.191   3.328  13.848
20467W        W79970  25.651  14.740   4.297
20468W        W79971   1.771  41.430  10.433
20469W        W79972  19.066   4.207   1.748
20470W        W79973  28.946   3.271   2.284
20471W        W79974   4.303  38.536   4.696
20472W        W79975   0.862  33.445   3.805
20473W        W79976  39.404  25.981  12.086
20474W        W79977   6.728  14.813   0.781
20475W        W79978   1.399   3.727  14.360
20476W        W79979  38.819  12.834   1.854
20477W        W79980  13.267   0.251   3.278
20478W        W79981  14.163  12.803  10.584
20479W        W79982   2.433  23.104   1.903
20480W        W79983   1.273  16.775  12.991
20481W        W79984  26.643   8.807   5.143
20482W        W79985  15.659  37.552  11.962
20483W        W79986  17.642  10.160   2.338
20484W        W79987  27.950  37.992   4.305
20485W        W79988  36.436  24.483  14.365
20486W        W79989  11.370  19.039  10.609
20487W        W79990   6.764  14.249   4.766
20488W        W79991  41.934  27.125  13.370
20489W        W79992  17.230  32.410  12.571
20490W        W79993  14.706  10.304   1.898
20491W        W79994  18.160  38.517   3.356
20492W        W79995  36.504  18.198   4.341
20493W        W79996   4.775  27.992   1.358
20494W        W79997  20.036  26.140  13.534
20495W        W79998  21.639  14.641  14.506
20496W        W79999   1.787   2.318   2.384
20497W        W80000  19.740  13.316   3.797
20498W        W80001  10.196   0.788   5.263
20499W        W80002  13.269   6.213  12.386
20500W        W80003  23.702  11.773   0.785
20501W        W80004  35.891  37.349  14.984
20502W        W80005   7.690  23.687   1.361
20503W        W80006  27.493  42.999   3.181
20504W        W80007  24.602  19.672  12.514
20505W        W80008  13.603  28.011  14.026
20506W        W80009  39.838  19.701  12.900
20507W        W80010   3.326  33.620   1.391
20508W        W80011  30.523  13.204   0.346
20509W        W80012  38.332  36.516  12.022
20510W        W80013  43.472  39.920  12.552
20511W        W80014  32.600   0.772  10.529
20512W        W80015  40.809  18.160   2.219
20513W        W80016   2.397   9.357   4.682
20514W        W80017   9.174  27.124  11.397
20515W        W80018  26.462  43.278  14.313
20516W        W80019  15.273   8.855   3.663
20517W        W80020  35.878  18.676   4.133
20518W        W80021  44.978   5.929   2.829
20519W        W80022  20.667  19.079   0.446
20520W        W80023   6.239  28.989   4.115
20521W        W80024  29.989   7.224  14.292
20522W        W80025  21.612   1.946   0.420
20523W        W80026  25.988  24.603   3.327
20524W        W80027  16.576  15.298  13.507
20525W        W80028  41.415   7.669   0.365
20526W        W80029   4.775   0.872  14.464
20527W        W80030   6.428  40.458   5.148
20528W        W80031   7.291  36.927   0.964
20529W        W80032   2.955  25.668   2.683
20530W        W80033  36.947  26.075   3.145
20531W        W80034   6.814  39.429  10.412
20532W        W80035  17.100   5.290  14.400
20533W        W80036   9.369   1.970  11.996
20534W        W80037  39.873  27.597   4.698
20535W        W80038   5.760  20.093  14.962
20536W        W80039  44.783  11.667  10.555
20537W        W80040   1.429  28.488   2.384
20538W        W80041  16.794  35.526   1.373
20539W        W80042  12.633  14.173   0.436
20540W        W80043   1.366  22.682  11.457
20541W        W80044  10.652  12.629  13.537
20542W        W80045   6.399  24.658  10.964
20543W        W80046  31.581  10.137   4.632
20544W        W80047  14.695  16.081  12.981
20545W        W80048  13.669   4.284   2.382
20546W        W80049   9.880  43.284  14.456
20547W        W80050  15.766  25.654  10.604
20548W        W80051  35.509  12.796   1.236
20549W        W80052   7.720   9.394   3.287
20550W        W80053   5.918   2.395  12.405
20551W        W80054  11.649  17.307   5.310
20552W        W80055  32.464   3.931  11.399
20553W        W80056   1.382   5.728  13.848
20554W        W80057   6.858  39.434  12.923
20555W        W80058  31.433   9.244  10.550
20556W        W80059  21.720  44.371  12.486
20557W        W80060   4.736  12.313   2.732
20558W        W80061   7.844  36.510   4.619
20559W        W80062  31.902   2.415   5.155
20560W        W80063  37.539  25.023   3.773
20561W        W80064  30.023  10.247   4.754
20562W        W80065  38.534  17.086   4.126
20563W        W80066  23.510  42.459  12.516
20564W        W80067  33.058  22.555  14.994
20565W        W80068  23.038   4.292  11.026
20566W        W80069  18.258  28.933  14.353
20567W        W80070  19.046  13.780  14.455
20568W        W80071  21.176  18.093  12.563
20569W        W80072  27.171   8.200  14.851
20570W        W80073  11.288   1.809  11.049
20571W        W80074  25.501  25.025   0.800
20572W        W80075   5.361  21.687   0.842
20573W        W80076  36.969  20.724  13.361
20574W        W80077   0.969  34.965  14.941
20575W        W80078   8.285  38.951   9.945
20576W        W80079   6.232  17.557   3.672
20577W        W80080  23.235  42.956   9.642
20578W        W80081   0.820  29.513  11.018
20579W        W80082  31.931  26.168   2.395
20580W        W80083  25.055  35.596  13.042
20581W        W80084  41.346   0.313  12.034
20582W        W80085   3.939  23.606   3.350
20583W        W80086  38.546  20.554  11.595
20584W        W80087  11.772  10.202  13.457
20585W        W80088  31.575  37.872  10.064
20586W        W80089  43.989  27.161  10.510
20587W        W80090  25.589  16.764  14.851
20588W        W80091  36.412  12.737  13.400
20589W        W80092  16.684  10.702  14.790
20590W        W80093  24.669  42.472   4.628
20591W        W80094   9.243  23.137   0.394
20592W        W80095   2.826  27.970   1.902
20593W        W80096   0.248  33.055  13.959
20594W        W80097  13.222  27.683   4.652
20595W        W80098  39.994  26.470  11.855
20596W        W80099  18.274  27.610   4.778
20597W        W80100  32.563   0.835  14.986
20598W        W80101  26.518  33.920  14.983
20599W        W80102   3.410   6.795   4.747
20600W        W80103  30.608  19.136   3.311
20601W        W80104  37.866  23.241   4.170
20602W        W80105  10.836  36.415   2.756
20603W        W80106  14.183  15.117   0.788
20604W        W80107  26.061  35.858  11.887
20605W        W80108   7.729  13.823   9.544
20606W        W80109   1.878   2.902   3.779
20607W        W80110  30.022   7.893   3.811
20608W        W80111  42.031  39.977  10.966
20609W        W80112   7.792  10.324   5.172
20610W        W80113  36.013  21.247  13.325
20611W        W80114  42.317  41.964   2.407
20612W        W80115  10.195  27.614  10.062
20613W        W80116  16.295  34.569   1.399
20614W        W80117  22.148  26.612  14.764
20615W        W80118  15.283  35.998   3.747
20616W        W80119  36.436  44.428   4.736
20617W        W80120  16.741  43.964  13.902
20618W        W80121  34.581  38.064  11.564
20619W        W80122  36.019  16.233   1.351
20620W        W80123  44.786  22.728  13.924
20621W        W80124  42.890  41.006   3.746
20622W        W80125   4.736  26.639   4.597
20623W        W80126  11.768  14.192  14.470
20624W        W80127  38.408  35.510  10.486
20625W        W80128  30.103  14.168   3.300
20626W        W80129  33.473  22.187   3.338
20627W        W80130  22.085  33.931   4.229
20628W        W80131  29.528  32.033   2.272
20629W        W80132  30.054  25.138   0.869
20630W        W80133  41.292   4.891   4.278
20631W        W80134  32.443  27.529   1.358
20632W        W80135  34.486   5.258   1.873
20633W        W80136   3.302  10.316  11.904
20634W        W80137   9.156  18.687  11.567
20635W        W80138  39.535  34.381   1.901
20636W        W80139  26.038  14.131  11.086
20637W        W80140  44.798  35.092   1.767
20638W        W80141  13.227  18.101  12.065
20639W        W80142  19.160   4.852   0.728
20640W        W80143  18.155   8.381  12.086
20641W        W80144  43.917  38.332  14.882
20642W        W80145  11.149  41.325  14.345
20643W        W80146  14.628  27.573  11.501
20644W        W80147   0.427  37.459  13.388
20645W        W80148   3.398  28.463  13.471
20646W        W80149  29.025   3.714   2.751
20647W        W80150  36.537  24.513  10.408
20648W        W80151  44.957  34.502  10.602
20649W        W80152   1.824  31.948   3.805
20650W        W80153  23.114  18.716  10.913
20651W        W80154   3.291  26.660  10.555
20652W        W80155  28.489  22.997  14.499
20653W        W80156  31.908  30.012   0.830
20654W        W80157  15.325  11.708  10.465
20655W        W80158  21.622  36.482  11.960
20656W        W80159   5.377   2.267   1.428
20657W        W80160  39.551  30.953  11.455
20658W        W80161  33.115   1.477   4.833
20659W        W80162  38.522   9.307   0.315
20660W        W80163  10.201  40.307   2.833
20661W        W80164  11.774  30.919  11.610
20662W        W80165   2.471  35.964   1.218
20663W        W80166   2.348   5.233   2.289
20664W        W80167   1.404  26.180   1.374
20665W        W80168  30.016  15.789  14.770
20666W        W80169  15.234  36.437  14.470
20667W        W80170  35.378  10.277   1.355
20668W        W80171   9.834  41.001  11.127
20669W        W80172  10.812  27.579  11.442
20670W        W80173  44.293  43.001  12.979
20671W        W80174  35.476  39.954  11.027
20672W        W80175  44.928   4.945   0.446
20673W        W80176   6.397   1.881  13.493
20674W        W80177  44.790  15.801  11.493
20675W        W80178  16.746  17.117  11.961
20676W        W80179  18.293  38.399   0.765
20677W        W80180  31.037  24.975   5.147
20678W        W80181  14.604  19.771   0.295
20679W        W80182  31.464   3.394   4.728
20680W        W80183  42.965  42.912   4.329
20681W        W80184  15.608   4.791  11.033
20682W        W80185  15.125  25.597  11.396
20683W        W80186   3.714  15.747  10.024
20684W        W80187   3.263  28.587  14.496
20685W        W80188   4.422  27.603   0.455
20686W        W80189  13.278  27.519  10.473
20687W        W80190  16.261  14.255  13.382
20688W        W80191  12.233  35.493   3.381
20689W        W80192  34.421  30.454   3.708
20690W        W80193  23.569  40.427  13.961
20691W        W80194  27.179  11.642  10.518
20692W        W80195  29.110   4.369   0.742
20693W        W80196  37.501   4.292   0.774
20694W        W80197   6.780  36.028  14.012
20695W        W80198  19.243  40.904  10.555
20696W        W80199  42.450  39.812   4.134
20697W        W80200  23.688  29.007  12.057
20698W        W80201   8.277  36.972  10.910
20699W        W80202  22.521  38.948   2.766
20700W        W80203  31.458  23.132   0.280
20701W        W80204  31.931  28.496   3.147
20702W        W80205  41.964  20.690   2.812
20703W        W80206  12.805  34.928   2.679
20704W        W80207  30.955  13.638   2.892
20705W        W80208  40.813  14.715  11.908
20706W        W80209  25.488   5.249   2.329
20707W        W80210  39.512   6.894   0.958
20708W        W80211  25.553  10.240  14.361
20709W        W80212  43.803  27.007   5.576
20710W        W80213  20.591  21.047  11.090
20711W        W80214  34.452  28.444  12.002
20712W        W80215  43.443   5.819   3.352
20713W        W80216  21.701  33.950   3.307
20714W        W80217  28.983  21.133  11.430
20715W        W80218  35.946  19.717  13.006
20716W        W80219  19.661  23.730   2.735
20717W        W80220  28.183  12.240   2.312
20718W        W80221   0.817  16.802   4.216
20719W        W80222  12.309  38.003  12.483
20720W        W80223  41.017   9.394   4.308
20721W        W80224  26.137  10.668   2.682
20722W        W80225  39.334   8.224  13.364
20723W        W80226  11.624  15.141   0.865
20724W        W80227  43.011  16.149   3.655
20725W        W80228  36.897   3.285  10.521
20726W        W80229  25.108  25.091  13.006
20727W        W80230  21.172  14.143   2.749
20728W        W80231  16.657  43.421   3.677
20729W        W80232   8.863  13.286   1.398
20730W        W80233   3.270   5.343   1.440
20731W        W80234  33.882  24.524   4.776
20732W        W80235  11.347  22.069  12.058
20733W        W80236  35.866   5.922  13.039
20734W        W80237  40.053   4.796   1.228
20735W        W80238  16.790  33.389  11.069
20736W        W80239  26.484  17.241   2.685
20737W        W80240  30.911  44.364  12.037
20738W        W80241   4.245  11.688   4.719
20739W        W80242  16.273   9.195   4.610
20740W        W80243  13.705  25.030   0.326
20741W        W80244  37.836  11.223  11.420
20742W        W80245  21.622  27.535  13.880
20743W        W80246   4.296   1.760  12.865
20744W        W80247  43.022   5.430  11.999
20745W        W80248  44.760  19.168   0.481
20746W        W80249  44.287  42.463   3.820
20747W        W80250   1.811  16.659  13.515
20748W        W80251  13.282  30.517  14.818
20749W        W80252  29.939  39.012  11.402
20750W        W80253  28.993  28.573  10.477
20751W        W80254  17.280  31.070   2.896
20752W        W80255  41.468   1.244  12.381
20753W        W80256   1.750   8.213  10.526
20754W        W80257  21.145   7.376   3.859
20755W        W80258  42.014   0.460  10.419
20756W        W80259  44.937  29.535   1.300
20757W        W80260  17.061   7.723  14.508
20758W        W80261   1.745  19.549  14.395
20759W        W80262  11.261  18.203   0.313
20760W        W80263  32.447  43.465  11.510
20761W        W80264  36.867   4.341  11.095
20762W        W80265   5.779  13.127   4.744
20763W        W80266  18.553  37.922   2.865
20764W        W80267  22.534   0.310  12.977
20765W        W80268   1.760  37.024  10.910
20766W        W80269  23.091  27.055  12.090
20767W        W80270  41.324  42.795  12.056
20768W        W80271  38.915  40.410  14.438
20769W        W80272  36.994  44.445  12.893
20770W        W80273   4.225  40.024   2.404
20771W        W80274  33.875  31.100  13.541
20772W        W80275  17.716  19.203   4.310
20773W        W80276  44.981  35.370   0.304
20774W        W80277  41.437  34.884  13.380
20775W        W80278  25.686  37.885  12.579
20776W        W80279  31.602  15.767   9.976
20777W        W80280  39.855  34.468  14.857
20778W        W80281  27.658   4.715   4.145
20779W        W80282  25.036  25.069   3.193
20780W        W80283  27.545  29.511  12.013
20781W        W80284  29.071  35.881   1.817
20782W        W80285  44.791  18.270  10.562
20783W        W80286  44.803   5.913   0.327
20784W        W80287  44.935   4.246   3.215
20785W        W80288  13.339  20.575   1.247
20786W        W80289  36.940  26.968  11.534
20787W        W80290  43.972  10.327  10.597
20788W        W80291  34.989  38.014   3.830
20789W        W80292  24.215  28.963  13.042
20790W        W80293  32.056  12.218   4.742
20791W        W80294  39.360   9.817   3.773
20792W        W80295  23.670  42.407  14.000
20793W        W80296  43.871  14.174  10.946
20794W        W80297  19.272  23.498   0.454
20795W        W80298  24.612  11.835   1.900
20796W        W80299   0.857  28.519  14.419
20797W        W80300  21.695  42.505  10.975
20798W        W80301  13.304   1.942   1.391
20799W        W80302  40.354   1.378  11.378
20800W        W80303  30.496  23.692   3.691
20801W        W80304  31.930  38.361   2.686
20802W        W80305   1.892  17.693   2.885
20803W        W80306  35.585  13.236   0.760
20804W        W80307  38.950  19.719   4.658
20805W        W80308   3.716  18.078  14.355
20806W        W80309   1.339  32.960  12.852
20807W        W80310  40.332   3.819   2.838
20808W        W80311   3.434  32.498  14.768
20809W        W80312  21.737  25.503   2.247
20810W        W80313  35.068  36.062   3.308
20811W        W80314  39.983   1.738  11.445
20812W        W80315  39.461   0.775  10.437
20813W        W80316  44.898   8.684   3.199
20814W        W80317  32.588  37.535  12.919
20815W        W80318  39.452  15.781  10.432
20816W        W80319  10.722  41.374   2.715
20817W        W80320  28.976  44.428   9.921
20818W        W80321   1.353  40.910  12.901
20819W        W80322  12.646  17.139  14.842
20820W        W80323   7.251   1.817  11.009
20821W        W80324  12.222  34.433   4.719
20822W        W80325  28.546  20.090   4.272
20823W        W80326  35.574  31.940   1.374
20824W        W80327  43.863  44.935   3.164
20825W        W80328   7.864  39.963  14.337
20826W        W80329  33.898  32.027   2.180
20827W        W80330   6.826  40.387  12.433
20828W        W80331  14.264  27.557   4.280
20829W        W80332   6.782  16.733  11.866
20830W        W80333  30.557   4.834  11.497
20831W        W80334  11.660  31.603   9.450
20832W        W80335   1.334  34.887   2.749
20833W        W80336  22.046  35.907  12.448
20834W        W80337  30.587  16.653   1.329
20835W        W80338   8.340  19.240  10.993
20836W        W80339  17.125   2.228   1.389
20837W        W80340  22.118  23.597  14.761
20838W        W80341  16.653  21.573   2.731
20839W        W80342  18.061  23.687  12.942
20840W        W80343  41.814   2.387  14.509
20841W        W80344   8.676  21.149   0.734
20842W        W80345  27.658  17.193   3.217
20843W        W80346  32.102  18.164   2.884
20844W        W80347   0.869  24.160   3.199
20845W        W80348  13.212  39.997  13.023
20846W        W80349  16.576   8.724  11.033
20847W        W80350  27.015  25.186   1.753
20848W        W80351  17.694   7.727   1.923
20849W        W80352   4.734  23.144  11.588
20850W        W80353  35.992  44.481  13.013
20851W        W80354   5.334  36.498   1.767
20852W        W80355  43.384  43.902   0.426
20853W        W80356   8.738   5.900   4.798
20854W        W80357  38.008  23.666   1.920
20855W        W80358  39.962  23.094   2.269
20856W        W80359  11.149  22.158  13.421
20857W        W80360  32.440  40.382   5.099
20858W        W80361  30.968  41.830  11.044
20859W        W80362  33.894  28.028   4.246
20860W        W80363  25.657  12.254   4.780
20861W        W80364  40.472  33.908   4.645
20862W        W80365  10.825  27.156   3.195
20863W        W80366  39.394  38.890   2.356
20864W        W80367  12.813  32.460  14.494
20865W        W80368   5.690  13.236   5.195
20866W        W80369  27.663  31.027   1.775
20867W        W80370   4.703  28.074   0.432
20868W        W80371  25.971  43.355  14.288
20869W        W80372   8.211   2.959  14.392
20870W        W80373  16.072  13.764  12.474
20871W        W80374   7.243   0.392  10.576
20872W        W80375  28.463  44.397  12.540
20873W        W80376   9.318  24.709  12.343
20874W        W80377  26.090  42.486   0.922
20875W        W80378  11.852  20.721   4.272
20876W        W80379  28.014  16.232   4.293
20877W        W80380  35.411  29.099   0.357
20878W        W80381   4.923  29.167  14.467
20879W        W80382  37.417  38.004   3.260
20880W        W80383   1.383   1.390   0.760
20881W        W80384   5.228  39.429   4.712
20882W        W80385  36.499  28.971  10.920
20883W        W80386  18.184  16.265  12.073
20884W        W80387  41.003  43.863   3.182
20885W        W80388  44.341  42.364  14.966
20886W        W80389  19.261  39.992   3.189
20887W        W80390  11.801  20.554   0.405
20888W        W80391  29.611   6.335   0.901
20889W        W80392   2.413  26.200   3.175
20890W        W80393  27.179  13.784   1.779
20891W        W80394  14.124  38.393   0.755
20892W        W80395  16.606   1.944  11.382
20893W        W80396  15.269  31.074  14.890
20894W        W80397  44.360  26.679   3.157
20895W        W80398   7.318  43.883   4.351
20896W        W80399  14.601  39.824  11.084
20897W        W80400  23.633   6.342  11.501
20898W        W80401  22.223  42.949  14.874
20899W        W80402  15.316  28.086  12.895
20900W        W80403  20.629  36.853  14.410
20901W        W80404  21.116  33.386  12.035
20902W        W80405   9.714  22.152   0.406
20903W        W80406   6.218  16.158   4.607
20904W        W80407   1.925  24.023  12.523
20905W        W80408  30.967  43.273   4.670
20906W        W80409  15.184  40.372  12.077
20907W        W80410  16.175   9.849   3.722
20908W        W80411  43.380   0.468   3.816
20909W        W80412  28.651   0.763   0.820
20910W        W80413  40.945  39.366  10.619
20911W        W80414  13.104  26.592   2.663
20912W        W80415  38.389  33.013   2.283
20913W        W80416  23.599  42.817  11.005
20914W        W80417  40.354  14.813  10.627
20915W        W80418  30.584  37.444   3.373
20916W        W80419   1.888   7.406   1.308
20917W        W80420   3.755  30.448  12.388
20918W        W80421  16.802  35.084   2.396
20919W        W80422  29.971  33.577   0.380
20920W        W80423   0.424  42.893  11.943
20921W        W80424   9.873  23.987   4.157
20922W        W80425  33.011   4.913  13.920
20923W        W80426  11.144  44.484   1.902
20924W        W80427  44.934  16.669  14.858
20925W        W80428  13.766  38.945  14.322
20926W        W80429  21.140  43.398   1.410
20927W        W80430  31.020  29.984   0.778
20928W        W80431  41.959  22.242  13.370
20929W        W80432  33.991  30.629  14.006
20930W        W80433  33.611   4.919   0.942
20931W        W80434  37.977  29.057   4.304
20932W        W80435  36.417  28.070   3.710
20933W        W80436   5.317  10.276   4.292
20934W        W80437  37.364   4.930  13.937
20935W        W80438   8.406  26.006   1.272
20936W        W80439  33.614   7.194   1.793
20937W        W80440   6.301  24.180   4.777
20938W        W80441  24.570  41.532   4.202
20939W        W80442  26.144   4.289  12.490
20940W        W80443  22.684  19.656  12.021
20941W        W80444  19.165  25.173   4.722
20942W        W80445  33.080  32.637   0.337
20943W        W80446  35.919   3.728   2.701
20944W        W80447  19.728  17.576   4.737
20945W        W80448  18.583  33.622  11.890
20946W        W80449  33.954   5.350   1.898
20947W        W80450   9.161  37.530  11.936
20948W        W80451  16.150   9.877   3.182
20949W        W80452  19.654  12.192  12.519
20950W        W80453  25.615  27.059  12.407
20951W        W80454  37.018   2.936  12.954
20952W        W80455  36.001  14.790  13.382
20953W        W80456  25.170   1.352  10.989
20954W        W80457  28.010  23.011   3.148
20955W        W80458   5.333   1.313  13.450
20956W        W80459   8.724  30.008   4.748
20957W        W80460  40.402  24.127   5.196
20958W        W80461  20.729  12.185   2.398
20959W        W80462  35.916  16.093   0.309
20960W        W80463  42.829  42.840  13.315
20961W        W80464  20.225  13.773  14.481
20962W        W80465  10.773  20.603  10.593
20963W        W80466   8.844  35.876   1.286
20964W        W80467  35.953  35.381   2.353
20965W        W80468  14.760  20.615  13.482
20966W        W80469  41.812  33.894  12.909
20967W        W80470   8.780   1.238   2.835
20968W        W80471  13.705  42.998  10.012
20969W        W80472  42.413  42.936  12.089
20970W        W80473   2.384  15.695   0.270
20971W        W80474  16.247  43.324   4.733
20972W        W80475  25.008  11.626  14.509
20973W        W80476  34.868  44.777   2.233
20974W        W80477   1.468  42.451  10.626
20975W        W80478   1.394  42.026  13.008
20976W        W80479  29.649  26.526   1.842
20977W        W80480  32.095  29.425   9.944
20978W        W80481  22.655  38.496  13.492
20979W        W80482  15.811  42.906   2.315
20980W        W80483   2.342   2.818   2.868
20981W        W80484  24.564  15.741  11.045
20982W        W80485   1.783  30.006   2.297
20983W        W80486  38.819  43.815   3.300
20984W        W80487  14.106   6.360  14.354
20985W        W80488   9.698  27.519   3.296
20986W        W80489  41.448  36.015  11.587
20987W        W80490   3.242  36.965   1.751
20988W        W80491  34.927  13.228  14.862
20989W        W80492  33.971  42.290  11.011
20990W        W80493  20.659   0.899  11.965
20991W        W80494   6.843  23.706  11.973
20992W        W80495  12.241   6.893  12.576
20993W        W80496  20.554  30.617   0.830
20994W        W80497  38.376  41.317   1.344
20995W        W80498  43.778   5.216   4.250
20996W        W80499  10.166  42.523  12.573
20997W        W80500  33.060   7.386  11.878
20998W        W80501   3.732  39.899  13.809
20999W        W80502  31.096  31.443   0.481
21000W        W80503   1.865  16.183   2.738
21001W        W80504   0.315  38.553  11.908
21002W        W80505  19.739   9.866   2.700
21003W        W80506  15.795  35.958  13.512
21004W        W80507  19.732  35.037   2.231
21005W        W80508  34.526  20.535   4.320
21006W        W80509   9.202   8.399  12.429
21007W        W80510  16.586   9.318  14.018
21008W        W80511  40.540   9.689  12.499
21009W        W80512  22.677   7.875   2.300
21010W        W80513  36.011  30.929  12.095
21011W        W80514  11.803  16.212  12.406
21012W        W80515  27.155  14.783  14.887
21013W        W80516   2.340  28.666  13.042
21014W        W80517  12.847  37.903   4.707
21015W        W80518   8.400   0.979   0.342
21016W        W80519  25.477  15.196  12.947
21017W        W80520  43.983  27.056   3.767
21018W        W80521  11.182  42.500  11.582
21019W        W80522  17.715  19.749   4.154
21020W        W80523  24.982  10.270  13.006
21021W        W80524  14.807  29.586   1.807
21022W        W80525   5.255   9.365  10.588
21023W        W80526  34.921  17.133  13.023
21024W        W80527   3.447  27.633   0.319
21025W        W80528  16.095  26.688  13.021
21026W        W80529  10.682  21.676   2.687
21027W        W80530   8.284  41.472   2.273
21028W        W80531   9.838   8.792   4.698
21029W        W80532  25.047  17.121  10.465
21030W        W80533  33.385  43.490   0.373
21031W        W80534  27.079   4.383   2.716
21032W        W80535  18.783   7.269   0.871
21033W        W80536  23.630   3.236  11.998
21034W        W80537  40.050  44.992   1.333
21035W        W80538  38.933  17.272  12.919
21036W        W80539  34.926  14.646   5.117
21037W        W80540  37.345  11.710   2.714
21038W        W80541  41.516  10.158  13.396
21039W        W80542  21.185  40.018   3.209
21040W        W80543  18.579  22.208   1.718
21041W        W80544  18.595  10.218   3.757
21042W        W80545  18.177   9.796   2.181
21043W        W80546  38.956  44.822   3.684
21044W        W80547   5.312  15.125  14.936
21045W        W80548  18.576  42.828  12.866
21046W        W80549  31.453  30.098   1.361
21047W        W80550  41.823  22.534   3.228
21048W        W80551  19.141  44.377  14.937
21049W        W80552  25.488  24.569   3.160
21050W        W80553   1.277  35.954   2.874
21051W        W80554  18.716   6.751  11.372
21052W        W80555   0.369  29.115   3.867
21053W        W80556   9.207   9.387  14.399
21054W        W80557  42.314  22.605  13.910
21055W        W80558  33.562  28.962   1.301
21056W        W80559   5.841  33.394  14.431
21057W        W80560  30.002  21.058  14.853
21058W        W80561  33.970   1.941  14.367
21059W        W80562  35.532   9.834   1.218
21060W        W80563   3.717  26.063   1.412
21061W        W80564  37.565  22.683   4.697
21062W        W80565   2.272  24.103  12.853
21063W        W80566   2.367  16.077  13.377
21064W        W80567  35.898   3.344   2.292
21065W        W80568  22.739  28.659   4.678
21066W        W80569  42.409  22.688  12.010
21067W        W80570  37.542  40.880  14.467
21068W        W80571  25.096  11.280   0.416
21069W        W80572   9.387   1.419  13.497
21070W        W80573  32.484  22.996  12.505
21071W        W80574  14.257  32.912  12.021
21072W        W80575   5.774  36.377   1.306
21073W        W80576  24.626   5.336   4.678
21074W        W80577  21.249   2.288   5.284
21075W        W80578  11.141  37.081  11.954
21076W        W80579  21.152  10.789  11.425
21077W        W80580  20.733  23.677   3.309
21078W        W80581  29.626  37.842  12.937
21079W        W80582  15.202  39.321   3.821
21080W        W80583  44.936   5.372   1.420
21081W        W80584  23.577  26.044   0.478
21082W        W80585  23.118  36.020  13.826
21083W        W80586  39.865   1.927  12.376
21084W        W80587  35.390  33.883  10.482
21085W        W80588  26.163  17.736  14.353
21086W        W80589  41.441  36.953   2.714
21087W        W80590  17.689  38.462  12.089
21088W        W80591  25.965  38.857   1.724
21089W        W80592  11.807  34.519  11.520
21090W        W80593   5.828   6.276   2.828
21091W        W80594  32.975  21.654  10.403
21092W        W80595  25.511   1.781  14.824
21093W        W80596  22.220  14.316   3.670
21094W        W80597  33.592  12.830  13.382
21095W        W80598  30.940   2.288  12.541
21096W        W80599  29.442  37.079  12.417
21097W        W80600  12.327  14.279  10.935
21098W        W80601   8.813  11.731   1.860
21099W        W80602  24.590  18.243   2.834
21100W        W80603  17.623  13.805  12.388
21101W        W80604  31.532   2.735  12.054
21102W        W80605  34.506   3.426  13.388
21103W        W80606  27.991  44.485  13.436
21104W        W80607  25.999  23.601   4.144
21105W        W80608  17.637  40.810  12.047
21106W        W80609  37.022   1.799   1.765
21107W        W80610  30.428  13.784  13.345
21108W        W80611  33.519  16.728   1.927
21109W        W80612  10.283  12.790   2.313
21110W        W80613  43.785  36.952  12.511
21111W        W80614  16.677  35.900  13.798
21112W        W80615   3.714   5.352   1.789
21113W        W80616  32.589  12.313  13.457
21114W        W80617   6.202  28.108   5.094
21115W        W80618  36.981  36.401  12.884
21116W        W80619  13.121  41.889  10.954
21117W        W80620  35.499   4.286   3.747
21118W        W80621  36.900  16.264   4.696
21119W        W80622   5.882  44.753  13.508
21120W        W80623  35.515  30.617   4.153
21121W        W80624  14.704  21.557   4.748
21122W        W80625  22.747   0.430   2.769
21123W        W80626  14.750  41.449  13.940
21124W        W80627  31.931   3.433   4.328
21125W        W80628  36.576   7.717   4.317
21126W        W80629  35.963  43.882  13.490
21127W        W80630  15.819  35.585   0.828
21128W        W80631  40.507  22.562   1.321
21129W        W80632  29.457  43.288  11.025
21130W        W80633   6.405   2.314   0.923
21131W        W80634  21.638  33.433   0.408
21132W        W80635   9.780  12.181  11.461
21133W        W80636  26.103  12.709  10.900
21134W        W80637  25.678  36.583  13.919
21135W        W80638  30.933  36.986  12.900
21136W        W80639  42.305  38.386  11.061
21137W        W80640  24.601  33.580   2.386
21138W        W80641  25.628   4.228  14.364
21139W        W80642   2.442   9.779   2.297
21140W        W80643  29.080  30.144  14.404
21141W        W80644  24.206   5.760  11.905
21142W        W80645  19.125  34.575   2.369
21143W        W80646  44.439   5.300  12.407
21144W        W80647  14.726  17.253  12.501
21145W        W80648  42.002  14.715  12.979
21146W        W80649  32.432   8.303  10.913
21147W        W80650  41.971  18.762  10.887
21148W        W80651  32.909  12.850   3.650
21149W        W80652  10.808  27.687  12.346
21150W        W80653  27.567   9.660   2.239
21151W        W80654  33.096   9.791   2.857
21152W        W80655   3.919  10.752   0.924
21153W        W80656  16.733  24.580   1.233
21154W        W80657  19.658  10.144  10.514
21155W        W80658  21.025  36.456  11.497
21156W        W80659  29.553  12.622  14.373
21157W        W80660  31.926  33.120  14.434
21158W        W80661  19.132  14.648   1.926
21159W        W80662  36.458   1.770   3.240
21160W        W80663   1.424  16.176   4.259
21161W        W80664  29.937  42.404  12.078
21162W        W80665  10.310  12.694  12.995
21163W        W80666   4.842  25.497  14.388
21164W        W80667  39.995   1.829  12.862
21165W        W80668  10.359  36.045  12.900
21166W        W80669  25.621  11.858  11.471
21167W        W80670  30.138  13.174   1.743
21168W        W80671   8.406  11.339   2.284
21169W        W80672  14.798  18.600  14.860
21170W        W80673  16.675  22.037   3.381
21171W        W80674  43.387   8.658   5.102
21172W        W80675   2.307  44.282   1.286
21173W        W80676   5.789  10.735   0.299
21174W        W80677  33.963   8.815  11.121
21175W        W80678  19.225  32.105  11.496
21176W        W80679   7.750  29.099   3.771
21177W        W80680  23.640  12.731  11.564
21178W        W80681  22.708   6.425   1.792
21179W        W80682  37.024  34.995  10.603
21180W        W80683  20.654  27.172  10.420
21181W        W80684  43.980  35.914  11.011
21182W        W80685  43.348   5.214  13.015
21183W        W80686  13.341   7.725   1.922
21184W        W80687  36.395  29.661  13.319
21185W        W80688  43.333  17.068  12.349
21186W        W80689   1.344  43.279   0.382
21187W        W80690  10.794  11.358   0.277
21188W        W80691  26.494  40.875   5.124
21189W        W80692  24.031   0.823  14.774
21190W        W80693   9.313  12.271   9.618
21191W        W80694  27.561  36.351  10.483
21192W        W80695  23.692   7.785   4.206
21193W        W80696  34.450   0.793   4.136
21194W        W80697  30.054   2.883  11.941
21195W        W80698  21.189  43.784  12.925
21196W        W80699  30.102  40.370  11.511
21197W        W80700   6.730   3.909   0.802
21198W        W80701  42.011   8.814   4.609
21199W        W80702   9.211  25.176   4.658
21200W        W80703  35.491  35.868  11.403
21201W        W80704  34.538  30.629  13.533
21202W        W80705  30.020  28.572  13.315
21203W        W80706  40.335  15.822   2.331
21204W        W80707  37.515  29.600   3.633
21205W        W80708  17.296   8.847  10.577
21206W        W80709  10.875  40.931   0.911
21207W        W80710  44.903  14.741  12.403
21208W        W80711  10.689   8.274  12.576
21209W        W80712  19.696   6.384  13.985
21210W        W80713   1.942  41.832  12.031
21211W        W80714  31.429  36.845  11.581
21212W        W80715  11.339  16.090  14.298
21213W        W80716   6.856  21.588  11.882
21214W        W80717   4.805   4.427  11.574
21215W        W80718  10.188   3.408  13.848
21216W        W80719  22.528  16.192  12.946
21217W        W80720  36.409  21.178  13.840
21218W        W80721  27.005  18.751   1.340
21219W        W80722  10.188   4.345  12.832
21220W        W80723  42.980  34.389   0.283
21221W        W80724  19.714  22.635   0.477
21222W        W80725  23.197  35.931  14.466
21223W        W80726  19.137  37.055  11.446
21224W        W80727  29.559  12.616   5.691
21225W        W80728  30.648  31.458   2.178
21226W        W80729  42.953  38.404   3.232
21227W        W80730  33.106  30.576   3.738
21228W        W80731  29.150  26.977   3.868
21229W        W80732  15.628  25.133   0.932
21230W        W80733  38.985  23.224   3.821
21231W        W80734  30.648  24.627  13.902
21232W        W80735  32.929   9.339   1.847
21233W        W80736  17.130   4.914  13.535
21234W        W80737   7.691  34.050  11.080
21235W        W80738  40.334  44.484   4.315
21236W        W80739   6.697   7.849  11.379
21237W        W80740  44.790  42.791   4.674
21238W        W80741  14.217  30.567   4.244
21239W        W80742   2.335  21.719   3.765
21240W        W80743   2.810  24.651  14.307
21241W        W80744  30.423  30.642   2.805
21242W        W80745   7.800  24.660   4.763
21243W        W80746  19.044   6.384  12.015
21244W        W80747  40.806   3.340   2.210
21245W        W80748  31.057   4.898   0.394
21246W        W80749  13.758  37.558   0.471
21247W        W80750  40.838  42.378  14.324
21248W        W80751  14.219  10.187   4.284
21249W        W80752   3.294   9.864  10.485
21250W        W80753   0.763  32.602  14.777
21251W        W80754  14.789  34.032  11.991
21252W        W80755  28.670  21.077  12.454
21253W        W80756   3.744  23.710  10.144
21254W        W80757  43.816  18.769  14.992
21255W        W80758  30.643  40.859  14.281
21256W        W80759  34.996  12.622  12.038
21257W        W80760  17.603  28.027  11.440
21258W        W80761  28.107  14.613  13.793
21259W        W80762  20.188  27.964   3.828
21260W        W80763   1.889   6.413   1.366
21261W        W80764  15.703   1.469  12.898
21262W        W80765  30.469   1.296  12.357
21263W        W80766  14.682  16.187  13.315
21264W        W80767  16.733  15.249   1.791
21265W        W80768   3.737   1.788   0.298
21266W        W80769  14.213   0.266  10.600
21267W        W80770   9.737  27.144   3.197
21268W        W80771  43.439  30.440  13.542
21269W        W80772  10.295  10.164  13.361
21270W        W80773  15.768  16.656   3.176
21271W        W80774  42.429  39.509   0.286
21272W        W80775  21.216  44.851  13.432
21273W        W80776  36.476   6.770  13.544
21274W        W80777  36.862  25.659   1.233
21275W        W80778  37.372  10.385   1.835
21276W        W80779  15.723  34.875  10.465
21277W        W80780  19.726   5.261   1.300
21278W        W80781  43.900  14.264  10.624
21279W        W80782  22.663  33.578   5.236
21280W        W80783  21.756  12.665   4.139
21281W        W80784  25.018  38.549  14.005
21282W        W80785  33.977  41.811  13.355
21283W        W80786  44.008  38.536   2.335
21284W        W80787   3.309  26.096  10.937
21285W        W80788   7.856  18.756  13.482
21286W        W80789  44.458  39.927   5.252
21287W        W80790  16.227  13.181   3.287
21288W        W80791   0.750   4.780  11.520
21289W        W80792  20.768  17.649  12.997
21290W        W80793  25.650  21.572  11.018
21291W        W80794  36.424  13.773   0.417
21292W        W80795  37.376  33.439  11.600
21293W        W80796   8.819  12.695  13.809
21294W        W80797  35.108  10.266   0.811
21295W        W80798  10.170   8.216   0.796
21296W        W80799  28.602   8.699  12.840
21297W        W80800   7.771  12.815  11.864
21298W        W80801  22.191  39.985   4.223
21299W        W80802  34.969   9.736   0.811
21300W        W80803  36.373  25.043  14.884
21301W        W80804  36.050  14.304  12.346
21302W        W80805  25.639   7.783   4.254
21303W        W80806  27.097  22.627   3.161
21304W        W80807  36.082  39.378  10.926
21305W        W80808  32.138   9.192   3.818
21306W        W80809  20.726  27.114  14.894
21307W        W80810  16.172  21.094   2.178
21308W        W80811   9.237  17.655   2.844
21309W        W80812  14.755  13.309   3.675
21310W        W80813   7.884  43.832   1.305
21311W        W80814  15.268   0.971  11.081
21312W        W80815  41.915  43.421  13.905
21313W        W80816   8.334  41.534  13.986
21314W        W80817   0.479  30.916  13.492
21315W        W80818  35.461  35.510  10.503
21316W        W80819  19.116  15.244  10.452
21317W        W80820  17.157  23.069  10.562
21318W        W80821  27.957  37.354   2.285
21319W        W80822   4.942  36.889   0.374
21320W        W80823  30.142   6.331  13.503
21321W        W80824  36.567   8.237  11.099
21322W        W80825  36.398  26.486  10.535
21323W        W80826  43.958  41.872   2.828
21324W        W80827  38.379  18.157   3.786
21325W        W80828  36.518   4.228  11.485
21326W        W80829  28.677  42.828  10.425
21327W        W80830   1.244  21.155   2.252
21328W        W80831  13.817  44.353   3.218
21329W        W80832   4.941  14.815  14.875
21330W        W80833  40.935  32.053  10.887
21331W        W80834  11.748  12.128  13.492
21332W        W80835   1.733  30.967  13.842
21333W        W80836  42.818  11.865  10.516
21334W        W80837  35.476  33.013  13.050
21335W        W80838  42.028  26.139  13.007
21336W        W80839   6.788   4.885  11.375
21337W        W80840  12.167  16.658  10.642
21338W        W80841  34.564   1.281   4.287
21339W        W80842  18.205  33.579   1.241
21340W        W80843  43.369  29.524   2.412
21341W        W80844  20.687  34.490   4.796
21342W        W80845  21.512  42.982   5.123
21343W        W80846  17.781  42.942   2.728
21344W        W80847  11.819   8.383  11.553
21345W        W80848  17.637   2.335  11.400
21346W        W80849   8.846  35.971  12.355
21347W        W80850  19.647  17.293   0.753
21348W        W80851  32.632  38.871   1.338
21349W        W80852  32.055   3.242   0.915
21350W        W80853   3.266  18.233  11.468
21351W        W80854  13.646  29.928  14.822
21352W        W80855  30.503  24.166   3.260
21353W        W80856  18.633   2.923  10.639
21354W        W80857  15.628  17.254  12.075
21355W        W80858  19.618  27.941   0.322
21356W        W80859   1.889  24.653  10.474
21357W        W80860   6.269  29.083  13.931
21358W        W80861  36.573  26.056   3.161
21359W        W80862  33.014  41.813  12.059
21360W        W80863  27.519   7.385   4.258
21361W        W80864  37.492  36.032   1.341
21362W        W80865  24.685  44.890  14.932
21363W        W80866   8.267   4.789   2.337
21364W        W80867   9.182  24.144  11.022
21365W        W80868  39.034  34.008  14.299
21366W        W80869  39.375  15.631   4.217
21367W        W80870  17.240  32.530  10.420
21368W        W80871   4.796  41.997   4.612
21369W        W80872  34.533  18.764   2.868
21370W        W80873  20.121  33.131  10.965
21371W        W80874  39.820  14.111   4.232
21372W        W80875  14.134  29.543   1.213
21373W        W80876  15.316  20.676  11.871
21374W        W80877  21.598  24.698  12.055
21375W        W80878   1.349   5.720   0.736
21376W        W80879  25.130  26.951  12.829
21377W        W80880  17.662  14.673   2.776
21378W        W80881  43.992  17.281  12.010
21379W        W80882   0.251  43.805   2.291
21380W        W80883  18.611  34.101   2.775
21381W        W80884  28.949   8.679   0.784
21382W        W80885  33.528  27.639   0.791
21383W        W80886   7.787   7.909   2.275
21384W        W80887  33.464   4.827   1.788
21385W        W80888  44.320  29.055   4.609
21386W        W80889  22.570  24.031   3.362
21387W        W80890   9.760  33.055   2.784
21388W        W80891  17.244   5.803  13.928
21389W        W80892   6.308  44.377   2.707
21390W        W80893  21.214   4.859  14.794
21391W        W80894   8.363  43.868  11.597
21392W        W80895  27.499  16.569  10.424
21393W        W80896   1.828  27.509  11.100
21394W        W80897  37.854   4.754  11.005
21395W        W80898   9.680  22.104   0.954
21396W        W80899   5.720  22.087   0.867
21397W        W80900   6.304   2.459  14.417
21398W        W80901  39.461  38.941   3.725
21399W        W80902  32.625   0.367   0.351
21400W        W80903  44.352  40.358   3.636
21401W        W80904  10.871  41.021   0.473
21402W        W80905   8.190  10.165  11.373
21403W        W80906  19.102  39.928   1.264
21404W        W80907  34.102  17.175  11.037
21405W        W80908   2.850  12.765   0.939
21406W        W80909  42.394  14.222  11.524
21407W        W80910  35.374   1.939   2.774
21408W        W80911  32.028  37.007   2.756
21409W        W80912  38.073  34.915   0.330
21410W        W80913  21.020   4.843  11.946
21411W        W80914  23.722  15.648  11.517
21412W        W80915  12.701  13.788   2.267
21413W        W80916  14.141   9.379  14.962
21414W        W80917  15.808  33.463  11.969
21415W        W80918  38.425  24.563   0.815
21416W        W80919  39.980  38.350   0.857
21417W        W80920  19.709  23.034   3.714
21418W        W80921  39.332  20.180   1.380
21419W        W80922  41.836  29.634  12.850
21420W        W80923  40.438   9.289   0.304
21421W        W80924   0.871   7.771   4.331
21422W        W80925   3.753  25.520   4.201
21423W        W80926  13.237  35.050   1.773
21424W        W80927  26.488   7.843   4.144
21425W        W80928   9.301  40.042   2.211
21426W        W80929  17.150  36.462   2.732
21427W        W80930   4.388  10.350   1.761
21428W        W80931  39.040  35.394   1.277
21429W        W80932  37.567  43.844  13.342
21430W        W80933  20.191  43.018  13.900
21431W        W80934  40.308  32.536  10.556
21432W        W80935  12.262  34.398   1.695
21433W        W80936  14.191  23.733   3.354
21434W        W80937  10.671  13.338  12.421
21435W        W80938  37.568  37.906  12.936
21436W        W80939  23.506   9.811   4.718
21437W        W80940  34.382  24.116  14.825
21438W        W80941   2.954  12.660  14.318
21439W        W80942  36.532  33.590   2.199
21440W        W80943  32.467  36.496  12.952
21441W        W80944  39.983  44.399   3.700
21442W        W80945   9.205  24.985   1.315
21443W        W80946  39.831  10.873  11.595
21444W        W80947  21.051  28.017  14.480
21445W        W80948  19.165  36.488   4.202
21446W        W80949  41.834  40.522  12.474
21447W        W80950  35.017  30.148  12.557
21448W        W80951   8.752   6.326  11.127
21449W        W80952  19.252  29.569   2.231
21450W        W80953  22.184   7.416  11.430
21451W        W80954  25.090  43.405  11.079
21452W        W80955  19.685   5.331  12.844
21453W        W80956  30.512  32.615   4.678
21454W        W80957  21.152   0.284  13.547
21455W        W80958   6.327  35.959  12.526
21456W        W80959  27.081  42.003   4.238
21457W        W80960  43.951  21.058   2.223
21458W        W80961  20.238  24.061   3.638
21459W        W80962  12.635   5.343   2.237
21460W        W80963  31.037  23.593  11.055
21461W        W80964   1.937  12.775   0.735
21462W        W80965  21.025  30.433   3.241
21463W        W80966   9.676  17.196   1.718
21464W        W80967  43.769   8.692   3.243
21465W        W80968  14.322   1.366  13.910
21466W        W80969  26.538  28.038  12.360
21467W        W80970  24.996  40.401  14.467
21468W        W80971  41.309  24.987  11.527
21469W        W80972  31.051  39.999  14.785
21470W        W80973  12.339  22.680   3.373
21471W        W80974   3.762  33.508  11.961
21472W        W80975  21.122  25.052   4.251
21473W        W80976  30.505  22.608  13.034
21474W        W80977  36.907  15.178  11.556
21475W        W80978  29.001  35.073   1.741
21476W        W80979  41.883  39.509  13.399
21477W        W80980   9.280  30.432   0.826
21478W        W80981  14.110   7.263   1.826
21479W        W80982   1.452  27.633   4.256
21480W        W80983  12.670   2.461  14.372
21481W        W80984  36.993  29.564  12.390
21482W        W80985  16.652   3.719   3.858
21483W        W80986  12.813  30.068  11.594
21484W        W80987   5.772   8.365  12.897
21485W        W80988  13.680  42.432   2.662
21486W        W80989  29.563  12.266   1.878
21487W        W80990  37.402  44.920   0.325
21488W        W80991  15.738  31.077   5.238
21489W        W80992  13.348  36.887   3.631
21490W        W80993  17.216   0.949  14.946
21491W        W80994  18.775  27.527  11.611
21492W        W80995   9.741  12.682  13.525
21493W        W80996  35.873  11.372  11.875
21494W        W80997  21.652  40.339  12.411
21495W        W80998  33.443  40.455   3.184
21496W        W80999   8.316  28.518   1.249
21497W        W81000  37.860  44.365  14.948
21498W        W81001   4.369  10.298   4.212
21499W        W81002  16.699  34.921  12.028
21500W        W81003  21.147  32.517  14.402
21501W        W81004   4.253  10.698  10.553
21502W        W81005  17.681   8.338  12.857
21503W        W81006  30.031   9.817  12.463
21504W        W81007  36.992  29.574  10.938
21505W        W81008  25.713  34.384   3.637
21506W        W81009   2.308  11.788   4.652
21507W        W81010  28.476   5.868   0.371
21508W        W81011  22.674  19.181   0.834
21509W        W81012  11.155  27.551   3.645
21510W        W81013   8.371  11.353  14.398
21511W        W81014  10.142   0.775  11.911
21512W        W81015  23.490  30.018  13.032
21513W        W81016  11.155  43.963  12.897
21514W        W81017  36.540  40.509  10.492
21515W        W81018  23.114   6.736   4.807
21516W        W81019  22.009  19.533   2.730
21517W        W81020  17.100  26.019  11.380
21518W        W81021  25.691  30.596   4.825
21519W        W81022  18.275  35.465   1.361
21520W        W81023   4.318  19.730  11.451
21521W        W81024  31.496  10.798   1.910
21522W        W81025   1.759  16.238  11.371
21523W        W81026   7.281  21.205  10.448
21524W        W81027  26.972  34.560   2.285
21525W        W81028  25.204  37.974  12.890
21526W        W81029   6.913  18.113   3.638
21527W        W81030  41.799  28.021  11.868
21528W        W81031  21.579  22.583  10.633
21529W        W81032  29.150   8.371   2.833
21530W        W81033  40.353   3.801   4.599
21531W        W81034  34.409   3.250   4.824
21532W        W81035  44.791  15.100  11.496
21533W        W81036  17.786  21.250   1.408
21534W        W81037  23.104  13.108   0.785
21535W        W81038  10.329   4.378   4.301
21536W        W81039  38.015  44.276   3.710
21537W        W81040  39.969  15.187   1.905
21538W        W81041   0.271   8.307  11.007
21539W        W81042  29.980  25.080  11.532
21540W        W81043  25.711  39.339   0.365
21541W        W81044  26.148  33.010  13.982
21542W        W81045   6.361  44.004   0.467
21543W        W81046  43.359  23.189  13.526
21544W        W81047  26.518  12.750   3.256
21545W        W81048  30.598  33.379  12.876
21546W        W81049  41.425  25.213   2.886
21547W        W81050   2.355  20.198  14.758
21548W        W81051  18.719  15.672   0.769
21549W        W81052   2.283  24.617  14.470
21550W        W81053  31.640  37.968  12.402
21551W        W81054   7.211  20.709   1.720
21552W        W81055   1.468  33.445   3.857
21553W        W81056   8.182   7.260   3.839
21554W        W81057  44.832   6.388   3.789
21555W        W81058  18.569  28.493   4.258
21556W        W81059  36.844  32.630  12.366
21557W        W81060  26.573   8.225   4.354
21558W        W81061  34.414  37.338  14.819
21559W        W81062   9.247  10.274   0.446
21560W        W81063  23.619  25.074   4.806
21561W        W81064  23.209   1.242   0.258
21562W        W81065   9.711  37.890  11.381
21563W        W81066  40.810  26.063   4.308
21564W        W81067  14.736  44.299   2.793
21565W        W81068   5.701  11.820  11.973
21566W        W81069   1.319  12.144  11.080
21567W        W81070  26.587  44.979   4.745
21568W        W81071  37.547   8.687  12.572
21569W        W81072  12.802  17.246   4.161
21570W        W81073  12.272  24.975   3.274
21571W        W81074  11.832   4.850  12.369
21572W        W81075   0.449  38.005   4.304
21573W        W81076   1.762  24.665  14.000
21574W        W81077  12.674   5.736  10.591
21575W        W81078  18.114   7.384  11.884
21576W        W81079   0.294   0.878  14.510
21577W        W81080  27.654  44.945  12.510
21578W        W81081   9.230  29.105   3.720
21579W        W81082  42.986   8.236  10.531
21580W        W81083  24.018  38.024   2.365
21581W        W81084  44.280  26.092  14.355
21582W        W81085  10.222  14.193   2.842
21583W        W81086  33.473  24.195   0.848
21584W        W81087  38.377  31.441  12.824
21585W        W81088   9.825  33.114   3.294
21586W        W81089  25.512  30.573  11.509
21587W        W81090  37.538  41.889   3.796
21588W        W81091  29.943   8.213  14.823
21589W        W81092  28.074  41.966  13.351
21590W        W81093  31.544  19.060  13.466
21591W        W81094  14.174  31.647   0.893
21592W        W81095   1.781   9.222   4.832
21593W        W81096  39.538  35.511  13.346
21594W        W81097  16.748  30.937  11.432
21595W        W81098  35.545   1.959   0.339
21596W        W81099  13.696  42.466  11.526
21597W        W81100   5.276  23.138  10.987
21598W        W81101   4.250  35.100  13.968
21599W        W81102  20.176  20.273  12.476
21600W        W81103  29.109   9.744  12.035
21601W        W81104  18.629  11.647   3.637
21602W        W81105  41.445  17.788   1.237
21603W        W81106  27.458  14.141   1.734
21604W        W81107   4.269  33.949  12.560
21605W        W81108  20.094  35.529  11.029
21606W        W81109  10.213  11.309   3.262
21607W        W81110   9.753  11.703   1.249
21608W        W81111  16.695  44.434  12.425
21609W        W81112  21.163  34.875  14.399
21610W        W81113  32.130   4.737   3.243
21611W        W81114   8.208  38.388   0.928
21612W        W81115  43.780  11.812   2.314
21613W        W81116   5.754  40.030  12.888
21614W        W81117  16.670  19.182   2.901
21615W        W81118  18.224   3.282   0.949
21616W        W81119  19.281  41.020  11.553
21617W        W81120  16.176  43.352  11.500
21618W        W81121  38.074  34.393   1.806
21619W        W81122  39.031  42.483   4.249
21620W        W81123  34.500  10.251  11.538
21621W        W81124   6.193  36.857  11.100
21622W        W81125  30.907  29.500  11.476
21623W        W81126   4.275   0.864   0.767
21624W        W81127   6.913  35.469  13.457
21625W        W81128  24.679  32.134  13.905
21626W        W81129  20.568  15.788   0.330
21627W        W81130  22.097  10.321  14.927
21628W        W81131  34.955  19.692  13.425
21629W        W81132   4.428  13.736  10.445
21630W        W81133  33.032  19.731  11.888
21631W        W81134   5.282   0.302   3.763
21632W        W81135  11.712  21.514   2.713
21633W        W81136   4.827  20.673  12.565
21634W        W81137  39.869  15.137   4.607
21635W        W81138   9.324   6.250  14.419
21636W        W81139  32.985  12.338  13.387
21637W        W81140  15.628  42.877   4.305
21638W        W81141  38.917   0.924  11.432
21639W        W81142   2.351  29.599  10.546
21640W        W81143  27.562   2.360   4.720
21641W        W81144   7.318  36.056   2.748
21642W        W81145  40.908  13.766  13.454
21643W        W81146  27.010  20.729  14.431
21644W        W81147   1.891  42.967  13.952
21645W        W81148  13.747   7.242  13.922
21646W        W81149  35.433  34.497  11.518
21647W        W81150  30.999  28.547  10.960
21648W        W81151  31.915  38.440   5.579
21649W        W81152  36.564  11.814   2.182
21650W        W81153   6.813   3.320  10.438
21651W        W81154  23.582  30.599  13.820
21652W        W81155   4.837  42.385  12.035
21653W        W81156   6.833   5.281   1.917
21654W        W81157   2.387  42.904  14.836
21655W        W81158  31.951  41.516   0.363
21656W        W81159  32.948  17.685  13.855
21657W        W81160   5.720  38.351  11.109
21658W        W81161  36.561   9.289   2.699
21659W        W81162  42.999  16.731  11.422
21660W        W81163  35.038  20.654  11.965
21661W        W81164   6.295  16.598   1.366
21662W        W81165   5.703  41.365   3.161
21663W        W81166  43.004  36.559   4.687
21664W        W81167  14.231  15.214   2.881
21665W        W81168  20.768  44.423  13.520
21666W        W81169  10.715  29.437  12.429
21667W        W81170   8.789   0.260  14.812
21668W        W81171  10.864  18.127  10.617
21669W        W81172  10.368   2.876  14.898
21670W        W81173  44.006  24.510   4.631
21671W        W81174   1.388  33.004   0.406
21672W        W81175  13.299   3.864  13.999
21673W        W81176   0.469  14.800   3.736
21674W        W81177  26.044  26.647   3.808
21675W        W81178  25.017  13.184   4.766
21676W        W81179   3.799  36.589  13.849
21677W        W81180  14.599   3.714   4.207
21678W        W81181  12.825  36.372   4.690
21679W        W81182  44.831  33.988  13.440
21680W        W81183  32.008  37.536   9.625
21681W        W81184   6.246   7.891   1.305
21682W        W81185   5.299  12.266   1.384
21683W        W81186   8.400  36.852  13.823
21684W        W81187   9.262   0.258   0.446
21685W        W81188  21.076  43.292   3.836
21686W        W81189   9.861   0.886   0.436
21687W        W81190  40.310  26.596  14.920
21688W        W81191  24.222  35.925   0.446
21689W        W81192  33.074  33.514   2.723
21690W        W81193  41.515  22.502  12.466
21691W        W81194   1.772  17.592   2.250
21692W        W81195  28.608  29.983  13.806
21693W        W81196  33.122  41.294  14.351
21694W        W81197  29.579  31.943  14.820
21695W        W81198  37.893   7.694  10.938
21696W        W81199  38.370  19.594  11.378
21697W        W81200  12.136   8.656  12.038
21698W        W81201   5.824   6.864   2.688
21699W        W81202  37.962  14.146  11.987
21700W        W81203  27.472  34.459   3.653
21701W        W81204  42.921  21.239   4.329
21702W        W81205   6.774  44.877   0.899
21703W        W81206  42.401  21.591  10.530
21704W        W81207   0.488  44.778   0.472
21705W        W81208   5.332  11.772  12.082
21706W        W81209  37.084  17.764  14.310
21707W        W81210  12.648  42.381  11.903
21708W        W81211  25.066  22.695  12.383
21709W        W81212  20.190   2.251  14.782
21710W        W81213  35.098   4.295  11.522
21711W        W81214   2.242  19.111   9.933
21712W        W81215  21.703  24.081  11.504
21713W        W81216  25.183  28.439   3.809
21714W        W81217  36.591  13.167  13.912
21715W        W81218  28.679  30.017  12.035
21716W        W81219  22.201  22.151  12.977
21717W        W81220  28.952  31.527  11.511
21718W        W81221  15.681  28.519   0.769
21719W        W81222  29.990  23.540  10.429
21720W        W81223  38.396  14.760   1.789
21721W        W81224  34.576  11.153   1.381
21722W        W81225   6.364  15.617  12.938
21723W        W81226  16.232  15.177   4.272
21724W        W81227   7.213  21.581  14.785
21725W        W81228  25.652  30.029  13.881
21726W        W81229  43.883  37.881   2.818
21727W        W81230  13.617  32.037   5.717
21728W        W81231   8.182  36.385  10.963
21729W        W81232   7.754  12.137  12.907
21730W        W81233  38.054  27.525   4.342
21731W        W81234  15.188  25.965  12.851
21732W        W81235  17.293  12.142  10.411
21733W        W81236  13.304  39.879   0.756
21734W        W81237  32.402   9.663   1.765
21735W        W81238   3.322  13.716   0.425
21736W        W81239  21.119   3.875   0.273
21737W        W81240  10.837  15.091  13.313
21738W        W81241  34.596   1.887  11.593
21739W        W81242  26.625  24.084   5.176
21740W        W81243  22.683  27.032  10.559
21741W        W81244   2.932  18.602   3.719
21742W        W81245  43.440  31.042  12.933
21743W        W81246   5.325   0.266  11.535
21744W        W81247  16.126   1.358  11.114
21745W        W81248  26.979  10.169   1.303
21746W        W81249  17.254  44.828  10.556
21747W        W81250  39.835  17.637  12.368
21748W        W81251  18.191  33.042   2.270
21749W        W81252   9.315  41.327  14.013
21750W        W81253  23.703  43.377   1.438
21751W        W81254  34.032  10.681  12.442
21752W        W81255   8.312  12.187  11.119
21753W        W81256  26.514  25.514  10.976
21754W        W81257  18.156  24.003   4.695
21755W        W81258  39.501  28.168   0.449
21756W        W81259  29.525  37.060   0.464
21757W        W81260  26.981  20.545   3.849
21758W        W81261  32.401  36.362  11.975
21759W        W81262  27.006  41.454   5.295
21760W        W81263  13.809  24.506   3.851
21761W        W81264   8.742  10.670  12.954
21762W        W81265  12.839  37.381   2.711
21763W        W81266  34.868  18.179  11.921
21764W        W81267  36.996  16.799   3.748
21765W        W81268  12.191   4.416   2.190
21766W        W81269  40.001  25.155  13.505
21767W        W81270   9.661   0.359   4.306
21768W        W81271  13.697  27.104   2.813
21769W        W81272  10.773  10.355  13.479
21770W        W81273  41.854   4.820   1.337
21771W        W81274  17.634   0.376  13.454
21772W        W81275  17.558  21.241  13.415
21773W        W81276  26.122  34.599  10.592
21774W        W81277  25.173   3.290   3.266
21775W        W81278  27.182  15.788  14.892
21776W        W81279  33.001   8.840  12.580
21777W        W81280  42.511   3.750  14.903
21778W        W81281   0.285  15.099  12.904
21779W        W81282   7.227  35.558   0.426
21780W        W81283   8.360  13.787  13.835
21781W        W81284  15.177  21.109   4.764
21782W        W81285  16.807   9.827  10.500
21783W        W81286  33.514  40.014  11.923
21784W        W81287  24.638  22.216  14.795
21785W        W81288  13.727   4.333   0.856
21786W        W81289  43.822  28.005   2.268
21787W        W81290  28.038  26.122   3.846
21788W        W81291  16.083  10.737  13.467
21789W        W81292  19.263  28.651  13.904
21790W        W81293  17.109  33.106   0.919
21791W        W81294  18.160  41.519   2.370
21792W        W81295   5.316  20.139  12.872
21793W        W81296  28.142   4.862   4.229
21794W        W81297  20.254  34.391  12.023
21795W        W81298  10.706  24.223  13.037
21796W        W81299  36.000  43.786   4.782
21797W        W81300  37.492  15.205  13.933
21798W        W81301  25.503  38.383  12.529
21799W        W81302   6.270   4.849  10.001
21800W        W81303   6.224  28.131   3.296
21801W        W81304   1.876   2.292   3.215
21802W        W81305  30.968  29.107   5.116
21803W        W81306  23.061  35.384   2.722
21804W        W81307  12.160  19.552   0.410
21805W        W81308  10.301   3.952   2.218
21806W        W81309  31.611  19.281  14.394
21807W        W81310  26.180  42.448   0.456
21808W        W81311   0.327  39.882   2.310
21809W        W81312  38.564  38.367  14.952
21810W        W81313   8.685  44.957   3.636
21811W        W81314  20.569  33.054   4.286
21812W        W81315  42.922  17.124   4.604
21813W        W81316   1.907   0.285  13.896
21814W        W81317  24.612  25.148  14.974
21815W        W81318  10.316  31.441   1.418
21816W        W81319  21.726  42.521   4.293
21817W        W81320   9.715  33.564   2.181
21818W        W81321  41.306  32.516   2.284
21819W        W81322  17.307  39.996   4.268
21820W        W81323  13.622  28.485   3.368
21821W        W81324  14.287  44.358  14.965
21822W        W81325  41.457  34.381   0.351
21823W        W81326  27.177   7.794   2.852
21824W        W81327   9.825   8.878  12.972
21825W        W81328  35.878  24.103   1.348
21826W        W81329  39.038   3.769  10.154
21827W        W81330  29.668  23.001   1.746
21828W        W81331   8.675  33.011   2.339
21829W        W81332  24.649  26.537  11.409
21830W        W81333  40.444  19.087  14.874
21831W        W81334  20.756   2.884   9.552
21832W        W81335  26.466   6.783   0.937
21833W        W81336   3.278  29.931   5.638
21834W        W81337   3.320  17.616  13.358
21835W        W81338  17.187  10.221   4.681
21836W        W81339  24.985   1.785  12.364
21837W        W81340  10.833  12.245   3.270
21838W        W81341   5.304   2.456   2.364
21839W        W81342  23.547  17.207  11.104
21840W        W81343  27.598  42.505   2.228
21841W        W81344  32.534  30.553  12.002
21842W        W81345   9.216  33.614   3.712
21843W        W81346  44.491  10.234  13.398
21844W        W81347  13.230  38.463  10.568
21845W        W81348  13.775  34.018  10.520
21846W        W81349   2.291  36.507   0.396
21847W        W81350  37.932  10.799   0.276
21848W        W81351   0.453  15.194  10.914
21849W        W81352  11.262  31.602   5.319
21850W        W81353   5.778   2.404   2.341
21851W        W81354  11.824   7.238   3.234
21852W        W81355  12.206   8.323  14.366
21853W        W81356   5.811   0.448   3.236
21854W        W81357   2.304  18.242  12.847
21855W        W81358  35.953  28.665  13.415
21856W        W81359  44.488  22.166  13.478
21857W        W81360  11.289  41.360  13.830
21858W        W81361  18.065  28.456   1.217
21859W        W81362  43.879  39.884   3.807
21860W        W81363  22.545  21.607   4.783
21861W        W81364  37.086  39.930  14.459
21862W        W81365  10.331  35.602   3.173
21863W        W81366  24.986  26.114   2.702
21864W        W81367  13.824  33.106  14.838
21865W        W81368   4.939  40.798   0.857
21866W        W81369  32.948  31.954  12.421
21867W        W81370  31.022  32.984  11.571
21868W        W81371  31.486  34.075  10.428
21869W        W81372  34.065   9.713  14.892
21870W        W81373   5.927  23.234   1.395
21871W        W81374   4.789  24.118   1.254
21872W        W81375  14.307  14.102  11.979
21873W        W81376  24.065  10.303  13.015
21874W        W81377   9.737  14.124   1.820
21875W        W81378  40.893  38.425   4.262
21876W        W81379  24.610  21.165   0.889
21877W        W81380  31.462  25.516   4.807
21878W        W81381  11.318   5.718   4.780
21879W        W81382  11.793  15.123   2.201
21880W        W81383  13.346  35.886  10.160
21881W        W81384  25.685  20.149  13.529
21882W        W81385  38.001  28.472  11.975
21883W        W81386  40.820  13.714  10.453
21884W        W81387  40.395  33.893   1.435
21885W        W81388  33.386  37.982  14.009
21886W        W81389  28.451  15.800   3.678
21887W        W81390  35.480   9.793  14.361
21888W        W81391  13.606  28.119  11.977
21889W        W81392  16.235  11.184  14.867
21890W        W81393  38.570  34.971   2.219
21891W        W81394  34.047   3.759   0.386
21892W        W81395  34.558  43.891   4.779
21893W        W81396  20.075  23.039   1.879
21894W        W81397  24.534  17.284   1.792
21895W        W81398  41.426  19.227   0.434
21896W        W81399   8.689  22.057   4.127
21897W        W81400  27.655  44.389   4.214
21898W        W81401  44.764  37.427   4.251
21899W        W81402   1.952  30.613   3.152
21900W        W81403  12.715   9.710  12.360
21901W        W81404  22.185   0.393   2.180
21902W        W81405   0.492  38.492   2.667
21903W        W81406  39.812  29.927   3.847
21904W        W81407  37.986  34.458  10.427
21905W        W81408  14.736   1.453   1.316
21906W        W81409  38.414  29.123   2.834
21907W        W81410  34.891  20.607   0.478
21908W        W81411   9.248  11.130   2.724
21909W        W81412  26.458  31.540   0.963
21910W        W81413  35.419  18.573   3.232
21911W        W81414  23.988  33.429   1.796
21912W        W81415  24.118  23.580  14.018
21913W        W81416  10.678  16.230   2.762
21914W        W81417   1.940  28.630  14.981
21915W        W81418  23.631  31.486   3.766
21916W        W81419   6.191  14.721  10.472
21917W        W81420  24.141   5.199   4.632
21918W        W81421  15.820  42.395  11.397
21919W        W81422  19.536  43.918  14.870
21920W        W81423  17.110   7.729   3.230
21921W        W81424   7.184  32.036   3.344
21922W        W81425   5.331   0.847  10.452
21923W        W81426  35.911  40.048   1.211
21924W        W81427  44.832  22.199   1.382
21925W        W81428  29.637   6.224  13.518
21926W        W81429  24.185  20.616   4.211
21927W        W81430  31.968  15.616  10.464
21928W        W81431  43.964  22.710  14.981
21929W        W81432  28.518  16.773   0.456
21930W        W81433  30.960  11.162  13.045
21931W        W81434  41.879   4.928   0.778
21932W        W81435   2.749   5.317  12.367
21933W        W81436  27.020  33.928  11.109
21934W        W81437  30.432  34.028  12.473
21935W        W81438  25.574  42.291  12.395
21936W        W81439  14.225  36.498  11.906
21937W        W81440  29.125  10.185  10.468
21938W        W81441  40.376  32.899   1.402
21939W        W81442  14.706  30.940  11.435
21940W        W81443   8.287  28.062   2.788
21941W        W81444  31.526  23.728   1.259
21942W        W81445   0.743  14.636   2.256
21943W        W81446  43.824  22.125   3.849
21944W        W81447   7.693  14.154   2.713
21945W        W81448  12.194  40.501   3.734
21946W        W81449  21.077  19.208  10.577
21947W        W81450  32.443   2.887  11.986
21948W        W81451  11.145  26.019  14.327
21949W        W81452  18.764  31.111   0.351
21950W        W81453  12.768  44.919  13.345
21951W        W81454  18.259  24.701  12.052
21952W        W81455   8.277  13.607  12.042
21953W        W81456  23.232  10.765  13.395
21954W        W81457   6.182  16.746  14.345
21955W        W81458  38.479   3.806   4.179
21956W        W81459   4.229  20.733   0.906
21957W        W81460  10.811  43.933  10.551
21958W        W81461  28.465   0.363  13.349
21959W        W81462  18.073   4.219  14.355
21960W        W81463   1.951  30.140   0.758
21961W        W81464  15.227  12.734  13.794
21962W        W81465  16.706  37.404  10.416
21963W        W81466  17.581   6.235   3.671
21964W        W81467  34.498  27.955  11.971
21965W        W81468  38.466  15.089   2.315
21966W        W81469  31.011   0.945  12.508
21967W        W81470  31.938  40.979   4.623
21968W        W81471  13.629   0.306  13.517
21969W        W81472  11.837  11.861   4.673
21970W        W81473  10.731  39.991   0.934
21971W        W81474  38.424  39.974   4.666
21972W        W81475  24.478   3.441   2.363
21973W        W81476  31.068  24.695  13.350
21974W        W81477   0.833  37.411  10.461
21975W        W81478  42.401  42.427   1.328
21976W        W81479  26.128  34.994  14.759
21977W        W81480  19.619   1.936  13.406
21978W        W81481  36.986  34.486   0.946
21979W        W81482   5.765   4.922   2.192
21980W        W81483   8.787  40.490  14.019
21981W        W81484  22.016   1.733  11.877
21982W        W81485  12.181  14.140  11.542
21983W        W81486   0.779  27.584   3.866
21984W        W81487  16.710   2.913   0.869
21985W        W81488  22.549  44.388   0.754
21986W        W81489  23.095  31.567  11.483
21987W        W81490   7.852  10.321   3.659
21988W        W81491  13.791  35.544  14.476
21989W        W81492  39.931  31.979  11.477
21990W        W81493  27.125  23.659  13.313
21991W        W81494  41.935  16.316  10.494
21992W        W81495  16.764  19.763   0.954
21993W        W81496  37.344   6.263   0.842
21994W        W81497  39.560  33.979   2.689
21995W        W81498  20.649  36.573  13.031
21996W        W81499  30.010   6.328   4.715
21997W        W81500   4.283  22.145   4.331
21998W        W81501  41.532  32.513   1.923
21999W        W81502  16.146  39.989   0.302
22000W        W81503  20.702  20.617  12.054
22001W        W81504   5.803   4.355  13.890
22002W        W81505   7.895  15.648  14.300
22003W        W81506  19.238  24.059  14.951
22004W        W81507  19.222  17.573  10.504
22005W        W81508  20.109  43.400  13.426
22006W        W81509  24.518  44.269   2.395
22007W        W81510  28.545  10.251  11.379
22008W        W81511  14.193  22.532  11.585
22009W        W81512  22.017  39.460  12.986
22010W        W81513  29.667   5.857   3.706
22011W        W81514  28.185  41.005   4.151
22012W        W81515  16.596  43.385   0.419
22013W        W81516  37.970  13.603  13.858
22014W        W81517  15.209  38.504  12.488
22015W        W81518  21.646  41.885  10.944
22016W        W81519  39.991   1.329   3.673
22017W        W81520  42.479  39.475   0.804
22018W        W81521   9.370   9.290  12.892
22019W        W81522  35.052  12.163  14.875
22020W        W81523  11.765  19.657  13.824
22021W        W81524  10.724  26.583  14.812
22022W        W81525  36.032  34.383  12.826
22023W        W81526  17.574  17.210  14.022
22024W        W81527  38.900   0.359  11.479
22025W        W81528  23.719   7.395  14.796
22026W        W81529   2.966   8.255   2.327
22027W        W81530  21.642  23.510  11.888
22028W        W81531   1.909  24.547   1.213
22029W        W81532   1.478  34.955   3.708
22030W        W81533  20.176   2.298  13.046
22031W        W81534   6.389   0.300   2.785
22032W        W81535   8.721  22.701   5.283
22033W        W81536  15.187  17.213  12.019
22034W        W81537  15.777  38.353   0.350
22035W        W81538  27.496   5.319  11.033
22036W        W81539  23.636   5.909  11.531
22037W        W81540  43.844  40.851  11.119
22038W        W81541  43.388  42.506  14.504
22039W        W81542  38.917   1.805   5.307
22040W        W81543   7.386  28.061   0.758
22041W        W81544  40.935  29.548  12.366
22042W        W81545  36.017  31.973   3.792
22043W        W81546   0.463   1.754   3.353
22044W        W81547   1.771   4.832  14.857
22045W        W81548  11.172  43.298   1.240
22046W        W81549   1.382   7.850   0.922
22047W        W81550  20.678   6.854   2.301
22048W        W81551  38.845  28.156  11.465
22049W        W81552  37.415  42.455  14.927
22050W        W81553  44.968  28.154  10.633
22051W        W81554  38.838  25.527   1.423
22052W        W81555   7.700  22.515  12.507
22053W        W81556   5.193  15.771  13.050
22054W        W81557  28.966   1.744   0.875
22055W        W81558  33.406   3.748   4.699
22056W        W81559  29.538   4.421  11.418
22057W        W81560  23.622   8.704   2.337
22058W        W81561   6.872  27.028   0.480
22059W        W81562   9.150   1.405   2.831
22060W        W81563  23.092  35.939   3.202
22061W        W81564   2.903  28.531   2.260
22062W        W81565  44.932  18.147   0.891
22063W        W81566  39.340  29.593   4.158
22064W        W81567   3.907   8.332  12.070
22065W        W81568  40.428   6.786   1.694
22066W        W81569  22.638   2.765  12.827
22067W        W81570  14.699  43.491  11.603
22068W        W81571  14.597  33.007   3.299
22069W        W81572  15.308  38.417  11.446
22070W        W81573  30.559  27.991  10.499
22071W        W81574   7.375  42.451   1.245
22072W        W81575  23.686  43.917  10.451
22073W        W81576  17.745  35.891  14.383
22074W        W81577  42.887  20.219   9.644
22075W        W81578  20.032  22.250  10.449
22076W        W81579   5.796  33.490   0.409
22077W        W81580   3.380  27.573   3.774
22078W        W81581  19.234  14.332   3.341
22079W        W81582   7.396  28.531  10.904
22080W        W81583  42.942  11.298   0.851
22081W        W81584  30.995   7.794  14.340
22082W        W81585  10.298  38.838  12.455
22083W        W81586  29.524  19.583   3.270
22084W        W81587  35.892   6.399   4.833
22085W        W81588  38.553  16.087  14.909
22086W        W81589  17.597   5.341  12.911
22087W        W81590  39.478  17.255   1.229
22088W        W81591  31.139  30.624  11.931
22089W        W81592  19.581  31.962   2.241
22090W        W81593  23.587  42.487   4.314
22091W        W81594  44.418  44.823   1.780
22092W        W81595  17.791  11.344  12.931
22093W        W81596   2.898   4.304   1.327
22094W        W81597  18.068  16.295   2.677
22095W        W81598  14.127   7.741   1.913
22096W        W81599  40.040  32.132   3.817
22097W        W81600   4.810   7.781   4.757
22098W        W81601  37.344  30.617  14.999
22099W        W81602  40.822   8.769  13.441
22100W        W81603  22.646   6.387  13.454
22101W        W81604   7.754  12.688  11.064
22102W        W81605   7.776  14.154  13.532
22103W        W81606  21.607  16.596   3.230
22104W        W81607  41.538   8.715   1.446
22105W        W81608   3.416  24.133  13.423
22106W        W81609  41.528  40.543  12.848
22107W        W81610  43.389   4.900   0.400
22108W        W81611   0.282   5.840  14.489
22109W        W81612   2.953  22.745  12.507
22110W        W81613  42.371  40.402   1.338
22111W        W81614  35.980  19.556   0.266
22112W        W81615   2.320  19.196  14.345
22113W        W81616  12.169  23.535   0.456
22114W        W81617  10.765   7.672  12.426
22115W        W81618  31.902  24.999  12.416
22116W        W81619  26.168   4.297  14.926
22117W        W81620   9.378   9.370   2.217
22118W        W81621  34.987  20.657   1.799
22119W        W81622  31.635   3.250  13.523
22120W        W81623  26.183  12.336   1.927
22121W        W81624  21.019  23.213   2.334
22122W        W81625  14.216  20.249   3.375
22123W        W81626   7.850   1.315   4.744
22124W        W81627  23.055  18.254   1.732
22125W        W81628  19.632  23.609   3.243
22126W        W81629  42.445   6.860   3.336
22127W        W81630   7.756  11.864   1.345
22128W        W81631  20.107  16.226   4.315
22129W        W81632  33.396   8.770  11.407
22130W        W81633  38.861  19.708   5.304
22131W        W81634  25.116  16.291   0.245
22132W        W81635  24.076   7.255   1.922
22133W        W81636  40.388   3.929   3.280
22134W        W81637  17.135  40.938  11.104
22135W        W81638  16.268   6.721   3.690
22136W        W81639  25.535  37.483  14.026
22137W        W81640  22.015   2.371   1.406
22138W        W81641  29.582  13.152  14.848
22139W        W81642   5.875  33.891   4.828
22140W        W81643   6.369  10.867  10.499
22141W        W81644   8.865  34.607   5.770
22142W        W81645  18.626   6.302   4.827
22143W        W81646   3.356  35.102  11.078
22144W        W81647  20.735  36.011   0.296
22145W        W81648  40.365  36.943   4.690
22146W        W81649  32.538  12.620  13.795
22147W        W81650  28.457  16.294  14.289
22148W        W81651  16.256  30.050   0.727
22149W        W81652   1.877  27.625   4.771
22150W        W81653  29.653  20.660   0.326
22151W        W81654  18.134   7.181   4.318
22152W        W81655  15.261   0.822   4.144
22153W        W81656  42.386  10.810   0.274
22154W        W81657  34.481  14.253   2.886
22155W        W81658  31.422  27.623  13.919
22156W        W81659  23.060  26.572  14.887
22157W        W81660  26.208   2.442  11.530
22158W        W81661  38.342  31.620  14.482
22159W        W81662  34.446  44.780   0.880
22160W        W81663  25.687   9.871  10.913
22161W        W81664  28.680  12.250   1.441
22162W        W81665  27.487  13.286  10.042
22163W        W81666  35.407  26.471  10.414
22164W        W81667  34.453  37.927  13.026
22165W        W81668  22.252  31.448   3.318
22166W        W81669  20.154  21.131   2.700
22167W        W81670   9.755  42.474   2.267
22168W        W81671  40.468  20.167   2.869
22169W        W81672  36.995  10.334   1.221
22170W        W81673  27.520   1.399   1.290
22171W        W81674  27.508  27.487   3.177
22172W        W81675  40.440  36.018  11.565
22173W        W81676  11.788   7.243  12.063
22174W        W81677  36.084  37.905   2.297
22175W        W81678  23.231  22.118   2.697
22176W        W81679  44.790  39.831  12.538
22177W        W81680   9.806  39.495   1.802
22178W        W81681  21.034  26.177  12.422
22179W        W81682  30.043  41.895  14.480
22180W        W81683  23.590   8.727   0.467
22181W        W81684  34.863   1.474   1.312
22182W        W81685  38.000  11.712  13.326
22183W        W81686  24.577  19.628  12.047
22184W        W81687  24.168  25.117  10.021
22185W        W81688   4.920   3.878   0.840
22186W        W81689  39.542  34.023   2.405
22187W        W81690  15.313  44.917   0.754
22188W        W81691  44.918  13.247  11.597
22189W        W81692  27.512   9.320   4.622
22190W        W81693   7.760  12.285   1.697
22191W        W81694  29.541  19.139   2.739
22192W        W81695  16.104  39.939  14.483
22193W        W81696   0.818  31.987  13.815
22194W        W81697  42.842  12.132   1.769
22195W        W81698  32.469   8.211  11.491
22196W        W81699   8.198  21.546   1.717
22197W        W81700  39.816   0.819  14.963
22198W        W81701  27.613   4.810   1.879
22199W        W81702   8.894  25.170   4.173
22200W        W81703  40.043   2.779   4.214
22201W        W81704   1.803  12.847  10.527
22202W        W81705   7.855  13.757   5.683
22203W        W81706   7.238   2.456  14.991
22204W        W81707   0.917  11.332   0.740
22205W        W81708   2.877  39.481   0.458
22206W        W81709  37.504   5.359   2.727
22207W        W81710  21.549  32.404   3.341
22208W        W81711  19.160  23.723   3.195
22209W        W81712  17.125   2.438  11.907
22210W        W81713  20.703   3.387   3.649
22211W        W81714  31.495  16.686  12.031
22212W        W81715  43.888  13.260  12.516
22213W        W81716   3.284  10.664   1.309
22214W        W81717  35.007  36.591   4.250
22215W        W81718   9.259  17.648   3.302
22216W        W81719  28.144  35.047  12.983
22217W        W81720  40.526  34.900  13.037
22218W        W81721  40.395  27.473   2.825
22219W        W81722  43.953  39.977   2.898
22220W        W81723  21.080  29.105   2.337
22221W        W81724   7.250   6.287   3.343
22222W        W81725  39.047   0.921  10.589
22223W        W81726  40.510   8.879  13.466
22224W        W81727  27.675   7.905   1.439
22225W        W81728  18.220  39.816   4.344
22226W        W81729  14.174  29.167   4.676
22227W        W81730  11.765  10.769  12.937
22228W        W81731   8.833   7.343  13.472
22229W        W81732  41.892   7.204   0.746
22230W        W81733  15.814  13.682  14.906
22231W        W81734  12.338  19.628  12.570
22232W        W81735   7.704  36.098  12.846
22233W        W81736  17.708   9.230   0.402
22234W        W81737   4.832  33.100  11.970
22235W        W81738   5.836  41.496  14.887
22236W        W81739  32.435  13.121   2.233
22237W        W81740   2.906  27.593   3.225
22238W        W81741  36.418  43.808  12.346
22239W        W81742  22.701  36.062  11.913
22240W        W81743  24.118   6.262  11.952
22241W        W81744  40.431  34.458   3.767
22242W        W81745  19.283  20.582  12.554
22243W        W81746  22.511  16.219  14.871
22244W        W81747  28.999   8.344   0.258
22245W        W81748  12.752  34.448   5.095
22246W        W81749  31.042  36.383  12.923
22247W        W81750   2.779  10.310   4.694
22248W        W81751  31.999  36.089   1.264
22249W        W81752  38.848  39.851   2.388
22250W        W81753  20.576  13.144  12.950
22251W        W81754  35.508  21.054  14.776
22252W        W81755   6.273  18.236  10.964
22253W        W81756   6.818   1.362  10.630
22254W        W81757  14.249  25.041   2.345
22255W        W81758  13.204  38.820  13.880
22256W        W81759   7.859  34.520  10.616
22257W        W81760  31.585  20.166   0.962
22258W        W81761  24.011  24.581   3.177
22259W        W81762  34.914   8.221   2.753
22260W        W81763   8.858  41.795   2.697
22261W        W81764  14.221  34.887  12.372
22262W        W81765   8.791   2.399  14.893
22263W        W81766  36.383  25.014   1.211
22264W        W81767  25.063  28.436  10.888
22265W        W81768  31.915  14.137   2.708
22266W        W81769  34.371   8.706  12.947
22267W        W81770  11.193  36.445  12.387
22268W        W81771  29.453  33.893  12.464
22269W        W81772  44.267  23.547  13.353
22270W        W81773  39.966  39.532   3.218
22271W        W81774   1.874   3.357   1.257
22272W        W81775  17.611   9.695   3.190
22273W        W81776  15.654  31.431  12.884
22274W        W81777  25.179   9.270  13.980
22275W        W81778  12.832  34.485   4.230
22276W        W81779  14.655   8.246   1.232
22277W        W81780  29.515  10.274  11.111
22278W        W81781   7.362  32.559   4.752
22279W        W81782   2.452  36.367  13.895
22280W        W81783   7.207  28.436   4.199
22281W        W81784  30.064  33.004  12.475
22282W        W81785   9.652  42.858   3.757
22283W        W81786  31.961   0.886  12.564
22284W        W81787  44.900   2.938  12.995
22285W        W81788   2.250  21.069  13.928
22286W        W81789   5.733  40.348   1.265
22287W        W81790   6.735  34.066  14.478
22288W        W81791   4.803  40.466  14.288
22289W        W81792  15.655   6.347   4.661
22290W        W81793  35.553   6.775  14.011
22291W        W81794   2.438   5.195  13.526
22292W        W81795  18.074  10.853  11.602
22293W        W81796  42.877  40.805   4.223
22294W        W81797  14.112   2.463   1.330
22295W        W81798   3.413   2.352  11.581
22296W        W81799  28.645  21.642  11.585
22297W        W81800   4.399  44.361   4.652
22298W        W81801  13.783  38.425   1.380
22299W        W81802   5.874  24.608   1.876
22300W        W81803  24.070  13.661   0.736
22301W        W81804  37.530  12.629   2.896
22302W        W81805   4.742   9.357   2.343
22303W        W81806  26.087  15.811  14.443
22304W        W81807  31.139  31.073   2.218
22305W        W81808   2.338   8.760  12.493
22306W        W81809   3.847  17.230  13.892
22307W        W81810  38.406  38.961  10.458
22308W        W81811  25.523  18.602  13.382
22309W        W81812  24.723   5.204  13.830
22310W        W81813  42.444  25.069   4.835
22311W        W81814  44.923  33.072   0.431
22312W        W81815  41.943  13.735  14.920
22313W        W81816  32.085  43.919   1.808
22314W        W81817  27.954   5.212  13.858
22315W        W81818  31.115  28.640   3.225
22316W        W81819  34.540  38.005  12.534
22317W        W81820  29.569  36.386  13.027
22318W        W81821   1.293  40.798   4.746
22319W        W81822  33.461  19.643   5.142
22320W        W81823  37.856  10.831   3.854
22321W        W81824  30.579   4.801  10.993
22322W        W81825  39.401   2.467   3.669
22323W        W81826   5.815  35.463  12.834
22324W        W81827   3.889  30.584   4.641
22325W        W81828   2.316   3.916   1.822
22326W        W81829  38.875   9.219   0.341
22327W        W81830  39.956  25.180  13.857
22328W        W81831  39.370  17.605   1.413
22329W        W81832   3.908  23.023   0.820
22330W        W81833   1.816  14.765  12.474
22331W        W81834  36.567  12.223   4.631
22332W        W81835  38.945  39.817  10.915
22333W        W81836  13.141   1.805   2.358
22334W        W81837  29.516   6.719   0.966
22335W        W81838   0.337   0.418   2.321
22336W        W81839   4.702  42.896   5.207
22337W        W81840   2.953  34.068   3.179
22338W        W81841  25.006  18.571  10.411
22339W        W81842  34.982  34.522  12.435
22340W        W81843  14.604  26.021   0.451
22341W        W81844  34.454  27.544   3.790
22342W        W81845  44.827   6.774  13.851
22343W        W81846  15.627  34.948  14.390
22344W        W81847  21.124  35.961   9.999
22345W        W81848  38.898  36.073  14.800
22346W        W81849  14.228  26.700  11.951
22347W        W81850   5.911  14.591   5.642
22348W        W81851  14.664  40.947  14.413
22349W        W81852   2.858  37.511  10.436
22350W        W81853   6.381   4.421  13.321
22351W        W81854   7.395  31.903   2.367
22352W        W81855  20.584   2.399  13.434
22353W        W81856  39.325   6.335   4.708
22354W        W81857  33.436   1.418  14.018
22355W        W81858  31.131  36.011   1.261
22356W        W81859  15.269   1.737   4.283
22357W        W81860   8.736   2.907   3.829
22358W        W81861  23.669  25.071   4.235
22359W        W81862   5.202  30.494  11.485
22360W        W81863   4.364  19.664   3.301
22361W        W81864  31.436  41.927   2.318
22362W        W81865   1.787  11.752  14.472
22363W        W81866  43.769  21.101  14.291
22364W        W81867  18.235  17.254   1.891
22365W        W81868  17.650  40.945  12.463
22366W        W81869  10.154   3.399  14.878
22367W        W81870  29.173  44.419  14.977
22368W        W81871  41.310  10.253   3.756
22369W        W81872  38.506  30.417   0.339
22370W        W81873  34.041  41.920   1.839
22371W        W81874  38.985  14.155  10.413
22372W        W81875  19.104  26.090  10.591
22373W        W81876  22.111  19.120  11.072
22374W        W81877  24.511   3.834   1.714
22375W        W81878  29.001  26.962   1.422
22376W        W81879  27.119   4.337   4.137
22377W        W81880  35.528   6.382  14.998
22378W        W81881  27.082  10.734   1.425
22379W        W81882  14.760   2.323   0.404
22380W        W81883  36.494  25.049   5.261
22381W        W81884  44.400  18.219   4.704
22382W        W81885  16.644  40.358  10.985
22383W        W81886   8.891  38.015  11.041
22384W        W81887  32.888  38.399   3.187
22385W        W81888  14.663   5.764   0.327
22386W        W81889  43.485  31.902   2.308
22387W        W81890  24.617  32.911   1.752
22388W        W81891  12.318  36.012   4.659
22389W        W81892  38.858  44.784   4.795
22390W        W81893  34.063  44.813  14.821
22391W        W81894  14.810   5.894   4.267
22392W        W81895   4.364  25.966   2.862
22393W        W81896   7.338  19.054   5.228
22394W        W81897  34.873   7.839   2.386
22395W        W81898  15.295  19.657  11.400
22396W        W81899   9.271  34.401   2.328
22397W        W81900  29.471  20.747  13.064
22398W        W81901   6.811  11.130  12.454
22399W        W81902   2.470   7.679   2.779
22400W        W81903  43.926   6.244  14.969
22401W        W81904  35.053  42.905  12.040
22402W        W81905  30.080  30.082   1.802
22403W        W81906  41.826  33.920  11.976
22404W        W81907   6.291  36.588   0.851
22405W        W81908   3.370  13.190   5.100
22406W        W81909  27.079  28.468   5.322
22407W        W81910  35.383  14.672  12.379
22408W        W81911  29.060   4.269  13.815
22409W        W81912  22.675  32.480   0.751
22410W        W81913  36.883  43.470   4.631
22411W        W81914  44.435   9.389  14.453
22412W        W81915   6.347  32.624  13.959
22413W        W81916  19.120   7.760  13.031
22414W        W81917  40.870  13.247   4.173
22415W        W81918  27.467  12.357   1.781
22416W        W81919  24.087  37.976  13.832
22417W        W81920  26.594  25.713  14.349
22418W        W81921  22.603  29.657  12.519
22419W        W81922  44.838  44.824   1.719
22420W        W81923  16.801  41.994  13.919
22421W        W81924  39.518   7.325  10.146
22422W        W81925  39.349  41.857  12.412
22423W        W81926  40.024  32.455  14.984
22424W        W81927   1.876  40.517  11.859
22425W        W81928  15.148  27.152  11.942
22426W        W81929  16.167  33.051  12.532
22427W        W81930  43.497   4.204  13.912
22428W        W81931  42.492   4.943  14.031
22429W        W81932  25.200  42.880   2.677
22430W        W81933   6.712  17.128  14.365
22431W        W81934  27.475  30.584   0.853
22432W        W81935  20.199  23.240  14.898
22433W        W81936  10.714  12.310   0.926
22434W        W81937   4.705  41.906  13.999
22435W        W81938  20.758  36.484   0.437
22436W        W81939   0.488  14.804  12.997
22437W        W81940  25.676   6.316  11.860
22438W        W81941  44.962  25.075   2.284
22439W        W81942  27.119  42.460  14.343
22440W        W81943  37.014   1.922   2.862
22441W        W81944   6.681  36.949   2.879
22442W        W81945   5.880  23.662   3.868
22443W        W81946  27.584  42.791   0.789
22444W        W81947  37.550   6.882  14.877
22445W        W81948   3.327  18.740   1.311
22446W        W81949  21.054  28.618  14.879
22447W        W81950  40.388  22.539   1.867
22448W        W81951  33.584   4.807  12.363
22449W        W81952   1.353  25.648   5.700
22450W        W81953  23.539  13.808   2.273
22451W        W81954  26.580  15.738   2.685
22452W        W81955   8.684  19.222   3.675
22453W        W81956   4.836  38.929  13.865
22454W        W81957  28.619  15.264   1.876
22455W        W81958  26.609  24.599  10.623
22456W        W81959   7.780  41.030   2.715
22457W        W81960  23.507   5.798   2.224
22458W        W81961  37.521  30.951  14.842
22459W        W81962  27.449   8.177  10.916
22460W        W81963  19.243  37.056  14.787
22461W        W81964  22.687   8.248  12.033
22462W        W81965   3.788  24.170  12.479
22463W        W81966   0.458  35.910  10.547
22464W        W81967  41.908  16.107   0.340
22465W        W81968  35.089  40.024   3.189
22466W        W81969  33.885   4.838  11.918
22467W        W81970  14.094  20.064  13.346
22468W        W81971  44.451  11.826  12.384
22469W        W81972  25.033   4.385   1.405
22470W        W81973   8.672   2.845   0.802
22471W        W81974  25.693  32.075   0.254
22472W        W81975   8.227  31.003  11.379
22473W        W81976   4.941  17.071   0.254
22474W        W81977  33.433  18.565   0.767
22475W        W81978   4.402  39.323  14.939
22476W        W81979  43.366   3.765   4.719
22477W        W81980  20.533   0.429  11.437
22478W        W81981  35.557  42.317   4.257
22479W        W81982   7.187  12.704  11.529
22480W        W81983  22.195  35.015   1.245
22481W        W81984  32.984  12.720   4.635
22482W        W81985  10.300  24.549   0.281
22483W        W81986  14.161   3.322   1.812
22484W        W81987   8.654  17.065  12.408
22485W        W81988  42.990   7.735   5.650
22486W        W81989  13.153  15.090   3.693
22487W        W81990  40.030  20.707  14.825
22488W        W81991  13.142  26.992   2.298
22489W        W81992  36.448  34.608  13.922
22490W        W81993  23.561  40.315   3.856
22491W        W81994  39.410  42.932  10.559
22492W        W81995  32.017  43.499   0.900
22493W        W81996  39.005  21.630  13.319
22494W        W81997  35.900  34.486  14.001
22495W        W81998  18.701  41.354  13.448
22496W        W81999  43.811  21.132  13.053
22497W        W82000  22.540  30.997  12.903
22498W        W82001  34.417   4.916   1.699
22499W        W82002   9.772  30.036   3.236
22500W        W82003  37.499   6.814  12.879
22501W        W82004   6.786  26.575  10.032
22502W        W82005  32.426   2.429  12.073
22503W        W82006  11.239  41.343  11.856
22504W        W82007  36.965  14.768  13.844
22505W        W82008   3.338  29.430  11.935
22506W        W82009  19.686   3.848  12.375
22507W        W82010   0.339  44.808   3.868
22508W        W82011   0.365  14.732  10.468
22509W        W82012  32.012   2.420   0.484
22510W        W82013   9.824  23.543   2.220
22511W        W82014   8.708  13.783   3.329
22512W        W82015   4.784  32.067  14.495
22513W        W82016  16.108  19.123   3.325
22514W        W82017   5.923   5.888  11.019
22515W        W82018  44.383  28.170   3.765
22516W        W82019  19.182  36.479   3.224
22517W        W82020  16.576  21.619  10.456
22518W        W82021  24.721  30.516  11.048
22519W        W82022   9.805  10.318   3.384
22520W        W82023   7.403  19.218   2.237
22521W        W82024  43.288  37.385  13.317
22522W        W82025  41.389  35.083   3.299
22523W        W82026   1.434  23.219  10.890
22524W        W82027   5.830  42.942   4.743
22525W        W82028  10.373  42.862  12.838
22526W        W82029  41.914   8.348  12.826
22527W        W82030  18.765  24.079   1.387
22528W        W82031  21.551  16.248   1.774
22529W        W82032  19.150   2.795   1.301
22530W        W82033   9.279  20.100   2.820
22531W        W82034  39.914   0.809   0.935
22532W        W82035   7.900  38.903   3.210
22533W        W82036  20.274  27.653  14.397
22534W        W82037   6.697  28.439   3.685
22535W        W82038  14.309  10.298  10.491
22536W        W82039  24.203  40.871   3.818
22537W        W82040  36.008  41.828  14.312
22538W        W82041  19.043  40.937   1.282
22539W        W82042  25.667   6.910   4.717
22540W        W82043  44.407   7.232  11.407
22541W        W82044  33.056  36.586   3.288
22542W        W82045  44.296  12.122   4.611
22543W        W82046   6.741  17.074   0.272
22544W        W82047  38.991  41.907   4.287
22545W        W82048  26.666   7.344   0.353
22546W        W82049   3.839  11.810   3.293
22547W        W82050  44.907  31.980  12.050
22548W        W82051  25.711  28.987   3.629
22549W        W82052  40.022   3.881   4.203
22550W        W82053  16.165  31.616  10.415
22551W        W82054   5.914  39.351  12.963
22552W        W82055  19.168  35.984  14.822
22553W        W82056  36.038  16.640  11.005
22554W        W82057   3.950  32.502   1.355
22555W        W82058   9.197   2.948   4.140
22556W        W82059   3.430  40.890  13.876
22557W        W82060  43.905  11.708  14.323
22558W        W82061   6.405  23.215  13.358
22559W        W82062  28.091  42.378  13.425
22560W        W82063  27.178  43.369   2.335
22561W        W82064  31.564   4.897  14.343
22562W        W82065   3.292  12.232   3.235
22563W        W82066  16.141  32.485   5.267
22564W        W82067  25.499  35.968  11.420
22565W        W82068   4.210  42.348   4.266
22566W        W82069  29.112  11.808   2.325
22567W        W82070   1.431  15.189   1.386
22568W        W82071  40.960  38.022  13.995
22569W        W82072  11.808  14.218   0.478
22570W        W82073   1.963  41.960   4.142
22571W        W82074  20.257  37.910  12.035
22572W        W82075   5.831   4.281  14.856
22573W        W82076  25.155  18.108  13.371
22574W        W82077  36.063   8.820  12.005
22575W        W82078  12.163  20.234   1.819
22576W        W82079   4.232  24.169   2.677
22577W        W82080  10.670  31.122  14.406
22578W        W82081  35.535   0.374   0.324
22579W        W82082   7.222   1.267  13.840
22580W        W82083  26.590  36.497   1.912
22581W        W82084  43.921  36.857  11.377
22582W        W82085  29.488  11.287   3.661
22583W        W82086  18.108  26.053  14.857
22584W        W82087   4.211  29.575  12.365
22585W        W82088  20.074  16.074  13.030
22586W        W82089  37.388  39.359  11.874
22587W        W82090  29.553  27.583   5.644
22588W        W82091  26.484  31.445   3.839
22589W        W82092  20.252  20.663   3.305
22590W        W82093  23.557  28.150  11.944
22591W        W82094   6.260   0.346   1.217
22592W        W82095  26.203  13.156   3.266
22593W        W82096  38.048  33.058  12.474
22594W        W82097  36.030  36.936  14.812
22595W        W82098  36.510  16.703   2.197
22596W        W82099  20.144   1.823  10.498
22597W        W82100  35.585  22.721  12.542
22598W        W82101  28.060  41.002   4.716
22599W        W82102  43.337  13.127   2.359
22600W        W82103   2.913  39.414   3.766
22601W        W82104  14.784   1.895  10.580
22602W        W82105   1.818  12.262  13.034
22603W        W82106  15.323  30.453   2.810
22604W        W82107  14.611  28.128  14.850
22605W        W82108   5.782   7.814  13.881
22606W        W82109   3.891  12.249   0.911
22607W        W82110  12.840   6.769   0.886
22608W        W82111  20.153  36.094   4.727
22609W        W82112   7.307   5.808   3.735
22610W        W82113  39.863  32.956  13.003
22611W        W82114  43.783  40.403   2.853
22612W        W82115  40.840  11.322   2.685
22613W        W82116  10.807  13.314   4.622
22614W        W82117  35.489  28.114   4.321
22615W        W82118  31.023  15.178  12.034
22616W        W82119  37.041  44.439  14.925
22617W        W82120  43.838  36.408  13.442
22618W        W82121  34.893  32.469  14.964
22619W        W82122  34.996  12.810   3.734
22620W        W82123  13.600   0.857  14.369
22621W        W82124  36.010  25.690  10.975
22622W        W82125  24.669  40.975   2.801
22623W        W82126  20.216  39.911   1.270
22624W        W82127  23.999  27.991   2.336
22625W        W82128  33.941  40.320  12.561
22626W        W82129   0.360  31.918  14.294
22627W        W82130  21.098  14.314   4.144
22628W        W82131   5.836  41.958   4.609
22629W        W82132  11.626   4.920   4.676
22630W        W82133  30.933  17.596   0.766
22631W        W82134  40.997  24.545   3.164
22632W        W82135  10.671  33.485  10.126
22633W        W82136  28.970  41.992  14.967
22634W        W82137  26.659  37.461   3.175
22635W        W82138  40.881  31.451   2.668
22636W        W82139  28.517  25.144  12.449
22637W        W82140  28.064  40.416   2.381
22638W        W82141  23.577  30.156   4.315
22639W        W82142  17.641  28.093   0.276
22640W        W82143   6.207  12.229  14.429
22641W        W82144  30.002   3.329   0.930
22642W        W82145  18.193  19.167  12.881
22643W        W82146  11.200  34.490   2.349
22644W        W82147   2.947  34.466  11.505
22645W        W82148  39.872  12.175  11.064
22646W        W82149   7.414   7.367  10.563
22647W        W82150  22.645   3.364   0.472
22648W        W82151  20.556  26.464  12.402
22649W        W82152   3.222   0.919  12.836
22650W        W82153  40.893  12.277   0.400
22651W        W82154  28.547  35.945  14.936
22652W        W82155  39.963  22.038   3.850
22653W        W82156   6.209   9.871  14.799
22654W        W82157  29.455  36.501   2.663
22655W        W82158  19.232  41.043   0.246
22656W        W82159  33.528   7.341   4.705
22657W        W82160  25.061  41.451  11.532
22658W        W82161  12.833  13.640   0.413
22659W        W82162  43.773  13.717  14.470
22660W        W82163  43.861  18.258   1.359
22661W        W82164  30.499  40.366   4.156
22662W        W82165   9.248  43.768   1.216
22663W        W82166   5.238  10.797   1.861
22664W        W82167  18.714  12.247   2.248
22665W        W82168  34.916  25.214  14.874
22666W        W82169  28.944   0.958  13.043
22667W        W82170  28.534  41.975   2.766
22668W        W82171   6.197  42.983   3.756
22669W        W82172   7.682  43.427   2.801
22670W        W82173   0.969  32.624   2.292
22671W        W82174  11.351   7.727  13.888
22672W        W82175   8.746  39.362   4.689
22673W        W82176  27.672  25.076   0.413
22674W        W82177  19.675  10.675   2.821
22675W        W82178  25.520  30.617   2.847
22676W        W82179  42.485  17.117  11.888
22677W        W82180  15.263  34.992   4.605
22678W        W82181  30.068  39.314  11.604
22679W        W82182  28.090  34.534  12.577
22680W        W82183  23.699  27.990  11.517
22681W        W82184  11.190  39.431   4.215
22682W        W82185  40.972  15.283   4.251
22683W        W82186  35.072  35.363  11.511
22684W        W82187  26.694  10.685   3.163
22685W        W82188  29.068  22.107   3.192
22686W        W82189  17.702  14.255  10.522
22687W        W82190  16.730  42.457   4.275
22688W        W82191  21.213  14.306   1.284
22689W        W82192  26.197  16.743   3.247
22690W        W82193  28.050  42.895   3.689
22691W        W82194  36.969  12.646   4.125
22692W        W82195   3.332   8.775   1.774
22693W        W82196  33.483  40.376  12.510
22694W        W82197  38.510  16.640   3.253
22695W        W82198  27.991  35.875  13.482
22696W        W82199  42.936  38.847   4.154
22697W        W82200   2.340  36.569   1.225
22698W        W82201  19.638  22.671   2.721
22699W        W82202  18.186  23.109   2.413
22700W        W82203   2.762  19.725  14.361
22701W        W82204   1.882   4.908   0.381
22702W        W82205  21.249  14.710   2.218
22703W        W82206   7.325  27.059   0.420
22704W        W82207  20.625  43.824   1.827
22705W        W82208  29.554   5.834   2.812
22706W        W82209  33.419  37.394  13.374
22707W        W82210   2.455  35.020  12.077
22708W        W82211  30.551  38.438  14.766
22709W        W82212  14.770  33.023   9.545
22710W        W82213  20.724  34.465  14.838
22711W        W82214  11.180  36.942   2.309
22712W        W82215  10.633   4.758  14.308
22713W        W82216  19.046  26.652   0.319
22714W        W82217  14.790  28.450   3.642
22715W        W82218  23.219  36.958   3.816
22716W        W82219  20.251   1.926  13.961
22717W        W82220   8.873  35.951  11.487
22718W        W82221   2.868  26.124  14.490
22719W        W82222  22.206  19.107   3.839
22720W        W82223   0.325  44.392  14.851
22721W        W82224  30.133   0.759  11.899
22722W        W82225   2.469   7.289  13.022
22723W        W82226  33.588  21.115   1.229
22724W        W82227  35.093  37.566   1.870
22725W        W82228  44.283   7.804  10.927
22726W        W82229  33.878  22.067   1.410
22727W        W82230   1.275   7.707  11.402
22728W        W82231  15.261  41.416  11.591
22729W        W82232  23.508  29.449   4.166
22730W        W82233  34.904   4.820   2.662
22731W        W82234  14.659  25.145   1.915
22732W        W82235   8.269  14.715  14.802
22733W        W82236  26.695  36.556   0.921
22734W        W82237  38.895  44.913   2.831
22735W        W82238  35.966  15.781   0.470
22736W        W82239  19.577  19.236  14.503
22737W        W82240  40.394  42.025  13.524
22738W        W82241  13.333  17.676  14.965
22739W        W82242  44.973  38.488   1.794
22740W        W82243  43.438   7.715   4.326
22741W        W82244  39.844  40.441   1.861
22742W        W82245   4.830  10.273   3.340
22743W        W82246  36.514  17.297  12.558
22744W        W82247  27.100  40.938   1.229
22745W        W82248  34.005  33.592   1.889
22746W        W82249  33.453  33.978  11.101
22747W        W82250  32.461  10.183   4.713
22748W        W82251  33.437   8.365  12.869
22749W        W82252  19.270  17.080  11.375
22750W        W82253  19.568  44.334   0.355
22751W        W82254  31.635  41.844   0.253
22752W        W82255  34.483  40.986  13.388
22753W        W82256  38.009   9.329  11.076
22754W        W82257   0.362  35.541   2.756
22755W        W82258  39.007  29.149   4.266
22756W        W82259  41.042  36.899  12.445
22757W        W82260  23.191  35.510  11.070
22758W        W82261  37.878   2.772  10.923
22759W        W82262  32.962  44.409   4.688
22760W        W82263  16.283   8.810   1.921
22761W        W82264  24.149  18.265  13.448
22762W        W82265  25.571  23.590   4.255
22763W        W82266  36.049  39.050  14.291
22764W        W82267  26.595  29.015   9.940
22765W        W82268  23.057  21.729  10.601
22766W        W82269  16.268   2.376  14.353
22767W        W82270   7.816  32.000   3.671
22768W        W82271  16.733  30.056   4.719
22769W        W82272  14.221  27.952   0.847
22770W        W82273  13.647  20.087  14.917
22771W        W82274  18.576  37.029  12.867
22772W        W82275  42.352  32.603   3.198
22773W        W82276  35.045  15.122  10.081
22774W        W82277   0.796  34.948   0.267
22775W        W82278  33.130  23.494   2.337
22776W        W82279  32.073  10.296   2.309
22777W        W82280   6.378   5.776  12.096
22778W        W82281  23.669  29.130   0.891
22779W        W82282  35.909   1.255  14.942
22780W        W82283   6.813  26.598   2.342
22781W        W82284   7.872  37.911  11.487
22782W        W82285  10.331  16.584   3.786
22783W        W82286  37.893   0.927   1.428
22784W        W82287   0.768   0.388  14.335
22785W        W82288  34.438  17.761  12.891
22786W        W82289  22.686  33.495  11.084
22787W        W82290   5.885   1.916   1.427
22788W        W82291  31.045  38.471   1.293
22789W        W82292  28.101   4.732   3.798
22790W        W82293  30.022   2.796   2.302
22791W        W82294  36.431  31.501  13.938
22792W        W82295   2.320  34.869   3.810
22793W        W82296  18.106  37.857   3.858
22794W        W82297  40.822  39.927   1.234
22795W        W82298  41.363  19.535  14.313
22796W        W82299  14.796  33.095  13.813
22797W        W82300   3.798  34.511   4.352
22798W        W82301   2.447  40.901   0.412
22799W        W82302   3.915  28.084  14.960
22800W        W82303   3.954  18.713  12.930
22801W        W82304   6.816  35.919   3.731
22802W        W82305  29.495  40.350   3.847
22803W        W82306   9.245  24.991   9.945
22804W        W82307   0.411  13.124  12.884
22805W        W82308  17.070   3.840  10.534
22806W        W82309  43.491  42.379   4.296
22807W        W82310  15.669   3.844   0.956
22808W        W82311  44.953   4.858  10.934
22809W        W82312   2.452   2.368   1.296
22810W        W82313  15.738  32.584   5.629
22811W        W82314  34.073  36.531  13.312
22812W        W82315  22.102  30.988  11.103
22813W        W82316  11.684  44.400  14.016
22814W        W82317  23.520  38.842  14.408
22815W        W82318  16.087  38.933   1.378
22816W        W82319  20.693  28.526  11.484
22817W        W82320   0.917   5.745  11.476
22818W        W82321  36.463  17.705   1.333
22819W        W82322  44.773  36.991   4.221
22820W        W82323   2.457  33.405  14.410
22821W        W82324  28.032  12.690   2.867
22822W        W82325  24.699  19.097   4.127
22823W        W82326  24.156  44.760   0.455
22824W        W82327  32.099   0.897   1.694
22825W        W82328  44.002  35.566  14.476
22826W        W82329   4.336   0.916   2.358
22827W        W82330  44.962  32.588   3.721
22828W        W82331  38.518  32.005   2.408
22829W        W82332  40.335  37.489   1.906
22830W        W82333  20.609   2.784  12.418
22831W        W82334  17.630   9.728   2.786
22832W        W82335   4.284  35.009   4.738
22833W        W82336  37.385  23.105   1.238
22834W        W82337  27.941  17.746   2.761
22835W        W82338  39.531  32.053   0.376
22836W        W82339  18.570  29.619  13.343
22837W        W82340  33.967  14.745  13.819
22838W        W82341  32.533  16.208   1.223
22839W        W82342  30.032  17.644   3.705
22840W        W82343   9.358  19.058  14.803
22841W        W82344  25.551   4.878   0.314
22842W        W82345   8.378  22.160  13.007
22843W        W82346   1.901  42.470   2.878
22844W        W82347  22.696  12.663  12.458
22845W        W82348  13.811   0.260  14.406
22846W        W82349  42.006   2.357  11.859
22847W        W82350  14.125  20.235  14.342
22848W        W82351  22.722  16.282   3.347
22849W        W82352  41.870   6.391   2.842
22850W        W82353  23.103  12.350   3.707
22851W        W82354   4.740  18.101  13.009
22852W        W82355   9.681  28.119   3.170
22853W        W82356  18.187  26.089  13.387
22854W        W82357  43.330   1.817  13.038
22855W        W82358  19.674   8.813  11.862
22856W        W82359  34.107  23.130   0.416
22857W        W82360  28.058   8.344  11.095
22858W        W82361  24.159  10.190   0.795
22859W        W82362   1.785  23.529  13.392
22860W        W82363   4.754  37.943  10.089
22861W        W82364  32.000  20.636  10.605
22862W        W82365   8.296  36.350  13.479
22863W        W82366  31.090  27.541   4.652
22864W        W82367  22.618  30.574   2.746
22865W        W82368  30.492  12.272   5.631
22866W        W82369  38.982   0.336   2.857
22867W        W82370  35.097  34.041   0.420
22868W        W82371  37.005   7.236   3.326
22869W        W82372  26.656  12.821  12.367
22870W        W82373  18.640  26.997  13.467
22871W        W82374  15.768  42.433   2.259
22872W        W82375  18.071  22.703  14.274
22873W        W82376  22.184  25.067   0.773
22874W        W82377   4.246  23.507  13.345
22875W        W82378  23.028  31.989   2.370
22876W        W82379  11.708  42.963   2.381
22877W        W82380   1.478  37.529   9.948
22878W        W82381  13.772  29.158  12.924
22879W        W82382  14.106  35.445   0.372
22880W        W82383  19.092  21.598  12.866
22881W        W82384   2.735  39.381  13.052
22882W        W82385   8.731  35.490  12.954
22883W        W82386  44.391  10.866   1.290
22884W        W82387  27.102  43.323   1.349
22885W        W82388  42.964   3.792   3.870
22886W        W82389  33.390  25.031   0.289
22887W        W82390   6.405  36.408   4.180
22888W        W82391   4.839  27.950  11.855
22889W        W82392  27.517  38.937   1.880
22890W        W82393  41.952  12.726  13.042
22891W        W82394  32.626  14.325   2.364
22892W        W82395  18.759  21.244  12.833
22893W        W82396  18.765  24.053  11.063
22894W        W82397  21.662  37.502   4.169
22895W        W82398   7.838  13.721   0.429
22896W        W82399   4.823  23.124  14.502
22897W        W82400   9.807  16.776   4.153
22898W        W82401  44.900  28.157   4.131
22899W        W82402  27.994  10.871  10.512
22900W        W82403   6.681  29.565   0.443
22901W        W82404  37.536  17.633  12.966
22902W        W82405  27.556  43.420   3.688
22903W        W82406  13.780   3.380  10.620
22904W        W82407  13.613  29.122  11.943
22905W        W82408  10.249  18.159  12.397
22906W        W82409  29.561  21.202   4.329
22907W        W82410  43.926  12.227  12.340
22908W        W82411  18.132  38.469   2.666
22909W        W82412  16.104  27.147   0.399
22910W        W82413   6.404  37.509   9.963
22911W        W82414  28.087  11.139   1.803
22912W        W82415  44.853  21.221   1.341
22913W        W82416  21.752  13.291   0.907
22914W        W82417  16.238  40.989   3.691
22915W        W82418  22.650   5.402  10.907
22916W        W82419  21.600  12.855  11.441
22917W        W82420   0.889   1.395  12.542
22918W        W82421  10.677  30.583   4.118
22919W        W82422  21.583   9.756   0.291
22920W        W82423  37.882   7.279  13.343
22921W        W82424  20.145   5.712  11.572
22922W        W82425  35.986  17.636  13.996
22923W        W82426  43.401   2.398   4.130
22924W        W82427  32.934   1.744  11.111
22925W        W82428   9.832  19.156   0.479
22926W        W82429   3.736  23.543  14.014
22927W        W82430   8.664  17.737   3.312
22928W        W82431  33.412  44.469   3.155
22929W        W82432  39.945  11.276  10.931
22930W        W82433  15.672  44.952  11.550
22931W        W82434  11.157  18.069  10.501
22932W        W82435  10.193  37.576   4.834
22933W        W82436   4.854   3.246  13.045
22934W        W82437  17.591  44.470   4.720
22935W        W82438  19.275  25.212  13.002
22936W        W82439  29.544   2.275   0.303
22937W        W82440  17.075  38.850   1.332
22938W        W82441  40.525  42.324   3.819
22939W        W82442  11.863  32.554  11.918
22940W        W82443  12.827  34.436   2.375
22941W        W82444  12.624  22.242   1.803
22942W        W82445   9.342   9.192   4.741
22943W        W82446  12.651  40.451   1.900
22944W        W82447  39.402  43.995   0.248
22945W        W82448  36.894  39.375  12.552
22946W        W82449  20.113  17.703  11.477
22947W        W82450  23.618  32.065  14.407
22948W        W82451  42.449  29.655  13.055
22949W        W82452  30.910   1.882  14.414
22950W        W82453  13.168  43.830  14.964
22951W        W82454  44.283   5.707   1.876
22952W        W82455  41.456  27.451  14.437
22953W        W82456  27.510  41.364  14.389
22954W        W82457  39.896  12.798  10.429
22955W        W82458  15.276  28.050  10.957
22956W        W82459  27.165  40.545   1.305
22957W        W82460  40.452  20.727  12.462
22958W        W82461  31.407  21.067  12.348
22959W        W82462  26.536  17.759   4.142
22960W        W82463  22.667  32.031   0.751
22961W        W82464   7.889  31.137  12.569
22962W        W82465  17.206  34.405  11.416
22963W        W82466  22.631  23.011  10.983
22964W        W82467  42.304  19.654  14.831
22965W        W82468  16.282  32.077  14.899
22966W        W82469  22.531  34.393   3.300
22967W        W82470   8.841  31.556  11.022
22968W        W82471   6.197  19.237   3.652
22969W        W82472  11.337  29.151  12.927
22970W        W82473  42.836  43.338   2.290
22971W        W82474  37.054   8.873  13.362
22972W        W82475  28.671   8.258  10.992
22973W        W82476  41.532  40.455  11.473
22974W        W82477   4.246  18.592  12.832
22975W        W82478  33.128  44.944  10.509
22976W        W82479  30.515   5.710   3.285
22977W        W82480  27.639  13.217   0.738
22978W        W82481  21.080  38.495   3.718
22979W        W82482  18.649  34.877  10.015
22980W        W82483  24.691  29.019   0.894
22981W        W82484  20.706   8.221   1.382
22982W        W82485  41.017  37.016  14.494
22983W        W82486  31.535   9.870   2.766
22984W        W82487  39.401  32.995   1.735
22985W        W82488  20.189  30.940  11.988
22986W        W82489  10.677  29.085   3.318
22987W        W82490  31.148  12.127  12.401
22988W        W82491  23.636  11.258  12.900
22989W        W82492  12.133  37.084   3.305
22990W        W82493  38.912   9.180   3.829
22991W        W82494   0.395   6.706  11.560
22992W        W82495   2.746  34.495   2.400
22993W        W82496  44.930  14.740  14.494
22994W        W82497  24.547  24.154   2.238
22995W        W82498  24.185  42.992   0.744
22996W        W82499  16.128   1.867   2.746
22997W        W82500  26.202  20.149  13.541
22998W        W82501  39.423  34.959   1.308
22999W        W82502  25.986  26.116   4.633
23000W        W82503   1.314   4.853  12.427
23001W        W82504  40.501  41.372   0.948
23002W        W82505   6.811  34.899  12.436
23003W        W82506  18.641   6.766  14.932
23004W        W82507  30.066  18.691  11.073
23005W        W82508  25.659  23.526   0.947
23006W        W82509  40.042  25.628  13.453
23007W        W82510   0.345  24.190  14.759
23008W        W82511  34.974  39.317   2.268
23009W        W82512  17.629  25.044  14.488
23010W        W82513   5.275  14.784   2.665
23011W        W82514  19.158  41.440  11.083
23012W        W82515  20.647  44.009  11.457
23013W        W82516   7.802  21.028  12.360
23014W        W82517  10.219   5.799  10.927
23015W        W82518  39.860   7.809   4.795
23016W        W82519  20.617  44.910  12.384
23017W        W82520  28.982  23.589  14.971
23018W        W82521  11.821   7.858   1.844
23019W        W82522   3.389  27.126  11.532
23020W        W82523  14.126  34.120  13.377
23021W        W82524   8.288   6.262  12.450
23022W        W82525   0.824  43.790  13.848
23023W        W82526  36.950   0.750   1.848
23024W        W82527  11.654   2.353   0.800
23025W        W82528  42.004   2.861   0.858
23026W        W82529   0.825  10.713   3.169
23027W        W82530  38.402  18.108  12.417
23028W        W82531  21.588  38.552  14.827
23029W        W82532  21.594  20.055   2.837
23030W        W82533  32.392  16.274   3.246
23031W        W82534  38.406  12.347   2.316
23032W        W82535  28.547  31.941  10.410
23033W        W82536  29.627  23.085   2.315
23034W        W82537  39.947  24.174  10.444
23035W        W82538  38.570  24.689  14.980
23036W        W82539  11.674  19.052  11.066
23037W        W82540   3.450   4.326  13.870
23038W        W82541  21.726  28.071   9.936
23039W        W82542  23.668   1.285   0.398
23040W        W82543  28.459   1.431   2.311
23041W        W82544  28.002  36.080   3.696
23042W        W82545  10.201   0.844   4.325
23043W        W82546  23.542  38.912  10.517
23044W        W82547   1.892  31.553   1.759
23045W        W82548  10.861  29.125  14.996
23046W        W82549  28.520  44.989   1.749
23047W        W82550  43.777   9.866  12.377
23048W        W82551  28.938  18.198   4.806
23049W        W82552  31.152   9.721   2.662
23050W        W82553  35.974   9.334   4.809
23051W        W82554   9.349  30.439  11.955
23052W        W82555   9.703  30.538  14.899
23053W        W82556  39.916  14.313   0.794
23054W        W82557  14.728   9.260   0.407
23055W        W82558  30.020  24.003  11.905
23056W        W82559  23.099  16.671   3.198
23057W        W82560   0.267  10.782   4.134
23058W        W82561   4.730  26.152   0.349
23059W        W82562  24.141  44.874  13.540
23060W        W82563   4.896  21.243   4.256
23061W        W82564  15.608  19.711   3.266
23062W        W82565  36.468   0.455  12.987
23063W        W82566   4.792  19.149  11.496
23064W        W82567  30.122   7.848  12.516
23065W        W82568   1.455  33.984  11.397
23066W        W82569  42.487  19.572  12.006
23067W        W82570   6.305  40.833  11.543
23068W        W82571  12.270   2.396   4.607
23069W        W82572  27.988  14.718  14.791
23070W        W82573  15.145   9.336  13.021
23071W        W82574  22.020  10.712  12.920
23072W        W82575  18.691  40.016   4.309
23073W        W82576  43.315  35.415  12.475
23074W        W82577   7.807   7.211  10.071
23075W        W82578   1.912  28.445   3.361
23076W        W82579  28.972   7.307   3.149
23077W        W82580  32.590  43.015  13.329
23078W        W82581  24.063   1.788   3.681
23079W        W82582   2.777  16.223  11.418
23080W        W82583  17.573  38.393   4.670
23081W        W82584  40.007  32.407  10.933
23082W        W82585  42.516  28.452   3.668
23083W        W82586   6.694  27.952   4.306
23084W        W82587  12.155  37.937  12.828
23085W        W82588  39.476  28.039  14.859
23086W        W82589  30.427  23.136  14.869
23087W        W82590   2.778  12.171  10.970
23088W        W82591  38.829   6.201   2.342
23089W        W82592  41.511  15.169  10.620
23090W        W82593  27.113  37.547   4.124
23091W        W82594  23.489  33.103  14.425
23092W        W82595  32.589  10.871   4.333
23093W        W82596  37.500  21.140   1.228
23094W        W82597   8.163  11.843   3.662
23095W        W82598   0.489  29.539   2.393
23096W        W82599   2.913  44.477   4.825
23097W        W82600  37.042  26.607  14.924
23098W        W82601  41.828   8.222   1.913
23099W        W82602  34.907  29.459  14.778
23100W        W82603  28.113  17.208   2.903
23101W        W82604  12.715  14.145  12.907
23102W        W82605  40.401   8.699   5.166
23103W        W82606  40.455   0.818  10.594
23104W        W82607  29.424  25.013  13.947
23105W        W82608   0.776  13.325  13.851
23106W        W82609  21.188   6.232   3.153
23107W        W82610  41.326   2.299   2.187
23108W        W82611  28.656  19.731  12.096
23109W        W82612  15.638  17.122   2.393
23110W        W82613  44.771  11.196  12.395
23111W        W82614  33.403   1.959  11.451
23112W        W82615  21.671   9.262  12.443
23113W        W82616   6.722  10.633  13.500
23114W        W82617   3.930  28.621   0.831
23115W        W82618  19.155  34.041   3.229
23116W        W82619  19.168  25.007   1.748
23117W        W82620  36.863   0.976   2.269
23118W        W82621  16.156  19.691  10.947
23119W        W82622  31.496   0.916   0.463
23120W        W82623  24.624   7.275   1.403
23121W        W82624  42.986  33.618   0.284
23122W        W82625  14.802  23.005   2.197
23123W        W82626   4.768  31.066  12.864
23124W        W82627  26.461   9.766   3.197
23125W        W82628  18.260   9.751  14.857
23126W        W82629   8.369  12.356  10.569
23127W        W82630  27.085   4.731   3.211
23128W        W82631  44.983  24.226  11.555
23129W        W82632  21.523  39.351  13.468
23130W        W82633  15.213   1.287  10.580
23131W        W82634  20.551  17.129  10.642
23132W        W82635  27.486  27.171  12.369
23133W        W82636  29.087  18.157  14.028
23134W        W82637  11.325  29.605  11.012
23135W        W82638  31.025   3.860  11.568
23136W        W82639  19.254   3.241  10.899
23137W        W82640  31.488   4.351  11.919
23138W        W82641  32.024  42.012   4.137
23139W        W82642  31.023  11.633   1.262
23140W        W82643  30.033   1.793   4.740
23141W        W82644  40.818  38.023  12.450
23142W        W82645  10.338   4.753   3.828
23143W        W82646  37.558  21.226  14.506
23144W        W82647  27.997  31.487  10.467
23145W        W82648  11.777   1.756  12.534
23146W        W82649  40.450  24.634   1.435
23147W        W82650  41.969   3.943   4.191
23148W        W82651  27.637  42.834   0.354
23149W        W82652  44.264   4.852  11.441
23150W        W82653  37.386   4.774  10.022
23151W        W82654   6.286  37.022  14.350
23152W        W82655  32.626   7.375  11.960
23153W        W82656   3.284  12.127  13.514
23154W        W82657  21.699  28.637  11.895
23155W        W82658  35.906   9.323  13.002
23156W        W82659  28.672  34.475  10.537
23157W        W82660  36.555  40.052  13.882
23158W        W82661  13.285  44.430   2.304
23159W        W82662  21.745  10.800  14.284
23160W        W82663  33.935  18.561  11.581
23161W        W82664  26.520  26.133   1.743
23162W        W82665  26.666  34.984   2.289
23163W        W82666  21.589   6.184  10.562
23164W        W82667   8.256   2.396  14.427
23165W        W82668  17.599  22.239  13.438
23166W        W82669  13.690   2.812  14.432
23167W        W82670  27.107  16.075  11.396
23168W        W82671   5.315   7.183  14.804
23169W        W82672  11.264  26.502   0.964
23170W        W82673   2.299  39.939  10.005
23171W        W82674  41.022  26.150   4.811
23172W        W82675  13.196   0.474   2.890
23173W        W82676  16.233   9.825   0.373
23174W        W82677  27.034  35.570   2.278
23175W        W82678  43.413  18.781   3.299
23176W        W82679   0.489  42.790   2.769
23177W        W82680  29.635   1.341  13.336
23178W        W82681   3.814  18.678  10.488
23179W        W82682   2.429  17.080   4.237
23180W        W82683   3.946  22.672   2.763
23181W        W82684   9.207  25.517  14.469
23182W        W82685  44.807  34.960  14.361
23183W        W82686  14.223  35.550  10.952
23184W        W82687   6.231  40.834   2.893
23185W        W82688   4.714  38.463  11.984
23186W        W82689   9.758  27.682  13.411
23187W        W82690  36.873   5.329   1.395
23188W        W82691  31.416  19.639   3.223
23189W        W82692  25.489  11.189  11.458
23190W        W82693  17.078  16.282  12.837
23191W        W82694  14.103  31.486  11.096
23192W        W82695  39.957   9.390  10.626
23193W        W82696  38.386   0.446   0.814
23194W        W82697   4.821   0.819  11.533
23195W        W82698  22.110   2.741  14.341
23196W        W82699  38.470  14.203   5.312
23197W        W82700   9.692   1.432  12.882
23198W        W82701  11.753  14.651   1.341
23199W        W82702  26.535  28.499   1.352
23200W        W82703  26.463  25.982   4.302
23201W        W82704  34.400  28.068  14.795
23202W        W82705   5.687   9.885   2.774
23203W        W82706  40.393  25.057   1.362
23204W        W82707   6.839  31.538  14.468
23205W        W82708   1.348   1.848  13.475
23206W        W82709  37.580  44.399   4.268
23207W        W82710  15.094  44.800   3.308
23208W        W82711  31.932  10.858  11.420
23209W        W82712   0.410   3.395   4.741
23210W        W82713  21.634  19.758  12.554
23211W        W82714   4.903  11.272   4.283
23212W        W82715   8.301   7.232  13.326
23213W        W82716   6.422  22.061   4.782
23214W        W82717  12.234  16.791   4.271
23215W        W82718   7.330   9.369  10.932
23216W        W82719  33.464  39.061   1.836
23217W        W82720  40.539  26.051   3.707
23218W        W82721  12.127  40.965  13.050
23219W        W82722  42.324   3.926  13.510
23220W        W82723  33.925  28.460   3.651
23221W        W82724  32.473  30.493  11.408
23222W        W82725   6.350  11.861  11.970
23223W        W82726   9.865   2.393   2.221
23224W        W82727  31.489   8.271   3.723
23225W        W82728  33.879  27.549  14.828
23226W        W82729  12.722   4.370   3.385
23227W        W82730  22.079  13.680   3.251
23228W        W82731  31.526  42.911   1.828
23229W        W82732   1.460  33.427   4.272
23230W        W82733  17.134   6.757  12.411
23231W        W82734  12.331  21.043   2.387
23232W        W82735  32.617  12.656  13.318
23233W        W82736  37.426  26.044   3.355
23234W        W82737  19.750   0.944   9.934
23235W        W82738  36.403  31.145  14.495
23236W        W82739   0.761  13.674  13.367
23237W        W82740  31.959  38.571  13.979
23238W        W82741  42.391  32.005   0.374
23239W        W82742  43.962  29.558  13.490
23240W        W82743  11.840  10.165  11.107
23241W        W82744  35.035  23.151   4.725
23242W        W82745  39.519   7.688   3.837
23243W        W82746   7.762   6.216  11.471
23244W        W82747  25.638  24.995  14.468
23245W        W82748  40.993  18.068  14.388
23246W        W82749   3.718  32.956   4.763
23247W        W82750  44.280  38.381  10.996
23248W        W82751  34.986   8.374  11.022
23249W        W82752  20.172   0.314   3.159
23250W        W82753   1.816  30.996   3.662
23251W        W82754  38.063  30.545   2.721
23252W        W82755  16.613  42.927   0.797
23253W        W82756  39.398  25.021   4.135
23254W        W82757  40.987  10.181  12.916
23255W        W82758  32.488  26.114   4.612
23256W        W82759  20.039  38.915   1.880
23257W        W82760   4.911  20.663   0.766
23258W        W82761  11.312   2.230  13.968
23259W        W82762  18.147  37.070   0.429
23260W        W82763  28.472  19.649   1.285
23261W        W82764  36.983  40.351   2.370
23262W        W82765  21.246  10.303   4.131
23263W        W82766  16.698  18.686  11.917
23264W        W82767  22.529  33.582   4.776
23265W        W82768  16.103  33.973  10.904
23266W        W82769  32.465  40.416   0.760
23267W        W82770  28.132  29.145   4.338
23268W        W82771   2.726  20.069  14.940
23269W        W82772   9.244  31.134  11.489
23270W        W82773  38.856  43.854   0.253
23271W        W82774  18.184  12.727  11.401
23272W        W82775  33.113   3.731  14.872
23273W        W82776  13.657  42.032  11.105
23274W        W82777  38.969  14.741   2.289
23275W        W82778  29.426   9.740  14.953
23276W        W82779  28.938  44.756   0.956
23277W        W82780  20.699  41.528   1.761
23278W        W82781  38.051  30.542  10.896
23279W        W82782  30.635  39.425  13.032
23280W        W82783  36.576  37.943  11.961
23281W        W82784  13.636  39.982   2.408
23282W        W82785   5.708  22.542   0.430
23283W        W82786   7.370  16.612   2.271
23284W        W82787  29.044   6.858   2.687
23285W        W82788  29.637   4.891  12.457
23286W        W82789  20.743   3.789   4.723
23287W        W82790  34.018   5.431  13.521
23288W        W82791  31.029  23.586   0.732
23289W        W82792   9.795  24.710  10.575
23290W        W82793  16.672   4.247  10.424
23291W        W82794  29.974   7.328  10.545
23292W        W82795   6.817   2.467  11.038
23293W        W82796  21.077  31.084   3.815
23294W        W82797  32.413   8.729   3.755
23295W        W82798  27.446  19.156   4.308
23296W        W82799  15.214  39.409   2.747
23297W        W82800  39.418  13.263   1.373
23298W        W82801  22.149  21.727   1.803
23299W        W82802  32.022  42.507   0.741
23300W        W82803  38.917  13.669  13.414
23301W        W82804  30.601  13.761  13.918
23302W        W82805  29.935  19.621  12.411
23303W        W82806   1.777  20.605   3.838
23304W        W82807  24.612  18.731  10.616
23305W        W82808  23.517  13.737   4.708
23306W        W82809  38.491  27.468   2.367
23307W        W82810  18.246  25.147  11.069
23308W        W82811  37.013  18.606   4.116
23309W        W82812   2.406  37.862   0.338
23310W        W82813   4.780  37.996   1.342
23311W        W82814  41.990  16.660  11.076
23312W        W82815  17.307  30.458  13.328
23313W        W82816  43.347  24.495   0.819
23314W        W82817  44.341  20.636   3.813
23315W        W82818  42.292  17.637   2.661
23316W        W82819   1.826  27.644  11.562
23317W        W82820  40.951  18.791   4.814
23318W        W82821  34.071  23.580  11.463
23319W        W82822  13.733  22.567  14.838
23320W        W82823  15.181  12.306  14.478
23321W        W82824   4.269  42.415   3.178
23322W        W82825  38.536  44.351  11.941
23323W        W82826  38.368   6.705   0.436
23324W        W82827   9.190  41.964  11.970
23325W        W82828  23.656  44.497   2.282
23326W        W82829  18.216  41.406  13.839
23327W        W82830   6.286  14.171   3.173
23328W        W82831  39.056   3.325   3.221
23329W        W82832   2.954  35.382  12.007
23330W        W82833   8.258  35.466  13.971
23331W        W82834  36.974  12.361   0.740
23332W        W82835   2.405  44.423   0.733
23333W        W82836  44.812  20.624  12.018
23334W        W82837   9.212  12.709  12.378
23335W        W82838  32.959  39.371   0.782
23336W        W82839   7.874  12.814  12.827
23337W        W82840  43.917  25.539  14.275
23338W        W82841  15.249  11.141   4.343
23339W        W82842  18.130  18.717   0.732
23340W        W82843   5.268  37.061  12.376
23341W        W82844  18.779  38.495   3.256
23342W        W82845  11.748  30.543   4.774
23343W        W82846  10.877   7.318   2.817
23344W        W82847  19.237  43.900   1.769
23345W        W82848  40.988  10.638   1.809
23346W        W82849  32.628  24.540   1.729
23347W        W82850   5.909   8.220  10.457
23348W        W82851  40.904  40.914   0.737
23349W        W82852  31.516  27.188   3.212
23350W        W82853  17.134  28.471  14.367
23351W        W82854  43.359  10.247   4.720
23352W        W82855  25.641  13.615  11.101
23353W        W82856  17.636  23.500   0.284
23354W        W82857   8.770   7.297   1.231
23355W        W82858  34.879  15.724  10.990
23356W        W82859  18.544  14.786   2.316
23357W        W82860  43.480  44.848   1.437
23358W        W82861  28.481  19.224  11.447
23359W        W82862  35.496  14.209  11.438
23360W        W82863   5.419  35.470   1.446
23361W        W82864   2.261  16.675   4.319
23362W        W82865  30.466  17.585   4.726
23363W        W82866  25.209   1.757  12.853
23364W        W82867  38.902   9.338  14.781
23365W        W82868  29.555  24.989   3.795
23366W        W82869  16.665  17.064  11.592
23367W        W82870  20.572  31.565  14.462
23368W        W82871   8.194  43.354  14.387
23369W        W82872  37.922  19.683   1.740
23370W        W82873  40.547  37.080   3.164
23371W        W82874   5.248  43.292   3.378
23372W        W82875  26.687   1.337  10.420
23373W        W82876  13.784   2.352  11.402
23374W        W82877   7.194  42.358  12.417
23375W        W82878  40.832   1.850  14.281
23376W        W82879   4.394   2.822  11.124
23377W        W82880   3.850   6.415   4.816
23378W        W82881   4.741  40.362  10.910
23379W        W82882  11.794  26.141  12.560
23380W        W82883  11.794  38.340   1.278
23381W        W82884  13.790   3.786  13.846
23382W        W82885  33.945  29.651   0.310
23383W        W82886  33.108   8.724  14.941
23384W        W82887  17.759  33.088   2.214
23385W        W82888  37.452  34.607  13.884
23386W        W82889  18.224   7.862   0.935
23387W        W82890  38.437  10.762   4.216
23388W        W82891  35.358  33.088  14.423
23389W        W82892  25.579   0.373   3.157
23390W        W82893  41.515  38.558   2.716
23391W        W82894  19.264  15.308  10.958
23392W        W82895   6.223  32.488   3.769
23393W        W82896   3.827  19.256   1.310
23394W        W82897  44.414  16.145   3.332
23395W        W82898  11.267  35.045   4.200
23396W        W82899  29.433   0.921   2.797
23397W        W82900  11.146  23.652  11.107
23398W        W82901  13.739  37.883   3.251
23399W        W82902  14.318  34.386  13.983
23400W        W82903  42.367   5.267   3.675
23401W        W82904  40.464  31.038  12.994
23402W        W82905  16.155  16.210   3.164
23403W        W82906  27.637  20.179  12.382
23404W        W82907   2.764  38.890   4.158
23405W        W82908   2.960  12.332   0.781
23406W        W82909  43.406  10.857  10.436
23407W        W82910  37.080  23.214  14.288
23408W        W82911  13.822  16.181   1.437
23409W        W82912  18.234  30.978  13.044
23410W        W82913   1.381  30.516  13.921
23411W        W82914  19.174  18.660   4.656
23412W        W82915   5.854  16.621   3.241
23413W        W82916  37.001  34.386  11.938
23414W        W82917  37.997   5.350  11.940
23415W        W82918  32.436   1.808  10.468
23416W        W82919  21.195  40.401  13.517
23417W        W82920  13.238  29.936   2.197
23418W        W82921  43.337   3.919   4.211
23419W        W82922   2.324  31.614   3.699
23420W        W82923  18.143  19.754   0.268
23421W        W82924  21.224  10.821   3.666
23422W        W82925  26.123   6.403  12.827
23423W        W82926  19.257  26.186   3.252
23424W        W82927  32.391  30.048  10.975
23425W        W82928  44.757  16.620   4.339
23426W        W82929  40.492  35.861  10.604
23427W        W82930   1.262  23.140  12.511
23428W        W82931   5.791  30.142  11.060
23429W        W82932  30.414  22.724   3.190
23430W        W82933  11.703  20.232   1.317
23431W        W82934  42.488  28.036   3.294
23432W        W82935  39.506   3.746  14.379
23433W        W82936  24.501  15.622   2.197
23434W        W82937  43.303   7.344  10.922
23435W        W82938  15.816  32.515   0.835
23436W        W82939  13.605  28.063   0.801
23437W        W82940  16.151  38.959   4.258
23438W        W82941  18.750  22.682  14.436
23439W        W82942   6.213  25.671  13.379
23440W        W82943  10.213  14.338   0.288
23441W        W82944  37.836  32.927  11.440
23442W        W82945  34.084  18.110  14.439
23443W        W82946  24.107   6.858   4.161
23444W        W82947  15.181  21.587  10.591
23445W        W82948  24.478  29.657   2.728
23446W        W82949  15.729   2.860  10.411
23447W        W82950  19.090  12.228  14.496
23448W        W82951  40.881   1.435  13.351
23449W        W82952   4.937  40.368   0.817
23450W        W82953   3.413  40.501   4.689
23451W        W82954   8.701  40.316  10.581
23452W        W82955  31.543  24.648   3.248
23453W        W82956   5.727  37.895  14.913
23454W        W82957   2.437  21.740  10.481
23455W        W82958   5.692  19.167   0.468
23456W        W82959   8.291  44.784   0.812
23457W        W82960   6.899  26.056   3.655
23458W        W82961  39.909  10.241  11.063
23459W        W82962  11.306   8.859   1.213
23460W        W82963  22.646  41.377  11.105
23461W        W82964   9.242  33.057  12.439
23462W        W82965  42.477  29.066  13.322
23463W        W82966  26.597  31.489  11.424
23464W        W82967  26.173   2.910  14.783
23465W        W82968  10.355  16.637   1.316
23466W        W82969  42.394   8.659   1.219
23467W        W82970  40.943  21.106  10.608
23468W        W82971   3.384  11.188  11.387
23469W        W82972  11.178   1.862   0.266
23470W        W82973   6.346  29.595  14.989
23471W        W82974   5.334   8.360  10.532
23472W        W82975  26.157   0.337  13.331
23473W        W82976  37.353  44.315  10.473
23474W        W82977   8.264  11.372  11.968
23475W        W82978  33.963  23.205  14.026
23476W        W82979  31.593   8.663  14.304
23477W        W82980  37.067   9.779   0.792
23478W        W82981  34.477   6.826   1.738
23479W        W82982  26.162  22.638  11.051
23480W        W82983   6.813  41.317  11.397
23481W        W82984   3.384  11.808   5.270
23482W        W82985  34.013  25.623  11.862
23483W        W82986  11.848  22.021   3.332
23484W        W82987   9.395  43.948   2.665
23485W        W82988  24.688  17.236   1.273
23486W        W82989  20.159  23.011  12.426
23487W        W82990  37.871   8.837   0.957
23488W        W82991   5.228  34.928  12.508
23489W        W82992  34.527   0.980  12.473
23490W        W82993  10.697  39.405  14.939
23491W        W82994  19.720   3.784   2.319
23492W        W82995  18.713  34.606   0.820
23493W        W82996  25.044  13.319  11.113
23494W        W82997   6.298   3.732   4.804
23495W        W82998  13.197  21.143   4.342
23496W        W82999  42.513  33.050   2.701
23497W        W83000  43.812  42.893  11.864
23498W        W83001  24.559  41.887  11.435
23499W        W83002  12.234  21.031   0.841
23500W        W83003  28.563   4.869   4.626
23501W        W83004  11.663  28.618   1.294
23502W        W83005  17.188  37.520   1.358
23503W        W83006  20.605  29.529   1.866
23504W        W83007   4.287  27.967   0.900
23505W        W83008  15.295  39.535  14.410
23506W        W83009  19.162  30.442  10.597
23507W        W83010   0.821   8.795  10.518
23508W        W83011   6.421  15.158   0.870
23509W        W83012  39.532  22.039  10.642
23510W        W83013  22.118   0.333   9.674
23511W        W83014  14.798  31.533   2.217
23512W        W83015   8.680  42.885  13.866
23513W        W83016  38.467  21.122  10.006
23514W        W83017  28.098  15.722  14.960
23515W        W83018  35.389  12.774  10.913
23516W        W83019   1.939   5.316   2.875
23517W        W83020   8.766  10.360  12.874
23518W        W83021  42.289  41.301  10.495
23519W        W83022  24.144  26.551  11.046
23520W        W83023   7.861  35.960   0.466
23521W        W83024  10.683   0.841  12.496
23522W        W83025  37.366  11.808  12.379
23523W        W83026  35.971  18.090  14.807
23524W        W83027  41.899  39.490   4.707
23525W        W83028  43.924  39.516   1.412
23526W        W83029  37.921  28.070  12.955
23527W        W83030  19.593  25.202  12.554
23528W        W83031  44.351   3.941  14.829
23529W        W83032  42.998  29.919   0.888
23530W        W83033  27.135  11.700  11.985
23531W        W83034  12.235   7.730   4.703
23532W        W83035  40.480  16.680  14.775
23533W        W83036  10.244   5.808   2.871
23534W        W83037   5.259   0.428   2.401
23535W        W83038  44.417  11.669  11.092
23536W        W83039  29.150   0.385   1.217
23537W        W83040  20.717  32.591   0.328
23538W        W83041  34.614  43.956  14.426
23539W        W83042  11.145  16.570   1.873
23540W        W83043  23.219  28.993   2.243
23541W        W83044  35.059   2.730  13.513
23542W        W83045   6.740  38.918   1.227
23543W        W83046  14.596  42.425   0.372
23544W        W83047  36.431   1.971   1.429
23545W        W83048  31.495  15.120   1.325
23546W        W83049  39.953  19.698   3.632
23547W        W83050   2.756  38.410   2.314
23548W        W83051  40.985  42.833   0.451
23549W        W83052   4.250   0.444   2.395
23550W        W83053  37.358  19.108  11.517
23551W        W83054  36.012  14.623  13.911
23552W        W83055  30.165  23.184  11.428
23553W        W83056  43.944  16.755   0.356
23554W        W83057  43.773  28.596  12.348
23555W        W83058  36.543   2.279   1.367
23556W        W83059   3.256  38.561   2.335
23557W        W83060  31.135  33.458  11.562
23558W        W83061  18.123  37.555   0.384
23559W        W83062   5.752  41.014   2.855
23560W        W83063  14.304  42.467  14.285
23561W        W83064  29.951  24.500   3.680
23562W        W83065  41.038  31.057  12.906
23563W        W83066  44.967   6.782   4.751
23564W        W83067  20.680  20.693   3.689
23565W        W83068  14.687  20.233   4.310
23566W        W83069  22.099  15.736  10.489
23567W        W83070  12.197   9.653   1.714
23568W        W83071   0.842  10.359   0.338
23569W        W83072  27.685  26.461   3.360
23570W        W83073  11.698  17.656   2.856
23571W        W83074  25.515   8.743   4.638
23572W        W83075  40.936  10.803  14.834
23573W        W83076  41.493   9.192  12.960
23574W        W83077  14.269  31.037  14.337
23575W        W83078  31.153  21.627   3.864
23576W        W83079  22.197  40.401  13.502
23577W        W83080  36.056   1.903   1.225
23578W        W83081   2.447   4.907   4.757
23579W        W83082  33.015  44.372   2.744
23580W        W83083  44.430  19.732   2.708
23581W        W83084  41.853  35.867  11.409
23582W        W83085  11.687   2.900   3.348
23583W        W83086  28.178  26.958   5.084
23584W        W83087  30.111  32.624   4.137
23585W        W83088  35.445  23.001  14.768
23586W        W83089  26.577  33.504   0.825
23587W        W83090  19.614   4.907   2.824
23588W        W83091  41.832  24.091  12.405
23589W        W83092  41.939   1.300  10.634
23590W        W83093  24.482  36.418   3.860
23591W        W83094  40.434  28.628   0.479
23592W        W83095  26.686  33.412   4.716
23593W        W83096  18.130   7.359   3.312
23594W        W83097  44.807  20.663   1.837
23595W        W83098  44.499   6.822  13.377
23596W        W83099  44.759   0.929  13.993
23597W        W83100  29.620  22.506   4.332
23598W        W83101  38.347  19.777  13.961
23599W        W83102   1.309  15.678   2.268
23600W        W83103  36.403  16.298   2.328
23601W        W83104  33.455   2.904  11.465
23602W        W83105  28.573  32.509  14.018
23603W        W83106  17.299  13.635  10.598
23604W        W83107  13.753  22.734  12.510
23605W        W83108  27.685  40.052  12.443
23606W        W83109  27.521   6.812   1.921
23607W        W83110  12.299  21.205  14.505
23608W        W83111  19.140  13.116   1.312
23609W        W83112  35.094  33.080   2.843
23610W        W83113  22.514  42.419  10.979
23611W        W83114   8.279  27.160  13.981
23612W        W83115  34.948  21.256   3.303
23613W        W83116  24.068  18.167  11.053
23614W        W83117  17.556  30.563  12.870
23615W        W83118  11.269  26.593   3.851
23616W        W83119  44.961  30.116  14.487
23617W        W83120  28.625  41.354  13.468
23618W        W83121  33.433  39.465   0.264
23619W        W83122   1.898  33.089  11.454
23620W        W83123  27.641  43.817   1.399
23621W        W83124  38.416  42.839   2.181
23622W        W83125  10.725  31.630  11.006
23623W        W83126  14.195  23.028   1.261
23624W        W83127  42.836  17.560  12.464
23625W        W83128  27.496  24.050  14.767
23626W        W83129  43.399  38.547   0.856
23627W        W83130  17.566  19.664  11.100
23628W        W83131  38.973  15.329   0.921
23629W        W83132  10.676   9.296   2.185
23630W        W83133  33.936   2.902   1.323
23631W        W83134   0.768  14.250  11.890
23632W        W83135  32.095  15.253   2.725
23633W        W83136  16.585   6.236  11.994
23634W        W83137  21.053  24.043   4.231
23635W        W83138  22.216  12.637   2.345
23636W        W83139  22.061   5.348  13.845
23637W        W83140  36.919   1.864  12.871
23638W        W83141  19.672  14.688  13.373
23639W        W83142  41.373  43.003  13.459
23640W        W83143  24.994  42.413  13.932
23641W        W83144  22.151  28.060  12.004
23642W        W83145  38.006  12.852   4.713
23643W        W83146  38.910  13.741  13.030
23644W        W83147  17.748  15.115   2.769
23645W        W83148  25.559  34.387  12.387
23646W        W83149  28.074  20.603  14.316
23647W        W83150  11.193  42.898   0.879
23648W        W83151  16.247   4.341  12.494
23649W        W83152  15.777   6.273   1.223
23650W        W83153   1.918   6.847  14.316
23651W        W83154   2.810   6.695  14.350
23652W        W83155  31.041  14.835   0.472
23653W        W83156  28.636   6.800   4.744
23654W        W83157  29.068  15.764  14.947
23655W        W83158  36.418  24.997  12.923
23656W        W83159   1.741   2.789   3.201
23657W        W83160  13.798  23.118   0.407
23658W        W83161  43.902   9.763   1.832
23659W        W83162  28.482  17.689   1.825
23660W        W83163  35.100  31.940  11.025
23661W        W83164  29.081  22.077   2.180
23662W        W83165  16.283  33.494  11.525
23663W        W83166  11.229  23.128   4.663
23664W        W83167  22.602   1.753  12.914
23665W        W83168  19.656  28.102  10.451
23666W        W83169  20.062  22.122  11.385
23667W        W83170  21.220   2.763   1.305
23668W        W83171  44.382  26.643  14.805
23669W        W83172  31.630  42.339   1.702
23670W        W83173  25.019  25.203  12.476
23671W        W83174   6.887  31.956   2.800
23672W        W83175  27.037  44.499  14.335
23673W        W83176  17.130  16.089  13.402
23674W        W83177  27.956  19.623  11.010
23675W        W83178  19.115  17.298   4.187
23676W        W83179  22.738  31.035   3.644
23677W        W83180  40.927  43.963   0.245
23678W        W83181  27.606   1.280  12.841
23679W        W83182  17.641  25.558   2.881
23680W        W83183  33.495   4.404  13.343
23681W        W83184  17.115   3.911  14.484
23682W        W83185  30.498  11.842  11.014
23683W        W83186   0.830  11.200  13.998
23684W        W83187  10.862  22.743  14.966
23685W        W83188  30.549  34.896   3.831
23686W        W83189  17.063  31.911  12.388
23687W        W83190   1.751  25.651  10.498
23688W        W83191  10.355  34.118   2.246
23689W        W83192  35.989  17.556  11.397
23690W        W83193  23.683  44.803  12.856
23691W        W83194   2.911  23.607   2.330
23692W        W83195   8.862  38.348   0.940
23693W        W83196  33.593  22.163  11.860
23694W        W83197  19.130  35.523  11.043
23695W        W83198  32.058   8.352  13.438
23696W        W83199  36.495   7.771   3.648
23697W        W83200   9.220  33.596  10.435
23698W        W83201   0.424  35.570  10.916
23699W        W83202   5.386   1.735   0.871
23700W        W83203  29.569  23.241  14.793
23701W        W83204  24.643   8.350  11.930
23702W        W83205   5.836  30.530   2.230
23703W        W83206   6.885  36.083  12.028
23704W        W83207  27.193  34.581   3.631
23705W        W83208  27.090   9.818   0.804
23706W        W83209   7.897   5.780   9.980
23707W        W83210  24.480  26.680  13.499
23708W        W83211   6.737  43.834  12.038
23709W        W83212  20.715  23.708  12.544
23710W        W83213  21.195  36.989  12.045
23711W        W83214  37.509  20.703  13.534
23712W        W83215  40.950  40.351  13.013
23713W        W83216  18.762   2.421   3.198
23714W        W83217  14.803  27.088   0.938
23715W        W83218  23.048  13.599   2.774
23716W        W83219   2.919  41.817   0.300
23717W        W83220  26.547  31.584  14.803
23718W        W83221   0.812  33.390  11.987
23719W        W83222  20.188  12.671   1.358
23720W        W83223  28.109   5.906  12.951
23721W        W83224  39.445  12.251   1.389
23722W        W83225   4.444  16.234   4.167
23723W        W83226   5.840  31.581  14.468
23724W        W83227  38.430   3.395  11.864
23725W        W83228  40.829  26.653  12.988
23726W        W83229  21.124  42.330   0.934
23727W        W83230  16.579  25.538   1.265
23728W        W83231  14.214  36.486  12.918
23729W        W83232   0.780  35.429   2.823
23730W        W83233   6.260  22.637  10.486
23731W        W83234  40.991  31.063  14.310
23732W        W83235  29.543  32.396   2.752
23733W        W83236  41.948   3.245  11.061
23734W        W83237  14.261   3.452  10.950
23735W        W83238  25.491  34.560   3.182
23736W        W83239  25.162  23.004   3.716
23737W        W83240   5.797   7.911   3.146
23738W        W83241  17.284  18.057   5.291
23739W        W83242  43.977  44.327   1.815
23740W        W83243  13.284   8.404   3.765
23741W        W83244  25.145  29.591   2.302
23742W        W83245   4.749  44.452   4.319
23743W        W83246  36.908  17.665   0.903
23744W        W83247  10.251  27.476  13.529
23745W        W83248  29.462  26.161   4.165
23746W        W83249  32.496   6.302  13.421
23747W        W83250   4.904  34.393   2.389
23748W        W83251  25.107  40.855  10.617
23749W        W83252  39.493  17.114   2.219
23750W        W83253   4.896  12.352   0.266
23751W        W83254  22.012  28.113   2.796
23752W        W83255  26.147   2.809   3.191
23753W        W83256   9.373  29.440   3.657
23754W        W83257  19.216   2.781   4.811
23755W        W83258   6.896  15.652   1.909
23756W        W83259   5.432  13.298   2.856
23757W        W83260  22.169  31.445  12.453
23758W        W83261   1.460  33.963   1.353
23759W        W83262  28.954  11.658  12.970
23760W        W83263   0.757  25.507  12.989
23761W        W83264  20.098   4.915  14.509
23762W        W83265  44.987  35.571   3.326
23763W        W83266  29.665   8.388  11.002
23764W        W83267  42.880  38.424   0.746
23765W        W83268  16.075  13.248  13.417
23766W        W83269   2.349  26.592  13.816
23767W        W83270   1.750  37.435  13.809
23768W        W83271  13.253  16.782   0.922
23769W        W83272  11.352  31.406  12.505
23770W        W83273   2.740  16.084  13.051
23771W        W83274  23.694  40.517   4.822
23772W        W83275  19.775  37.460   1.433
23773W        W83276  31.120  39.471   3.656
23774W        W83277  29.477  16.295  11.505
23775W        W83278   8.171  43.326   4.733
23776W        W83279  44.466   8.709   4.755
23777W        W83280  31.493  37.467  10.965
23778W        W83281   1.898  19.257   4.835
23779W        W83282  29.646  44.474   1.792
23780W        W83283  20.147  37.082  14.299
23781W        W83284  14.670  24.152  12.543
23782W        W83285  23.504   0.958   4.289
23783W        W83286  24.978  40.310  11.944
23784W        W83287  28.613  38.842   1.918
23785W        W83288  15.314  28.022   1.298
23786W        W83289  13.211  37.852  11.606
23787W        W83290  34.465  23.177  12.455
23788W        W83291  34.116  41.309  12.520
23789W        W83292  33.527   0.858   4.135
23790W        W83293  23.162  35.524  12.439
23791W        W83294  24.205   8.667  11.898
23792W        W83295  16.232  15.799   0.909
23793W        W83296  18.132  30.059  13.805
23794W        W83297  10.739  33.492   5.288
23795W        W83298  36.901  14.156  13.864
23796W        W83299  42.383  24.225  11.412
23797W        W83300  23.057  10.195  11.584
23798W        W83301   3.782  43.489   0.833
23799W        W83302  23.097  39.441   0.766
23800W        W83303  33.491  13.760   2.200
23801W        W83304  11.712  22.679  14.364
23802W        W83305  11.756  34.868   0.349
23803W        W83306  14.295   6.779   3.184
23804W        W83307  15.691  36.998   4.707
23805W        W83308  43.513  10.354  14.288
23806W        W83309  29.935   2.944   3.645
23807W        W83310  28.964  30.658  12.076
23808W        W83311  18.577  35.509   0.829
23809W        W83312  16.139  13.669   3.284
23810W        W83313  12.846  16.108  14.834
23811W        W83314  30.077  43.397   1.309
23812W        W83315  37.056  40.427   0.450
23813W        W83316  31.016  26.005   9.506
23814W        W83317  13.826  40.422  12.455
23815W        W83318   0.331  24.141   5.771
23816W        W83319  28.089   3.874   4.643
23817W        W83320  13.333  28.005   1.367
23818W        W83321  34.078  20.530  14.920
23819W        W83322  23.159  25.503   0.859
23820W        W83323  27.647  41.319  10.976
23821W        W83324  10.710   8.257   3.809
23822W        W83325  22.061   3.810   0.936
23823W        W83326  38.402  32.520  11.979
23824W        W83327  16.676  37.967   3.840
23825W        W83328  32.400  12.277   2.790
23826W        W83329  14.690  34.986  13.947
23827W        W83330  27.636   3.724   2.257
23828W        W83331   6.878  14.641   2.222
23829W        W83332  29.560  31.542   4.666
23830W        W83333  41.981  26.632   4.746
23831W        W83334  14.330  17.289  12.521
23832W        W83335   5.405  23.521   1.895
23833W        W83336  34.606  26.634   2.691
23834W        W83337   3.429  11.278   1.821
23835W        W83338  29.095   4.217   1.834
23836W        W83339  24.986  24.598  10.461
23837W        W83340  31.948  10.766   3.630
23838W        W83341   3.791  39.055   0.929
23839W        W83342   6.826  43.864   3.788
23840W        W83343  26.688  19.664  14.848
23841W        W83344   2.758   3.853  11.580
23842W        W83345  25.654   8.784  11.538
23843W        W83346   0.891  23.708   5.300
23844W        W83347  21.220  21.028  13.505
23845W        W83348  35.501  22.553  13.498
23846W        W83349  28.533  38.037  14.816
23847W        W83350   1.775  33.382   4.170
23848W        W83351   6.735  16.726  13.845
23849W        W83352   7.412  44.386   0.864
23850W        W83353  12.125  18.153   0.785
23851W        W83354  44.401  17.228  11.997
23852W        W83355  15.195  44.851  12.017
23853W        W83356  37.068   7.197  12.034
23854W        W83357  42.998   4.812  12.412
23855W        W83358   2.920  29.024  10.546
23856W        W83359   9.214   8.694   0.303
23857W        W83360  37.850  43.483   2.853
23858W        W83361  40.949  39.955  12.921
23859W        W83362  18.094  24.700   3.346
23860W        W83363  15.094   5.263  13.796
23861W        W83364  24.669  22.663  11.900
23862W        W83365   0.852  30.583  14.422
23863W        W83366  31.543   1.802   2.184
23864W        W83367  17.751   3.360  13.046
23865W        W83368  27.532  34.025   0.300
23866W        W83369  44.308  37.971  11.536
23867W        W83370  43.948  13.683  12.058
23868W        W83371  20.722   2.445  11.530
23869W        W83372  15.136  27.193   2.778
23870W        W83373  25.578   9.716  13.062
23871W        W83374  15.704  21.142  11.408
23872W        W83375  20.653  17.667   0.324
23873W        W83376  21.579  31.898   2.863
23874W        W83377   4.357  36.479  11.044
23875W        W83378  11.783  27.135   2.842
23876W        W83379  14.654  32.393  12.052
23877W        W83380   0.452  36.868   1.269
23878W        W83381  25.544  17.131   3.811
23879W        W83382  41.535  41.824  11.509
23880W        W83383  12.782   6.345   2.704
23881W        W83384  39.876  10.730   0.414
23882W        W83385  18.594  33.898   4.705
23883W        W83386  38.513  42.337   3.652
23884W        W83387   1.864  37.452   4.212
23885W        W83388  29.072   7.210  12.009
23886W        W83389  10.343  28.013  13.825
23887W        W83390  39.528  27.118   1.388
23888W        W83391  32.557  13.710   3.791
23889W        W83392  38.512  41.043  11.461
23890W        W83393   4.710  35.932  11.546
23891W        W83394  36.463  43.821   3.179
23892W        W83395  42.391   9.744  10.558
23893W        W83396  35.469  36.961  14.890
23894W        W83397  31.103  27.489   4.168
23895W        W83398  40.940  20.737   0.933
23896W        W83399  27.484  17.138   2.687
23897W        W83400  20.258  33.525   2.693
23898W        W83401  39.018  39.383  14.799
23899W        W83402   1.738  18.171   1.247
23900W        W83403  12.209  19.685   2.832
23901W        W83404  15.813   1.475  13.440
23902W        W83405  18.291  34.498   3.780
23903W        W83406  26.167  38.358  13.313
23904W        W83407  23.072  25.590  11.886
23905W        W83408  38.877   9.805   1.886
23906W        W83409  42.797  33.457   2.883
23907W        W83410  41.826  16.141   1.268
23908W        W83411   7.694  36.896   0.255
23909W        W83412  24.515  13.826   4.791
23910W        W83413  42.342  35.377   2.895
23911W        W83414  43.792  28.028   5.114
23912W        W83415   5.816  20.226   4.710
23913W        W83416   8.819   1.760  10.019
23914W        W83417   8.212  10.681   1.322
23915W        W83418   2.787  24.101   4.303
23916W        W83419  36.846  44.914  11.081
23917W        W83420  27.971  42.890  10.954
23918W        W83421  32.531  35.989   0.266
23919W        W83422   3.823   0.266   2.346
23920W        W83423   6.800  18.550   5.109
23921W        W83424   2.958  28.580  14.933
23922W        W83425  35.366  20.641  10.637
23923W        W83426   7.394   1.733   3.257
23924W        W83427   3.761  19.671   1.731
23925W        W83428  15.321  33.930   0.372
23926W        W83429  10.720  17.664  11.467
23927W        W83430  14.811  24.504  14.416
23928W        W83431  32.128  38.948   9.573
23929W        W83432   4.407   7.724  11.116
23930W        W83433   3.744   0.771  12.364
23931W        W83434  22.225  24.499   0.329
23932W        W83435  14.828  25.016  10.001
23933W        W83436  32.522  28.053   5.216
23934W        W83437  25.095   7.196   0.314
23935W        W83438  42.785  36.479   2.202
23936W        W83439  44.807  31.587  14.282
23937W        W83440  26.599   6.721  13.458
23938W        W83441  42.283  40.508  13.487
23939W        W83442  19.052   4.874  14.308
23940W        W83443   2.309  26.988   2.864
23941W        W83444   5.733  32.513   2.404
23942W        W83445   1.270  40.905   0.275
23943W        W83446  33.477  24.513   2.409
23944W        W83447  43.320  14.639   2.290
23945W        W83448  11.815   1.461  12.450
23946W        W83449   8.727  38.916   4.682
23947W        W83450  32.905  21.553  11.914
23948W        W83451   1.771  43.351   1.348
23949W        W83452  29.036  35.588   1.250
23950W        W83453   1.395   2.241  11.447
23951W        W83454  31.548  15.766   4.252
23952W        W83455   1.750  11.371  12.443
23953W        W83456  33.947  20.524  13.328
23954W        W83457  42.479  34.556  11.895
23955W        W83458  25.530  38.064  14.965
23956W        W83459  28.586  23.604  10.436
23957W        W83460  22.679   6.737   3.371
23958W        W83461   5.421  18.087   2.359
23959W        W83462  12.152   3.877   4.310
23960W        W83463   0.252  22.540   0.393
23961W        W83464  30.926  13.833  12.942
23962W        W83465  22.698   3.941  11.510
23963W        W83466  19.040  13.707  12.035
23964W        W83467  16.104  36.382  12.469
23965W        W83468  32.432  33.971  12.485
23966W        W83469  20.145  18.722  11.455
23967W        W83470  42.934  22.137   3.169
23968W        W83471  35.011   0.443  12.537
23969W        W83472  41.507  22.614   3.353
23970W        W83473   6.795  35.583   2.237
23971W        W83474  17.128  18.754   4.276
23972W        W83475  17.734  37.955  14.913
23973W        W83476  20.676  25.482   3.231
23974W        W83477  34.523  23.239  11.485
23975W        W83478   0.399   1.776  13.887
23976W        W83479  29.928   4.721  14.972
23977W        W83480  33.075  24.672   0.887
23978W        W83481  26.143  17.223  13.837
23979W        W83482  25.091  42.490   3.847
23980W        W83483  30.629  21.723  12.078
23981W        W83484  20.642  28.494  12.886
23982W        W83485  16.725  10.226  12.510
23983W        W83486  40.043  28.058   4.130
23984W        W83487  38.951  40.966  14.362
23985W        W83488  29.074  14.757   0.961
23986W        W83489  28.469   4.858   3.356
23987W        W83490   4.743  15.282   5.081
23988W        W83491  42.499  22.605   3.717
23989W        W83492  35.964  34.091  14.392
23990W        W83493  40.517  39.832   1.771
23991W        W83494  16.584  41.532  14.916
23992W        W83495  22.675  35.890  14.344
23993W        W83496   1.906  17.205  13.983
23994W        W83497  18.723  24.577   3.814
23995W        W83498  33.609   4.327   3.793
23996W        W83499  27.069  20.703   2.319
23997W        W83500  37.443  12.329   1.845
23998W        W83501   0.253  36.998  12.415
23999W        W83502  38.834  39.547  12.988
24000W        W83503  33.075   0.865   2.326
24001W        W83504  21.117   0.366  14.933
24002W        W83505  11.853  31.644  10.909
24003W        W83506  32.628   8.840  13.424
24004W        W83507  20.728   8.701   3.848
24005W        W83508  12.739   8.279  12.372
24006W        W83509   5.714  42.445  11.967
24007W        W83510   1.411   4.205   2.361
24008W        W83511  43.780  15.800  10.494
24009W        W83512  13.807  26.106   3.227
24010W        W83513  11.846   7.347   3.760
24011W        W83514   5.264   7.339   0.358
24012W        W83515  27.964  41.526   0.453
24013W        W83516  42.796  16.118   2.399
24014W        W83517  15.773  40.497   1.398
24015W        W83518  26.055   2.760  12.343
24016W        W83519  29.945  39.339   3.355
24017W        W83520  30.041  41.936  10.418
24018W        W83521  28.454  31.149  10.567
24019W        W83522   1.318   7.236  14.284
24020W        W83523  23.212  36.375   2.850
24021W        W83524   7.372  40.847   4.657
24022W        W83525   9.874   1.769   3.827
24023W        W83526   6.900  38.879   1.707
24024W        W83527  14.332   3.741   3.672
24025W        W83528  25.972   7.760  12.377
24026W        W83529  21.026  25.983  11.118
24027W        W83530   2.817  30.165   9.920
24028W        W83531  31.074  27.589   1.403
24029W        W83532  18.216   3.272  11.538
24030W        W83533   3.403  32.978  13.971
24031W        W83534  33.455  35.052   2.323
24032W        W83535   9.752  25.642  10.926
24033W        W83536  34.915   6.866  10.454
24034W        W83537  43.839  30.424   4.161
24035W        W83538   8.205  19.061   0.293
24036W        W83539  30.466   9.653  12.576
24037W        W83540  39.335  38.371   0.940
24038W        W83541  44.452   9.299  13.478
24039W        W83542  33.004  19.762   2.220
24040W        W83543   3.434  33.071   3.230
24041W        W83544  41.808  41.866  10.473
24042W        W83545  36.372  20.163   1.399
24043W        W83546  22.719  11.702   2.703
24044W        W83547  16.266  34.465  13.887
24045W        W83548  25.986  43.462  10.959
24046W        W83549  21.554  22.117   1.886
24047W        W83550  21.126  27.635   0.952
24048W        W83551  38.844  16.101  12.417
24049W        W83552  43.345  40.964   4.790
24050W        W83553  37.393  16.127   3.185
24051W        W83554  19.239  42.516  11.905
24052W        W83555  13.770  29.991  11.473
24053W        W83556  25.184  37.387  11.527
24054W        W83557  25.997   6.739   0.916
24055W        W83558  41.300   5.426   4.282
24056W        W83559  10.866  24.641   0.922
24057W        W83560  30.061   7.339  12.466
24058W        W83561  28.661  28.099   4.691
24059W        W83562  44.411  16.728   0.473
24060W        W83563  20.264   0.387  12.027
24061W        W83564  10.197  27.481   4.147
24062W        W83565  26.119   3.734  14.974
24063W        W83566  28.162  23.693  11.062
24064W        W83567  33.915  17.773  10.925
24065W        W83568  13.672  11.624   4.140
24066W        W83569  15.711  40.807   0.316
24067W        W83570   9.276  18.134   1.868
24068W        W83571  22.039  27.511  11.532
24069W        W83572  44.387   3.252   3.233
24070W        W83573  24.164  29.573  11.859
24071W        W83574  37.859  17.199  14.927
24072W        W83575  10.710  38.423   0.304
24073W        W83576  17.214  10.707   1.246
24074W        W83577  20.107  21.130   1.826
24075W        W83578  42.344   1.885  13.004
24076W        W83579   4.877  24.574  10.498
24077W        W83580  42.477  20.261  12.871
24078W        W83581  44.008   1.394   4.825
24079W        W83582  42.792  23.581  14.771
24080W        W83583  16.637   2.428   1.343
24081W        W83584   7.722  14.108  14.346
24082W        W83585  41.514  33.024   2.712
24083W        W83586  14.600   0.915  12.972
24084W        W83587  34.975   2.924  12.036
24085W        W83588  33.018  38.016   5.113
24086W        W83589   3.246  38.076   0.374
24087W        W83590  30.011  21.731  11.007
24088W        W83591  23.239  34.059  11.916
24089W        W83592  32.410   2.403   3.773
24090W        W83593   9.798  29.149  11.449
24091W        W83594  10.345  12.329  12.040
24092W        W83595  43.463  28.091   1.429
24093W        W83596  14.201  23.134  14.822
24094W        W83597  31.558  41.370  13.321
24095W        W83598  25.531  17.681  14.887
24096W        W83599  28.095  42.335  10.565
24097W        W83600  38.432  21.153  14.959
24098W        W83601  28.978  39.524   2.309
24099W        W83602   3.854  32.470  14.278
24100W        W83603  19.061  42.821   0.736
24101W        W83604   3.859   9.864   2.317
24102W        W83605   9.260   0.292  12.391
24103W        W83606  38.346   6.390   2.207
24104W        W83607   8.220  15.084  12.486
24105W        W83608  44.497  15.312   2.180
24106W        W83609  42.364   4.327   4.240
24107W        W83610  28.451  17.119   2.730
24108W        W83611  41.380  12.695  12.958
24109W        W83612  44.424  39.897   3.718
24110W        W83613  24.986  11.832   0.824
24111W        W83614   4.886  37.425  11.956
24112W        W83615   7.808  27.649   3.344
24113W        W83616  27.464  17.179  11.939
24114W        W83617   4.368  16.161  12.348
24115W        W83618  20.733  13.719   4.266
24116W        W83619  25.704  34.889   0.905
24117W        W83620   4.841   6.867   3.200
24118W        W83621  29.931  36.071  14.329
24119W        W83622  35.431  20.713   3.729
24120W        W83623  42.973  42.858  10.058
24121W        W83624  11.658  18.614   2.212
24122W        W83625   1.280  32.594   0.347
24123W        W83626  13.707   1.438   0.733
24124W        W83627  36.427  28.458  14.770
24125W        W83628  26.632  18.291   2.765
24126W        W83629  37.430   3.955   3.848
24127W        W83630  42.526  25.621  13.336
24128W        W83631  34.520  39.326   2.800
24129W        W83632   1.788  27.165  11.052
24130W        W83633  11.640   0.357   2.695
24131W        W83634  26.488  36.441   4.144
24132W        W83635  17.245   7.411  13.911
24133W        W83636  18.134  12.677  12.939
24134W        W83637  22.626  11.261  14.286
24135W        W83638  19.629  41.928  13.982
24136W        W83639  25.547  16.648  11.479
24137W        W83640   6.415  33.028   4.311
24138W        W83641  23.508  20.589   3.782
24139W        W83642   8.881   1.249  12.953
24140W        W83643  13.843   3.952  10.570
24141W        W83644   9.368  36.573   0.878
24142W        W83645   2.930  23.612   4.119
24143W        W83646   8.672  13.218  11.510
24144W        W83647  10.229  37.404  13.961
24145W        W83648  16.577  42.781  10.424
24146W        W83649  29.966  29.655  12.492
24147W        W83650  30.417  28.456   3.212
24148W        W83651  14.186   1.319   4.811
24149W        W83652  43.292  29.079   4.634
24150W        W83653  10.828  22.599   3.181
24151W        W83654  31.600  29.055   1.416
24152W        W83655  21.253   2.354  10.581
24153W        W83656  30.488  35.911  14.475
24154W        W83657  17.561  23.196  11.600
24155W        W83658  23.075  36.562   1.215
24156W        W83659  19.083  19.272  11.399
24157W        W83660  18.756  29.009   2.270
24158W        W83661  12.213  15.816  13.913
24159W        W83662  24.223  21.246  10.641
24160W        W83663   8.381  22.088   2.338
24161W        W83664  40.873  35.998   0.370
24162W        W83665  29.468  39.961  10.093
24163W        W83666  10.305   0.419  13.484
24164W        W83667  24.484   0.421   1.338
24165W        W83668  28.062  31.113   1.868
24166W        W83669  42.877  10.303  14.943
24167W        W83670  42.337  31.981   5.225
24168W        W83671  23.724   0.305  11.413
24169W        W83672  15.188  11.183   2.317
24170W        W83673  25.107  16.763   3.650
24171W        W83674  34.956  38.874  13.451
24172W        W83675   5.377  21.689  12.361
24173W        W83676  25.661  35.995  10.604
24174W        W83677  20.099   7.234  14.400
24175W        W83678   0.982  19.764  11.896
24176W        W83679   7.726  21.172  13.450
24177W        W83680  15.212  14.121  10.426
24178W        W83681  15.322  41.024   3.793
24179W        W83682  37.497  18.768  12.848
24180W        W83683  10.645  36.454   0.767
24181W        W83684   3.235  32.028   0.743
24182W        W83685  17.624  29.444  14.022
24183W        W83686  17.067  17.575  13.430
24184W        W83687  26.510  15.153  11.932
24185W        W83688  40.866  24.058   0.726
24186W        W83689  43.297  15.127  10.976
24187W        W83690   1.872   3.725  12.481
24188W        W83691  17.695  19.610  13.994
24189W        W83692  42.419  44.388   2.720
24190W        W83693  28.560  24.539   5.205
24191W        W83694  17.266  43.334  14.376
24192W        W83695  42.805   2.894   2.303
24193W        W83696   4.259   5.882   1.867
24194W        W83697  34.994  30.486   4.245
24195W        W83698   5.349   6.265   3.172
24196W        W83699  35.937  29.598  10.458
24197W        W83700  23.183  32.413  12.482
24198W        W83701  40.427  29.524   2.807
24199W        W83702  34.949  15.702  14.446
24200W        W83703  37.575  23.073   4.312
24201W        W83704  28.120  40.345  12.342
24202W        W83705   6.252  36.888  11.395
24203W        W83706   6.406  34.606  12.844
24204W        W83707  30.567  18.138   1.317
24205W        W83708  23.993   3.947  14.298
24206W        W83709   5.390  13.623  14.769
24207W        W83710   4.700  34.069   0.929
24208W        W83711   0.910   8.710  13.888
24209W        W83712  42.920  35.053  11.480
24210W        W83713  11.239  35.024   2.273
24211W        W83714  43.433  21.737  14.916
24212W        W83715   7.844   4.306  13.829
24213W        W83716  30.496  25.097   3.187
24214W        W83717   0.940  24.220  13.481
24215W        W83718   3.309   3.782   2.268
24216W        W83719   1.796  30.643   4.248
24217W        W83720  23.128  43.419   2.875
24218W        W83721  17.246  21.556   4.350
24219W        W83722  34.971   0.398   4.354
24220W        W83723  13.350  10.313  11.890
24221W        W83724  13.206  26.083  11.516
24222W        W83725  10.269  19.662   3.244
24223W        W83726  43.994  16.308   0.370
24224W        W83727   8.242  31.535   1.350
24225W        W83728  35.055  22.147  10.980
24226W        W83729  14.655  11.732  10.569
24227W        W83730  14.773  42.491  11.398
24228W        W83731  25.963   0.890   2.842
24229W        W83732  15.145  32.092   2.390
24230W        W83733  36.482  16.139  12.928
24231W        W83734  25.067   9.722  13.388
24232W        W83735  39.879   9.757   4.116
24233W        W83736  33.489  33.626  11.396
24234W        W83737  44.498  15.151  11.045
24235W        W83738  44.808  37.478  13.505
24236W        W83739  39.367  31.598  10.586
24237W        W83740  31.012  20.085   1.398
24238W        W83741   1.761   9.808   1.696
24239W        W83742  33.975  19.739   0.327
24240W        W83743  12.272  24.108  10.457
24241W        W83744  30.601  15.286   3.728
24242W        W83745  13.804   1.852  14.469
24243W        W83746  13.316   4.926  11.610
24244W        W83747  34.604  43.981   0.265
24245W        W83748  31.130  20.213  12.055
24246W        W83749   3.428  13.307   3.756
24247W        W83750  34.101  44.307   1.362
24248W        W83751  34.571  11.198  10.460
24249W        W83752  37.043  43.781   1.793
24250W        W83753  13.710   7.842  12.454
24251W        W83754  35.531   3.882  11.405
24252W        W83755  44.940   7.310  11.508
24253W        W83756  29.615  25.210  12.457
24254W        W83757  23.604  25.007   1.246
24255W        W83758  21.253  18.286   3.279
24256W        W83759  15.119  42.960  12.049
24257W        W83760  41.294  21.686  12.528
24258W        W83761  34.495  25.468   0.319
24259W        W83762  22.136  33.444   1.334
24260W        W83763  29.429   9.391   0.961
24261W        W83764  22.089  32.454   0.734
24262W        W83765   4.407  22.729   2.313
24263W        W83766  35.530   8.244  10.636
24264W        W83767  42.356  14.319  10.965
24265W        W83768  17.286  28.621   0.441
24266W        W83769  12.148   5.418   3.302
24267W        W83770  31.138  12.254  10.041
24268W        W83771  39.378  44.350  12.547
24269W        W83772  26.173   8.829  11.060
24270W        W83773  24.545  44.785   4.167
24271W        W83774  27.016   0.254   0.898
24272W        W83775  30.508   0.388   4.239
24273W        W83776   0.284   0.263  11.464
24274W        W83777   0.968  41.481  11.533
24275W        W83778  36.088   5.876   5.254
24276W        W83779  33.056  21.203  14.455
24277W        W83780  20.691  30.958   1.368
24278W        W83781  18.646  43.495   2.811
24279W        W83782  39.467   4.734   3.650
24280W        W83783  36.024  33.508   0.415
24281W        W83784  32.622  42.507  13.346
24282W        W83785  31.406   7.836   1.860
24283W        W83786  30.152  18.600   4.732
24284W        W83787   9.247  32.022  10.497
24285W        W83788  35.022  38.820  11.905
24286W        W83789  41.427  15.156   4.340
24287W        W83790  25.492  44.858  12.901
24288W        W83791  30.969   2.777   4.625
24289W        W83792  35.048  17.704   4.647
24290W        W83793  35.923   8.314  10.573
24291W        W83794  10.262   8.812  12.069
24292W        W83795  41.935  23.215   0.389
24293W        W83796   0.294  24.135   2.195
24294W        W83797  14.114  27.529  13.531
24295W        W83798  31.001   0.921  13.798
24296W        W83799  10.180  12.204  12.371
24297W        W83800  19.637   4.392  12.426
24298W        W83801   5.783  44.477  11.475
24299W        W83802  14.819  39.457   0.312
24300W        W83803  19.088  13.230   0.807
24301W        W83804   6.356   6.263   2.840
24302W        W83805  41.432  12.129   2.730
24303W        W83806  24.187  13.150   3.738
24304W        W83807  25.215  33.471   3.343
24305W        W83808   4.814  44.881   1.714
24306W        W83809  10.215   3.804   1.446
24307W        W83810   3.424   8.862   0.362
24308W        W83811   6.902  16.765  13.008
24309W        W83812   5.703  39.499   1.241
24310W        W83813   8.258  42.809   4.810
24311W        W83814  12.157  13.135  13.966
24312W        W83815   4.401  40.409   0.468
24313W        W83816  36.392  43.006   0.807
24314W        W83817  17.700  22.150   0.953
24315W        W83818  36.532  17.753  13.510
24316W        W83819  41.352   9.236   1.328
24317W        W83820  18.058   3.284   2.211
24318W        W83821   6.389  24.513  11.986
24319W        W83822  40.872  35.975   1.365
24320W        W83823   1.418   7.901   4.270
24321W        W83824  28.622  26.576   1.847
24322W        W83825  41.398   8.286   2.316
24323W        W83826   2.356  34.009   2.717
24324W        W83827  20.531  10.355   0.286
24325W        W83828  27.650  24.574  12.906
24326W        W83829  27.943  20.638  13.928
24327W        W83830  21.612  44.450   0.747
24328W        W83831  30.469  40.920   0.390
24329W        W83832  25.040  20.592   1.859
24330W        W83833  23.641  35.933  14.426
24331W        W83834  15.746  27.126   2.754
24332W        W83835   8.214  30.159  13.912
24333W        W83836  26.960  27.472  14.479
24334W        W83837  29.174  20.249   2.898
24335W        W83838  14.768  11.859  10.040
24336W        W83839  31.491   9.721   3.306
24337W        W83840  11.707  18.050  10.573
24338W        W83841  39.546  38.989  12.934
24339W        W83842  24.021  17.070   5.243
24340W        W83843  16.761  27.446  14.400
24341W        W83844  20.118   9.307   3.156
24342W        W83845  44.404  30.432   2.191
24343W        W83846  30.138  14.819   0.768
24344W        W83847  23.515  11.739  12.489
24345W        W83848  22.107  29.666   0.438
24346W        W83849  11.825  37.352  10.500
24347W        W83850  35.436  42.393   1.309
24348W        W83851  19.134  25.553  10.491
24349W        W83852  16.140  32.586   3.255
24350W        W83853  12.216  34.005   0.903
24351W        W83854   9.235  14.810  14.421
24352W        W83855  28.444   2.411   0.272
24353W        W83856   9.149  13.275   2.863
24354W        W83857  11.212  43.364  10.934
24355W        W83858  27.159  17.111   3.769
24356W        W83859  29.495  31.025   2.847
24357W        W83860  28.036   3.443  10.543
24358W        W83861  39.547  11.198   1.434
24359W        W83862  14.822   8.685  11.423
24360W        W83863  43.802  24.988  14.304
24361W        W83864  29.598  33.614   0.482
24362W        W83865  21.514  33.618   0.934
24363W        W83866  41.339  31.561   0.420
24364W        W83867  20.754  35.480  12.891
24365W        W83868  39.838  34.527   1.802
24366W        W83869  37.423  34.455   0.844
24367W        W83870   5.336  36.071  13.501
24368W        W83871  23.088  16.251   3.297
24369W        W83872  12.277  16.777   9.989
24370W        W83873  33.477  31.549  12.913
24371W        W83874  16.712   7.724   1.358
24372W        W83875  33.572  37.547   2.897
24373W        W83876  12.672  32.563   3.341
24374W        W83877   4.733   6.733  10.897
24375W        W83878  40.541  35.994   9.943
24376W        W83879  44.926  41.993  13.862
24377W        W83880  43.769  33.993  11.117
24378W        W83881   1.949  10.174   2.683
24379W        W83882  39.419  27.614   4.276
24380W        W83883   8.199  37.042   3.353
24381W        W83884  21.533  30.032  11.598
24382W        W83885  38.501  34.928  11.525
24383W        W83886  41.297  42.870   3.686
24384W        W83887   3.726  11.781   3.839
24385W        W83888  32.958  33.459  11.911
24386W        W83889   0.487  16.233   4.712
24387W        W83890  39.519  20.093   0.760
24388W        W83891  25.557  15.640  13.332
24389W        W83892  40.446  13.124   0.926
24390W        W83893  27.097  42.844  12.431
24391W        W83894  23.727  18.269  11.087
24392W        W83895  17.233  41.935   2.786
24393W        W83896   2.836   0.861  11.078
24394W        W83897  43.988   8.791  12.425
24395W        W83898   8.248  21.720  14.463
24396W        W83899  13.753  29.565   2.709
24397W        W83900   8.370  14.821   3.672
24398W        W83901  10.379  44.963   0.757
24399W        W83902  12.292   8.241  10.479
24400W        W83903  41.983  20.592   3.692
24401W        W83904  42.924  44.370  12.869
24402W        W83905  19.738  26.042   1.861
24403W        W83906  15.121  40.391   0.784
24404W        W83907   4.795  32.607  14.989
24405W        W83908  40.320  20.704   0.804
24406W        W83909  28.464  29.456   3.785
24407W        W83910  40.356  40.931   4.273
24408W        W83911  16.168  25.500  11.470
24409W        W83912  35.945  24.582  10.505
24410W        W83913  15.231   4.730   2.874
24411W        W83914  38.408   3.850  13.947
24412W        W83915  35.552  25.146  14.495
24413W        W83916   4.304   5.297   4.776
24414W        W83917  27.488  24.554   1.765
24415W        W83918  32.997  31.597   0.836
24416W        W83919  32.934  43.978  13.544
24417W        W83920  11.747  13.158   1.310
24418W        W83921  29.053  33.613   2.366
24419W        W83922  26.657   6.813  14.434
24420W        W83923  42.459  18.759   9.983
24421W        W83924   3.419  40.970   0.293
24422W        W83925  26.079  42.893   0.952
24423W        W83926  21.245  17.112  12.363
24424W        W83927  41.909  15.218  13.391
24425W        W83928  34.919  24.116  10.619
24426W        W83929  42.840  42.452  11.891
24427W        W83930  30.435  26.691   2.213
24428W        W83931  44.350  32.922  12.885
24429W        W83932   2.359   1.433  14.403
24430W        W83933  22.047  36.898   0.732
24431W        W83934   8.372  32.623   0.797
24432W        W83935  26.593  27.626  13.924
24433W        W83936  23.993  12.361  12.361
24434W        W83937   2.759  42.850  10.961
24435W        W83938  30.520   2.925   1.359
24436W        W83939  28.078  33.926  14.303
24437W        W83940  36.460  38.017   2.803
24438W        W83941  18.234   9.795   0.759
24439W        W83942   4.882   8.251  10.489
24440W        W83943  41.835  10.226   2.226
24441W        W83944  24.585  12.626  11.478
24442W        W83945  13.787  32.920   1.213
24443W        W83946  35.515  43.765   4.350
24444W        W83947  19.718   4.713  12.406
24445W        W83948  13.337  25.688  12.349
24446W        W83949   5.283  33.958   1.903
24447W        W83950  16.167  38.549  12.983
24448W        W83951  40.859  14.106  13.420
24449W        W83952  12.329  14.175  14.508
24450W        W83953  20.591  25.674  12.075
24451W        W83954  25.071  34.432  11.879
24452W        W83955  44.325  39.341  14.875
24453W        W83956  40.840   0.918   2.235
24454W        W83957  38.504  23.673  13.859
24455W        W83958  27.079  36.928  12.049
24456W        W83959   1.804  25.589   1.217
24457W        W83960  34.969  16.290   3.335
24458W        W83961  40.960   3.403   0.833
24459W        W83962  40.929  26.022  11.064
24460W        W83963  23.193  26.615   4.147
24461W        W83964   5.825  21.056  13.531
24462W        W83965   9.796  28.008  11.032
24463W        W83966  38.829   9.194   0.928
24464W        W83967   5.881   7.858  12.362
24465W        W83968  35.106  41.459   9.985
24466W        W83969   5.324  16.768   9.963
24467W        W83970  11.842   1.921   4.191
24468W        W83971  38.942  37.455  13.803
24469W        W83972  18.663  42.524  11.077
24470W        W83973  44.921  11.723   0.830
24471W        W83974  33.454   2.768  14.769
24472W        W83975  33.396   2.397   2.795
24473W        W83976  24.073   8.658   2.791
24474W        W83977  19.176  23.997   3.653
24475W        W83978  19.733   5.909   0.790
24476W        W83979  35.529   1.448   0.357
24477W        W83980  28.952  10.329   0.775
24478W        W83981  35.037  32.106  12.070
24479W        W83982   0.389  17.302   2.392
24480W        W83983  39.365  40.854   1.797
24481W        W83984  19.754  29.525   4.121
24482W        W83985  39.066  33.593  12.000
24483W        W83986  12.155  40.901  10.899
24484W        W83987   9.751  23.191  11.485
24485W        W83988  38.999  22.728  11.436
24486W        W83989  30.601  13.340  13.052
24487W        W83990  35.902  38.403  13.885
24488W        W83991  36.962  36.429  12.081
24489W        W83992   0.424  35.976   1.253
24490W        W83993  10.688  19.547  11.075
24491W        W83994   0.980  31.054   4.301
24492W        W83995  10.818   9.390   0.300
24493W        W83996  41.817  35.943  13.308
24494W        W83997  32.466  12.343   1.810
24495W        W83998  36.967   1.937   3.783
24496W        W83999  26.184  39.432   3.709
24497W        W84000  37.977  32.453  14.419
24498W        W84001  29.430  12.714  13.892
24499W        W84002  41.955  23.092  14.288
24500W        W84003  14.742  16.591  14.432
24501W        W84004  26.617  13.305   0.342
24502W        W84005  21.725   4.766   0.747
24503W        W84006   9.214  12.206  13.327
24504W        W84007  41.499  44.387  14.478
24505W        W84008  25.024   3.787  14.478
24506W        W84009  17.571   2.264  13.454
24507W        W84010  25.126  21.573   2.716
24508W        W84011  10.232  10.872  14.878
24509W        W84012   5.865  12.324   4.654
24510W        W84013  25.149  39.005  14.285
24511W        W84014   3.318  43.016  12.959
24512W        W84015  21.030   5.232  12.432
24513W        W84016  11.829  16.284   3.348
24514W        W84017  42.853  15.750  13.809
24515W        W84018  12.139  13.260   4.335
24516W        W84019  18.100  39.925  13.471
24517W        W84020  37.420  40.910   3.820
24518W        W84021  16.721   3.397   0.903
24519W        W84022   2.854  38.404   0.381
24520W        W84023  43.971   3.822  10.624
24521W        W84024  44.990  21.080   3.707
24522W        W84025  11.820  34.866  13.442
24523W        W84026  44.971   8.394   0.954
24524W        W84027  30.959  43.362   3.637
24525W        W84028  41.414  40.942  13.410
24526W        W84029   2.824  28.675  13.922
24527W        W84030  44.374  26.080  11.528
24528W        W84031   5.790   7.896   3.839
24529W        W84032  12.804   9.347  10.623
24530W        W84033  41.336  22.210  12.901
24531W        W84034  22.017   4.725   1.854
24532W        W84035   9.358  41.414  11.586
24533W        W84036  25.680   2.779   1.218
24534W        W84037  17.260   1.462   4.798
24535W        W84038   4.258  26.600  11.899
24536W        W84039   3.790  25.643  11.510
24537W        W84040  39.418  23.567   4.670
24538W        W84041  18.219   5.855  13.493
24539W        W84042  15.628  29.119   4.721
24540W        W84043   8.401   4.276  12.462
24541W        W84044   8.195  10.745   3.381
24542W        W84045  13.153  25.042   0.826
24543W        W84046  20.533  42.031  13.834
24544W        W84047  42.793  10.259  12.493
24545W        W84048  34.383  42.486   2.811
24546W        W84049  37.059  38.065  10.575
24547W        W84050   7.759  36.871   0.879
24548W        W84051   4.424  20.215  11.056
24549W        W84052  34.559   2.958   3.225
24550W        W84053  37.469   0.489   3.713
24551W        W84054   9.720  25.515  14.811
24552W        W84055  20.662  21.545   0.919
24553W        W84056  17.281  32.408   2.238
24554W        W84057  27.020  33.619   4.706
24555W        W84058  38.539   3.842  14.285
24556W        W84059  38.876   9.160   1.443
24557W        W84060   5.216  37.572  10.156
24558W        W84061  37.456  32.481   3.792
24559W        W84062   4.330  27.500   5.576
24560W        W84063   8.359  43.919  13.867
24561W        W84064   0.369  19.157   3.193
24562W        W84065   4.282   1.829   4.269
24563W        W84066  23.542  38.419  14.811
24564W        W84067  19.587  22.226  10.932
24565W        W84068  12.779  32.985  10.955
24566W        W84069  36.070  44.914  14.835
24567W        W84070   1.796  35.378   4.159
24568W        W84071   8.295   1.898   2.861
24569W        W84072   7.807  35.894   0.912
24570W        W84073  13.677   2.736   4.222
24571W        W84074  28.677  40.869  12.486
24572W        W84075  35.885  40.432  11.452
24573W        W84076   6.893  28.576  11.870
24574W        W84077   3.912   0.940   1.718
24575W        W84078  13.727  34.609   3.226
24576W        W84079  27.014  29.164   3.344
24577W        W84080  12.310  10.795   2.203
24578W        W84081  18.186  18.684  11.415
24579W        W84082  19.200  19.082   4.264
24580W        W84083  10.292   0.751   2.198
24581W        W84084   9.212  35.976  13.404
24582W        W84085   9.284   4.392  13.909
24583W        W84086  17.203  14.679   4.262
24584W        W84087  44.797  37.064   0.258
24585W        W84088  39.039   8.763  14.814
24586W        W84089  29.028  11.849   1.762
24587W        W84090  43.998   3.310   2.344
24588W        W84091  39.422  13.804  12.868
24589W        W84092  30.481  41.416  12.385
24590W        W84093   2.379   0.826  13.471
24591W        W84094  11.650  42.780   0.408
24592W        W84095   0.982   1.480   3.794
24593W        W84096  16.763  30.603  13.366
24594W        W84097  28.065   7.265   4.152
24595W        W84098  37.085   8.350  12.893
24596W        W84099  34.379  17.704   0.914
24597W        W84100  32.598  20.257   2.310
24598W        W84101   6.376  33.505  11.567
24599W        W84102  39.001  13.194   4.303
24600W        W84103  33.065   4.407   2.756
24601W        W84104   5.435  32.457  13.952
24602W        W84105  16.147  42.793   4.318
24603W        W84106  41.356  22.176   3.176
24604W        W84107   3.377  32.407  12.562
24605W        W84108  20.659  36.944  13.793
24606W        W84109   9.804  15.763  12.916
24607W        W84110   7.890  41.933   4.222
24608W        W84111  21.146  21.550  13.309
24609W        W84112   7.718  30.579   5.105
24610W        W84113   7.703  39.033   5.208
24611W        W84114   4.257  22.708   4.290
24612W        W84115  28.562  39.538  10.411
24613W        W84116  12.762  19.565   2.405
24614W        W84117   8.384   3.711   0.295
24615W        W84118  19.240  41.874  11.974
24616W        W84119   0.402  35.020   1.822
24617W        W84120  19.051  27.594   0.832
24618W        W84121  32.448  17.092  12.561
24619W        W84122  28.055  31.617  11.460
24620W        W84123  11.313  38.467  12.872
24621W        W84124  13.191  19.116  12.900
24622W        W84125  10.660  28.159   0.438
24623W        W84126  37.848  35.881   2.705
24624W        W84127  29.128  31.444  14.334
24625W        W84128   9.765  30.986  14.824
24626W        W84129  23.161  15.167   1.909
24627W        W84130  33.384  13.605   1.736
24628W        W84131  22.501  17.153   4.819
24629W        W84132  23.718  31.570   2.882
24630W        W84133   6.352   3.260  10.408
24631W        W84134   3.838  22.151  14.861
24632W        W84135  34.503   5.304  10.977
24633W        W84136  17.143  33.584   1.926
24634W        W84137  15.819  13.158   0.908
24635W        W84138  23.517  15.126   3.233
24636W        W84139   5.805  44.779   0.896
24637W        W84140  40.346  13.193   2.296
24638W        W84141   7.278  34.528  10.534
24639W        W84142  37.038  28.644  12.518
24640W        W84143  41.366  27.666   3.206
24641W        W84144   2.956  38.430  13.792
24642W        W84145  27.666  42.519  13.950
24643W        W84146   7.673  28.659  10.957
24644W        W84147  14.765   6.342   4.814
24645W        W84148  44.806   7.697  13.832
24646W        W84149   2.363  36.987  12.869
24647W        W84150   5.432   6.813   3.243
24648W        W84151  44.366   7.348  10.472
24649W        W84152  34.492  10.312   2.747
24650W        W84153  36.900  15.301  10.535
24651W        W84154   8.238   4.886   0.393
24652W        W84155  30.922  38.845   4.759
24653W        W84156   8.758  37.477  14.283
24654W        W84157  27.117  11.162  10.457
24655W        W84158  29.552   2.424   4.151
24656W        W84159  16.768   0.923  13.015
24657W        W84160  23.988  31.979   0.877
24658W        W84161  29.670  37.835   0.926
24659W        W84162   2.453   5.360  11.556
24660W        W84163   3.758  23.159  13.002
24661W        W84164  28.639  25.499  11.488
24662W        W84165   7.799  35.425  12.476
24663W        W84166  15.752  37.387   0.933
24664W        W84167  36.405  33.953  11.960
24665W        W84168  35.899  11.303  14.951
24666W        W84169  41.431  22.647   2.192
24667W        W84170  33.036  35.918  10.518
24668W        W84171  32.572  18.744   2.822
24669W        W84172  32.514  21.208   1.394
24670W        W84173  34.543  13.162   2.238
24671W        W84174  20.686  37.396  12.475
24672W        W84175  34.014  13.804  11.444
24673W        W84176  43.775  15.178   1.298
24674W        W84177  18.725  23.594  13.425
24675W        W84178  14.169  36.578  13.511
24676W        W84179  35.096  41.799   1.842
24677W        W84180  38.525  10.275  11.555
24678W        W84181  32.011  10.802  10.995
24679W        W84182  38.021  34.073   2.669
24680W        W84183  31.041  23.022   0.386
24681W        W84184   4.216  20.712   3.809
24682W        W84185   7.759  13.734  14.415
24683W        W84186   3.323  28.061  14.299
24684W        W84187  15.231  18.236   3.255
24685W        W84188  43.369  35.051   4.669
24686W        W84189  33.608  37.009  12.891
24687W        W84190  14.672   5.765  13.869
24688W        W84191  35.867   2.937  13.493
24689W        W84192   5.395  35.557  10.915
24690W        W84193  26.089  30.120  13.385
24691W        W84194  11.705  39.946  12.507
24692W        W84195  25.469   3.812   0.404
24693W        W84196  17.130   5.749   4.808
24694W        W84197  44.447   2.471   0.284
24695W        W84198  43.412  29.596   0.466
24696W        W84199  37.930  36.568   3.815
24697W        W84200   7.710   2.751  11.910
24698W        W84201  26.468  18.217  13.045
24699W        W84202  40.947  42.369  11.473
24700W        W84203   4.912   7.318   4.695
24701W        W84204  13.169  24.121  12.539
24702W        W84205  11.697  30.075  11.565
24703W        W84206  14.340  13.318  11.430
24704W        W84207  43.804  12.306   4.194
24705W        W84208  21.596  42.946   1.898
24706W        W84209  44.761  12.327  11.522
24707W        W84210  28.983  33.580  10.945
24708W        W84211   6.820  37.525  13.977
24709W        W84212  32.013  18.749   1.715
24710W        W84213  19.219  19.590  12.874
24711W        W84214  36.508  24.194  12.963
24712W        W84215  44.279  20.552   5.196
24713W        W84216  18.753  27.556  13.985
24714W        W84217  33.452   3.944  13.514
24715W        W84218  33.537  38.548  12.455
24716W        W84219  12.614   8.857   0.335
24717W        W84220   2.254  34.121   0.877
24718W        W84221  44.418  44.343  12.014
24719W        W84222  26.985   4.700  11.951
24720W        W84223  37.357  13.831  13.930
24721W        W84224  26.031  17.305   0.413
24722W        W84225  42.526   2.250   2.834
24723W        W84226  34.388  12.814  10.477
24724W        W84227  25.043   6.903   2.795
24725W        W84228  16.269  30.042  13.511
24726W        W84229  27.125   1.238  11.455
24727W        W84230   6.836  34.447  11.939
24728W        W84231  42.454  40.346   1.854
24729W        W84232  22.182  32.510  10.570
24730W        W84233   8.273   7.198   1.870
24731W        W84234  17.265  36.564  11.043
24732W        W84235  17.126  41.335  13.844
24733W        W84236  38.982   4.430  14.497
24734W        W84237  39.906  15.797   1.211
24735W        W84238  19.544  39.437   3.643
24736W        W84239  43.949  32.445   3.689
24737W        W84240  10.361  42.944  11.996
24738W        W84241   6.774  44.827  11.980
24739W        W84242  16.653  11.166  12.482
24740W        W84243   1.832  26.054   2.222
24741W        W84244  20.154  14.143  13.530
24742W        W84245  26.042  20.546   3.687
24743W        W84246  21.581  41.385  12.466
24744W        W84247   7.318  26.530   0.390
24745W        W84248   4.348  37.411   2.878
24746W        W84249  44.954  43.440   0.958
24747W        W84250  31.970  10.745   4.181
24748W        W84251  36.032  13.617  12.864
24749W        W84252   4.385   3.251  13.034
24750W        W84253   5.268  44.485   3.666
24751W        W84254  16.246  29.536  13.820
24752W        W84255   4.404  26.113  13.930
24753W        W84256  17.083   3.758  13.816
24754W        W84257  22.583  18.256  12.445
24755W        W84258  10.218  44.005  11.566
24756W        W84259  14.705  34.500   1.427
24757W        W84260  13.152   0.336  13.319
24758W        W84261  21.669  28.576   2.776
24759W        W84262  11.371  13.280  11.929
24760W        W84263  40.870  27.168  11.411
24761W        W84264   9.699  41.318  10.928
24762W        W84265  11.355   5.381  13.322
24763W        W84266  31.028  21.179   3.710
24764W        W84267  34.491  43.448  13.480
24765W        W84268  35.063  24.100   1.848
24766W        W84269  10.849  25.213  13.490
24767W        W84270   7.203  36.042  10.630
24768W        W84271  38.398  10.175  13.791
24769W        W84272  37.445  29.102  10.526
24770W        W84273  15.268  40.971   4.755
24771W        W84274  14.637  17.080   2.351
24772W        W84275  15.810  22.043   2.832
24773W        W84276  11.779  31.492   5.277
24774W        W84277  22.238  38.532   2.802
24775W        W84278  33.574  40.337   3.811
24776W        W84279  34.888  41.843  10.591
24777W        W84280  20.243  17.163   4.751
24778W        W84281  31.489  35.891   1.416
24779W        W84282  29.478  13.673   1.239
24780W        W84283  17.599  23.152   0.846
24781W        W84284  17.079  14.694  11.400
24782W        W84285  22.561  20.051  11.577
24783W        W84286  43.842  23.108   3.189
24784W        W84287  38.864  43.969   4.608
24785W        W84288   1.827  36.075  11.400
24786W        W84289   7.298  39.868   2.237
24787W        W84290   1.395  43.843   1.933
24788W        W84291  35.575  13.813   0.367
24789W        W84292  20.598  34.962  10.521
24790W        W84293  32.121  41.813  12.522
24791W        W84294  10.182  20.047   0.455
24792W        W84295   7.262  37.531   1.694
24793W        W84296  43.911  37.966   4.331
24794W        W84297  10.281  28.563   0.894
24795W        W84298  41.375  30.464   2.239
24796W        W84299  25.623  36.910  13.868
24797W        W84300  19.215  18.277   3.670
24798W        W84301  36.378  20.612  12.940
24799W        W84302  17.659  18.160  12.036
24800W        W84303  37.962  22.627   2.192
24801W        W84304  33.585   7.241  10.936
24802W        W84305   2.944  21.515  13.441
24803W        W84306  19.073  10.792  13.344
24804W        W84307  20.691  24.592  10.565
24805W        W84308  23.681  38.914   2.760
24806W        W84309  43.852  13.739  10.507
24807W        W84310  24.218  20.701  12.089
24808W        W84311  28.606  19.714   3.829
24809W        W84312  35.930  34.941  12.825
24810W        W84313  10.213  10.723  11.456
24811W        W84314  26.117  25.117   3.733
24812W        W84315  26.489   7.755   0.444
24813W        W84316   0.904  25.015   9.490
24814W        W84317  29.985   7.697   2.663
24815W        W84318  12.667  44.486  13.481
24816W        W84319  41.861  23.095   2.820
24817W        W84320  10.750   0.451   4.708
24818W        W84321  39.367  43.001  14.314
24819W        W84322  21.030  30.919   4.649
24820W        W84323   1.803   3.240  12.991
24821W        W84324  43.481  41.912   2.767
24822W        W84325  41.843  15.583   4.127
24823W        W84326  31.617   9.838  10.530
24824W        W84327  12.236  20.158  13.421
24825W        W84328  20.170   2.742  14.288
24826W        W84329  14.266  33.385  13.845
24827W        W84330   2.845   5.374  13.869
24828W        W84331   3.308  25.142   2.319
24829W        W84332  36.469  41.384  13.854
24830W        W84333  42.939   1.940   3.649
24831W        W84334  42.785  15.808   3.737
24832W        W84335  41.975  30.439   4.251
24833W        W84336  22.023   6.697   3.755
24834W        W84337  29.151   9.727   3.807
24835W        W84338  17.116  40.437   0.303
24836W        W84339  42.949  15.167   3.778
24837W        W84340   1.795  11.716   4.782
24838W        W84341  18.270  36.395   1.764
24839W        W84342   0.384  28.451  12.387
24840W        W84343  34.584   0.364   2.697
24841W        W84344  44.485  19.126  13.831
24842W        W84345   9.353  16.607   0.357
24843W        W84346  14.681   9.174  10.609
24844W        W84347  26.539  38.958   2.388
24845W        W84348  40.014  34.919  14.827
24846W        W84349  22.216   1.785  13.982
24847W        W84350   8.735  38.012   3.687
24848W        W84351   9.271  36.389   3.860
24849W        W84352  29.427  30.050   1.748
24850W        W84353  20.115   1.896  12.880
24851W        W84354  30.515  29.946   3.709
24852W        W84355  23.162  32.901  13.876
24853W        W84356  39.330  41.003   0.755
24854W        W84357   8.785  15.245   3.195
24855W        W84358  24.669  33.442  10.521
24856W        W84359  11.193  16.172   4.643
24857W        W84360  31.968   3.388  13.873
24858W        W84361   3.300  41.309   2.414
24859W        W84362   3.733  23.114  12.058
24860W        W84363  34.425  14.772  12.011
24861W        W84364   7.339  43.844  12.467
24862W        W84365  18.663  18.617   1.862
24863W        W84366  27.574  40.961   4.293
24864W        W84367   4.823   6.857   1.378
24865W        W84368   7.751   5.903  11.043
24866W        W84369  30.157  44.864  13.464
24867W        W84370   1.773  28.635  14.387
24868W        W84371  23.073  24.219   1.730
24869W        W84372  28.523  43.393  12.354
24870W        W84373  16.201  26.663  11.575
24871W        W84374   9.284  13.693  14.764
24872W        W84375  24.621  26.062  12.972
24873W        W84376  42.384  10.238  11.900
24874W        W84377  25.120  21.231   5.270
24875W        W84378  37.001  40.530   1.211
24876W        W84379   5.692  34.499  13.375
24877W        W84380  16.749  10.711  11.419
24878W        W84381  31.103  13.246  14.344
24879W        W84382   5.433  25.713   4.248
24880W        W84383  23.590  34.445  11.029
24881W        W84384  18.785  42.914  14.835
24882W        W84385   3.923   8.758   3.207
24883W        W84386  32.917  14.799  12.900
24884W        W84387   7.828  10.291   2.730
24885W        W84388  14.119  13.284  10.610
24886W        W84389  28.111  11.714   4.753
24887W        W84390  11.759  39.403   0.428
24888W        W84391  37.348   5.347  14.455
24889W        W84392   7.371   0.343   1.856
24890W        W84393  26.037  22.543  13.842
24891W        W84394   9.841  39.492  10.904
24892W        W84395   6.368   2.910  11.599
24893W        W84396  28.453  19.062  12.428
24894W        W84397   6.746  42.952  12.035
24895W        W84398  40.516  15.818  12.938
24896W        W84399  19.053   2.959   4.133
24897W        W84400  44.967  15.755  14.363
24898W        W84401   5.825  38.472  13.048
24899W        W84402  40.958  17.677  14.330
24900W        W84403  42.848  37.436   3.711
24901W        W84404  28.479  34.458   2.370
24902W        W84405  20.112   9.652   4.171
24903W        W84406  29.445   0.388   4.178
24904W        W84407  18.287  25.673   3.185
24905W        W84408  25.161  18.553   1.929
24906W        W84409  14.245  27.015  11.006
24907W        W84410  36.057  26.543  10.105
24908W        W84411  41.939  40.403   3.699
24909W        W84412  20.614  28.473   2.776
24910W        W84413  39.425  35.591   3.847
24911W        W84414  27.115   1.430   3.726
24912W        W84415  16.806  31.435  14.797
24913W        W84416  13.224  19.751   3.201
24914W        W84417  10.207  30.003  14.448
24915W        W84418  20.736  42.407   1.929
24916W        W84419  24.608  28.459   3.166
24917W        W84420  30.441  36.479   1.699
24918W        W84421  25.660   4.788  12.430
24919W        W84422   6.292  37.364   3.368
24920W        W84423   4.359   8.717  10.923
24921W        W84424  27.975  28.461   9.965
24922W        W84425  16.735  36.088   1.270
24923W        W84426   7.322  33.002  13.011
24924W        W84427  42.942  36.963  10.540
24925W        W84428  10.158   6.736   0.852
24926W        W84429  17.780  13.160  11.996
24927W        W84430  28.587   7.891  11.028
24928W        W84431  42.023  19.533   2.688
24929W        W84432  11.203   9.339   2.799
24930W        W84433  12.815   0.789  12.831
24931W        W84434   5.842  17.679   1.359
24932W        W84435  25.027  14.716  11.390
24933W        W84436  12.248  26.545  11.420
24934W        W84437  28.156  44.265   1.451
24935W        W84438  19.274  19.755  14.320
24936W        W84439  35.531  34.576   4.779
24937W        W84440  15.099   2.468   1.387
24938W        W84441   4.420  20.530   2.681
24939W        W84442  37.557   3.334  11.883
24940W        W84443  24.559  25.171   1.845
24941W        W84444  25.134  22.210   4.121
24942W        W84445  32.633   4.940  11.487
24943W        W84446  20.115   6.309   2.351
24944W        W84447  25.145  38.009   2.269
24945W        W84448  20.680   1.433  14.936
24946W        W84449  38.827   8.212  11.063
24947W        W84450   4.795  33.009  10.975
24948W        W84451   3.942  18.692   0.824
24949W        W84452   2.846  30.040  14.022
24950W        W84453  22.996  44.440   4.657
24951W        W84454  23.024  24.187  13.410
24952W        W84455   9.241  14.663  12.569
24953W        W84456  40.801  16.607   0.451
24954W        W84457   1.272  38.534  11.502
24955W        W84458  32.929  38.523  13.529
24956W        W84459   7.329  30.998  11.856
24957W        W84460  16.775  12.303   4.225
24958W        W84461   0.433  30.564  11.933
24959W        W84462   2.842  33.504   3.828
24960W        W84463   0.899   2.814   3.206
24961W        W84464   9.666  24.619  13.909
24962W        W84465  41.353  41.878   0.966
24963W        W84466   4.835  28.480  10.956
24964W        W84467  27.162  28.143   0.944
24965W        W84468  22.650  28.506  14.899
24966W        W84469  37.510   7.800   3.655
24967W        W84470  13.740   0.466   4.787
24968W        W84471   5.741  18.290   1.258
24969W        W84472  30.956   3.312  13.916
24970W        W84473   4.747  17.627   0.853
24971W        W84474   7.730  40.809   0.802
24972W        W84475  12.774  10.349   2.800
24973W        W84476  11.286   5.437  12.464
24974W        W84477  16.191   2.448  14.973
24975W        W84478  44.416  21.651   3.255
24976W        W84479  20.653  15.125  11.471
24977W        W84480  27.510  25.165  13.318
24978W        W84481  44.439  39.062   3.637
24979W        W84482  12.344  41.909  14.918
24980W        W84483  17.127  34.093   2.752
24981W        W84484  10.251   9.802   4.202
24982W        W84485  39.881  40.940   0.246
24983W        W84486  19.220   1.355   2.290
24984W        W84487   2.966  21.081   3.802
24985W        W84488  16.743  11.217  10.918
24986W        W84489  32.947  41.996  13.037
24987W        W84490  36.397   4.436   1.893
24988W        W84491  14.322   9.652  14.361
24989W        W84492  37.009   6.226   1.373
24990W        W84493  40.529   3.461   1.313
24991W        W84494  37.579  29.131   2.902
24992W        W84495  32.040  42.913  11.124
24993W        W84496  29.123  12.647   2.180
24994W        W84497  18.683  25.166   5.318
24995W        W84498  30.129   8.312   1.224
24996W        W84499  27.481  34.525  11.972
24997W        W84500  33.977  27.980   9.972
24998W        W84501  17.164  40.341  13.345
24999W        W84502  44.293   0.743  13.398
25000W        W84503  26.139  26.517  12.060
25001W        W84504   5.842  34.529  13.803
25002W        W84505  40.806  31.639  12.864
25003W        W84506  17.762  20.164   2.799
25004W        W84507   9.654  15.593   1.227
25005W        W84508  23.514  29.054  14.934
25006W        W84509  32.519  12.339   3.746
25007W        W84510   0.284  22.522   3.289
25008W        W84511   1.836   8.176  14.771
25009W        W84512  29.097  26.032  12.859
25010W        W84513   7.261  13.314   4.224
25011W        W84514  13.719   0.789  12.546
25012W        W84515  19.751  25.646  12.842
25013W        W84516  36.499  29.169  12.071
25014W        W84517  42.030  41.947   1.433
25015W        W84518  21.168   0.748  12.922
25016W        W84519   8.260  10.356  13.461
25017W        W84520  34.549   9.723  14.865
25018W        W84521   8.723   6.771  11.868
25019W        W84522  31.414  12.648  11.498
25020W        W84523  26.462  30.510   3.327
25021W        W84524  38.968  28.494   0.891
25022W        W84525   9.377  27.562   3.652
25023W        W84526  10.252  24.710   0.950
25024W        W84527   6.859  29.027   4.639
25025W        W84528   2.966  10.812   2.787
25026W        W84529   0.447  18.252   2.697
25027W        W84530   9.381  32.520  12.357
25028W        W84531  27.038  44.876  14.359
25029W        W84532  27.007  30.161  12.828
25030W        W84533  34.999  39.942  14.287
25031W        W84534   5.205  38.964   1.325
25032W        W84535  25.577  29.622  11.577
25033W        W84536  22.537  15.206   4.182
25034W        W84537   3.849   2.859  11.882
25035W        W84538   1.246  22.534   3.802
25036W        W84539  33.966  16.603   4.297
25037W        W84540  17.077  32.911  14.862
25038W        W84541  18.250  27.672   4.146
25039W        W84542  13.268  43.468  10.897
25040W        W84543  25.090  17.775   3.238
25041W        W84544   3.943   8.297  14.007
25042W        W84545  18.288   5.872   2.401
25043W        W84546  34.553   2.441   2.317
25044W        W84547  42.388   6.701  12.444
25045W        W84548  21.754  37.362   0.882
25046W        W84549  36.486  26.572   1.302
25047W        W84550   3.390  26.550   1.861
25048W        W84551  34.435  23.675  14.338
25049W        W84552  16.241  26.654  14.027
25050W        W84553   6.776  22.562  13.970
25051W        W84554  30.113  23.653  12.497
25052W        W84555  37.059  23.115   0.861
25053W        W84556  21.741  26.529   2.853
25054W        W84557  24.517  14.706   2.286
25055W        W84558  35.468  19.200  11.594
25056W        W84559   5.329   7.319  10.527
25057W        W84560  19.774   0.420   2.821
25058W        W84561  14.231  32.518   0.252
25059W        W84562   4.849   9.866   2.183
25060W        W84563  38.365  25.071   4.733
25061W        W84564  25.137  41.512   0.930
25062W        W84565  16.644  21.208  11.002
25063W        W84566  22.114   6.827   1.782
25064W        W84567   2.923  41.003  13.826
25065W        W84568   5.314   8.405   0.440
25066W        W84569   9.309  23.084  14.279
25067W        W84570   9.309   0.484  14.808
25068W        W84571   3.749  14.813  13.898
25069W        W84572   0.248   1.959  13.320
25070W        W84573  21.667  18.752   1.842
25071W        W84574   3.283  31.908   3.228
25072W        W84575  35.057   5.725  13.439
25073W        W84576  40.867   9.328  13.475
25074W        W84577  26.476  40.533  12.864
25075W        W84578   8.670   6.878  13.381
25076W        W84579  10.168  22.665   1.708
25077W        W84580   4.240   3.235  11.942
25078W        W84581   4.941  20.125   2.316
25079W        W84582  26.989  33.461  11.451
25080W        W84583   0.452  31.935   0.271
25081W        W84584  33.526  17.122   2.290
25082W        W84585   5.744  29.106   1.699
25083W        W84586   9.332  22.544  10.560
25084W        W84587   0.825  27.164  13.921
25085W        W84588  42.326  33.985  11.455
25086W        W84589   1.482  18.064   0.482
25087W        W84590  38.443  12.186   4.680
25088W        W84591  42.776  44.820   0.311
25089W        W84592   0.428  29.477  12.454
25090W        W84593  37.393  27.157   3.719
25091W        W84594  22.032  39.938  14.293
25092W        W84595  31.637  34.885  12.071
25093W        W84596  10.683   4.290  12.425
25094W        W84597  39.945  10.223  12.470
25095W        W84598  36.552  35.365   4.141
25096W        W84599  26.532  11.248   2.797
25097W        W84600   1.478  38.490  12.508
25098W        W84601  23.069  18.599  14.919
25099W        W84602  30.972  43.476  13.491
25100W        W84603  12.266  24.600  14.769
25101W        W84604  41.300  39.934   4.787
25102W        W84605  21.070   2.779  13.880
25103W        W84606  41.928  27.589  11.984
25104W        W84607  19.117  33.976   0.428
25105W        W84608  39.389  42.372   4.807
25106W        W84609  16.127  10.331   3.645
25107W        W84610  19.710  33.425   1.258
25108W        W84611  14.259  28.956   2.263
25109W        W84612  41.839   0.310   4.225
25110W        W84613  20.665  11.778  13.869
25111W        W84614  35.470   6.288   1.397
25112W        W84615   1.869  10.271   4.290
25113W        W84616  30.614  24.698  10.544
25114W        W84617  37.452   4.409   0.258
25115W        W84618  28.497  13.168  10.427
25116W        W84619  18.272  12.793   3.849
25117W        W84620  23.131  10.380   3.218
25118W        W84621  22.585   7.202   0.828
25119W        W84622  32.395  15.800  14.762
25120W        W84623  38.833  13.793  11.121
25121W        W84624  25.487  10.168   3.765
25122W        W84625   4.300  29.471  14.022
25123W        W84626  11.133  12.832  13.966
25124W        W84627  19.279  22.064  10.593
25125W        W84628  34.416   7.712   4.312
25126W        W84629  17.124  41.846  13.394
25127W        W84630  30.141  20.273  11.934
25128W        W84631  32.998  43.943   2.363
25129W        W84632  22.031  44.971   1.886
25130W        W84633   9.300  21.706   3.168
25131W        W84634   5.278  28.661   4.139
25132W        W84635  13.776   2.870  12.832
25133W        W84636  34.548  28.510   2.398
25134W        W84637   1.755  35.915   0.322
25135W        W84638  35.983  34.437   0.778
25136W        W84639   6.752  36.954  11.550
25137W        W84640  10.646  33.961   0.944
25138W        W84641   2.878  21.531  13.987
25139W        W84642  43.782   1.807  11.953
25140W        W84643  30.619  22.556  13.989
25141W        W84644  29.599  34.482   2.876
25142W        W84645   0.458  29.967   4.303
25143W        W84646   2.899  35.862   4.305
25144W        W84647  30.507  25.573  11.927
25145W        W84648  25.090  44.978   0.843
25146W        W84649  41.347  35.067   2.265
25147W        W84650   3.848  23.230  14.762
25148W        W84651  38.442  24.225  10.528
25149W        W84652   9.249  44.902  10.622
25150W        W84653   1.766  20.543   0.848
25151W        W84654  26.510  12.298   1.407
25152W        W84655  11.694  30.586  12.930
25153W        W84656  17.791  17.687   4.828
25154W        W84657  19.600  31.940  14.028
25155W        W84658  37.502  27.588   0.771
25156W        W84659  21.116  23.541   0.891
25157W        W84660  18.290  20.274   0.370
25158W        W84661  19.575  29.963  14.346
25159W        W84662   3.258   6.899  11.093
25160W        W84663  14.106  28.090   5.203
25161W        W84664  26.086  28.672   0.893
25162W        W84665   5.828  11.791   0.255
25163W        W84666  12.778  29.122   9.954
25164W        W84667  43.357  14.186   1.268
25165W        W84668  31.072   4.713  14.332
25166W        W84669  15.177   2.472   0.480
25167W        W84670  10.214  19.748  12.489
25168W        W84671   8.192  39.486   4.210
25169W        W84672  19.727   6.724   4.257
25170W        W84673  27.041  10.757  11.530
25171W        W84674  24.507  20.685  13.907
25172W        W84675   6.332   3.436   4.805
25173W        W84676  33.624  19.039  11.878
25174W        W84677   5.814  10.256   4.708
25175W        W84678  34.614  10.663   0.736
25176W        W84679   0.910  37.833  10.578
25177W        W84680  27.946   0.765   0.288
25178W        W84681  33.555  33.097   2.392
25179W        W84682  15.634  39.358   1.921
25180W        W84683  29.556  22.042   2.831
25181W        W84684  26.518  35.368  12.469
25182W        W84685  37.932   2.277   1.903
25183W        W84686  36.439  32.069  11.862
25184W        W84687   0.291  30.550   0.368
25185W        W84688   2.269  31.417  10.137
25186W        W84689  34.073  29.176  11.533
25187W        W84690  18.604   6.759   2.726
25188W        W84691  38.465  41.525  13.804
25189W        W84692   4.749  24.134  11.015
25190W        W84693   1.919  20.217  11.460
25191W        W84694   1.327   5.260   4.302
25192W        W84695  19.537  22.131   3.706
25193W        W84696  28.566  29.588   2.299
25194W        W84697  36.850   3.722  13.414
25195W        W84698  14.720  13.818   1.904
25196W        W84699   0.938  42.509  10.469
25197W        W84700   3.420  28.937  11.874
25198W        W84701  21.662  26.592  14.442
25199W        W84702  12.677   1.378   2.348
25200W        W84703  11.172  15.603   0.801
25201W        W84704   1.876  29.087   5.286
25202W        W84705  33.107   4.254   1.300
25203W        W84706  21.110  36.033   0.425
25204W        W84707  36.862   4.912   1.831
25205W        W84708   6.251  37.412  12.916
25206W        W84709  37.566  19.631   3.205
25207W        W84710  25.519   2.305   3.809
25208W        W84711  30.553  15.744  14.403
25209W        W84712  44.307  40.931   0.763
25210W        W84713  12.672  17.164   4.733
25211W        W84714  34.960  43.764   2.306
25212W        W84715  32.534   9.276  14.345
25213W        W84716  16.273  38.976  11.532
25214W        W84717  24.107  24.492   4.273
25215W        W84718  43.998  35.516  11.013
25216W        W84719  40.420   9.242   3.837
25217W        W84720   5.436  10.334  14.765
25218W        W84721  26.479  35.985   0.791
25219W        W84722  25.991  38.934  13.335
25220W        W84723  36.463  41.480  10.896
25221W        W84724   7.392  36.919  14.905
25222W        W84725  25.211   9.216   4.163
25223W        W84726  15.239  22.663   4.180
25224W        W84727  36.966  16.654   4.834
25225W        W84728  25.182   5.417  12.562
25226W        W84729  19.268  44.830   4.160
25227W        W84730  39.063  13.224  11.951
25228W        W84731  30.937   5.384   4.650
25229W        W84732   1.428  43.304   3.156
25230W        W84733  28.479  23.066   4.312
25231W        W84734   6.297   0.424   4.347
25232W        W84735   6.872  33.512  10.954
25233W        W84736  16.576  11.728   2.306
25234W        W84737  37.830  17.753  12.527
25235W        W84738  43.499  20.036   3.172
25236W        W84739   4.820   5.320  13.475
25237W        W84740  14.684  15.213   0.786
25238W        W84741  10.185  18.760  14.856
25239W        W84742  25.642   1.856   3.342
25240W        W84743  15.135  35.894   3.203
25241W        W84744  38.852  36.387  11.545
25242W        W84745  18.634   9.652   0.884
25243W        W84746  37.866  21.566  13.402
25244W        W84747  20.590  15.191   1.344
25245W        W84748  16.689  44.421   0.858
25246W        W84749  36.007  43.504  12.083
25247W        W84750  43.326  28.083   3.255
25248W        W84751  39.017  42.950  14.825
25249W        W84752   4.933   5.745   0.458
25250W        W84753  30.004  13.649  12.377
25251W        W84754  23.493  29.041   2.259
25252W        W84755  37.526  22.535   1.450
25253W        W84756  10.856  17.727   3.801
25254W        W84757  37.506  21.623  12.865
25255W        W84758  26.564   5.748   2.772
25256W        W84759  32.025  25.538   2.375
25257W        W84760   9.325   2.466  11.554
25258W        W84761   6.835  12.292   0.394
25259W        W84762  13.707  43.415   3.309
25260W        W84763  16.223  32.918   1.417
25261W        W84764  31.007  31.906  11.413
25262W        W84765  31.557  30.639  13.844
25263W        W84766  12.773  27.566  13.499
25264W        W84767  21.038  42.454   1.263
25265W        W84768  23.595   7.812  11.086
25266W        W84769  23.491  33.612  14.413
25267W        W84770  15.778  15.181   4.351
25268W        W84771  39.525  13.325  10.417
25269W        W84772  28.647  36.361  12.036
25270W        W84773  26.046  11.146   0.953
25271W        W84774  21.256   4.276  11.892
25272W        W84775  31.132  34.912  13.363
25273W        W84776  32.889  25.485  10.471
25274W        W84777  36.542  20.673   1.893
25275W        W84778  30.571  10.235  11.952
25276W        W84779  35.042  12.248  14.027
25277W        W84780  22.008  29.018   3.724
25278W        W84781   2.761  19.742  14.977
25279W        W84782  22.707  19.581  12.870
25280W        W84783  18.662  21.628  13.970
25281W        W84784  25.591  35.922  13.013
25282W        W84785  44.882  37.517   2.285
25283W        W84786  19.603  31.458  11.069
25284W        W84787  31.422  20.118  11.547
25285W        W84788  28.008  38.980   4.131
25286W        W84789   1.472  15.799   1.423
25287W        W84790   4.943  12.696   1.451
25288W        W84791  23.736  37.358   2.726
25289W        W84792  14.216  13.666   2.728
25290W        W84793  40.328  13.674   1.232
25291W        W84794  37.458  11.318   3.762
25292W        W84795  26.464  17.721  14.277
25293W        W84796  18.090  17.127   2.750
25294W        W84797  40.925  30.523  14.510
25295W        W84798  17.723  42.896   9.955
25296W        W84799  34.109  23.120  13.027
25297W        W84800  27.064  28.558  14.968
25298W        W84801  11.365  12.847   0.825
25299W        W84802  18.707  12.751  11.516
25300W        W84803   6.312  38.454  11.524
25301W        W84804   1.301  25.134   4.762
25302W        W84805   4.918  13.606   0.442
25303W        W84806   8.715  23.711   2.351
25304W        W84807  21.620  43.303   0.758
25305W        W84808  14.632  29.162   5.295
25306W        W84809  12.641  23.517   4.745
25307W        W84810   8.702  21.586  11.460
25308W        W84811  12.789  12.209   4.660
25309W        W84812  12.300  38.411   0.800
25310W        W84813  37.953  38.563  11.392
25311W        W84814  22.014  19.592   0.341
25312W        W84815  39.376   7.266   2.352
25313W        W84816   1.750  41.922   1.796
25314W        W84817  10.196  12.819  10.041
25315W        W84818   4.315  16.775   4.752
25316W        W84819  29.469  11.745  12.954
25317W        W84820   3.304   2.778   2.739
25318W        W84821  31.008   1.800   1.922
25319W        W84822  29.561  43.916   2.894
25320W        W84823  34.113  26.631  13.371
25321W        W84824  29.529  12.621   5.212
25322W        W84825  43.945  11.255  10.607
25323W        W84826  30.500   3.370  13.533
25324W        W84827  29.148  34.472  12.060
25325W        W84828  17.699  31.423  11.375
25326W        W84829  26.052  35.947   2.727
25327W        W84830  24.683  23.632   4.669
25328W        W84831  16.716  30.622  12.871
25329W        W84832  11.744   7.787   2.674
25330W        W84833  43.319  29.135   4.294
25331W        W84834  40.922  36.456   0.940
25332W        W84835  16.738  24.693  14.013
25333W        W84836  33.955  43.292   3.713
25334W        W84837   9.392  26.107  10.491
25335W        W84838  17.288  16.158   2.296
25336W        W84839   8.334   1.745  12.962
25337W        W84840  31.990  14.097  12.893
25338W        W84841   7.754  34.893  11.121
25339W        W84842  26.969  21.085   5.244
25340W        W84843  18.194  11.643   3.864
25341W        W84844  44.953  37.971  11.070
25342W        W84845  17.680  21.621   2.294
25343W        W84846   5.259   5.316   1.278
25344W        W84847  27.540  38.856  10.035
25345W        W84848   2.382  18.751  10.641
25346W        W84849   1.355  44.986  11.029
25347W        W84850  26.998  29.120   5.197
25348W        W84851   6.347  31.011  12.878
25349W        W84852  28.538  33.556   9.920
25350W        W84853  42.311   4.922  14.462
25351W        W84854  20.232  24.210   4.270
25352W        W84855  34.017   8.224  13.315
25353W        W84856  21.031  23.600  13.023
25354W        W84857   4.420  16.620  10.549
25355W        W84858  35.062  31.556   3.824
25356W        W84859   2.728   2.881  10.978
25357W        W84860  37.030   0.285   3.869
25358W        W84861  44.803  38.038   2.201
25359W        W84862  44.796  10.713  10.530
25360W        W84863  27.615  28.506   3.808
25361W        W84864   2.367  39.943   1.381
25362W        W84865  39.892  26.156  12.052
25363W        W84866  44.360   9.324  10.119
25364W        W84867   2.834  18.176   1.448
25365W        W84868  44.901  35.378   3.692
25366W        W84869  40.935  15.679  14.472
25367W        W84870   9.729  22.242   4.805
25368W        W84871  22.634  33.566  12.564
25369W        W84872  25.670  16.113  14.338
25370W        W84873  41.993  42.424   0.364
25371W        W84874   4.884   9.650  11.554
25372W        W84875  31.404  16.745   0.327
25373W        W84876  14.803   7.790   4.247
25374W        W84877  29.455   7.775  13.894
25375W        W84878  27.975  11.289  11.415
25376W        W84879  18.591  27.587   1.814
25377W        W84880  26.960  21.129   4.714
25378W        W84881  17.101   7.811   1.438
25379W        W84882  40.012  44.924   1.725
25380W        W84883  31.524  15.735   5.229
25381W        W84884  13.636  31.097   0.927
25382W        W84885  40.861  15.668  13.386
25383W        W84886   7.388   6.864   4.281
25384W        W84887  14.323  43.505   1.748
25385W        W84888  37.380  18.720  12.395
25386W        W84889  28.668  30.490   0.330
25387W        W84890   4.701  34.970  12.888
25388W        W84891  33.929  23.627  14.005
25389W        W84892  30.124   6.223  12.349
25390W        W84893   2.950   6.292  14.933
25391W        W84894  31.019  38.329   4.223
25392W        W84895  15.798   8.200   2.685
25393W        W84896  30.437  40.874  10.595
25394W        W84897  37.956  12.751  10.048
25395W        W84898  37.924  39.041   2.402
25396W        W84899  43.981  34.058  14.839
25397W        W84900   0.365  40.828   0.941
25398W        W84901  19.148  40.410  10.928
25399W        W84902  40.323  26.695   4.839
25400W        W84903  11.863  24.197  12.424
25401W        W84904  31.533   5.426   1.787
25402W        W84905  19.706  30.612  13.848
25403W        W84906  18.773   2.756   3.648
25404W        W84907  34.379  12.216   2.260
25405W        W84908  35.572   6.825  14.459
25406W        W84909  38.358  24.501   1.295
25407W        W84910  40.405  30.977   0.855
25408W        W84911  30.950  15.745  13.872
25409W        W84912  26.011   8.394   3.659
25410W        W84913   3.283  41.842  12.841
25411W        W84914  13.283  23.150  13.809
25412W        W84915  24.642  25.474  12.966
25413W        W84916  23.616  35.866   2.358
25414W        W84917  18.561  44.312  12.548
25415W        W84918   0.805  31.586  10.900
25416W        W84919  10.787  41.008   1.333
25417W        W84920  24.224   2.428   1.869
25418W        W84921  12.751  22.637   0.895
25419W        W84922  28.594  44.266   9.946
25420W        W84923  22.554  22.685  10.077
25421W        W84924   0.436   1.313   9.961
25422W        W84925  10.819  40.424   0.391
25423W        W84926  13.705  33.056  13.062
25424W        W84927  11.320  43.382   3.864
25425W        W84928  16.132  19.692   2.702
25426W        W84929  22.025  24.690   3.869
25427W        W84930  14.685  24.629  11.492
25428W        W84931  34.413  29.159  13.547
25429W        W84932   7.881   7.847  13.918
25430W        W84933  37.372  35.084   2.416
25431W        W84934  44.805   6.723   1.876
25432W        W84935  30.598  12.838   2.799
25433W        W84936  39.988   0.823   0.335
25434W        W84937  39.506  19.179  13.429
25435W        W84938   7.271  35.883  11.876
25436W        W84939   3.783   0.261   3.719
25437W        W84940  22.120  12.848   0.377
25438W        W84941   1.938   5.278   0.963
25439W        W84942  30.597  19.763   0.965
25440W        W84943  36.060   6.875   0.417
25441W        W84944  27.580  30.429   1.292
25442W        W84945  34.918  39.526  12.534
25443W        W84946  19.729   3.779   4.771
25444W        W84947  16.087   4.782   0.815
25445W        W84948  37.855   7.369   3.812
25446W        W84949   1.805   4.240  14.514
25447W        W84950  37.889  44.898  14.838
25448W        W84951  31.405  33.107  13.345
25449W        W84952   8.776   0.280  14.354
25450W        W84953   0.449   1.460   1.777
25451W        W84954  34.997   6.777   4.613
25452W        W84955  18.065  26.019   2.368
25453W        W84956   4.446  12.629  13.055
25454W        W84957  22.090   7.375  14.974
25455W        W84958  11.192  29.558   9.655
25456W        W84959  31.511  35.491  12.500
25457W        W84960   1.948   2.424  14.294
25458W        W84961  14.697  41.858   0.771
25459W        W84962   0.906  22.517   4.225
25460W        W84963  26.647  32.080   2.674
25461W        W84964  39.483  39.329  14.305
25462W        W84965  12.160   8.268  11.044
25463W        W84966  35.440   1.858  14.480
25464W        W84967  27.952  25.163  12.505
25465W        W84968  33.006  41.795   2.856
25466W        W84969  19.765  40.523  12.481
25467W        W84970  16.586  36.062   0.294
25468W        W84971   3.802  42.321   4.648
25469W        W84972   2.352   3.857  13.308
25470W        W84973   0.899  35.989  12.075
25471W        W84974  36.977  16.659  10.979
25472W        W84975  35.877  36.884  11.509
25473W        W84976   9.775   8.164  12.892
25474W        W84977   3.355  27.011   3.669
25475W        W84978   3.363   1.340   3.289
25476W        W84979  34.464  13.636   1.834
25477W        W84980  30.572  11.642  11.909
25478W        W84981  28.945  17.108   4.134
25479W        W84982  39.473   8.893   1.852
25480W        W84983  35.083  22.011  11.451
25481W        W84984  29.124  31.041   1.845
25482W        W84985   6.420   9.380  11.491
25483W        W84986  22.532  14.742  14.902
25484W        W84987  25.978   6.711   4.791
25485W        W84988   8.394   0.353   2.241
25486W        W84989   5.786   7.297  11.896
25487W        W84990  26.115  37.053   0.773
25488W        W84991  32.937  37.969   3.270
25489W        W84992  18.611   1.349  14.466
25490W        W84993  42.953  10.724   3.667
25491W        W84994  35.592  42.439   3.723
25492W        W84995  14.259  25.603  11.549
25493W        W84996  29.608   6.829  13.406
25494W        W84997  43.790   1.818   0.963
25495W        W84998  37.901  19.106   4.806
25496W        W84999  44.317  23.527   0.738
25497W        W85000  26.172  16.782   0.862
25498W        W85001  43.785  12.720  13.408
25499W        W85002  13.347  38.329   3.267
25500W        W85003  26.002  16.606   4.752
25501W        W85004  25.044  40.383  10.514
25502W        W85005  27.118  41.331  11.978
25503W        W85006  43.819  15.823   0.731
25504W        W85007  42.881   2.853  14.930
25505W        W85008  26.089  37.564  12.404
25506W        W85009  39.020  24.116  11.054
25507W        W85010  12.257  37.075  11.567
25508W        W85011   7.233  26.958   4.135
25509W        W85012   0.335   2.290   2.800
25510W        W85013  32.018  17.711   4.321
25511W        W85014  16.572   9.258  13.345
25512W        W85015  20.050   5.430   1.248
25513W        W85016  39.438  24.009   3.805
25514W        W85017  29.174  18.712  14.309
25515W        W85018  34.417   6.288  14.917
25516W        W85019  38.570  17.630   4.344
25517W        W85020  33.918  35.077  12.991
25518W        W85021  27.986  21.720   1.776
25519W        W85022  33.380  21.234   3.679
25520W        W85023  37.023  20.169  12.036
25521W        W85024  26.132  10.279  11.958
25522W        W85025  21.036  27.948  10.895
25523W        W85026  38.557  32.989   3.756
25524W        W85027  35.373  28.957   1.221
25525W        W85028  41.853  12.714   4.329
25526W        W85029   2.824  25.637   4.286
25527W        W85030  14.728  19.226  10.462
25528W        W85031  15.632  17.661  12.551
25529W        W85032  32.425  13.608   3.196
25530W        W85033  37.391  11.274  14.782
25531W        W85034   7.705  29.972  11.127
25532W        W85035  32.532  23.012   0.316
25533W        W85036  12.708   5.784  12.841
25534W        W85037  15.103  26.465  14.430
25535W        W85038   4.422  36.969  11.487
25536W        W85039  16.710  44.478  13.921
25537W        W85040  36.973  26.601  12.962
25538W        W85041  11.656  37.404   2.684
25539W        W85042  21.096  29.559   0.769
25540W        W85043  41.421  15.297  11.891
25541W        W85044  18.577   7.764  12.902
25542W        W85045  44.448   2.364   4.714
25543W        W85046  38.440  35.578  11.444
25544W        W85047  18.786   8.671   3.760
25545W        W85048  26.043   5.763  13.477
25546W        W85049  20.146  32.435   0.473
25547W        W85050  16.213  22.248   1.425
25548W        W85051  43.408   6.831   2.205
25549W        W85052  14.151   4.808   2.785
25550W        W85053   8.312   0.468   1.710
25551W        W85054  23.539   1.911  12.545
25552W        W85055  42.846  24.077   2.297
25553W        W85056  14.641  20.207  10.519
25554W        W85057  31.579  10.649  10.027
25555W        W85058  26.500   5.437  14.948
25556W        W85059  25.637  44.956  10.048
25557W        W85060  26.159  34.114   4.652
25558W        W85061   8.846  29.164  13.843
25559W        W85062   2.920  31.645   0.384
25560W        W85063   9.704  37.340   2.897
25561W        W85064   1.928  23.674   4.234
25562W        W85065   0.416  41.884   2.348
25563W        W85066  36.510  44.277   2.826
25564W        W85067  16.663  32.135   4.623
25565W        W85068  13.335  21.082   1.828
25566W        W85069  44.836  30.440   2.375
25567W        W85070  23.061   7.279   3.367
25568W        W85071  36.558  14.774  13.792
25569W        W85072  32.548  28.573   3.328
25570W        W85073  31.582  33.507   2.254
25571W        W85074  28.090  15.791  11.090
25572W        W85075  39.556  31.027  13.332
25573W        W85076  20.672  35.364   4.248
25574W        W85077  19.270   9.307  14.425
25575W        W85078  12.156  30.471  13.936
25576W        W85079  18.157  41.370  14.451
25577W        W85080  44.756   6.280   3.147
25578W        W85081  34.984  42.792   0.846
25579W        W85082   1.944  21.138  12.073
25580W        W85083   3.740  11.299  12.015
25581W        W85084  34.935   4.786  14.018
25582W        W85085  16.641  20.196  12.053
25583W        W85086  28.172  12.796   0.380
25584W        W85087  24.484   1.742   2.898
25585W        W85088  38.549  42.033  10.994
25586W        W85089  36.575   9.656   3.353
25587W        W85090  42.893  42.381   0.785
25588W        W85091  15.694   9.887   1.923
25589W        W85092  26.618  29.599  12.558
25590W        W85093  10.228   4.876  12.889
25591W        W85094   8.213  29.109   4.128
25592W        W85095  27.147   2.297  14.999
25593W        W85096  29.148  20.611   2.863
25594W        W85097  42.292  13.136  11.089
25595W        W85098  35.407  10.236  13.910
25596W        W85099  11.280   5.306   3.783
25597W        W85100  27.522  18.683  14.343
25598W        W85101   6.182  10.358  10.002
25599W        W85102   9.325  23.182  12.833
25600W        W85103  37.421  18.123   1.710
25601W        W85104  24.560   4.885   0.852
25602W        W85105  24.690  34.030   0.941
25603W        W85106   8.730   2.882   2.193
25604W        W85107  35.091  43.516   1.754
25605W        W85108  28.150   3.860   1.360
25606W        W85109  33.129  39.808  11.120
25607W        W85110  41.397  20.061   2.335
25608W        W85111  10.818  31.615   0.880
25609W        W85112  10.683  11.741  11.892
25610W        W85113  34.525  25.556   3.750
25611W        W85114  37.448  10.198  13.456
25612W        W85115  43.367  25.969   4.784
25613W        W85116  14.832  44.789   1.245
25614W        W85117  36.554  43.455  10.568
25615W        W85118  16.159  31.072  12.440
25616W        W85119  24.026  43.366   0.903
25617W        W85120  41.905  15.132   1.781
25618W        W85121  23.627  43.979  11.973
25619W        W85122  44.347  28.101   5.772
25620W        W85123  35.909  40.329   2.850
25621W        W85124  22.645   9.803  12.458
25622W        W85125  26.481  40.311  11.956
25623W        W85126  21.533  22.705   3.292
25624W        W85127  25.973   9.875   1.882
25625W        W85128  33.406  10.724  13.934
25626W        W85129   5.735  41.889   0.741
25627W        W85130  39.546  10.783   4.243
25628W        W85131  14.759  23.133   3.817
25629W        W85132   3.852  14.102   0.268
25630W        W85133  41.933  15.174   3.853
25631W        W85134   7.736   2.756   3.327
25632W        W85135  10.714  27.628   0.905
25633W        W85136  15.177   6.818   1.860
25634W        W85137  21.174  23.076   4.694
25635W        W85138  23.233  23.995  13.812
25636W        W85139  44.780  34.027   3.789
25637W        W85140  44.417   8.813  12.349
25638W        W85141  35.414  29.145  14.920
25639W        W85142  23.133  28.125  12.053
25640W        W85143  30.579   7.744  14.443
25641W        W85144  20.238  24.678   2.380
25642W        W85145  13.173  24.046   1.432
25643W        W85146   8.283   4.344  14.023
25644W        W85147  35.988   8.223  12.523
25645W        W85148  11.167  20.763  14.319
25646W        W85149  29.976  24.103   2.215
25647W        W85150   9.798  21.137   2.188
25648W        W85151  36.353  39.848   2.268
25649W        W85152  21.564   4.826   2.315
25650W        W85153   6.259  25.014  13.416
25651W        W85154  18.287  36.063   3.379
25652W        W85155   0.381  41.857   4.249
25653W        W85156  35.561   0.970   3.347
25654W        W85157  20.661  44.433   2.407
25655W        W85158  44.915  31.949   2.272
25656W        W85159  25.651   3.837  13.356
25657W        W85160   5.802  37.571  13.524
25658W        W85161  18.586  11.765  10.644
25659W        W85162  16.779  14.611   4.308
25660W        W85163  31.450  15.136  13.532
25661W        W85164   1.360  42.302   5.246
25662W        W85165   7.840  44.861  10.632
25663W        W85166  31.973  43.945   3.636
25664W        W85167  41.371  27.483   4.810
25665W        W85168  35.446  37.974   2.182
25666W        W85169   0.773  23.527   3.279
25667W        W85170  29.641  25.086  14.815
25668W        W85171  36.443  12.685  14.793
25669W        W85172  41.339   4.941   1.357
25670W        W85173  36.444   5.854  11.434
25671W        W85174  20.742  26.158   1.223
25672W        W85175  40.913  37.016  11.567
25673W        W85176   5.378  15.806  10.503
25674W        W85177  10.641  37.927   0.266
25675W        W85178  41.865  20.663  12.526
25676W        W85179  34.931  42.362   4.227
25677W        W85180   3.392  12.700  13.944
25678W        W85181   1.258  33.570  13.433
25679W        W85182   0.870   9.330   2.750
25680W        W85183   0.907  14.606  13.546
25681W        W85184  42.441  36.970   1.407
25682W        W85185  35.420  29.617  11.506
25683W        W85186   2.899  41.830  12.536
25684W        W85187  15.240  43.826  14.505
25685W        W85188  40.836  38.988   0.859
25686W        W85189  43.977  37.498  12.963
25687W        W85190   4.349  13.804  11.037
25688W        W85191   9.666  43.790   3.863
25689W        W85192  43.280  27.049   3.723
25690W        W85193   8.670  44.459   1.745
25691W        W85194  25.127  41.962   2.345
25692W        W85195  27.691  20.650  12.972
25693W        W85196  38.424   2.387   0.784
25694W        W85197   7.824  23.504  14.015
25695W        W85198   2.404  38.426  10.942
25696W        W85199  37.886   7.233  13.894
25697W        W85200  16.083  44.492  13.435
25698W        W85201  17.608  26.012  13.373
25699W        W85202  17.108  37.432   3.793
25700W        W85203  14.244  17.712  13.949
25701W        W85204  13.616   2.245   0.933
25702W        W85205  44.839  12.139  14.758
25703W        W85206  28.057  43.873  10.479
25704W        W85207   4.778  38.462   0.267
25705W        W85208  17.688  35.011  10.952
25706W        W85209  18.685  28.611   1.309
25707W        W85210  28.118   9.820   2.791
25708W        W85211  26.017  16.635  10.584
25709W        W85212   2.263  40.493  10.988
25710W        W85213  33.938   5.262  12.986
25711W        W85214  38.074  29.929   2.685
25712W        W85215  44.388  35.541   2.376
25713W        W85216   8.809   7.190   2.251
25714W        W85217  40.429   4.359  11.038
25715W        W85218  12.217  12.230   0.294
25716W        W85219  20.585  22.625  11.960
25717W        W85220  35.595  19.688   2.746
25718W        W85221   9.699  24.085  10.904
25719W        W85222  24.023   1.768   0.481
25720W        W85223   1.293  13.117  13.817
25721W        W85224  11.361  27.494   0.872
25722W        W85225  11.221   1.347   1.235
25723W        W85226  37.929  23.578   2.708
25724W        W85227  13.176  19.706   1.235
25725W        W85228  12.783  42.815  12.028
25726W        W85229  36.856  38.875  12.373
25727W        W85230  42.812  13.770  11.389
25728W        W85231   4.251  18.668  12.424
25729W        W85232   5.918  39.950   1.408
25730W        W85233   9.723  32.068   1.329
25731W        W85234   0.778  31.967   4.200
25732W        W85235  12.288  39.920   4.332
25733W        W85236   6.752   6.887  14.879
25734W        W85237  24.003  19.253  14.488
25735W        W85238   2.793  10.197  13.969
25736W        W85239   0.433  11.770   2.340
25737W        W85240   5.757  42.471   9.580
25738W        W85241   4.758  26.477   3.680
25739W        W85242  19.140  10.683   3.153
25740W        W85243  34.408   5.777   1.922
25741W        W85244  41.344   7.200   1.315
25742W        W85245  24.551  39.825  12.879
25743W        W85246  40.915  30.966  11.868
25744W        W85247  35.916  19.554   4.164
25745W        W85248  22.629   4.881  13.397
25746W        W85249  27.119  29.077  14.814
25747W        W85250   5.198  15.804   4.202
25748W        W85251   1.325  44.434  14.515
25749W        W85252  32.025  43.504   3.644
25750W        W85253   9.233  15.600  12.910
25751W        W85254  10.298  22.715   3.684
25752W        W85255  19.108  40.834   3.667
25753W        W85256  26.106  27.606  11.562
25754W        W85257  11.793  35.426  10.947
25755W        W85258  22.614  22.665  12.387
25756W        W85259  25.590  12.170   3.870
25757W        W85260  21.659  24.623  14.505
25758W        W85261  21.755  29.582   9.920
25759W        W85262  41.372  40.020  11.920
25760W        W85263  21.046  39.969   4.245
25761W        W85264   1.951   7.871  14.354
25762W        W85265  16.771  20.764   1.902
25763W        W85266  33.055  40.958  13.348
25764W        W85267  23.732  42.943   4.661
25765W        W85268  25.674   0.485   2.308
25766W        W85269  43.396  39.853   2.678
25767W        W85270  35.063  36.072  13.833
25768W        W85271  18.574  25.521   2.375
25769W        W85272  38.067  35.504  14.972
25770W        W85273  31.983  12.245   4.126
25771W        W85274   4.766   7.804   3.237
25772W        W85275  35.488  39.037  14.949
25773W        W85276  17.579  41.378   4.714
25774W        W85277   8.287  32.923  10.556
25775W        W85278  25.701   3.423  11.590
25776W        W85279  18.229  32.130   0.903
25777W        W85280   5.264   2.428  12.927
25778W        W85281  18.100   5.258   3.239
25779W        W85282  14.161  30.469  11.474
25780W        W85283  27.609   6.835  14.447
25781W        W85284  37.491   2.262   4.149
25782W        W85285  36.505  42.950  13.503
25783W        W85286   8.791  26.960  12.510
25784W        W85287  11.634  24.527  14.998
25785W        W85288  10.658  29.965  13.531
25786W        W85289  32.115   1.425   2.807
25787W        W85290  36.417  27.047   4.713
25788W        W85291  44.341   1.960   1.422
25789W        W85292   3.946  15.089  13.874
25790W        W85293  12.831  10.658  12.551
25791W        W85294  12.255  31.428  11.926
25792W        W85295  37.044  31.638   2.238
25793W        W85296   4.904  32.618  12.432
25794W        W85297  31.088  43.479  12.951
25795W        W85298  14.795  11.747   3.758
25796W        W85299  21.114  14.611  12.843
25797W        W85300  18.753  19.622  10.125
25798W        W85301  39.856  42.996  14.960
25799W        W85302  10.209  23.571  11.005
25800W        W85303  44.833  23.684   0.942
25801W        W85304  42.032  20.563   1.276
25802W        W85305   6.749  43.405  13.932
25803W        W85306  22.246  12.259   4.685
25804W        W85307   5.392  21.724  11.520
25805W        W85308  29.516  15.679   2.351
25806W        W85309   9.309  36.568   0.274
25807W        W85310  25.969   7.199   3.703
25808W        W85311  34.078  40.520   0.308
25809W        W85312  27.980  16.568   4.713
25810W        W85313  42.945  27.185  10.433
25811W        W85314   5.856   3.919  13.528
25812W        W85315  32.016  30.080  12.974
25813W        W85316  42.839   6.234   3.809
25814W        W85317  28.936  22.695  12.521
25815W        W85318  35.497   8.662   4.734
25816W        W85319   3.731   6.310   2.415
25817W        W85320  31.923   7.371   0.415
25818W        W85321  15.690  19.145  14.963
25819W        W85322  24.524  40.823   3.241
25820W        W85323  25.688  23.725  10.621
25821W        W85324  10.772  15.628   3.817
25822W        W85325  28.082  42.502   4.333
25823W        W85326  32.043  12.276  14.370
25824W        W85327  22.530   9.269   0.361
25825W        W85328  24.078  32.887   4.737
25826W        W85329  31.644  37.341  14.999
25827W        W85330  23.111  33.876  13.367
25828W        W85331  38.916  22.571  13.850
25829W        W85332  21.704  25.711   3.825
25830W        W85333  14.709  41.994  12.484
25831W        W85334  24.602  40.348  12.560
25832W        W85335  31.561  19.163   2.190
25833W        W85336   0.844  33.109   3.776
25834W        W85337  41.926   9.260   2.692
25835W        W85338   9.173  23.632  12.390
25836W        W85339   1.762  34.392  10.437
25837W        W85340  18.185  13.756   0.893
25838W        W85341  41.517  18.680  12.500
25839W        W85342   3.253  20.549   0.375
25840W        W85343  12.709  21.751   1.881
25841W        W85344  27.446   2.776   4.247
25842W        W85345  41.813  37.931  11.372
25843W        W85346  37.861  18.241   4.833
25844W        W85347   2.822  32.604  14.986
25845W        W85348  32.093   2.835  14.449
25846W        W85349  25.169  15.194   3.739
25847W        W85350  15.591  14.139  12.554
25848W        W85351  22.105  24.030  14.934
25849W        W85352  15.811  36.961  14.995
25850W        W85353  25.469  26.209  13.795
25851W        W85354   0.865  33.589  14.490
25852W        W85355  30.414  38.530  12.941
25853W        W85356  41.905  42.923  12.870
25854W        W85357  34.866  26.115   5.105
25855W        W85358   2.844   6.421   0.269
25856W        W85359  21.754   1.432   3.345
25857W        W85360  16.702   6.218   4.224
25858W        W85361  41.486  21.159  10.953
25859W        W85362   5.751  26.108  11.972
25860W        W85363  24.131  41.026  11.426
25861W        W85364  29.473  15.623   0.815
25862W        W85365   7.863  29.127  14.512
25863W        W85366  16.249  32.105   4.269
25864W        W85367  23.063  13.320   3.171
25865W        W85368   1.817  32.533   2.388
25866W        W85369  22.577  11.719  11.577
25867W        W85370  37.428  33.882   1.801
25868W        W85371   0.349  24.483   4.222
25869W        W85372  35.562  15.285  12.038
25870W        W85373  29.158  18.056  14.999
25871W        W85374  22.684   3.932  12.576
25872W        W85375  42.375  16.810  10.953
25873W        W85376  44.923  29.613  12.503
25874W        W85377  15.149  17.574   0.321
25875W        W85378  19.606   2.331  10.514
25876W        W85379  16.684  28.105  13.019
25877W        W85380   4.828  36.355   3.339
25878W        W85381  23.591  23.681  10.466
25879W        W85382  41.296  11.818  12.351
25880W        W85383  16.200  11.212  12.549
25881W        W85384  38.070  31.945  14.514
25882W        W85385   6.690  34.863   1.226
25883W        W85386  24.183  18.729   4.314
25884W        W85387  44.355   9.202  14.906
25885W        W85388  31.565  26.068  13.467
25886W        W85389  26.131  29.158   2.353
25887W        W85390  31.521  28.980   2.193
25888W        W85391  39.896  41.316  14.894
25889W        W85392   0.785   8.763  10.993
25890W        W85393   3.251  34.080   3.297
25891W        W85394  32.637   1.955   4.256
25892W        W85395  28.055  25.204  10.421
25893W        W85396  37.032  31.523   0.404
25894W        W85397  25.151  10.689  14.822
25895W        W85398   0.453  11.202   1.219
25896W        W85399   0.401  23.542  14.428
25897W        W85400  19.656  33.015  11.015
25898W        W85401   1.435  39.057   2.780
25899W        W85402  32.974  38.003   2.210
25900W        W85403  42.465  24.212  12.829
25901W        W85404  36.913  31.150   3.255
25902W        W85405  21.174  16.083  14.002
25903W        W85406  36.516  20.623   4.131
25904W        W85407  19.265  35.944   2.412
25905W        W85408   5.807  38.511   0.425
25906W        W85409  16.767  15.324   3.363
25907W        W85410  37.522  19.702  11.389
25908W        W85411  15.260  21.027  14.432
25909W        W85412  23.218  12.315  14.876
25910W        W85413  34.867   2.458   0.439
25911W        W85414  36.858  34.009   0.431
25912W        W85415  26.500  12.246   2.875
25913W        W85416   0.436  22.156  12.824
25914W        W85417  17.096  18.721  12.446
25915W        W85418  24.635  10.201  11.469
25916W        W85419  19.595  11.680   4.170
25917W        W85420  23.053  41.929  12.051
25918W        W85421  33.586  34.572  14.336
25919W        W85422   1.935  35.974   3.280
25920W        W85423   0.494  34.535   4.260
25921W        W85424  23.626  24.000   1.909
25922W        W85425   6.694  23.218  11.583
25923W        W85426  42.793  33.401   4.755
25924W        W85427   0.436   6.722   4.600
25925W        W85428  40.946  22.186   3.317
25926W        W85429  29.442  28.018  12.926
25927W        W85430   5.887  26.551  12.975
25928W        W85431  11.160   4.715  12.073
25929W        W85432  14.762   0.911   3.226
25930W        W85433   6.306  23.206   0.341
25931W        W85434  41.506   6.411   3.855
25932W        W85435   2.264  16.734  13.910
25933W        W85436  26.047  32.985  10.521
25934W        W85437  10.195  19.271   2.830
25935W        W85438  30.006  38.465  12.515
25936W        W85439  13.831  36.944   2.810
25937W        W85440  44.364  12.201  14.277
25938W        W85441  20.666  14.263  11.544
25939W        W85442  37.969  31.094   1.343
25940W        W85443   8.878   0.387  12.873
25941W        W85444  15.729   9.182   4.772
25942W        W85445   8.181  19.284  13.959
25943W        W85446  24.498  13.330   2.723
25944W        W85447  22.027   6.696   0.318
25945W        W85448   4.449  27.951  14.834
25946W        W85449  10.773  17.079  13.830
25947W        W85450  41.327  39.980  13.425
25948W        W85451  21.593   5.748   3.641
25949W        W85452  36.548   6.678  10.535
25950W        W85453  15.326  38.537  10.898
25951W        W85454  17.150  23.576  13.851
25952W        W85455  39.343   3.379   3.690
25953W        W85456   3.813  16.602   1.389
25954W        W85457  22.240  30.981   3.381
25955W        W85458  38.420  36.430  13.029
25956W        W85459   9.361  33.430   3.284
25957W        W85460  18.707  16.795   4.673
25958W        W85461  24.581  40.980   2.298
25959W        W85462  14.673  12.281  13.838
25960W        W85463  34.954  41.462   4.258
25961W        W85464  15.695   9.287  10.948
25962W        W85465   3.359  39.016   0.766
25963W        W85466  35.005  17.166  12.433
25964W        W85467  22.622   2.866   1.839
25965W        W85468  40.362  33.426   4.764
25966W        W85469  27.650  19.104  12.914
25967W        W85470  34.073   0.488  13.968
25968W        W85471  18.576  26.063  12.341
25969W        W85472  26.989   2.889   0.340
25970W        W85473  10.814  24.580  11.874
25971W        W85474   2.930   5.842  11.872
25972W        W85475   2.892  37.900  13.396
25973W        W85476  32.455  44.276   3.725
25974W        W85477  21.625  18.779   3.233
25975W        W85478   8.170  44.498  11.051
25976W        W85479  42.787  35.909   3.825
25977W        W85480  17.127  38.463   4.607
25978W        W85481  43.928  14.641   3.839
25979W        W85482  32.605  41.537   1.804
25980W        W85483  19.100  37.385   3.711
25981W        W85484   9.157  18.718   2.840
25982W        W85485   8.717  30.554   9.922
25983W        W85486  37.407  31.946  14.830
25984W        W85487  21.164  41.308   0.411
25985W        W85488  22.626  21.576   2.365
25986W        W85489  43.948  25.543  13.987
25987W        W85490   9.827  18.176   0.396
25988W        W85491  13.200   5.431   1.329
25989W        W85492  35.945  39.473   1.236
25990W        W85493  29.581  21.522  11.569
25991W        W85494  28.584  17.720  11.509
25992W        W85495  32.056  42.821  13.418
25993W        W85496  43.980  16.160  13.827
25994W        W85497  12.315  40.888   4.705
25995W        W85498  36.356  35.504   2.851
25996W        W85499  20.271  26.684  13.929
25997W        W85500  42.486   1.351  14.884
25998W        W85501  39.938  20.712   0.805
25999W        W85502   4.719  23.526  13.307
26000W        W85503   5.792  23.724   3.195
26001W        W85504  27.080  17.678   2.205
26002W        W85505  27.196  40.047   3.667
26003W        W85506   6.844  23.052   4.135
26004W        W85507  23.699   3.389   0.333
26005W        W85508  34.113  13.841   1.775
26006W        W85509  26.996  12.247   1.294
26007W        W85510  15.214   1.799  14.362
26008W        W85511   1.483   5.318  12.872
26009W        W85512  35.509   7.190   1.440
26010W        W85513  34.605  26.595  11.506
26011W        W85514  26.510  17.165   4.796
26012W        W85515  11.811   7.784  11.409
26013W        W85516   3.798  40.924   1.211
26014W        W85517  41.924   8.819   3.801
26015W        W85518  20.535  20.570   1.444
26016W        W85519  14.304   8.708   2.267
26017W        W85520  21.136  38.356  11.874
26018W        W85521   9.756  33.508   0.347
26019W        W85522  24.212  44.994  12.996
26020W        W85523   0.389  32.885  11.981
26021W        W85524  32.011  13.786  11.527
26022W        W85525  39.448   9.885  13.897
26023W        W85526  41.460  31.497   2.184
26024W        W85527  25.164  33.898  10.900
26025W        W85528   7.701  36.577  13.005
26026W        W85529  24.033  26.098  11.890
26027W        W85530  24.071   9.771   2.853
26028W        W85531  42.404  10.681   1.904
26029W        W85532  23.009   5.194  14.459
26030W        W85533  34.920  35.904   1.387
26031W        W85534  22.196  34.546   4.615
26032W        W85535  26.637  18.227   0.468
26033W        W85536   0.842  22.108   9.497
26034W        W85537  20.082  16.811   3.724
26035W        W85538  37.835  18.660  10.635
26036W        W85539  19.140   1.436   2.784
26037W        W85540   3.297   5.758  13.332
26038W        W85541  32.520  33.105   3.292
26039W        W85542  24.992  37.985   0.409
26040W        W85543  30.636  43.774   1.815
26041W        W85544   2.421   7.374  14.780
26042W        W85545  28.621   5.426  10.554
26043W        W85546  17.571  13.114   3.212
26044W        W85547  29.072  37.006  10.507
26045W        W85548  26.537  37.439   2.820
26046W        W85549  26.693   2.892   0.968
26047W        W85550  32.931  41.862  14.863
26048W        W85551  40.386  39.824   4.258
26049W        W85552   5.828  31.940  14.449
26050W        W85553  32.118  17.163  14.337
26051W        W85554  32.476  31.580  14.303
26052W        W85555  28.983  25.068   3.781
26053W        W85556   6.324  11.343  12.960
26054W        W85557  43.885   1.811  14.997
26055W        W85558  42.893  14.265   3.864
26056W        W85559  31.953   1.347  13.350
26057W        W85560  37.048  40.033   2.859
26058W        W85561  40.346  41.436   0.424
26059W        W85562   3.775   3.353   2.247
26060W        W85563  34.932   7.837   4.272
26061W        W85564   9.251  13.136   0.359
26062W        W85565  39.998  25.676  11.442
26063W        W85566  34.496  18.086  11.869
26064W        W85567  22.593  40.543   3.363
26065W        W85568  10.732  37.038  14.478
26066W        W85569   8.800  25.616   3.738
26067W        W85570   4.252   0.304  11.495
26068W        W85571  13.282  44.845   3.735
26069W        W85572  21.567   5.900   0.473
26070W        W85573  14.628  41.313   1.430
26071W        W85574  29.927   4.392  12.481
26072W        W85575  16.655  29.013   2.838
26073W        W85576  13.217  38.981   0.742
26074W        W85577  35.954  14.099   2.819
26075W        W85578   9.170  29.651  14.405
26076W        W85579  31.519  13.840   3.793
26077W        W85580   4.413  44.876   1.336
26078W        W85581  43.850  43.827   4.640
26079W        W85582  39.827  39.868   2.255
26080W        W85583  42.298   3.399  10.562
26081W        W85584  28.157  44.830  13.460
26082W        W85585  32.597  42.015   2.857
26083W        W85586  34.932  10.798  14.999
26084W        W85587  23.702   3.361  14.351
26085W        W85588   0.349  21.663  13.539
26086W        W85589  38.853   7.231  14.978
26087W        W85590  12.269   1.932   4.665
26088W        W85591  23.064  33.461   2.407
26089W        W85592   1.927  31.647   3.805
26090W        W85593   5.377  18.145  14.504
26091W        W85594  11.315  36.907  13.959
26092W        W85595  15.190  14.300   0.411
26093W        W85596  11.678  25.621  14.412
26094W        W85597  20.605  14.174   0.430
26095W        W85598   2.792  42.776   1.348
26096W        W85599  44.902  30.046   4.350
26097W        W85600   4.784  25.653   2.867
26098W        W85601  36.023   3.284  11.086
26099W        W85602  27.142  34.904  10.436
26100W        W85603   2.375  19.710   2.357
26101W        W85604  37.406  35.483   2.728
26102W        W85605  26.112  10.211   1.385
26103W        W85606   9.299  35.876  10.590
26104W        W85607  32.923   5.417  13.419
26105W        W85608  32.886  13.131  14.342
26106W        W85609  41.895   4.789   3.796
26107W        W85610  16.294  37.837  13.346
26108W        W85611  23.721  32.585   4.340
26109W        W85612   5.875  10.737  14.486
26110W        W85613   3.872   9.277   3.378
26111W        W85614  25.208   6.412  10.637
26112W        W85615  12.329  10.749  13.537
26113W        W85616   5.261  34.480  10.445
26114W        W85617  35.551   2.787   0.371
26115W        W85618  44.834  32.542  10.610
26116W        W85619   3.907  29.003   0.779
26117W        W85620   0.493  17.789   2.772
26118W        W85621  17.203   9.859   2.186
26119W        W85622  39.449  36.067  10.625
26120W        W85623  15.667  40.318  12.385
26121W        W85624   2.344  21.193   2.840
26122W        W85625  24.009  10.744   1.722
26123W        W85626  23.116   3.827  14.277
26124W        W85627   0.800  42.968   2.281
26125W        W85628  21.204  18.182   1.324
26126W        W85629   0.416  34.411  10.478
26127W        W85630   9.726   8.265   1.341
26128W        W85631   0.852  41.476   3.266
26129W        W85632   3.384  39.454  13.061
26130W        W85633  38.375  29.571  14.330
26131W        W85634  10.141   7.333   2.330
26132W        W85635   3.815  15.679  11.070
26133W        W85636   8.172   3.311  14.482
26134W        W85637  22.665  40.343  12.892
26135W        W85638  27.161   9.830  11.082
26136W        W85639  26.632  21.651   2.356
26137W        W85640   6.862   1.327  14.008
26138W        W85641   5.905  17.578  14.503
26139W        W85642  35.397  27.067  14.471
26140W        W85643  39.474  32.612  14.813
26141W        W85644  12.189   9.868   4.148
26142W        W85645  13.162  43.883  14.278
26143W        W85646  12.719  14.121  12.450
26144W        W85647  41.406  29.495  12.482
26145W        W85648   7.311   1.355  12.985
26146W        W85649  38.032  30.484   0.367
26147W        W85650  34.467  39.893  14.904
26148W        W85651   0.892  25.096   0.914
26149W        W85652  18.671  14.323   4.264
26150W        W85653   3.293  15.187  11.047
26151W        W85654  13.214  31.101   0.923
26152W        W85655  30.990  14.588   9.950
26153W        W85656  44.927   4.943  10.497
26154W        W85657  10.271  37.938   3.317
26155W        W85658  44.879  13.703  14.506
26156W        W85659  23.992  32.425   2.787
26157W        W85660  25.076   6.722  10.631
26158W        W85661  31.988  35.107   3.850
26159W        W85662  42.870  43.867  10.464
26160W        W85663  22.721  28.465   1.878
26161W        W85664   5.712   0.977  14.275
26162W        W85665  42.995  43.430  11.118
26163W        W85666  30.629  27.569  12.955
26164W        W85667   9.811  37.523   1.795
26165W        W85668  44.332  37.565  11.567
26166W        W85669   4.371  40.471  14.891
26167W        W85670  11.322   9.312   3.366
26168W        W85671  18.646  22.044  13.330
26169W        W85672  15.249  14.313   4.159
26170W        W85673  11.645  29.152  13.800
26171W        W85674  34.975   4.271   0.792
26172W        W85675  16.699  17.303   1.722
26173W        W85676  10.369  27.145   1.428
26174W        W85677  40.313  41.864   3.637
26175W        W85678  21.710   1.267   1.222
26176W        W85679   4.772   8.286   3.346
26177W        W85680  25.055  33.904   1.921
26178W        W85681  23.534   7.734  11.454
26179W        W85682  39.969  14.660  12.470
26180W        W85683  19.049   2.432  10.497
26181W        W85684  36.971   9.296   2.805
26182W        W85685  32.891  29.424  14.291
26183W        W85686  29.488   5.402   0.838
26184W        W85687  39.815  13.198   2.193
26185W        W85688  23.178  22.711   4.316
26186W        W85689  42.339   0.479   2.828
26187W        W85690  40.049   0.785  11.890
26188W        W85691  44.361   1.369   5.304
26189W        W85692  19.745  12.711   4.633
26190W        W85693   6.882  16.754   3.289
26191W        W85694  12.224   0.481   1.865
26192W        W85695  44.962   2.959   3.225
26193W        W85696  44.981  17.612   3.238
26194W        W85697  30.924  39.828  13.917
26195W        W85698  20.189   7.195   1.737
26196W        W85699  44.287  14.336   4.637
26197W        W85700   2.938  17.559   1.322
26198W        W85701  36.057  34.094   4.599
26199W        W85702  14.612  36.536  10.491
26200W        W85703  37.361  10.709   3.170
26201W        W85704  40.354  21.041  14.909
26202W        W85705  39.024  11.827  12.043
26203W        W85706  28.595  23.639   0.774
26204W        W85707  40.303  30.546  11.086
26205W        W85708   5.849  37.546   1.422
26206W        W85709  17.741  28.486  12.354
26207W        W85710  21.257  11.142  10.939
26208W        W85711  17.715  42.783   1.797
26209W        W85712   7.282  35.067   4.625
26210W        W85713  24.694  16.813  11.994
26211W        W85714  40.334  29.040   5.155
26212W        W85715  15.087  35.505  12.955
26213W        W85716   1.286  17.677  12.506
26214W        W85717  29.141  23.054   2.734
26215W        W85718   1.325   6.258  14.809
26216W        W85719  18.720  28.939  10.590
26217W        W85720  43.860  10.203  13.467
26218W        W85721   8.699  19.734   5.231
26219W        W85722  35.911  17.655  12.923
26220W        W85723  24.558  37.936   1.820
26221W        W85724   4.282  44.981   1.702
26222W        W85725  19.550  19.274   0.355
26223W        W85726  29.505  16.275   3.182
26224W        W85727  12.626  26.555  13.003
26225W        W85728  10.797  21.661   0.446
26226W        W85729   6.698  12.845   2.785
26227W        W85730  10.846  28.562  11.968
26228W        W85731  28.570  14.274   3.795
26229W        W85732   9.266  41.314   4.648
26230W        W85733  22.531   9.396  10.947
26231W        W85734   0.874  30.075   1.882
26232W        W85735  12.260  36.057  13.959
26233W        W85736  15.734  20.193   5.233
26234W        W85737   9.235  35.000   1.697
26235W        W85738   3.885  11.174   4.695
26236W        W85739   3.418  25.206  12.859
26237W        W85740  35.951   1.270  12.393
26238W        W85741  24.994  20.551   2.182
26239W        W85742  12.676  31.513  11.376
26240W        W85743   8.722  34.369   0.805
26241W        W85744   5.317  37.434  12.530
26242W        W85745  29.478  24.681   0.911
26243W        W85746  41.874  13.845  13.061
26244W        W85747  34.053   6.306   3.752
26245W        W85748  12.122  40.825   3.637
26246W        W85749  32.913  11.294   3.381
26247W        W85750  17.195  34.455   4.785
26248W        W85751   7.687  35.556  13.791
26249W        W85752  27.034  41.453   2.824
26250W        W85753  20.551  15.279   0.739
26251W        W85754  25.207   7.174  11.453
26252W        W85755  13.665  19.190  11.919
26253W        W85756  10.276  39.925  13.374
26254W        W85757  26.021  10.685   1.749
26255W        W85758  24.584   4.280  13.886
26256W        W85759  15.603  22.507  14.009
26257W        W85760  19.130  17.277   1.862
26258W        W85761  34.370  27.964  10.888
26259W        W85762  37.949  37.022   1.398
26260W        W85763   2.237  41.956  10.480
26261W        W85764  34.117  12.855  12.094
26262W        W85765  21.744  13.119   3.766
26263W        W85766  41.885  18.556   0.422
26264W        W85767   0.750  42.295   2.194
26265W        W85768  25.601  41.992  12.464
26266W        W85769   0.486   8.695   4.738
26267W        W85770  42.903  28.042  14.902
26268W        W85771  32.583   0.382   2.764
26269W        W85772  36.973  42.462  10.952
26270W        W85773  35.994  30.135   1.786
26271W        W85774  28.083  26.584   0.830
26272W        W85775  21.579  10.227  10.131
26273W        W85776   3.824   4.365   4.314
26274W        W85777  20.236  10.313   2.823
26275W        W85778  25.089   2.446   0.253
26276W        W85779  21.149  30.098   0.463
26277W        W85780  28.453  39.317  14.500
26278W        W85781  26.204  29.573  14.842
26279W        W85782  37.054   9.664   1.364
26280W        W85783  13.716  24.212   3.330
26281W        W85784  44.988  40.442   0.282
26282W        W85785  17.689  27.652  14.475
26283W        W85786  35.390  33.435  12.851
26284W        W85787   7.838  40.505   4.129
26285W        W85788  23.053  20.174   1.259
26286W        W85789  15.650  42.315  11.107
26287W        W85790  20.188  39.392  10.576
26288W        W85791  23.561   4.363  13.045
26289W        W85792   6.219   2.428  14.934
26290W        W85793  30.555  36.528   0.290
26291W        W85794   3.912  35.494  13.982
26292W        W85795  37.021  12.752  14.998
26293W        W85796  37.415   0.773  10.485
26294W        W85797   4.708  42.799   9.964
26295W        W85798   5.433  31.954  14.910
26296W        W85799  19.150   3.759   1.261
26297W        W85800  34.866  20.171  13.986
26298W        W85801  12.268   7.849  13.928
26299W        W85802  34.600  35.456  11.566
26300W        W85803  31.016   0.749   2.411
26301W        W85804   3.889  44.929   4.775
26302W        W85805  28.070   1.253   0.314
26303W        W85806   3.854  24.722   4.321
26304W        W85807  30.981  37.922  12.898
26305W        W85808  27.677  29.503  12.416
26306W        W85809  38.491  42.977   4.268
26307W        W85810  35.984  13.236  13.954
26308W        W85811  14.618  32.011   1.369
26309W        W85812  11.283   6.314  10.953
26310W        W85813   9.202   0.844   0.779
26311W        W85814  22.126  40.965   0.767
26312W        W85815  34.930  30.509   2.800
26313W        W85816  15.702  36.408  12.941
26314W        W85817  33.448  31.087  14.776
26315W        W85818   8.686   3.358  14.505
26316W        W85819  27.993  35.103   4.217
26317W        W85820  41.829  27.002  10.506
26318W        W85821  13.709  30.607  14.488
26319W        W85822   8.656  10.207   4.220
26320W        W85823  18.229   7.292  13.791
26321W        W85824   6.705  31.127  10.563
26322W        W85825  28.963  28.121  11.429
26323W        W85826  22.066  31.529   3.696
26324W        W85827  35.041  27.469   2.349
26325W        W85828  43.497  19.076  14.449
26326W        W85829   0.756  12.262  12.847
26327W        W85830   6.371  17.725  11.867
26328W        W85831  35.547  29.966   1.790
26329W        W85832  31.144   7.255  13.528
26330W        W85833  41.002  28.595   2.801
26331W        W85834  13.183   6.788  13.490
26332W        W85835  32.109  20.123   1.892
26333W        W85836  10.338  23.578   3.815
26334W        W85837  21.141  33.882  12.882
26335W        W85838   7.699  26.484  11.581
26336W        W85839  39.530  22.007   3.265
26337W        W85840  11.146  40.845   2.746
26338W        W85841  11.747   1.439   3.180
26339W        W85842   4.731   9.766   3.841
26340W        W85843  36.428  15.796   9.944
26341W        W85844  44.347  43.802  10.956
26342W        W85845  31.407  33.422  14.419
26343W        W85846  28.126  15.727  14.481
26344W        W85847  11.816   9.224   2.253
26345W        W85848  42.840  33.093   3.820
26346W        W85849  14.812  29.518   1.397
26347W        W85850   7.702  30.131  12.043
26348W        W85851  27.958  36.914   4.620
26349W        W85852  10.296  16.083  13.923
26350W        W85853  13.152  30.530   0.857
26351W        W85854  19.139   6.847   1.291
26352W        W85855  28.631  16.297  13.882
26353W        W85856  19.204  22.709  14.022
26354W        W85857  41.959  41.817  13.048
26355W        W85858  13.248   7.854  13.012
26356W        W85859  28.051  29.113   0.300
26357W        W85860  26.060  38.972   2.388
26358W        W85861   0.769  17.179   4.354
26359W        W85862  16.608   7.735   3.283
26360W        W85863  42.999   8.386   2.221
26361W        W85864  16.598  20.262  14.446
26362W        W85865  13.633   8.361   2.391
26363W        W85866  20.687  15.726   4.325
26364W        W85867  42.993  21.756  11.050
26365W        W85868  10.778  10.827   0.888
26366W        W85869  19.070  26.199   1.793
26367W        W85870  40.351  36.964  13.439
26368W        W85871  39.820  38.900   1.757
26369W        W85872  36.991  44.483  14.026
26370W        W85873  24.140   6.748   1.710
26371W        W85874  24.062  21.642  12.827
26372W        W85875  36.466  11.814  14.281
26373W        W85876   4.316   5.406  10.914
26374W        W85877  19.271  19.659   0.472
26375W        W85878   4.272  20.723  10.893
26376W        W85879  17.646  30.926   4.177
26377W        W85880  31.430   7.205  11.591
26378W        W85881   7.259   8.833   0.297
26379W        W85882   4.876  34.473   0.436
26380W        W85883  18.559   0.983   0.383
26381W        W85884  18.630   6.804   2.310
26382W        W85885   1.941  22.584   3.732
26383W        W85886  43.449  23.029  11.971
26384W        W85887  40.424   8.842  11.586
26385W        W85888  29.434  39.822  11.510
26386W        W85889  15.822   6.868   1.410
26387W        W85890  19.541   2.227   2.892
26388W        W85891  35.601  22.095  10.433
26389W        W85892  21.647  34.060   1.933
26390W        W85893  34.560  11.781   2.715
26391W        W85894  19.686  22.547  13.479
26392W        W85895  17.146  26.041   3.378
26393W        W85896  26.659   2.309   1.269
26394W        W85897  40.414  26.142   0.931
26395W        W85898  21.692  26.970   2.260
26396W        W85899   2.935   7.769  14.289
26397W        W85900  40.848  38.069   2.331
26398W        W85901  39.038  16.674  12.037
26399W        W85902  11.792  10.248   3.757
26400W        W85903  10.344  20.541  10.467
26401W        W85904  34.431  15.301   9.623
26402W        W85905  43.827   4.256   2.708
26403W        W85906   2.248  26.578  12.067
26404W        W85907  36.590  39.519   0.411
26405W        W85908  33.405  18.767   2.216
26406W        W85909   2.824  41.307  11.968
26407W        W85910  44.994  25.979   1.770
26408W        W85911  36.959  39.837  12.892
26409W        W85912  39.438  40.828  11.386
26410W        W85913  29.957  37.887  13.027
26411W        W85914  19.179  23.614   3.701
26412W        W85915  23.984  33.126   2.763
26413W        W85916  29.464  12.264  12.026
26414W        W85917  23.141   4.841   1.307
26415W        W85918  12.824  10.240   3.825
26416W        W85919  32.391  23.546  14.956
26417W        W85920   3.387  18.099  10.611
26418W        W85921   8.363  15.734  11.476
26419W        W85922  26.594  41.976  14.939
26420W        W85923  15.302  18.659  13.956
26421W        W85924  12.123  32.628   3.282
26422W        W85925  33.472  36.371   5.779
26423W        W85926  37.515  28.024  11.069
26424W        W85927  28.534  38.995  11.878
26425W        W85928  28.098  22.509   1.909
26426W        W85929  35.041   3.748  12.070
26427W        W85930  28.953  42.498   0.482
26428W        W85931  14.105  27.039   0.330
26429W        W85932  27.690  36.013  14.495
26430W        W85933  44.868  40.018   2.870
26431W        W85934   0.383  31.146   0.915
26432W        W85935  35.405  40.431   3.149
26433W        W85936   9.848  10.653   3.329
26434W        W85937  30.599   9.344   5.089
26435W        W85938  13.105  39.852  12.055
26436W        W85939   4.731  35.475   1.415
26437W        W85940   2.802  14.769  13.383
26438W        W85941  23.559  42.845   2.753
26439W        W85942  39.348  25.132   0.796
26440W        W85943   6.267  37.936  10.644
26441W        W85944  25.609  44.324   3.822
26442W        W85945  22.030   6.731   4.710
26443W        W85946  34.491  27.615  10.573
26444W        W85947  27.034   4.275   2.311
26445W        W85948   7.186  38.854   3.811
26446W        W85949  18.237  28.177   0.895
26447W        W85950  17.193  16.790   4.277
26448W        W85951   8.322  28.968   2.831
26449W        W85952  28.162  16.140   1.883
26450W        W85953  32.635   6.259   1.448
26451W        W85954  44.937  17.797  13.381
26452W        W85955   7.189  19.209  13.824
26453W        W85956  19.192  22.501  14.939
26454W        W85957   7.305   1.469   2.366
26455W        W85958  40.392  39.905   2.178
26456W        W85959   5.238   0.945  11.090
26457W        W85960   8.897  32.598   3.785
26458W        W85961  12.837  15.617  11.080
26459W        W85962   1.326  10.753   4.143
26460W        W85963  14.592  33.074  10.641
26461W        W85964  15.749  36.943  11.126
26462W        W85965  44.928  16.639  13.907
26463W        W85966  22.571   4.234   4.116
26464W        W85967  30.598   7.417   0.808
26465W        W85968  42.811   2.722  11.073
26466W        W85969  32.921  32.093   2.180
26467W        W85970  10.856   4.350   1.237
26468W        W85971  40.514  25.661   1.389
26469W        W85972  36.363  25.990   2.702
26470W        W85973   9.709   4.940  13.057
26471W        W85974  26.204  43.946  11.377
26472W        W85975  13.234  33.510  14.313
26473W        W85976  24.123   8.886   0.358
26474W        W85977  30.142   7.865  13.536
26475W        W85978  28.130   4.322   2.207
26476W        W85979  20.032  15.183   1.447
26477W        W85980  10.355  39.970   4.838
26478W        W85981  21.088  31.942  14.005
26479W        W85982  17.772   5.843   3.775
26480W        W85983  12.761  27.948  11.528
26481W        W85984  44.470  37.008  11.944
26482W        W85985  43.393  32.004   0.305
26483W        W85986   0.436  38.929   2.818
26484W        W85987  14.126  16.626   0.763
26485W        W85988  15.328  35.448   0.858
26486W        W85989  31.973  18.215  13.812
26487W        W85990  25.647  17.694  11.879
26488W        W85991  30.062   6.716  13.426
26489W        W85992   9.749  16.299  12.004
26490W        W85993  15.602   5.214  14.914
26491W        W85994  21.064  24.645  13.480
26492W        W85995  39.057  23.066   3.176
26493W        W85996  20.134  15.210  14.501
26494W        W85997  29.135   5.837   2.370
26495W        W85998  41.412  11.221  10.478
26496W        W85999  10.723   0.821   0.775
26497W        W86000  10.208  31.458  13.523
26498W        W86001  15.800   5.359   0.379
26499W        W86002  34.886  15.303   4.131
26500W        W86003   7.209   5.855   4.802
26501W        W86004  16.183  18.213   1.297
26502W        W86005  16.576   0.383   4.154
26503W        W86006  32.484  27.593   2.736
26504W        W86007  41.879   2.463   2.192
26505W        W86008   7.711  40.530   0.934
26506W        W86009  32.454   3.441  11.034
26507W        W86010  22.597  20.741   3.674
26508W        W86011  13.799  12.285  11.502
26509W        W86012   4.222  13.131  13.832
26510W        W86013  42.871   6.310  13.922
26511W        W86014  33.589  30.449  13.973
26512W        W86015  25.044   8.265  10.621
26513W        W86016  17.161   9.817  14.406
26514W        W86017  42.953  39.819   1.380
26515W        W86018  16.096  42.471   0.755
26516W        W86019  17.159  11.310   1.732
26517W        W86020   9.389  19.085  13.397
26518W        W86021  28.550   6.309  10.455
26519W        W86022  21.223   4.368   0.341
26520W        W86023  31.622  28.613   1.785
26521W        W86024   2.236   5.434  10.594
26522W        W86025  10.208  38.924   1.440
26523W        W86026   0.248  39.343  12.439
26524W        W86027  31.999   6.255  12.969
26525W        W86028  29.582  35.065   4.249
26526W        W86029  12.342  21.039  12.976
26527W        W86030  11.230   0.423   4.117
26528W        W86031  40.837   6.876   0.770
26529W        W86032  11.353  13.290  11.025
26530W        W86033   7.774  30.033   2.712
26531W        W86034  25.558  38.908  10.111
26532W        W86035   3.380  11.709   0.831
26533W        W86036  14.680  41.481   2.256
26534W        W86037  43.392  17.177   0.352
26535W        W86038  33.902  20.269   3.361
26536W        W86039   4.346  28.943   1.819
26537W        W86040  10.167  33.439   2.245
26538W        W86041  22.203  34.972  12.484
26539W        W86042   6.768  40.498   4.300
26540W        W86043  13.831   0.840   2.330
26541W        W86044  14.819  22.061  12.862
26542W        W86045   4.844  36.433   2.356
26543W        W86046  34.959  16.236   0.772
26544W        W86047   1.784  36.892   1.236
26545W        W86048  27.131  24.688  11.925
26546W        W86049  23.220  25.215  10.432
26547W        W86050  37.394  44.843  13.057
26548W        W86051   7.417   3.307   4.133
26549W        W86052  12.732  14.115  14.445
26550W        W86053  29.967  31.592  13.527
26551W        W86054   4.342   5.377  11.427
26552W        W86055  36.412   9.885  10.997
26553W        W86056  20.256  42.343  12.975
26554W        W86057  10.268  16.254  10.523
26555W        W86058  30.641  22.088   2.338
26556W        W86059  15.794  32.076   5.197
26557W        W86060   2.291  30.606  13.912
26558W        W86061  21.548   2.737   2.813
26559W        W86062  13.682  18.184   1.744
26560W        W86063  44.496  36.472  12.850
26561W        W86064  41.012  25.004   4.730
26562W        W86065  12.817  20.528  14.910
26563W        W86066  17.198  34.907  13.506
26564W        W86067  11.622  17.756  12.072
26565W        W86068  26.649   4.442  14.868
26566W        W86069   8.773  24.497   2.252
26567W        W86070   6.691  31.986  12.959
26568W        W86071   0.354  34.601   2.329
26569W        W86072  39.824  14.289  14.967
26570W        W86073  28.140  21.715   4.618
26571W        W86074  24.494   1.313  12.835
26572W        W86075  42.795  41.429   1.260
26573W        W86076  23.636  16.567  12.458
26574W        W86077  34.872  30.525  13.914
26575W        W86078   5.308  41.436   0.792
26576W        W86079  19.039  35.404  12.480
26577W        W86080   3.318   6.207   4.679
26578W        W86081  10.145  44.934   0.251
26579W        W86082  29.151  43.458  14.481
26580W        W86083  22.205  21.639   2.767
26581W        W86084  16.256  28.508  14.366
26582W        W86085  41.297  20.067  11.114
26583W        W86086  29.133  27.548   3.345
26584W        W86087  36.891  21.757  12.914
26585W        W86088  31.136  20.668   2.382
26586W        W86089  12.782  23.102   1.435
26587W        W86090  11.791  14.680  14.477
26588W        W86091   9.255   6.770   4.783
26589W        W86092  32.420   3.936   3.654
26590W        W86093  22.040  18.121   2.815
26591W        W86094  23.582  12.676  13.822
26592W        W86095  17.096  21.623   4.811
26593W        W86096  33.545  20.160   1.308
26594W        W86097  41.338  36.889   4.615
26595W        W86098  42.503  35.006  12.494
26596W        W86099  29.488  25.211  14.351
26597W        W86100  33.908   1.900   1.401
26598W        W86101  34.104  38.448   3.313
26599W        W86102  24.495  15.118  11.604
26600W        W86103  26.194  35.519  11.020
26601W        W86104   8.366  16.161   4.285
26602W        W86105  24.110  12.632  13.528
26603W        W86106  22.726  40.465  10.965
26604W        W86107  34.949  22.502   4.634
26605W        W86108  23.501  29.168   1.363
26606W        W86109  30.144  11.820   0.385
26607W        W86110  22.528  43.464  12.002
26608W        W86111  25.120  28.141  10.634
26609W        W86112   5.872  14.726   3.200
26610W        W86113  33.490  44.757  14.813
26611W        W86114   6.188  33.939   2.870
26612W        W86115   2.266   0.401  10.462
26613W        W86116  10.162  35.398  11.373
26614W        W86117  34.378  15.734   9.521
26615W        W86118  40.908  29.086   4.675
26616W        W86119  34.880  22.579   0.865
26617W        W86120   7.394  34.901  14.906
26618W        W86121  36.447  32.445  14.327
26619W        W86122   9.301  36.374   2.710
26620W        W86123  26.964  35.451  14.845
26621W        W86124   8.352  21.605   3.680
26622W        W86125  17.294  20.085  14.337
26623W        W86126   3.790   8.237   4.354
26624W        W86127  22.620   4.833   4.128
26625W        W86128  10.744  10.184   0.936
26626W        W86129   0.827  20.611   2.865
26627W        W86130  15.152   6.232   3.669
26628W        W86131   2.443  10.653  13.805
26629W        W86132  11.155   7.762   1.748
26630W        W86133  26.125  10.202  12.847
26631W        W86134  20.207   7.824  12.019
26632W        W86135  43.950  35.925  12.060
26633W        W86136  41.441   7.219   0.919
26634W        W86137  24.702  38.459   1.841
26635W        W86138   9.237  20.198   4.625
26636W        W86139  43.829   5.812  13.473
26637W        W86140  42.319  35.002   2.801
26638W        W86141  13.241  39.827   3.651
26639W        W86142  25.081   0.477   1.258
26640W        W86143  10.810  30.463   3.812
26641W        W86144  44.367  19.232   0.428
26642W        W86145  35.018  13.299  11.999
26643W        W86146  32.977   2.756  14.354
26644W        W86147  33.568   1.934   9.942
26645W        W86148  31.632  35.422  10.948
26646W        W86149  29.569  19.700   2.859
26647W        W86150   7.288  32.398  10.917
26648W        W86151  38.832  40.485   2.864
26649W        W86152  13.260  17.162  11.524
26650W        W86153  25.149  29.648  14.907
26651W        W86154  40.005   1.856  13.872
26652W        W86155  15.745  41.454  14.409
26653W        W86156  34.416  36.391  10.631
26654W        W86157  28.182  41.380   2.839
26655W        W86158  26.658   5.735  11.948
26656W        W86159  38.940   0.970   4.326
26657W        W86160  22.516  13.651   4.762
26658W        W86161  32.959  15.667  14.004
26659W        W86162   7.199   6.893  10.629
26660W        W86163  39.830  44.924  12.522
26661W        W86164  20.744  39.839   4.809
26662W        W86165  42.029  44.337   1.699
26663W        W86166  13.244  36.934   4.829
26664W        W86167   3.255  31.526   3.815
26665W        W86168   6.370  31.125   3.318
26666W        W86169  42.777   9.375   0.394
26667W        W86170  16.812  41.886   2.866
26668W        W86171  26.173  12.353  12.058
26669W        W86172   2.457   4.289  14.814
26670W        W86173   7.237  29.624  13.984
26671W        W86174   3.781  42.399  12.944
26672W        W86175   1.918  13.281  11.387
26673W        W86176  41.836   9.735   0.318
26674W        W86177  18.592  31.903   0.479
26675W        W86178  30.496  38.462  10.019
26676W        W86179  41.014  27.644  14.996
26677W        W86180   6.911   2.854   3.694
26678W        W86181   3.241   0.251   4.283
26679W        W86182   2.848   3.378   4.691
26680W        W86183  42.489  44.391   4.670
26681W        W86184  31.469  39.357  12.930
26682W        W86185  21.022   5.841  13.039
26683W        W86186  39.526  40.335  12.446
26684W        W86187  39.332   2.226   2.765
26685W        W86188  33.020  12.668   0.839
26686W        W86189  24.547  35.889  10.498
26687W        W86190  13.649  20.741   0.342
26688W        W86191  44.287  41.403   0.410
26689W        W86192   7.851  11.745  12.360
26690W        W86193   2.264  37.557   1.437
26691W        W86194   6.750  42.324  14.408
26692W        W86195  42.364  39.501   1.773
26693W        W86196  30.027  22.740  13.798
26694W        W86197  24.546  30.015   3.294
26695W        W86198  27.586  13.653   3.330
26696W        W86199   4.383  37.947   2.724
26697W        W86200  30.596  29.648   2.862
26698W        W86201   9.804   0.422  12.574
26699W        W86202  35.093  30.419   4.617
26700W        W86203   6.213  42.431  13.003
26701W        W86204  17.759  12.711   4.257
26702W        W86205   5.278  32.568  14.883
26703W        W86206  17.179  12.301  12.577
26704W        W86207   9.784  31.144   3.642
26705W        W86208  39.007   1.770  13.369
26706W        W86209  43.312  39.467   1.811
26707W        W86210  20.134   8.654   0.835
26708W        W86211   2.440  37.512  11.592
26709W        W86212   1.432  20.571   3.250
26710W        W86213  36.883  11.639   3.814
26711W        W86214  25.122   1.975  13.377
26712W        W86215   1.788  43.504  12.387
26713W        W86216  37.477   2.391   1.309
26714W        W86217  41.906  29.065   3.363
26715W        W86218  25.578  28.652   2.849
26716W        W86219  38.021  23.035   2.327
26717W        W86220  39.377  20.730  13.859
26718W        W86221  10.694   4.756   4.796
26719W        W86222  22.687   7.324  14.996
26720W        W86223  13.838  15.806  10.939
26721W        W86224  31.447  19.118  10.643
26722W        W86225  20.765  31.969  12.064
26723W        W86226  14.189  35.037  12.825
26724W        W86227   7.301  11.753  14.353
26725W        W86228  39.411  39.436  13.524
26726W        W86229  31.000   0.404  11.371
26727W        W86230  29.618  33.875  12.961
26728W        W86231  23.707  35.413  14.027
26729W        W86232   1.845   0.313  13.001
26730W        W86233  16.681  25.630   3.249
26731W        W86234  35.562   4.761   4.657
26732W        W86235  41.441  38.896  10.981
26733W        W86236   2.953  27.572   0.385
26734W        W86237  18.276  44.435   2.344
26735W        W86238  29.428  11.343   4.206
26736W        W86239   8.854  42.785  12.843
26737W        W86240  21.680  42.801  12.831
26738W        W86241  31.612  11.812  12.413
26739W        W86242   6.186  22.050  10.497
26740W        W86243   8.343   2.813   0.325
26741W        W86244  15.327   0.302  14.880
26742W        W86245  16.092  44.821  13.897
26743W        W86246  38.503  39.470   2.870
26744W        W86247  24.679  25.604   2.788
26745W        W86248  23.645  21.203  12.903
26746W        W86249   5.215  24.145  11.106
26747W        W86250  13.691   9.364   1.383
26748W        W86251  36.562  25.070   2.752
26749W        W86252   3.919   7.783   2.209
26750W        W86253  10.346  30.129   2.846
26751W        W86254  13.654   0.354  10.453
26752W        W86255  43.369   3.296  11.527
26753W        W86256  42.460   1.321   4.802
26754W        W86257  32.508  41.859   0.736
26755W        W86258  12.632  23.721  12.096
26756W        W86259  44.376  41.826  13.957
26757W        W86260   1.935  23.120   0.914
26758W        W86261  26.080  32.430   4.327
26759W        W86262  12.680  27.046   4.701
26760W        W86263  21.260  42.783  11.988
26761W        W86264  41.854  19.068  13.422
26762W        W86265  28.557  27.124   5.315
26763W        W86266   7.870   3.410   3.336
26764W        W86267   2.244  20.681   4.788
26765W        W86268  30.092  32.895   3.811
26766W        W86269  36.843  27.481   1.806
26767W        W86270  40.952  44.498   3.752
26768W        W86271  44.338  35.028   0.776
26769W        W86272  20.691   8.787  14.492
26770W        W86273  12.846  40.322  12.990
26771W        W86274   9.296  34.115  14.012
26772W        W86275  29.163  25.027   0.922
26773W        W86276  21.563  34.011  12.945
26774W        W86277  33.550   1.920  10.414
26775W        W86278  37.872  21.173   5.092
26776W        W86279  27.962  44.790   3.341
26777W        W86280   0.468  26.021   3.171
26778W        W86281   5.923   0.425   0.451
26779W        W86282  12.318  12.166  11.393
26780W        W86283   0.813  40.385   1.286
26781W        W86284  11.181  21.116   4.259
26782W        W86285   6.860  37.394   1.428
26783W        W86286  44.759  22.081  13.022
26784W        W86287   7.259  42.283  11.602
26785W        W86288  23.552  34.456   2.679
26786W        W86289  19.174  19.649  14.787
26787W        W86290  10.236  44.429  11.881
26788W        W86291  25.697  28.069   2.193
26789W        W86292  30.151   1.843  10.511
26790W        W86293  26.495   4.241   0.352
26791W        W86294  34.048   4.777   1.346
26792W        W86295  39.460  40.999  11.880
26793W        W86296   2.460  28.494   0.289
26794W        W86297  21.218  12.854  14.979
26795W        W86298  35.011  39.962   4.242
26796W        W86299  41.942  28.498  13.544
26797W        W86300  10.375  26.692  13.056
26798W        W86301  33.922  12.159   2.406
26799W        W86302  20.064  28.937   2.876
26800W        W86303   0.427  42.980   0.352
26801W        W86304  11.282  41.000   4.298
26802W        W86305   7.412  18.286   3.323
26803W        W86306  11.705  36.994  12.083
26804W        W86307  19.664   3.338  10.909
26805W        W86308  18.198   4.343  11.558
26806W        W86309  23.724  19.631   4.736
26807W        W86310   0.753   8.303   4.331
26808W        W86311  31.460  28.670   0.751
26809W        W86312  12.153  16.174  14.913
26810W        W86313  17.235   3.269   4.207
26811W        W86314  32.915  34.885   3.757
26812W        W86315  10.157  23.658  13.981
26813W        W86316  24.502  43.439  11.381
26814W        W86317  11.184  33.503  13.016
26815W        W86318   8.309   0.908  13.038
26816W        W86319  20.080  27.164   1.749
26817W        W86320  28.435  26.512  13.401
26818W        W86321  14.268  14.099  14.894
26819W        W86322  14.202   4.897  11.506
26820W        W86323  24.662  24.717  10.487
26821W        W86324  19.540  14.736   4.332
26822W        W86325   6.188  35.872  14.348
26823W        W86326  17.207  24.634  11.099
26824W        W86327  14.280  41.873  11.956
26825W        W86328  12.617  32.054   2.770
26826W        W86329  19.253   1.392   0.404
26827W        W86330  25.219  20.644  11.905
26828W        W86331  25.674   4.842   2.871
26829W        W86332   4.728   1.427  12.352
26830W        W86333  44.838  33.595  10.127
26831W        W86334  43.401  28.674   1.436
26832W        W86335   0.348  16.105  10.135
26833W        W86336  38.529  41.933  14.460
26834W        W86337  30.947  35.465   3.146
26835W        W86338   2.904  35.100  11.994
26836W        W86339  17.566  13.208   4.735
26837W        W86340   7.324   5.858   2.297
26838W        W86341  35.019   5.251  13.945
26839W        W86342   1.756  19.100   2.303
26840W        W86343   0.433  19.260   2.184
26841W        W86344   4.764   7.346  12.912
26842W        W86345  32.124   4.285  12.954
26843W        W86346  14.103  11.283   4.305
26844W        W86347   8.759  44.964  14.387
26845W        W86348   2.817   5.437  13.362
26846W        W86349   3.379  14.649   0.907
26847W        W86350   1.738   7.872  12.948
26848W        W86351  23.061  10.233   0.334
26849W        W86352  33.105  42.389  13.981
26850W        W86353  36.502  18.232   2.786
26851W        W86354  19.121   1.425   4.301
26852W        W86355  44.769  41.948   3.218
26853W        W86356   5.395  31.014   4.771
26854W        W86357   0.454  13.628   0.761
26855W        W86358  39.432   8.846  10.111
26856W        W86359  33.880  43.813  12.488
26857W        W86360  34.386   4.790   3.170
26858W        W86361  10.351   8.698   1.738
26859W        W86362  44.291  24.991   0.359
26860W        W86363  11.647  37.445   4.819
26861W        W86364  10.268   7.201  10.134
26862W        W86365  44.947  34.517   0.431
26863W        W86366  36.938   9.155   3.316
26864W        W86367  17.608   1.430   1.321
26865W        W86368  30.542  42.290   1.237
26866W        W86369  18.671   8.245   3.643
26867W        W86370  19.119  19.766   2.373
26868W        W86371  31.488   6.224  10.542
26869W        W86372  40.361   8.848   0.434
26870W        W86373  28.989  28.520  14.420
26871W        W86374  18.721  22.198  12.826
26872W        W86375  19.186  24.091  12.524
26873W        W86376  23.593   3.781  13.031
26874W        W86377  29.438  20.030  14.332
26875W        W86378   8.665  23.692   4.226
26876W        W86379  10.814   9.700  10.457
26877W        W86380  31.499  40.333  12.002
26878W        W86381  34.085   6.335   2.823
26879W        W86382  13.782  22.078   0.871
26880W        W86383  27.168  30.589   1.284
26881W        W86384  27.162  37.468   2.372
26882W        W86385   9.811  21.683   1.298
26883W        W86386  24.658  44.499  14.855
26884W        W86387  35.557   2.274  11.037
26885W        W86388  26.158   9.204  14.501
26886W        W86389   2.909  19.588   1.714
26887W        W86390  14.776  15.187   1.855
26888W        W86391  12.845  11.827   2.234
26889W        W86392  10.345  44.443  13.920
26890W        W86393  33.446   5.835  13.882
26891W        W86394   1.948  12.285   0.395
26892W        W86395  18.231  21.696   4.242
26893W        W86396  42.828  23.129   3.756
26894W        W86397  27.983  36.512  12.470
26895W        W86398  25.000  26.607   3.824
26896W        W86399  37.562  31.150   2.869
26897W        W86400  43.365  26.019   2.715
26898W        W86401  13.652   7.404   4.249
26899W        W86402   2.776  13.211   3.751
26900W        W86403  35.547   8.692  12.559
26901W        W86404  24.218  22.247  14.361
26902W        W86405  38.017   5.251   3.350
26903W        W86406  29.545   7.221  11.506
26904W        W86407  17.750   0.291   0.953
26905W        W86408  18.262  19.628  10.642
26906W        W86409   7.697  30.932  13.473
26907W        W86410  44.399  38.942   1.794
26908W        W86411  32.908  27.598   0.440
26909W        W86412  13.670  36.469   0.956
26910W        W86413  22.602  41.959  10.448
26911W        W86414  16.572  41.873   3.659
26912W        W86415  17.300  42.948   4.195
26913W        W86416  32.128  31.967   0.966
26914W        W86417   8.682   2.930  12.946
26915W        W86418   7.293  25.217   2.762
26916W        W86419  25.103  21.052   1.888
26917W        W86420  28.134  36.371   2.727
26918W        W86421  40.002  12.183   2.308
26919W        W86422  33.034  36.556   2.691
26920W        W86423  23.024  26.080   0.408
26921W        W86424  22.505  19.085  11.968
26922W        W86425  44.927  37.565  10.521
26923W        W86426  19.174  43.298   3.758
26924W        W86427  16.242  30.950  13.910
26925W        W86428   9.859  33.571  13.002
26926W        W86429  39.944   6.806  12.353
26927W        W86430   0.855  38.077  12.873
26928W        W86431  26.201  26.587   0.889
26929W        W86432  43.015  11.696  14.876
26930W        W86433  16.246  20.165  11.461
26931W        W86434   1.843   6.813   1.888
26932W        W86435  32.029  21.617  12.378
26933W        W86436  17.197   1.889   2.204
26934W        W86437  24.050   4.259  12.084
26935W        W86438  34.456   2.862   4.816
26936W        W86439  29.969  39.994   2.286
26937W        W86440  35.397  29.469   2.732
26938W        W86441  32.617   8.202   0.897
26939W        W86442  31.022   7.353  14.404
26940W        W86443  19.600  31.615  10.585
26941W        W86444  35.025  39.421  12.950
26942W        W86445   7.856  42.406   4.673
26943W        W86446  40.508  25.134  11.124
26944W        W86447  43.942  11.222  13.868
26945W        W86448  40.979  20.621  10.420
26946W        W86449  18.649  41.389   3.195
26947W        W86450  25.583  21.675   2.706
26948W        W86451  44.978  33.029  12.529
26949W        W86452  39.314  19.140   1.224
26950W        W86453  29.480  23.144  10.422
26951W        W86454  20.642   0.976   4.176
26952W        W86455   0.312   1.847  10.635
26953W        W86456  12.814  40.997  12.572
26954W        W86457  27.661   3.870   9.547
26955W        W86458  24.597  24.480   2.818
26956W        W86459  17.746   4.833  14.438
26957W        W86460  14.265  10.309  12.971
26958W        W86461  17.580   4.341   0.865
26959W        W86462  19.087  30.487   4.176
26960W        W86463  24.183  34.395  13.046
26961W        W86464  32.081  15.783  14.497
26962W        W86465  44.913  27.010  11.555
26963W        W86466  17.569  10.342  11.523
26964W        W86467  34.095   9.889  13.903
26965W        W86468  16.567  10.829   0.741
26966W        W86469  42.428  16.271  10.608
26967W        W86470   7.749  37.550  10.634
26968W        W86471  21.659  34.042  13.955
26969W        W86472  25.104  27.996   1.727
26970W        W86473  17.595   3.322   1.927
26971W        W86474   6.181  10.810  13.839
26972W        W86475  12.763  15.311   3.793
26973W        W86476  19.206  30.112   2.290
26974W        W86477  34.441  32.932   2.851
26975W        W86478  41.297  31.635   0.802
26976W        W86479  28.658  13.768  10.039
26977W        W86480  27.087  12.815   3.356
26978W        W86481  35.443  40.507   0.286
26979W        W86482   7.218  23.496   4.116
26980W        W86483  32.567   1.440  14.031
26981W        W86484  42.859  17.785   1.323
26982W        W86485  21.754  32.517   0.764
26983W        W86486  35.098  29.436   0.792
26984W        W86487  37.997  18.127  13.539
26985W        W86488  40.537  17.799   0.962
26986W        W86489  40.922  42.956  14.289
26987W        W86490  35.961   6.419  13.984
26988W        W86491  41.786  22.024  12.501
26989W        W86492  21.512  20.680  11.874
26990W        W86493   4.860   8.829  11.428
26991W        W86494  39.990  16.693  13.397
26992W        W86495  28.445  30.557   3.702
26993W        W86496  30.021  24.503   2.803
26994W        W86497  44.356  15.242   3.842
26995W        W86498   7.774   6.240  14.478
26996W        W86499  24.572  11.830  11.589
26997W        W86500   6.686   8.334   4.785
26998W        W86501  20.683  36.977   2.244
26999W        W86502   7.800  23.643  13.331
27000W        W86503  21.515  17.220  11.891
27001W        W86504  17.758  12.139  11.456
27002W        W86505  31.594  21.704   2.674
27003W        W86506  33.601  41.494  14.448
27004W        W86507  22.141  28.089   3.715
27005W        W86508  23.594   0.934   1.785
27006W        W86509  22.025  22.059   1.841
27007W        W86510   8.327  16.656   1.332
27008W        W86511  43.359  34.976   1.783
27009W        W86512  22.574   4.450  13.318
27010W        W86513  38.029   3.221   0.863
27011W        W86514  38.340  22.682  13.325
27012W        W86515  36.875   1.964  10.903
27013W        W86516  27.507  28.555   9.510
27014W        W86517  28.071  40.462  14.958
27015W        W86518  19.673  36.920  14.820
27016W        W86519  31.445  32.477   1.759
27017W        W86520  41.016  15.707   1.415
27018W        W86521  23.534  44.346   1.430
27019W        W86522  43.834  18.063   0.942
27020W        W86523   0.443  10.854  14.457
27021W        W86524  28.159  36.533  10.643
27022W        W86525  39.439  25.502  13.820
27023W        W86526  18.648  11.696   1.413
27024W        W86527  35.526  18.184   1.893
27025W        W86528  37.352  18.134  11.006
27026W        W86529  19.621  24.703  11.097
27027W        W86530  44.851  12.836   0.412
27028W        W86531  32.902  11.372  14.971
27029W        W86532   6.424  28.001  11.509
27030W        W86533  25.657  32.415   4.782
27031W        W86534   5.392  15.593  11.096
27032W        W86535  17.569  34.880   3.161
27033W        W86536  39.953   3.309  11.407
27034W        W86537  22.055  17.090   2.212
27035W        W86538  13.798  18.636   2.400
27036W        W86539  21.259  25.507   0.790
27037W        W86540  43.848   2.824   4.831
27038W        W86541   5.365   1.868  13.407
27039W        W86542  41.333  25.134  13.349
27040W        W86543   6.896  33.440   0.964
27041W        W86544   5.270   9.174  12.364
27042W        W86545  31.426  38.519   2.251
27043W        W86546   3.366  43.972   2.866
27044W        W86547  24.707  10.280  10.094
27045W        W86548  28.673  16.269   4.803
27046W        W86549  44.287  36.488  14.338
27047W        W86550  43.306  21.680  14.477
27048W        W86551  26.670   3.460  10.411
27049W        W86552  42.978  11.817  12.972
27050W        W86553   8.828  16.263  11.949
27051W        W86554  19.534  17.205   3.278
27052W        W86555  26.531  17.142  11.029
27053W        W86556   9.330  19.196   3.772
27054W        W86557  35.492  14.790  12.963
27055W        W86558  23.087   9.166  14.880
27056W        W86559   1.754  41.392   3.764
27057W        W86560   2.758   3.315  12.439
27058W        W86561  10.797  30.912  12.924
27059W        W86562  21.024   9.812  12.060
27060W        W86563  27.012  38.894  13.315
27061W        W86564   4.242  30.943   0.930
27062W        W86565  27.006  19.272  12.025
27063W        W86566   1.791   7.875  13.791
27064W        W86567   8.817   5.703   1.726
27065W        W86568  32.557  19.773  14.514
27066W        W86569   1.843  12.320   0.812
27067W        W86570  32.921  16.086  12.352
27068W        W86571  10.305  13.792  10.907
27069W        W86572  22.511  31.922  10.557
27070W        W86573  11.292  18.092   4.600
27071W        W86574  14.744  28.514   4.136
27072W        W86575  15.274  33.931   1.288
27073W        W86576   5.695  12.217  13.452
27074W        W86577  31.539  42.350  13.461
27075W        W86578  14.820  36.359   0.927
27076W        W86579   2.957  43.856   0.411
27077W        W86580   7.407  35.559   1.285
27078W        W86581  21.738  25.053   2.401
27079W        W86582  36.970   4.433   1.273
27080W        W86583  30.434  29.169   0.918
27081W        W86584  37.495  28.107  13.351
27082W        W86585   1.818  14.635   0.890
27083W        W86586  42.895  28.538   4.629
27084W        W86587  18.611  11.149  13.397
27085W        W86588  14.094  44.435  13.370
27086W        W86589  30.417   0.983  14.843
27087W        W86590  39.029  35.478   2.185
27088W        W86591  34.507  11.166  13.499
27089W        W86592   5.776   3.918   4.644
27090W        W86593  16.090  41.360  11.008
27091W        W86594   0.743   1.408  12.858
27092W        W86595  19.753  33.389   2.351
27093W        W86596  23.604  32.483  13.008
27094W        W86597  18.082  30.482  12.007
27095W        W86598  40.959  20.759  12.571
27096W        W86599  27.045  24.976   5.195
27097W        W86600  21.236  19.648   0.270
27098W        W86601   9.257   0.341   1.730
27099W        W86602  11.220  22.006  11.573
27100W        W86603  13.316  17.648  13.350
27101W        W86604  42.447  25.124  11.607
27102W        W86605  35.988  35.903  14.850
27103W        W86606  24.718   5.296  11.874
27104W        W86607  29.091  16.749  10.051
27105W        W86608  41.366  28.533  10.640
27106W        W86609  23.545  38.519   0.464
27107W        W86610  23.491  20.036   3.258
27108W        W86611  35.362  30.064   0.274
27109W        W86612  26.037  34.051  14.416
27110W        W86613  34.554  30.107  13.991
27111W        W86614  32.592  44.913   4.249
27112W        W86615  42.893  44.905  13.927
27113W        W86616  41.837  39.872  13.420
27114W        W86617  44.798  39.830   3.655
27115W        W86618  12.781   2.723   3.738
27116W        W86619  39.362  13.302   2.738
27117W        W86620  33.544  22.012   0.383
27118W        W86621  30.543  43.776  12.470
27119W        W86622  28.120  27.630  14.310
27120W        W86623  37.994  36.944  14.879
27121W        W86624  37.037   6.327   3.650
27122W        W86625  22.709  33.466  13.365
27123W        W86626  17.242  17.789   3.261
27124W        W86627  28.556  29.087   4.294
27125W        W86628  11.639  22.634   1.329
27126W        W86629  43.792  29.540   2.203
27127W        W86630  37.890  13.177   1.715
27128W        W86631  17.253  17.765   1.405
27129W        W86632  24.033  20.137   2.668
27130W        W86633  14.588  40.371  11.912
27131W        W86634  42.400  13.829   0.353
27132W        W86635   1.371  39.842  11.465
27133W        W86636   1.355  19.588   3.832
27134W        W86637   1.882  33.038  11.106
27135W        W86638  12.800   5.426  14.953
27136W        W86639  12.185  40.479   0.886
27137W        W86640  10.287   9.370  13.396
27138W        W86641  42.451  32.622  14.939
27139W        W86642   5.880  14.831  14.958
27140W        W86643  22.689   9.671  12.995
27141W        W86644  12.347  16.243   3.671
27142W        W86645  24.043  18.188  10.611
27143W        W86646  24.695  21.567   1.312
27144W        W86647  41.374  21.161   0.920
27145W        W86648  40.954  32.627  10.406
27146W        W86649  37.368  18.241   2.738
27147W        W86650   8.255  43.782   2.894
27148W        W86651   9.765  15.723  11.994
27149W        W86652   1.333  13.277   3.852
27150W        W86653  33.613  22.529   3.833
27151W        W86654  19.179  33.918  13.907
27152W        W86655  36.539  44.789  11.118
27153W        W86656  34.971  22.591  11.917
27154W        W86657  15.268   0.293   2.847
27155W        W86658  21.555  34.368  12.956
27156W        W86659  38.552  34.042  14.769
27157W        W86660  36.395  39.538  10.587
27158W        W86661   1.960  19.678   3.817
27159W        W86662  32.993  21.235  11.551
27160W        W86663  23.995   3.277  11.547
27161W        W86664  29.547   7.336   2.805
27162W        W86665  39.860  25.032   3.721
27163W        W86666  12.316  11.655   4.296
27164W        W86667  20.577  31.901  12.574
27165W        W86668  43.347  21.111  10.627
27166W        W86669  43.297  43.397  14.888
27167W        W86670  15.794   8.671  10.942
27168W        W86671   0.439  35.914  13.350
27169W        W86672   4.742   8.188   0.787
27170W        W86673  24.702  13.743   3.783
27171W        W86674  24.523  41.027  13.986
27172W        W86675  18.544   3.860   3.291
27173W        W86676  17.235  28.984  12.370
27174W        W86677  41.530   1.397  10.540
27175W        W86678   7.242  23.150  13.509
27176W        W86679  38.928  39.353  11.941
27177W        W86680  33.096  25.638  14.349
27178W        W86681   5.341   3.290   3.776
27179W        W86682   2.318  24.196  10.020
27180W        W86683  35.024  21.039  10.899
27181W        W86684   0.473   9.744   1.721
27182W        W86685  38.988   5.347  12.518
27183W        W86686  37.910  36.593   2.232
27184W        W86687  19.097  10.265  12.886
27185W        W86688  40.515  37.944  13.537
27186W        W86689  33.959  35.001  13.867
27187W        W86690  29.927  39.376   0.822
27188W        W86691  31.570  39.040  11.468
27189W        W86692  30.002   5.898  11.019
27190W        W86693  38.368   7.830   1.423
27191W        W86694   2.393   8.240  11.925
27192W        W86695  33.975  15.201  12.563
27193W        W86696  26.467  28.041   1.388
27194W        W86697  25.478  12.278   0.320
27195W        W86698   2.392   7.890   3.302
27196W        W86699  35.529  40.365  13.329
27197W        W86700  30.511  21.161  14.880
27198W        W86701   6.737  33.520  10.495
27199W        W86702  33.598  24.095  12.507
27200W        W86703   2.869   4.897  10.900
27201W        W86704  13.834  12.279  13.983
27202W        W86705  26.594   0.470   1.773
27203W        W86706  41.867  12.628  12.444
27204W        W86707  21.021  31.014  14.474
27205W        W86708  26.697   0.848   4.801
27206W        W86709  38.551  10.267  12.556
27207W        W86710  37.058  31.902   2.755
27208W        W86711  10.674  29.558   1.759
27209W        W86712   4.403  23.145  11.409
27210W        W86713  11.252   2.764   4.266
27211W        W86714   1.379  17.196   0.366
27212W        W86715   9.821  40.401  10.906
27213W        W86716  32.015  15.611  13.985
27214W        W86717   5.765  36.462   3.659
27215W        W86718  12.335  39.486   1.316
27216W        W86719   1.453   7.911  11.115
27217W        W86720   6.192  17.606  10.055
27218W        W86721  19.536   0.266  12.895
27219W        W86722   9.813  15.734   3.631
27220W        W86723  38.366  24.129   1.281
27221W        W86724  26.104  19.568  11.581
27222W        W86725  21.535  23.500   4.604
27223W        W86726   0.486  31.036  12.517
27224W        W86727  33.495  19.577  10.065
27225W        W86728  42.401   9.184  12.939
27226W        W86729   6.748   6.334  11.061
27227W        W86730   3.266  10.246   5.220
27228W        W86731  31.940  38.068   1.766
27229W        W86732  31.531  36.574   4.689
27230W        W86733   1.337   7.327  12.461
27231W        W86734   3.777  13.183  14.886
27232W        W86735  31.599  18.192   4.303
27233W        W86736  43.970  32.006  14.940
27234W        W86737   6.318  26.613  10.536
27235W        W86738  29.935   6.892  11.399
27236W        W86739   3.800   1.288   0.889
27237W        W86740  42.402   7.222  11.073
27238W        W86741   6.248  44.945  11.002
27239W        W86742   1.421  25.175   2.413
27240W        W86743  40.971  43.270  13.986
27241W        W86744   1.293  30.566   2.409
27242W        W86745  33.585   6.740  13.521
27243W        W86746   3.935  16.618   4.151
27244W        W86747  44.982   8.786  13.500
27245W        W86748  23.705  17.305  11.926
27246W        W86749  13.321  41.498   3.681
27247W        W86750  16.677  12.780  10.929
27248W        W86751  40.470   1.801   1.715
27249W        W86752   6.786  18.698   3.151
27250W        W86753  23.006  31.945   3.346
27251W        W86754   6.322  41.850   4.635
27252W        W86755  44.998  41.508   2.769
27253W        W86756  40.956  24.223   4.782
27254W        W86757  28.024  30.491   4.795
27255W        W86758  39.500  23.662  11.025
27256W        W86759  24.218  31.550  11.513
27257W        W86760   7.847  21.756  10.992
27258W        W86761   3.746  29.616  14.839
27259W        W86762  30.996  19.661   1.874
27260W        W86763   4.396   3.263   2.307
27261W        W86764  33.075   8.336   2.244
27262W        W86765  16.170   6.887  10.454
27263W        W86766  25.577  13.334  14.967
27264W        W86767  25.586  12.356   3.386
27265W        W86768  14.107   2.236   4.791
27266W        W86769  34.027  11.813  11.389
27267W        W86770   8.346  17.761   5.228
27268W        W86771  17.299  14.196  11.498
27269W        W86772   4.935  24.542  13.477
27270W        W86773  43.986  28.160  12.991
27271W        W86774   4.872  25.210  13.334
27272W        W86775  41.336  26.693   4.691
27273W        W86776  22.239   7.853   0.828
27274W        W86777  15.266   2.785  14.441
27275W        W86778  25.130  43.413  13.474
27276W        W86779  20.714   2.806   0.255
27277W        W86780  20.546  17.661  12.359
27278W        W86781   8.283   6.201  10.888
27279W        W86782  18.656  37.570   4.646
27280W        W86783  28.551   8.231   4.778
27281W        W86784  34.556  14.830   0.457
27282W        W86785  40.838  41.029   2.362
27283W        W86786  28.086  18.276   9.937
27284W        W86787  20.031   9.805   3.293
27285W        W86788  22.995  13.751  14.932
27286W        W86789   9.166  14.112   2.332
27287W        W86790  43.857  41.827  11.860
27288W        W86791  21.642  15.648   2.903
27289W        W86792  26.476  31.109   3.333
27290W        W86793  37.508  31.620   4.747
27291W        W86794   6.895  30.150  14.360
27292W        W86795  26.694  13.351  11.974
27293W        W86796  24.995  36.858   4.818
27294W        W86797   3.456   1.888   2.762
27295W        W86798  21.667  38.365   3.231
27296W        W86799  11.713  37.891  10.644
27297W        W86800  16.616  32.906  10.519
27298W        W86801   1.853  26.092  11.534
27299W        W86802  37.911  17.223  12.907
27300W        W86803  35.420  33.920   4.245
27301W        W86804  26.972   8.221  11.535
27302W        W86805  24.683  15.586  14.864
27303W        W86806  17.787  16.201   4.598
27304W        W86807  40.855  17.067  11.556
27305W        W86808  32.564  26.141  10.459
27306W        W86809  43.850  43.016   0.743
27307W        W86810   1.322  29.636   5.255
27308W        W86811  22.716  33.943  14.863
27309W        W86812  36.950  41.419  12.501
27310W        W86813  27.643  27.136  14.464
27311W        W86814   7.307  43.342   2.403
27312W        W86815   8.258  33.491  13.857
27313W        W86816  29.014  10.169  13.312
27314W        W86817  22.547  29.531   0.916
27315W        W86818  19.650  18.683   0.465
27316W        W86819  14.214  21.102   4.709
27317W        W86820  41.957  21.062   1.904
27318W        W86821  42.436  24.013  10.576
27319W        W86822   0.255  41.813  13.488
27320W        W86823  29.075  34.957  11.576
27321W        W86824   0.830   4.749   2.875
27322W        W86825  38.551  23.196   1.322
27323W        W86826  42.423   9.889  14.309
27324W        W86827   1.480  41.813  13.950
27325W        W86828  18.064  13.263  12.476
27326W        W86829  36.453  19.542   4.274
27327W        W86830  15.154  34.903   4.188
27328W        W86831  25.096  25.676   4.328
27329W        W86832  26.477  12.764  11.573
27330W        W86833   2.940  10.729   4.304
27331W        W86834   3.948  22.597   0.889
27332W        W86835  17.735   9.188   2.419
27333W        W86836  33.545   0.772   2.227
27334W        W86837  34.495  32.583   2.355
27335W        W86838  11.800  34.375   4.637
27336W        W86839  34.093  42.883   1.831
27337W        W86840  31.518  12.342   3.699
27338W        W86841  18.115  37.067   4.672
27339W        W86842  20.249  30.986   3.784
27340W        W86843  40.967  21.695  11.060
27341W        W86844  40.865   9.163  13.793
27342W        W86845  13.710  37.903   2.249
27343W        W86846   5.281   6.199   1.720
27344W        W86847  36.976  24.157   3.820
27345W        W86848  33.976   7.400   1.700
27346W        W86849  34.499  13.816  12.054
27347W        W86850  13.108   3.457  13.838
27348W        W86851  38.072  44.878   3.199
27349W        W86852   9.262  13.339  13.918
27350W        W86853  12.167   8.820  12.442
27351W        W86854  36.529  14.264  14.484
27352W        W86855  40.917   9.654   4.601
27353W        W86856  14.328  15.704   0.909
27354W        W86857  40.522  27.520  10.922
27355W        W86858  30.579  32.613  10.468
27356W        W86859  42.288  37.510   3.367
27357W        W86860  27.620  31.121  14.451
27358W        W86861  18.070  37.901   0.387
27359W        W86862   2.375  24.093   2.281
27360W        W86863  12.222  32.031   5.616
27361W        W86864  21.129   4.803  11.475
27362W        W86865  22.703  19.725  13.905
27363W        W86866  12.769  37.871   1.309
27364W        W86867  33.568  28.647   3.862
27365W        W86868  21.156   9.373  12.344
27366W        W86869  15.107   4.895   2.228
27367W        W86870  24.575  29.152   4.174
27368W        W86871  14.829  21.219   2.305
27369W        W86872   1.935   6.710   2.807
27370W        W86873  30.427  39.926   0.756
27371W        W86874  42.336  19.181   0.310
27372W        W86875  35.603  22.604  10.541
27373W        W86876   3.777  34.006   4.181
27374W        W86877  29.563   8.242   3.279
27375W        W86878  32.945  35.503   3.214
27376W        W86879   5.386  12.784  10.413
27377W        W86880   7.894  18.218   3.805
27378W        W86881  41.384   5.915  12.837
27379W        W86882   1.820  34.979   3.838
27380W        W86883  34.549  22.666  12.975
27381W        W86884   9.808   0.342  13.840
27382W        W86885  38.452  25.194   1.263
27383W        W86886   7.819   6.731  11.002
27384W        W86887  40.492  34.985   0.437
27385W        W86888  34.465  19.538  10.904
27386W        W86889  13.192  19.740  12.492
27387W        W86890  19.270  41.535  12.974
27388W        W86891  39.886  33.123  12.002
27389W        W86892  35.895  42.439  12.422
27390W        W86893  12.700  37.007  14.480
27391W        W86894  17.559  39.461   3.776
27392W        W86895  11.284  23.715  13.516
27393W        W86896  18.244   7.409  10.407
27394W        W86897  20.254  29.608  14.028
27395W        W86898  13.714   5.354  13.033
27396W        W86899  14.209  28.030   1.831
27397W        W86900  14.680   5.897   2.193
27398W        W86901  20.176  41.872   0.936
27399W        W86902  42.024  12.816  13.521
27400W        W86903   1.913  36.523   3.699
27401W        W86904   3.778  39.525  13.804
27402W        W86905  42.350  25.990  12.479
27403W        W86906  32.628  17.745   4.781
27404W        W86907   2.314   0.271  13.818
27405W        W86908  20.650   3.358  13.867
27406W        W86909  30.917   4.341  10.942
27407W        W86910  23.675  11.355  10.582
27408W        W86911  26.130  42.831   3.795
27409W        W86912  44.815  23.060   3.197
27410W        W86913  34.527  17.197  11.124
27411W        W86914   2.930  35.379  12.877
27412W        W86915  12.147  34.066   5.757
27413W        W86916   3.380  23.135   4.787
27414W        W86917  41.791  13.331   0.945
27415W        W86918   6.402  19.080  11.881
27416W        W86919   0.861  37.366   3.370
27417W        W86920  20.230  16.761  10.472
27418W        W86921  30.485   3.927   2.786
27419W        W86922  26.081  39.041   4.723
27420W        W86923   7.728  18.095   2.865
27421W        W86924  30.502  30.644  12.924
27422W        W86925  31.573  42.358  13.936
27423W        W86926  28.933  31.476   0.386
27424W        W86927   0.978  23.172   5.227
27425W        W86928  41.492   5.216   1.753
27426W        W86929   1.243   9.723  10.582
27427W        W86930  28.022  33.076  13.889
27428W        W86931  43.460  11.173   3.697
27429W        W86932  24.228   7.868   4.328
27430W        W86933  18.735   6.782  10.551
27431W        W86934  32.062  43.929   0.950
27432W        W86935  12.836  30.071   0.458
27433W        W86936   9.728  32.073  13.007
27434W        W86937  38.874  27.593  14.016
27435W        W86938  11.756  15.631   4.676
27436W        W86939  33.982  31.053   1.934
27437W        W86940  35.041  14.609  10.444
27438W        W86941   6.895  19.704   3.869
27439W        W86942  38.969  20.228   3.835
27440W        W86943   4.404  44.298   4.173
27441W        W86944  41.945  22.712  14.373
27442W        W86945  19.594  40.032  12.429
27443W        W86946  37.859  28.447   4.266
27444W        W86947  36.582  43.791  11.968
27445W        W86948  31.514   9.663  12.878
27446W        W86949  43.371  30.135  14.799
27447W        W86950   6.418  25.589   4.674
27448W        W86951  13.638   8.874  13.503
27449W        W86952  36.969  17.301   3.787
27450W        W86953  30.103  15.255   1.912
27451W        W86954  20.083  40.002   1.935
27452W        W86955  37.038   8.869  10.530
27453W        W86956  43.990  24.554  13.053
27454W        W86957  19.727  13.343   1.366
27455W        W86958  22.514  27.948   2.326
27456W        W86959  40.547  41.341   3.789
27457W        W86960  14.176  17.580   2.821
27458W        W86961   4.834  30.642   9.983
27459W        W86962  18.076  25.535  14.516
27460W        W86963  28.438  15.637  14.926
27461W        W86964  28.528   2.953  10.536
27462W        W86965  12.168  14.623   4.748
27463W        W86966   0.361   7.274  12.966
27464W        W86967  14.714  27.056  14.985
27465W        W86968  37.361  37.961  12.073
27466W        W86969  33.464  12.275  11.938
27467W        W86970  24.615   7.783   0.926
27468W        W86971  21.152  33.037   1.375
27469W        W86972   3.837  25.025   4.123
27470W        W86973  30.458   7.895   1.886
27471W        W86974  17.296  15.630   4.677
27472W        W86975   2.929  30.657   1.709
27473W        W86976  15.730  24.012   4.735
27474W        W86977  24.162   9.390   3.384
27475W        W86978   4.793  12.813  11.494
27476W        W86979   4.799   4.829   4.354
27477W        W86980  18.580   3.267  14.279
27478W        W86981  24.082  29.575  10.001
27479W        W86982  43.842  43.474   3.153
27480W        W86983  10.789  11.266   1.873
27481W        W86984   9.304   7.343  13.434
27482W        W86985  14.722  23.002   0.414
27483W        W86986  32.428  11.784   0.859
27484W        W86987  30.461  43.866   2.292
27485W        W86988  11.828   7.766   4.726
27486W        W86989  17.225   4.247  11.594
27487W        W86990  17.570  41.002  11.373
27488W        W86991  19.724   1.736   1.740
27489W        W86992   6.912  14.251   1.316
27490W        W86993  22.234  39.914   2.379
27491W        W86994   4.362   8.680  10.616
27492W        W86995  37.936  32.090  11.122
27493W        W86996  11.625   0.460   4.699
27494W        W86997  42.827  19.542   2.799
27495W        W86998  24.551  21.592  12.969
27496W        W86999  25.550  36.843   2.700
27497W        W87000  23.581  16.220  10.439
27498W        W87001  43.386   5.810   0.919
27499W        W87002   5.688   3.419   3.161
27500W        W87003  36.466  38.958  10.100
27501W        W87004   5.911  14.704   9.536
27502W        W87005  31.415  24.213   9.979
27503W        W87006   9.784  14.704  10.631
27504W        W87007  38.046  10.635   4.769
27505W        W87008  14.114  24.110   2.696
27506W        W87009   5.718   2.779  10.921
27507W        W87010   7.304  34.371   4.676
27508W        W87011  21.248  12.324  10.509
27509W        W87012  34.016   9.802   3.328
27510W        W87013  13.118  36.542  14.885
27511W        W87014  19.149  20.074  11.092
27512W        W87015  19.177  10.156   3.353
27513W        W87016  21.143   4.442   2.839
27514W        W87017  41.824   9.648  11.923
27515W        W87018  26.485  26.540  11.472
27516W        W87019  35.961  13.334   1.310
27517W        W87020  23.665  43.328   0.807
27518W        W87021  36.848  41.480   0.839
27519W        W87022  33.883   1.763  12.959
27520W        W87023  10.152   7.251   1.256
27521W        W87024  20.574  28.587   1.912
27522W        W87025   7.358   3.784  13.994
27523W        W87026  32.616   2.884  11.414
27524W        W87027  18.271  35.603   0.826
27525W        W87028  40.455  28.958   0.458
27526W        W87029  21.518  30.642  14.876
27527W        W87030  40.012  19.583  10.494
27528W        W87031  10.210  19.750   1.287
27529W        W87032  19.620   6.270  11.894
27530W        W87033  15.752  44.783  10.421
27531W        W87034  40.328  34.005   3.784
27532W        W87035   9.283   3.848  10.480
27533W        W87036   1.855  18.155   1.716
27534W        W87037  17.072  32.414   4.668
27535W        W87038  44.991  25.692  12.857
27536W        W87039   2.933   1.835  14.451
27537W        W87040  19.087  38.438  11.459
27538W        W87041  31.082  31.969   9.955
27539W        W87042  25.155   8.792  10.959
27540W        W87043  43.294  38.886  11.066
27541W        W87044  12.816  26.089   2.352
27542W        W87045  28.679  44.450   4.116
27543W        W87046  38.047  31.615   3.749
27544W        W87047  34.066  35.373  10.626
27545W        W87048  27.133  14.133   2.413
27546W        W87049  21.542  33.417  10.033
27547W        W87050  13.645   8.664   0.334
27548W        W87051  16.651  34.937   4.188
27549W        W87052  13.735  24.125  13.456
27550W        W87053  17.272   0.810  12.380
27551W        W87054  15.249  21.603   2.331
27552W        W87055  42.465  12.119  11.049
27553W        W87056  21.690   3.370  10.613
27554W        W87057  17.300  29.989   2.231
27555W        W87058   2.725  25.560   1.805
27556W        W87059  13.671   1.921   4.752
27557W        W87060  26.669  22.701   5.323
27558W        W87061  27.947  23.075   2.743
27559W        W87062  31.024  25.009  10.491
27560W        W87063  33.586   5.371   2.404
27561W        W87064  32.514  24.603  11.974
27562W        W87065  34.474   1.771   0.478
27563W        W87066  42.031  35.406  13.430
27564W        W87067  27.463  33.531   2.683
27565W        W87068  35.603  12.261  11.990
27566W        W87069  25.582  40.833   4.779
27567W        W87070  22.995  25.162  13.321
27568W        W87071  30.557  25.186  10.032
27569W        W87072  23.645  39.969   3.163
27570W        W87073  22.522  10.781   3.384
27571W        W87074  12.663  43.772  14.875
27572W        W87075   9.861  12.727   4.174
27573W        W87076  29.650   6.849   1.381
27574W        W87077  18.615  12.856   4.665
27575W        W87078  39.880   3.254   1.828
27576W        W87079  12.834  15.767   1.451
27577W        W87080  40.049  42.284  13.904
27578W        W87081  38.491  31.532   0.445
27579W        W87082  27.061  41.964  12.029
27580W        W87083  43.778  21.179   3.226
27581W        W87084   0.491  23.160  10.894
27582W        W87085   9.214   9.779  13.313
27583W        W87086  30.558  34.427  10.536
27584W        W87087  44.946  36.015   4.120
27585W        W87088  33.464  29.449  14.312
27586W        W87089   1.302   7.395  13.851
27587W        W87090  34.391  40.505  13.812
27588W        W87091  41.467  16.129   0.769
27589W        W87092   8.663  21.084   1.794
27590W        W87093  28.451  39.319   4.714
27591W        W87094   5.761  14.156  11.478
27592W        W87095  34.996   0.437  10.027
27593W        W87096  43.945  36.368   2.727
27594W        W87097  21.748   4.308  12.967
27595W        W87098  35.433  22.561  14.782
27596W        W87099  22.705  39.045   4.649
27597W        W87100  24.145  35.373  12.533
27598W        W87101  37.916   0.305  10.579
27599W        W87102  42.949   5.849  12.517
27600W        W87103   4.326  15.168   1.284
27601W        W87104   7.303  24.074  14.438
27602W        W87105  19.285   5.346   1.235
27603W        W87106  36.868   7.767   2.735
27604W        W87107   8.831  19.133  10.887
27605W        W87108  19.087  17.689  10.997
27606W        W87109  14.098  31.419   1.233
27607W        W87110   0.360   9.850   0.384
27608W        W87111  11.631  19.586  11.573
27609W        W87112   7.315   6.768   1.801
27610W        W87113  31.567  41.938   4.186
27611W        W87114   6.785   4.854  13.329
27612W        W87115   8.383   6.809  10.638
27613W        W87116  10.635  21.555  12.844
27614W        W87117  13.107   4.909   0.919
27615W        W87118   7.814  35.090   2.227
27616W        W87119   6.906   3.925   2.191
27617W        W87120  22.703  24.598  13.357
27618W        W87121   6.685   7.666   1.440
27619W        W87122  26.051  34.910   2.195
27620W        W87123  13.159  18.716  13.533
27621W        W87124  37.968   1.817  14.760
27622W        W87125  30.939  43.476   0.815
27623W        W87126   1.277   5.417   0.300
27624W        W87127   6.305   9.717   2.202
27625W        W87128  41.814  12.172  12.418
27626W        W87129  43.871   1.859  14.276
27627W        W87130  34.587  17.186   0.744
27628W        W87131  20.658  24.722  12.423
27629W        W87132  24.675  40.383  12.971
27630W        W87133  32.611  41.910   1.396
27631W        W87134  43.293  35.089   3.689
27632W        W87135  35.903  44.482   2.224
27633W        W87136  30.422  12.767   1.917
27634W        W87137   8.263   2.440  11.973
27635W        W87138   0.903  11.358  11.015
27636W        W87139  33.546  31.905   2.808
27637W        W87140  43.930  29.587   1.441
27638W        W87141   5.928  23.222   0.393
27639W        W87142  15.249  15.653  11.857
27640W        W87143  23.614  41.943  13.310
27641W        W87144  17.751  43.815   3.296
27642W        W87145  33.011   8.813  13.032
27643W        W87146   1.461  41.940   4.210
27644W        W87147   3.317  41.485  11.940
27645W        W87148   9.391  31.126  12.568
27646W        W87149  41.811   4.415   0.812
27647W        W87150   8.168  34.938   0.940
27648W        W87151  23.209  33.949  14.024
27649W        W87152  35.108  15.625   4.826
27650W        W87153  43.994  43.798  10.564
27651W        W87154  36.958  10.777   0.293
27652W        W87155  31.927  29.532   2.180
27653W        W87156  19.248   2.859  14.843
27654W        W87157  34.499  28.503   3.791
27655W        W87158  29.960  32.541   0.424
27656W        W87159  33.899  11.822  14.360
27657W        W87160  17.202  36.473   4.829
27658W        W87161   4.920  22.250  13.400
27659W        W87162  26.977   1.905   4.659
27660W        W87163   9.203   2.468   4.156
27661W        W87164  29.635  13.331  11.039
27662W        W87165  12.131  42.804  11.433
27663W        W87166  20.244  38.497   4.825
27664W        W87167  42.799  40.515  12.493
27665W        W87168  40.881   8.256   1.698
27666W        W87169   9.715  25.485   2.687
27667W        W87170  33.457  31.538   3.268
27668W        W87171  23.079  27.584   2.349
27669W        W87172  18.668  40.369  12.870
27670W        W87173  26.968  32.390  11.567
27671W        W87174  32.471   4.715   4.839
27672W        W87175  21.711  40.489  11.456
27673W        W87176   5.902   2.318  12.952
27674W        W87177  41.536   8.813   2.245
27675W        W87178   5.240  39.974  11.376
27676W        W87179  39.900  20.186   4.790
27677W        W87180  33.070  22.040  12.931
27678W        W87181  38.505  37.008  13.992
27679W        W87182  37.957   8.810  14.011
27680W        W87183  43.788  34.080   2.189
27681W        W87184  30.636  19.225   2.733
27682W        W87185   6.183   7.378   1.414
27683W        W87186   1.410   6.720  11.579
27684W        W87187  38.986   0.853   0.252
27685W        W87188  38.326  39.048   1.875
27686W        W87189  30.593  44.423   1.391
27687W        W87190  19.134  41.808   3.734
27688W        W87191  12.631  21.549  11.868
27689W        W87192  24.060  11.675   1.348
27690W        W87193  20.704  39.467   0.767
27691W        W87194  29.921  29.625   0.913
27692W        W87195   9.720  31.150  12.436
27693W        W87196  37.513   8.191  10.124
27694W        W87197  24.709   9.213   0.751
27695W        W87198   1.347  37.867  10.426
27696W        W87199  39.816  21.071   4.601
27697W        W87200  12.721  35.011  12.058
27698W        W87201  13.695  30.525  10.982
27699W        W87202  30.954   7.236   3.680
27700W        W87203  41.982   7.871   2.297
27701W        W87204  38.390   6.801  13.396
27702W        W87205  36.877  19.276   2.182
27703W        W87206  15.590  33.565   3.837
27704W        W87207  40.389  43.835  10.522
27705W        W87208  37.859  28.459   1.774
27706W        W87209   6.303  24.974  12.835
27707W        W87210  44.890  20.212  12.510
27708W        W87211  38.369  20.148  11.895
27709W        W87212   7.285   8.166  14.944
27710W        W87213   1.358  18.716   0.314
27711W        W87214   6.717  11.730   2.295
27712W        W87215  20.580  11.182  11.474
27713W        W87216  40.343  20.197  13.315
27714W        W87217  43.001  25.688  11.486
27715W        W87218  43.958  22.010   2.863
27716W        W87219   2.444  32.994  11.608
27717W        W87220  21.513   5.310  13.492
27718W        W87221  26.101  30.059   3.207
27719W        W87222  18.581  20.263   4.244
27720W        W87223  13.648  25.666   3.160
27721W        W87224   5.410   1.271   2.349
27722W        W87225  14.240  33.507   2.336
27723W        W87226  11.146  27.061   0.384
27724W        W87227  41.953   7.240  13.507
27725W        W87228  32.094  44.771  10.956
27726W        W87229  23.665   9.749  13.013
27727W        W87230   0.917  34.465  12.865
27728W        W87231  15.091   7.877  12.471
27729W        W87232   2.470  26.519  12.992
27730W        W87233  30.643  29.508   1.895
27731W        W87234  27.664  14.183   3.731
27732W        W87235  22.547  40.892   2.822
27733W        W87236  11.753   8.273   0.810
27734W        W87237  12.261  44.272   1.350
27735W        W87238  28.154  32.456   4.707
27736W        W87239  12.833  37.501  10.483
27737W        W87240  37.838   1.962   1.349
27738W        W87241  22.219  41.321  12.899
27739W        W87242  30.155  10.872   0.468
27740W        W87243  30.062  37.468   0.317
27741W        W87244   3.323  10.225   4.274
27742W        W87245  31.149  22.127   0.287
27743W        W87246   0.343  32.955  12.519
27744W        W87247  38.511  41.881  12.024
27745W        W87248   0.297  27.576   2.856
27746W        W87249  39.315  21.067  14.430
27747W        W87250  17.205   9.804  12.462
27748W        W87251  43.014  39.960  14.955
27749W        W87252  44.882  41.496  13.479
27750W        W87253   5.928  42.364  12.405
27751W        W87254  38.978  18.729  10.640
27752W        W87255   7.884   8.834  10.124
27753W        W87256  19.046  23.157  10.954
27754W        W87257  36.511  23.569   1.378
27755W        W87258  21.058  12.322   2.762
27756W        W87259  12.263  38.876  11.987
27757W        W87260  24.981  29.471  10.912
27758W        W87261  18.603  12.705   3.355
27759W        W87262   3.413  39.346  12.002
27760W        W87263   8.668  37.834   2.798
27761W        W87264  31.431   6.724   3.300
27762W        W87265  32.563  12.123   0.310
27763W        W87266  20.200  38.876   2.752
27764W        W87267  40.331   1.961  12.493
27765W        W87268  27.686   7.255   2.234
27766W        W87269   1.760  17.788   1.841
27767W        W87270   3.427  38.509  12.574
27768W        W87271  44.001   7.282   0.889
27769W        W87272  23.712  35.428  14.479
27770W        W87273  20.100  37.375   5.299
27771W        W87274  11.202  22.131  14.429
27772W        W87275   8.740  44.000  10.543
27773W        W87276   0.479  36.364  11.912
27774W        W87277  33.877   1.773  12.381
27775W        W87278  23.213  21.753   2.319
27776W        W87279  29.157  27.100  14.870
27777W        W87280  15.584  39.050   2.882
27778W        W87281  12.761  10.723   0.756
27779W        W87282  13.755  32.137   9.960
27780W        W87283   6.721  37.039   2.295
27781W        W87284  35.972  40.311   2.398
27782W        W87285  16.760  34.930  12.883
27783W        W87286  31.041  19.546   2.856
27784W        W87287   9.876  35.445   0.950
27785W        W87288  15.666  39.964   3.164
27786W        W87289  36.976  30.570  12.342
27787W        W87290  34.500  38.547  14.887
27788W        W87291  26.980  35.899   4.321
27789W        W87292  34.437  37.482   4.776
27790W        W87293  18.682   3.387  10.105
27791W        W87294  26.519   3.807  13.801
27792W        W87295   3.258   1.897  12.470
27793W        W87296  16.810  33.900  13.040
27794W        W87297  19.137  30.023  12.903
27795W        W87298   0.277  43.302   0.457
27796W        W87299  18.646  13.654  12.032
27797W        W87300  17.199  35.440   0.483
27798W        W87301   1.426  10.863   3.187
27799W        W87302  34.488  17.074  14.779
27800W        W87303   2.443  14.746   0.438
27801W        W87304  39.854   4.307   4.235
27802W        W87305  31.897  12.233  14.960
27803W        W87306   2.787  20.161   0.771
27804W        W87307  38.405  27.120  14.002
27805W        W87308  22.046  18.629  14.829
27806W        W87309  41.294  36.564   0.363
27807W        W87310  18.193  17.136  11.564
27808W        W87311  41.808  19.247   2.671
27809W        W87312  37.377  15.255  13.316
27810W        W87313  25.608  14.297  14.392
27811W        W87314   0.404  25.520  14.415
27812W        W87315  37.862  21.611  13.890
27813W        W87316  17.180  18.216  13.050
27814W        W87317  36.567  24.563  12.932
27815W        W87318   9.210  35.088   3.370
27816W        W87319  20.552   5.343  11.959
27817W        W87320  41.352  36.851  14.004
27818W        W87321  19.078   2.871  13.018
27819W        W87322  43.463  20.232  12.948
27820W        W87323  11.327  22.192  10.998
27821W        W87324  37.016  19.215  14.777
27822W        W87325  27.119  31.917   2.867
27823W        W87326  29.949  17.723  11.040
27824W        W87327  39.933  10.333  10.598
27825W        W87328  33.975  39.906   0.884
27826W        W87329  43.338  33.999  12.886
27827W        W87330  29.641  26.499  13.380
27828W        W87331  30.094   3.758   2.755
27829W        W87332  14.595  28.146  12.537
27830W        W87333  14.309  15.761   2.861
27831W        W87334  38.472  43.832   2.274
27832W        W87335  42.835  13.749   4.168
27833W        W87336  17.578  26.992  11.405
27834W        W87337  34.876  21.083   4.118
27835W        W87338  14.735  14.768  13.038
27836W        W87339  26.573  27.075   0.242
27837W        W87340  30.482  30.599   3.289
27838W        W87341   3.744  27.513  11.859
27839W        W87342  36.400   8.761  12.948
27840W        W87343  14.202  17.731   1.798
27841W        W87344  27.515  19.653   4.697
27842W        W87345  25.697   4.290   3.188
27843W        W87346  24.138  35.868   3.800
27844W        W87347  18.214  23.653   2.190
27845W        W87348   6.329   7.858  12.961
27846W        W87349   0.410   5.218  11.520
27847W        W87350  28.965  44.770   4.609
27848W        W87351  13.163  15.322   3.299
27849W        W87352  15.656  29.126   1.414
27850W        W87353  14.772   5.834   9.932
27851W        W87354  25.084  22.598   1.348
27852W        W87355  12.843  32.118   0.807
27853W        W87356   6.406   3.757  12.990
27854W        W87357  13.126  40.386  10.624
27855W        W87358   1.756   4.284   3.667
27856W        W87359   0.441  15.091  14.430
27857W        W87360  10.299  31.541  11.378
27858W        W87361   9.888  20.757   0.796
27859W        W87362   2.875  23.712  11.609
27860W        W87363  43.325  35.990   3.312
27861W        W87364   2.456  31.017   3.697
27862W        W87365   9.149  25.029  14.840
27863W        W87366  13.796  14.201   0.762
27864W        W87367  44.941   6.292   4.350
27865W        W87368  22.130  11.174  13.543
27866W        W87369   9.256  38.898  12.395
27867W        W87370  29.582  28.633   2.663
27868W        W87371  24.223   1.290  13.386
27869W        W87372  22.533  16.275   0.395
27870W        W87373  31.024  38.480   2.179
27871W        W87374  32.950   8.352  13.471
27872W        W87375   4.409  23.594   1.276
27873W        W87376  15.633  32.418  11.442
27874W        W87377  20.055  41.451   2.734
27875W        W87378  42.962  16.147   3.210
27876W        W87379   3.265  31.612  13.814
27877W        W87380   2.885  12.264   4.314
27878W        W87381   5.703   8.813  12.953
27879W        W87382  17.291  36.905   3.165
27880W        W87383  18.567   5.805  12.429
27881W        W87384  18.094  10.296  13.529
27882W        W87385  13.164  16.776   0.417
27883W        W87386  38.873   3.288   3.655
27884W        W87387   8.218  31.548   4.799
27885W        W87388  44.382   3.905   4.715
27886W        W87389   4.744   8.304   4.320
27887W        W87390  25.632  40.961   2.800
27888W        W87391  25.513   7.786   3.681
27889W        W87392  23.062  22.997  12.538
27890W        W87393   8.227   0.923   2.767
27891W        W87394  36.501  28.619   4.279
27892W        W87395  25.027   1.768   5.630
27893W        W87396  22.623  40.007  11.558
27894W        W87397  34.924  36.592   2.235
27895W        W87398  20.694  41.799  10.996
27896W        W87399  24.589  29.144   4.719
27897W        W87400   9.697  12.761  10.570
27898W        W87401  27.687   6.361  10.489
27899W        W87402  12.727  22.058  14.008
27900W        W87403  29.464   7.265  13.525
27901W        W87404  28.020   0.274  10.643
27902W        W87405   0.751  36.075   0.897
27903W        W87406  28.635  37.338   2.215
27904W        W87407  28.960  12.200   3.858
27905W        W87408  33.955  39.810  13.022
27906W        W87409  35.941  43.450   4.831
27907W        W87410  30.526  26.145   0.850
27908W        W87411   7.245  38.023   0.446
27909W        W87412  15.809  12.170  14.510
27910W        W87413   8.896   6.208   0.733
27911W        W87414  15.691  39.839  12.386
27912W        W87415  16.702  19.282  13.478
27913W        W87416  14.112  30.462  14.417
27914W        W87417  26.654  17.709  11.428
27915W        W87418  44.498  36.347   3.718
27916W        W87419  16.110  37.966  14.426
27917W        W87420  20.620  13.267  11.472
27918W        W87421  19.713  25.125   1.308
27919W        W87422  42.815  37.991  14.911
27920W        W87423  27.505  31.937  12.552
27921W        W87424  14.614  22.566  14.998
27922W        W87425  26.499  24.097   2.736
27923W        W87426  32.949  13.764  13.947
27924W        W87427  21.189  30.544   3.759
27925W        W87428   3.773  27.119   2.362
27926W        W87429  38.065  30.649   3.261
27927W        W87430  13.254   1.367   1.427
27928W        W87431  20.247  33.379  12.419
27929W        W87432  31.560  27.033  13.383
27930W        W87433  39.480  24.215  12.468
27931W        W87434  33.393  11.249  12.923
27932W        W87435   4.726  17.075   5.158
27933W        W87436  18.181  21.531   2.867
27934W        W87437  10.163  16.227   0.749
27935W        W87438  11.638  39.456   2.885
27936W        W87439   5.384  36.430  14.984
27937W        W87440   0.874   0.320   3.245
27938W        W87441  18.094  21.035   0.441
27939W        W87442  44.803  40.033  13.956
27940W        W87443   9.366  19.565   5.096
27941W        W87444  16.664  22.731  11.012
27942W        W87445  27.520  34.059  12.992
27943W        W87446  22.007  23.007   1.796
27944W        W87447  27.169  43.350  12.414
27945W        W87448  23.159  43.305  13.462
27946W        W87449  39.813  25.111   1.298
27947W        W87450  32.050   7.313  12.833
27948W        W87451  30.655   2.801   3.728
27949W        W87452   7.224  23.240  13.840
27950W        W87453  10.179  10.366   4.202
27951W        W87454  24.021   4.734   4.673
27952W        W87455  17.672  35.530  11.420
27953W        W87456   5.802   8.877  14.358
27954W        W87457   9.159  44.423   3.334
27955W        W87458  25.640   2.929  14.462
27956W        W87459  28.023  19.141   2.362
27957W        W87460  22.243  10.659   4.125
27958W        W87461   1.949   3.359   4.167
27959W        W87462  22.075   6.414  14.009
27960W        W87463  18.661  34.445   2.269
27961W        W87464  24.007  22.558   3.184
27962W        W87465  16.812  11.287   0.479
27963W        W87466   5.771  12.820   1.239
27964W        W87467  25.584  14.253   2.380
27965W        W87468  37.872   2.312   4.688
27966W        W87469  37.386  11.182  11.124
27967W        W87470  18.690   5.708   3.175
27968W        W87471   6.396   4.820   2.313
27969W        W87472  14.144  21.104  10.523
27970W        W87473  44.460  40.452  11.045
27971W        W87474  34.992  23.556   1.736
27972W        W87475  12.636  29.518   1.349
27973W        W87476  38.855  10.659  10.919
27974W        W87477  33.447  39.016  11.605
27975W        W87478  28.935  35.903   1.212
27976W        W87479  25.575   1.869   5.292
27977W        W87480  31.506  34.415   4.645
27978W        W87481  13.798   8.197  10.409
27979W        W87482  13.645  36.542  12.899
27980W        W87483  25.642   4.392  11.946
27981W        W87484  33.038  26.537   2.746
27982W        W87485  21.261  41.431  13.921
27983W        W87486  43.769  20.623   4.176
27984W        W87487  14.153  13.200  11.096
27985W        W87488  26.596  40.905  11.954
27986W        W87489  33.128  42.345   0.811
27987W        W87490  24.563   4.779  10.503
27988W        W87491  22.239   3.247  12.343
27989W        W87492  14.326  22.056   4.192
27990W        W87493   9.388  26.061  13.534
27991W        W87494  39.423  29.630   3.793
27992W        W87495  31.417   2.743   3.354
27993W        W87496  14.778  28.138  10.056
27994W        W87497  16.810   4.238  13.533
27995W        W87498  18.159  21.196  14.994
27996W        W87499  22.530  16.787   1.223
27997W        W87500   5.362  14.235  12.499
27998W        W87501   2.926  19.131   4.159
27999W        W87502  14.137  16.758  12.982
28000W        W87503   8.291  16.734   5.299
28001W        W87504   0.304   9.822  14.393
28002W        W87505  17.636  36.415   4.704
28003W        W87506  19.206   5.856   3.348
28004W        W87507  39.984  15.609   2.842
28005W        W87508   7.724  38.067  11.103
28006W        W87509  12.789  35.406  13.535
28007W        W87510   6.724   3.757  10.479
28008W        W87511  17.074  19.219  13.527
28009W        W87512  18.203  33.483  14.954
28010W        W87513  23.640   9.878   1.295
28011W        W87514  38.482  28.496  11.450
28012W        W87515  28.943  26.586   1.271
28013W        W87516   1.741  28.141   2.752
28014W        W87517  37.875  28.967  12.987
28015W        W87518  35.522  33.539   0.248
28016W        W87519  29.460   3.243  13.454
28017W        W87520  38.392  35.409  13.877
28018W        W87521  22.626  30.656   4.654
28019W        W87522   2.906  18.756  14.393
28020W        W87523  22.998  22.218  14.031
28021W        W87524  15.249  20.534  13.939
28022W        W87525  17.168  32.557   1.890
28023W        W87526  27.192  37.487   3.823
28024W        W87527  31.608  34.895  13.343
28025W        W87528  33.049  24.019   2.296
28026W        W87529  30.975  25.469  12.096
28027W        W87530  33.921  11.309   4.196
28028W        W87531  34.923  35.473  10.990
28029W        W87532  18.748  11.805   0.945
28030W        W87533   5.242  36.027  11.859
28031W        W87534  17.068  23.115  13.863
28032W        W87535  19.735  36.395  14.859
28033W        W87536  39.430   1.975   1.923
28034W        W87537  22.744  21.539   1.766
28035W        W87538   3.270  38.831   4.769
28036W        W87539   8.196  14.259  13.407
28037W        W87540  35.985  35.528  13.921
28038W        W87541  30.073  39.004   4.333
28039W        W87542  17.779  26.964   4.158
28040W        W87543  16.092  13.607   3.645
28041W        W87544  42.440  42.970   4.685
28042W        W87545  40.490  30.910  11.101
28043W        W87546  38.548  41.299   4.754
28044W        W87547  32.505  20.087  12.380
28045W        W87548  24.598   0.423   0.283
28046W        W87549   7.837   1.966   4.726
28047W        W87550   8.883  37.017  11.530
28048W        W87551   0.766  37.497  12.347
28049W        W87552  26.090  22.145  11.097
28050W        W87553  42.950   6.821   2.695
28051W        W87554  17.708  25.012  13.058
28052W        W87555  13.292  35.062   5.171
28053W        W87556  13.186  29.658  12.886
28054W        W87557  26.013  16.725  14.384
28055W        W87558  31.979  16.164  12.356
28056W        W87559   4.377  11.751  11.464
28057W        W87560  19.207  41.320   4.226
28058W        W87561  12.741  39.062  14.422
28059W        W87562  36.516  13.794  14.279
28060W        W87563  17.189  15.151  11.481
28061W        W87564  40.314  29.007   0.793
28062W        W87565  27.686  16.616   0.455
28063W        W87566  39.467  17.699   4.811
28064W        W87567  37.407  44.781   2.703
28065W        W87568   8.764  19.145  13.799
28066W        W87569  21.181  44.848   1.349
28067W        W87570   8.830  41.444   0.461
28068W        W87571  37.051  11.778  14.029
28069W        W87572  28.092  35.104   3.758
28070W        W87573  17.140   8.789   3.678
28071W        W87574   9.391   3.933  14.030
28072W        W87575  30.921  28.946   1.232
28073W        W87576  10.156  37.495  10.943
28074W        W87577  33.935  11.650   3.215
28075W        W87578  44.284  43.846  13.060
28076W        W87579  18.641   7.769  12.339
28077W        W87580  36.030  35.522   3.368
28078W        W87581   2.271  22.027  14.330
28079W        W87582  19.702  23.985   0.314
28080W        W87583  31.060  23.211   1.791
28081W        W87584  38.470   1.320  13.398
28082W        W87585  16.773  44.889   2.258
28083W        W87586  21.062   0.289   3.787
28084W        W87587  22.159  33.453   3.360
28085W        W87588  12.652  12.193  11.924
28086W        W87589   7.211  20.590   1.210
28087W        W87590  11.750  38.567   0.400
28088W        W87591  10.239   5.687   4.234
28089W        W87592  12.201  36.882   0.439
28090W        W87593  19.672   1.877  10.487
28091W        W87594  30.474  29.547  12.374
28092W        W87595  32.941   0.814   1.399
28093W        W87596  29.438  31.525  10.914
28094W        W87597   0.775   2.456   4.143
28095W        W87598  40.452  32.887   4.750
28096W        W87599  27.041  27.064  10.028
28097W        W87600  22.151  28.123   0.297
28098W        W87601  10.696  29.126   0.371
28099W        W87602   2.259  24.074   1.834
28100W        W87603  33.409  24.160   0.275
28101W        W87604  30.649  40.353  13.937
28102W        W87605  12.702   0.341  13.467
28103W        W87606  14.694   4.324  13.035
28104W        W87607  21.570  12.728  13.339
28105W        W87608  35.417  28.016   2.408
28106W        W87609  40.396  19.142  14.031
28107W        W87610  25.974  13.679  12.360
28108W        W87611  25.052  23.185   0.743
28109W        W87612  19.185   9.241  10.617
28110W        W87613  17.577   9.393   4.727
28111W        W87614   7.785   5.895   3.745
28112W        W87615  12.835  29.133   0.769
28113W        W87616   0.886   8.203  12.010
28114W        W87617   2.907  31.535   1.831
28115W        W87618   9.705  28.031   4.276
28116W        W87619  13.640   2.245   4.141
28117W        W87620  31.907   5.412   3.704
28118W        W87621   5.745  22.502  12.484
28119W        W87622   1.774  10.262  11.909
28120W        W87623  21.026  25.623  12.453
28121W        W87624  27.070   2.827  11.024
28122W        W87625  29.557  30.548   9.978
28123W        W87626   9.191  30.613   4.621
28124W        W87627  18.695  16.617  11.056
28125W        W87628  26.691  43.324  11.920
28126W        W87629  25.009   7.901   3.637
28127W        W87630  38.042  22.726  13.967
28128W        W87631  38.364  15.600   4.670
28129W        W87632  12.856  29.152  10.584
28130W        W87633   3.792   1.954  14.353
28131W        W87634   0.393  23.645  12.372
28132W        W87635  11.209  29.164   1.258
28133W        W87636  42.311  10.149  14.416
28134W        W87637   2.247  38.327  13.808
28135W        W87638  20.616  39.995  14.310
28136W        W87639   4.228  11.286   3.780
28137W        W87640  12.311  41.421   4.687
28138W        W87641  37.357  21.017  13.888
28139W        W87642  17.270  15.652  11.926
28140W        W87643   8.750  27.541   4.242
28141W        W87644  35.917  37.884  12.558
28142W        W87645  20.108  38.509   3.238
28143W        W87646  40.369   8.345   0.780
28144W        W87647  25.168  41.414   0.436
28145W        W87648  36.967  26.165   3.694
28146W        W87649  23.640  17.793  10.967
28147W        W87650   7.312   9.253  10.465
28148W        W87651  25.511  18.069   4.319
28149W        W87652   2.841   5.411   3.212
28150W        W87653  35.990  11.168  13.371
28151W        W87654  10.876  19.110  14.829
28152W        W87655   0.296  25.140  12.462
28153W        W87656   8.683  12.213  12.877
28154W        W87657   6.874  31.522   2.301
28155W        W87658  20.154  25.580   4.800
28156W        W87659   5.862  12.257   4.258
28157W        W87660  19.077  28.997   4.720
28158W        W87661   0.969  18.660   2.669
28159W        W87662   4.889   2.742   0.755
28160W        W87663  32.490  21.199   4.182
28161W        W87664   6.314  24.080  10.062
28162W        W87665  30.155  31.475   1.902
28163W        W87666  28.463   1.261   1.365
28164W        W87667   4.429  20.680  11.440
28165W        W87668  14.616  15.771   2.737
28166W        W87669  12.778   4.249   0.437
28167W        W87670  22.687  34.866   3.676
28168W        W87671  28.554   9.814  11.457
28169W        W87672  25.638   2.467  11.084
28170W        W87673  28.522  33.003   0.379
28171W        W87674   7.736  13.281   5.189
28172W        W87675  25.995  24.585  11.877
28173W        W87676  28.665  23.607   3.717
28174W        W87677  42.839  15.169   0.874
28175W        W87678  38.398   9.709   4.657
28176W        W87679  16.714  28.574  12.823
28177W        W87680  31.058  38.451  10.973
28178W        W87681   0.892  12.648   2.348
28179W        W87682  11.208  29.003  13.511
28180W        W87683  28.628   8.178  11.906
28181W        W87684  11.133  43.334   2.751
28182W        W87685  17.218  29.971   0.335
28183W        W87686  21.253  41.436  12.943
28184W        W87687  38.041  44.002   3.768
28185W        W87688  33.554  21.166  10.986
28186W        W87689   6.310  34.444   2.331
28187W        W87690   8.839   6.835  14.399
28188W        W87691  22.206  26.655   0.787
28189W        W87692  25.658   5.288  10.434
28190W        W87693  21.536  11.677   1.372
28191W        W87694  29.938  44.926  14.296
28192W        W87695  34.016  15.183   4.799
28193W        W87696  25.991  28.149  10.952
28194W        W87697   5.265  25.496   2.775
28195W        W87698  29.103  17.561  14.333
28196W        W87699  28.103  20.712   2.400
28197W        W87700  42.855   3.221  14.883
28198W        W87701  38.457   0.975   0.809
28199W        W87702  17.665  37.996  11.900
28200W        W87703  31.466  16.231   3.839
28201W        W87704  40.900  42.934   3.693
28202W        W87705  21.560  21.020   0.437
28203W        W87706  20.214  40.483  10.624
28204W        W87707  25.606  30.153  12.474
28205W        W87708  19.543  23.222  14.855
28206W        W87709  17.282   4.316  14.314
28207W        W87710  19.173   2.351  11.525
28208W        W87711  17.691  35.925   3.223
28209W        W87712  19.232   7.736   4.217
28210W        W87713  26.513  13.675   0.737
28211W        W87714  36.544  42.373   2.805
28212W        W87715  36.534  18.150  14.417
28213W        W87716  43.409  26.964   5.168
28214W        W87717  27.041  38.033  14.478
28215W        W87718  43.791  26.174   1.817
28216W        W87719  36.532   9.817  10.569
28217W        W87720  27.026  13.654  11.928
28218W        W87721  40.797  23.581   0.243
28219W        W87722   3.822  36.028   3.297
28220W        W87723  24.573  20.151  13.439
28221W        W87724   9.241  27.600  12.534
28222W        W87725  29.494  34.911   0.870
28223W        W87726   0.743   6.704   2.714
28224W        W87727  25.065  37.012   3.257
28225W        W87728  25.200  37.042   4.276
28226W        W87729   9.329  37.957   0.818
28227W        W87730  39.432  15.778   1.833
28228W        W87731   7.750  11.720  12.862
28229W        W87732  19.224   0.302  12.531
28230W        W87733  12.833   1.809   2.827
28231W        W87734   2.235   7.843  10.961
28232W        W87735   3.251  16.785  13.315
28233W        W87736  11.240   9.878   1.423
28234W        W87737   2.365  30.452   0.814
28235W        W87738  38.864  19.192   4.628
28236W        W87739  24.214  13.766  13.536
28237W        W87740  34.507  14.307  13.046
28238W        W87741  42.976  31.151   0.942
28239W        W87742  25.529   0.929  12.838
28240W        W87743  24.149  13.807   2.341
28241W        W87744   3.300  40.932  13.533
28242W        W87745  34.892  24.642  14.359
28243W        W87746  31.028   4.726   1.860
28244W        W87747  30.162  38.386   4.286
28245W        W87748   5.796  19.659   0.767
28246W        W87749  15.760  12.246   3.843
28247W        W87750  29.484   8.684  12.870
28248W        W87751  24.125  20.566  10.611
28249W        W87752   7.360   8.334   0.302
28250W        W87753  25.117  19.048  14.336
28251W        W87754  31.628  19.610   4.777
28252W        W87755   7.859  33.391   2.301
28253W        W87756  22.555   8.889   2.878
28254W        W87757  30.568   5.345   2.807
28255W        W87758  37.869   5.240  12.435
28256W        W87759   4.908  37.555   0.343
28257W        W87760  33.536  27.549  14.353
28258W        W87761  17.159  22.121   3.678
28259W        W87762  21.740   7.185  10.425
28260W        W87763  13.680  30.132   2.713
28261W        W87764  10.775  35.510  14.275
28262W        W87765  22.640   1.259   1.210
28263W        W87766  19.047  42.995  10.991
28264W        W87767  10.306   6.206   0.303
28265W        W87768  35.426  21.524  14.759
28266W        W87769   0.406   1.348  11.967
28267W        W87770   7.194  10.773   0.319
28268W        W87771  21.711  21.096  12.073
28269W        W87772  36.517   9.234  13.840
28270W        W87773   1.250  36.902   2.675
28271W        W87774  25.170   5.310  12.967
28272W        W87775  12.273  30.515  12.854
28273W        W87776  32.972  31.537   3.785
28274W        W87777  32.894  44.826  12.431
28275W        W87778  10.777  11.767  12.563
28276W        W87779  20.113   8.207   1.419
28277W        W87780  18.771   7.705  14.014
28278W        W87781  23.684  12.186  12.921
28279W        W87782  37.410  13.261  10.569
28280W        W87783  44.828   7.910   3.644
28281W        W87784  40.334  22.168   2.820
28282W        W87785   8.736  20.240  11.884
28283W        W87786  43.368  31.486   4.138
28284W        W87787  15.726   9.296  14.392
28285W        W87788   0.971  23.730  10.517
28286W        W87789   7.748  21.753   3.181
28287W        W87790   0.354   9.701   2.200
28288W        W87791  21.205  25.205   2.854
28289W        W87792  32.096   6.405  13.446
28290W        W87793   4.358   4.389  12.923
28291W        W87794  28.538  28.140  12.093
28292W        W87795  14.164  32.089  14.802
28293W        W87796  31.454  10.756  12.571
28294W        W87797  27.635  24.023   2.896
28295W        W87798  31.567  20.040  13.537
28296W        W87799  40.399  25.467   2.806
28297W        W87800   8.307  10.704   0.384
28298W        W87801  22.619   1.800  12.004
28299W        W87802  29.467  37.833  14.907
28300W        W87803  10.737  27.591   1.765
28301W        W87804  39.465  34.449   4.816
28302W        W87805   0.839  38.459  11.613
28303W        W87806  20.169  32.133  12.958
28304W        W87807  25.098  37.895  12.493
28305W        W87808   9.752  23.524  13.460
28306W        W87809  44.899  31.575  13.537
28307W        W87810  18.771  15.586   2.210
28308W        W87811  18.659  25.694   4.219
28309W        W87812  17.768   3.364   0.481
28310W        W87813  34.542   4.387  11.048
28311W        W87814  14.626   3.392  10.618
28312W        W87815   6.715  24.004  12.480
28313W        W87816  41.347   8.771   0.342
28314W        W87817  33.577  25.217  10.908
28315W        W87818  35.056  26.134  10.093
28316W        W87819  39.318  19.755  14.769
28317W        W87820  19.778  32.068  13.422
28318W        W87821   6.779  17.246  13.829
28319W        W87822  16.749   2.343   2.792
28320W        W87823  10.282  33.052  12.418
28321W        W87824  42.923  44.977  11.067
28322W        W87825   5.814  21.109   3.194
28323W        W87826  34.586   2.329   0.908
28324W        W87827  13.264   3.331   2.830
28325W        W87828   6.679   5.273   0.349
28326W        W87829  20.194  15.152   2.271
28327W        W87830   8.171  38.029  13.485
28328W        W87831  30.100  24.087  14.465
28329W        W87832  33.972   8.865   0.268
28330W        W87833   6.236  26.972  13.420
28331W        W87834  10.677   0.784   9.927
28332W        W87835  14.338  33.559   5.599
28333W        W87836  42.868   5.383   0.922
28334W        W87837  43.324  39.028  12.840
28335W        W87838  14.682  10.873  11.428
28336W        W87839  28.501  17.104   4.728
28337W        W87840  27.569  15.785   2.830
28338W        W87841  19.208  18.691   0.284
28339W        W87842  19.568  44.929  10.425
28340W        W87843   5.823   0.257  11.512
28341W        W87844   7.288  11.283   4.164
28342W        W87845  12.316  12.152   0.780
28343W        W87846  42.514  36.024   1.268
28344W        W87847  37.953   6.804  13.535
28345W        W87848  35.968  44.433   1.388
28346W        W87849   2.463  34.400   5.161
28347W        W87850  26.055  36.356  11.080
28348W        W87851  29.932   3.927  14.843
28349W        W87852  24.082  33.610   1.388
28350W        W87853   3.419  27.691   0.761
28351W        W87854   4.714  27.644  10.594
28352W        W87855  23.130  23.596   3.282
28353W        W87856  35.916  32.057  11.990
28354W        W87857  15.731  37.958  12.386
28355W        W87858   5.301  27.986   3.350
28356W        W87859  12.633  20.726  11.037
28357W        W87860  11.657  37.565   0.394
28358W        W87861  12.180  33.922  10.624
28359W        W87862  44.753  26.034   0.746
28360W        W87863   6.815  18.748  13.917
28361W        W87864  18.657  37.864   1.735
28362W        W87865  19.613  14.162  12.427
28363W        W87866   8.654  16.803   0.428
28364W        W87867  41.924  25.697   4.662
28365W        W87868  21.736  20.711   0.881
28366W        W87869  33.436   3.336   2.737
28367W        W87870   1.851  14.192   4.271
28368W        W87871  25.203  27.608  10.990
28369W        W87872   4.849  14.728  11.610
28370W        W87873  22.016  12.171  13.424
28371W        W87874  37.878  42.517   1.894
28372W        W87875  39.872   8.190  13.965
28373W        W87876  22.629  12.805  10.067
28374W        W87877  39.405  34.096  12.550
28375W        W87878   6.275  18.253  12.991
28376W        W87879   6.204  23.553  10.431
28377W        W87880  40.938  28.057  11.524
28378W        W87881  33.118  35.917  13.405
28379W        W87882  39.404  10.175   2.261
28380W        W87883   0.343  24.651   2.845
28381W        W87884  33.483  25.633  13.919
28382W        W87885  23.070  37.945   2.719
28383W        W87886  20.040  19.637   3.804
28384W        W87887   5.885  23.216  12.033
28385W        W87888  38.073  10.177   3.265
28386W        W87889  44.260  35.492  14.347
28387W        W87890  37.563  25.637  11.584
28388W        W87891   9.781  33.881  11.912
28389W        W87892   9.699  30.987   0.283
28390W        W87893   5.907  20.583   0.813
28391W        W87894   2.789  30.994  13.904
28392W        W87895   7.787   9.260   0.963
28393W        W87896  12.613  39.958  13.803
28394W        W87897  36.404  12.250  14.297
28395W        W87898  16.727  26.175  11.579
28396W        W87899  16.085   7.814   0.458
28397W        W87900  17.075  41.509  13.535
28398W        W87901  18.092   6.707   0.858
28399W        W87902   4.447  31.960   0.313
28400W        W87903   0.758   2.876   4.716
28401W        W87904  20.088   5.319  14.346
28402W        W87905  24.496   5.406  10.483
28403W        W87906  41.362   8.325   0.467
28404W        W87907  23.587   4.773   3.332
28405W        W87908  31.410  11.787   3.204
28406W        W87909  14.229  25.509  11.123
28407W        W87910  30.027  11.765   4.603
28408W        W87911  14.601  21.698  10.896
28409W        W87912   5.717  26.558  11.602
28410W        W87913  44.903  32.551  10.981
28411W        W87914  22.245  29.645   3.637
28412W        W87915  25.153  40.032  14.981
28413W        W87916  31.611  38.953   3.279
28414W        W87917  22.585  34.073   2.775
28415W        W87918  41.879   6.839  14.462
28416W        W87919  35.858  32.559   0.341
28417W        W87920  17.225  29.620   2.346
28418W        W87921  23.150   6.317  13.063
28419W        W87922  34.488   7.875  11.558
28420W        W87923  23.054  41.978   2.258
28421W        W87924  44.334  20.156  10.910
28422W        W87925  31.120  14.726  11.929
28423W        W87926  27.138  44.394  10.950
28424W        W87927  31.498  10.186  10.052
28425W        W87928   2.820  40.408  10.423
28426W        W87929   4.282  26.496  13.469
28427W        W87930   4.415   9.885  11.858
28428W        W87931  44.419  42.968  11.588
28429W        W87932  11.666  44.974  11.531
28430W        W87933   3.317  12.269   2.218
28431W        W87934  27.474  25.668   0.791
28432W        W87935  15.222  32.983  14.803
28433W        W87936  24.508   7.307  11.435
28434W        W87937  40.910  22.505   4.813
28435W        W87938  29.543  36.866   3.178
28436W        W87939  43.018  22.243  13.497
28437W        W87940  35.948  12.170   1.413
28438W        W87941  13.151  19.658   1.891
28439W        W87942  12.332  35.558  13.858
28440W        W87943  11.312   6.682   4.618
28441W        W87944  43.303   1.465   3.833
28442W        W87945   2.835  26.537   5.578
28443W        W87946  20.148  10.261  11.058
28444W        W87947   4.790  19.085  14.407
28445W        W87948  12.175  41.927  10.529
28446W        W87949  31.022  39.889  11.079
28447W        W87950  32.099   5.356  14.932
28448W        W87951  31.120  40.865   3.861
28449W        W87952   2.406  43.453  14.983
28450W        W87953  29.587  31.506   2.872
28451W        W87954  38.948  21.075  12.076
28452W        W87955  12.296  37.876  11.042
28453W        W87956   8.729  13.787  13.846
28454W        W87957  30.983  36.096   5.774
28455W        W87958  42.000  16.693   2.772
28456W        W87959  30.500   4.778   3.170
28457W        W87960  24.094  41.966  14.478
28458W        W87961  19.199  44.371  13.393
28459W        W87962  38.568  24.127  13.438
28460W        W87963  17.584  40.536  12.506
28461W        W87964  19.643  12.789   0.243
28462W        W87965   5.866  30.632   1.930
28463W        W87966  42.365  16.680  13.382
28464W        W87967  41.491  35.057   4.210
28465W        W87968   7.887  36.460  14.844
28466W        W87969   2.838  29.484  14.763
28467W        W87970  41.973  11.746  13.424
28468W        W87971  33.597  31.032  10.576
28469W        W87972  38.483   2.343  13.535
28470W        W87973  25.706  21.029   1.757
28471W        W87974   7.370  36.585   4.744
28472W        W87975  10.858  24.193   1.856
28473W        W87976  27.554  18.097  14.390
28474W        W87977   6.853  43.279  11.951
28475W        W87978   4.786  42.347  10.429
28476W        W87979  33.480  27.135  12.904
28477W        W87980   7.667   1.971  11.588
28478W        W87981  40.396  29.027   2.342
28479W        W87982  24.090  11.861  12.093
28480W        W87983  19.199  24.550   1.280
28481W        W87984  35.954  26.996  11.486
28482W        W87985   2.273   5.254   3.233
28483W        W87986  32.131  29.033   3.337
28484W        W87987   2.762  43.495  11.474
28485W        W87988   8.268  42.898  11.515
28486W        W87989   9.256  22.514   4.330
28487W        W87990  13.830   0.979   3.337
28488W        W87991   5.725   7.774  14.764
28489W        W87992  21.579  31.622  14.384
28490W        W87993   7.191  27.626   4.162
28491W        W87994  38.363  28.997  13.398
28492W        W87995  24.503   1.926   5.574
28493W        W87996  28.489   4.406  12.431
28494W        W87997   9.716  23.635   1.845
28495W        W87998   9.235  36.031   3.695
28496W        W87999  33.542   4.417   0.857
28497W        W88000   2.341  43.953   3.222
28498W        W88001   4.888  28.558   5.195
28499W        W88002  14.240   8.271  14.790
28500W        W88003  31.918  44.492   2.885
28501W        W88004  14.588   0.888   2.877
28502W        W88005   3.393  41.333  14.767
28503W        W88006  32.563  23.532   1.347
28504W        W88007  25.034  37.950   3.252
28505W        W88008   0.274  20.048  10.112
28506W        W88009  42.998  11.746   4.624
28507W        W88010  11.328  32.474  12.872
28508W        W88011   0.248  23.210  13.542
28509W        W88012  30.024   0.370  12.010
28510W        W88013   9.732  37.005   0.365
28511W        W88014  25.484  24.617  14.813
28512W        W88015  41.460  44.399  11.387
28513W        W88016   4.820   3.361  10.459
28514W        W88017  38.535  24.507  13.397
28515W        W88018  42.464  27.147  11.071
28516W        W88019   2.746  27.079   3.240
28517W        W88020  17.557   7.327   2.381
28518W        W88021  37.491   7.211   2.672
28519W        W88022  32.965  18.765   0.847
28520W        W88023  13.624  36.521   3.279
28521W        W88024  27.524  43.493   4.265
28522W        W88025   9.279  13.614   2.821
28523W        W88026  41.474  23.179   2.736
28524W        W88027  39.485  34.924   0.831
28525W        W88028  32.887   9.354  13.311
28526W        W88029  23.694   0.960  12.904
28527W        W88030  22.192  32.450   3.192
28528W        W88031  11.141  12.853  14.897
28529W        W88032   3.410  33.904  12.088
28530W        W88033   7.345  44.979  14.790
28531W        W88034  34.006  31.060   1.274
28532W        W88035  25.987  24.599   1.227
28533W        W88036  19.137  34.048   2.774
28534W        W88037   5.236  11.149  14.870
28535W        W88038  10.228  28.444   3.231
28536W        W88039  26.685  41.443  10.438
28537W        W88040  17.754  42.373   4.173
28538W        W88041  39.451  12.121   2.834
28539W        W88042   5.401  17.169  13.337
28540W        W88043  28.673   6.297   4.261
28541W        W88044  25.588  33.472  11.493
28542W        W88045  14.137   4.915   3.712
28543W        W88046  37.483  13.227  14.475
28544W        W88047   7.236  18.623  12.458
28545W        W88048  31.115  17.170   3.233
28546W        W88049  10.872  15.278   1.906
28547W        W88050  42.363  37.454   4.160
28548W        W88051  43.292   8.823  11.924
28549W        W88052  22.588  11.827  11.868
28550W        W88053  12.263   0.402   2.219
28551W        W88054  17.580  35.995  11.022
28552W        W88055  26.561  44.460   1.725
28553W        W88056   3.848   4.343  14.381
28554W        W88057   8.367  33.016   2.736
28555W        W88058  42.890  40.931  12.883
28556W        W88059  21.170  16.147  10.485
28557W        W88060   9.238  24.717  14.934
28558W        W88061  43.295  11.782   1.715
28559W        W88062  31.988  16.739  10.425
28560W        W88063  25.133  23.501  10.609
28561W        W88064  41.332  19.148   1.272
28562W        W88065  41.465   2.365  13.856
28563W        W88066   6.279  21.255  14.316
28564W        W88067  43.857  12.140   1.268
28565W        W88068  20.592  28.471   4.129
28566W        W88069  41.863  20.200  12.492
28567W        W88070  17.096  23.086   2.241
28568W        W88071  24.222  41.044   1.824
28569W        W88072   5.438  39.000   2.866
28570W        W88073  37.400   6.358   5.618
28571W        W88074  19.632  18.125   0.466
28572W        W88075  24.631   2.443   0.864
28573W        W88076  41.828  13.770  13.458
28574W        W88077  11.180  21.642  11.928
28575W        W88078  33.991  17.070  13.426
28576W        W88079  35.021  32.399   0.777
28577W        W88080  24.492  30.458   3.315
28578W        W88081  23.047   6.352  11.550
28579W        W88082  34.540  19.250  13.798
28580W        W88083   6.679   0.791  14.503
28581W        W88084  14.243  11.752   2.285
28582W        W88085  21.258  42.501  12.433
28583W        W88086  12.781   5.932  10.909
28584W        W88087  21.029  13.654   2.283
28585W        W88088  33.432  13.726   0.302
28586W        W88089  36.547  39.913  12.405
28587W        W88090  16.122  43.833  13.334
28588W        W88091  13.316  22.571  12.354
28589W        W88092  17.294   6.204   4.811
28590W        W88093   0.897   5.251  14.862
28591W        W88094  18.709   7.271   3.716
28592W        W88095  25.470   0.488  11.068
28593W        W88096  26.619  34.994  11.869
28594W        W88097  11.245  13.248  12.427
28595W        W88098  26.493   8.189   0.344
28596W        W88099  11.241  16.140  13.319
28597W        W88100  16.598  20.129  14.893
28598W        W88101  31.008  18.553  14.943
28599W        W88102   4.880  17.671  10.044
28600W        W88103  10.656  26.990   1.924
28601W        W88104  44.381  23.129   0.862
28602W        W88105  20.642  35.020  13.017
28603W        W88106  41.490  34.040  13.977
28604W        W88107  32.908  44.891   0.758
28605W        W88108   2.336  19.246  12.440
28606W        W88109  15.812  24.012  11.900
28607W        W88110  28.598  24.716  11.115
28608W        W88111   9.818  29.505  13.928
28609W        W88112  41.948  37.956  12.509
28610W        W88113   0.778   0.889   2.713
28611W        W88114   7.217  15.195   0.837
28612W        W88115  14.193  11.218   0.471
28613W        W88116  22.507  41.434  13.440
28614W        W88117  24.994   3.770   0.899
28615W        W88118  32.111  32.592  11.032
28616W        W88119   0.793  13.622  14.408
28617W        W88120  42.952  18.125   3.247
28618W        W88121  26.155  23.236   3.315
28619W        W88122  34.903   9.248  10.550
28620W        W88123  35.537  23.676  11.509
28621W        W88124  18.681   0.342   4.677
28622W        W88125   1.464  10.803   2.274
28623W        W88126  11.660  14.165  13.354
28624W        W88127   3.332  17.134   1.304
28625W        W88128  15.242  35.470   4.755
28626W        W88129   2.849   2.282   2.898
28627W        W88130   3.327  23.105   1.355
28628W        W88131  34.079  39.372  13.793
28629W        W88132  40.509  41.462   5.289
28630W        W88133   0.444  38.981   4.328
28631W        W88134  19.700  14.646   3.809
28632W        W88135  23.540  16.085   0.909
28633W        W88136  15.682  33.428   1.210
28634W        W88137  27.172  26.490  12.001
28635W        W88138  33.038  10.841   2.259
28636W        W88139  17.278   8.728   5.297
28637W        W88140  26.478  31.976  11.921
28638W        W88141   8.335  40.477  14.783
28639W        W88142  25.196  36.867   3.870
28640W        W88143  43.397  15.680  12.049
28641W        W88144   4.227   6.817   4.814
28642W        W88145  30.965  34.039   1.217
28643W        W88146  16.736  29.029   0.752
28644W        W88147  42.508  11.786   1.809
28645W        W88148  30.067   9.839  14.008
28646W        W88149  35.965  24.702  11.457
28647W        W88150  30.030  14.772  12.979
28648W        W88151  38.943  17.716   2.766
28649W        W88152  42.457  13.794   4.631
28650W        W88153  11.760   0.801   1.422
28651W        W88154  42.489  35.515  11.028
28652W        W88155  37.894   6.919   5.127
28653W        W88156   5.247  36.841   0.457
28654W        W88157  17.739   0.797   0.878
28655W        W88158   3.809   2.742   2.721
28656W        W88159   3.410  20.201   4.796
28657W        W88160  14.826  39.552  14.027
28658W        W88161  13.780  44.855  13.999
28659W        W88162  31.009  26.059  14.826
28660W        W88163  39.420  34.541   3.831
28661W        W88164  40.847  42.409  13.483
28662W        W88165  22.089  24.046  12.508
28663W        W88166  41.409   8.734  11.048
28664W        W88167  36.486   3.237  13.370
28665W        W88168  20.136  12.298  11.484
28666W        W88169  44.955  14.254   2.674
28667W        W88170  36.072  14.275   4.123
28668W        W88171   6.798   6.411   2.197
28669W        W88172  25.624  41.947   4.317
28670W        W88173   2.899  13.199  12.381
28671W        W88174  37.371  36.883   1.402
28672W        W88175  26.698   3.901   0.339
28673W        W88176  18.703  42.784   4.323
28674W        W88177  33.964  27.056  13.527
28675W        W88178  37.443  36.548   2.735
28676W        W88179  28.969  40.542   2.378
28677W        W88180   2.445   2.778  11.953
28678W        W88181  43.802  24.045   1.294
28679W        W88182   0.856  37.451  14.440
28680W        W88183  39.060   2.353  14.456
28681W        W88184  39.505  26.202   2.836
28682W        W88185  38.563  43.863  14.014
28683W        W88186  36.426   0.814  13.825
28684W        W88187  33.614  23.221  12.955
28685W        W88188  36.553  23.516   5.249
28686W        W88189  16.232  33.000   3.836
28687W        W88190   6.203   7.833  14.419
28688W        W88191  26.147  44.829   0.845
28689W        W88192   8.859  31.970  12.455
28690W        W88193  32.491  35.865  14.982
28691W        W88194  17.776  14.340  12.410
28692W        W88195  37.069  32.896  10.601
28693W        W88196   3.271   5.834   0.738
28694W        W88197   7.902  12.752   3.296
28695W        W88198  23.071  44.292   1.285
28696W        W88199  24.199  18.117   3.210
28697W        W88200   7.817  33.105  10.458
28698W        W88201  29.606   3.735  14.348
28699W        W88202   0.333   8.257  11.956
28700W        W88203  13.227  22.056  13.966
28701W        W88204  40.826  37.530  11.064
28702W        W88205   0.314   4.286   4.678
28703W        W88206   9.875  28.033  11.375
28704W        W88207   6.237  44.336   4.137
28705W        W88208   4.925  29.546  13.055
28706W        W88209   0.966  39.011   1.333
28707W        W88210  19.734  15.730  10.618
28708W        W88211  40.992  23.647   3.755
28709W        W88212   2.820  14.599  13.795
28710W        W88213  44.264  20.182   3.216
28711W        W88214  36.955  38.482  10.959
28712W        W88215  18.208   8.236   3.728
28713W        W88216  27.086  37.061  13.950
28714W        W88217  43.443   8.870  11.525
28715W        W88218  12.192   3.432  11.556
28716W        W88219  29.107  35.093   4.811
28717W        W88220  43.962   8.337  11.007
28718W        W88221  13.221   0.897  11.097
28719W        W88222  44.341  24.513  12.538
28720W        W88223  28.977  26.607  12.833
28721W        W88224  13.253  24.636   3.658
28722W        W88225  44.817  44.277  12.366
28723W        W88226  33.939  29.096  13.381
28724W        W88227   4.255  31.988   0.909
28725W        W88228  33.569  43.936  11.529
28726W        W88229  26.075   3.872  13.952
28727W        W88230  35.038  32.118  12.867
28728W        W88231  18.721  37.468   1.433
28729W        W88232  16.077  15.612   4.750
28730W        W88233   3.280  10.875  10.908
28731W        W88234  39.384  20.685   0.963
28732W        W88235  34.016  34.499   1.402
28733W        W88236  13.291  20.541   1.699
28734W        W88237   9.713  19.066   4.673
28735W        W88238  29.626   0.414   2.262
28736W        W88239   8.308   8.291  12.832
28737W        W88240  36.460  36.574  14.514
28738W        W88241   7.281  16.194  14.759
28739W        W88242   8.270  15.165   3.800
28740W        W88243  20.065  16.680  14.899
28741W        W88244  22.060  13.822  12.440
28742W        W88245   3.298  16.093  10.600
28743W        W88246  28.123  16.662  13.395
28744W        W88247  35.381  12.304   3.700
28745W        W88248  16.199  19.608   0.751
28746W        W88249  31.120   9.257  10.979
28747W        W88250  35.405   3.721  12.028
28748W        W88251  33.911  14.588  10.932
28749W        W88252   6.915  27.976  11.535
28750W        W88253   2.247  40.824  12.925
28751W        W88254  36.073  13.250   4.793
28752W        W88255  21.224   6.188   2.321
28753W        W88256  38.823  29.083  13.504
28754W        W88257  11.856  34.577   3.846
28755W        W88258  14.096  11.788   2.663
28756W        W88259  21.087  15.657   4.757
28757W        W88260  35.580  36.554  10.009
28758W        W88261  26.703   9.696   0.483
28759W        W88262  44.317  30.564  10.505
28760W        W88263  39.809  22.673   4.611
28761W        W88264  19.722  42.996   2.237
28762W        W88265  17.639   6.254  13.517
28763W        W88266   7.413  10.815  14.903
28764W        W88267  44.759  30.425  14.451
28765W        W88268  20.048  13.775  13.008
28766W        W88269  36.415  20.265  13.906
28767W        W88270  24.192  22.545   9.929
28768W        W88271   8.671  16.691  12.034
28769W        W88272  39.978   5.215  12.480
28770W        W88273  24.173   8.203   0.440
28771W        W88274  39.315   7.197  13.923
28772W        W88275  30.923  39.519   5.715
28773W        W88276  13.714  33.891  10.102
28774W        W88277  26.606  21.246   2.764
28775W        W88278  22.603   2.352   4.135
28776W        W88279   3.781  32.071   4.789
28777W        W88280   4.771   9.346  13.505
28778W        W88281   7.288  35.413  12.916
28779W        W88282  33.132  41.973  13.936
28780W        W88283  22.740   5.264  11.609
28781W        W88284  37.390  22.655  14.342
28782W        W88285  14.715   0.306  10.089
28783W        W88286   0.742  13.198  12.368
28784W        W88287   8.758  14.210  10.589
28785W        W88288  24.131  23.660  11.946
28786W        W88289   9.791  42.403  13.953
28787W        W88290  32.545  32.402   3.658
28788W        W88291  10.716  16.184   0.463
28789W        W88292  22.673  32.458  13.915
28790W        W88293  16.761  14.134  11.446
28791W        W88294  39.001  38.351   2.769
28792W        W88295  43.883   1.917   3.641
28793W        W88296   4.790   6.426   0.738
28794W        W88297   8.887  27.538  14.338
28795W        W88298   0.810   7.821   0.729
28796W        W88299   2.773  39.498  13.333
28797W        W88300  30.132   5.350  11.578
28798W        W88301   8.317  38.871   0.443
28799W        W88302   2.829  29.133   2.266
28800W        W88303  38.375  28.161   3.824
28801W        W88304  17.098   4.385   0.773
28802W        W88305  28.141  13.811   3.632
28803W        W88306  31.125  11.650   4.176
28804W        W88307  42.907  42.857  11.606
28805W        W88308  22.134   4.700  13.024
28806W        W88309  33.054  39.373  11.031
28807W        W88310   0.475  41.922   0.875
28808W        W88311  28.144  25.547  12.824
28809W        W88312  14.282   3.446  14.291
28810W        W88313   9.852  37.341   3.838
28811W        W88314  12.297  14.097  12.082
28812W        W88315  37.945   3.839   1.729
28813W        W88316   4.853  44.314   1.842
28814W        W88317  37.060  22.682   0.349
28815W        W88318  34.009  44.958  14.391
28816W        W88319  28.102   1.826  10.635
28817W        W88320  24.643  19.730  14.762
28818W        W88321  23.730   9.216   2.798
28819W        W88322  43.276   0.769   1.217
28820W        W88323   7.324  23.516   3.800
28821W        W88324  29.977  16.258   1.398
28822W        W88325  21.263  30.583   2.876
28823W        W88326  35.074  17.164   1.238
28824W        W88327   9.752  12.628   0.479
28825W        W88328   7.345  16.190  12.573
28826W        W88329   6.782  13.139   1.741
28827W        W88330  13.763  37.552   2.411
28828W        W88331  11.703   5.889  10.459
28829W        W88332  16.731  40.964  11.856
28830W        W88333   2.325   9.364   3.837
28831W        W88334  32.946  39.058   3.251
28832W        W88335  35.021  15.740   1.857
28833W        W88336   9.367  39.409  12.882
28834W        W88337   5.919  29.424  13.343
28835W        W88338  11.157  30.557   9.465
28836W        W88339   5.891  32.923   2.288
28837W        W88340  28.128  15.584  13.471
28838W        W88341  38.973   7.212  11.456
28839W        W88342  25.707  11.720   4.252
28840W        W88343  32.566  21.725  10.963
28841W        W88344  13.209  13.302   4.162
28842W        W88345  35.953  10.288   2.682
28843W        W88346   9.806  32.974   2.317
28844W        W88347  20.645  24.657  12.977
28845W        W88348   5.410  28.943   1.437
28846W        W88349  40.959  40.867   3.253
28847W        W88350  35.597  22.573   4.803
28848W        W88351   5.893  15.812  10.533
28849W        W88352  36.391  28.622  11.035
28850W        W88353  21.171  12.246   3.849
28851W        W88354  39.543  23.696   1.878
28852W        W88355  35.066   8.287   3.831
28853W        W88356   7.252  30.041   4.343
28854W        W88357  28.518   7.829   2.348
28855W        W88358  37.502   4.857   2.745
28856W        W88359  11.680  21.187  10.555
28857W        W88360  37.843  10.690   2.313
28858W        W88361  15.731  30.110  11.117
28859W        W88362   2.796  32.112   0.353
28860W        W88363   5.412   3.346  10.911
28861W        W88364  26.483  32.955  14.924
28862W        W88365  44.264  24.151   0.739
28863W        W88366  20.078  37.943  11.533
28864W        W88367   9.315  38.408  10.569
28865W        W88368  14.234  44.306   3.788
28866W        W88369  35.479  21.232  12.392
28867W        W88370  43.453  17.589  14.385
28868W        W88371  19.723  29.985  14.002
28869W        W88372  13.173  30.048   0.406
28870W        W88373  16.571   9.363   3.260
28871W        W88374   5.850  39.838  14.431
28872W        W88375  35.919   6.259   2.735
28873W        W88376  20.182  17.293  14.380
28874W        W88377  18.782  31.012  11.898
28875W        W88378  35.597  19.204  14.282
28876W        W88379  20.120  18.560   4.819
28877W        W88380  14.159   0.302   0.767
28878W        W88381  30.448   9.307   3.698
28879W        W88382  12.824  32.532  13.838
28880W        W88383  29.133  35.455  11.887
28881W        W88384   2.365  17.129  13.037
28882W        W88385   4.384   9.739  12.389
28883W        W88386   3.457  16.125  11.612
28884W        W88387  30.159  19.166   2.317
28885W        W88388  15.809  37.400  11.051
28886W        W88389  44.983  10.345  14.966
28887W        W88390  40.966  42.404   2.769
28888W        W88391  44.769   6.754  12.479
28889W        W88392  19.591  24.516   0.745
28890W        W88393  18.773  28.591   0.758
28891W        W88394  12.752  23.507   1.736
28892W        W88395  37.442  14.592  13.932
28893W        W88396  40.389   4.745  14.961
28894W        W88397  36.046  11.807  11.470
28895W        W88398   8.205   0.252  13.429
28896W        W88399  29.096  44.969  13.841
28897W        W88400  31.073  34.514  14.946
28898W        W88401  30.028  13.162   0.824
28899W        W88402  29.075  30.009   2.764
28900W        W88403   6.904   4.450  13.802
28901W        W88404  16.616  12.632  13.533
28902W        W88405  11.632  22.074   4.644
28903W        W88406  26.563  22.598  12.539
28904W        W88407   8.306  32.104   5.246
28905W        W88408  25.143  41.310   3.233
28906W        W88409  21.683  38.389   2.746
28907W        W88410  39.834  14.822   0.930
28908W        W88411  16.746   7.845  10.521
28909W        W88412  22.237  24.184   2.189
28910W        W88413  41.487  20.053  11.856
28911W        W88414  42.915  36.029  11.485
28912W        W88415  16.605  26.658  14.944
28913W        W88416  42.003   7.249   4.130
28914W        W88417   2.342   9.256  12.083
28915W        W88418  35.481   1.394   2.195
28916W        W88419  42.288  36.084   0.398
28917W        W88420  38.837  21.182  13.319
28918W        W88421  19.178  35.961   0.476
28919W        W88422  14.831  34.100   4.826
28920W        W88423  21.088  36.452  14.990
28921W        W88424  19.151   9.661  10.451
28922W        W88425  21.053  37.081   0.924
28923W        W88426  40.330   8.833   3.260
28924W        W88427  32.503  41.305  14.320
28925W        W88428  11.169   4.283  12.381
28926W        W88429   6.892   8.231   0.760
28927W        W88430   0.923  13.270   3.783
28928W        W88431  25.495  24.162  12.859
28929W        W88432   2.336  28.651   5.663
28930W        W88433   0.418  23.233   2.231
28931W        W88434  22.730  35.396   0.748
28932W        W88435  21.625   8.853   1.857
28933W        W88436  32.000  24.649  11.461
28934W        W88437  33.983  28.174   5.129
28935W        W88438   2.937  38.428   4.289
28936W        W88439  26.572  44.787   4.272
28937W        W88440  40.888  32.560  14.979
28938W        W88441  24.608  17.170  13.329
28939W        W88442   7.172  23.553   1.694
28940W        W88443  13.731  10.272  11.003
28941W        W88444   8.250  39.902  14.897
28942W        W88445  13.350   2.344  10.901
28943W        W88446  20.201  17.709  12.354
28944W        W88447  30.464  18.215   0.864
28945W        W88448   4.854   3.423   0.749
28946W        W88449  24.991  39.972   4.618
28947W        W88450  19.241  17.754  14.509
28948W        W88451  32.886  12.850  10.011
28949W        W88452   8.323  18.246  12.095
28950W        W88453  26.569  29.668  12.865
28951W        W88454  26.180  29.108  11.536
28952W        W88455  43.000   7.901  10.889
28953W        W88456  37.978   2.957  11.921
28954W        W88457  44.496  25.071  12.836
28955W        W88458  41.844  22.692  14.967
28956W        W88459  26.670   4.216  12.935
28957W        W88460  39.455   0.854  11.930
28958W        W88461   0.919   6.323   3.719
28959W        W88462  42.802  39.344   1.346
28960W        W88463  38.500  28.139  11.494
28961W        W88464  41.015   7.672   2.294
28962W        W88465  44.884   3.447   1.282
28963W        W88466   1.373  38.831  12.075
28964W        W88467  30.913  15.160  11.088
28965W        W88468  25.633   1.842  10.079
28966W        W88469  26.994  29.603   4.276
28967W        W88470  36.465  17.624  14.927
28968W        W88471  29.442  24.131  10.505
28969W        W88472   9.711  28.605  11.075
28970W        W88473  44.383  15.708   3.710
28971W        W88474  12.233  28.500  14.933
28972W        W88475  26.051  44.373  14.340
28973W        W88476  40.826  22.225  14.387
28974W        W88477  40.920  36.550   3.340
28975W        W88478  21.141  18.726  14.335
28976W        W88479  11.317   0.255  13.307
28977W        W88480  30.571   1.932   2.329
28978W        W88481  43.995  29.114   1.411
28979W        W88482  21.574  40.015  10.632
28980W        W88483  15.764   9.297   5.250
28981W        W88484  38.841  15.095   4.336
28982W        W88485   5.404  31.509   1.401
28983W        W88486  44.948  15.217   3.351
28984W        W88487   2.735  35.868  14.512
28985W        W88488  24.152  31.522   1.694
28986W        W88489  30.024  20.735  12.027
28987W        W88490  38.449  19.696  10.425
28988W        W88491  28.162  27.055  10.575
28989W        W88492  25.707  38.036  11.087
28990W        W88493  27.958   5.244   2.414
28991W        W88494   8.162  13.299  10.973
28992W        W88495  18.101  33.093   3.766
28993W        W88496  18.262  33.120  13.044
28994W        W88497  28.143  42.927   0.392
28995W        W88498  13.282  42.509   3.821
28996W        W88499  37.999  41.376  11.924
28997W        W88500   6.730   6.225  11.927
28998W        W88501  22.225  36.908  14.944
28999W        W88502  34.891  14.720  14.370
29000W        W88503   8.368  41.035  11.977
29001W        W88504   4.720   9.680  14.000
29002W        W88505  39.529   3.421   3.172
29003W        W88506  29.481  39.847  13.389
29004W        W88507   2.298  39.964  14.495
29005W        W88508  11.343  14.322  10.944
29006W        W88509  25.595  31.510  11.894
29007W        W88510  21.205  13.267  12.835
29008W        W88511  28.095   4.874   2.181
29009W        W88512  35.982   3.826   0.819
29010W        W88513   0.892  22.585   1.224
29011W        W88514  36.972  27.503  12.001
29012W        W88515  21.667   5.827   4.659
29013W        W88516   3.892   7.172  13.423
29014W        W88517  16.767   9.181  14.970
29015W        W88518  34.004  27.065  12.849
29016W        W88519  35.070   3.357  10.435
29017W        W88520  24.217  38.417  10.534
29018W        W88521   2.779  22.548   4.729
29019W        W88522  25.108  44.995  10.149
29020W        W88523  42.839  29.577  14.919
29021W        W88524  14.648  35.493   0.873
29022W        W88525  26.663  33.908  11.078
29023W        W88526  38.526  12.354  14.852
29024W        W88527  11.679  20.566  11.905
29025W        W88528   2.362  29.966  11.474
29026W        W88529  32.562   0.813   1.812
29027W        W88530  19.692   8.849   4.772
29028W        W88531   6.773  44.838  14.822
29029W        W88532  30.463  31.488   1.276
29030W        W88533   0.983  18.239  12.090
29031W        W88534  10.739  10.315   0.417
29032W        W88535   5.341  27.558  10.480
29033W        W88536  15.592  20.272   1.842
29034W        W88537  33.094  15.759   1.903
29035W        W88538   9.184  29.088  14.313
29036W        W88539  12.350  16.203   0.900
29037W        W88540  36.516  22.553   4.195
29038W        W88541  28.463  22.583  10.559
29039W        W88542  10.709  31.070  13.817
29040W        W88543  15.618   5.693   2.900
29041W        W88544  32.594  40.875   3.288
29042W        W88545  33.494   6.357  12.904
29043W        W88546   9.210  13.765  14.303
29044W        W88547  13.231  37.558  13.020
29045W        W88548  41.463  28.170  13.418
29046W        W88549  30.428  14.607   4.734
29047W        W88550  41.032   7.211   1.444
29048W        W88551  40.441   2.962  14.911
29049W        W88552   0.750  23.664  13.936
29050W        W88553  37.959   1.758  11.429
29051W        W88554  33.482  37.891   4.723
29052W        W88555  33.916   8.282  11.411
29053W        W88556  31.032  38.927  11.525
29054W        W88557  37.365  34.511   2.775
29055W        W88558  17.611  27.530  11.425
29056W        W88559  21.257  37.529   3.345
29057W        W88560  23.559  36.884   4.623
29058W        W88561  13.324  36.994  13.842
29059W        W88562   5.695  19.063  12.930
29060W        W88563  38.341   0.934  11.407
29061W        W88564   6.358   2.773   3.228
29062W        W88565  35.574  30.907  10.922
29063W        W88566  24.668  24.548   4.753
29064W        W88567   3.932  29.439  14.287
29065W        W88568   3.434   0.826  13.489
29066W        W88569  28.518  43.349  10.617
29067W        W88570  41.510   6.700  14.375
29068W        W88571   9.357   0.934   2.858
29069W        W88572  33.475  40.499  13.958
29070W        W88573  19.041   8.833   4.311
29071W        W88574  41.313  37.950  13.025
29072W        W88575  25.573  41.352  14.367
29073W        W88576  29.536  44.785   2.866
29074W        W88577  38.437  19.244  13.807
29075W        W88578  27.057  40.414  12.440
29076W        W88579  25.166  12.150  14.886
29077W        W88580   8.721  30.079  11.445
29078W        W88581  37.416  38.843   4.662
29079W        W88582  29.472   3.269  11.536
29080W        W88583  22.123   4.329  11.475
29081W        W88584  13.147  12.279  12.454
29082W        W88585  30.498   2.444   3.707
29083W        W88586  12.258  21.607   3.377
29084W        W88587  30.613  19.650   3.196
29085W        W88588  19.776   4.278  14.424
29086W        W88589  44.346   0.437   0.750
29087W        W88590  25.177   2.446   1.933
29088W        W88591  11.691  18.260  12.925
29089W        W88592  18.058  40.836   0.897
29090W        W88593   9.248  31.459   4.132
29091W        W88594   1.373  23.601   2.769
29092W        W88595   0.479  39.437  11.545
29093W        W88596  21.595   2.875   0.301
29094W        W88597  24.137  25.108   1.295
29095W        W88598   7.401  22.633   2.799
29096W        W88599  18.754  23.003  11.502
29097W        W88600  11.747  23.985   2.716
29098W        W88601  39.913  28.492   3.216
29099W        W88602   1.812  18.214  11.472
29100W        W88603   2.255  39.946   4.636
29101W        W88604   3.444  41.846   3.238
29102W        W88605  37.533  32.498  13.405
29103W        W88606   0.837  17.085  10.933
29104W        W88607  38.021  25.189   1.384
29105W        W88608  29.085  20.208   3.806
29106W        W88609  39.003   7.767  10.471
29107W        W88610  43.493  39.474   3.686
29108W        W88611  36.443  38.526  10.963
29109W        W88612  44.375  33.382   2.292
29110W        W88613  29.573  39.358   2.750
29111W        W88614  38.952  33.095   3.762
29112W        W88615  24.141   2.230  13.508
29113W        W88616  25.530   9.335  14.950
29114W        W88617   1.942   5.225   1.798
29115W        W88618  10.715   9.838   3.837
29116W        W88619  31.598  33.428  13.856
29117W        W88620  34.483  40.842   1.249
29118W        W88621   7.775  13.118   4.132
29119W        W88622  30.955   6.246   3.698
29120W        W88623  42.874  17.686   0.448
29121W        W88624   8.382  35.583   4.171
29122W        W88625  31.563  41.813  12.479
29123W        W88626   8.746   9.814  12.965
29124W        W88627  12.818   8.309  14.997
29125W        W88628  31.040   2.824   4.212
29126W        W88629  35.952  18.105  12.086
29127W        W88630  42.887   2.740  10.476
29128W        W88631   3.771   1.856  12.509
29129W        W88632  42.895   3.807   1.832
29130W        W88633  31.117  35.034  12.045
29131W        W88634  35.475  31.593  13.414
29132W        W88635  39.989   8.833  14.875
29133W        W88636  16.631   0.352  12.989
29134W        W88637  17.579   2.851  12.907
29135W        W88638  20.199  27.561   1.767
29136W        W88639  21.736  43.022   4.227
29137W        W88640  12.843  41.795  11.430
29138W        W88641  26.698  42.298  14.890
29139W        W88642  26.692  35.001   1.791
29140W        W88643  38.918  34.471  11.002
29141W        W88644  28.932   3.856  11.027
29142W        W88645   1.468   7.879  12.915
29143W        W88646  42.859   3.373   4.136
29144W        W88647  36.538  42.454  10.577
29145W        W88648  34.054  36.544  14.461
29146W        W88649   7.847   9.331  11.006
29147W        W88650  33.594  20.225   1.744
29148W        W88651  24.511  19.754   1.319
29149W        W88652   2.407  25.136  14.384
29150W        W88653  42.518  41.936  12.418
29151W        W88654  42.505   2.848   0.857
29152W        W88655   9.339  39.374   2.335
29153W        W88656  24.491  24.715   0.357
29154W        W88657  16.703   0.902  12.463
29155W        W88658  24.119  31.424  14.380
29156W        W88659   5.247  42.437   0.308
29157W        W88660   0.877  29.115   4.352
29158W        W88661  18.076  43.442  11.552
29159W        W88662   0.980  16.717   4.681
29160W        W88663  17.202  22.515   5.133
29161W        W88664  34.067  44.927  11.125
29162W        W88665  41.448  13.635  13.982
29163W        W88666  23.520   6.336  11.084
29164W        W88667  10.717   7.342   4.807
29165W        W88668  19.727  27.475  13.833
29166W        W88669  19.188   7.389   2.337
29167W        W88670  35.386   1.270  14.366
29168W        W88671  35.585  36.043  11.053
29169W        W88672  16.082  26.644  12.375
29170W        W88673  23.221  12.824  11.047
29171W        W88674  22.231   5.868   0.248
29172W        W88675   9.771  35.887  13.326
29173W        W88676  29.532   1.972  11.871
29174W        W88677   7.225  30.017  13.362
29175W        W88678   9.735   2.805  14.504
29176W        W88679  43.789  20.538  14.849
29177W        W88680  13.683  22.615   4.342
29178W        W88681  31.439  32.505  12.886
29179W        W88682   1.326   7.246   2.844
29180W        W88683  26.039   2.814   0.922
29181W        W88684   1.781  34.912   4.808
29182W        W88685  25.219   2.781   3.362
29183W        W88686   9.696  39.316   3.655
29184W        W88687  28.624  28.092  14.297
29185W        W88688  43.390  36.049   4.182
29186W        W88689  44.371  15.279  11.942
29187W        W88690  34.453  40.910  12.409
29188W        W88691  14.107  35.431  12.985
29189W        W88692  10.869  32.004   5.315
29190W        W88693  33.908   2.244   0.385
29191W        W88694  31.445  31.565   0.814
29192W        W88695  36.520  39.028  12.454
29193W        W88696   4.806  31.916  13.826
29194W        W88697  10.159  18.567   0.929
29195W        W88698  29.592   3.225   0.433
29196W        W88699  31.550  33.518   0.454
29197W        W88700  30.569   3.454  12.478
29198W        W88701  44.338  30.565  12.038
29199W        W88702  35.436  13.177   4.333
29200W        W88703  15.597  20.596  12.565
29201W        W88704  36.576  12.361  12.403
29202W        W88705  39.537  38.541  11.073
29203W        W88706  13.119   6.843  10.910
29204W        W88707  19.137   8.396   3.817
29205W        W88708  24.046  32.516  13.909
29206W        W88709  16.643  14.133   1.881
29207W        W88710  11.844  40.872   3.641
29208W        W88711  13.600  18.093  13.471
29209W        W88712   7.209  20.259  12.052
29210W        W88713  39.877  42.843  10.889
29211W        W88714   8.779  32.445   2.853
29212W        W88715  43.298  33.015   2.714
29213W        W88716   6.857  17.713   3.301
29214W        W88717  34.884   5.245   2.365
29215W        W88718  12.626  23.664  13.887
29216W        W88719  41.854  15.821  13.375
29217W        W88720  18.770   1.840   3.768
29218W        W88721   3.415   6.225  11.940
29219W        W88722   2.434  34.031  12.967
29220W        W88723  10.351  29.462   1.252
29221W        W88724  11.790   3.906   2.259
29222W        W88725  27.593  13.661   1.381
29223W        W88726   7.245   1.454   1.354
29224W        W88727  43.947  35.893  10.622
29225W        W88728  15.687  38.831  12.906
29226W        W88729  23.545  39.853  12.430
29227W        W88730   2.903  27.167  12.445
29228W        W88731  31.548  29.605   1.375
29229W        W88732  44.898  33.934   0.323
29230W        W88733  26.086  23.512  14.028
29231W        W88734   9.371  25.648  14.807
29232W        W88735   1.928  38.565  14.813
29233W        W88736  13.287  32.889   2.187
29234W        W88737  19.174  35.413   3.696
29235W        W88738  10.740   5.724  14.800
29236W        W88739  14.704  43.793   3.838
29237W        W88740  30.044  36.366   3.764
29238W        W88741  22.584  18.684   1.275
29239W        W88742  39.973  44.979  13.499
29240W        W88743  38.542  14.673  14.925
29241W        W88744  25.496   2.349   4.635
29242W        W88745  43.832  44.501   0.381
29243W        W88746  24.034  35.016  14.989
29244W        W88747  23.508  36.989   1.873
29245W        W88748  25.685  25.656  13.931
29246W        W88749   7.216  19.261   1.345
29247W        W88750   4.401   2.750  12.361
29248W        W88751  27.523  17.164   4.773
29249W        W88752  40.391  12.814   2.721
29250W        W88753  35.547   9.208   1.841
29251W        W88754   8.283   4.793   0.763
29252W        W88755  24.019  44.008  12.473
29253W        W88756  15.225  33.089   4.352
29254W        W88757  33.563  20.536   1.378
29255W        W88758  31.499  26.958   2.776
29256W        W88759  35.027  16.803  11.026
29257W        W88760  16.085  15.286  11.943
29258W        W88761  23.025   9.292   3.305
29259W        W88762  41.319  32.977  13.393
29260W        W88763  44.434  37.438   4.221
29261W        W88764  23.553  33.008   0.246
29262W        W88765  28.458   4.427   3.650
29263W        W88766  35.942  31.106   3.363
29264W        W88767  44.472  10.165   2.865
29265W        W88768  30.044  38.502  13.840
29266W        W88769   2.944  30.012   0.730
29267W        W88770  36.845  44.943  12.966
29268W        W88771  35.937  17.125   3.373
29269W        W88772  10.350   7.416  14.968
29270W        W88773  33.574  14.326   5.171
29271W        W88774  35.947  39.480  13.538
29272W        W88775  44.486  16.757  13.469
29273W        W88776  25.025   3.348  13.970
29274W        W88777  40.985  35.852  11.082
29275W        W88778  22.633  15.586  12.521
29276W        W88779   8.746  35.427   9.991
29277W        W88780  33.105  26.040  13.922
29278W        W88781  21.260  11.280   2.756
29279W        W88782  15.167  31.897  11.930
29280W        W88783  40.469  36.999  10.587
29281W        W88784  36.907  33.440  10.479
29282W        W88785  41.335  39.443   1.418
29283W        W88786  41.994  22.689  11.371
29284W        W88787   6.789  38.525  11.983
29285W        W88788   0.302  37.492  13.884
29286W        W88789  41.953  43.985  13.310
29287W        W88790  39.349  27.010  13.047
29288W        W88791  29.974  14.656  13.397
29289W        W88792   2.782  24.198   1.426
29290W        W88793  11.139  31.589   9.940
29291W        W88794   2.285  10.200  11.502
29292W        W88795  16.302   8.871  12.038
29293W        W88796  10.732   1.282   2.225
29294W        W88797  35.427  16.167   3.846
29295W        W88798  12.327  27.062  11.533
29296W        W88799   6.408  23.171  10.144
29297W        W88800  33.031  25.004   1.431
29298W        W88801   1.432  31.931   0.891
29299W        W88802   6.248  32.128  11.434
29300W        W88803   7.263   3.227  12.021
29301W        W88804  33.008  12.745  13.028
29302W        W88805   7.825  14.113  12.471
29303W        W88806  14.135  30.999  12.407
29304W        W88807  41.356  12.274  14.869
29305W        W88808  43.472  23.498   3.793
29306W        W88809   4.776   6.833  14.476
29307W        W88810  19.745  29.617  12.430
29308W        W88811  26.658   4.436   4.696
29309W        W88812  40.008  41.816  12.970
29310W        W88813  39.545   7.257   1.872
29311W        W88814   9.241   3.437   2.355
29312W        W88815  35.962  24.696   2.840
29313W        W88816  42.941  28.486  11.116
29314W        W88817  43.338  20.631   0.805
29315W        W88818   7.824  10.162   1.787
29316W        W88819  38.864   2.313  14.800
29317W        W88820  12.277  35.551   1.888
29318W        W88821  44.472  29.526  10.421
29319W        W88822  40.440  23.525  11.076
29320W        W88823  36.475   9.823   4.619
29321W        W88824  35.870  23.009  13.871
29322W        W88825  31.088  14.272   1.360
29323W        W88826  34.551   9.357   2.232
29324W        W88827  12.157   3.291  12.517
29325W        W88828  12.152  30.506   4.798
29326W        W88829  12.253  32.025  10.989
29327W        W88830  17.182  20.689  12.922
29328W        W88831  41.892   0.780   1.916
29329W        W88832   4.910  30.487  12.368
29330W        W88833   0.475   2.768  11.967
29331W        W88834   5.759   3.418   4.714
29332W        W88835  16.597   0.352  11.084
29333W        W88836  44.379  29.428  13.824
29334W        W88837  40.362   3.854  11.546
29335W        W88838  26.993  20.751  13.824
29336W        W88839   7.710  28.130  10.063
29337W        W88840  22.569   2.730   0.961
29338W        W88841  33.511  13.168   5.099
29339W        W88842  24.692  40.521   1.238
29340W        W88843  20.122  19.614   1.244
29341W        W88844  37.538  40.877  14.937
29342W        W88845   0.985  24.631   1.425
29343W        W88846  17.302   3.878  12.898
29344W        W88847  17.641  27.089   3.176
29345W        W88848  17.655   4.217  11.036
29346W        W88849   3.459  21.143   4.171
29347W        W88850  42.799  24.120   3.267
29348W        W88851  15.715  11.273   2.317
29349W        W88852  38.989  22.506   1.915
29350W        W88853  25.199   9.797   0.750
29351W        W88854  20.125  43.006  14.910
29352W        W88855  21.104   7.851   0.376
29353W        W88856   6.289   4.868   2.877
29354W        W88857  19.750  25.624   4.252
29355W        W88858  23.149  37.872  14.941
29356W        W88859  17.629  25.480  14.816
29357W        W88860  38.516  25.025  13.020
29358W        W88861   7.242  14.103   2.843
29359W        W88862  27.536  19.054   3.251
29360W        W88863  40.311  42.346  14.460
29361W        W88864  14.251  11.644   3.298
29362W        W88865  11.298  31.023   4.781
29363W        W88866  15.627  13.327   0.369
29364W        W88867   6.870  31.415   0.929
29365W        W88868  14.226  28.610   1.343
29366W        W88869  32.446   0.279  14.493
29367W        W88870  39.459   5.805   4.684
29368W        W88871   1.831  19.624   2.714
29369W        W88872  35.950   7.349   0.864
29370W        W88873  38.984  32.026   1.408
29371W        W88874  24.483  19.664   4.152
29372W        W88875  28.533  33.093  12.497
29373W        W88876  38.001  18.164  11.063
29374W        W88877  13.651  32.521  14.509
29375W        W88878  20.176   0.426   9.607
29376W        W88879  17.286  19.094  12.053
29377W        W88880  40.448  17.672  13.064
29378W        W88881  38.048  37.896   3.280
29379W        W88882  20.704  25.598   0.243
29380W        W88883  12.352   1.887  13.841
29381W        W88884  10.749  43.377  12.839
29382W        W88885   6.357   6.786   0.373
29383W        W88886  27.025  37.872  12.525
29384W        W88887  36.010  22.118  14.516
29385W        W88888  11.135  15.602  14.964
29386W        W88889   8.160  43.344   1.358
29387W        W88890  36.964   7.316  13.873
29388W        W88891   2.308  23.114  12.836
29389W        W88892  15.642   0.446  13.035
29390W        W88893   6.188  13.140   1.297
29391W        W88894  29.957  12.238   4.348
29392W        W88895  13.758  38.539  12.997
29393W        W88896  27.544  20.728   1.244
29394W        W88897  14.316   2.414  12.003
29395W        W88898  44.956  23.993   3.673
29396W        W88899   2.388  16.249  11.379
29397W        W88900   5.256  15.792  14.431
29398W        W88901   0.862  23.051   1.740
29399W        W88902  22.178  14.323   3.244
29400W        W88903  41.344   6.917   3.255
29401W        W88904  20.553  33.607  12.399
29402W        W88905  33.072  33.451  14.008
29403W        W88906  29.586  23.241  11.400
29404W        W88907  29.127   3.445  13.048
29405W        W88908   4.418  23.057   3.681
29406W        W88909  14.736  27.663   2.767
29407W        W88910  34.537   7.773   3.690
29408W        W88911  40.833   9.778   0.846
29409W        W88912   8.804  12.837   0.248
29410W        W88913  39.031  34.534  11.611
29411W        W88914  12.756   5.274   4.706
29412W        W88915  37.036  15.629  10.643
29413W        W88916  24.571   1.792   3.254
29414W        W88917   1.305  39.815   1.332
29415W        W88918  30.009  22.694   2.238
29416W        W88919  22.238  39.877  12.406
29417W        W88920  14.156  34.044   3.824
29418W        W88921  40.859  36.547  13.043
29419W        W88922  44.828  33.486  13.943
29420W        W88923  14.134  26.970  12.835
29421W        W88924  19.682  41.920   2.181
29422W        W88925   0.841  32.633   3.216
29423W        W88926  26.653  41.476   4.342
29424W        W88927  22.693  44.756  13.015
29425W        W88928  39.521  26.978  11.995
29426W        W88929  27.016  12.295  10.440
29427W        W88930  11.156  36.853   0.411
29428W        W88931  37.086  44.882   2.379
29429W        W88932   1.428  23.682   4.298
29430W        W88933   1.828  44.427  12.382
29431W        W88934  20.186  27.177  13.925
29432W        W88935  18.605  32.094  14.953
29433W        W88936  36.895  16.203   0.918
29434W        W88937  27.589  14.185  12.029
29435W        W88938   7.717   3.257   2.730
29436W        W88939  31.897  32.526   0.399
29437W        W88940  33.402  10.719  11.544
29438W        W88941  16.141  24.532   0.393
29439W        W88942  37.905   8.850  12.489
29440W        W88943  24.636   8.179   2.792
29441W        W88944  37.505  21.017  13.398
29442W        W88945  10.339  41.832   4.135
29443W        W88946   8.222   9.734   0.944
29444W        W88947  14.128   4.419  14.842
29445W        W88948   3.752  36.903  10.436
29446W        W88949  41.517  32.997   1.449
29447W        W88950  38.849  32.612  14.903
29448W        W88951  21.741  16.140  10.890
29449W        W88952  44.848  22.006   0.295
29450W        W88953  20.274   1.796   2.899
29451W        W88954  29.616   3.214  12.034
29452W        W88955  30.981  11.838   0.758
29453W        W88956  15.598   6.307  14.453
29454W        W88957  11.637  16.664  11.515
29455W        W88958  18.622   9.690   2.255
29456W        W88959  17.692  40.925   4.192
29457W        W88960  34.015  39.557   1.318
29458W        W88961  14.138  43.942  13.895
29459W        W88962  28.458  37.893  13.056
29460W        W88963  38.567  10.208   1.915
29461W        W88964  21.245  36.091  12.844
29462W        W88965  39.417  34.887   2.298
29463W        W88966  27.670   3.251  12.038
29464W        W88967  38.006  41.446   1.392
29465W        W88968  29.582  11.718  12.027
29466W        W88969  12.615  19.559   0.845
29467W        W88970  13.692  11.213   4.285
29468W        W88971  14.777   3.293   0.801
29469W        W88972  30.612   2.785  14.014
29470W        W88973  18.264  43.299   0.898
29471W        W88974  19.254  20.669  14.012
29472W        W88975  21.033  42.880   5.158
29473W        W88976  17.094   1.815   3.217
29474W        W88977  16.255  23.137  13.516
29475W        W88978  27.062   2.318   2.360
29476W        W88979  25.072  15.175   0.252
29477W        W88980  12.625  11.705  10.419
29478W        W88981  18.767  25.157   4.667
29479W        W88982  21.212  14.735  10.577
29480W        W88983  41.487  30.464  14.850
29481W        W88984  27.103   2.261   5.266
29482W        W88985   1.739  38.958   0.833
29483W        W88986  17.601   7.795   1.300
29484W        W88987  33.936  13.774  14.865
29485W        W88988   8.295  15.709   4.239
29486W        W88989  26.553   9.262  12.423
29487W        W88990  17.736  11.848  13.403
29488W        W88991  17.100   3.888   4.809
29489W        W88992   1.364  21.060  13.497
29490W        W88993  24.148   3.774   1.710
29491W        W88994  41.952  39.481   2.282
29492W        W88995   1.441  19.245   5.265
29493W        W88996  17.645  41.846   2.418
29494W        W88997  27.040  18.097   3.851
29495W        W88998  14.116  19.702   1.384
29496W        W88999  14.745  13.243   1.215
29497W        W89000   2.856  37.969  14.482
29498W        W89001  13.162  24.091  11.452
29499W        W89002  40.980  11.656   3.345
29500W        W89003  16.291  20.161  13.915
29501W        W89004  32.522  30.963  10.616
29502W        W89005  42.366  35.069   0.356
29503W        W89006  26.700  26.957  11.586
29504W        W89007  12.144  36.510   2.856
29505W        W89008  16.305  44.936   3.164
29506W        W89009  28.542  28.623  11.908
29507W        W89010  17.148  30.058  14.966
29508W        W89011  25.687  35.514   4.326
29509W        W89012  22.164  44.986  14.827
29510W        W89013  28.962  33.880  11.415
29511W        W89014  24.674  20.138   4.633
29512W        W89015  24.509   9.800   4.243
29513W        W89016  34.894  10.343  14.922
29514W        W89017   4.380   5.727   3.265
29515W        W89018  14.800  35.871  10.905
29516W        W89019  25.613  29.536   3.363
29517W        W89020  39.866  17.280   4.142
29518W        W89021   1.334  36.972   4.267
29519W        W89022  10.309  32.098   0.960
29520W        W89023  11.188  29.943  10.469
29521W        W89024  22.218   6.327   3.719
29522W        W89025  19.543  36.850  11.888
29523W        W89026  27.448  37.535  14.023
29524W        W89027  39.919  27.116   3.703
29525W        W89028  26.064  19.054   4.154
29526W        W89029  39.946  39.821  13.970
29527W        W89030  33.411  31.599  11.987
29528W        W89031   8.840  19.628   4.765
29529W        W89032  43.414  18.067   4.185
29530W        W89033  29.078  29.542   2.827
29531W        W89034   8.392  41.308   0.343
29532W        W89035   9.160  32.498   2.835
29533W        W89036  22.694  21.100  13.984
29534W        W89037   6.784  26.588  14.798
29535W        W89038  35.533  17.089   1.425
29536W        W89039  26.189  19.179  14.363
29537W        W89040  30.073  20.059  13.887
29538W        W89041  12.819   6.201  10.443
29539W        W89042  19.729  42.501   2.690
29540W        W89043  33.579   9.841   4.247
29541W        W89044   1.876  30.508  13.885
29542W        W89045  10.652  28.568   4.822
29543W        W89046  24.050  24.536   2.384
29544W        W89047   6.865  26.562  14.391
29545W        W89048  40.520   8.392   3.731
29546W        W89049  31.909  14.788   1.861
29547W        W89050  23.568   7.808  11.967
29548W        W89051   9.195  28.479  11.403
29549W        W89052  15.259  23.986   2.738
29550W        W89053  33.939   3.222  13.490
29551W        W89054   7.897  25.046   3.799
29552W        W89055  28.601  10.683  12.342
29553W        W89056  43.462  28.038   0.863
29554W        W89057  25.979  15.800  11.036
29555W        W89058  11.274  14.613   9.592
29556W        W89059  28.544  41.477  14.989
29557W        W89060  24.703  19.266   0.266
29558W        W89061  13.347  17.168  11.085
29559W        W89062  15.753   5.766  13.840
29560W        W89063   3.796  21.640  12.090
29561W        W89064  25.204  29.600  13.900
29562W        W89065  44.806   4.908  13.956
29563W        W89066  39.885  10.779   2.404
29564W        W89067  10.721  28.657  12.501
29565W        W89068   0.803  26.114  13.843
29566W        W89069  16.791  11.806   2.868
29567W        W89070  29.585   4.812   0.836
29568W        W89071  32.473  25.211  14.988
29569W        W89072  36.452  42.381  12.895
29570W        W89073  28.520  35.561   1.297
29571W        W89074  15.198  17.759   2.327
29572W        W89075  34.985  23.570  13.460
29573W        W89076  31.560  19.111  10.945
29574W        W89077  20.709  31.098  13.509
29575W        W89078  37.972  43.965  14.437
29576W        W89079  35.089   6.381   5.258
29577W        W89080  29.613  41.872  11.981
29578W        W89081  10.373  18.769   0.254
29579W        W89082  38.360   6.878  12.039
29580W        W89083  41.334  39.343  14.771
29581W        W89084  20.106  20.664   1.335
29582W        W89085  40.860  26.625  11.382
29583W        W89086  26.054   5.707  10.926
29584W        W89087  34.541  15.234  11.086
29585W        W89088   1.406  26.645  12.499
29586W        W89089  29.133  33.131   0.810
29587W        W89090  29.118   4.937   0.349
29588W        W89091   1.862  20.236  12.054
29589W        W89092  31.081   1.931  12.955
29590W        W89093  22.023  43.001  12.952
29591W        W89094   4.244  44.968  11.986
29592W        W89095  15.104   3.257  10.443
29593W        W89096  31.130   1.260  10.577
29594W        W89097  34.498  26.987   3.787
29595W        W89098  13.106  15.219   4.190
29596W        W89099  24.052  35.422   3.295
29597W        W89100  24.624  22.128  14.484
29598W        W89101  20.561   8.893   1.371
29599W        W89102  42.973  11.359   4.677
29600W        W89103  22.563  34.985   1.886
29601W        W89104   3.350  21.117   0.472
29602W        W89105  15.176   0.879   0.734
29603W        W89106  19.671  35.913   2.375
29604W        W89107  26.556  32.418  13.514
29605W        W89108   4.421  14.160  14.361
29606W        W89109  27.100  14.809  10.430
29607W        W89110  25.618  28.078  14.907
29608W        W89111  17.690  33.029  14.371
29609W        W89112  36.050  34.907  10.418
29610W        W89113  31.447   1.365  13.452
29611W        W89114  38.980  23.153  13.440
29612W        W89115  31.537   1.306  12.091
29613W        W89116  44.470  21.593  14.782
29614W        W89117   9.871  34.501   0.855
29615W        W89118  31.481   8.700  13.329
29616W        W89119  14.257  16.220  11.046
29617W        W89120  38.958  21.240  13.999
29618W        W89121  34.966  33.579   2.388
29619W        W89122  11.288  36.989   5.279
29620W        W89123  41.420   0.939   0.785
29621W        W89124  23.119  19.266   4.663
29622W        W89125   3.771   0.967   2.225
29623W        W89126  21.596   2.301  13.453
29624W        W89127   2.288  39.550   0.265
29625W        W89128  13.200  31.045  10.971
29626W        W89129  25.003   3.897   3.792
29627W        W89130  16.189  38.874   0.300
29628W        W89131  43.855  38.863   3.207
29629W        W89132  25.633   8.375   0.317
29630W        W89133   3.366   9.804   1.889
29631W        W89134   4.228   4.344  11.391
29632W        W89135  17.606   2.960  13.957
29633W        W89136  23.590  40.428  14.985
29634W        W89137   0.969  26.668  12.405
29635W        W89138  41.409  16.313   4.188
29636W        W89139  10.243  18.571  10.045
29637W        W89140  29.540  42.350  10.577
29638W        W89141  16.749  13.804   4.711
29639W        W89142  27.561   8.692  12.854
29640W        W89143  18.091  34.406   2.369
29641W        W89144  10.212   5.291   1.346
29642W        W89145   3.757  29.474   1.359
29643W        W89146  33.888  16.206  11.045
29644W        W89147   3.277  39.013   2.354
29645W        W89148  14.103   3.831   2.315
29646W        W89149  17.646  21.061  11.526
29647W        W89150  12.324   0.857  10.900
29648W        W89151  18.178  35.377  12.969
29649W        W89152  43.305  39.358  13.878
29650W        W89153   2.351   9.239   4.187
29651W        W89154  14.324  44.925   4.752
29652W        W89155  38.520  21.601   1.297
29653W        W89156  28.143  44.841   3.792
29654W        W89157   9.339  42.944  11.094
29655W        W89158   4.376  40.953  14.342
29656W        W89159   4.893  16.269  14.933
29657W        W89160  20.554  23.136   3.331
29658W        W89161  27.684  44.500  13.945
29659W        W89162  31.420  30.601   1.359
29660W        W89163  44.484  15.671  10.416
29661W        W89164  14.650  32.088  10.104
29662W        W89165  14.652  38.405  14.386
29663W        W89166  34.105  33.533  12.409
29664W        W89167   1.357  19.658  10.030
29665W        W89168  15.140   0.805   3.323
29666W        W89169   9.226  10.359  10.608
29667W        W89170  39.540  38.893   2.783
29668W        W89171   0.797  17.093   2.697
29669W        W89172   0.287  22.619   9.467
29670W        W89173   5.887  34.589  12.538
29671W        W89174  15.752  21.151   4.274
29672W        W89175  21.229  37.561   5.208
29673W        W89176  43.956  42.915   2.720
29674W        W89177  39.991   8.837  11.592
29675W        W89178   7.801  25.047   0.276
29676W        W89179   0.988   0.344   4.248
29677W        W89180  44.754   1.408   2.240
29678W        W89181  20.145  23.633   0.332
29679W        W89182   2.361  23.700   0.913
29680W        W89183  14.783  32.469   1.263
29681W        W89184  32.516  18.071   5.302
29682W        W89185   8.860  39.326  11.924
29683W        W89186  28.054   3.910   4.249
29684W        W89187  23.641  38.387   2.760
29685W        W89188  12.166  10.207  13.368
29686W        W89189  33.971  43.451  13.326
29687W        W89190  22.502   3.274  11.997
29688W        W89191  37.863  23.510  10.994
29689W        W89192  18.582  18.597  13.992
29690W        W89193  31.129  44.917   4.598
29691W        W89194   2.333   0.451   2.354
29692W        W89195  44.992  20.539  14.915
29693W        W89196  17.144   8.890   0.726
29694W        W89197  18.594  43.852   3.302
29695W        W89198  28.137  27.478   4.629
29696W        W89199   7.737  18.578  10.564
29697W        W89200  11.855  22.116  14.340
29698W        W89201  19.177  26.538   0.850
29699W        W89202  44.988  12.792   2.411
29700W        W89203  35.857  19.232   4.796
29701W        W89204  10.250  35.008  12.421
29702W        W89205  23.673  18.194  13.887
29703W        W89206  40.869  26.583  12.574
29704W        W89207  27.149  19.609   5.093
29705W        W89208  30.593  11.701  10.414
29706W        W89209  39.056  14.302   0.282
29707W        W89210  31.519   3.924   4.255
29708W        W89211  11.219  20.184  12.365
29709W        W89212   2.757  31.480  12.519
29710W        W89213   2.448  36.906  14.497
29711W        W89214  20.703  40.504  13.469
29712W        W89215  38.363   7.730  11.059
29713W        W89216   7.349  29.055  11.050
29714W        W89217  22.541  35.092   2.810
29715W        W89218  43.412  22.501   1.364
29716W        W89219  38.932  43.321   2.195
29717W        W89220  43.777  23.527  10.608
29718W        W89221  10.325  14.180  10.527
29719W        W89222  29.478  17.190   9.980
29720W        W89223  14.731   7.281   4.747
29721W        W89224   8.302   5.908   4.173
29722W        W89225   1.818  38.946   2.744
29723W        W89226   2.876  14.196  11.941
29724W        W89227  41.859  29.002  11.521
29725W        W89228  12.279  26.653   2.729
29726W        W89229  16.245  42.798  12.460
29727W        W89230   7.378  26.548  11.431
29728W        W89231  15.634  17.627   4.723
29729W        W89232  12.173  44.782   2.247
29730W        W89233  14.159  42.499   0.271
29731W        W89234  13.830   3.436   4.667
29732W        W89235  27.552  17.579  14.314
29733W        W89236  30.566  12.361   3.834
29734W        W89237   8.264  31.433   1.794
29735W        W89238  22.175  16.088  14.489
29736W        W89239   5.379  37.062  11.882
29737W        W89240  18.607  41.021  13.388
29738W        W89241  33.104  34.376   4.349
29739W        W89242   0.882  33.894   0.332
29740W        W89243  26.082  11.141  10.911
29741W        W89244  26.017  43.013   3.379
29742W        W89245   1.790  18.083  13.836
29743W        W89246  42.822  23.604   4.328
29744W        W89247   9.365  42.429   1.745
29745W        W89248  15.324  18.123  12.025
29746W        W89249  15.614  30.050   2.885
29747W        W89250  37.000  21.053   3.802
29748W        W89251   4.802  27.456  12.488
29749W        W89252  23.184  26.522   2.282
29750W        W89253   0.940  11.358  12.511
29751W        W89254   6.327   9.879  10.584
29752W        W89255  26.155  32.537   0.928
29753W        W89256  44.898   8.235  14.822
29754W        W89257  24.203   0.784  10.617
29755W        W89258   0.776   8.247  14.952
29756W        W89259   0.493  40.869   0.460
29757W        W89260  26.002  13.249  12.465
29758W        W89261  14.199  21.035  13.845
29759W        W89262  19.538  16.812  14.318
29760W        W89263  39.358  26.097  14.394
29761W        W89264  11.210  34.039   2.824
29762W        W89265  40.861  41.991  13.794
29763W        W89266  18.759   9.362   3.861
29764W        W89267  18.637  18.546   0.883
29765W        W89268   1.428  10.847   3.734
29766W        W89269   9.353  20.631   3.813
29767W        W89270  28.507  18.113  12.544
29768W        W89271  20.092  26.505   1.354
29769W        W89272   6.311  39.980   1.750
29770W        W89273  18.072  36.446  14.325
29771W        W89274  16.251  38.446  10.431
29772W        W89275   7.704  30.649   4.824
29773W        W89276  24.534  39.896  12.470
29774W        W89277  37.354  41.903   3.360
29775W        W89278  43.953  34.535  10.531
29776W        W89279  13.646  32.600   3.209
29777W        W89280  36.989  11.167   4.333
29778W        W89281  13.224   1.792  13.008
29779W        W89282  34.434  17.731   2.852
29780W        W89283  27.075  20.089   1.221
29781W        W89284  14.099  25.647   2.246
29782W        W89285   7.297  43.449   4.709
29783W        W89286  14.773  19.246   3.813
29784W        W89287   0.328  26.554   2.716
29785W        W89288  13.236  14.155  12.006
29786W        W89289  42.460  20.116   2.241
29787W        W89290  11.785   3.438   9.948
29788W        W89291  28.568  44.429  13.502
29789W        W89292  14.820  41.858   3.224
29790W        W89293  39.947  21.043  12.838
29791W        W89294  31.092  25.653   1.932
29792W        W89295  37.841   8.322  12.535
29793W        W89296   8.714  39.520   2.827
29794W        W89297   5.375  31.506   2.225
29795W        W89298  41.350  15.629   3.250
29796W        W89299   4.435   3.827   4.241
29797W        W89300  13.631  43.316   2.698
29798W        W89301  34.013   7.673   4.668
29799W        W89302  18.577  40.407   4.752
29800W        W89303  37.335  26.670   4.753
29801W        W89304  37.900  21.096  13.981
29802W        W89305  39.486  21.758  14.839
29803W        W89306  13.253  41.520  14.915
29804W        W89307  38.485   6.354   2.691
29805W        W89308  42.319   2.960  11.942
29806W        W89309  30.136   1.894  12.370
29807W        W89310  29.650  10.256  14.372
29808W        W89311  21.250   3.367   2.322
29809W        W89312  42.784  24.717  13.462
29810W        W89313  17.566  29.583  13.409
29811W        W89314  15.242  16.111  10.967
29812W        W89315  32.107  36.897  14.373
29813W        W89316   1.941  44.284  13.491
29814W        W89317   0.482  33.421  13.502
29815W        W89318  26.521  42.454  10.998
29816W        W89319  17.793   4.715  12.921
29817W        W89320  17.085   5.721   0.834
29818W        W89321   2.874  13.841   1.364
29819W        W89322   6.254  42.976   4.836
29820W        W89323  16.306   7.332   3.798
29821W        W89324  12.667   2.259   1.426
29822W        W89325  44.445  36.565   1.245
29823W        W89326  40.029  30.647  10.499
29824W        W89327  27.000  24.601  12.381
29825W        W89328  20.040   3.712  13.513
29826W        W89329  40.423  42.419   4.140
29827W        W89330   0.912  20.728   4.307
29828W        W89331  26.511   9.218  11.045
29829W        W89332  21.077  39.412   4.195
29830W        W89333   2.746  10.708  13.490
29831W        W89334  29.657  22.651  10.510
29832W        W89335   5.400   7.230   1.229
29833W        W89336  40.390   0.335  11.506
29834W        W89337  29.578  38.425   0.346
29835W        W89338  27.466  39.910  13.792
29836W        W89339  20.161  33.442   0.471
29837W        W89340  25.608   7.298   4.343
29838W        W89341  21.522  42.370   2.896
29839W        W89342  38.878  11.734   1.746
29840W        W89343  28.455  30.549  11.531
29841W        W89344  13.744  27.187  11.414
29842W        W89345   8.285  42.409  12.860
29843W        W89346   1.448  40.798   2.843
29844W        W89347  31.024  39.348   4.262
29845W        W89348  22.031  38.833  11.486
29846W        W89349  26.472  30.112   3.699
29847W        W89350  34.527   1.291   2.272
29848W        W89351   4.896  26.022  13.915
29849W        W89352  18.575  28.119  12.409
29850W        W89353   9.718  14.097   5.250
29851W        W89354  28.093  42.478   0.404
29852W        W89355  19.090  35.078   0.754
29853W        W89356  24.060  23.598  14.838
29854W        W89357  42.375  15.210   3.234
29855W        W89358   4.225   7.216   3.157
29856W        W89359  19.151  26.976   3.195
29857W        W89360  36.006  40.310  12.549
29858W        W89361  23.575  40.477   1.224
29859W        W89362   5.730   9.253   0.317
29860W        W89363  39.489   9.231  10.955
29861W        W89364  14.266  18.235  11.542
29862W        W89365  12.852  13.760  13.498
29863W        W89366   6.261   5.439   1.861
29864W        W89367  13.149  23.678  13.032
29865W        W89368   8.742  16.314  13.796
29866W        W89369  33.526  11.673   0.805
29867W        W89370  16.205   5.789  14.499
29868W        W89371  11.252  21.148  13.504
29869W        W89372  25.096  25.072  13.964
29870W        W89373  42.409  31.924   1.839
29871W        W89374  14.095  41.318   4.833
29872W        W89375  42.329  32.575  12.380
29873W        W89376   2.839   6.414   4.757
29874W        W89377  23.638  44.470  10.420
29875W        W89378  34.615  15.697   4.238
29876W        W89379  39.825  41.922  11.464
29877W        W89380  18.278  35.947   2.202
29878W        W89381  44.006  17.212  10.159
29879W        W89382  27.135  44.911   0.390
29880W        W89383  43.411   3.826   2.770
29881W        W89384  31.566  24.522  13.347
29882W        W89385  16.275  11.707  13.341
29883W        W89386   9.171  17.105  13.019
29884W        W89387  42.519  37.412  14.912
29885W        W89388  37.495  33.548   1.236
29886W        W89389  21.160  25.017   1.341
29887W        W89390  30.465  40.353   1.304
29888W        W89391  13.228  27.663   4.184
29889W        W89392  35.078   6.196   1.854
29890W        W89393  23.030  42.981   0.244
29891W        W89394   6.702  32.559   1.699
29892W        W89395  32.544  25.145  14.380
29893W        W89396  35.979  36.506   1.817
29894W        W89397  14.187  31.912  12.827
29895W        W89398  28.558  17.213  14.411
29896W        W89399  31.594  29.604  10.896
29897W        W89400  35.888  13.696  14.458
29898W        W89401  10.317  21.560  11.110
29899W        W89402  28.553   5.369  14.312
29900W        W89403  15.647   6.754  14.860
29901W        W89404  33.405  39.485   4.153
29902W        W89405  38.462  19.601  12.556
29903W        W89406  31.016  42.337   2.864
29904W        W89407   1.469  26.491  14.760
29905W        W89408  21.227   0.909   2.728
29906W        W89409  11.264  17.786   0.249
29907W        W89410  13.707   5.793   3.725
29908W        W89411  15.593  17.585  13.524
29909W        W89412  14.826  34.376  10.442
29910W        W89413   3.298  13.228   1.272
29911W        W89414  11.339  27.047  10.562
29912W        W89415  11.672  42.805  10.480
29913W        W89416  15.651  12.358  11.066
29914W        W89417  10.842  44.985   0.962
29915W        W89418  19.769  22.241   2.284
29916W        W89419  15.290   6.765  12.552
29917W        W89420  13.165  12.764   0.253
29918W        W89421  14.649  29.114   4.608
29919W        W89422   7.261  10.874  14.409
29920W        W89423  19.048  38.874   2.897
29921W        W89424  23.692  39.515   1.217
29922W        W89425  32.580   8.817   2.685
29923W        W89426  20.209  28.972  14.961
29924W        W89427  30.113   1.259  12.575
29925W        W89428  29.985  43.313   1.743
29926W        W89429  22.016  19.670   4.298
29927W        W89430  35.559  11.361   0.279
29928W        W89431   6.743  24.138  11.869
29929W        W89432  23.198  33.408  12.530
29930W        W89433  35.025  14.674  13.538
29931W        W89434  27.531   8.822  11.010
29932W        W89435  32.463  42.796  12.043
29933W        W89436  25.512  18.769   0.836
29934W        W89437  27.190   9.261   1.889
29935W        W89438  13.811  17.281  14.942
29936W        W89439  16.747  21.149  13.514
29937W        W89440  44.451  33.882  12.476
29938W        W89441  26.077  19.174  12.060
29939W        W89442  43.381   2.743   0.246
29940W        W89443  38.427  26.060   2.206
29941W        W89444  39.036  27.948  10.494
29942W        W89445  23.212  29.991   3.666
29943W        W89446  33.031  40.549   4.718
29944W        W89447  10.843  40.427  10.551
29945W        W89448  19.778  25.548   0.966
29946W        W89449  35.460  29.067  12.450
29947W        W89450  17.250  12.705   4.838
29948W        W89451  25.506  13.771  13.411
29949W        W89452  37.013  19.662   2.274
29950W        W89453   8.180  24.047  12.547
29951W        W89454  11.290   8.175  13.414
29952W        W89455  32.084  42.009   4.731
29953W        W89456  33.450  44.964   1.715
29954W        W89457  32.103   3.763   2.727
29955W        W89458  19.595  37.455   2.268
29956W        W89459  37.337  20.739   2.311
29957W        W89460   2.375  40.383   1.914
29958W        W89461  10.713  21.094   0.802
29959W        W89462  42.506  26.617  14.027
29960W        W89463   8.710   1.747  14.407
29961W        W89464  41.906   4.439  11.073
29962W        W89465  29.562  24.665   2.392
29963W        W89466  44.304  38.831  12.974
29964W        W89467  28.956  14.623   1.268
29965W        W89468  38.822  20.734   1.298
29966W        W89469   7.731  17.076  14.978
29967W        W89470   0.759   7.837   1.380
29968W        W89471  39.330  28.523   2.725
29969W        W89472  42.794  13.345   5.221
29970W        W89473   1.749   7.798  13.342
29971W        W89474  44.864  15.814   3.694
29972W        W89475  24.568  37.343   0.453
29973W        W89476  43.379  25.143   5.153
29974W        W89477   7.402   6.339  10.570
29975W        W89478  20.669  37.436   0.278
29976W        W89479   4.285  23.019   0.747
29977W        W89480  27.107  17.763  10.596
29978W        W89481  40.805  38.893  14.511
29979W        W89482  39.011  18.118   2.818
29980W        W89483   7.232  24.594  12.996
29981W        W89484   6.725  13.172  13.972
29982W        W89485  28.650  12.785   4.782
29983W        W89486  33.388  44.769   9.947
29984W        W89487  22.019  23.544   4.236
29985W        W89488  21.019  11.282  12.408
29986W        W89489  18.626   4.926  13.879
29987W        W89490  23.147  17.262   0.441
29988W        W89491  11.810  42.869   1.426
29989W        W89492  35.060   0.814  12.524
29990W        W89493  43.333  36.421   1.441
29991W        W89494  31.563   2.284   3.729
29992W        W89495   9.859  35.992  13.797
29993W        W89496  25.551  37.574   3.857
29994W        W89497  22.074   7.749  14.502
29995W        W89498  15.708  36.497   3.631
29996W        W89499  25.111  42.860   2.357
29997W        W89500  40.935  19.698   2.201
29998W        W89501   6.355  17.276  11.603
29999W        W89502  28.065   9.697  12.579
30000W        W89503  33.455  42.362   2.274
30001W        W89504   0.439   6.231  11.400
30002W        W89505  30.005  27.035  12.885
30003W        W89506  28.516  30.637  11.013
30004W        W89507  40.489  12.353   4.608
30005W        W89508  43.403   7.790  10.900
30006W        W89509   9.306  40.873   2.185
30007W        W89510  24.124  18.068  14.490
30008W        W89511   1.857  22.554  14.999
30009W        W89512  19.686  34.118   4.301
30010W        W89513  29.546  41.996  12.341
30011W        W89514  33.411   4.874  13.388
30012W        W89515  30.650  10.264  14.990
30013W        W89516  37.030  17.726   3.221
30014W        W89517  33.012  24.602  10.038
30015W        W89518  15.115  16.122  14.885
30016W        W89519  36.906   0.429   2.397
30017W        W89520  27.662  34.871  12.876
30018W        W89521  21.130  38.523  11.589
30019W        W89522  21.752   7.343   4.808
30020W        W89523   7.407  28.618   4.810
30021W        W89524   9.238  32.031   1.254
30022W        W89525  11.861  28.677   3.644
30023W        W89526  12.820  40.483  11.463
30024W        W89527  43.297  15.784   2.736
30025W        W89528  27.578  24.717  12.369
30026W        W89529   5.851  14.766   2.723
30027W        W89530  35.074  27.634   1.771
30028W        W89531  42.977  38.004   5.098
30029W        W89532  17.693   2.349   1.785
30030W        W89533  21.545   4.431   2.371
30031W        W89534  36.967  23.199  14.828
30032W        W89535  31.403  32.929  11.097
30033W        W89536  32.098  29.044   1.271
30034W        W89537  35.376  25.084   0.791
30035W        W89538  43.774  41.442  11.084
30036W        W89539  39.392  25.628  12.529
30037W        W89540  16.245  12.703   2.219
30038W        W89541  15.159  26.679  14.768
30039W        W89542   2.448  18.567   9.574
30040W        W89543  10.248  26.005  15.000
30041W        W89544   6.400  30.614   4.787
30042W        W89545  38.978   8.890   9.967
30043W        W89546  19.671  37.962   1.217
30044W        W89547  42.920  25.584  12.900
30045W        W89548  22.637  36.561  12.092
30046W        W89549  29.617   5.382   1.766
30047W        W89550  16.706   5.855  10.436
30048W        W89551   3.357  19.757   1.413
30049W        W89552  37.435   7.184  13.333
30050W        W89553   4.901  26.670  13.451
30051W        W89554  22.075  29.063   1.796
30052W        W89555  19.594  42.377   0.823
30053W        W89556  18.751  19.536  13.311
30054W        W89557  19.579  15.769  11.385
30055W        W89558  31.041  10.869  14.392
30056W        W89559  34.563   0.808   0.463
30057W        W89560  17.686  42.482  14.906
30058W        W89561  37.348  21.656  11.953
30059W        W89562  40.878  19.752   2.665
30060W        W89563  20.110  36.022  14.878
30061W        W89564  10.692  20.684  11.547
30062W        W89565  37.915  24.538  14.994
30063W        W89566  40.804  29.033  14.486
30064W        W89567  23.006  22.184   3.687
30065W        W89568  43.927  31.966   0.843
30066W        W89569  26.160  32.923  14.896
30067W        W89570  38.050  26.146   1.220
30068W        W89571   8.381  39.434  11.045
30069W        W89572  16.621  15.789  12.911
30070W        W89573  26.981   5.923  12.843
30071W        W89574  17.306  14.689   3.666
30072W        W89575  42.413   9.856   2.899
30073W        W89576  11.772  43.848   3.265
30074W        W89577  32.102  44.409  10.592
30075W        W89578  43.972  20.253   3.155
30076W        W89579  13.835  12.818   0.469
30077W        W89580   0.975  36.843   0.304
30078W        W89581  30.997  25.629  12.856
30079W        W89582  43.493  14.693  14.319
30080W        W89583  36.908  41.874  11.492
30081W        W89584  43.995  40.332   4.188
30082W        W89585  24.166  42.284   1.833
30083W        W89586  41.815  16.721   3.748
30084W        W89587  36.534   2.912   3.676
30085W        W89588   8.766  36.536   5.254
30086W        W89589  42.003  23.164  10.615
30087W        W89590  36.985  44.340   2.204
30088W        W89591  10.811   5.827   3.828
30089W        W89592  35.447  38.075  12.426
30090W        W89593   1.289  28.037  11.524
30091W        W89594  34.559  12.739   3.382
30092W        W89595  18.166   5.414  13.510
30093W        W89596  16.228  15.227  13.316
30094W        W89597  31.097  12.296  12.853
30095W        W89598  29.430  23.724  13.502
30096W        W89599  34.994   3.413   4.607
30097W        W89600  30.608  13.233  13.322
30098W        W89601  38.332  41.790   1.853
30099W        W89602  32.932  39.899  11.378
30100W        W89603  15.126  23.024   4.702
30101W        W89604  43.480   7.698  12.561
30102W        W89605  41.484  33.076   2.379
30103W        W89606  36.557  33.892  13.311
30104W        W89607  27.088   2.363  13.436
30105W        W89608  30.146  22.224   4.200
30106W        W89609   1.778  30.598   2.706
30107W        W89610  29.070  21.521  11.514
30108W        W89611   7.363  24.072  12.398
30109W        W89612  18.069  33.961  12.976
30110W        W89613  44.855  34.386   3.689
30111W        W89614   2.825  24.598   0.848
30112W        W89615  27.144  24.114  12.970
30113W        W89616  18.147   5.912  13.879
30114W        W89617  38.001  36.497   4.805
30115W        W89618  43.893   6.822   2.721
30116W        W89619  25.980  16.201   4.116
30117W        W89620  28.585  28.669  14.293
30118W        W89621  23.714  11.629   2.729
30119W        W89622  42.482   9.827  12.981
30120W        W89623  42.384  36.989  11.027
30121W        W89624  11.773  39.341  14.782
30122W        W89625  32.632   6.811  14.386
30123W        W89626  37.513  12.714   3.232
30124W        W89627  19.188  22.008  12.580
30125W        W89628  38.440  44.898   2.738
30126W        W89629  35.589  42.778   4.303
30127W        W89630  27.980  37.935   5.145
30128W        W89631  34.432  41.842   1.388
30129W        W89632  36.501   5.751  12.938
30130W        W89633   1.237  17.758  11.029
30131W        W89634  25.596  43.486  10.473
30132W        W89635  31.514   1.272  13.971
30133W        W89636   8.801  14.284  13.912
30134W        W89637  12.145  13.224  14.393
30135W        W89638   6.241  37.877  14.362
30136W        W89639   8.291   7.179   4.694
30137W        W89640  43.940  12.260  11.483
30138W        W89641  23.110   9.352  14.427
30139W        W89642   3.435  19.764  11.472
30140W        W89643  11.234  12.199   3.218
30141W        W89644  30.957   4.412   0.478
30142W        W89645  28.634  32.099  13.028
30143W        W89646  42.857  13.799   1.846
30144W        W89647  14.221  29.085  12.845
30145W        W89648   2.735  18.751   4.702
30146W        W89649  35.015  31.047  11.014
30147W        W89650  15.791  40.363   0.387
30148W        W89651  27.963  38.551  11.100
30149W        W89652  36.002  28.035   2.327
30150W        W89653  20.531  39.903  12.868
30151W        W89654  21.710  41.465   2.717
30152W        W89655   9.253   8.222   0.475
30153W        W89656  26.639  25.674  11.911
30154W        W89657   2.959  29.586  14.014
30155W        W89658  18.271   0.875  12.946
30156W        W89659  36.515  30.079   0.903
30157W        W89660  14.264  40.463   0.749
30158W        W89661  31.077   1.741  14.894
30159W        W89662  37.986   5.837   0.933
30160W        W89663  12.144  11.717  13.394
30161W        W89664  38.076  35.362   1.831
30162W        W89665  28.982   0.876  10.454
30163W        W89666  35.462  24.482   4.795
30164W        W89667   0.867   7.856  11.538
30165W        W89668  42.967  32.469  11.421
30166W        W89669  11.790  31.556   3.276
30167W        W89670  15.265  15.595  14.440
30168W        W89671  22.726  12.216   3.271
30169W        W89672  29.465  38.400  13.927
30170W        W89673  33.481   3.863  10.633
30171W        W89674  18.125  40.317  11.384
30172W        W89675   5.262   2.940   2.684
30173W        W89676  33.536  41.471   9.961
30174W        W89677  39.028  16.260  12.836
30175W        W89678  24.673   4.394   4.179
30176W        W89679  35.369  10.209   4.716
30177W        W89680  16.690  25.512  11.075
30178W        W89681  42.376  40.408  10.954
30179W        W89682   8.828  13.228  12.943
30180W        W89683  23.654  11.811  14.926
30181W        W89684   5.707  12.750   2.696
30182W        W89685   1.378  40.483  12.409
30183W        W89686   6.922  27.500   0.805
30184W        W89687   6.893  25.030   1.771
30185W        W89688  34.440  20.683   0.762
30186W        W89689  40.946  21.165   2.392
30187W        W89690  11.144   7.367   3.753
30188W        W89691  40.844  44.306  12.449
30189W        W89692   5.784  24.197   1.823
30190W        W89693  27.465  16.709  12.830
30191W        W89694  32.958   7.802   4.723
30192W        W89695  28.678  27.651   0.882
30193W        W89696  35.921  25.153   1.699
30194W        W89697   1.873  37.457   4.783
30195W        W89698  43.794   1.251   3.257
30196W        W89699  27.534  14.813  14.010
30197W        W89700  28.125  24.104   3.186
30198W        W89701  34.470   0.327  13.903
30199W        W89702   2.809  17.301  11.509
30200W        W89703  28.030  39.360  11.084
30201W        W89704  36.860   2.887  14.320
30202W        W89705  39.862   6.875   2.667
30203W        W89706  14.331  25.964   4.328
30204W        W89707  32.138  35.970  14.823
30205W        W89708  33.552  37.941  12.349
30206W        W89709  25.651   2.890  13.453
30207W        W89710  33.481   5.438  11.483
30208W        W89711  39.557  26.075   2.202
30209W        W89712  28.592  10.304  12.422
30210W        W89713  22.536  44.340  14.926
30211W        W89714  33.493   9.798   4.830
30212W        W89715   2.735  34.936   3.356
30213W        W89716   7.689  14.319   4.139
30214W        W89717   2.320   8.166  14.344
30215W        W89718   3.896  26.125   2.248
30216W        W89719  13.828  29.935   0.824
30217W        W89720  44.937  19.136   0.783
30218W        W89721   6.697  23.085  14.768
30219W        W89722   2.342  27.497  12.902
30220W        W89723  11.176   6.389   2.852
30221W        W89724  22.120  23.570  14.029
30222W        W89725  22.663  34.535  14.996
30223W        W89726  29.988  42.508  10.521
30224W        W89727  39.836  27.613   1.333
30225W        W89728  11.307   1.921   3.159
30226W        W89729  36.380   2.354  11.481
30227W        W89730  43.403  34.509   4.114
30228W        W89731  27.952   9.801  11.984
30229W        W89732  13.749  15.208   2.810
30230W        W89733   0.475  12.647   1.815
30231W        W89734  43.778  26.698  12.843
30232W        W89735  14.186  22.574   2.281
30233W        W89736  42.467   0.970   4.709
30234W        W89737   5.836  24.091  12.864
30235W        W89738  12.761  14.134  10.902
30236W        W89739  27.597  34.984   2.744
30237W        W89740  35.094  24.569  10.423
30238W        W89741   7.822   9.706   3.222
30239W        W89742  13.675  32.020   3.241
30240W        W89743  19.258  18.673   4.297
30241W        W89744   0.843  14.140  14.862
30242W        W89745  10.669  19.581   0.923
30243W        W89746  21.165  25.592   1.859
30244W        W89747  41.008  20.748  13.796
30245W        W89748   1.442  12.797   3.845
30246W        W89749  13.713  11.652   0.336
30247W        W89750   3.284  19.262  11.372
30248W        W89751  40.941  34.612  14.937
30249W        W89752   5.784  24.557   3.333
30250W        W89753  19.229   1.899  14.869
30251W        W89754  31.951  26.647   2.222
30252W        W89755  38.486  36.520   4.763
30253W        W89756  26.086  28.442   0.316
30254W        W89757  26.585  29.094   4.250
30255W        W89758  41.014  23.726   2.759
30256W        W89759  13.748  23.670  10.983
30257W        W89760  27.546   8.719   1.435
30258W        W89761  17.211  38.531  11.978
30259W        W89762  14.138   6.366   4.603
30260W        W89763  28.975  32.099  11.066
30261W        W89764  16.142  39.047  10.911
30262W        W89765  15.625  30.073   4.606
30263W        W89766  18.720  19.053   2.825
30264W        W89767  42.799  22.552  11.866
30265W        W89768   3.750  16.728   4.603
30266W        W89769  16.800  14.604  14.998
30267W        W89770  15.814  24.995  14.849
30268W        W89771  34.459  18.593  10.545
30269W        W89772  14.735  37.398  12.483
30270W        W89773  25.489   0.434   2.685
30271W        W89774   3.238  34.983  14.960
30272W        W89775   9.272  35.891  12.002
30273W        W89776  17.107   1.853  13.912
30274W        W89777  24.700   3.848  10.956
30275W        W89778   4.817  40.461   1.765
30276W        W89779   6.249  10.210  11.980
30277W        W89780  29.669   0.841   1.869
30278W        W89781   8.720  19.151  10.458
30279W        W89782  44.381  42.474  14.512
30280W        W89783  42.308  19.581  14.291
30281W        W89784  20.071  37.891   4.181
30282W        W89785   7.367  21.151   0.919
30283W        W89786   4.755  32.131  12.865
30284W        W89787  11.178  36.875  14.351
30285W        W89788  14.745  28.632   4.754
30286W        W89789  28.661   6.833  14.873
30287W        W89790  30.575  18.553  10.526
30288W        W89791  32.085  30.156   2.371
30289W        W89792  30.452  15.591  10.636
30290W        W89793  16.288   1.882   4.614
30291W        W89794  20.263  29.611  12.403
30292W        W89795  26.691   0.987   4.135
30293W        W89796  20.151  24.998   4.794
30294W        W89797   0.917  15.265  13.819
30295W        W89798  42.322  37.065   4.217
30296W        W89799  39.903  42.007   1.342
30297W        W89800  13.199  13.717  10.505
30298W        W89801  44.376   2.908   2.851
30299W        W89802  43.305  15.812   1.694
30300W        W89803  40.541  26.990   1.836
30301W        W89804  10.647  44.312  11.097
30302W        W89805  15.229  16.673  12.880
30303W        W89806   7.750  39.997   2.855
30304W        W89807  17.672  13.178   1.926
30305W        W89808   9.345  35.374  10.545
30306W        W89809   2.397  38.877   2.314
30307W        W89810   3.849   0.856  13.493
30308W        W89811   7.385  18.673  13.440
30309W        W89812   3.255  40.481   1.876
30310W        W89813  30.954  23.710  14.401
30311W        W89814  19.198  24.646   2.220
30312W        W89815  18.169  44.857  10.925
30313W        W89816  37.877  23.553  12.406
30314W        W89817   9.306  15.757  11.959
30315W        W89818  42.777   0.274   3.868
30316W        W89819  42.853  20.117  12.518
30317W        W89820  23.074  12.821   1.285
30318W        W89821  32.138  42.316   4.131
30319W        W89822   9.756  33.053  13.946
30320W        W89823  43.841  23.531  11.073
30321W        W89824   5.913  30.446  14.374
30322W        W89825  41.379  16.271  12.965
30323W        W89826  43.907  43.390  11.495
30324W        W89827  41.894  19.568   1.375
30325W        W89828   8.771  42.335  11.993
30326W        W89829   9.246  23.658   3.251
30327W        W89830  18.697  22.209  14.403
30328W        W89831  14.617  23.553   0.390
30329W        W89832  35.009  39.985  11.394
30330W        W89833   8.260  20.715  11.417
30331W        W89834  27.687  13.256   2.777
30332W        W89835   7.232  33.384   3.282
30333W        W89836  20.043  10.674  14.943
30334W        W89837  24.516  21.046  12.487
30335W        W89838   7.290  43.283  11.043
30336W        W89839   8.370  25.571  11.449
30337W        W89840  13.651  11.282   4.677
30338W        W89841  43.770  27.188   5.248
30339W        W89842  38.020  28.669  13.064
30340W        W89843  43.796   2.933   2.318
30341W        W89844  33.004  43.922   3.793
30342W        W89845  19.643  41.817   0.910
30343W        W89846  25.197  18.739  12.977
30344W        W89847  25.097  32.115   2.760
30345W        W89848  19.640  19.559   1.784
30346W        W89849  35.510   9.274  14.819
30347W        W89850  44.420   0.366   0.454
30348W        W89851  36.479  14.097   0.408
30349W        W89852   6.257  26.089  14.328
30350W        W89853  44.848  41.389   1.702
30351W        W89854   8.170  24.566   2.285
30352W        W89855  15.660   7.680  13.981
30353W        W89856  27.606   1.753  13.021
30354W        W89857  39.343   6.389   0.352
30355W        W89858  42.520   4.819   2.733
30356W        W89859   4.843  37.458   4.836
30357W        W89860  40.978  19.544   1.792
30358W        W89861  19.188   3.355  12.398
30359W        W89862  12.808  19.088   1.317
30360W        W89863  23.713  14.816   4.689
30361W        W89864  40.443  38.489  14.462
30362W        W89865  41.411  43.277   1.794
30363W        W89866  16.127  42.402  14.276
30364W        W89867  40.480  24.620   3.765
30365W        W89868  42.449  23.545   1.797
30366W        W89869   7.864  44.001  14.467
30367W        W89870   0.988  21.618  13.870
30368W        W89871   1.272  30.142  14.440
30369W        W89872   0.455   3.906  13.546
30370W        W89873   1.811   1.432   1.257
30371W        W89874  44.471  39.411   0.815
30372W        W89875  33.944   0.268   4.616
30373W        W89876  33.906  34.885   2.878
30374W        W89877  43.865   6.713   4.780
30375W        W89878  10.851  15.174   2.811
30376W        W89879   6.775  29.937  14.921
30377W        W89880   2.297  25.651   3.795
30378W        W89881  24.087  23.554   1.265
30379W        W89882   9.309  29.571  13.327
30380W        W89883  43.983  41.030   0.475
30381W        W89884  31.557  41.916   2.893
30382W        W89885  22.235  31.438  11.012
30383W        W89886  27.671  14.747   1.906
30384W        W89887   8.277  16.152  14.303
30385W        W89888  25.524   6.416   2.379
30386W        W89889   8.355  24.595  14.953
30387W        W89890  34.379  16.771  10.448
30388W        W89891  32.412   7.701   3.817
30389W        W89892   5.275  19.727  14.466
30390W        W89893   8.262   7.835  12.085
30391W        W89894   4.429   6.336   1.917
30392W        W89895  29.621  25.623  12.387
30393W        W89896  36.534  11.679   3.303
30394W        W89897  13.614   7.275  11.501
30395W        W89898   7.717  24.571   3.783
30396W        W89899   8.830  28.006   1.395
30397W        W89900  16.103   7.763   2.270
30398W        W89901  42.977  34.409  10.067
30399W        W89902   7.712  32.049   2.852
30400W        W89903  14.164   8.683  13.881
30401W        W89904   9.878  42.950  13.830
30402W        W89905  13.227  25.099   0.453
30403W        W89906  36.945  29.044   1.392
30404W        W89907  22.998  34.403   0.305
30405W        W89908   1.339  41.919   0.736
30406W        W89909  10.234  35.853  13.395
30407W        W89910  34.083  33.900   1.263
30408W        W89911  12.356   2.868   2.241
30409W        W89912  31.975  35.425  11.856
30410W        W89913  36.348  40.484  11.921
30411W        W89914  30.935  41.520   2.778
30412W        W89915  17.192   2.928   0.873
30413W        W89916  14.775  21.705   2.828
30414W        W89917  44.807   4.231  12.030
30415W        W89918  10.759  21.652  14.512
30416W        W89919  17.174  35.003   1.865
30417W        W89920  31.902  10.739   0.343
30418W        W89921  28.527  12.624  12.915
30419W        W89922  11.768  33.510   1.797
30420W        W89923   5.922  19.140   4.301
30421W        W89924  15.127  33.918   4.614
30422W        W89925  19.579  24.194  12.528
30423W        W89926  41.509  26.171  13.840
30424W        W89927   8.271  19.263  11.439
30425W        W89928   2.353  42.027  11.859
30426W        W89929  22.617  10.695  14.873
30427W        W89930  38.331   3.843   0.778
30428W        W89931  14.811  21.750  12.514
30429W        W89932  17.145  24.593  14.863
30430W        W89933  41.355  12.135   4.246
30431W        W89934  15.758  19.569   3.853
30432W        W89935  20.191  36.039   0.463
30433W        W89936   0.937   1.471   0.876
30434W        W89937  24.581  12.232   1.696
30435W        W89938   6.258  36.031   0.311
30436W        W89939  11.747   1.937   2.873
30437W        W89940   2.792  38.995  13.041
30438W        W89941  15.610  23.579  14.909
30439W        W89942  43.851  26.625  14.966
30440W        W89943  23.107  14.204   0.827
30441W        W89944  25.558  29.053  12.900
30442W        W89945  27.534  15.696  12.473
30443W        W89946   7.399  33.506   1.275
30444W        W89947  24.027  31.082  12.996
30445W        W89948  23.631   6.916  10.421
30446W        W89949   9.298  24.107   0.759
30447W        W89950  10.184  31.970   3.662
30448W        W89951  21.533   0.320  14.023
30449W        W89952  11.715  31.144  14.020
30450W        W89953   4.399  28.171   1.301
30451W        W89954  43.374   4.411   2.716
30452W        W89955  38.436   3.279   2.865
30453W        W89956  26.007  22.710   1.922
30454W        W89957  39.329  14.096   0.880
30455W        W89958  38.001  38.542   0.825
30456W        W89959  44.384  18.272  11.997
30457W        W89960   7.373  41.368   2.337
30458W        W89961   8.307  34.945  14.960
30459W        W89962  16.794  11.726   1.429
30460W        W89963  20.103   0.379   4.647
30461W        W89964  13.332  33.106   0.873
30462W        W89965  38.326  32.087   1.287
30463W        W89966  19.646  14.279  11.118
30464W        W89967  30.576  38.344  13.496
30465W        W89968  29.513  37.392  14.485
30466W        W89969  35.451   0.935   0.745
30467W        W89970   7.278   8.164   1.214
30468W        W89971  25.980  13.311   4.183
30469W        W89972   5.698  33.023   0.321
30470W        W89973  10.288  18.641  12.948
30471W        W89974  17.771  35.016  11.549
30472W        W89975  16.577  35.899  14.863
30473W        W89976  28.611   6.914   1.359
30474W        W89977  18.071  29.617  10.441
30475W        W89978   9.274   4.423  11.522
30476W        W89979  15.276  40.911   1.831
30477W        W89980  21.704  25.087  12.559
30478W        W89981   2.409  42.915  12.868
30479W        W89982  12.812  37.494  12.382
30480W        W89983   0.338  38.824  11.507
30481W        W89984  23.014  20.184  12.385
30482W        W89985  16.289  14.591   1.355
30483W        W89986   3.308   0.325   2.308
30484W        W89987  24.049   8.741   1.817
30485W        W89988  12.235  28.052  12.371
30486W        W89989   9.292  12.304   4.796
30487W        W89990   7.302  39.874  13.376
30488W        W89991  17.583  43.492  14.488
30489W        W89992  41.322   8.292  14.798
30490W        W89993  21.082  19.177   0.771
30491W        W89994   2.865  42.859  11.444
30492W        W89995   6.755  34.553  12.557
30493W        W89996  33.116  20.522  13.936
30494W        W89997  21.131  41.314   3.697
30495W        W89998  24.195  27.088   1.217
30496W        W89999  33.076  39.959  14.458
30497W        W90000  30.504  16.593   4.234
30498W        W90001  11.648  40.377  10.633
30499W        W90002  35.434  19.269  13.026
30500W        W90003  32.446   1.731   5.233
30501W        W90004   8.234  11.789  14.402
30502W        W90005  41.004  29.646   1.750
30503W        W90006  32.092  23.639   1.741
30504W        W90007  26.549   5.887   3.670
30505W        W90008   6.336   2.411  13.027
30506W        W90009   7.890  11.131   0.265
30507W        W90010  37.485  21.116   2.780
30508W        W90011  12.329  10.783  13.021
30509W        W90012   5.227  42.904  11.860
30510W        W90013  43.864  30.525   0.270
30511W        W90014  42.383  27.021  12.355
30512W        W90015  28.030  27.542  11.980
30513W        W90016  28.947   6.890  12.462
30514W        W90017  44.996  23.566   5.705
30515W        W90018   6.742  17.306   2.815
30516W        W90019  23.605  34.604   1.356
30517W        W90020  43.970  22.147   4.278
30518W        W90021  36.044   9.766   0.806
30519W        W90022  23.637  20.055  14.294
30520W        W90023  12.691  30.532   3.721
30521W        W90024  20.154  23.574  11.929
30522W        W90025  31.914  18.676   2.749
30523W        W90026  21.693   5.853  14.990
30524W        W90027   9.241  27.518   4.161
30525W        W90028  29.083  24.009   2.394
30526W        W90029  14.828  37.519   5.089
30527W        W90030  20.147  43.798  12.858
30528W        W90031  22.720   2.860   2.412
30529W        W90032  13.708   1.909   2.205
30530W        W90033  42.995  26.110  13.807
30531W        W90034   8.783   0.960   0.325
30532W        W90035  12.132   0.876  12.878
30533W        W90036  21.061  27.474   0.297
30534W        W90037  19.134  20.074  10.428
30535W        W90038  13.196   8.768   3.775
30536W        W90039  26.548  14.795   4.697
30537W        W90040  12.639  13.621  13.896
30538W        W90041   6.294  43.311  14.441
30539W        W90042   4.942  33.899  11.470
30540W        W90043  20.201  43.464   1.775
30541W        W90044  44.477   0.430  10.491
30542W        W90045  33.457  41.448  12.905
30543W        W90046  29.512  27.965  14.350
30544W        W90047   0.771  21.639   0.310
30545W        W90048   7.798   2.765   4.172
30546W        W90049  26.536   6.836   2.410
30547W        W90050  35.878  26.031  11.396
30548W        W90051  27.153  25.003  10.890
30549W        W90052  43.846  10.265   4.149
30550W        W90053  35.994   0.801  11.418
30551W        W90054  43.999  13.160   4.130
30552W        W90055   3.261   2.830  13.462
30553W        W90056  30.152  38.452   4.808
30554W        W90057   9.211  42.921   2.245
30555W        W90058  43.317   2.313   4.703
30556W        W90059  30.924  43.322   2.231
30557W        W90060  43.409  10.754  13.434
30558W        W90061   1.444   7.244   1.816
30559W        W90062   0.976   6.258  12.575
30560W        W90063  24.984  16.155   1.424
30561W        W90064  18.115  31.038  11.408
30562W        W90065  13.240  21.744   2.297
30563W        W90066  42.388  29.074  13.889
30564W        W90067  13.273  43.472   4.604
30565W        W90068  32.566  40.043  11.968
30566W        W90069  41.917  27.142   0.483
30567W        W90070  42.307   2.735  13.888
30568W        W90071  19.284  24.699   0.904
30569W        W90072  38.018   1.342  13.882
30570W        W90073  10.323   6.722  14.397
30571W        W90074  16.091  15.196   0.777
30572W        W90075  10.805  22.019   0.468
30573W        W90076   0.770   4.705  13.336
30574W        W90077  14.097  30.956  14.824
30575W        W90078  11.743  27.522   4.638
30576W        W90079  11.367  12.845   3.749
30577W        W90080  27.634  38.819  12.080
30578W        W90081   7.876  15.327   3.362
30579W        W90082  35.033  19.578  14.358
30580W        W90083  16.670   1.753   2.878
30581W        W90084  14.131  41.795   0.836
30582W        W90085  39.466  17.243  12.980
30583W        W90086  24.142  43.951   2.256
30584W        W90087  43.996  23.645   3.343
30585W        W90088  30.918   4.936   3.826
30586W        W90089  40.439   1.941   4.344
30587W        W90090  36.881  25.154  11.506
30588W        W90091  15.779  14.223  11.491
30589W        W90092  19.146  10.872   2.712
30590W        W90093  13.223  13.619  11.075
30591W        W90094  38.553  21.677   2.662
30592W        W90095  14.668  11.343   3.173
30593W        W90096   8.204  44.338   4.221
30594W        W90097   7.727   2.465   0.774
30595W        W90098  33.890  28.981  14.902
30596W        W90099  31.512  42.987   4.668
30597W        W90100  25.094  17.690  13.792
30598W        W90101   6.755  44.384   2.874
30599W        W90102  26.008  12.721   2.721
30600W        W90103  30.516  24.565  14.339
30601W        W90104  37.036  22.181  12.511
30602W        W90105  31.901  23.664   0.478
30603W        W90106  14.202  37.965  10.962
30604W        W90107  30.602  30.027  13.942
30605W        W90108  37.563   2.311  14.356
30606W        W90109   4.825  41.856  13.374
30607W        W90110  23.242   4.356   1.242
30608W        W90111   3.941  41.791   1.870
30609W        W90112  41.000   5.853   1.846
30610W        W90113   4.894  21.213   5.291
30611W        W90114  10.742   8.707  14.808
30612W        W90115  41.825   2.412  14.988
30613W        W90116  25.575  37.072   0.954
30614W        W90117  32.531  23.241  13.418
30615W        W90118  28.072  38.839   2.197
30616W        W90119  30.600  33.510  13.364
30617W        W90120  19.205  16.274  12.083
30618W        W90121   5.268  40.851   2.755
30619W        W90122  17.729  10.667   4.821
30620W        W90123  32.610  38.475   2.216
30621W        W90124  18.239  11.165  12.092
30622W        W90125  16.094  42.794  11.027
30623W        W90126   3.936  34.870   0.428
30624W        W90127  25.106  20.145  14.300
30625W        W90128  23.091  37.494   2.194
30626W        W90129  22.094  44.965  13.037
30627W        W90130  13.715  11.293  10.595
30628W        W90131  10.264  42.012   3.783
30629W        W90132  12.766  26.157  11.454
30630W        W90133   2.928   5.849   4.795
30631W        W90134   8.187  34.877  12.362
30632W        W90135  43.780  13.724   3.242
30633W        W90136  32.632  42.937   4.327
30634W        W90137  31.441  30.018   0.385
30635W        W90138   2.821  40.342  12.475
30636W        W90139  29.156  44.976  13.491
30637W        W90140  32.636  28.646  13.803
30638W        W90141   4.815   2.853  13.915
30639W        W90142  44.338  11.311   4.698
30640W        W90143  10.260  24.194  12.836
30641W        W90144  19.225  10.193  12.402
30642W        W90145  44.434   8.343   4.229
30643W        W90146  18.129  38.542  11.521
30644W        W90147  36.992  18.750   4.759
30645W        W90148  36.004  14.825  11.526
30646W        W90149  11.622   2.762  14.853
30647W        W90150  22.602  21.520  11.392
30648W        W90151  41.870  15.112  12.530
30649W        W90152   4.931  33.009   5.267
30650W        W90153  15.789  33.625   2.780
30651W        W90154  35.958  35.029   0.305
30652W        W90155  36.540  13.688  11.607
30653W        W90156  24.666  43.911  12.437
30654W        W90157   0.777   4.898   1.212
30655W        W90158  18.665  17.178  11.927
30656W        W90159   5.232  27.005  14.966
30657W        W90160  22.502  40.448   0.397
30658W        W90161   5.203  37.437   4.597
30659W        W90162  33.514  31.004  14.471
30660W        W90163  15.302   9.187  12.041
30661W        W90164  16.276  17.092  10.474
30662W        W90165   5.280  26.659  12.528
30663W        W90166  17.086  14.745  12.001
30664W        W90167  39.849  11.161  13.987
30665W        W90168  26.097  25.651   3.713
30666W        W90169   4.280  19.600  10.533
30667W        W90170  31.627  27.674  13.535
30668W        W90171  28.637  17.720   3.871
30669W        W90172  23.627  41.814   2.258
30670W        W90173  19.733  44.482   1.451
30671W        W90174  15.095  38.976  14.862
30672W        W90175  10.259   6.389   1.899
30673W        W90176  43.936  25.581  12.366
30674W        W90177   8.658  11.826  14.778
30675W        W90178  34.465  32.886  12.366
30676W        W90179  23.620   5.925  14.917
30677W        W90180  22.652  22.611  13.436
30678W        W90181   9.828   6.337  10.408
30679W        W90182  13.642  19.691  11.059
30680W        W90183  36.404  36.513   0.744
30681W        W90184   4.249  14.752  11.485
30682W        W90185  28.959  14.603  14.475
30683W        W90186  19.171  27.540   1.859
30684W        W90187   9.846  33.516   2.698
30685W        W90188  39.835  29.006   1.305
30686W        W90189   6.837  23.165  12.358
30687W        W90190  24.694  13.190   3.195
30688W        W90191   2.962   5.434  10.986
30689W        W90192  38.051   0.867  11.903
30690W        W90193  36.862   9.296  12.082
30691W        W90194  44.824  37.524   4.602
30692W        W90195  27.616  33.411   0.333
30693W        W90196  23.590  15.700  12.486
30694W        W90197  21.174  43.826  10.618
30695W        W90198   4.860  31.591  13.342
30696W        W90199  21.617  30.929   4.818
30697W        W90200  43.403  31.568   2.350
30698W        W90201  17.569  25.509   0.362
30699W        W90202  14.631  18.094   1.437
30700W        W90203  30.446  42.324   4.687
30701W        W90204  10.345  22.035   2.402
30702W        W90205  42.450  42.812  10.905
30703W        W90206  42.788   7.710   3.300
30704W        W90207  20.194   0.263  11.605
30705W        W90208   5.356  18.275  13.488
30706W        W90209   4.904  29.063  12.916
30707W        W90210  36.001   9.271   1.730
30708W        W90211  10.790  34.544  11.038
30709W        W90212  19.107  12.831   1.742
30710W        W90213   5.277  20.572  11.445
30711W        W90214  19.058  15.670  12.910
30712W        W90215  37.000  12.308   4.263
30713W        W90216   1.779  28.166   5.114
30714W        W90217  33.052  39.957  11.949
30715W        W90218  31.075  18.197  14.777
30716W        W90219  28.960  19.283   2.302
30717W        W90220  27.610  10.762  13.372
30718W        W90221  19.067  40.359   4.213
30719W        W90222  30.462  30.026   2.760
30720W        W90223   1.920  13.115   1.737
30721W        W90224  25.150  21.746  12.860
30722W        W90225  14.339  41.955   1.905
30723W        W90226  39.812  12.290  13.486
30724W        W90227  43.842  26.042  13.922
30725W        W90228  43.481  39.511   3.185
30726W        W90229  40.512  19.678   2.216
30727W        W90230  24.005  19.754   2.773
30728W        W90231  11.215   6.756   1.415
30729W        W90232   1.301  36.098   4.767
30730W        W90233  11.343  17.661  13.334
30731W        W90234  33.475   3.279   0.831
30732W        W90235  22.084   5.363  11.049
30733W        W90236  19.689  28.640   2.714
30734W        W90237  35.497  38.351   3.346
30735W        W90238  37.353  28.559   1.818
30736W        W90239  29.573   4.288   3.638
30737W        W90240  25.586  39.417  12.559
30738W        W90241   3.781  38.074  11.536
30739W        W90242  39.027  44.311   2.727
30740W        W90243  42.378  19.256  13.934
30741W        W90244  16.084  12.206   3.166
30742W        W90245   7.302  26.138   3.368
30743W        W90246  31.081   1.813   4.814
30744W        W90247  34.443  28.554   0.879
30745W        W90248  41.450  18.255  13.403
30746W        W90249  17.795  41.395  12.978
30747W        W90250  13.230   4.448  12.352
30748W        W90251  36.027  12.222   3.676
30749W        W90252  39.952  21.191   2.692
30750W        W90253  36.069  33.077   0.963
30751W        W90254  25.497   5.827  14.453
30752W        W90255  30.028  37.977  12.071
30753W        W90256  14.276  29.096   0.432
30754W        W90257  18.157   8.302   2.403
30755W        W90258   7.410   1.928  12.480
30756W        W90259  34.071  37.958  13.049
30757W        W90260  40.900  35.964   4.706
30758W        W90261   0.341  13.631  13.396
30759W        W90262  44.488  43.946   1.222
30760W        W90263   3.306  27.994  10.447
30761W        W90264  18.071  32.422  13.008
30762W        W90265  27.039  32.549   3.162
30763W        W90266  37.025   9.192   0.424
30764W        W90267   8.310  40.972   4.749
30765W        W90268  35.895  26.118   4.175
30766W        W90269  23.023   0.331  11.870
30767W        W90270  36.022  20.243   2.335
30768W        W90271  23.580  21.146   0.872
30769W        W90272  23.227  36.560  11.054
30770W        W90273   4.912  30.149  10.954
30771W        W90274  41.935   9.210   4.728
30772W        W90275  37.912  43.289   4.706
30773W        W90276  40.390  32.625  14.465
30774W        W90277  44.489  29.460  11.993
30775W        W90278  32.069   4.365   0.847
30776W        W90279   0.780  18.615  11.494
30777W        W90280  24.221  39.429  14.421
30778W        W90281  37.552  11.673  12.981
30779W        W90282  22.621  12.856   5.087
30780W        W90283  15.738   8.329   1.337
30781W        W90284  10.215  29.932   1.297
30782W        W90285  37.477  38.358  14.422
30783W        W90286  22.049  30.963   4.601
30784W        W90287  30.443  36.061   2.780
30785W        W90288  17.074   7.905  12.032
30786W        W90289   7.879  28.452   2.720
30787W        W90290   5.300  18.614  13.546
30788W        W90291  29.958  14.592   4.838
30789W        W90292  33.574   7.761  11.077
30790W        W90293  40.520  27.526  13.530
30791W        W90294   0.917  35.922   1.832
30792W        W90295  11.352  21.596   4.795
30793W        W90296  42.782  33.007  11.528
30794W        W90297  33.593  36.969  13.836
30795W        W90298   9.375  43.952   0.734
30796W        W90299  11.318  17.642  12.543
30797W        W90300   9.301   5.331   4.639
30798W        W90301  25.206   0.265   0.264
30799W        W90302   3.877   1.871   3.648
30800W        W90303  28.156  36.079  10.638
30801W        W90304  18.191  12.712   2.304
30802W        W90305  29.429   8.892  14.312
30803W        W90306  23.681  26.566   4.140
30804W        W90307  33.395  15.153  11.530
30805W        W90308   4.246  26.027  11.922
30806W        W90309  37.978  33.939   0.260
30807W        W90310  12.309  38.077   2.822
30808W        W90311   7.272  12.351  13.538
30809W        W90312   3.750  25.034  10.042
30810W        W90313   8.819  22.235   1.384
30811W        W90314   4.884  36.475   3.756
30812W        W90315  25.109  32.490   2.271
30813W        W90316  42.948  34.996   4.325
30814W        W90317  14.601  38.851  14.943
30815W        W90318  33.927   3.900  12.408
30816W        W90319  36.399   8.859   5.298
30817W        W90320  18.640  27.974   4.314
30818W        W90321  19.751  33.885  12.827
30819W        W90322  12.356   2.791   4.115
30820W        W90323  43.428  23.707  10.072
30821W        W90324  35.389  41.931  14.313
30822W        W90325  37.455  18.129  14.279
30823W        W90326   5.353   7.894   1.825
30824W        W90327   5.214  30.006   0.260
30825W        W90328  29.028  35.495   3.269
30826W        W90329  12.612   7.786  10.587
30827W        W90330  20.120  33.604  11.570
30828W        W90331  16.307   4.333   0.254
30829W        W90332  10.223  40.440   4.293
30830W        W90333  43.888  29.945  11.078
30831W        W90334   7.716  11.851  11.977
30832W        W90335  26.487  31.537  10.060
30833W        W90336  11.212  27.463   0.451
30834W        W90337  25.523  29.504  14.883
30835W        W90338  30.559  36.091   4.210
30836W        W90339  25.030   9.705   4.266
30837W        W90340  17.617  31.583   1.236
30838W        W90341  35.467  13.650   0.861
30839W        W90342  30.582  43.312  14.480
30840W        W90343  31.479  36.469   0.955
30841W        W90344  17.613  43.946  13.800
30842W        W90345  37.963  37.002  13.957
30843W        W90346  41.463  39.834   0.283
30844W        W90347  16.597  17.782  11.920
30845W        W90348   5.699  14.276  14.791
30846W        W90349  27.452  42.921   3.858
30847W        W90350  20.056  36.998  11.480
30848W        W90351  11.867  21.552  12.928
30849W        W90352  10.140  19.578  11.525
30850W        W90353  41.486  43.328   4.619
30851W        W90354  35.052  41.832   2.401
30852W        W90355  34.007  34.417  13.859
30853W        W90356  44.999  13.660   2.805
30854W        W90357  13.213  10.376   2.226
30855W        W90358  26.157  20.738   0.818
30856W        W90359  23.007  41.882   0.792
30857W        W90360  21.598  30.022   1.784
30858W        W90361   4.823  25.526  12.374
30859W        W90362  17.292  18.598   1.260
30860W        W90363  34.497  23.713  14.815
30861W        W90364  19.606  16.138   3.658
30862W        W90365  29.646  35.431  13.058
30863W        W90366  32.927  35.858  12.483
30864W        W90367   5.253   9.311  13.063
30865W        W90368  32.042   5.212   1.811
30866W        W90369   1.407   8.218   1.796
30867W        W90370  28.066  21.138   5.171
30868W        W90371  29.501  27.554  12.962
30869W        W90372  39.472  41.478   2.801
30870W        W90373  27.977   4.218   3.642
30871W        W90374  32.395  36.382   0.326
30872W        W90375  40.414  38.392   3.732
30873W        W90376   4.410   4.306  11.960
30874W        W90377  23.600  25.696  14.424
30875W        W90378  21.123  18.092  11.522
30876W        W90379  11.695  25.989  13.938
30877W        W90380  30.909  27.155   4.114
30878W        W90381  41.883   3.227   1.803
30879W        W90382  10.275  31.909   2.257
30880W        W90383  39.027  42.333  14.367
30881W        W90384  16.292  40.382   3.837
30882W        W90385  17.293  22.027   1.793
30883W        W90386   9.358  30.653   3.641
30884W        W90387  11.367  37.012   9.456
30885W        W90388  17.635  38.988   4.175
30886W        W90389  21.528  43.940  10.152
30887W        W90390  19.738  28.120  12.863
30888W        W90391  30.970  15.266  10.038
30889W        W90392  16.129  36.843  11.439
30890W        W90393  11.159  14.128  14.024
30891W        W90394  31.910   8.273  14.905
30892W        W90395  20.722  41.478  14.975
30893W        W90396  26.078  24.202   0.257
30894W        W90397  32.953  40.323  11.915
30895W        W90398  16.116  21.751   0.846
30896W        W90399  18.568   7.341   4.782
30897W        W90400   0.922  19.650  11.418
30898W        W90401   5.768  22.038   1.915
30899W        W90402  12.274   5.797   4.691
30900W        W90403  10.834  17.248   1.306
30901W        W90404  26.059   0.797   2.184
30902W        W90405  29.525  10.217   3.148
30903W        W90406   8.880   9.313   0.250
30904W        W90407  42.876   5.694  14.296
30905W        W90408  26.104   7.385   1.770
30906W        W90409  37.385  18.615   1.738
30907W        W90410   4.741  33.936  13.430
30908W        W90411  30.034  16.603  13.442
30909W        W90412  41.372  30.911  11.112
30910W        W90413  12.218  18.277  11.496
30911W        W90414   0.966   4.800   4.203
30912W        W90415  40.025  16.150  12.537
30913W        W90416  35.573  44.853   3.218
30914W        W90417  19.159  42.832   3.177
30915W        W90418  37.499  43.941  11.873
30916W        W90419  31.591  32.560   4.796
30917W        W90420  42.961  41.804  13.419
30918W        W90421  18.128  10.247   3.701
30919W        W90422  35.431  41.992   0.864
30920W        W90423  38.905  28.002   0.749
30921W        W90424  35.055  19.670   0.809
30922W        W90425  30.459   0.251  11.966
30923W        W90426  34.945  19.147  11.409
30924W        W90427  27.104  31.492  12.906
30925W        W90428  30.938  29.543  11.117
30926W        W90429   4.244  37.538  12.862
30927W        W90430  29.466   8.172  14.001
30928W        W90431   8.367   1.820  13.370
30929W        W90432  14.590  26.622  11.906
30930W        W90433  11.331  23.612  14.885
30931W        W90434  12.831  18.678   4.614
30932W        W90435  39.380   7.834   4.306
30933W        W90436   3.736  44.954   1.924
30934W        W90437  15.680  16.809  12.868
30935W        W90438  37.499  27.448  11.049
30936W        W90439  30.120  14.105  14.355
30937W        W90440   6.874  29.081   4.154
30938W        W90441  27.560   9.198  12.435
30939W        W90442  39.515   6.209   2.323
30940W        W90443   4.767  39.346  11.893
30941W        W90444  28.003  25.092   2.793
30942W        W90445  19.705  10.762  12.450
30943W        W90446  26.580   6.324   4.628
30944W        W90447  30.596  44.952   2.185
30945W        W90448  33.502   2.830   1.811
30946W        W90449   1.459  21.661  11.069
30947W        W90450  35.094   8.828  13.926
30948W        W90451   3.355   0.252  13.319
30949W        W90452  13.231   6.281   3.850
30950W        W90453  40.883  22.235  14.979
30951W        W90454  26.609  39.819   9.954
30952W        W90455  39.398  19.251   0.955
30953W        W90456  16.573  43.313  12.004
30954W        W90457   3.418   0.821   2.342
30955W        W90458  28.157  12.708  13.394
30956W        W90459  44.804  29.950  11.413
30957W        W90460   9.798   5.934  13.956
30958W        W90461  32.909  28.030   3.659
30959W        W90462   9.803   9.831  13.029
30960W        W90463   7.895  18.720   1.903
30961W        W90464  41.464  18.176   1.215
30962W        W90465   7.727  17.637  12.967
30963W        W90466  35.039  16.653  11.439
30964W        W90467   8.840   4.241  13.318
30965W        W90468   1.387  30.423   4.193
30966W        W90469  11.733  15.244  12.950
30967W        W90470  11.172  10.307   3.322
30968W        W90471  26.110  29.506  13.041
30969W        W90472  30.134  24.598   1.785
30970W        W90473   1.279  18.286  13.383
30971W        W90474  20.193  22.680  13.919
30972W        W90475  26.125  17.085  12.871
30973W        W90476  42.981  42.371  13.376
30974W        W90477  22.138   0.449  14.856
30975W        W90478   6.377  29.518  11.981
30976W        W90479  43.376  27.681   0.812
30977W        W90480  42.446  29.439   3.223
30978W        W90481  33.536   8.245   3.229
30979W        W90482  27.475  12.199  12.898
30980W        W90483  30.518   5.899   2.224
30981W        W90484  18.235  30.462   4.186
30982W        W90485  10.296  11.312  11.916
30983W        W90486  30.568   5.767  10.606
30984W        W90487  15.754  24.708  13.976
30985W        W90488  15.744  23.612  11.477
30986W        W90489  15.749  24.687  12.884
30987W        W90490  17.719  36.866   4.220
30988W        W90491   5.224  13.298  13.378
30989W        W90492  19.054  10.734   2.402
30990W        W90493   7.217  34.036  14.452
30991W        W90494  37.951   6.310   1.368
30992W        W90495   6.846  34.908   3.319
30993W        W90496  28.106  17.668   1.868
30994W        W90497  28.628  37.376  10.455
30995W        W90498   2.773  32.038  10.573
30996W        W90499  35.854  15.715  12.908
30997W        W90500   3.363  41.321   1.421
30998W        W90501  44.927  35.527  13.037
30999W        W90502   3.864   3.304   1.848
31000W        W90503  26.192  27.104  12.966
31001W        W90504   5.422   2.739   1.440
31002W        W90505  35.485  26.566   2.237
31003W        W90506  43.322  20.689   1.261
31004W        W90507  31.907  24.594  13.538
31005W        W90508  12.637  34.068   0.887
31006W        W90509  31.519  36.471   3.633
31007W        W90510  20.105  12.301  12.490
31008W        W90511   3.762   2.744  11.538
31009W        W90512  20.563   6.293   3.850
31010W        W90513   8.274  27.540  12.833
31011W        W90514  33.533  44.480   1.348
31012W        W90515  20.660  32.534   0.922
31013W        W90516   4.859  15.216   3.249
31014W        W90517  11.814  32.912   0.929
31015W        W90518  10.818  33.539  12.376
31016W        W90519  11.804   2.313   3.298
31017W        W90520  43.900  28.634   3.658
31018W        W90521  15.646  41.354   1.857
31019W        W90522  39.468  25.474  11.561
31020W        W90523  19.541  23.614   3.720
31021W        W90524   6.831  27.945  10.955
31022W        W90525  26.114  36.359  13.020
31023W        W90526  17.260  33.445   0.282
31024W        W90527  15.655  31.101   2.229
31025W        W90528   3.224  42.354  10.044
31026W        W90529  27.090   9.369  10.626
31027W        W90530  43.934  22.215   3.228
31028W        W90531   6.304   8.395  13.496
31029W        W90532  19.174  21.135   2.761
31030W        W90533   7.369  12.146   2.789
31031W        W90534  28.534  37.449   4.606
31032W        W90535  20.678  29.011   0.908
31033W        W90536  21.240  15.682   2.183
31034W        W90537  41.984  22.528   0.880
31035W        W90538   7.747   6.307   4.299
31036W        W90539  29.527  22.641   0.744
31037W        W90540  15.773   5.905  10.597
31038W        W90541   1.800  19.159  12.049
31039W        W90542  22.645  27.635   1.818
31040W        W90543  19.631   7.307  12.495
31041W        W90544   9.841  15.689  14.801
31042W        W90545  17.783  10.727  14.821
31043W        W90546  16.188   6.816   2.770
31044W        W90547  31.004  18.122  14.339
31045W        W90548  13.725  15.712  14.353
31046W        W90549  12.682  10.278  10.500
31047W        W90550  21.698  41.338  13.061
31048W        W90551   3.887  30.049   0.482
31049W        W90552  37.073  32.477   4.181
31050W        W90553  36.957  40.406   2.855
31051W        W90554  26.996  22.515  12.557
31052W        W90555  38.040  13.766  12.052
31053W        W90556  17.305  32.590  13.527
31054W        W90557  16.579  42.409   3.731
31055W        W90558  34.441  11.810   0.321
31056W        W90559   8.707  21.197   2.188
31057W        W90560  27.487  23.546   3.806
31058W        W90561   7.680  24.159  13.825
31059W        W90562  26.070  25.105  12.371
31060W        W90563  38.836  24.116  12.371
31061W        W90564  16.256  22.205   1.799
31062W        W90565  24.098   2.300   3.851
31063W        W90566  43.442   3.288  12.963
31064W        W90567  42.435  12.278   1.310
31065W        W90568  13.311  25.657   4.816
31066W        W90569  14.691   6.373  11.983
31067W        W90570  27.506   8.337   2.673
31068W        W90571  31.524  43.801  13.437
31069W        W90572   9.332   2.801  13.905
31070W        W90573  12.285  33.532  12.526
31071W        W90574  14.818   9.306  13.023
31072W        W90575  21.166  31.061   1.738
31073W        W90576  37.003   3.866   0.306
31074W        W90577  21.203  28.473  12.846
31075W        W90578   8.771  13.684  14.799
31076W        W90579  11.813  42.374  14.502
31077W        W90580  17.215  42.441  12.423
31078W        W90581   9.158   3.767  13.492
31079W        W90582  11.726  34.603  10.961
31080W        W90583  24.642  34.997  14.774
31081W        W90584  44.852  30.059  12.094
31082W        W90585  11.136   2.879   3.675
31083W        W90586   1.368  31.455  11.472
31084W        W90587  28.160  14.274   3.646
31085W        W90588  11.657  15.232   4.758
31086W        W90589   7.812  10.150   2.369
31087W        W90590  31.434   3.257   4.302
31088W        W90591  16.711   5.748  14.301
31089W        W90592   1.825  13.105  11.908
31090W        W90593  12.236  26.982  10.594
31091W        W90594  36.912  17.198  10.597
31092W        W90595  20.697  23.522   1.302
31093W        W90596  43.964  19.640  13.931
31094W        W90597   6.881  21.678   3.720
31095W        W90598  37.068  13.250  12.965
31096W        W90599  17.201  23.735   4.804
31097W        W90600  39.504  32.497  13.812
31098W        W90601  30.553   4.334   3.328
31099W        W90602  24.177   8.895  13.015
31100W        W90603   7.244   1.335  14.961
31101W        W90604  10.294  17.653  13.879
31102W        W90605   1.764  39.547  13.379
31103W        W90606  40.362   8.218  13.478
31104W        W90607  28.085  31.589  14.370
31105W        W90608  12.346  15.664  12.398
31106W        W90609  38.336  14.142  13.392
31107W        W90610  34.119  28.605   1.768
31108W        W90611   3.316  20.731   1.438
31109W        W90612  18.725  36.075  13.435
31110W        W90613  12.846  41.978   3.280
31111W        W90614   4.787  26.613   1.852
31112W        W90615  15.660  41.004   3.277
31113W        W90616   6.885  17.625  12.006
31114W        W90617   0.272   6.240  14.831
31115W        W90618   4.428  19.056   0.329
31116W        W90619  24.644  20.693  14.825
31117W        W90620  31.991  30.580   4.818
31118W        W90621  44.981  43.779  12.952
31119W        W90622  13.291   5.797   0.307
31120W        W90623   2.228  11.129   1.715
31121W        W90624   6.288  11.775   4.817
31122W        W90625   3.359   7.708   4.643
31123W        W90626  12.279  17.066   1.235
31124W        W90627  36.566  25.120   2.213
31125W        W90628  20.052   4.825  12.992
31126W        W90629  41.487   6.707  10.438
31127W        W90630  27.656  16.755   0.781
31128W        W90631  11.631  21.657  12.397
31129W        W90632  23.007  32.583   1.413
31130W        W90633  41.797   9.213  14.491
31131W        W90634  27.030  22.190  12.832
31132W        W90635  39.886  21.201   2.235
31133W        W90636  24.099  11.185  12.837
31134W        W90637   1.785  44.803  14.014
31135W        W90638   6.270  28.457  11.893
31136W        W90639  10.825  24.208  13.445
31137W        W90640  31.135  10.839   0.367
31138W        W90641  27.118  30.146  14.359
31139W        W90642  43.474  18.196   2.355
31140W        W90643  44.356  28.142   1.888
31141W        W90644   2.736  30.610  12.985
31142W        W90645  22.686   0.977   0.400
31143W        W90646  30.994  18.204  10.022
31144W        W90647   5.357   2.412   4.673
31145W        W90648  30.648  32.993  13.479
31146W        W90649   0.976  24.064  12.990
31147W        W90650  40.487   5.756  14.886
31148W        W90651  33.945  21.638  13.518
31149W        W90652  11.632   0.406  10.638
31150W        W90653   3.265   9.851   2.322
31151W        W90654  32.020  20.644  11.885
31152W        W90655  33.004  20.548   0.383
31153W        W90656  41.457  27.959  11.046
31154W        W90657  39.989  15.807  11.035
31155W        W90658  41.806  19.191   3.152
31156W        W90659  12.322  15.285  14.014
31157W        W90660  38.008  39.390   1.882
31158W        W90661  24.676   5.260   3.298
31159W        W90662  16.701  13.779  12.087
31160W        W90663  26.126  31.415  14.389
31161W        W90664  31.478  23.137  11.102
31162W        W90665  23.513  37.518   2.232
31163W        W90666  14.139  42.334  10.645
31164W        W90667  30.471   9.727  12.896
31165W        W90668   5.266  10.699  12.522
31166W        W90669  35.498  15.772   0.805
31167W        W90670  27.089  24.980  12.857
31168W        W90671   3.310   6.695   2.679
31169W        W90672  20.031   2.935   2.719
31170W        W90673  13.814  31.623  11.456
31171W        W90674   5.914  32.531  10.520
31172W        W90675  13.296  44.753  12.856
31173W        W90676  32.063  44.889   3.726
31174W        W90677  13.240  34.558  14.318
31175W        W90678   5.693  33.596   1.451
31176W        W90679  39.930  10.722  10.628
31177W        W90680  43.322  11.691   1.444
31178W        W90681  38.996  21.051   3.154
31179W        W90682  14.293  29.643   2.220
31180W        W90683  41.799  35.366   4.767
31181W        W90684  38.508  32.050   4.265
31182W        W90685  19.181  14.132   3.802
31183W        W90686  27.523  20.103  13.416
31184W        W90687  39.051  22.592  12.523
31185W        W90688   5.921  13.617   3.844
31186W        W90689  28.962  41.029  14.452
31187W        W90690   0.299  40.982   2.394
31188W        W90691  10.872  29.027  10.444
31189W        W90692  15.792  21.729   3.863
31190W        W90693   5.911  18.121  13.962
31191W        W90694   9.852  17.632   2.367
31192W        W90695  27.030  42.817  12.831
31193W        W90696   4.816  14.118  11.971
31194W        W90697  34.377  26.049   3.812
31195W        W90698   5.723  24.106   2.744
31196W        W90699   1.796  14.174   3.704
31197W        W90700   7.252   2.946  11.594
31198W        W90701  38.821   2.856  13.374
31199W        W90702   7.792  18.215   3.278
31200W        W90703  29.651   7.361   3.283
31201W        W90704  23.064  39.389   2.739
31202W        W90705  29.987  16.669   3.357
31203W        W90706  24.176  13.782   3.711
31204W        W90707  35.368  33.875  12.911
31205W        W90708   9.659  12.199   2.832
31206W        W90709  17.221  27.643  13.364
31207W        W90710   5.769  26.517   4.258
31208W        W90711  36.940  26.051  10.421
31209W        W90712   6.897  29.952   3.187
31210W        W90713  19.623  10.736  14.947
31211W        W90714  27.588  34.557  12.462
31212W        W90715  44.388   6.233  10.069
31213W        W90716  16.724   8.891  12.377
31214W        W90717  37.976  20.533  14.281
31215W        W90718   5.379  20.250  11.401
31216W        W90719   4.410  35.383  10.914
31217W        W90720  24.975  42.321  12.441
31218W        W90721  34.019  32.603   4.686
31219W        W90722  34.057   9.851  11.398
31220W        W90723  31.502   1.411  10.621
31221W        W90724   8.377  23.659  10.597
31222W        W90725   5.433  21.745  13.538
31223W        W90726  18.607  11.785   4.299
31224W        W90727  18.112  32.019  14.807
31225W        W90728  22.671  21.655  14.387
31226W        W90729  38.564   8.374   3.150
31227W        W90730  20.592   8.769  10.606
31228W        W90731  22.612  26.966   0.392
31229W        W90732  11.258   2.326  12.963
31230W        W90733  14.788  38.490  11.004
31231W        W90734   4.264  17.659  11.074
31232W        W90735  44.960  13.304   3.727
31233W        W90736  43.998   1.911  13.875
31234W        W90737  20.220  28.944  14.022
31235W        W90738   4.377  23.561  14.343
31236W        W90739  30.087   5.327   1.234
31237W        W90740  30.164  29.027  11.892
31238W        W90741   7.889  16.121   2.881
31239W        W90742  16.116   6.902   4.136
31240W        W90743  35.077  28.043  14.870
31241W        W90744  36.482  40.972   2.242
31242W        W90745  37.062  13.310  11.421
31243W        W90746  25.530  30.485   0.403
31244W        W90747   5.369  34.601   3.328
31245W        W90748  31.581   0.425   2.819
31246W        W90749   6.213  35.570  14.935
31247W        W90750  18.679  26.125  11.544
31248W        W90751  36.973  17.300   4.320
31249W        W90752  40.541  41.434  12.966
31250W        W90753   0.928  19.085   0.796
31251W        W90754  32.466  43.927  12.505
31252W        W90755  28.178   3.378   0.460
31253W        W90756  42.338  15.107  14.907
31254W        W90757  38.888   3.937   0.913
31255W        W90758  41.972   3.332  12.412
31256W        W90759  44.870   1.374  10.451
31257W        W90760  31.110   9.350   0.393
31258W        W90761  26.492   8.668   9.930
31259W        W90762  44.821  35.502   4.701
31260W        W90763   1.941  32.433  10.983
31261W        W90764  38.007   1.417  11.606
31262W        W90765   4.732   0.268  10.954
31263W        W90766  36.936  26.963   0.954
31264W        W90767  18.247  16.611  12.927
31265W        W90768  21.117   0.782   1.248
31266W        W90769  15.758   0.476  12.555
31267W        W90770   6.244   9.171   2.198
31268W        W90771  11.372  29.644   4.675
31269W        W90772  35.883  38.826  14.769
31270W        W90773  15.660  15.784  11.954
31271W        W90774   2.374  20.110  11.482
31272W        W90775  29.429  35.897  11.453
31273W        W90776  21.164  37.995  12.955
31274W        W90777  41.844  40.464   5.093
31275W        W90778  43.312  33.979  14.995
31276W        W90779  24.506   6.406  12.474
31277W        W90780  24.004  25.972   2.344
31278W        W90781  22.694   1.306   3.337
31279W        W90782  32.972  25.174   1.818
31280W        W90783  28.974  37.841  10.501
31281W        W90784  32.923  21.262  13.917
31282W        W90785  37.056  20.167   2.687
31283W        W90786  38.928  26.686  12.018
31284W        W90787   0.886  35.452   1.230
31285W        W90788  11.199  12.310   0.283
31286W        W90789  41.836  38.559  11.605
31287W        W90790  30.653  20.623  14.984
31288W        W90791  44.812  28.072  11.092
31289W        W90792  11.793  28.113  13.911
31290W        W90793  43.955  17.085  14.941
31291W        W90794  10.302  12.772  11.934
31292W        W90795  15.636  11.821  11.899
31293W        W90796  30.537  30.921  11.450
31294W        W90797  20.644  38.965   2.270
31295W        W90798  15.156  37.872  12.964
31296W        W90799  26.062   9.156   2.334
31297W        W90800  11.663  42.405   0.280
31298W        W90801   9.175  16.676  14.922
31299W        W90802  36.561   7.254   5.104
31300W        W90803  14.631  34.922  12.997
31301W        W90804  19.746  30.519  10.449
31302W        W90805   9.340  12.680  14.863
31303W        W90806  41.938  12.227  12.941
31304W        W90807  44.415  32.635   3.381
31305W        W90808  16.630  33.952   3.702
31306W        W90809   7.282  30.454   3.717
31307W        W90810  32.074  23.233   1.861
31308W        W90811  31.083  29.549  14.760
31309W        W90812  22.050  10.764   2.809
31310W        W90813   9.377  39.479   0.955
31311W        W90814   2.291  17.618  12.982
31312W        W90815  20.234   2.825  10.545
31313W        W90816  22.158  21.622  14.366
31314W        W90817  30.543  33.993   5.127
31315W        W90818  12.171  42.978   3.841
31316W        W90819  19.775   7.800  13.419
31317W        W90820  40.035  23.176  14.995
31318W        W90821  16.698  25.655   2.805
31319W        W90822   6.731  38.351   2.744
31320W        W90823   4.442  15.751   3.296
31321W        W90824  26.194  24.045  12.920
31322W        W90825  18.602  36.062   4.267
31323W        W90826   6.185  14.197  12.492
31324W        W90827  22.727   6.412   2.882
31325W        W90828   6.270   2.387  12.053
31326W        W90829   8.748  38.855  13.970
31327W        W90830  22.063  31.419   0.431
31328W        W90831   6.923  44.334  12.067
31329W        W90832  18.555  39.054  12.522
31330W        W90833  18.187  10.236   2.832
31331W        W90834   8.833  11.764  12.019
31332W        W90835   5.422  16.695   2.273
31333W        W90836  35.965  27.954  12.479
31334W        W90837  31.139  33.089  13.941
31335W        W90838  28.506  39.986   1.791
31336W        W90839  10.750  20.163   0.303
31337W        W90840  28.531  37.359   0.743
31338W        W90841  17.256   4.449  11.061
31339W        W90842  15.625  28.542   2.263
31340W        W90843  28.057  44.979  12.869
31341W        W90844   2.883  35.856  13.324
31342W        W90845  35.466  11.829   2.729
31343W        W90846  15.788  25.636  12.552
31344W        W90847   6.918  38.338   0.323
31345W        W90848  34.564  35.531  11.094
31346W        W90849  37.349   1.373   0.430
31347W        W90850  12.172  30.619   3.245
31348W        W90851   0.385  24.122  13.858
31349W        W90852   5.308  21.703   3.216
31350W        W90853  24.545   2.886   3.288
31351W        W90854  16.183  35.078   1.824
31352W        W90855  39.403   4.912  12.454
31353W        W90856  42.899   6.391  12.081
31354W        W90857  23.066  29.008   4.833
31355W        W90858   4.904  33.479  12.361
31356W        W90859  21.137   6.745  13.998
31357W        W90860  34.410  30.942  11.893
31358W        W90861  12.714  32.130  12.982
31359W        W90862  13.692   1.323   1.848
31360W        W90863   1.462  25.589   4.294
31361W        W90864   4.748  37.942   0.931
31362W        W90865  26.124  21.650   4.224
31363W        W90866  22.210  37.884   1.901
31364W        W90867  24.056  17.662  11.869
31365W        W90868  12.263  25.593  14.861
31366W        W90869   9.253  32.032   0.243
31367W        W90870  20.611  42.846  14.488
31368W        W90871   9.814   0.354  10.484
31369W        W90872   6.841  27.948  14.320
31370W        W90873  40.322  10.812   0.775
31371W        W90874  11.165  32.630  14.799
31372W        W90875   9.190  36.087  12.883
31373W        W90876  37.475  15.305  11.052
31374W        W90877  19.150  26.160  12.394
31375W        W90878  12.832  23.148   1.697
31376W        W90879  25.987  44.399   4.123
31377W        W90880  38.049  16.589  11.539
31378W        W90881  34.425  36.965  13.819
31379W        W90882  33.437  24.652   0.801
31380W        W90883   2.329  22.008   0.861
31381W        W90884  10.716   7.714   1.766
31382W        W90885  13.179  44.353   3.772
31383W        W90886  34.884  34.408   0.478
31384W        W90887   6.761  39.040  10.610
31385W        W90888  27.126  27.103   4.114
31386W        W90889   6.751  40.962  11.989
31387W        W90890  38.962  28.656  12.411
31388W        W90891  25.162  34.584  11.040
31389W        W90892  16.796  43.790   2.222
31390W        W90893   3.873  15.669   2.270
31391W        W90894  35.469  43.515   4.215
31392W        W90895  23.562  20.268  11.105
31393W        W90896   2.256  10.661  14.382
31394W        W90897  41.329   7.405  14.840
31395W        W90898  16.168  19.057  13.911
31396W        W90899  23.113  34.880   3.294
31397W        W90900   7.224   2.815  12.507
31398W        W90901  24.129  20.216  11.486
31399W        W90902   7.402   3.215  14.342
31400W        W90903  30.044  35.553   3.348
31401W        W90904  16.673  37.385  10.966
31402W        W90905   3.846   7.831   0.870
31403W        W90906  40.850  33.986  13.978
31404W        W90907  41.476  30.622   3.173
31405W        W90908  40.336   4.830  12.838
31406W        W90909  44.458  36.561  11.054
31407W        W90910  43.433  36.894   4.733
31408W        W90911  44.824  26.543   1.231
31409W        W90912  44.840  43.954  10.437
31410W        W90913  39.521   8.330   2.326
31411W        W90914  34.108  35.018   4.114
31412W        W90915  35.553  20.101  11.918
31413W        W90916  12.765  25.066  10.551
31414W        W90917  11.258   6.411  13.315
31415W        W90918  40.937   0.895  11.401
31416W        W90919  13.666   8.832   1.908
31417W        W90920  35.582  17.140   2.889
31418W        W90921  10.383  14.685   4.794
31419W        W90922  27.551  20.530  11.542
31420W        W90923  34.932  15.679  13.439
31421W        W90924  34.925  19.131   0.368
31422W        W90925   7.833   8.285   4.671
31423W        W90926  28.079  30.990   0.440
31424W        W90927  35.516   8.866  11.023
31425W        W90928  25.544  19.780   4.816
31426W        W90929  21.080  17.189   1.853
31427W        W90930  35.042   0.352  14.026
31428W        W90931  17.086  16.710   1.901
31429W        W90932  16.627  43.810   4.823
31430W        W90933  31.936  33.915  13.919
31431W        W90934  16.260  33.992  14.974
31432W        W90935   4.769  11.270  14.850
31433W        W90936  36.489  23.607  13.364
31434W        W90937  23.198   6.407  10.909
31435W        W90938  35.504  21.203   4.348
31436W        W90939  17.575  33.935   1.310
31437W        W90940  27.530  39.397  13.881
31438W        W90941   9.812  35.006   3.204
31439W        W90942  17.565  34.925  13.810
31440W        W90943  21.044  17.154   3.308
31441W        W90944  23.229  42.388   1.288
31442W        W90945   4.251   3.824  11.473
31443W        W90946  11.174  33.581  14.764
31444W        W90947  20.533  44.401   4.833
31445W        W90948  26.093  13.319  13.372
31446W        W90949  15.646  23.219  14.437
31447W        W90950  25.169  18.191  11.049
31448W        W90951  37.378  34.432   3.307
31449W        W90952  22.662   9.818   4.764
31450W        W90953  25.514  25.214   1.388
31451W        W90954   5.787  10.808   2.191
31452W        W90955  32.095   0.796   0.848
31453W        W90956  21.215  40.858  12.920
31454W        W90957  37.488  29.441  10.554
31455W        W90958  23.498   4.826   2.739
31456W        W90959  41.969   6.335   0.400
31457W        W90960  15.663  21.724  14.471
31458W        W90961  26.457  39.972  14.484
31459W        W90962  11.774   3.853  11.594
31460W        W90963  43.333  25.570  12.935
31461W        W90964   9.154  22.012  11.976
31462W        W90965  37.891  41.935  11.901
31463W        W90966  31.594  31.948   2.857
31464W        W90967   3.813  40.918   0.336
31465W        W90968  30.456  35.414  14.760
31466W        W90969  18.258  21.096  10.566
31467W        W90970  38.469  42.438  11.567
31468W        W90971  40.814  25.114  10.574
31469W        W90972  28.559  30.010   2.764
31470W        W90973  27.649  14.315  13.878
31471W        W90974  27.943   5.832  14.411
31472W        W90975  30.606  15.584   1.330
31473W        W90976  37.379  19.132  14.473
31474W        W90977  17.116  18.066  10.009
31475W        W90978  31.560  42.805   0.755
31476W        W90979  18.293   3.376   2.891
31477W        W90980  31.475  41.387  11.486
31478W        W90981  15.738  12.771  11.590
31479W        W90982  34.098   5.811  14.443
31480W        W90983  18.753   8.777   2.253
31481W        W90984  31.564  17.087   0.862
31482W        W90985  39.889  43.004   2.768
31483W        W90986  32.912   1.865   2.689
31484W        W90987  28.164  11.236   0.911
31485W        W90988   2.465  41.516  13.892
31486W        W90989   6.902  12.801  14.863
31487W        W90990   0.901  38.961  12.415
31488W        W90991   9.798  26.143   4.247
31489W        W90992  36.930  27.458  14.800
31490W        W90993  16.792  12.216   0.403
31491W        W90994  39.863  30.598  11.877
31492W        W90995  39.499  26.684  14.779
31493W        W90996  22.525  28.593  12.430
31494W        W90997   5.242  26.037   2.748
31495W        W90998   2.754  29.162   3.272
31496W        W90999  17.691  12.706   2.898
31497W        W91000  18.629  17.128   1.876
31498W        W91001  35.048  16.218  11.922
31499W        W91002  33.446   0.434   4.116
31500W        W91003  35.378  35.381   0.945
31501W        W91004  44.917   2.462  11.014
31502W        W91005  41.465  34.943  14.934
31503W        W91006  17.180   5.432  12.945
31504W        W91007   7.326  35.964   2.296
31505W        W91008  40.402  25.104  14.378
31506W        W91009  18.052  34.590  14.451
31507W        W91010  38.405  13.828   2.272
31508W        W91011   2.855  44.488  12.833
31509W        W91012  35.105   0.952  11.100
31510W        W91013  32.480  17.166   2.403
31511W        W91014  20.074  22.592  12.891
31512W        W91015  10.845  22.040   2.789
31513W        W91016  29.606  28.510   0.822
31514W        W91017   0.874  24.646  12.874
31515W        W91018  17.083  24.085  13.064
31516W        W91019  18.124   2.767  14.349
31517W        W91020   1.737  13.620  12.389
31518W        W91021   3.312  21.051  12.557
31519W        W91022   9.258  33.023   3.813
31520W        W91023   5.920  15.198   1.318
31521W        W91024  14.137  33.607   1.719
31522W        W91025  40.407   2.879   3.757
31523W        W91026   0.753   3.351   0.387
31524W        W91027  22.126   5.228   1.898
31525W        W91028  16.236  23.718  10.444
31526W        W91029  31.010  12.257  10.568
31527W        W91030  11.163   7.181  14.366
31528W        W91031  20.553  29.565   4.150
31529W        W91032   0.418  31.060   3.686
31530W        W91033  28.018  24.186  11.036
31531W        W91034   0.475   5.294   1.221
31532W        W91035  24.719  18.232  13.817
31533W        W91036  16.780   4.238  14.850
31534W        W91037  18.732  17.681  10.602
31535W        W91038  42.328  36.003  12.951
31536W        W91039  35.922  31.949   5.208
31537W        W91040   1.877  40.865  10.600
31538W        W91041  13.227  37.892  13.973
31539W        W91042   8.722  17.067  12.924
31540W        W91043  21.073  41.348   3.202
31541W        W91044  40.952  40.831   3.673
31542W        W91045  21.187   4.305   5.321
31543W        W91046  38.406  17.725   2.237
31544W        W91047  14.104   8.707   2.890
31545W        W91048  30.999  27.516  10.904
31546W        W91049  12.620  12.343  14.870
31547W        W91050  40.927  27.120   2.669
31548W        W91051  11.687  16.214  11.104
31549W        W91052  18.131  28.621   3.255
31550W        W91053  20.712  44.811  14.287
31551W        W91054  11.310   8.399   2.793
31552W        W91055  29.562  11.665  13.456
31553W        W91056   8.793  19.636   1.824
31554W        W91057  20.638  23.496  11.103
31555W        W91058  31.909  43.502   1.728
31556W        W91059  24.147  39.867   2.214
31557W        W91060  16.670  33.931  13.800
31558W        W91061  13.241  17.763   1.261
31559W        W91062  24.021   5.835   3.176
31560W        W91063  21.224  22.129   4.297
31561W        W91064   6.841  37.340  11.057
31562W        W91065  32.392  23.010   4.180
31563W        W91066  40.323  44.322   2.307
31564W        W91067  31.113  23.034   0.881
31565W        W91068  31.129   1.331  12.527
31566W        W91069  26.509  12.244  13.791
31567W        W91070  36.407  39.010  14.491
31568W        W91071  37.407  31.055   4.724
31569W        W91072  10.758   5.854   4.334
31570W        W91073  44.780  17.136   3.770
31571W        W91074  15.316  35.034  12.450
31572W        W91075  24.618   3.950   3.673
31573W        W91076  44.281   9.372   4.344
31574W        W91077  10.719  18.214   3.249
31575W        W91078  39.547  31.446   0.732
31576W        W91079  20.612   8.200   4.158
31577W        W91080   2.832  20.202   2.262
31578W        W91081  10.216   2.917  14.308
31579W        W91082  34.553  25.153  12.942
31580W        W91083  10.739  34.599   4.664
31581W        W91084  34.420   3.739  14.286
31582W        W91085  23.722  10.265  11.117
31583W        W91086   0.837  25.614   1.763
31584W        W91087   6.817  32.575  13.052
31585W        W91088  39.047  34.408   9.987
31586W        W91089   0.944  18.127   3.744
31587W        W91090  41.315   4.298   0.281
31588W        W91091  26.694   5.890  12.392
31589W        W91092   9.165  10.647  11.554
31590W        W91093  28.960  15.238   0.873
31591W        W91094  32.106  34.016  10.107
31592W        W91095  27.997   9.199   0.401
31593W        W91096  12.813  42.943  14.791
31594W        W91097  38.061  32.991   4.230
31595W        W91098  40.926  17.201  13.324
31596W        W91099  28.147  31.511   0.851
31597W        W91100  36.037  43.887   1.435
31598W        W91101  18.213  41.026  11.113
31599W        W91102  20.051   3.905   3.861
31600W        W91103  41.500  23.578  12.852
31601W        W91104  43.454   7.174  10.126
31602W        W91105  33.920  36.524   1.431
31603W        W91106  43.331   8.680  13.386
31604W        W91107  36.536  11.641  12.049
31605W        W91108  18.553   7.173   1.868
31606W        W91109  12.153  35.575  12.553
31607W        W91110  43.939  40.344   1.415
31608W        W91111  28.507   8.805  10.585
31609W        W91112  31.422  27.605   2.301
31610W        W91113  17.122  20.040   0.269
31611W        W91114  32.113  12.659   3.184
31612W        W91115   0.875  17.101   2.371
31613W        W91116  22.090   8.295  13.455
31614W        W91117  43.295  13.341   4.787
31615W        W91118  31.642   6.270   4.335
31616W        W91119  24.653  32.111  11.872
31617W        W91120  35.379   1.315  14.996
31618W        W91121  13.768  22.515  11.450
31619W        W91122  34.536   3.754   2.227
31620W        W91123  25.203   6.280  13.442
31621W        W91124  16.086   3.245  11.436
31622W        W91125   9.825   0.974  13.392
31623W        W91126  18.178   7.196   1.888
31624W        W91127  40.376   7.260  13.412
31625W        W91128  40.945  14.264  12.434
31626W        W91129  31.564  41.430  12.997
31627W        W91130  31.976  44.920   2.217
31628W        W91131  11.355   5.360   0.357
31629W        W91132  44.406  36.541  14.877
31630W        W91133  36.066   8.344   3.248
31631W        W91134   1.885  40.530  11.392
31632W        W91135  32.595  29.618  14.462
31633W        W91136  27.534   2.848   2.697
31634W        W91137   3.850  10.752  14.406
31635W        W91138  27.470  44.368  13.408
31636W        W91139  20.552   4.294  10.633
31637W        W91140  40.340  38.547  11.422
31638W        W91141  21.678  12.174  13.969
31639W        W91142  20.193   8.200   4.598
31640W        W91143  31.519  14.629  13.499
31641W        W91144   7.902  11.661   4.720
31642W        W91145  21.260  12.186   0.408
31643W        W91146  17.767  38.041  13.052
31644W        W91147  19.082  43.277  14.760
31645W        W91148   5.802   1.747  13.917
31646W        W91149  31.012  25.657   2.835
31647W        W91150  21.159  17.642  10.617
31648W        W91151  19.229  41.386  11.893
31649W        W91152   1.360  11.360  11.046
31650W        W91153   8.846  14.663  12.492
31651W        W91154  10.189  39.446  12.534
31652W        W91155  42.495  34.865  14.936
31653W        W91156  14.730  30.130   1.727
31654W        W91157   3.720   3.734  13.425
31655W        W91158  41.533   1.773   2.770
31656W        W91159   3.331  43.305   1.700
31657W        W91160   0.284   2.805  12.845
31658W        W91161  10.305  11.265  14.486
31659W        W91162   7.214  22.099   0.334
31660W        W91163  33.103   9.798  14.790
31661W        W91164   3.414  25.165  12.025
31662W        W91165  30.613  11.763   3.865
31663W        W91166  14.724   4.321  14.460
31664W        W91167   6.331  20.240  13.046
31665W        W91168  43.941  33.021   2.183
31666W        W91169  34.030  11.698  11.026
31667W        W91170  27.013  42.787   3.631
31668W        W91171  16.581  38.499  12.502
31669W        W91172  14.259  27.023   1.913
31670W        W91173  34.114  27.015  14.828
31671W        W91174  23.117  37.976  11.564
31672W        W91175  43.960  18.626  12.917
31673W        W91176   4.228  14.672   5.629
31674W        W91177  11.316  42.025  11.384
31675W        W91178  30.984  40.949   1.734
31676W        W91179  24.668  14.214  12.897
31677W        W91180  26.051  32.398  10.545
31678W        W91181   9.647  44.365   0.937
31679W        W91182  20.747  33.592  13.421
31680W        W91183  43.306   0.941  12.361
31681W        W91184  13.834   0.784  13.918
31682W        W91185  41.498  11.782   1.772
31683W        W91186  23.714  37.408  10.453
31684W        W91187  16.160   2.360   0.951
31685W        W91188  13.136   9.311   1.751
31686W        W91189  31.072  17.795  12.059
31687W        W91190  13.726  33.496  10.018
31688W        W91191  26.118  30.121   2.804
31689W        W91192  17.650   3.945  10.497
31690W        W91193   1.371   4.710  14.768
31691W        W91194  20.557   9.837  14.322
31692W        W91195  32.990  14.614   0.934
31693W        W91196  43.394  30.584  10.904
31694W        W91197  39.325  18.182   3.751
31695W        W91198  32.996   4.448   4.139
31696W        W91199  11.266  43.876  12.527
31697W        W91200  30.913  19.634   4.605
31698W        W91201  21.651  29.618   4.159
31699W        W91202  12.347  12.835   4.290
31700W        W91203  18.135   2.869   2.298
31701W        W91204  34.070  32.935  14.469
31702W        W91205  42.946  28.110   4.797
31703W        W91206   5.280  44.269   4.805
31704W        W91207  17.253  19.270  12.455
31705W        W91208   5.301   8.667   4.786
31706W        W91209  34.575  33.441  14.305
31707W        W91210  30.522  29.033  14.462
31708W        W91211  17.649  41.336  11.112
31709W        W91212   5.698  38.904  14.884
31710W        W91213  38.054  29.098  13.796
31711W        W91214   7.708  26.486   2.813
31712W        W91215  40.537  28.010   1.744
31713W        W91216  33.564  24.502   9.934
31714W        W91217   0.448   3.905  11.991
31715W        W91218   5.691  13.683  13.389
31716W        W91219  38.535  43.889  10.894
31717W        W91220  34.080  44.367  14.841
31718W        W91221  43.771  27.114  11.438
31719W        W91222  38.832  38.355   1.792
31720W        W91223  22.686  27.455  10.994
31721W        W91224   8.864  26.189   0.361
31722W        W91225  40.307   4.871  12.400
31723W        W91226   4.895  25.512   4.335
31724W        W91227   1.455  11.628   1.800
31725W        W91228  10.222  41.295   1.428
31726W        W91229  19.701  21.512   0.470
31727W        W91230  16.169  30.631   2.340
31728W        W91231  28.065  14.752   9.932
31729W        W91232  43.322  21.155   4.702
31730W        W91233   5.777  27.639  14.289
31731W        W91234  10.346   3.860   2.731
31732W        W91235  13.328  33.617   0.832
31733W        W91236   1.445  25.198   1.332
31734W        W91237  19.084   1.910  11.048
31735W        W91238  39.029  24.194  12.891
31736W        W91239  23.662  31.493  13.538
31737W        W91240  28.034  42.859   2.747
31738W        W91241  35.098   0.472   2.730
31739W        W91242  27.477  36.560  13.363
31740W        W91243  18.055   2.861   0.900
31741W        W91244  34.401  19.698   1.211
31742W        W91245  12.737  31.976  13.981
31743W        W91246  27.677  27.495  11.473
31744W        W91247  25.601  21.538  12.464
31745W        W91248   3.317  27.567   3.262
31746W        W91249  28.538  20.523   4.687
31747W        W91250  11.349  23.696  11.945
31748W        W91251  32.911  25.504   2.419
31749W        W91252  17.198  34.971   2.289
31750W        W91253  10.728  13.745  14.496
31751W        W91254  33.120  35.863  14.920
31752W        W91255  23.139  35.035   4.684
31753W        W91256  16.615  39.411   1.738
31754W        W91257   7.737  33.588  13.931
31755W        W91258  36.407  38.970   1.302
31756W        W91259  25.150  33.614  14.287
31757W        W91260  20.040  22.180  14.982
31758W        W91261  35.019  26.655   4.656
31759W        W91262  20.190  11.153  10.574
31760W        W91263  21.726  11.228   4.635
31761W        W91264   0.790  12.189  14.789
31762W        W91265  28.655  42.364   4.811
31763W        W91266  25.150  39.864   1.303
31764W        W91267  15.250  24.161   1.806
31765W        W91268   5.413  44.977   1.390
31766W        W91269  36.381  41.319  12.897
31767W        W91270  24.656  29.062  13.519
31768W        W91271  42.370  41.886  11.374
31769W        W91272  23.571  33.538   4.315
31770W        W91273  32.573  43.274  13.454
31771W        W91274  20.686   0.948  12.422
31772W        W91275   0.255  22.681  10.505
31773W        W91276  35.435  12.779   2.234
31774W        W91277  15.808  40.852  14.847
31775W        W91278  26.954  23.687   2.205
31776W        W91279  31.431  11.621  14.414
31777W        W91280   6.707  16.224   0.849
31778W        W91281  40.523  44.874   1.876
31779W        W91282  16.191  42.919   3.336
31780W        W91283   8.674  22.078  14.821
31781W        W91284   7.787  15.308   4.350
31782W        W91285  36.992  20.700  12.561
31783W        W91286   4.715  31.534   0.249
31784W        W91287  18.273  44.802  10.541
31785W        W91288  19.735  33.065  13.887
31786W        W91289  31.025  44.936   1.745
31787W        W91290  27.102   0.779   1.294
31788W        W91291  23.676  15.219   1.821
31789W        W91292  24.529  28.464  14.953
31790W        W91293  43.784  37.423   0.431
31791W        W91294   0.301  37.369   2.809
31792W        W91295   9.267  10.266  12.967
31793W        W91296  44.009  27.133  11.030
31794W        W91297   5.879  40.854  11.544
31795W        W91298  33.083  13.177   2.356
31796W        W91299   9.342  39.923   0.824
31797W        W91300  20.053  37.379   1.782
31798W        W91301  22.036  22.112  14.946
31799W        W91302  39.393  43.317  10.951
31800W        W91303  39.476  33.001   2.880
31801W        W91304  12.356  17.164  10.552
31802W        W91305  20.219  19.672  13.527
31803W        W91306   5.372  14.268  14.845
31804W        W91307   9.287  31.543  10.487
31805W        W91308  39.371  42.365   0.462
31806W        W91309  42.032  43.808   0.432
31807W        W91310  38.039   5.357   2.262
31808W        W91311  31.132  43.354  14.280
31809W        W91312  22.100  41.876   4.235
31810W        W91313   9.248  18.668   0.386
31811W        W91314  14.799  18.717  12.867
31812W        W91315  38.368  26.207  11.386
31813W        W91316  26.138  34.880  13.519
31814W        W91317  11.291  29.124   0.949
31815W        W91318  10.634  10.710   4.635
31816W        W91319   7.901  19.602  13.539
31817W        W91320  32.416  29.628   1.427
31818W        W91321   9.769  23.665  11.520
31819W        W91322  44.480  10.727  12.523
31820W        W91323  42.878  28.468  11.921
31821W        W91324  31.144  20.255   3.303
31822W        W91325  22.038  42.777   3.729
31823W        W91326  26.580  42.958   5.113
31824W        W91327   6.687  25.481   2.222
31825W        W91328   0.358   8.802  12.459
31826W        W91329   0.283  13.341   4.782
31827W        W91330   1.961  32.901   3.859
31828W        W91331  12.344  28.553  12.990
31829W        W91332  17.701  25.212  11.602
31830W        W91333  30.165  11.636  11.501
31831W        W91334  24.547   9.362   1.379
31832W        W91335  12.721  22.739  14.455
31833W        W91336   4.787  33.581   4.697
31834W        W91337  16.219  44.952  10.536
31835W        W91338   9.312  44.817   3.271
31836W        W91339  41.521  28.075   2.244
31837W        W91340  35.422  27.540   2.854
31838W        W91341   1.476   0.314   3.177
31839W        W91342  36.917  18.218  12.884
31840W        W91343  16.259   6.882   1.426
31841W        W91344  25.015  44.283  12.362
31842W        W91345  33.964   5.381  12.080
31843W        W91346  12.272   3.748   2.787
31844W        W91347  38.409  32.960  12.882
31845W        W91348  34.002   2.939  10.476
31846W        W91349  44.981   6.327  12.500
31847W        W91350  42.463  41.965   3.196
31848W        W91351   9.741  25.068   4.134
31849W        W91352  21.160  22.503   2.199
31850W        W91353   6.761  40.487  12.868
31851W        W91354   0.479   4.220   0.261
31852W        W91355   9.712  39.932  13.327
31853W        W91356  26.190   6.186  14.792
31854W        W91357   2.264  35.009   2.676
31855W        W91358  26.467  37.858   4.728
31856W        W91359  19.087  22.531  14.469
31857W        W91360  23.104  42.931  14.874
31858W        W91361  25.662  12.217  14.764
31859W        W91362  14.801  21.112   3.355
31860W        W91363  33.589  26.133   1.874
31861W        W91364  17.715  22.734  12.487
31862W        W91365   9.747  26.650  11.864
31863W        W91366  16.805   5.752   3.180
31864W        W91367   4.752  14.305   4.354
31865W        W91368  36.548  31.999  12.358
31866W        W91369   8.296  41.332   1.716
31867W        W91370  36.936  26.666  14.378
31868W        W91371  44.791  22.166  14.465
31869W        W91372  12.712   5.726   0.815
31870W        W91373  38.521  36.437  13.546
31871W        W91374   2.841  44.483   5.651
31872W        W91375  31.461  17.615   3.725
31873W        W91376  15.150   6.201   1.870
31874W        W91377  22.637   5.355   4.164
31875W        W91378  29.539   0.935  11.469
31876W        W91379  17.725  26.481   1.801
31877W        W91380  29.965   0.385  10.947
31878W        W91381  16.679  27.978  14.434
31879W        W91382   3.334   1.872  13.510
31880W        W91383  15.301   1.826  10.908
31881W        W91384  22.099  19.758  10.611
31882W        W91385  31.931  22.098  13.450
31883W        W91386  27.177  23.086  11.101
31884W        W91387  33.535   5.203  10.560
31885W        W91388   6.331   7.202  11.456
31886W        W91389  18.235  40.529   2.700
31887W        W91390   2.342   7.244  11.090
31888W        W91391  37.373  40.018   1.775
31889W        W91392  16.803  33.492  10.435
31890W        W91393  31.143  28.182   5.285
31891W        W91394  32.047  44.393   0.949
31892W        W91395   5.797   5.377  11.528
31893W        W91396  21.570  30.463   4.243
31894W        W91397  20.533  34.050   1.408
31895W        W91398  42.282   5.933  13.951
31896W        W91399   7.213  23.527  14.956
31897W        W91400  32.962   1.825  10.578
31898W        W91401  12.803  40.989   2.285
31899W        W91402  22.611  10.343   1.758
31900W        W91403  29.441  30.062   2.413
31901W        W91404  13.224  18.061   0.742
31902W        W91405  22.192   1.259   2.710
31903W        W91406  36.046  43.794  12.865
31904W        W91407   1.793  18.177   3.858
31905W        W91408  38.495  20.610   2.716
31906W        W91409   2.284  19.558  13.816
31907W        W91410  23.199   7.836  13.538
31908W        W91411  44.376  10.802   0.852
31909W        W91412   2.912  35.443   4.200
31910W        W91413  16.104   3.381   2.708
31911W        W91414  21.228  21.072  11.461
31912W        W91415   9.687  35.368  12.989
31913W        W91416  22.049  16.751  12.087
31914W        W91417  27.469  11.229  10.532
31915W        W91418  14.672  18.690  11.597
31916W        W91419  34.543  19.615  13.386
31917W        W91420  15.694  12.824  13.802
31918W        W91421  14.218  17.165   4.754
31919W        W91422  29.621  28.162  14.790
31920W        W91423   2.353  25.992  11.443
31921W        W91424   6.790   0.973  11.907
31922W        W91425  39.965  10.150  12.069
31923W        W91426  24.985  41.043  13.847
31924W        W91427  10.282   9.846  13.307
31925W        W91428  19.657  20.708  12.416
31926W        W91429   4.760  44.825   2.791
31927W        W91430   5.748  35.103  11.915
31928W        W91431  39.441  24.553  14.459
31929W        W91432   8.216  36.537  13.025
31930W        W91433  31.003  14.592   1.295
31931W        W91434   2.849  13.331  10.562
31932W        W91435  19.194  26.981  14.444
31933W        W91436  19.758   6.770  14.795
31934W        W91437  15.099  43.916   1.910
31935W        W91438  23.137  38.499   3.265
31936W        W91439  18.214  39.976   0.903
31937W        W91440   4.341  24.148  13.938
31938W        W91441  39.336  26.037  14.828
31939W        W91442   7.762  37.953   0.375
31940W        W91443   9.847  21.184  12.906
31941W        W91444  34.003  15.098  14.789
31942W        W91445  11.638   6.704  11.592
31943W        W91446  11.203   5.395   0.892
31944W        W91447  21.097  26.119  11.538
31945W        W91448  42.007  24.625  14.812
31946W        W91449   8.251  35.907  10.507
31947W        W91450  24.618  17.579  13.977
31948W        W91451  42.365  38.908   2.701
31949W        W91452   0.290  30.021  11.410
31950W        W91453  14.102  20.033   1.869
31951W        W91454  18.789  38.063   4.277
31952W        W91455  10.174  19.608  11.914
31953W        W91456  14.679  10.339   1.335
31954W        W91457  39.481  29.081   1.243
31955W        W91458   9.291  14.161  10.018
31956W        W91459  31.446  38.506   0.456
31957W        W91460  35.036  18.245  11.528
31958W        W91461  26.057  11.706   3.845
31959W        W91462  26.203   8.898   4.128
31960W        W91463  28.606  19.705   1.748
31961W        W91464  30.010  11.156  12.861
31962W        W91465  24.532  28.527   4.654
31963W        W91466  20.727  25.701  12.566
31964W        W91467   1.291   3.360   1.282
31965W        W91468  14.169  16.100  12.558
31966W        W91469  30.022  19.700  14.012
31967W        W91470   6.854  10.267   2.397
31968W        W91471   5.210  22.241  11.911
31969W        W91472  18.758   3.433  14.836
31970W        W91473  26.459  11.186  13.009
31971W        W91474  25.156   9.222   1.320
31972W        W91475  32.951  32.511  13.021
31973W        W91476  37.348  41.342  13.945
31974W        W91477  17.146  11.203  12.011
31975W        W91478  37.343  34.383   4.662
31976W        W91479   9.313  20.179  13.948
31977W        W91480  10.847  39.025  10.592
31978W        W91481  29.426  31.027  13.367
31979W        W91482  15.685   4.268   2.281
31980W        W91483  19.042  36.915  13.950
31981W        W91484   1.341  28.563   0.248
31982W        W91485  31.068  42.988   1.811
31983W        W91486  26.030   3.742   2.225
31984W        W91487  18.591  23.547  11.963
31985W        W91488   9.886  25.664   1.795
31986W        W91489  43.452   4.819   1.934
31987W        W91490  19.262   5.368   0.935
31988W        W91491  26.554  40.882   4.835
31989W        W91492  11.160  33.601   3.212
31990W        W91493   1.821  38.363   4.286
31991W        W91494   7.753  44.378  10.024
31992W        W91495  26.990  16.771  14.806
31993W        W91496  14.141  14.770  13.799
31994W        W91497  21.146  41.806  14.508
31995W        W91498  36.586  18.695  13.795
31996W        W91499   8.758  34.434  11.043
31997W        W91500  17.737   4.359   0.271
31998W        W91501  30.545  23.058  10.591
31999W        W91502  23.077  35.992   1.888
32000W        W91503  29.531  32.070  11.025
32001W        W91504  13.128   7.317  12.873
32002W        W91505  14.809   1.293   4.124
32003W        W91506   5.785  14.815   5.260
32004W        W91507  24.150  12.160   1.761
32005W        W91508  34.576  10.749  13.033
32006W        W91509  15.803  26.621   1.402
32007W        W91510   3.375  10.835  13.491
32008W        W91511   9.771  38.982  14.767
32009W        W91512  40.371   6.804  13.878
32010W        W91513   4.720  31.027   0.897
32011W        W91514  17.094  27.964  10.982
32012W        W91515  11.134  37.955   2.768
32013W        W91516   2.885  40.043   4.657
32014W        W91517  43.916  10.831   3.753
32015W        W91518  28.638  26.599  13.835
32016W        W91519  35.989  18.701  14.851
32017W        W91520  19.039   6.769  12.581
32018W        W91521  15.759   5.279  12.832
32019W        W91522  14.609   7.402  10.431
32020W        W91523  36.383  13.794   4.294
32021W        W91524  16.567  30.919  12.899
32022W        W91525  33.130  40.516  12.489
32023W        W91526  31.607  20.096   4.253
32024W        W91527   5.409   5.384  11.041
32025W        W91528  38.918  42.305   1.727
32026W        W91529  12.180  31.509  13.805
32027W        W91530  43.806  30.551  13.867
32028W        W91531  14.175  36.452   2.786
32029W        W91532   4.343  36.910  14.878
32030W        W91533  41.536  35.858  14.938
32031W        W91534  29.605  17.074  13.332
32032W        W91535  35.374  44.339  11.008
32033W        W91536  20.759  35.027   1.281
32034W        W91537  34.429   7.186   2.873
32035W        W91538  15.182  10.325   3.668
32036W        W91539  21.089  25.199  10.045
32037W        W91540  10.273  44.831  10.086
32038W        W91541  14.119  44.304   4.801
32039W        W91542  25.092  30.571   4.808
32040W        W91543  25.113  41.839   0.745
32041W        W91544  36.924  11.372  14.852
32042W        W91545  32.988  28.094   3.149
32043W        W91546  25.200   4.818   2.203
32044W        W91547  43.496  44.982   1.708
32045W        W91548  39.019  32.425  12.092
32046W        W91549  36.948  17.761  14.910
32047W        W91550  33.608  44.961  13.360
32048W        W91551  21.151  29.491  12.432
32049W        W91552  31.989  10.242   2.739
32050W        W91553  16.645  31.436  10.455
32051W        W91554  10.843  17.242   3.765
32052W        W91555  40.531  17.651   1.426
32053W        W91556  21.533  21.662   4.166
32054W        W91557  23.171  27.995   0.393
32055W        W91558  20.153  31.509   2.245
32056W        W91559  15.719  43.839  12.550
32057W        W91560  40.816  11.242  14.364
32058W        W91561  24.044  26.031   3.303
32059W        W91562  20.751  27.970   2.410
32060W        W91563  29.653   9.329   1.248
32061W        W91564  27.013  13.721   0.748
32062W        W91565  21.578   8.335  11.880
32063W        W91566  19.044  38.543   1.920
32064W        W91567  27.599   5.313   4.187
32065W        W91568  30.434  18.258  11.874
32066W        W91569  34.519  36.372   0.458
32067W        W91570  20.711  19.600   3.743
32068W        W91571  34.556  42.009  13.050
32069W        W91572  24.194  32.499  10.557
32070W        W91573  43.421  12.252   0.900
32071W        W91574  40.479  30.965  12.348
32072W        W91575  30.064  27.180  12.567
32073W        W91576  31.538  28.056  14.471
32074W        W91577   3.390  38.367  11.550
32075W        W91578  21.046  26.952  11.930
32076W        W91579  20.638  28.646  13.516
32077W        W91580  41.978   3.283  10.619
32078W        W91581  32.050  24.623  14.507
32079W        W91582  13.345   3.873  14.337
32080W        W91583   0.344  13.826  13.848
32081W        W91584  18.268   5.382   4.767
32082W        W91585  12.810  44.799  14.806
32083W        W91586   2.428   9.751   2.673
32084W        W91587  23.682  16.577  10.595
32085W        W91588  41.529  19.747   3.273
32086W        W91589  19.243  15.093  12.547
32087W        W91590  37.835  38.340  14.874
32088W        W91591  10.708  22.084  12.021
32089W        W91592  15.649   7.358   4.793
32090W        W91593  30.432  12.319  13.971
32091W        W91594  40.884  36.988  10.973
32092W        W91595  23.544   3.366  10.966
32093W        W91596  27.051  19.718   2.278
32094W        W91597  34.879   4.903   9.927
32095W        W91598  25.979  38.909   3.223
32096W        W91599  11.140  31.544   1.286
32097W        W91600  28.024  11.852  11.427
32098W        W91601   5.398  35.398   2.363
32099W        W91602   3.368  18.594   5.106
32100W        W91603  12.349  34.013   4.184
32101W        W91604  43.810  44.968   3.704
32102W        W91605   6.304  34.558   1.889
32103W        W91606  10.348  25.551   4.311
32104W        W91607  34.953  15.610   1.353
32105W        W91608  44.808  32.453  13.042
32106W        W91609   2.295  42.361   0.372
32107W        W91610  17.690   2.934  12.016
32108W        W91611  37.368  44.423  14.875
32109W        W91612  11.141  17.182   1.852
32110W        W91613  44.498   8.162   2.734
32111W        W91614  11.217  20.205  12.912
32112W        W91615  23.581  23.576   3.810
32113W        W91616  10.169   0.974  11.473
32114W        W91617  17.175  32.913  13.379
32115W        W91618  26.653  23.076  13.356
32116W        W91619  39.843  23.557  11.921
32117W        W91620  10.649  30.914   1.784
32118W        W91621  34.039   4.438   0.801
32119W        W91622  23.602  28.564   1.449
32120W        W91623   9.223  34.427   4.215
32121W        W91624   5.790  42.890   4.294
32122W        W91625  16.618  23.716  11.880
32123W        W91626  23.215  29.472  14.398
32124W        W91627   8.725  29.969  12.950
32125W        W91628  10.824  10.347   3.851
32126W        W91629   1.897   8.319   1.311
32127W        W91630  20.745  23.533   1.711
32128W        W91631  19.724  34.086  14.005
32129W        W91632  12.694   6.416   2.187
32130W        W91633  23.010  29.995  11.605
32131W        W91634  39.525   6.208  14.893
32132W        W91635  42.834  28.642  13.837
32133W        W91636   7.785   0.916  14.892
32134W        W91637  25.691  16.692   4.742
32135W        W91638  28.966  26.597  14.960
32136W        W91639  43.420  26.163   0.809
32137W        W91640  42.322   5.865   4.747
32138W        W91641  12.321  30.568  12.009
32139W        W91642  15.173  41.440  10.549
32140W        W91643  42.374  21.142   4.703
32141W        W91644  28.606  17.761   0.942
32142W        W91645  18.276   6.887  11.856
32143W        W91646  37.525  33.463   3.700
32144W        W91647  33.029  23.543  14.874
32145W        W91648  26.591  20.542  14.805
32146W        W91649   2.855  26.195  12.906
32147W        W91650  30.569  34.518  11.530
32148W        W91651   6.297  39.477  14.965
32149W        W91652  20.623  35.057   4.130
32150W        W91653  23.647  33.609  13.543
32151W        W91654  38.067  32.127  13.415
32152W        W91655  41.885  21.226   2.189
32153W        W91656  15.110  30.483   9.935
32154W        W91657   9.768  44.956   0.463
32155W        W91658   5.727   4.281  12.052
32156W        W91659  32.490  29.087  14.397
32157W        W91660  14.275  28.010   3.340
32158W        W91661  13.640   5.779  14.811
32159W        W91662  22.731   0.910  12.480
32160W        W91663  44.978  23.060  10.616
32161W        W91664   6.356  22.119  13.794
32162W        W91665  39.997  18.704   1.833
32163W        W91666  38.404   2.354  14.322
32164W        W91667  41.350  27.197  13.907
32165W        W91668  31.447  33.446  11.109
32166W        W91669  14.294   9.742  11.942
32167W        W91670  10.350  25.566  12.097
32168W        W91671  43.462  34.000  10.976
32169W        W91672  43.881  11.771  11.957
32170W        W91673  15.144  41.491   2.752
32171W        W91674  19.624  29.997   2.316
32172W        W91675   6.281  32.961  12.901
32173W        W91676  35.570  32.093  12.959
32174W        W91677  38.443  33.895   4.809
32175W        W91678  29.026  43.282   2.744
32176W        W91679  14.662  14.183   2.186
32177W        W91680   9.344   6.689   2.762
32178W        W91681   9.351  11.667  12.373
32179W        W91682  44.881  22.616   4.761
32180W        W91683  25.210  24.112  10.419
32181W        W91684  11.146  33.887  14.829
32182W        W91685  12.170  17.230  14.503
32183W        W91686  23.048  11.208  13.460
32184W        W91687   8.742  19.197   1.225
32185W        W91688  16.801   9.306   2.299
32186W        W91689  18.194  12.305  12.836
32187W        W91690  32.977  20.258   0.414
32188W        W91691  38.902  21.191   3.828
32189W        W91692   3.408  17.171   0.440
32190W        W91693   5.417  29.654   3.318
32191W        W91694  29.921  18.621  14.926
32192W        W91695  20.189  28.031  13.361
32193W        W91696   4.759  35.561   3.238
32194W        W91697   6.302   8.684   9.980
32195W        W91698  10.664  37.864   2.274
32196W        W91699  12.741   8.305  12.953
32197W        W91700  21.553  14.100   2.708
32198W        W91701  41.368  18.167   4.824
32199W        W91702   8.703  44.008  14.765
32200W        W91703  10.828  44.777  14.513
32201W        W91704  13.842  44.422  12.025
32202W        W91705  39.015  34.938   2.841
32203W        W91706  21.754  14.774  10.490
32204W        W91707  23.136  33.095  14.309
32205W        W91708  31.004   4.864  11.061
32206W        W91709  22.573  36.507  12.930
32207W        W91710  21.188  22.249   0.473
32208W        W91711  30.548  44.998   0.284
32209W        W91712   1.401  33.566  13.827
32210W        W91713  31.140  23.553   1.825
32211W        W91714  18.084  41.363   0.933
32212W        W91715  19.734  35.480   2.298
32213W        W91716   9.749  18.284  11.921
32214W        W91717  31.917  31.632  12.957
32215W        W91718  20.602  19.707  10.618
32216W        W91719  29.478  32.029  11.485
32217W        W91720   5.235  27.130  12.846
32218W        W91721  33.915   0.846  12.344
32219W        W91722   3.247  27.067  13.902
32220W        W91723  43.388  27.639  11.007
32221W        W91724  23.494  39.328  11.586
32222W        W91725  24.132  33.024  13.401
32223W        W91726  30.123  28.589   4.735
32224W        W91727   6.694  26.035  12.085
32225W        W91728   6.922  30.480   1.932
32226W        W91729   8.255  11.866  13.366
32227W        W91730   5.693  10.178   0.413
32228W        W91731  39.029  23.163  11.895
32229W        W91732  29.166  42.303  12.066
32230W        W91733  44.833  38.904  14.445
32231W        W91734   8.701  12.726  12.374
32232W        W91735   9.154   1.930   4.710
32233W        W91736   5.277  22.077  14.860
32234W        W91737  20.626   7.796   0.745
32235W        W91738  20.636   7.728  12.848
32236W        W91739  37.527  25.490   1.913
32237W        W91740  19.101  44.833  13.058
32238W        W91741  36.441  21.580  10.505
32239W        W91742  32.892   6.728  14.279
32240W        W91743  39.896  10.781   4.752
32241W        W91744  10.779  12.668  11.963
32242W        W91745   7.902  37.567  14.013
32243W        W91746  38.878  30.547   2.900
32244W        W91747  21.118  42.898  10.611
32245W        W91748  34.896  42.289   3.641
32246W        W91749  12.142  10.823  14.781
32247W        W91750  13.288   3.809   1.298
32248W        W91751  16.638   8.745  13.903
32249W        W91752  35.599  44.369  13.307
32250W        W91753  12.127  30.583  11.522
32251W        W91754  44.365  34.034  14.023
32252W        W91755   7.842  36.850   4.707
32253W        W91756  28.586  21.581   1.272
32254W        W91757  28.593   7.793  14.017
32255W        W91758  10.870  25.660  14.771
32256W        W91759  38.538  27.139   0.471
32257W        W91760  30.518  37.857   5.121
32258W        W91761  20.545  16.691   4.343
32259W        W91762   8.705  31.908   3.761
32260W        W91763  26.139   6.250   3.175
32261W        W91764  25.581  40.051  13.958
32262W        W91765   0.321  17.781  10.964
32263W        W91766  22.038  30.575   4.721
32264W        W91767  13.834  25.689  14.366
32265W        W91768  11.348  15.092  10.526
32266W        W91769  39.013  38.552  14.836
32267W        W91770  37.462  21.239  11.515
32268W        W91771   1.955   7.275  14.420
32269W        W91772  24.021  30.031   2.849
32270W        W91773  10.779  20.086  11.975
32271W        W91774  36.028  20.216   0.350
32272W        W91775   3.239   8.795  11.927
32273W        W91776   9.342  27.089  11.921
32274W        W91777  32.100  16.285   1.335
32275W        W91778  42.369  32.006   2.272
32276W        W91779  32.511  35.104  12.354
32277W        W91780  15.786   1.417   4.707
32278W        W91781  25.019  12.299  14.474
32279W        W91782  41.393  14.685   2.870
32280W        W91783  32.438  10.138  10.138
32281W        W91784   7.274   8.696  12.068
32282W        W91785  42.845   9.833  14.443
32283W        W91786  40.477  18.672  13.324
32284W        W91787  11.846   5.752   4.693
32285W        W91788   3.853  27.551  13.420
32286W        W91789   5.755   7.734   0.461
32287W        W91790  39.999  40.361  12.973
32288W        W91791   4.407  24.167   0.253
32289W        W91792  42.818  34.021  13.822
32290W        W91793   4.387   0.804   1.749
32291W        W91794  39.050  19.210   3.784
32292W        W91795  24.506  39.963  10.959
32293W        W91796   4.937  37.056   4.836
32294W        W91797  21.543  34.377   3.759
32295W        W91798  33.461  33.126  10.590
32296W        W91799  27.532  12.615   9.571
32297W        W91800  34.383  23.593   2.212
32298W        W91801  24.098  27.113   3.851
32299W        W91802  34.606  41.462  14.862
32300W        W91803   3.809   9.391  10.415
32301W        W91804  34.601  31.598   0.429
32302W        W91805  42.969   5.378   3.835
32303W        W91806  25.625  16.570   3.312
32304W        W91807  18.249  14.238  13.043
32305W        W91808  28.085  24.058  14.770
32306W        W91809   8.664  20.162  13.449
32307W        W91810  20.523   9.690   4.161
32308W        W91811  15.761   7.327   1.367
32309W        W91812  30.010   5.783  14.373
32310W        W91813   5.273  19.638  13.460
32311W        W91814   2.267  15.289  14.793
32312W        W91815  22.033  20.151  10.432
32313W        W91816  13.136  17.620  13.999
32314W        W91817  22.535  12.256   1.909
32315W        W91818  17.728  17.612  13.510
32316W        W91819  26.460  29.464  11.556
32317W        W91820   6.271   6.377   0.837
32318W        W91821  25.180  25.474   1.434
32319W        W91822  30.423   5.908   4.309
32320W        W91823  32.452   3.744  12.393
32321W        W91824   0.850   2.327  13.891
32322W        W91825  19.602   2.233  12.933
32323W        W91826  21.707   5.687  14.281
32324W        W91827  37.000  41.406  12.924
32325W        W91828  32.431  40.359   3.676
32326W        W91829  14.174   3.321   4.354
32327W        W91830  20.684  19.735   3.305
32328W        W91831   1.904   0.863   4.166
32329W        W91832  43.453  42.912   4.648
32330W        W91833  10.208  21.663  12.499
32331W        W91834  21.685  10.356  14.364
32332W        W91835   3.723  33.558   9.955
32333W        W91836  19.740  17.604   4.190
32334W        W91837  13.328   5.712  10.150
32335W        W91838  13.736  26.643   4.187
32336W        W91839  36.358  20.563  10.560
32337W        W91840  29.497   1.359  13.839
32338W        W91841  31.135  41.298  12.096
32339W        W91842  39.437  24.655  11.385
32340W        W91843  32.402  28.673   2.190
32341W        W91844  32.581   9.707  13.829
32342W        W91845  39.940  13.656  14.931
32343W        W91846   5.887  33.597   4.277
32344W        W91847  15.289  39.376   3.213
32345W        W91848  28.154  19.691  11.544
32346W        W91849  33.465  21.721   0.286
32347W        W91850   0.334  29.547  14.987
32348W        W91851   9.160  43.910   4.810
32349W        W91852  33.509  15.692   4.690
32350W        W91853  28.047   6.729   1.809
32351W        W91854  24.995   0.938   2.375
32352W        W91855  29.149   0.903  13.535
32353W        W91856  21.119  16.222   1.339
32354W        W91857  11.255  26.487   1.448
32355W        W91858   5.361  42.894  10.632
32356W        W91859  33.387  43.921  13.954
32357W        W91860  29.661   4.761   1.754
32358W        W91861  18.249  43.383   4.704
32359W        W91862  33.920  37.919  13.887
32360W        W91863  42.321  22.062   1.246
32361W        W91864   9.261  28.673  12.025
32362W        W91865   4.323  10.141   3.830
32363W        W91866  11.246  16.806  14.413
32364W        W91867  27.594  24.191   0.441
32365W        W91868  36.999   8.682  11.032
32366W        W91869  16.206  30.642   1.838
32367W        W91870  10.352  29.462   0.367
32368W        W91871   2.242  18.153  14.849
32369W        W91872  19.777  10.284  12.544
32370W        W91873  15.621  32.450  12.563
32371W        W91874  16.269  26.967   2.187
32372W        W91875   6.730  37.468   2.807
32373W        W91876  13.111  22.158  11.072
32374W        W91877  13.685   8.706   2.880
32375W        W91878  13.741   4.274  10.889
32376W        W91879   5.335  37.872  11.032
32377W        W91880  25.063  11.660  12.527
32378W        W91881  15.653  31.078   4.837
32379W        W91882  26.481  42.794  13.420
32380W        W91883  14.747   1.281   4.722
32381W        W91884  17.690  24.513  11.092
32382W        W91885  15.592  42.376   1.869
32383W        W91886  34.888   4.713   3.848
32384W        W91887   8.269  17.154  13.886
32385W        W91888  12.621  35.599   3.817
32386W        W91889  41.333  37.526  14.955
32387W        W91890  12.355   5.884  12.941
32388W        W91891  12.224   3.398  14.777
32389W        W91892  34.966  36.073  11.066
32390W        W91893  35.902  37.545   2.687
32391W        W91894  39.344  33.466  12.828
32392W        W91895  23.677  29.491  10.475
32393W        W91896  24.492  36.384  12.060
32394W        W91897  39.928  34.578  13.937
32395W        W91898  36.381  29.147   3.289
32396W        W91899   6.776  25.110  14.943
32397W        W91900  32.530  41.346  13.358
32398W        W91901  27.150  14.600  13.876
32399W        W91902  20.661   4.406  11.440
32400W        W91903  11.641  38.335  13.525
32401W        W91904  35.927  26.082   2.768
32402W        W91905  15.630  17.276   1.375
32403W        W91906   1.966   5.194  14.462
32404W        W91907  43.792  41.354  14.292
32405W        W91908  41.328   1.248   3.196
32406W        W91909   0.314  29.625  14.408
32407W        W91910  41.954   1.283  12.382
32408W        W91911  23.691  14.277  11.907
32409W        W91912  44.927   1.372   1.314
32410W        W91913   8.348  20.710   2.812
32411W        W91914  15.174   8.291  11.604
32412W        W91915  39.935  42.823  13.987
32413W        W91916  27.138  24.991  14.932
32414W        W91917  17.155  44.504  13.422
32415W        W91918  13.657  44.774   2.261
32416W        W91919  20.183  27.659  10.519
32417W        W91920  22.580  28.154  10.423
32418W        W91921  38.331  26.686  13.011
32419W        W91922  25.137  10.727   4.298
32420W        W91923  16.216  29.084  11.057
32421W        W91924  35.050  30.585   2.291
32422W        W91925   3.452  23.223  10.615
32423W        W91926  11.782  32.508  10.969
32424W        W91927  13.134  24.202   2.849
32425W        W91928  26.496  21.593   2.737
32426W        W91929   3.272   7.272   1.791
32427W        W91930  36.472  21.050  12.968
32428W        W91931   3.398  23.062  14.334
32429W        W91932  34.474  10.685   3.801
32430W        W91933  25.069  36.005   1.319
32431W        W91934  33.951  24.036  14.322
32432W        W91935  38.398  24.485   3.328
32433W        W91936   6.912  18.252  12.550
32434W        W91937  34.561  34.063   1.331
32435W        W91938  31.467  39.449   3.808
32436W        W91939  22.585  38.984  14.371
32437W        W91940   5.353  13.657   1.376
32438W        W91941  32.980  36.527  12.856
32439W        W91942  22.060  27.070  11.393
32440W        W91943  19.730  26.584  14.381
32441W        W91944  32.077  20.563  14.808
32442W        W91945  14.663  24.067  14.004
32443W        W91946  36.511   4.239  13.539
32444W        W91947   5.322  42.824   9.672
32445W        W91948  30.583  34.879   0.434
32446W        W91949   2.294  33.021  10.447
32447W        W91950  26.130  34.582  12.071
32448W        W91951  23.090  33.058   4.794
32449W        W91952  26.681  41.010  11.463
32450W        W91953  21.203  19.575   1.371
32451W        W91954   3.236  37.995  11.514
32452W        W91955   5.436  36.461  10.616
32453W        W91956   5.814   3.812  14.917
32454W        W91957  11.622  28.461   3.309
32455W        W91958  37.901  25.188  12.862
32456W        W91959   5.353  41.387  14.471
32457W        W91960  41.322  30.161  10.462
32458W        W91961  24.076  30.113  14.281
32459W        W91962  19.638  30.609   3.146
32460W        W91963   5.381  22.204   0.913
32461W        W91964   0.757  29.014   4.636
32462W        W91965   6.714  28.460   2.327
32463W        W91966   1.842   7.179   3.744
32464W        W91967  15.649  26.521   2.836
32465W        W91968   4.719  21.074   0.830
32466W        W91969  34.458  36.429   1.771
32467W        W91970  20.127   3.395   0.929
32468W        W91971  33.888   7.900   3.657
32469W        W91972  24.521   2.461   0.292
32470W        W91973  34.552  16.732   0.918
32471W        W91974  25.023  23.069   3.324
32472W        W91975  28.554  25.618   3.177
32473W        W91976   0.398   7.372   2.870
32474W        W91977   9.710  11.244   1.408
32475W        W91978  18.695  12.347  14.501
32476W        W91979  41.952  19.702   3.739
32477W        W91980  28.654  34.575   0.474
32478W        W91981   7.175  32.593   2.736
32479W        W91982   0.493  21.751   2.292
32480W        W91983  22.573  35.950   3.632
32481W        W91984  40.969  21.069  11.584
32482W        W91985  28.604   1.366   4.230
32483W        W91986  17.698  14.166  14.326
32484W        W91987  32.887  42.783   3.848
32485W        W91988   4.801   2.335   3.273
32486W        W91989  38.386  14.149   4.351
32487W        W91990  39.322  20.212   2.349
32488W        W91991  14.302  24.631  13.968
32489W        W91992  17.258  32.495   0.465
32490W        W91993   6.277  32.030  14.001
32491W        W91994   5.919  25.594  14.298
32492W        W91995  33.470  35.580   4.255
32493W        W91996  38.956  34.875   0.760
32494W        W91997  36.528  29.080   0.817
32495W        W91998  33.031  26.471   4.247
32496W        W91999  22.534  32.064   0.378
32497W        W92000  15.792  10.138  11.074
32498W        W92001  35.009   9.815  14.287
32499W        W92002  31.027  34.465   3.695
32500W        W92003  26.969  43.438   4.159
32501W        W92004   9.355  36.073   2.721
32502W        W92005  27.588  28.598  14.299
32503W        W92006  11.346   0.367  12.481
32504W        W92007  44.932   1.799   0.833
32505W        W92008  39.039  27.690  13.459
32506W        W92009  36.503  31.991  10.431
32507W        W92010   9.815  22.199   1.432
32508W        W92011  22.644  23.503  11.937
32509W        W92012   4.411  23.689   4.738
32510W        W92013  33.989  30.504  12.517
32511W        W92014  20.101  12.818   0.775
32512W        W92015  13.802  16.090   3.185
32513W        W92016  23.187  23.496  14.909
32514W        W92017  13.249  43.496  14.932
32515W        W92018  27.953   5.196  14.981
32516W        W92019  10.349  24.980   0.462
32517W        W92020  31.477  28.179  12.945
32518W        W92021   6.349  27.573  10.469
32519W        W92022  35.492  25.484  12.949
32520W        W92023   2.851   8.183  14.019
32521W        W92024   6.237  37.911   1.755
32522W        W92025  33.556  42.937   1.837
32523W        W92026  25.597  21.567  12.036
32524W        W92027  18.073  32.455   0.743
32525W        W92028  34.538   5.240  13.026
32526W        W92029   2.359  31.520   4.159
32527W        W92030  26.136  15.094   0.733
32528W        W92031  15.697  34.909  14.005
32529W        W92032  40.015  35.527   1.237
32530W        W92033  21.672   8.869   0.281
32531W        W92034  22.597  18.144   0.330
32532W        W92035  10.326  40.369  12.031
32533W        W92036   3.765   0.376   1.699
32534W        W92037   5.911  20.213  12.404
32535W        W92038  30.986   4.814  10.406
32536W        W92039   0.758   4.371   3.745
32537W        W92040   7.819  41.977   3.672
32538W        W92041  26.981  29.427  14.866
32539W        W92042  24.531  42.417   5.172
32540W        W92043  27.647  41.489   2.327
32541W        W92044  35.422  14.685  11.446
32542W        W92045   1.793  26.502   3.831
32543W        W92046   7.820  25.172  10.051
32544W        W92047   8.823  29.452   3.784
32545W        W92048  30.572  32.477  11.523
32546W        W92049  30.961  25.173   9.467
32547W        W92050  40.915   2.268   3.819
32548W        W92051  19.686  33.473   2.849
32549W        W92052  11.232   0.966  11.534
32550W        W92053  27.624  11.135   3.170
32551W        W92054  13.238  11.795   2.237
32552W        W92055   8.844  43.921  13.445
32553W        W92056  10.277  38.376   1.903
32554W        W92057  32.403  44.395   4.608
32555W        W92058   3.402  40.918   3.228
32556W        W92059   9.675  38.879  11.518
32557W        W92060  18.096  23.011   4.806
32558W        W92061  36.527  34.940   0.959
32559W        W92062  10.726  16.191   3.193
32560W        W92063  26.064   4.756   1.815
32561W        W92064  17.750   5.860  10.914
32562W        W92065   9.786  21.685  11.566
32563W        W92066   0.748  34.437   1.308
32564W        W92067  26.964  40.496   1.875
32565W        W92068   7.898  40.500   4.795
32566W        W92069  11.272  28.180   3.323
32567W        W92070   8.328  42.780  10.944
32568W        W92071  34.399  17.596  10.928
32569W        W92072   8.754  19.101   3.354
32570W        W92073  43.319  43.931  14.418
32571W        W92074  43.351  42.871   4.184
32572W        W92075   2.409   8.314   3.687
32573W        W92076  26.021  15.810  14.849
32574W        W92077  28.018   7.854  12.990
32575W        W92078   4.425  14.127   4.621
32576W        W92079  23.187  18.052   4.646
32577W        W92080   3.426   0.960  10.455
32578W        W92081  18.198  30.074   4.664
32579W        W92082  38.400  25.668  10.963
32580W        W92083  28.025  37.550   3.189
32581W        W92084   9.304  30.446  10.928
32582W        W92085  17.798  28.451   4.599
32583W        W92086   0.452  43.327   3.674
32584W        W92087  43.944  40.372  14.870
32585W        W92088  19.630  15.187   0.747
32586W        W92089   2.408  41.366   1.272
32587W        W92090  26.622  22.031  13.062
32588W        W92091  18.693  39.820  12.013
32589W        W92092  29.485  21.099   5.101
32590W        W92093  39.439  29.117   4.123
32591W        W92094  22.657  34.584   0.962
32592W        W92095  44.853  41.027  12.834
32593W        W92096  10.815  34.927  13.022
32594W        W92097   1.276  24.119  11.603
32595W        W92098  33.885  17.268  13.913
32596W        W92099  26.552  37.429  12.450
32597W        W92100  16.804  24.171  11.104
32598W        W92101   9.293  25.097   0.290
32599W        W92102  33.468  13.708  14.875
32600W        W92103  43.848  13.176  11.046
32601W        W92104  21.636  20.741  13.817
32602W        W92105  17.295  28.444   3.670
32603W        W92106  23.037  16.126  12.482
32604W        W92107  32.099   5.874  14.450
32605W        W92108  18.651   5.386  14.377
32606W        W92109  18.776   0.384   0.740
32607W        W92110  11.170  20.617   0.947
32608W        W92111  27.976  25.484   0.275
32609W        W92112  22.199  11.356  11.565
32610W        W92113  40.975  33.030   0.384
32611W        W92114  15.218  22.046   1.297
32612W        W92115  25.684  38.994   4.184
32613W        W92116  23.708  14.156   2.196
32614W        W92117  38.076  30.032  14.941
32615W        W92118  30.064  23.114  10.927
32616W        W92119  33.986  13.299  14.278
32617W        W92120  39.494  31.009  13.973
32618W        W92121  19.133  35.515   1.853
32619W        W92122  36.519  27.510   2.861
32620W        W92123  19.094  11.842  14.400
32621W        W92124  43.331  21.072  11.384
32622W        W92125   2.776  16.148  11.934
32623W        W92126  37.987  15.713   3.717
32624W        W92127  12.299   2.809   2.752
32625W        W92128   2.317  29.553   0.255
32626W        W92129  28.601  20.732   3.861
32627W        W92130   6.227   7.673  11.458
32628W        W92131  25.154  41.433  14.787
32629W        W92132  38.069  25.005  13.993
32630W        W92133  19.769  42.385  12.902
32631W        W92134  15.155  26.195  12.006
32632W        W92135  35.926  25.068  13.372
32633W        W92136  25.107   0.918   0.923
32634W        W92137  30.111   5.285   4.203
32635W        W92138   6.765   5.349   4.696
32636W        W92139   1.775   5.896   1.871
32637W        W92140  25.478  29.033   3.270
32638W        W92141  41.850  26.166   1.894
32639W        W92142  29.611  24.638   4.813
32640W        W92143  10.743  15.678  11.490
32641W        W92144  14.106  25.663   0.441
32642W        W92145  41.022  16.657  12.495
32643W        W92146  24.172  36.537   3.797
32644W        W92147  29.512  12.773   4.824
32645W        W92148   2.844  18.291  14.938
32646W        W92149   3.451   2.793   3.172
32647W        W92150  43.851  21.755  13.314
32648W        W92151  34.455  35.363   2.779
32649W        W92152  38.511  32.068  13.480
32650W        W92153  29.979   2.469  11.871
32651W        W92154  41.328   1.440  13.902
32652W        W92155   3.845  41.299  14.330
32653W        W92156  35.474   4.422   1.862
32654W        W92157  34.029  10.246   2.810
32655W        W92158  19.698  30.159   0.278
32656W        W92159  34.931  16.753   0.385
32657W        W92160  35.429   3.952  12.852
32658W        W92161  18.614  20.617   4.183
32659W        W92162  17.717  24.076   1.314
32660W        W92163  30.545  30.009   4.644
32661W        W92164  16.597  26.553  14.503
32662W        W92165  18.134  13.667   2.366
32663W        W92166  33.523  44.815  10.437
32664W        W92167   2.929  34.923  12.907
32665W        W92168  19.742   1.245  13.384
32666W        W92169  22.581  40.306   5.206
32667W        W92170  35.050   1.871   9.931
32668W        W92171  37.023  20.168  13.028
32669W        W92172  34.111  16.300  10.605
32670W        W92173  15.140  35.515   2.827
32671W        W92174  26.974  34.071   3.853
32672W        W92175   0.398  23.674  10.526
32673W        W92176  18.741  28.584   4.664
32674W        W92177   9.385  40.353   1.325
32675W        W92178   6.184  18.712   1.391
32676W        W92179  36.059  40.912  11.951
32677W        W92180  12.190  42.314   1.892
32678W        W92181  37.491   9.149  12.973
32679W        W92182  25.017  16.250   1.768
32680W        W92183   7.408  10.822   4.270
32681W        W92184  30.143  21.741  13.440
32682W        W92185  29.650  15.673   3.698
32683W        W92186  16.229  29.485  12.435
32684W        W92187  42.967   0.760   5.086
32685W        W92188   5.327  27.056   4.173
32686W        W92189  35.505   4.353  10.977
32687W        W92190  31.520  24.014   1.336
32688W        W92191   1.947   5.852  12.880
32689W        W92192  14.098   1.813   3.795
32690W        W92193  23.990  29.571  14.804
32691W        W92194  13.811  21.556  12.344
32692W        W92195  14.711  37.489  14.017
32693W        W92196  10.751   5.321   3.168
32694W        W92197  42.839  33.927   1.762
32695W        W92198  40.503  19.196   2.764
32696W        W92199   0.328   4.375   1.919
32697W        W92200  31.972  36.079   2.297
32698W        W92201  35.073  28.465   2.361
32699W        W92202  11.865   8.750   0.248
32700W        W92203   4.354  44.963  12.465
32701W        W92204  28.547  19.225  12.895
32702W        W92205  18.187  31.527  13.380
32703W        W92206  29.088   0.330   4.598
32704W        W92207  35.516  14.752  14.982
32705W        W92208  22.167  43.804   3.349
32706W        W92209   7.774  15.639   2.250
32707W        W92210  25.174  40.820  14.293
32708W        W92211  24.607   4.293  10.492
32709W        W92212   4.934  23.003  11.919
32710W        W92213  36.908   4.752  13.815
32711W        W92214   9.339  12.682  10.552
32712W        W92215  13.769  42.842  10.557
32713W        W92216  44.271   6.735   4.810
32714W        W92217  12.247   9.266  12.491
32715W        W92218  42.479  11.222  10.912
32716W        W92219  27.505  38.409  10.038
32717W        W92220  42.777  21.232  11.057
32718W        W92221  43.920  43.009   1.387
32719W        W92222  33.395   8.215  11.869
32720W        W92223   1.481  18.742  13.964
32721W        W92224  40.949  43.464   4.780
32722W        W92225  42.287   8.658   2.774
32723W        W92226   8.262  39.813  13.483
32724W        W92227  34.462  30.955   4.183
32725W        W92228  39.405  17.177  14.281
32726W        W92229  12.760  18.715   3.224
32727W        W92230  27.147  22.550  14.821
32728W        W92231   1.313  24.109  14.913
32729W        W92232  14.183  36.347   1.294
32730W        W92233  12.169  38.974  13.514
32731W        W92234  28.605  33.519  10.547
32732W        W92235   4.775  28.115   0.862
32733W        W92236  40.362  29.541  12.031
32734W        W92237   0.764  15.758   3.203
32735W        W92238  30.039  32.526  10.439
32736W        W92239  31.592  14.749   4.737
32737W        W92240  29.552  30.513  14.842
32738W        W92241   6.828  43.342  13.390
32739W        W92242  22.563  33.976   1.751
32740W        W92243  33.074   7.415   0.282
32741W        W92244  44.945  10.148   0.419
32742W        W92245  30.633  11.780   1.235
32743W        W92246  21.604  30.954   2.306
32744W        W92247  30.059  33.888  14.765
32745W        W92248   6.359  27.975  13.447
32746W        W92249  27.464  38.490   4.658
32747W        W92250  10.191  12.213   3.758
32748W        W92251   0.852   0.834  14.327
32749W        W92252  18.582  17.223  12.461
32750W        W92253   9.192  16.198  14.442
32751W        W92254  23.182   9.684   4.271
32752W        W92255   7.783  24.014  13.484
32753W        W92256  42.010   2.470  13.868
32754W        W92257  31.416  11.696  11.057
32755W        W92258  38.982  37.580  11.490
32756W        W92259  30.132  24.715   3.212
32757W        W92260  36.361  32.463   2.315
32758W        W92261  31.594  40.402  12.410
32759W        W92262  36.880  22.056   1.322
32760W        W92263  25.007  22.131   0.255
32761W        W92264   4.448   9.823  13.435
32762W        W92265  14.177  23.205   3.798
32763W        W92266  25.079  29.924   1.756
32764W        W92267  40.368  31.598   2.256
32765W        W92268  32.617  20.239   1.269
32766W        W92269  13.180  43.433  14.275
32767W        W92270  18.734  43.803   4.787
32768W        W92271  17.094  41.824  12.439
32769W        W92272  14.654  31.430   2.746
32770W        W92273  41.014  13.174   0.330
32771W        W92274  11.802  12.766  11.937
32772W        W92275  31.076  35.369   0.941
32773W        W92276  12.295  44.313   0.911
32774W        W92277  44.421  34.382  14.765
32775W        W92278  32.505  42.369   4.765
32776W        W92279  13.234  15.656   4.204
32777W        W92280  22.183  19.176  10.509
32778W        W92281   1.864   7.337  11.904
32779W        W92282  28.500  35.871   0.816
32780W        W92283  44.939  21.156   5.123
32781W        W92284  11.846   0.975   1.913
32782W        W92285  22.566   5.750   2.707
32783W        W92286   9.265  26.522  12.478
32784W        W92287  20.034   7.711  10.986
32785W        W92288  36.877  39.046   4.332
32786W        W92289  41.504  12.857   1.930
32787W        W92290  38.366  14.306  11.885
32788W        W92291  21.121  20.251  11.596
32789W        W92292  25.077  21.750   4.232
32790W        W92293  13.198  19.683   4.211
32791W        W92294  44.318  32.098  10.120
32792W        W92295  10.279   4.783   2.855
32793W        W92296  26.104  28.131   2.393
32794W        W92297  18.128  20.650  12.375
32795W        W92298  25.981  23.234  13.794
32796W        W92299  16.149  17.173   4.834
32797W        W92300   6.398   6.754   0.941
32798W        W92301  35.538  20.575   2.377
32799W        W92302  40.364  21.047   2.340
32800W        W92303   1.734  36.525  11.883
32801W        W92304   5.805  30.949   3.770
32802W        W92305  22.049  17.142  10.557
32803W        W92306  36.579  28.018  13.948
32804W        W92307  19.680  11.222  11.406
32805W        W92308  42.850  42.423   4.291
32806W        W92309  17.268  33.609  10.591
32807W        W92310   1.737  17.172  11.496
32808W        W92311  29.471  43.792  13.807
32809W        W92312   8.301  13.178  12.410
32810W        W92313  29.042  17.655   1.426
32811W        W92314  22.088  16.094   2.745
32812W        W92315  36.937  12.656  14.360
32813W        W92316  10.370  20.601  14.798
32814W        W92317  18.559  24.528  13.035
32815W        W92318  10.773  17.634   3.380
32816W        W92319  13.312   6.884  14.800
32817W        W92320  38.011  32.575  10.465
32818W        W92321  38.978  27.082   3.293
32819W        W92322  16.139  44.848   1.390
32820W        W92323  21.692  18.162  11.046
32821W        W92324   3.858   4.281  10.575
32822W        W92325  10.345  18.641  11.381
32823W        W92326  25.994  12.126   0.798
32824W        W92327  44.445  13.790  14.318
32825W        W92328  31.453  17.727   1.370
32826W        W92329  44.944  41.447   2.369
32827W        W92330  13.802  16.152   0.306
32828W        W92331   7.895   2.362  11.433
32829W        W92332  13.789  14.313  13.500
32830W        W92333  37.425  36.981   2.891
32831W        W92334  40.023   0.418   4.143
32832W        W92335  41.364  21.101   2.215
32833W        W92336  22.652   5.917   3.717
32834W        W92337   3.807  24.086  14.919
32835W        W92338  41.537  18.163  12.575
32836W        W92339  26.570   6.892  12.053
32837W        W92340  43.384  23.158   2.758
32838W        W92341   5.818  23.530   2.305
32839W        W92342  15.627   6.854   4.835
32840W        W92343  36.911  32.942  11.405
32841W        W92344  30.931   3.888   0.806
32842W        W92345  12.747  42.420  14.968
32843W        W92346  19.172   8.722   0.873
32844W        W92347  27.187   9.701   2.703
32845W        W92348  26.170  26.026   1.346
32846W        W92349  12.228  40.932  11.999
32847W        W92350   7.790  44.460   5.101
32848W        W92351  16.213  43.294  13.835
32849W        W92352   3.912  27.537   9.958
32850W        W92353  29.080  25.120  14.993
32851W        W92354  11.643  19.168   4.279
32852W        W92355  13.807   6.248  14.779
32853W        W92356  14.806  35.558   4.808
32854W        W92357  20.186   0.416  13.366
32855W        W92358  35.370  28.624   1.736
32856W        W92359  36.366  17.591  13.060
32857W        W92360  27.566   4.383  12.941
32858W        W92361  37.513  28.155  11.990
32859W        W92362   0.858   8.867   5.220
32860W        W92363  11.213  19.119  12.028
32861W        W92364  42.973  11.184  12.894
32862W        W92365  40.945  30.029  11.871
32863W        W92366   3.330  16.724   2.249
32864W        W92367  29.500   0.384   3.798
32865W        W92368  15.183  25.997  14.444
32866W        W92369  28.475  21.640  11.106
32867W        W92370  38.387   8.875   4.139
32868W        W92371  34.864  30.473   0.371
32869W        W92372   9.299   6.731   3.850
32870W        W92373  23.684  32.080   3.673
32871W        W92374  26.956  20.048  13.838
32872W        W92375  30.026  24.032   0.744
32873W        W92376  35.903  26.499   4.235
32874W        W92377  18.121  40.963  13.449
32875W        W92378  17.766  35.492   0.432
32876W        W92379  15.183  29.551  13.438
32877W        W92380  38.395  26.180  13.868
32878W        W92381   8.794  29.093  10.087
32879W        W92382  28.661  41.019  11.439
32880W        W92383  25.115  12.213   1.373
32881W        W92384  27.122  13.314  10.545
32882W        W92385  26.585  43.878   3.757
32883W        W92386  25.007   7.906   0.468
32884W        W92387   3.282  33.874   1.373
32885W        W92388  42.976  35.378   2.839
32886W        W92389  10.637  27.552   3.663
32887W        W92390   6.255   4.396   4.239
32888W        W92391   0.463   1.314   1.329
32889W        W92392  43.855  27.515   3.318
32890W        W92393  17.564  37.355   4.675
32891W        W92394   7.245  22.125  13.393
32892W        W92395   1.356  19.762  12.427
32893W        W92396  41.496   6.685   0.954
32894W        W92397   8.345  10.653  14.863
32895W        W92398  30.558  23.215   0.901
32896W        W92399  21.228  44.888  12.535
32897W        W92400  27.603   5.197  12.353
32898W        W92401   6.212   2.316  13.925
32899W        W92402  27.528  27.964  14.915
32900W        W92403  39.527  21.039   3.843
32901W        W92404  24.554  19.268   1.405
32902W        W92405  28.580  23.581   1.299
32903W        W92406  25.142   0.919  11.972
32904W        W92407  12.188   1.256   3.201
32905W        W92408  27.603  15.621  10.467
32906W        W92409  41.514  35.002  10.993
32907W        W92410  14.774   5.422   2.770
32908W        W92411  31.064  15.173  12.355
32909W        W92412  10.333  32.418   9.621
32910W        W92413  10.804  12.317   2.331
32911W        W92414  13.122  43.020  12.957
32912W        W92415  18.203  26.545  12.063
32913W        W92416  16.590  11.216   1.338
32914W        W92417  41.867  31.489  13.346
32915W        W92418  38.543  29.640   2.189
32916W        W92419  23.086  31.600   3.813
32917W        W92420  12.672  42.024   1.301
32918W        W92421  31.096   3.402   2.865
32919W        W92422   6.801  10.234   2.896
32920W        W92423  42.435  22.061  14.330
32921W        W92424  16.142  27.479   1.445
32922W        W92425  31.018  34.118   2.284
32923W        W92426  21.517  37.454  12.560
32924W        W92427  34.407  43.005   4.643
32925W        W92428  44.755  42.819   1.355
32926W        W92429  14.786   3.216  11.524
32927W        W92430   6.308   1.344   3.328
32928W        W92431  24.047  15.623  14.469
32929W        W92432  43.326  37.453  12.866
32930W        W92433  27.091  18.109  12.430
32931W        W92434  18.608  18.287   1.747
32932W        W92435  42.480  20.082   1.840
32933W        W92436  40.366  10.718   4.792
32934W        W92437  14.112  43.313   0.480
32935W        W92438  23.033  29.929   2.800
32936W        W92439   7.893   0.906   3.377
32937W        W92440  37.538  36.071  10.476
32938W        W92441  40.878  11.370   1.327
32939W        W92442   5.813  16.191  12.997
32940W        W92443  38.408   0.361  11.889
32941W        W92444  29.101  26.464  13.875
32942W        W92445   3.880   9.254   4.314
32943W        W92446  32.024   5.926   0.808
32944W        W92447  17.166  30.000  13.923
32945W        W92448  16.805  16.572   0.889
32946W        W92449  16.659  40.360  12.083
32947W        W92450  43.363  29.431  12.497
32948W        W92451  35.990  11.734   4.234
32949W        W92452  40.400  42.907  10.492
32950W        W92453   7.679   9.717  14.948
32951W        W92454  11.676  19.680   5.147
32952W        W92455   0.356  36.015  13.817
32953W        W92456   1.964  15.750   1.836
32954W        W92457  12.358  18.754   2.399
32955W        W92458  22.140  13.207  12.937
32956W        W92459  43.420   6.377   4.167
32957W        W92460  41.797  33.098   2.747
32958W        W92461   3.251  23.166   1.854
32959W        W92462   9.234   5.779  14.358
32960W        W92463  18.681  20.741   0.805
32961W        W92464  24.223   9.276   0.402
32962W        W92465  34.014  18.754   2.384
32963W        W92466  33.041  30.087   2.415
32964W        W92467  26.556  38.441  10.512
32965W        W92468  19.725  35.581  10.911
32966W        W92469  39.470  21.744  13.922
32967W        W92470  23.225  36.421  12.519
32968W        W92471   6.230  33.047  14.886
32969W        W92472   9.702  22.199   1.911
32970W        W92473  31.035  36.554   1.891
32971W        W92474  36.913  11.629   1.254
32972W        W92475  32.075  44.499  11.387
32973W        W92476  20.257  36.420   4.209
32974W        W92477  24.981  29.062  11.031
32975W        W92478  19.578  25.113   3.768
32976W        W92479  21.634  33.108   0.813
32977W        W92480  15.108  41.521  13.959
32978W        W92481  17.678  20.092  13.960
32979W        W92482  22.513  17.731  12.992
32980W        W92483  20.149  34.398  12.914
32981W        W92484  31.484  14.721   5.568
32982W        W92485  10.257  34.018  13.901
32983W        W92486  37.946  40.371  11.569
32984W        W92487   6.793  44.438  14.429
32985W        W92488   0.825  11.633  13.447
32986W        W92489  23.704  11.772  10.475
32987W        W92490  10.156  22.065   1.229
32988W        W92491  27.549   1.977  11.507
32989W        W92492  29.637   8.361   2.710
32990W        W92493   5.776  12.213  10.498
32991W        W92494  40.398  20.741  11.609
32992W        W92495  25.578  28.568   3.724
32993W        W92496  22.710  24.115   1.356
32994W        W92497   9.206  42.325   3.650
32995W        W92498  18.076  42.291   1.805
32996W        W92499  14.601   3.270   2.836
32997W        W92500   9.360   6.350   0.429
32998W        W92501   5.790  43.433  11.960
32999W        W92502  32.949   3.381  11.873
33000W        W92503   5.767  33.938  12.521
33001W        W92504   3.737  20.190  13.538
33002W        W92505   0.450  30.446   3.341
33003W        W92506  40.857   7.270  13.896
33004W        W92507  36.391  25.593  12.946
33005W        W92508  20.588  17.230   3.691
33006W        W92509  26.958  27.682  12.379
33007W        W92510  29.090  22.513   4.231
33008W        W92511   7.258  21.053  11.419
33009W        W92512  11.693  24.152  14.796
33010W        W92513  33.503  44.414   2.891
33011W        W92514   9.878   5.225  10.571
33012W        W92515  26.559   1.884   2.262
33013W        W92516  11.270  43.824  11.438
33014W        W92517   2.244  11.754   5.275
33015W        W92518  17.294  34.890  11.557
33016W        W92519  23.571  16.667   0.870
33017W        W92520  34.426  32.010  12.551
33018W        W92521  28.156  30.081   1.730
33019W        W92522   8.785  39.438  14.308
33020W        W92523   2.845  32.107   4.245
33021W        W92524  25.682  29.448   2.207
33022W        W92525  42.901  24.141   4.157
33023W        W92526  30.000  14.616  13.862
33024W        W92527   8.224  10.225   3.654
33025W        W92528  16.803  33.108  11.444
33026W        W92529  19.754  44.483   1.859
33027W        W92530   7.748  32.988   3.663
33028W        W92531   4.796  17.702  12.963
33029W        W92532  27.031   6.306  10.934
33030W        W92533  20.236  32.407  10.555
33031W        W92534  30.954   2.273  13.504
33032W        W92535   0.260  42.929  11.381
33033W        W92536  41.430  20.695  11.438
33034W        W92537   0.274  29.608  13.987
33035W        W92538  42.829  16.208   4.243
33036W        W92539  42.455  38.491  10.593
33037W        W92540  20.102  17.149  10.929
33038W        W92541  16.311  43.917   4.601
33039W        W92542  27.554   5.273  13.489
33040W        W92543  26.679  20.611  14.474
33041W        W92544  15.634   1.812   1.246
33042W        W92545   6.199  13.657  12.888
33043W        W92546   7.897  23.686  10.498
33044W        W92547  21.545  28.469  12.467
33045W        W92548  31.147  22.239   2.692
33046W        W92549   9.702  43.401   0.369
33047W        W92550  38.922  43.316   0.925
33048W        W92551  44.444  23.011  13.055
33049W        W92552   8.797  35.060   5.279
33050W        W92553   0.742  43.824  11.956
33051W        W92554   2.892  22.144   1.893
33052W        W92555   1.789  42.472  13.339
33053W        W92556  16.296  13.138   4.800
33054W        W92557   7.708  17.696  11.468
33055W        W92558  35.974  15.680  14.483
33056W        W92559   1.292  40.977   0.908
33057W        W92560  37.895  31.134   4.638
33058W        W92561  33.387  28.528  13.898
33059W        W92562  38.410   9.356   3.197
33060W        W92563  16.777  33.605  14.293
33061W        W92564  30.441  21.534   3.276
33062W        W92565  10.692  37.487  11.510
33063W        W92566  28.067   6.854  10.146
33064W        W92567  21.693  42.392  13.877
33065W        W92568  22.612  17.106  11.424
33066W        W92569  12.159  23.515  14.474
33067W        W92570  44.867  26.026   5.207
33068W        W92571  18.549  36.910   1.879
33069W        W92572  22.741  12.147  10.971
33070W        W92573   1.899  31.943   5.269
33071W        W92574  29.959   9.855   4.738
33072W        W92575  15.278   2.289  13.011
33073W        W92576  36.910  40.949  14.483
33074W        W92577  33.999   3.780   2.341
33075W        W92578   5.250   4.330   0.881
33076W        W92579  17.298  16.077   3.807
33077W        W92580  37.066  40.985   4.232
33078W        W92581  23.037  31.424  13.049
33079W        W92582   1.374  30.511  12.947
33080W        W92583  34.011  41.393   1.776
33081W        W92584  19.572   4.301   4.265
33082W        W92585  20.692  12.279   0.428
33083W        W92586  27.602  43.514   3.154
33084W        W92587  37.074  42.953  10.446
33085W        W92588  41.498  27.028   0.302
33086W        W92589  12.769  44.900   4.829
33087W        W92590  27.111  14.319  12.080
33088W        W92591   7.373  26.646  13.007
33089W        W92592   3.430  30.493   4.140
33090W        W92593   9.258  13.174  12.474
33091W        W92594  18.225  15.791  11.456
33092W        W92595   1.377  29.147   9.934
33093W        W92596  21.093  10.187  14.912
33094W        W92597  22.691  28.088   0.862
33095W        W92598  23.058  19.779   3.285
33096W        W92599  29.465   3.936   3.170
33097W        W92600  26.007  29.030   3.650
33098W        W92601   9.299  24.145   0.415
33099W        W92602  29.492  35.971   1.321
33100W        W92603  17.798  27.476  11.890
33101W        W92604  18.112  16.744  14.890
33102W        W92605  40.871  31.474   0.344
33103W        W92606   2.389  17.571   4.141
33104W        W92607  14.716  44.847   1.727
33105W        W92608   2.881  42.349  13.327
33106W        W92609  35.877  17.120  10.414
33107W        W92610  14.249  29.083   4.163
33108W        W92611   1.774  14.781   1.783
33109W        W92612  20.130  44.774   1.844
33110W        W92613  34.482   4.715  14.445
33111W        W92614   2.317  28.036   0.319
33112W        W92615  35.999  13.649   4.345
33113W        W92616  36.052  20.603   3.791
33114W        W92617  27.613  28.166   4.759
33115W        W92618  15.328  11.256   4.770
33116W        W92619   5.433  15.679  10.034
33117W        W92620  26.502  23.094  12.877
33118W        W92621  40.375  22.063  11.044
33119W        W92622   2.787  41.936   2.704
33120W        W92623   6.759  31.480  10.555
33121W        W92624  14.246  28.140  13.433
33122W        W92625  20.565   3.760  13.404
33123W        W92626  41.858  33.520   0.482
33124W        W92627  31.029  30.915   3.708
33125W        W92628   9.353  27.163   2.846
33126W        W92629  27.450  29.979   0.761
33127W        W92630   8.244   5.770  11.605
33128W        W92631  17.261   7.703  14.947
33129W        W92632  13.815  30.052   1.363
33130W        W92633   4.399  14.170   3.240
33131W        W92634  12.771   4.368   4.809
33132W        W92635  12.854   8.229   2.407
33133W        W92636   6.336  39.499  10.565
33134W        W92637  23.006  17.183  11.546
33135W        W92638   9.852  44.301   4.206
33136W        W92639  24.202  30.442   3.168
33137W        W92640   8.328  17.714  10.581
33138W        W92641  27.689   1.255   4.233
33139W        W92642   1.316  43.928  12.352
33140W        W92643  10.270  16.596  10.962
33141W        W92644   3.435  35.537   0.399
33142W        W92645  23.149  22.070  12.404
33143W        W92646   8.795  34.071  10.941
33144W        W92647   6.855  24.228   3.677
33145W        W92648  35.027  24.147   3.235
33146W        W92649  13.844  28.017  10.612
33147W        W92650  30.421  24.975   1.933
33148W        W92651  19.248   7.676   0.383
33149W        W92652  15.255   4.732   4.728
33150W        W92653  36.565  41.811   2.790
33151W        W92654  40.013   0.779   4.764
33152W        W92655   5.383   0.901   4.176
33153W        W92656  11.266  30.959  11.525
33154W        W92657   2.774  24.093  12.386
33155W        W92658  11.765  41.864  12.493
33156W        W92659   5.402  16.158  13.919
33157W        W92660  34.461  35.020   4.760
33158W        W92661  42.950  10.197   2.666
33159W        W92662  25.072  44.325  10.951
33160W        W92663  36.011  38.929   3.347
33161W        W92664  38.422  21.714   2.230
33162W        W92665  26.972  44.466   0.772
33163W        W92666  26.184   1.341   1.782
33164W        W92667   5.923  44.286  13.828
33165W        W92668  17.202  25.982   1.855
33166W        W92669   1.368  10.201  11.093
33167W        W92670  19.588   7.402   3.284
33168W        W92671  33.506   5.706  12.397
33169W        W92672   1.808  34.512   2.825
33170W        W92673   0.450   7.843   1.338
33171W        W92674  15.226  37.400   3.385
33172W        W92675  41.458  10.343   4.661
33173W        W92676  22.710  25.014   5.120
33174W        W92677  23.125   3.891  10.976
33175W        W92678   9.843  24.000  11.544
33176W        W92679  28.097  28.030  12.862
33177W        W92680  31.002   1.878  10.421
33178W        W92681  11.669  31.016   2.317
33179W        W92682  15.651  39.391  12.425
33180W        W92683  34.491  27.649   0.422
33181W        W92684  32.466  15.644   0.899
33182W        W92685  43.826  36.451  11.026
33183W        W92686  31.556  34.368   3.296
33184W        W92687  25.634  25.007   3.190
33185W        W92688  24.100  24.049  11.985
33186W        W92689  16.751  23.223   4.200
33187W        W92690  39.409  18.768   2.736
33188W        W92691  35.077  39.925  11.014
33189W        W92692  17.163  43.402   3.190
33190W        W92693   2.277  32.005  11.096
33191W        W92694  42.454  16.811  12.039
33192W        W92695  42.335  11.865  12.064
33193W        W92696   0.354   5.283   1.760
33194W        W92697  31.016  43.463  12.396
33195W        W92698  17.290   9.684  12.066
33196W        W92699  40.929  28.500   2.305
33197W        W92700  37.863  43.313  14.429
33198W        W92701  18.217  30.141  14.447
33199W        W92702  39.476  10.291  12.567
33200W        W92703  19.748  43.349  14.466
33201W        W92704  26.997   8.346   2.702
33202W        W92705   6.911  18.626   3.645
33203W        W92706   3.311  33.962  10.537
33204W        W92707  41.378   6.702  14.887
33205W        W92708  17.072  10.755  14.888
33206W        W92709   0.421  14.617   0.444
33207W        W92710   1.970  10.739   2.369
33208W        W92711  37.509  19.778  12.070
33209W        W92712   5.723  18.288  10.455
33210W        W92713  38.010  27.162   3.326
33211W        W92714  22.678   1.923  10.557
33212W        W92715  44.464  15.640   0.335
33213W        W92716  21.093  15.822  10.003
33214W        W92717  30.157   3.825   2.311
33215W        W92718   7.787  34.425   4.325
33216W        W92719   3.304  34.066  13.873
33217W        W92720  30.961  44.378   4.751
33218W        W92721  22.719  21.675  12.929
33219W        W92722   2.826  10.658   4.730
33220W        W92723  38.390  21.091   5.221
33221W        W92724   6.798  35.546   0.868
33222W        W92725  29.096  10.756   0.810
33223W        W92726  34.961  21.262  10.570
33224W        W92727  21.601   1.736  11.096
33225W        W92728  22.142   3.318   0.356
33226W        W92729  29.472  34.565   3.739
33227W        W92730  44.947  21.520  13.829
33228W        W92731  44.262   7.235   1.331
33229W        W92732   2.928  37.068   0.248
33230W        W92733  31.077  23.690   4.183
33231W        W92734  18.666  29.046   1.916
33232W        W92735  40.379  10.339   5.143
33233W        W92736  38.553  41.892   4.702
33234W        W92737  29.029  35.359   3.800
33235W        W92738  19.728  24.059   2.353
33236W        W92739  27.945   3.759   3.837
33237W        W92740  14.278  12.739   0.808
33238W        W92741  21.220  17.159  13.913
33239W        W92742  44.846   0.748  10.906
33240W        W92743   1.301  15.291  10.575
33241W        W92744  41.316  34.433  14.831
33242W        W92745  20.138   8.265   3.158
33243W        W92746  27.091  14.259  10.599
33244W        W92747  17.119   4.919  11.104
33245W        W92748  22.502  37.060   4.711
33246W        W92749  21.035  19.626   2.376
33247W        W92750  33.891  18.245   0.376
33248W        W92751  10.365   3.879   4.280
33249W        W92752  21.708   3.443   3.250
33250W        W92753   6.732  32.897   4.250
33251W        W92754   8.799   3.802   4.760
33252W        W92755  27.596  15.774  11.997
33253W        W92756  16.643  13.348   3.301
33254W        W92757  28.575  41.985  14.929
33255W        W92758  37.898  37.014   3.669
33256W        W92759  19.533   3.290   0.772
33257W        W92760  32.486  31.050   1.360
33258W        W92761  26.154  10.177  13.376
33259W        W92762  42.495  22.683  12.899
33260W        W92763  39.423   7.789   2.720
33261W        W92764  19.542   5.309   3.825
33262W        W92765  34.386  20.041   2.353
33263W        W92766   6.428  26.978  11.962
33264W        W92767  32.512   0.476  12.043
33265W        W92768   0.910  34.115  13.540
33266W        W92769  11.839  29.097   1.408
33267W        W92770  34.490  10.168   4.126
33268W        W92771  28.457  42.291  13.808
33269W        W92772  31.949  22.118   4.674
33270W        W92773  23.104  10.318   1.766
33271W        W92774  24.595  15.584   9.941
33272W        W92775  40.039   2.340  14.430
33273W        W92776  34.029  37.534  12.418
33274W        W92777   2.373   9.753   0.807
33275W        W92778  43.022   6.880  11.969
33276W        W92779  44.765   3.446   1.732
33277W        W92780   2.417  14.270  12.863
33278W        W92781  15.719  35.904   4.127
33279W        W92782  22.015  44.376  12.889
33280W        W92783  41.887  37.345  11.876
33281W        W92784  36.551  39.813   4.282
33282W        W92785   9.340  20.662  11.439
33283W        W92786  34.482  37.045   4.799
33284W        W92787  21.034  20.266   0.884
33285W        W92788  28.455  14.824   3.679
33286W        W92789  31.052   3.256   0.840
33287W        W92790  23.547   7.783  13.868
33288W        W92791   9.304  13.664  13.403
33289W        W92792  24.007  16.630  12.994
33290W        W92793  28.110   7.327   5.105
33291W        W92794  23.137   4.375  12.916
33292W        W92795   4.407  40.037  14.915
33293W        W92796  41.966  20.269   0.828
33294W        W92797  40.458  31.153   4.255
33295W        W92798   4.744  28.007  11.122
33296W        W92799  28.496   2.916  12.838
33297W        W92800   4.390  31.438  11.376
33298W        W92801  27.516   0.347   5.085
33299W        W92802  39.018  19.045  14.766
33300W        W92803  25.594  36.962  14.506
33301W        W92804  22.066  12.842  13.807
33302W        W92805  11.328  34.561   3.259
33303W        W92806  18.756  18.114   2.231
33304W        W92807  25.701  41.824   0.821
33305W        W92808  28.527  38.059   2.283
33306W        W92809  35.560   6.865   1.432
33307W        W92810  13.811   3.316  13.894
33308W        W92811  31.420  27.556  11.881
33309W        W92812  31.904  25.069  14.336
33310W        W92813  36.842  36.557  12.428
33311W        W92814  28.622  37.340   1.298
33312W        W92815  10.280   8.285   0.259
33313W        W92816  33.426  36.844  14.413
33314W        W92817  17.600  36.363   2.376
33315W        W92818  44.001  43.991   0.882
33316W        W92819  20.153  29.041   4.650
33317W        W92820   2.744  31.010   9.970
33318W        W92821   4.926  35.109   1.216
33319W        W92822  42.927  11.352   3.172
33320W        W92823  35.109  13.629  14.789
33321W        W92824  32.582  42.322   3.665
33322W        W92825   8.348  27.506  11.450
33323W        W92826   4.204  18.199   4.748
33324W        W92827   5.304   8.783  10.498
33325W        W92828  16.767  16.314   2.405
33326W        W92829   5.409  29.985  13.542
33327W        W92830  18.607  23.020   2.876
33328W        W92831  43.425   1.426   3.305
33329W        W92832  43.470  43.451  11.022
33330W        W92833  18.545  22.606   5.288
33331W        W92834  24.516  29.955   3.650
33332W        W92835  23.136  32.019  11.909
33333W        W92836  10.736  29.518  11.982
33334W        W92837   2.270  25.160  12.861
33335W        W92838  37.429  15.203   2.817
33336W        W92839   8.813  34.957   4.331
33337W        W92840  16.170   9.281   0.851
33338W        W92841  37.500  24.575  11.588
33339W        W92842  22.073  29.640   1.902
33340W        W92843   7.854  23.006  12.935
33341W        W92844  20.524  38.428  14.360
33342W        W92845  15.258   2.951   3.776
33343W        W92846  34.877   5.842   2.843
33344W        W92847  33.484   2.905  11.116
33345W        W92848  10.224  10.751  11.920
33346W        W92849  40.503  42.298   2.715
33347W        W92850   3.941  26.690   3.645
33348W        W92851  44.486  19.628  14.995
33349W        W92852  41.874  30.517  11.392
33350W        W92853  14.809   7.403  11.430
33351W        W92854   8.755   8.856   4.762
33352W        W92855  18.617  29.581   2.233
33353W        W92856   4.709  32.008  12.397
33354W        W92857  14.123  11.267  14.959
33355W        W92858  22.636   7.298   0.432
33356W        W92859  28.186  25.670   1.738
33357W        W92860  15.301  19.606   2.223
33358W        W92861  39.961   9.837  12.859
33359W        W92862  26.068  28.453   3.213
33360W        W92863  12.308  23.673  11.423
33361W        W92864   6.709  26.562  10.469
33362W        W92865  21.580  16.119  11.581
33363W        W92866  19.180  27.132  12.951
33364W        W92867  31.071  19.720  10.410
33365W        W92868   2.344  41.382  12.825
33366W        W92869  32.551  11.796  13.923
33367W        W92870  24.714  12.647  10.964
33368W        W92871  14.216  28.971   3.799
33369W        W92872  34.984  31.903  14.010
33370W        W92873  41.335  33.542  14.496
33371W        W92874  13.340  10.633  12.483
33372W        W92875  14.803  34.053  14.433
33373W        W92876   4.943  11.762  14.006
33374W        W92877  35.026  20.194  10.504
33375W        W92878   3.951  41.396   4.303
33376W        W92879  24.013   3.926  11.103
33377W        W92880  17.578  29.111   0.321
33378W        W92881  21.623  38.867  11.925
33379W        W92882   5.874   3.386  11.930
33380W        W92883  11.183  11.727   0.252
33381W        W92884  19.082  32.552   3.778
33382W        W92885  16.254  40.465  12.962
33383W        W92886   6.747   9.775  14.942
33384W        W92887  29.453  30.492  13.533
33385W        W92888  36.009  30.572  13.355
33386W        W92889  31.081  25.139   3.741
33387W        W92890  32.941  31.036  14.301
33388W        W92891  37.989   5.247  13.340
33389W        W92892  18.690  39.853  13.891
33390W        W92893   0.979  19.560  13.008
33391W        W92894  21.129  38.525  10.493
33392W        W92895   8.277   2.786   3.666
33393W        W92896   4.843  23.605   1.412
33394W        W92897  15.140  17.142   1.451
33395W        W92898  16.235   7.780   3.754
33396W        W92899  44.789   5.402  12.521
33397W        W92900  25.643   4.302  14.962
33398W        W92901  39.524   5.413   3.289
33399W        W92902   2.226   6.761   0.830
33400W        W92903  23.224  30.616  12.530
33401W        W92904  37.950  29.462  10.940
33402W        W92905  44.904  29.967   2.327
33403W        W92906   1.449  29.659  10.101
33404W        W92907  23.169  21.512  14.846
33405W        W92908   3.836   4.333   4.781
33406W        W92909  15.585   8.382  11.980
33407W        W92910  42.014  37.382   0.483
33408W        W92911  14.782   9.392  14.815
33409W        W92912  22.613  42.808   0.323
33410W        W92913  23.206  29.557   0.726
33411W        W92914   5.215  29.652  10.536
33412W        W92915   3.407  18.069   2.374
33413W        W92916   4.339  38.495   0.262
33414W        W92917   7.367  34.994   1.852
33415W        W92918  24.997  39.956   2.230
33416W        W92919  42.482  43.282   0.431
33417W        W92920  22.164  17.664  10.609
33418W        W92921  11.180  12.735   1.288
33419W        W92922  20.097  25.187   0.903
33420W        W92923  35.883  27.997  12.972
33421W        W92924  21.673  43.839  14.487
33422W        W92925  34.043  13.681   5.168
33423W        W92926   7.819   6.783  14.464
33424W        W92927  39.412  31.056   4.694
33425W        W92928  39.952  36.449   1.285
33426W        W92929  29.670  28.607   4.808
33427W        W92930  33.097  25.041  13.468
33428W        W92931   2.830  32.516   4.678
33429W        W92932  33.466  22.151  10.431
33430W        W92933   5.286  15.329   9.621
33431W        W92934  20.249  24.710   0.827
33432W        W92935   9.207  18.156   2.861
33433W        W92936  44.303  21.609  11.900
33434W        W92937  28.465  29.099   2.366
33435W        W92938  24.976  42.994  14.458
33436W        W92939  44.817   5.391  12.946
33437W        W92940  23.660  22.221  14.370
33438W        W92941  34.485  18.136  14.372
33439W        W92942  44.771  16.721   5.711
33440W        W92943  34.957  25.650   4.318
33441W        W92944   7.852   0.295  11.526
33442W        W92945  32.920   1.956   0.483
33443W        W92946   4.875   9.848  12.074
33444W        W92947  35.448   7.910   1.846
33445W        W92948  12.690  39.902   2.763
33446W        W92949  29.518  14.094  14.973
33447W        W92950   6.870  20.528  14.835
33448W        W92951   2.864  33.929   2.188
33449W        W92952  40.925  37.898   1.443
33450W        W92953  13.315   4.799   3.635
33451W        W92954  33.542  36.084   4.117
33452W        W92955   4.412   0.483  11.119
33453W        W92956   7.783  35.486  13.060
33454W        W92957  27.530  13.145   4.749
33455W        W92958   7.903  34.985  13.954
33456W        W92959  43.445   8.763   0.953
33457W        W92960  23.510  36.030   1.867
33458W        W92961  16.581  39.555   0.827
33459W        W92962  27.026  39.458   0.295
33460W        W92963   7.391  27.655  14.348
33461W        W92964  15.209  20.060  12.913
33462W        W92965  25.100  32.412   1.402
33463W        W92966   5.218  37.012  14.797
33464W        W92967  23.040  16.199  13.833
33465W        W92968  21.536  30.450   1.449
33466W        W92969   8.771  36.510   0.456
33467W        W92970  19.174  31.424   1.736
33468W        W92971  44.307  12.633   2.265
33469W        W92972  25.159   3.404   1.845
33470W        W92973   0.799   4.346   1.333
33471W        W92974  18.135  35.065   0.425
33472W        W92975   2.415  23.010  12.534
33473W        W92976  13.663  16.180  14.397
33474W        W92977  16.699  11.263  11.378
33475W        W92978   8.807  33.614  11.434
33476W        W92979   2.917  39.946  11.022
33477W        W92980  37.390  38.831   0.346
33478W        W92981   5.801  27.538  14.813
33479W        W92982  19.577  30.513   2.221
33480W        W92983  23.545   9.855  11.476
33481W        W92984  14.685  36.884  10.577
33482W        W92985  38.004  30.594   4.825
33483W        W92986  43.311  13.701  13.325
33484W        W92987   0.470  31.407  12.379
33485W        W92988  20.529  26.148  11.558
33486W        W92989   9.746  17.237   3.297
33487W        W92990  33.444  20.110   3.723
33488W        W92991  27.552   3.780  10.536
33489W        W92992   8.221  28.090   2.290
33490W        W92993  31.448  40.046  11.998
33491W        W92994  16.641  10.333  13.366
33492W        W92995  24.561   9.702   3.195
33493W        W92996   8.201  15.290   4.164
33494W        W92997   9.186  39.360   1.222
33495W        W92998  19.775  31.896   2.743
33496W        W92999  19.228  41.334   3.673
33497W        W93000  13.121  36.865   5.116
33498W        W93001  14.298  27.952   0.310
33499W        W93002  17.662  28.590  10.960
33500W        W93003  31.035  32.896  12.570
33501W        W93004  17.154   9.317   4.600
33502W        W93005  36.851   9.171   9.998
33503W        W93006  37.484  42.826  12.868
33504W        W93007   9.643   7.343   0.941
33505W        W93008  40.443  30.600   0.271
33506W        W93009   0.406  43.506   2.199
33507W        W93010  29.536  15.083   1.694
33508W        W93011  16.675  12.184  11.119
33509W        W93012   1.851  29.153  13.474
33510W        W93013  41.981  37.943   4.715
33511W        W93014  24.703  40.501  14.908
33512W        W93015  14.214  30.931  13.934
33513W        W93016   0.791  44.477  12.514
33514W        W93017  26.488  31.054  11.402
33515W        W93018   0.857   6.833  11.590
33516W        W93019  10.693  36.966   0.340
33517W        W93020   0.423   9.732  14.863
33518W        W93021   7.398  37.840  13.978
33519W        W93022   8.205  37.457  13.034
33520W        W93023  42.286  40.996  14.426
33521W        W93024  18.608  21.062   2.245
33522W        W93025   0.408  35.510   0.887
33523W        W93026  31.035   9.205   2.872
33524W        W93027  38.463  20.759  12.013
33525W        W93028  42.470   7.852   0.392
33526W        W93029  19.730  41.912   3.809
33527W        W93030  35.461  23.681   4.188
33528W        W93031   6.310  25.049   2.847
33529W        W93032  23.212  41.453   0.262
33530W        W93033  38.414   4.318  14.020
33531W        W93034  16.147  21.080   2.733
33532W        W93035  18.778  36.360   4.635
33533W        W93036  17.800  11.206  13.868
33534W        W93037   7.327  19.662   1.916
33535W        W93038  10.234  38.454   0.452
33536W        W93039  41.795  31.461   1.771
33537W        W93040  13.709  14.833  13.034
33538W        W93041  22.163  39.021   2.857
33539W        W93042   4.419   7.292  12.517
33540W        W93043  43.478   9.842  14.784
33541W        W93044  32.487  35.601   2.696
33542W        W93045  29.987  29.111  12.899
33543W        W93046  33.944  26.019  14.776
33544W        W93047  23.630  28.641  12.427
33545W        W93048  10.360  44.392   3.357
33546W        W93049  33.935  11.335  14.314
33547W        W93050   7.739  37.927   1.215
33548W        W93051   0.478  10.780   1.790
33549W        W93052   2.774  31.438   4.800
33550W        W93053  25.571   6.719  14.404
33551W        W93054  34.913  19.700   1.872
33552W        W93055  22.099  23.148  10.521
33553W        W93056  28.595  39.397   2.882
33554W        W93057  24.507  43.884  13.503
33555W        W93058   8.377  23.011  11.998
33556W        W93059  30.598  44.358   1.911
33557W        W93060  22.611  29.576  13.522
33558W        W93061  14.827   8.191  10.528
33559W        W93062  12.835  24.584   3.792
33560W        W93063   5.338  28.999  13.808
33561W        W93064  12.147  30.020  11.508
33562W        W93065  22.054  19.777   2.214
33563W        W93066  18.572  25.212  14.417
33564W        W93067   3.225   5.417  13.045
33565W        W93068  34.062  43.838   2.669
33566W        W93069  23.506  15.640   2.718
33567W        W93070  40.007  33.968  14.496
33568W        W93071  38.850  16.689  13.835
33569W        W93072  30.114  44.920   1.393
33570W        W93073  22.585  31.433  11.484
33571W        W93074  16.305  39.878  11.086
33572W        W93075  41.986  34.961  12.062
33573W        W93076   2.967  42.383  10.421
33574W        W93077  26.041  18.144   3.811
33575W        W93078  22.576  19.117   3.653
33576W        W93079  10.654  38.335  11.878
33577W        W93080  36.853  23.190   1.873
33578W        W93081  28.947  17.217   4.787
33579W        W93082  19.568  25.207   0.780
33580W        W93083   2.380  16.265  11.964
33581W        W93084  19.129  22.545   1.745
33582W        W93085  40.517  44.304   0.291
33583W        W93086  15.327  18.112   0.884
33584W        W93087  41.036   7.695  11.027
33585W        W93088   6.357  43.442  13.363
33586W        W93089   7.785  40.890  13.054
33587W        W93090  13.121  29.951  14.485
33588W        W93091  21.257   0.407   4.736
33589W        W93092   0.399   2.261   4.714
33590W        W93093  39.340  43.334   3.191
33591W        W93094  39.537  10.784   4.791
33592W        W93095  21.101  17.068  14.792
33593W        W93096  43.443  29.031   3.302
33594W        W93097  40.938  15.741  13.009
33595W        W93098  23.518  39.830  14.030
33596W        W93099  43.926   7.750  11.548
33597W        W93100  17.574  11.638   1.433
33598W        W93101  34.388  43.794   4.321
33599W        W93102   9.328  21.566  14.868
33600W        W93103  39.982  38.347   1.852
33601W        W93104  23.084   3.262  12.436
33602W        W93105  18.115  37.918   0.752
33603W        W93106  42.779  32.041   2.759
33604W        W93107  37.992  29.933  12.087
33605W        W93108   3.245  31.098  14.839
33606W        W93109  43.480  12.292   4.158
33607W        W93110   7.719  28.059  13.817
33608W        W93111  24.194  10.727   0.788
33609W        W93112   1.407  12.196  12.988
33610W        W93113  38.888  28.029  12.411
33611W        W93114  43.293  31.044  13.980
33612W        W93115  39.447  17.718  13.418
33613W        W93116  24.038  11.189   0.355
33614W        W93117  12.731  27.682  12.460
33615W        W93118  14.722  19.768   3.648
33616W        W93119  33.961  38.830  14.439
33617W        W93120  31.957   8.209  13.970
33618W        W93121  33.890  18.243  12.855
33619W        W93122  13.723   8.161  12.561
33620W        W93123  12.353  26.146   1.444
33621W        W93124  29.106  21.190   4.780
33622W        W93125  22.518  39.424   4.290
33623W        W93126  42.977  36.000  12.340
33624W        W93127  13.245  33.587  10.947
33625W        W93128   1.320   3.850  13.897
33626W        W93129  24.183  36.356  12.012
33627W        W93130  37.002  14.164  12.050
33628W        W93131   4.229  18.611   3.338
33629W        W93132   1.835  36.020   2.782
33630W        W93133  25.152  43.424   3.807
33631W        W93134  18.255  40.905  11.434
33632W        W93135  37.532   6.200   2.782
33633W        W93136   5.222  16.585  12.024
33634W        W93137  16.666  24.220  14.325
33635W        W93138  37.877  16.213  12.427
33636W        W93139  42.313  22.222  12.538
33637W        W93140   8.334  16.072  11.044
33638W        W93141  24.998  27.568   0.774
33639W        W93142  24.186  35.083  12.573
33640W        W93143  16.256  39.441  14.768
33641W        W93144  37.972   9.801  11.029
33642W        W93145   2.457  35.396  14.326
33643W        W93146  22.511  37.003  10.420
33644W        W93147  41.301  42.834  12.936
33645W        W93148  14.112  38.487   3.214
33646W        W93149  32.506  36.003   2.869
33647W        W93150  33.974  18.159  11.106
33648W        W93151  38.875  25.030   0.288
33649W        W93152  28.667  41.938   0.823
33650W        W93153  28.046   6.754  10.898
33651W        W93154  37.519  13.140   2.665
33652W        W93155  25.211  41.790  10.898
33653W        W93156  29.494  30.941   3.360
33654W        W93157  37.455   6.199  13.380
33655W        W93158  33.460  24.522   0.430
33656W        W93159  40.032  28.439   1.818
33657W        W93160   9.390  10.828   2.876
33658W        W93161   3.244  24.155   4.209
33659W        W93162  24.582  19.701  10.516
33660W        W93163  32.046  32.578  14.289
33661W        W93164  12.763  41.371  11.032
33662W        W93165  41.999  14.205  11.569
33663W        W93166  31.013   3.454   4.229
33664W        W93167  30.927  22.632  12.901
33665W        W93168   6.271  17.684  10.930
33666W        W93169  24.591  28.102  14.919
33667W        W93170   7.855  30.910   2.372
33668W        W93171  18.726  20.670  13.939
33669W        W93172  21.717  24.634  11.575
33670W        W93173  13.814  23.688  10.622
33671W        W93174  39.065  20.691   2.226
33672W        W93175  26.015  44.955   3.255
33673W        W93176  38.987  30.443  11.085
33674W        W93177  21.676   6.386   1.235
33675W        W93178  16.171  32.064   1.258
33676W        W93179   0.412  36.015  14.465
33677W        W93180  28.447  12.217   4.765
33678W        W93181  39.042  36.429   1.446
33679W        W93182  31.917  31.974  12.001
33680W        W93183   3.745  10.352  12.907
33681W        W93184  38.890  16.648  11.537
33682W        W93185  17.762  17.691   3.687
33683W        W93186  19.049  37.085   4.283
33684W        W93187  16.614  44.383  10.045
33685W        W93188  17.797   7.856   2.776
33686W        W93189  42.879   0.327  12.978
33687W        W93190  15.816   8.759   0.828
33688W        W93191  27.025   1.878  12.574
33689W        W93192  22.120   0.927   0.933
33690W        W93193  40.534   9.792  11.494
33691W        W93194  17.683  41.955   3.155
33692W        W93195  27.037   7.393   2.198
33693W        W93196  36.927  29.539  13.973
33694W        W93197  17.624  39.935  11.071
33695W        W93198  16.760  10.815   3.364
33696W        W93199  42.522  27.641  14.331
33697W        W93200  37.075   0.929   0.890
33698W        W93201  33.571   3.388   1.362
33699W        W93202  23.520  29.042  13.922
33700W        W93203  23.166  41.391  11.996
33701W        W93204   5.359  42.446  11.424
33702W        W93205  15.588  42.948  10.110
33703W        W93206  39.516  43.363  12.549
33704W        W93207   7.678  38.841  10.559
33705W        W93208  33.035  30.612  13.531
33706W        W93209  43.983  14.236   0.374
33707W        W93210  14.309  35.055   3.157
33708W        W93211  27.560  12.164   1.450
33709W        W93212   6.687  38.371   4.711
33710W        W93213   9.868  18.642  12.517
33711W        W93214   1.266  25.206   2.736
33712W        W93215  31.601  40.358  13.012
33713W        W93216  26.572  10.217   0.884
33714W        W93217  31.079  29.482   2.753
33715W        W93218  14.171  14.608  11.576
33716W        W93219  34.458  31.115   0.296
33717W        W93220  23.149  17.686  13.427
33718W        W93221   7.330  15.817  13.944
33719W        W93222  16.279  11.228  13.879
33720W        W93223  17.603  38.837  11.420
33721W        W93224  25.517   7.772   2.309
33722W        W93225  27.493  28.982   2.854
33723W        W93226  35.462   5.276  13.886
33724W        W93227  42.430  27.020   0.257
33725W        W93228  15.283  22.232  13.919
33726W        W93229  21.528  33.024  11.870
33727W        W93230  26.971  10.381  11.113
33728W        W93231  32.617  24.605  10.919
33729W        W93232  11.714  29.048  13.360
33730W        W93233  24.569  15.607   1.786
33731W        W93234  36.392  23.712  14.311
33732W        W93235  31.467  14.232   1.272
33733W        W93236  43.403  24.033   0.728
33734W        W93237   4.845  39.856   4.606
33735W        W93238  12.612  19.180  14.844
33736W        W93239  37.028  11.322  14.385
33737W        W93240   8.737  15.098  13.442
33738W        W93241  25.615  27.052  13.365
33739W        W93242   8.675   4.736   1.876
33740W        W93243  11.818  44.426  10.606
33741W        W93244  15.789  22.553   3.329
33742W        W93245  33.477  32.505  10.937
33743W        W93246  10.791   3.343  13.424
33744W        W93247  34.892  42.928   3.647
33745W        W93248  23.703   4.799   2.268
33746W        W93249  31.552  30.646   3.232
33747W        W93250  15.295   6.312  11.520
33748W        W93251  23.733   9.873  13.930
33749W        W93252  35.516  26.034   4.144
33750W        W93253  18.687   6.248  12.840
33751W        W93254  16.105  25.562  10.502
33752W        W93255  39.893  26.203  11.034
33753W        W93256  20.574  12.674  13.521
33754W        W93257  28.999  21.715  10.510
33755W        W93258  11.866   5.302   2.831
33756W        W93259  12.647  10.141  14.419
33757W        W93260  30.626  23.050   4.706
33758W        W93261   2.277  16.790   1.292
33759W        W93262   6.269  26.990   3.248
33760W        W93263  37.928  20.749   0.325
33761W        W93264  28.075  17.183   3.756
33762W        W93265  34.115  29.151  14.416
33763W        W93266  26.663  11.763  12.916
33764W        W93267  21.549  18.769  11.565
33765W        W93268   2.469  24.668  11.482
33766W        W93269   9.252  34.559   3.291
33767W        W93270  31.423  26.033   3.232
33768W        W93271  40.346   8.170   3.174
33769W        W93272  25.098  42.930  11.405
33770W        W93273  20.643  18.662   2.788
33771W        W93274   7.703   1.436  11.125
33772W        W93275   2.358  44.976  10.607
33773W        W93276  26.954  31.941  10.596
33774W        W93277  16.640  41.491   0.753
33775W        W93278  25.670   5.716   2.373
33776W        W93279  41.523  10.363  10.114
33777W        W93280  19.238  19.737   4.339
33778W        W93281   2.785  18.668  12.025
33779W        W93282  25.005  38.435  11.975
33780W        W93283  12.341  27.662  10.584
33781W        W93284   4.785   6.723  14.932
33782W        W93285  35.375  37.558   3.636
33783W        W93286   4.849  14.780   0.933
33784W        W93287   6.715  37.939   1.356
33785W        W93288  14.765   2.281  12.471
33786W        W93289  18.272   6.330   1.893
33787W        W93290  24.117  14.198  12.968
33788W        W93291  12.213  28.049   4.705
33789W        W93292  21.127  44.421   0.921
33790W        W93293   0.976  22.178   1.210
33791W        W93294  25.068  26.528   4.774
33792W        W93295  34.105   9.702   2.726
33793W        W93296   7.692  20.085   0.330
33794W        W93297  31.436  13.254  13.490
33795W        W93298  34.384  23.536   4.684
33796W        W93299   2.358  42.831  12.069
33797W        W93300  15.818   4.294  14.486
33798W        W93301  19.732  13.807  11.937
33799W        W93302  10.292  22.591   0.959
33800W        W93303  29.123  39.953  10.080
33801W        W93304  26.457   4.446  11.887
33802W        W93305   5.754   1.852  12.018
33803W        W93306  15.745  11.853  14.826
33804W        W93307  12.760   2.288  10.469
33805W        W93308  30.618  30.923  13.407
33806W        W93309  33.102  35.872  11.429
33807W        W93310   2.369  20.108   1.351
33808W        W93311  30.484  33.056   0.767
33809W        W93312  39.888  17.564   2.345
33810W        W93313  29.051  30.453  11.611
33811W        W93314   9.761  40.399   4.323
33812W        W93315  19.724  16.102   1.210
33813W        W93316  30.555  11.172   0.411
33814W        W93317  37.921  34.397  13.485
33815W        W93318  38.001  32.421  14.976
33816W        W93319  42.360  37.831  14.012
33817W        W93320   7.871  23.734   2.332
33818W        W93321   9.285  21.710  13.416
33819W        W93322  27.530  36.880   0.735
33820W        W93323  40.486  33.604  10.592
33821W        W93324   6.899  30.463   0.383
33822W        W93325   7.809  17.140  12.452
33823W        W93326   5.920  32.919  10.550
33824W        W93327  13.184   9.295   2.295
33825W        W93328  34.567  30.036   1.393
33826W        W93329  37.573   2.232  10.528
33827W        W93330   3.941  10.664   1.856
33828W        W93331   8.677  14.239  10.950
33829W        W93332  21.176   0.381  13.053
33830W        W93333  30.641  11.143   9.646
33831W        W93334   5.335   1.895   4.683
33832W        W93335  30.617  16.703   2.417
33833W        W93336  40.336   8.277   1.210
33834W        W93337  13.821   5.434  14.357
33835W        W93338  15.307  43.499  13.965
33836W        W93339  14.116   7.851  11.450
33837W        W93340  38.496  24.183   1.860
33838W        W93341  31.475  37.573   2.887
33839W        W93342  38.517  38.873   2.329
33840W        W93343  15.207  25.681   4.616
33841W        W93344  27.559  11.307   2.757
33842W        W93345  12.830  38.915   1.771
33843W        W93346   0.874  34.466  11.059
33844W        W93347   6.371  26.974   1.425
33845W        W93348  29.066  14.211   1.897
33846W        W93349  20.604  27.040   1.256
33847W        W93350  38.458  36.877   1.377
33848W        W93351   0.311  18.742  13.895
33849W        W93352  43.464  25.540  11.098
33850W        W93353   8.177  37.830   4.704
33851W        W93354  30.998  22.045  14.929
33852W        W93355   0.932  30.078  13.459
33853W        W93356   9.746  23.170  12.552
33854W        W93357  10.858  34.915   2.790
33855W        W93358  37.078  11.349  11.921
33856W        W93359  11.240   7.274  11.528
33857W        W93360  42.790   7.665  14.008
33858W        W93361  36.487  13.332  12.344
33859W        W93362  21.749  14.103   4.741
33860W        W93363   6.800  13.750   1.730
33861W        W93364  15.584  23.179  12.403
33862W        W93365  23.673  27.585  12.371
33863W        W93366  15.819   0.950   1.894
33864W        W93367  13.120  34.993   0.333
33865W        W93368  13.836  44.402   2.179
33866W        W93369   3.270  11.351  11.112
33867W        W93370  40.336   1.904  14.287
33868W        W93371  12.136  10.343  14.430
33869W        W93372  27.674  37.893  14.016
33870W        W93373  26.105  14.323   1.347
33871W        W93374  15.153   3.785  10.995
33872W        W93375   0.374  24.611   9.475
33873W        W93376  14.218  32.504   3.722
33874W        W93377  10.232  36.356   2.265
33875W        W93378  15.239   6.899   2.719
33876W        W93379  39.463  34.414  10.424
33877W        W93380  37.537   0.378  13.916
33878W        W93381  38.073  27.514   1.850
33879W        W93382  41.860   4.857  14.483
33880W        W93383  39.414  22.250   1.262
33881W        W93384  27.479  17.140   1.213
33882W        W93385  27.678  22.587   0.921
33883W        W93386  41.471  19.190   3.215
33884W        W93387  40.018   3.425   1.441
33885W        W93388  15.270  29.625   0.413
33886W        W93389  32.528  30.989   1.793
33887W        W93390  17.213   7.234  12.495
33888W        W93391  21.125  29.645   1.783
33889W        W93392  36.416  40.860   1.292
33890W        W93393  38.547  39.549  13.986
33891W        W93394   9.843  31.009  11.034
33892W        W93395   5.810  41.330  12.543
33893W        W93396   7.372   4.842   3.214
33894W        W93397  17.214   3.440   2.757
33895W        W93398  25.489   0.802  14.998
33896W        W93399  23.629  20.656  12.529
33897W        W93400  39.528  27.454   2.883
33898W        W93401  31.986  16.269  10.553
33899W        W93402  40.006  13.614  10.896
33900W        W93403  27.610  10.748  10.603
33901W        W93404   2.388  16.100   2.810
33902W        W93405  21.138   6.342  11.005
33903W        W93406  12.235  14.301   0.842
33904W        W93407  38.557  23.568   1.409
33905W        W93408   3.864  33.512   0.358
33906W        W93409   3.357  31.520  14.285
33907W        W93410   8.374  15.244   1.770
33908W        W93411  35.906  31.613  13.508
33909W        W93412  10.785   0.879   4.286
33910W        W93413  31.457   5.836  14.864
33911W        W93414  16.647  25.211   2.873
33912W        W93415  39.005  25.548   3.221
33913W        W93416  12.248  35.445  13.323
33914W        W93417   2.785  20.122  10.485
33915W        W93418   7.205   9.198   1.409
33916W        W93419  24.550  35.021   2.323
33917W        W93420   3.222  36.546  11.514
33918W        W93421  41.320  39.861   0.908
33919W        W93422   6.190  24.707  13.448
33920W        W93423  11.866  44.840  13.374
33921W        W93424  23.711  12.856  11.901
33922W        W93425  19.096   0.389  14.438
33923W        W93426  28.448  19.605   4.195
33924W        W93427  29.081  33.583   1.799
33925W        W93428  32.449  12.360  14.400
33926W        W93429  20.606  18.714   0.931
33927W        W93430   3.929  11.840  12.531
33928W        W93431  21.242  10.236   2.829
33929W        W93432   6.184  12.675   0.913
33930W        W93433   1.438   2.237  13.317
33931W        W93434  24.578  40.815   0.443
33932W        W93435  11.867  19.760  10.900
33933W        W93436  21.653   4.390   3.355
33934W        W93437   2.849  31.534  11.612
33935W        W93438   8.692   2.428   0.367
33936W        W93439  13.796  35.017  11.543
33937W        W93440  15.293  16.690  10.447
33938W        W93441  27.665  23.208   0.279
33939W        W93442  40.400  16.703   4.783
33940W        W93443  39.060  17.211  13.882
33941W        W93444  42.492  11.239   2.665
33942W        W93445  41.880  31.467  12.849
33943W        W93446  33.510  23.569   3.296
33944W        W93447  32.406  42.458   2.856
33945W        W93448  22.602  17.737  11.088
33946W        W93449  40.991   5.372  11.963
33947W        W93450  41.804  17.562  11.936
33948W        W93451  32.090  37.833   0.457
33949W        W93452   6.282  43.014  11.499
33950W        W93453  40.947  37.998  10.529
33951W        W93454   8.273   7.306  10.561
33952W        W93455   0.383  35.409   4.698
33953W        W93456  41.945   0.491   4.730
33954W        W93457  39.475  34.392  11.518
33955W        W93458   0.819  43.938   9.543
33956W        W93459  24.524  41.449  13.839
33957W        W93460  28.939  32.584   3.244
33958W        W93461  34.920  30.494  13.310
33959W        W93462  39.342   8.191  11.607
33960W        W93463  22.585  18.557   0.337
33961W        W93464   0.295  12.137  11.062
33962W        W93465  10.263  42.911   4.142
33963W        W93466  16.184   4.264   1.739
33964W        W93467  34.015   0.775   4.164
33965W        W93468   4.941   2.827  11.387
33966W        W93469  25.480  44.973  12.356
33967W        W93470   7.901  32.553  12.969
33968W        W93471  43.849   8.378  11.964
33969W        W93472   7.254  28.982   0.861
33970W        W93473  19.269  12.735   0.479
33971W        W93474  10.674  25.584  14.416
33972W        W93475   0.394   5.247  14.479
33973W        W93476  32.031  32.610  13.437
33974W        W93477  24.575   1.260  14.393
33975W        W93478  14.786  44.296  11.871
33976W        W93479   4.340   3.424  14.009
33977W        W93480  43.509  27.484  14.951
33978W        W93481  33.616  29.530  13.524
33979W        W93482  41.420   7.672   3.157
33980W        W93483  12.807  12.134  13.331
33981W        W93484  27.081  23.068  13.401
33982W        W93485  18.694   4.913   5.098
33983W        W93486   9.211   4.243   3.355
33984W        W93487  44.298  20.241  14.491
33985W        W93488   2.370  16.125   4.814
33986W        W93489  39.468  31.442   4.692
33987W        W93490  41.908  28.001   0.958
33988W        W93491  29.066   7.291   1.833
33989W        W93492  23.500  13.716   0.407
33990W        W93493  41.031  43.352   3.698
33991W        W93494  31.041  24.149  11.098
33992W        W93495   8.781  44.328  13.854
33993W        W93496  36.895  40.433   3.210
33994W        W93497  35.033  21.049   5.306
33995W        W93498   2.839   7.351  13.441
33996W        W93499  33.461  35.885   4.602
33997W        W93500   5.744  38.970  10.461
33998W        W93501  26.564   5.689  14.329
33999W        W93502  27.976  21.603  13.811
34000W        W93503  29.946  33.581   2.691
34001W        W93504  14.590   7.307   4.292
34002W        W93505  16.576  33.501   3.746
34003W        W93506   8.199   7.694   3.233
34004W        W93507  28.666  39.896  11.539
34005W        W93508  12.293  19.591   0.806
34006W        W93509  14.273  10.799   0.285
34007W        W93510  26.161  28.040  10.619
34008W        W93511  21.735  30.621   4.675
34009W        W93512  23.997  26.562   0.288
34010W        W93513  34.943   3.719   0.922
34011W        W93514  16.086  15.152  14.470
34012W        W93515  15.761  11.144  12.420
34013W        W93516   7.693   4.206   1.717
34014W        W93517  39.918   6.226   0.957
34015W        W93518  11.199  41.953   2.674
34016W        W93519   2.228  19.570   4.760
34017W        W93520  24.206   7.231   4.151
34018W        W93521  18.573  31.458   3.220
34019W        W93522  43.941  18.212   3.786
34020W        W93523  28.040  23.654   4.261
34021W        W93524  37.056   8.700   5.243
34022W        W93525  24.163   8.288   1.709
34023W        W93526  37.864   6.750   3.637
34024W        W93527  42.822   9.809  14.853
34025W        W93528   2.874   4.907   0.894
34026W        W93529  12.301  27.452   4.171
34027W        W93530   7.686  22.513  13.887
34028W        W93531   7.373  11.720  12.461
34029W        W93532  10.185  23.124  14.465
34030W        W93533   9.387  40.927  14.424
34031W        W93534  30.536   9.361  13.851
34032W        W93535   3.450  10.360   2.678
34033W        W93536  15.691  33.047  12.920
34034W        W93537  28.174  13.688   1.338
34035W        W93538  28.980  12.122   4.787
34036W        W93539  38.861  39.473   1.869
34037W        W93540  25.558   5.428   1.399
34038W        W93541  37.923  44.760   2.742
34039W        W93542   1.273  13.749  12.964
34040W        W93543  19.770  40.970  13.997
34041W        W93544   8.693  14.662   2.339
34042W        W93545  16.121  24.074   0.870
34043W        W93546  35.370  41.859  13.469
34044W        W93547  44.379   7.322   3.870
34045W        W93548   4.314  25.498  14.769
34046W        W93549  11.150  39.978  11.463
34047W        W93550  39.061  29.127   2.190
34048W        W93551  16.792  23.495   3.777
34049W        W93552   5.264  26.972  13.315
34050W        W93553  16.753   3.216   0.458
34051W        W93554   6.311  11.351   0.798
34052W        W93555  14.697   9.375   2.722
34053W        W93556  34.974  11.165  14.418
34054W        W93557  42.956  16.290  12.367
34055W        W93558  35.094  31.592   2.350
34056W        W93559  40.866  10.173   3.806
34057W        W93560   6.295  35.513  14.017
34058W        W93561  11.693  17.699   2.379
34059W        W93562   1.783   5.352  11.997
34060W        W93563   5.245  10.828  10.910
34061W        W93564  28.096   5.270   0.921
34062W        W93565   7.411  25.149   4.342
34063W        W93566  34.603   7.176  12.944
34064W        W93567  19.040  29.078  10.412
34065W        W93568  27.076   2.319   3.146
34066W        W93569  43.862  24.189   3.832
34067W        W93570  10.637   7.910   1.299
34068W        W93571  12.736   0.980  11.582
34069W        W93572  37.833  31.139   3.704
34070W        W93573  28.550  35.409   2.781
34071W        W93574  30.593  15.224   1.922
34072W        W93575  42.980   5.213  13.397
34073W        W93576  22.138  43.812   1.748
34074W        W93577  27.972  36.049  11.860
34075W        W93578  41.034  19.060   5.614
34076W        W93579  42.782  18.652   0.820
34077W        W93580  15.083  27.642   2.380
34078W        W93581  26.029  38.830   3.841
34079W        W93582  25.052  28.068   4.739
34080W        W93583  15.769  20.187  10.937
34081W        W93584  12.333  37.549   0.855
34082W        W93585   4.929  43.888   0.756
34083W        W93586  20.730  21.139   4.214
34084W        W93587  28.549   8.842  11.373
34085W        W93588  40.508  26.966  14.956
34086W        W93589  17.210  20.240   2.344
34087W        W93590  12.307   6.719   4.204
34088W        W93591  20.532  40.375  11.036
34089W        W93592  36.916  36.422   3.817
34090W        W93593  43.370  12.127  13.360
34091W        W93594  14.220  23.161   0.392
34092W        W93595  16.284  30.936   3.833
34093W        W93596   0.325  27.098   0.331
34094W        W93597   8.724  40.816   3.163
34095W        W93598   4.423  41.336  10.986
34096W        W93599  15.270  38.482   1.375
34097W        W93600  44.371  28.095   5.147
34098W        W93601  14.287  43.334   4.276
34099W        W93602   8.829   7.784  12.449
34100W        W93603  38.007  16.244   4.330
34101W        W93604  25.138  29.636   1.720
34102W        W93605  39.057  31.599   0.265
34103W        W93606  22.120  14.794  12.083
34104W        W93607   0.316  15.787   4.153
34105W        W93608  22.094  24.121  10.890
34106W        W93609  12.262  13.247  13.433
34107W        W93610  34.561  31.647   4.693
34108W        W93611   1.465  12.765  10.450
34109W        W93612  37.932  29.100   1.380
34110W        W93613   5.906  36.048   1.700
34111W        W93614  36.854   2.257  11.610
34112W        W93615  44.380   8.787   1.832
34113W        W93616  29.606  29.943  13.025
34114W        W93617   5.337   4.904  11.465
34115W        W93618   5.280  12.625  11.424
34116W        W93619  11.684  44.391  10.909
34117W        W93620  36.488  23.705  12.374
34118W        W93621  16.202   7.855  11.044
34119W        W93622  44.295  35.051  11.997
34120W        W93623  24.553  32.440   3.159
34121W        W93624  22.505  43.991   2.808
34122W        W93625  15.772   8.722   4.340
34123W        W93626  10.778  38.033   0.936
34124W        W93627  26.476   8.687  13.016
34125W        W93628  13.170  15.695   2.326
34126W        W93629  15.804   4.432  11.408
34127W        W93630  34.573   1.810   4.169
34128W        W93631  34.596   8.261  12.472
34129W        W93632  19.115  14.672  14.304
34130W        W93633  27.143  35.578  13.026
34131W        W93634  32.964  27.131   3.788
34132W        W93635   3.875  20.121   0.356
34133W        W93636  21.560  12.774   4.791
34134W        W93637   2.866  19.577   4.139
34135W        W93638  34.397  19.256   1.853
34136W        W93639  41.428  35.001   3.684
34137W        W93640  18.596  30.638  11.523
34138W        W93641  42.425  15.298  14.513
34139W        W93642  29.560  34.958  10.888
34140W        W93643  14.165  35.966  13.317
34141W        W93644  25.189   3.727   5.212
34142W        W93645  31.570  14.798   0.899
34143W        W93646  24.638  42.804  11.869
34144W        W93647  15.090  34.890   1.273
34145W        W93648  34.463   7.772  11.037
34146W        W93649   0.756  13.202   4.682
34147W        W93650  30.124  33.504  10.579
34148W        W93651  33.025  12.759   2.792
34149W        W93652  34.400  29.114  10.493
34150W        W93653  27.165  37.079  14.487
34151W        W93654  22.691  23.022  14.282
34152W        W93655  14.733  17.171   3.661
34153W        W93656  31.416  31.623  10.919
34154W        W93657  26.653  18.713   2.796
34155W        W93658   1.779  37.980  10.599
34156W        W93659  15.703  13.622  10.539
34157W        W93660   0.920  38.873   4.176
34158W        W93661  30.100  41.310  12.052
34159W        W93662  32.142   1.893  11.482
34160W        W93663  12.160  25.097  12.542
34161W        W93664   1.404  41.043  11.963
34162W        W93665  14.116  30.605  13.872
34163W        W93666  26.191  26.190  12.522
34164W        W93667  25.087  31.068  14.458
34165W        W93668  14.273  22.746   2.764
34166W        W93669  36.902  30.147  10.619
34167W        W93670  14.649   2.425   2.249
34168W        W93671   0.824   2.367   1.292
34169W        W93672  28.094   7.273  12.554
34170W        W93673  20.172  24.712  12.079
34171W        W93674  24.628  21.517   2.374
34172W        W93675   7.363  40.893  13.025
34173W        W93676  23.705  21.542  14.891
34174W        W93677  37.957  10.700  11.003
34175W        W93678   8.889   0.771   3.297
34176W        W93679  21.511   0.364   4.245
34177W        W93680  28.626  14.757  13.308
34178W        W93681  38.552  41.385   3.205
34179W        W93682  14.723   7.891  12.496
34180W        W93683  22.014  33.520  12.006
34181W        W93684   7.276  32.097   1.763
34182W        W93685  35.409  18.122  12.559
34183W        W93686  31.034  35.030   3.267
34184W        W93687  36.446  32.462  14.916
34185W        W93688  22.044  34.019  14.308
34186W        W93689  30.089   3.867   1.794
34187W        W93690  34.106  14.179  12.913
34188W        W93691  27.583  41.352   3.815
34189W        W93692   7.228  34.910  13.815
34190W        W93693  36.946  39.031  11.918
34191W        W93694  36.021  37.907   0.457
34192W        W93695  21.702   3.815   4.258
34193W        W93696   7.279   3.461  10.418
34194W        W93697   1.775  23.535  11.604
34195W        W93698  20.596   7.255  14.945
34196W        W93699  32.988  35.059  14.821
34197W        W93700   1.371   0.415   2.851
34198W        W93701  44.263  16.148  11.885
34199W        W93702  40.374  28.133  14.009
34200W        W93703   4.835  31.457  11.466
34201W        W93704  37.514  14.299  14.770
34202W        W93705  42.306  35.875  11.586
34203W        W93706  13.658  26.069  10.586
34204W        W93707  37.568  25.659   2.356
34205W        W93708  43.278  24.593   4.674
34206W        W93709   3.762  26.995  13.947
34207W        W93710  30.510  15.225   4.285
34208W        W93711  42.997   4.884   4.710
34209W        W93712  13.138  39.852   1.826
34210W        W93713  25.594  32.040   1.778
34211W        W93714  40.400   8.276   4.341
34212W        W93715  33.027  24.149  13.899
34213W        W93716  33.402  38.413   1.425
34214W        W93717  13.787  16.643   1.292
34215W        W93718  15.229  33.507   4.627
34216W        W93719  14.119   3.803  12.981
34217W        W93720  34.542  34.547  10.595
34218W        W93721  33.528  10.757   1.842
34219W        W93722  40.905  41.376  11.032
34220W        W93723  43.397   6.700   4.713
34221W        W93724  20.051  16.157   3.147
34222W        W93725  33.529  43.495  13.894
34223W        W93726  37.431   5.388  11.882
34224W        W93727  13.117   3.412  11.586
34225W        W93728  32.090   1.914   9.934
34226W        W93729   9.643  19.770  11.944
34227W        W93730  11.760   0.326   3.709
34228W        W93731   1.915   7.354   3.262
34229W        W93732  28.505   0.912   1.856
34230W        W93733   7.272   2.298  11.498
34231W        W93734  41.991   3.423  14.828
34232W        W93735   9.661  42.859   4.809
34233W        W93736  31.135  21.020   0.270
34234W        W93737  25.070   1.735  14.916
34235W        W93738  37.447  21.124  10.898
34236W        W93739  16.587   4.819   0.917
34237W        W93740   0.486  33.042  14.764
34238W        W93741  18.214  18.557   3.267
34239W        W93742  35.065  39.062  12.389
34240W        W93743  36.580  15.684  12.411
34241W        W93744   2.458   7.891  13.955
34242W        W93745  40.045  20.162  14.888
34243W        W93746   9.319  44.794   1.866
34244W        W93747   7.345  36.035   0.949
34245W        W93748  21.724  29.498  10.588
34246W        W93749  20.692  24.491  11.025
34247W        W93750  13.188  16.134   1.393
34248W        W93751  13.736  28.181   2.767
34249W        W93752  22.240  28.512  11.100
34250W        W93753  13.223  39.449   1.723
34251W        W93754  28.646  35.040   3.650
34252W        W93755  16.582  34.398  12.929
34253W        W93756  26.104  41.835  13.443
34254W        W93757  34.379  10.221  14.364
34255W        W93758   1.482   0.344   1.906
34256W        W93759   7.908  21.182   0.939
34257W        W93760   3.342  34.615  10.056
34258W        W93761  26.161  38.000   0.391
34259W        W93762  15.131  20.180  11.596
34260W        W93763  36.556  22.676  12.005
34261W        W93764  29.989   0.350   0.910
34262W        W93765  31.554  29.593  10.033
34263W        W93766   3.842  25.708   3.238
34264W        W93767  10.206  16.796   0.876
34265W        W93768  18.275  42.944   3.383
34266W        W93769  18.272  27.505   3.293
34267W        W93770  26.150  25.979   3.367
34268W        W93771   5.917  31.140  13.924
34269W        W93772   1.951  27.486   1.444
34270W        W93773  34.004  17.181   4.612
34271W        W93774  39.063  30.038  12.053
34272W        W93775  36.507   6.808   1.350
34273W        W93776  26.530  13.308  14.275
34274W        W93777  38.857   8.206   2.261
34275W        W93778  35.450  10.707   3.788
34276W        W93779  23.073   7.853   0.422
34277W        W93780   5.433  33.443  10.557
34278W        W93781  20.136  44.448   5.181
34279W        W93782  36.087  34.443   4.612
34280W        W93783  26.644   5.421  13.442
34281W        W93784  13.186  44.895  13.425
34282W        W93785  26.585  17.125   0.439
34283W        W93786  16.124  11.737   4.210
34284W        W93787  13.350  12.314   2.219
34285W        W93788  42.478   3.786   4.823
34286W        W93789  33.972  22.244   2.391
34287W        W93790  40.836  36.075  13.815
34288W        W93791  33.577  41.850   2.772
34289W        W93792   6.294  28.057  10.923
34290W        W93793  14.620  37.907   4.743
34291W        W93794  30.579  19.590  12.831
34292W        W93795  43.437   7.407  14.017
34293W        W93796  23.560  33.384  12.029
34294W        W93797  15.086   9.326  13.364
34295W        W93798  18.679  28.579  13.518
34296W        W93799  15.590  22.638   0.918
34297W        W93800  40.466  30.112  12.915
34298W        W93801  10.298  32.473   1.279
34299W        W93802  30.487  44.343  11.477
34300W        W93803   6.313   3.943   2.728
34301W        W93804  23.514  12.185   0.890
34302W        W93805  29.577   2.250   3.787
34303W        W93806  16.693  25.964   0.827
34304W        W93807  20.128  21.105   3.241
34305W        W93808  16.788  36.408  10.637
34306W        W93809  22.189  31.624  13.531
34307W        W93810  34.952  32.610   1.222
34308W        W93811  40.039  13.322  14.316
34309W        W93812   5.347  31.465   3.254
34310W        W93813   2.380  10.360   2.358
34311W        W93814  26.586   2.339   1.754
34312W        W93815  39.394  23.074  10.892
34313W        W93816  28.094  24.529  12.975
34314W        W93817   6.690   1.386   2.366
34315W        W93818  17.624  30.130   1.359
34316W        W93819  31.082  32.506   0.335
34317W        W93820  10.269  36.583   2.759
34318W        W93821  29.041   3.933  13.339
34319W        W93822  34.085  41.884   3.159
34320W        W93823  22.010  13.206  13.493
34321W        W93824  25.692   7.822   3.154
34322W        W93825  34.405  29.578  14.331
34323W        W93826   1.372  13.785   3.331
34324W        W93827   5.372  41.829   1.782
34325W        W93828  21.152  42.921   1.371
34326W        W93829  43.784  13.245   0.350
34327W        W93830  14.243  40.018   1.759
34328W        W93831  15.787  44.940   4.822
34329W        W93832   5.249  42.031  10.472
34330W        W93833   3.379   4.942  14.473
34331W        W93834  19.167  29.918  12.434
34332W        W93835  44.463   6.276   2.182
34333W        W93836  27.988  42.400   1.858
34334W        W93837  15.165   7.799   0.353
34335W        W93838   9.743   6.739  11.443
34336W        W93839   4.844   2.426   1.431
34337W        W93840  20.668   9.383  10.482
34338W        W93841   5.300  29.653   3.757
34339W        W93842  18.630  18.103  14.934
34340W        W93843  24.609  41.008  10.911
34341W        W93844   9.287  26.682  14.798
34342W        W93845   8.161   6.779  12.089
34343W        W93846  26.662  43.279  10.625
34344W        W93847  30.996   7.233  11.938
34345W        W93848   8.761  10.644  13.362
34346W        W93849  27.002   3.308  10.955
34347W        W93850  27.084  36.055   3.356
34348W        W93851  33.983  14.825  12.524
34349W        W93852  40.027  20.662  12.424
34350W        W93853  20.091  42.312   3.281
34351W        W93854  44.903  10.749  12.944
34352W        W93855  17.640  26.649   4.292
34353W        W93856   7.682  29.068   1.219
34354W        W93857  28.039  28.559   5.737
34355W        W93858  38.068  29.553   2.722
34356W        W93859  13.771  19.158   4.772
34357W        W93860  31.581  15.624   1.319
34358W        W93861  26.621   1.256  14.815
34359W        W93862   0.825  38.413   4.302
34360W        W93863  23.112  13.733  14.325
34361W        W93864  27.136  22.590   3.801
34362W        W93865  24.500  34.496  14.515
34363W        W93866   6.197  37.965  13.345
34364W        W93867   0.312  13.669  11.018
34365W        W93868  19.586  41.442  12.070
34366W        W93869  15.602  23.544   0.448
34367W        W93870  10.774  18.100  12.067
34368W        W93871  44.295  21.101  13.033
34369W        W93872   6.754  37.923   4.323
34370W        W93873  10.812  24.535  13.451
34371W        W93874  24.690  43.784  12.023
34372W        W93875  30.073  32.014   2.899
34373W        W93876  29.448  44.359   0.775
34374W        W93877  23.058   7.840  12.022
34375W        W93878  10.677  13.126  10.111
34376W        W93879  31.102  40.308   4.698
34377W        W93880  26.149  42.467  11.487
34378W        W93881   9.723  33.451  14.380
34379W        W93882  30.074   6.381   0.803
34380W        W93883  36.879   5.323   0.880
34381W        W93884  20.652  34.051  11.452
34382W        W93885   4.888   2.793  11.028
34383W        W93886  27.983   6.799  13.849
34384W        W93887  42.422  33.971  13.844
34385W        W93888   3.421  18.613  10.602
34386W        W93889  43.450   5.813   3.797
34387W        W93890  29.534  40.905  11.866
34388W        W93891  17.184  13.694  14.983
34389W        W93892  44.784   9.250  14.404
34390W        W93893  12.307   9.812   0.836
34391W        W93894  20.730  30.965   4.122
34392W        W93895  27.631  16.309   1.302
34393W        W93896  37.923  18.289   1.301
34394W        W93897  13.213   4.937   2.850
34395W        W93898  15.179  18.051   4.799
34396W        W93899  29.534  29.016  12.070
34397W        W93900  12.706  28.582  11.586
34398W        W93901  25.106  24.053  11.997
34399W        W93902  39.371  25.103  13.917
34400W        W93903  37.394  28.508   2.404
34401W        W93904  11.279   3.785  11.503
34402W        W93905  12.669  36.584   2.735
34403W        W93906  43.925  40.533  13.497
34404W        W93907  17.215  22.692  11.953
34405W        W93908  22.006  11.668   3.196
34406W        W93909  21.107  39.912   1.302
34407W        W93910   9.309  10.839  14.019
34408W        W93911   8.247   6.814  14.391
34409W        W93912  11.769   2.919  13.808
34410W        W93913   2.852   4.398  13.336
34411W        W93914  13.724  31.029   2.749
34412W        W93915   5.883  38.432  11.532
34413W        W93916  43.483  17.192  10.429
34414W        W93917  38.034  17.129  13.408
34415W        W93918   2.366  33.586   3.209
34416W        W93919   3.254  34.406  11.584
34417W        W93920  42.957  41.043   3.227
34418W        W93921   9.314  42.299  12.573
34419W        W93922  36.023  29.544   4.212
34420W        W93923   6.364  34.459   0.295
34421W        W93924  41.503   4.728  11.107
34422W        W93925  28.518  27.974  11.092
34423W        W93926  41.535  40.380   1.293
34424W        W93927  29.640   9.794   1.871
34425W        W93928  29.933   4.858   0.249
34426W        W93929  28.969  19.540   4.171
34427W        W93930  15.176  27.091   4.231
34428W        W93931  35.371  44.468   0.729
34429W        W93932  40.026  12.241  13.042
34430W        W93933  33.981  12.244  11.497
34431W        W93934  13.665  35.068  14.840
34432W        W93935  26.198  37.008  11.477
34433W        W93936   1.955  37.528   2.901
34434W        W93937   0.329  38.055   2.306
34435W        W93938  39.986  38.386   3.851
34436W        W93939  38.879  31.123  14.828
34437W        W93940  10.169   7.894  14.513
34438W        W93941  25.511  15.279   4.214
34439W        W93942  39.054  20.094  13.363
34440W        W93943  31.095  13.142  14.764
34441W        W93944  27.103  39.821   2.360
34442W        W93945  41.418  13.624   1.777
34443W        W93946  11.351  11.326  10.446
34444W        W93947  43.950   8.863  12.004
34445W        W93948   1.341  14.705  11.877
34446W        W93949   3.362  42.498   2.868
34447W        W93950  25.710  14.616  10.467
34448W        W93951  11.314  34.531   0.838
34449W        W93952  41.902   0.272  12.978
34450W        W93953   8.295  41.933   2.403
34451W        W93954  29.428  19.220  11.538
34452W        W93955  33.022  17.690   3.847
34453W        W93956   6.746  22.116  14.022
34454W        W93957  11.199  20.236  13.794
34455W        W93958  20.171   4.300  11.517
34456W        W93959  30.077   6.832   1.304
34457W        W93960  31.449   0.962   2.345
34458W        W93961  32.625  21.584  14.801
34459W        W93962   7.311  22.033   2.752
34460W        W93963  37.542  28.599   4.751
34461W        W93964  21.103  32.075  11.559
34462W        W93965  27.962  31.950   3.219
34463W        W93966  40.927   2.736  13.928
34464W        W93967  25.023  36.431  12.520
34465W        W93968  18.278  12.840  12.085
34466W        W93969  19.225   6.375  14.763
34467W        W93970  38.444   1.427   3.644
34468W        W93971   2.239  41.310   0.776
34469W        W93972  33.444   0.467   2.870
34470W        W93973  36.478  20.153   2.790
34471W        W93974  32.127   3.461  14.360
34472W        W93975  35.008  17.175   0.303
34473W        W93976  21.082  26.977   2.385
34474W        W93977  10.370  13.615   1.389
34475W        W93978  38.888  26.163   2.669
34476W        W93979  43.844   8.854  13.542
34477W        W93980  15.252  13.281   0.338
34478W        W93981  18.586   6.772  14.382
34479W        W93982  23.537   7.415  10.442
34480W        W93983   2.827  31.125   0.318
34481W        W93984  14.115   3.894  14.811
34482W        W93985  15.610  21.647   4.618
34483W        W93986  19.270  35.881   0.923
34484W        W93987  24.169  35.018   5.166
34485W        W93988  27.151  40.977  13.488
34486W        W93989  19.259  23.137  14.380
34487W        W93990  30.036  22.083   1.754
34488W        W93991  40.489  17.702  11.107
34489W        W93992  13.680  16.698   2.214
34490W        W93993  22.045   8.286  10.441
34491W        W93994  44.870  18.201  11.919
34492W        W93995  10.207  40.431   1.713
34493W        W93996  38.463  30.641   3.349
34494W        W93997  32.974  16.662  12.067
34495W        W93998   3.883  10.351  12.046
34496W        W93999  40.906  19.192   4.641
34497W        W94000   3.836  30.510   2.268
34498W        W94001  37.972  30.941   2.386
34499W        W94002  25.185   9.240  11.480
34500W        W94003  17.129   2.284  13.439
34501W        W94004   9.385   2.945  13.362
34502W        W94005  11.687  34.463   2.325
34503W        W94006   0.954  33.013   2.315
34504W        W94007  19.666   1.893   3.727
34505W        W94008   3.838  24.184   1.719
34506W        W94009   4.719   8.383  11.990
34507W        W94010  32.510   8.288   0.364
34508W        W94011  30.470  11.135  14.838
34509W        W94012  24.495  26.146   2.184
34510W        W94013   1.796  36.374   2.393
34511W        W94014  27.450   6.242   2.360
34512W        W94015   0.744  38.414   2.732
34513W        W94016  29.593  25.488   2.282
34514W        W94017  19.086  29.989   4.298
34515W        W94018   7.252  26.578  14.903
34516W        W94019   4.311  40.370  10.476
34517W        W94020   0.848  24.531   2.712
34518W        W94021  25.663  25.988  11.584
34519W        W94022  17.150  26.669  13.463
34520W        W94023  34.558  33.979  12.515
34521W        W94024  37.063  11.232   0.887
34522W        W94025  17.107  37.339   5.194
34523W        W94026  28.557  15.299   4.234
34524W        W94027  13.268  32.991  10.980
34525W        W94028  29.545  38.385   2.310
34526W        W94029   7.730  15.142  13.815
34527W        W94030  19.542  39.061  12.935
34528W        W94031  27.144  15.653   2.897
34529W        W94032  10.151  21.161   0.463
34530W        W94033  26.673  36.079   2.334
34531W        W94034  43.457  16.639   2.364
34532W        W94035  20.199  21.153  11.027
34533W        W94036  43.282   3.319  12.366
34534W        W94037   8.262   9.229   4.654
34535W        W94038  10.721  37.506  14.881
34536W        W94039  12.757   5.208   1.875
34537W        W94040  11.215  29.121   4.753
34538W        W94041  41.034  34.017   4.225
34539W        W94042  12.736  31.633   3.236
34540W        W94043  38.505  30.616   3.667
34541W        W94044  22.011   5.322   2.212
34542W        W94045  30.160  25.556  14.015
34543W        W94046  20.234  37.349   4.149
34544W        W94047  24.722  31.906  11.491
34545W        W94048  22.645  32.885  11.119
34546W        W94049  43.841  14.308   3.161
34547W        W94050   7.408  22.067  14.347
34548W        W94051   4.393  34.508   4.789
34549W        W94052  25.061  40.921   2.753
34550W        W94053  19.087  16.756  11.596
34551W        W94054  32.513  19.606   2.237
34552W        W94055  12.199  34.508  12.859
34553W        W94056  41.457  26.492   1.450
34554W        W94057   4.746  21.206   3.852
34555W        W94058  28.132  26.514   9.557
34556W        W94059  27.979   8.197  13.004
34557W        W94060  10.317  42.867   4.739
34558W        W94061  37.489   8.169  12.050
34559W        W94062   4.293  44.460  10.012
34560W        W94063  32.890   5.289  12.000
34561W        W94064  29.119   6.841   1.361
34562W        W94065  20.073  13.823   4.351
34563W        W94066  30.132  42.487  11.381
34564W        W94067  36.443  27.477   3.260
34565W        W94068   5.315  34.990  14.424
34566W        W94069   0.438   8.340  12.835
34567W        W94070  14.110  42.511   1.765
34568W        W94071   9.783   1.901  12.090
34569W        W94072  43.866  28.178   3.294
34570W        W94073  14.820  25.209  13.996
34571W        W94074  36.427  29.553   0.804
34572W        W94075  35.498   4.761   2.293
34573W        W94076  25.072   6.863  12.353
34574W        W94077   2.407  43.844  13.541
34575W        W94078  33.108   8.677   0.896
34576W        W94079  24.514  15.579  11.963
34577W        W94080   9.344  29.170   0.383
34578W        W94081   3.726  23.623  10.538
34579W        W94082  17.280  35.975  12.560
34580W        W94083  43.387  30.562   0.289
34581W        W94084   2.468   4.844  13.981
34582W        W94085  15.099  18.660  10.485
34583W        W94086  18.637  10.835   2.718
34584W        W94087  30.648   3.430   2.664
34585W        W94088  24.134  23.113  10.953
34586W        W94089  37.833  44.265   1.220
34587W        W94090  35.499   2.238   3.312
34588W        W94091  23.656  32.043  14.898
34589W        W94092   2.319   0.478   4.345
34590W        W94093  44.287  31.640  11.474
34591W        W94094  33.080  33.980  12.908
34592W        W94095   3.219   8.768   0.942
34593W        W94096  39.853  24.658  14.346
34594W        W94097   2.350  43.466  14.338
34595W        W94098  28.993  15.667   3.156
34596W        W94099  22.219   5.726   4.743
34597W        W94100  14.258  30.617  13.505
34598W        W94101  20.740  39.465   2.291
34599W        W94102  18.593  16.283   2.389
34600W        W94103  14.668  21.660   0.752
34601W        W94104  31.043   5.700  10.469
34602W        W94105  40.467  39.992   5.130
34603W        W94106  16.318  32.566   0.836
34604W        W94107  35.055  26.677   4.228
34605W        W94108  28.627  13.188   1.418
34606W        W94109  42.944  14.826   0.278
34607W        W94110  18.649   1.911  10.099
34608W        W94111   3.421  12.283  14.492
34609W        W94112   2.288   9.149   1.798
34610W        W94113  41.389  34.097   0.877
34611W        W94114  32.499  40.542  11.975
34612W        W94115  31.609   5.293  12.486
34613W        W94116  44.455  20.724  13.932
34614W        W94117  29.629  22.521  13.871
34615W        W94118  22.114   1.835   9.957
34616W        W94119  17.278  41.312   0.841
34617W        W94120  13.770  35.910   3.357
34618W        W94121  17.117  30.953   3.327
34619W        W94122  20.132   4.288   0.380
34620W        W94123  27.993  42.453   2.411
34621W        W94124  12.125   1.344  14.276
34622W        W94125   4.840  35.435   4.121
34623W        W94126   1.242  20.591  13.035
34624W        W94127  31.087   5.286   2.401
34625W        W94128   6.209  25.480   4.203
34626W        W94129   9.831   8.228   0.795
34627W        W94130  26.573  41.817  12.854
34628W        W94131  39.949  36.364   3.347
34629W        W94132  39.028  14.118   3.798
34630W        W94133  30.568  21.180  10.511
34631W        W94134  44.778   7.356   1.769
34632W        W94135  36.067  35.498   0.920
34633W        W94136  33.416  23.192   3.356
34634W        W94137  13.704  13.288   2.342
34635W        W94138   9.760  21.646  10.453
34636W        W94139  11.223  28.485   3.319
34637W        W94140  19.207  24.015  12.860
34638W        W94141  26.952  12.174  12.047
34639W        W94142  30.016  44.888  11.519
34640W        W94143  16.159   6.237   1.307
34641W        W94144  37.445  11.746  14.801
34642W        W94145  25.581  26.584  11.403
34643W        W94146  10.865  17.155  10.447
34644W        W94147  34.473  29.159  11.069
34645W        W94148  41.404   9.851   1.769
34646W        W94149  26.073   3.762  10.938
34647W        W94150  24.656  23.101  11.427
34648W        W94151  16.566   3.337  13.063
34649W        W94152   4.378  38.055   4.334
34650W        W94153  37.842  15.329   0.741
34651W        W94154  23.202  35.601  14.361
34652W        W94155   5.273   0.408  14.335
34653W        W94156  14.708   9.645   1.845
34654W        W94157  12.825  26.066  10.415
34655W        W94158  17.139  28.960   1.905
34656W        W94159  29.596  18.783  11.432
34657W        W94160  43.344  40.478  12.088
34658W        W94161  22.691  36.092   2.894
34659W        W94162  41.021  35.474  14.283
34660W        W94163  21.034  17.262   4.748
34661W        W94164   5.306  42.018  12.037
34662W        W94165  15.649  30.128  13.360
34663W        W94166  20.566  28.998   3.150
34664W        W94167   9.729   8.739   4.115
34665W        W94168  22.516  19.635   1.810
34666W        W94169   8.721  43.381   1.438
34667W        W94170  21.219   6.915  13.313
34668W        W94171  20.220   5.326   3.229
34669W        W94172   9.341  16.096  12.868
34670W        W94173   7.888  30.473   0.857
34671W        W94174  27.597   3.840   0.251
34672W        W94175   4.777   6.722   0.380
34673W        W94176   7.733   0.255   2.413
34674W        W94177  35.998   8.162   0.875
34675W        W94178   3.364  41.909   2.270
34676W        W94179  30.034  27.091  14.367
34677W        W94180  29.929  29.480  11.964
34678W        W94181  13.334  25.712   4.175
34679W        W94182  25.632   9.827  14.431
34680W        W94183  44.268  12.250  13.462
34681W        W94184  16.227  39.993   1.866
34682W        W94185  35.365  25.097   3.287
34683W        W94186   5.292  19.260  13.348
34684W        W94187   5.696  11.220  11.916
34685W        W94188  41.504  28.992  10.576
34686W        W94189  23.137   1.378  13.528
34687W        W94190  37.878  37.456  14.290
34688W        W94191   5.293   6.230  11.397
34689W        W94192  14.184  25.699   4.322
34690W        W94193  18.650  38.443  10.470
34691W        W94194  16.807  42.495   2.760
34692W        W94195  38.918   9.322   3.161
34693W        W94196  39.545  10.805   3.800
34694W        W94197  43.870  36.506   3.829
34695W        W94198  43.468  30.960   1.415
34696W        W94199   6.282   6.277  14.968
34697W        W94200   7.702  42.942   0.778
34698W        W94201  19.739  34.080  11.967
34699W        W94202  38.529  25.680  14.859
34700W        W94203  14.617  39.417  14.487
34701W        W94204  18.746  33.063   4.819
34702W        W94205  35.044  38.564  12.991
34703W        W94206  18.687   1.789   2.706
34704W        W94207   5.859  17.788   1.872
34705W        W94208  39.527  39.975  12.089
34706W        W94209  22.630  19.600   0.859
34707W        W94210  28.158   8.698   0.951
34708W        W94211  30.128  21.606  14.512
34709W        W94212  23.561  34.877   0.351
34710W        W94213  25.075  15.658   2.754
34711W        W94214  28.647  21.239  14.798
34712W        W94215  31.900  38.463  13.404
34713W        W94216  34.905   6.281   3.633
34714W        W94217  28.929  23.658  10.488
34715W        W94218  41.299  18.604   3.192
34716W        W94219   6.799   3.878   3.738
34717W        W94220   4.211   2.333  11.957
34718W        W94221  39.421  30.082  13.942
34719W        W94222  35.546  38.439  13.364
34720W        W94223  25.619  38.928   3.328
34721W        W94224   7.226  37.494   1.367
34722W        W94225  22.191  11.626   4.227
34723W        W94226  17.283  10.284   5.175
34724W        W94227  39.542   8.356  10.057
34725W        W94228  12.854  27.454   4.206
34726W        W94229  26.648   4.921   4.346
34727W        W94230   5.874  16.793   4.214
34728W        W94231  22.589   7.674   4.157
34729W        W94232   4.290   9.191   3.755
34730W        W94233   7.176  21.022   1.368
34731W        W94234   6.253  39.918  10.131
34732W        W94235  15.264  41.442   1.853
34733W        W94236  44.334  35.094   2.219
34734W        W94237   3.717  20.601   1.345
34735W        W94238  14.813   7.269   2.406
34736W        W94239  27.992  32.011   4.734
34737W        W94240   0.771  30.500  12.965
34738W        W94241  26.044   2.464   4.240
34739W        W94242   6.703  37.365   1.913
34740W        W94243  24.197   9.794   1.413
34741W        W94244  25.962  10.862  13.846
34742W        W94245  18.292  26.690   4.301
34743W        W94246  16.078   7.236  12.470
34744W        W94247  25.964  24.022   3.339
34745W        W94248  40.460  15.778   3.707
34746W        W94249  12.750  41.882   3.682
34747W        W94250  43.387  18.267   1.435
34748W        W94251  38.943   8.805   5.163
34749W        W94252  43.833   0.324  10.526
34750W        W94253   2.405  27.614   2.716
34751W        W94254   7.218  37.408  12.976
34752W        W94255  43.299  18.101  10.421
34753W        W94256   4.264   6.795   0.440
34754W        W94257  42.462   2.780   4.815
34755W        W94258   0.743  10.208  12.832
34756W        W94259  21.244  13.344   0.877
34757W        W94260   4.855  12.856  14.761
34758W        W94261  21.156   4.815   1.383
34759W        W94262  26.173  36.890   2.768
34760W        W94263  12.130  22.118   2.857
34761W        W94264  35.900   3.266   1.817
34762W        W94265  37.905  30.054   4.254
34763W        W94266   2.365  23.184   0.389
34764W        W94267  13.113  40.362   1.735
34765W        W94268  23.105  30.926   0.887
34766W        W94269  26.558  35.037  12.358
34767W        W94270   6.407  36.397  10.989
34768W        W94271  38.405  36.484  14.960
34769W        W94272  24.090  38.021  10.910
34770W        W94273  43.295   3.446  10.912
34771W        W94274   4.438  41.401  13.047
34772W        W94275  13.728   4.238   2.680
34773W        W94276  23.146  36.862   2.276
34774W        W94277  21.248   1.850  11.925
34775W        W94278  33.949  42.369   3.661
34776W        W94279  30.111  34.962   1.859
34777W        W94280  25.564  30.115   2.866
34778W        W94281  18.675  36.881  14.323
34779W        W94282  39.515   0.844  13.866
34780W        W94283  28.951   4.435   1.451
34781W        W94284  14.162   8.197   4.726
34782W        W94285  42.004  40.950  13.871
34783W        W94286  16.718  39.843  13.420
34784W        W94287  38.447  23.697  14.820
34785W        W94288  41.376  38.391   4.261
34786W        W94289  40.851  21.018   0.473
34787W        W94290  11.324  43.404  14.782
34788W        W94291  18.177  15.687  13.820
34789W        W94292  37.891  34.909  12.424
34790W        W94293  23.125  40.970  11.596
34791W        W94294  39.046  20.166  14.970
34792W        W94295  40.435  39.339   4.153
34793W        W94296  19.555  28.160  14.931
34794W        W94297  31.919   8.336   2.259
34795W        W94298  11.141  23.652   4.634
34796W        W94299  42.411  20.653   4.645
34797W        W94300  33.530   1.460  12.534
34798W        W94301  36.543  33.620   1.418
34799W        W94302   1.414  31.454   2.711
34800W        W94303   3.723  34.611   0.380
34801W        W94304   1.790  37.896   1.754
34802W        W94305  35.967  11.642  14.276
34803W        W94306  30.612  19.622   1.699
34804W        W94307  37.426  33.101   2.727
34805W        W94308  21.696  30.576   0.909
34806W        W94309  40.439   7.327  13.810
34807W        W94310  22.215  11.259   2.858
34808W        W94311   1.440  18.128  12.956
34809W        W94312  32.415   5.747   0.318
34810W        W94313   9.800  20.217   1.865
34811W        W94314   3.274  30.630  12.075
34812W        W94315  19.101  38.927   3.748
34813W        W94316  18.116  43.905   0.826
34814W        W94317  17.167   0.408   4.296
34815W        W94318  30.996  42.977  13.941
34816W        W94319  22.591   0.909  11.884
34817W        W94320  33.468  20.142   0.850
34818W        W94321  43.442  43.014   2.191
34819W        W94322  30.035  19.725  13.538
34820W        W94323  32.565  24.564  13.366
34821W        W94324  17.728  26.045   3.382
34822W        W94325  13.765  21.514  13.511
34823W        W94326   9.152  14.149  12.436
34824W        W94327   2.864  24.494  11.501
34825W        W94328  25.141  13.797  13.802
34826W        W94329  35.599  22.226  11.930
34827W        W94330   5.222  42.028   0.916
34828W        W94331  42.352  16.304   2.236
34829W        W94332  35.098  16.696   2.677
34830W        W94333   8.831   2.360   2.850
34831W        W94334  39.980  39.340   1.425
34832W        W94335  28.604   0.394   4.735
34833W        W94336  41.036  30.163  12.477
34834W        W94337  15.310  29.923   4.292
34835W        W94338   0.888  11.670  13.937
34836W        W94339  34.590   0.457   3.678
34837W        W94340  32.052  30.977  12.837
34838W        W94341   7.769  32.061  14.800
34839W        W94342  34.971  34.581   2.254
34840W        W94343  37.524  26.679  12.342
34841W        W94344   8.655  44.381   0.752
34842W        W94345  28.678   3.812   4.626
34843W        W94346  25.508  35.467   3.739
34844W        W94347  38.525  17.581  11.899
34845W        W94348  40.405  31.627  14.862
34846W        W94349  26.093  39.986   3.810
34847W        W94350  30.068  26.156   3.716
34848W        W94351  29.501  17.147   5.182
34849W        W94352  33.010  20.096   3.730
34850W        W94353   3.277  26.198  14.021
34851W        W94354  25.054  39.395   0.728
34852W        W94355  43.371  14.636  10.977
34853W        W94356   9.237  22.117  10.426
34854W        W94357  27.016  15.666   3.184
34855W        W94358  23.217   3.242   1.807
34856W        W94359  12.846  30.497  11.114
34857W        W94360   1.911   1.835   2.756
34858W        W94361  42.826  36.970  13.343
34859W        W94362   6.331   3.799   3.636
34860W        W94363  12.156  37.474  13.354
34861W        W94364  13.741   6.746   1.388
34862W        W94365   4.307  11.145  13.976
34863W        W94366  37.421  34.433  14.876
34864W        W94367   1.857  19.669   3.189
34865W        W94368  26.543  17.138  14.820
34866W        W94369   6.344  29.045  14.932
34867W        W94370   6.346  14.170  12.929
34868W        W94371  20.114  14.299   4.259
34869W        W94372  33.055  23.684  12.890
34870W        W94373  31.544  19.739  13.970
34871W        W94374  37.425  37.997   0.445
34872W        W94375  43.378  14.632   0.362
34873W        W94376  16.159  34.868  12.033
34874W        W94377  31.138  32.894  14.961
34875W        W94378  39.040  39.809   2.687
34876W        W94379  19.132  43.845   2.328
34877W        W94380  30.655  13.279  14.950
34878W        W94381  28.143   9.755   0.821
34879W        W94382   1.755  21.518  14.313
34880W        W94383  32.952   0.848   2.696
34881W        W94384  23.640  42.841  13.989
34882W        W94385  36.848   4.287  12.842
34883W        W94386   2.795  17.115  14.947
34884W        W94387   4.773  15.305   1.811
34885W        W94388  38.061  35.992  13.956
34886W        W94389  22.622  14.606   1.266
34887W        W94390  31.940  14.628   5.114
34888W        W94391   2.887   8.186  11.002
34889W        W94392   8.838  15.649  10.913
34890W        W94393  33.039  35.552  12.386
34891W        W94394   0.356  28.118  13.814
34892W        W94395   7.712  15.280  14.436
34893W        W94396   7.262  43.331  13.911
34894W        W94397  30.572   2.843   0.733
34895W        W94398  18.628  31.073  13.374
34896W        W94399   5.300  17.065  14.918
34897W        W94400   3.774   2.358  11.413
34898W        W94401   6.806  20.028   0.334
34899W        W94402  10.209  36.376  11.882
34900W        W94403  11.302  24.558  10.492
34901W        W94404  28.994  22.106   3.800
34902W        W94405  11.206  24.063  11.514
34903W        W94406  23.495  22.597   1.282
34904W        W94407  15.204  21.642  12.006
34905W        W94408   7.813  12.636   1.824
34906W        W94409  17.304  29.448  13.489
34907W        W94410  34.427  38.030  10.558
34908W        W94411  44.446  32.963  11.111
34909W        W94412  44.930  17.271  10.920
34910W        W94413  23.518   7.857  12.378
34911W        W94414  16.289   5.873   2.756
34912W        W94415   0.459  28.983  13.001
34913W        W94416  26.096  22.199  14.346
34914W        W94417  24.710  31.990   1.355
34915W        W94418  43.504   9.288   0.763
34916W        W94419  12.261  15.251   1.903
34917W        W94420  11.653  22.560   2.719
34918W        W94421  10.255  21.745   2.755
34919W        W94422  26.028  14.198   3.733
34920W        W94423   7.413  39.321  11.441
34921W        W94424  24.990   8.347  14.475
34922W        W94425  43.871  37.911  13.546
34923W        W94426  15.812  44.501  11.390
34924W        W94427  19.272  22.535   3.810
34925W        W94428  36.402  43.847   0.404
34926W        W94429  29.967  33.936  11.568
34927W        W94430   8.226   2.384   2.256
34928W        W94431  13.739  17.147   4.307
34929W        W94432  22.190  26.610   1.348
34930W        W94433  16.636  32.465   2.323
34931W        W94434  35.028  16.578   4.764
34932W        W94435   9.837  36.869  13.852
34933W        W94436  43.503  34.916  12.918
34934W        W94437   7.218  37.083   3.180
34935W        W94438  27.115  22.196   0.824
34936W        W94439  19.556  39.328   4.200
34937W        W94440  15.134  24.207  10.940
34938W        W94441   1.889   5.925  11.516
34939W        W94442  40.911  29.542   2.358
34940W        W94443  14.220  43.910   2.723
34941W        W94444  22.241   3.419  14.806
34942W        W94445  20.588  26.680  10.556
34943W        W94446  12.712   0.404   1.700
34944W        W94447   6.771  20.567   1.413
34945W        W94448  14.802  35.378  11.390
34946W        W94449  21.703  20.102  11.932
34947W        W94450  16.613   7.689  14.853
34948W        W94451  17.724   4.418   3.783
34949W        W94452  34.099  30.535   2.395
34950W        W94453  28.955  15.308   3.840
34951W        W94454   0.318  24.986  11.024
34952W        W94455  11.861  12.849   4.158
34953W        W94456  12.785  17.072  11.856
34954W        W94457  39.060  11.759  13.989
34955W        W94458  15.197  28.495  10.404
34956W        W94459  13.343  33.415   9.572
34957W        W94460  23.569   5.782  14.357
34958W        W94461  17.198  23.597  10.530
34959W        W94462  19.673   1.339   3.212
34960W        W94463  39.025  15.656   2.340
34961W        W94464  41.888  10.834  14.345
34962W        W94465   8.292   1.840   1.262
34963W        W94466  33.448   4.311  14.407
34964W        W94467  24.506   3.709  12.055
34965W        W94468  10.175  14.205  11.601
34966W        W94469  14.233  28.144   2.727
34967W        W94470   1.414  29.575   2.194
34968W        W94471  21.519  15.623   9.959
34969W        W94472  12.675   7.695   4.237
34970W        W94473  40.800   1.418  12.536
34971W        W94474  34.372  15.670   3.286
34972W        W94475  26.982  42.006   4.714
34973W        W94476  42.795   7.682   9.570
34974W        W94477   1.282   0.967   0.324
34975W        W94478   7.753  11.694  14.780
34976W        W94479  31.016  41.043  12.038
34977W        W94480  36.989  16.630   3.317
34978W        W94481  17.138  29.456  14.351
34979W        W94482  32.051  24.504  12.520
34980W        W94483  40.403  37.869  10.451
34981W        W94484  38.465  21.149  14.381
34982W        W94485  17.755  10.842   2.229
34983W        W94486   6.216   6.327  11.098
34984W        W94487  40.458  30.105  13.417
34985W        W94488  28.580  28.679   0.406
34986W        W94489  17.725  42.914  12.061
34987W        W94490  13.249   2.883  14.403
34988W        W94491  25.036  16.590  10.626
34989W        W94492  28.549  14.707   1.394
34990W        W94493   6.897  28.954  12.044
34991W        W94494  44.431  27.069   9.995
34992W        W94495  35.923  14.244  12.988
34993W        W94496  22.706  24.097   3.781
34994W        W94497  36.372  18.583  13.507
34995W        W94498  43.798  44.425   2.746
34996W        W94499  44.884   8.312   3.664
34997W        W94500   5.237  43.471   9.996
34998W        W94501   2.749  19.634  12.045
34999W        W94502   7.865  43.448   2.280
35000W        W94503  12.286  38.496  10.639
35001W        W94504  40.019  42.304  11.014
35002W        W94505  39.314   0.876   3.637
35003W        W94506  36.001   0.947   2.340
35004W        W94507  41.857   6.892   3.330
35005W        W94508  44.425  13.844  11.436
35006W        W94509  25.709  15.209   3.772
35007W        W94510   4.863  18.721   1.334
35008W        W94511  32.129  14.597  14.932
35009W        W94512  41.942  18.260   1.773
35010W        W94513  32.515  39.467  13.308
35011W        W94514  15.620   9.234  13.440
35012W        W94515  35.920  39.482  13.943
35013W        W94516   2.368  14.116  14.388
35014W        W94517  24.212   6.191  10.541
35015W        W94518  14.174  12.711  11.412
35016W        W94519  12.291  11.692   3.385
35017W        W94520   9.158   2.896   3.315
35018W        W94521  44.959  23.618  10.487
35019W        W94522  24.053  38.490  13.328
35020W        W94523   5.868  27.493   2.691
35021W        W94524   6.213  12.680   1.792
35022W        W94525  13.275  31.015   3.831
35023W        W94526  21.180  37.480  13.525
35024W        W94527   3.812  30.556  11.472
35025W        W94528  27.648  31.142  14.774
35026W        W94529  13.182  13.314  14.851
35027W        W94530  31.062  13.630  12.537
35028W        W94531  27.500  33.961   4.256
35029W        W94532  28.497  12.757   4.120
35030W        W94533   8.747  22.105   2.369
35031W        W94534  38.068  15.775   4.314
35032W        W94535  28.634  38.504  11.468
35033W        W94536  34.067  32.109  11.058
35034W        W94537   1.440  34.381   4.114
35035W        W94538  18.663  25.488  10.421
35036W        W94539  17.634  34.863   0.279
35037W        W94540  24.694  35.037  12.862
35038W        W94541  28.007  39.328   5.170
35039W        W94542  19.280  22.198  13.793
35040W        W94543  37.960   2.461  11.941
35041W        W94544  33.613  27.485  12.556
35042W        W94545  23.517  19.090  14.286
35043W        W94546   9.760  30.004  11.400
35044W        W94547  34.920  17.208   2.846
35045W        W94548  40.535   1.878   2.763
35046W        W94549  31.936   0.986   1.338
35047W        W94550  30.932  28.051   2.902
35048W        W94551  16.158  31.018  14.466
35049W        W94552   9.771  34.500   3.688
35050W        W94553  16.286  17.651   2.892
35051W        W94554  31.085   6.193   1.805
35052W        W94555  42.822   9.739  10.151
35053W        W94556  42.290  21.696   3.343
35054W        W94557   2.793  36.975   2.272
35055W        W94558   3.298  39.049  11.078
35056W        W94559  12.249   2.456   1.737
35057W        W94560  39.458  13.166  11.436
35058W        W94561  24.663   7.762  11.933
35059W        W94562  27.560  17.107  12.847
35060W        W94563  40.395  11.796   0.929
35061W        W94564  32.072  30.560  11.123
35062W        W94565  40.887   2.810  14.831
35063W        W94566  14.742  25.573   3.343
35064W        W94567  28.970  22.172  12.376
35065W        W94568  41.868  16.157   2.383
35066W        W94569  17.195  18.212   4.348
35067W        W94570  10.729  44.971   0.351
35068W        W94571  40.349   9.299  12.544
35069W        W94572   9.839  40.921   4.166
35070W        W94573  18.171  33.894   0.883
35071W        W94574  36.475   4.850   4.798
35072W        W94575  41.501  30.525  11.396
35073W        W94576  15.193  27.664  11.586
35074W        W94577  30.934  16.110   2.804
35075W        W94578  39.500  24.988  10.430
35076W        W94579  42.499   7.231  12.502
35077W        W94580  16.226  24.087  10.609
35078W        W94581  28.575  42.960  14.436
35079W        W94582  34.393  14.815   1.451
35080W        W94583   6.271  21.591   2.767
35081W        W94584   0.265   2.869  11.112
35082W        W94585   5.895   3.780   0.444
35083W        W94586  12.131  24.998  14.390
35084W        W94587  12.241  34.390  11.871
35085W        W94588   9.735  29.536   4.602
35086W        W94589   8.244  11.766   2.369
35087W        W94590   6.794   9.862   2.689
35088W        W94591   2.421   5.881   9.999
35089W        W94592  23.174  23.685   2.870
35090W        W94593  37.003   7.909   2.411
35091W        W94594  26.114  28.962  11.898
35092W        W94595   5.866  19.754   3.697
35093W        W94596  12.196  20.047   2.685
35094W        W94597  24.599  26.519  14.502
35095W        W94598  15.590  35.980   3.386
35096W        W94599  37.957  32.418   1.717
35097W        W94600  10.650  18.587  12.530
35098W        W94601  30.002  18.713   0.940
35099W        W94602  27.021  40.994   3.196
35100W        W94603  35.528  23.618   0.358
35101W        W94604  25.709   0.302   4.245
35102W        W94605  20.638  44.409   4.205
35103W        W94606  11.203   9.812  11.868
35104W        W94607  28.174  25.089   3.209
35105W        W94608  10.778  23.121  12.430
35106W        W94609   0.413  22.151   1.448
35107W        W94610   0.471   4.723   3.174
35108W        W94611  33.033   3.749   0.403
35109W        W94612   7.204  42.333   4.648
35110W        W94613  25.092  20.274  12.560
35111W        W94614   4.809   4.438  12.376
35112W        W94615  18.208   6.851  10.914
35113W        W94616  43.407  11.164   1.926
35114W        W94617  27.520  27.141  13.422
35115W        W94618  41.857  26.973   1.822
35116W        W94619  34.005  30.015  13.495
35117W        W94620  38.032   8.202  13.463
35118W        W94621  15.744  36.069   9.920
35119W        W94622  17.653   9.199  13.966
35120W        W94623  18.155  42.926  14.867
35121W        W94624  37.554  38.333  13.354
35122W        W94625   0.261  18.269   2.386
35123W        W94626  24.121  43.298  13.055
35124W        W94627  24.662  29.143  14.436
35125W        W94628  28.553  43.862   0.461
35126W        W94629   6.191  27.142   0.365
35127W        W94630   2.893  16.799   2.679
35128W        W94631  44.817   3.918   1.419
35129W        W94632   0.460   1.325   0.307
35130W        W94633  31.098   4.892   2.398
35131W        W94634   6.742  21.056   2.294
35132W        W94635   4.781  15.783   9.989
35133W        W94636  32.569  34.969  11.930
35134W        W94637   8.759  25.489  13.908
35135W        W94638  29.064   7.757   4.347
35136W        W94639  20.649  17.672   1.383
35137W        W94640   4.296  37.580  10.002
35138W        W94641   0.409  36.576   2.318
35139W        W94642  43.920  36.064   0.928
35140W        W94643   9.366  43.827  14.975
35141W        W94644  42.782  29.552  14.282
35142W        W94645  38.842  40.542  10.433
35143W        W94646  29.133  17.665   2.861
35144W        W94647  31.970   0.258  13.939
35145W        W94648  11.202  14.311   4.230
35146W        W94649  37.070  10.227   3.655
35147W        W94650  35.944  18.070  13.920
35148W        W94651  28.487  35.409  12.900
35149W        W94652  16.269  24.623  13.429
35150W        W94653  15.663  28.490   0.377
35151W        W94654   4.205  21.182  11.448
35152W        W94655  32.967  26.570  12.517
35153W        W94656  40.341  25.651  11.008
35154W        W94657  32.426  13.800  13.376
35155W        W94658   4.442  13.732  12.368
35156W        W94659  41.356   3.897   0.481
35157W        W94660  24.540  25.652   4.355
35158W        W94661  28.678  37.474  11.391
35159W        W94662  40.828  29.666   3.834
35160W        W94663   5.831  28.657   2.417
35161W        W94664   0.298  41.455  13.925
35162W        W94665  23.605  30.658  13.418
35163W        W94666  39.554   5.310  14.380
35164W        W94667  11.625  15.646  10.605
35165W        W94668   2.911  39.333  12.556
35166W        W94669  42.308  10.766   2.700
35167W        W94670  29.036  20.238  10.533
35168W        W94671  40.027  14.608   3.250
35169W        W94672  15.313  28.513   4.633
35170W        W94673  28.510   0.976   4.282
35171W        W94674  30.650  10.693  14.466
35172W        W94675  20.039  13.601  10.975
35173W        W94676  19.672  42.831   2.670
35174W        W94677   6.920  44.888  13.507
35175W        W94678   9.757   3.393  13.348
35176W        W94679  31.992  29.481   0.273
35177W        W94680  29.042  43.276  12.916
35178W        W94681  19.612  23.707  12.572
35179W        W94682  32.969  14.727   3.798
35180W        W94683  39.057   2.782  10.542
35181W        W94684  30.973   7.249  12.993
35182W        W94685  17.216  31.418   3.846
35183W        W94686  31.943  25.991   2.770
35184W        W94687  24.524  44.769   3.851
35185W        W94688  12.123  23.531   1.227
35186W        W94689  29.037  11.263   4.328
35187W        W94690  16.155   3.752   0.324
35188W        W94691  27.987  40.308  11.978
35189W        W94692  39.988  19.071  14.792
35190W        W94693  39.897  18.770   4.731
35191W        W94694   1.885  28.596  12.826
35192W        W94695  43.350   5.226   4.597
35193W        W94696  10.805  38.058   3.281
35194W        W94697  27.536  41.957   2.718
35195W        W94698  34.872  30.076  13.800
35196W        W94699  16.688  24.115  13.032
35197W        W94700   8.376  36.528   2.302
35198W        W94701  20.617  27.018  13.975
35199W        W94702  43.390  28.994  13.358
35200W        W94703  43.949   8.692  12.851
35201W        W94704  12.661  24.119  10.516
35202W        W94705  18.707   3.789   1.434
35203W        W94706  13.125  30.068   4.665
35204W        W94707   4.427  44.261  12.411
35205W        W94708  13.654  32.936   3.830
35206W        W94709   1.335  31.488   9.452
35207W        W94710   6.779  10.799   0.442
35208W        W94711  35.402  23.503   1.392
35209W        W94712  27.102  43.440  13.049
35210W        W94713  28.939  15.616   3.864
35211W        W94714   0.352  26.071  11.118
35212W        W94715  36.393  21.750   0.407
35213W        W94716   4.265   0.824   0.352
35214W        W94717  16.185  44.466   0.424
35215W        W94718  41.323  17.699  10.638
35216W        W94719   8.266  10.188  13.045
35217W        W94720  24.677  20.618   4.720
35218W        W94721  33.476  19.632  10.981
35219W        W94722  22.233  31.641   1.801
35220W        W94723  30.563   5.327   1.225
35221W        W94724  38.397  21.259  13.981
35222W        W94725  16.287  27.066  12.525
35223W        W94726  25.500  21.219  13.445
35224W        W94727   5.868  17.231   0.904
35225W        W94728  32.516  39.823  12.556
35226W        W94729  33.949  21.218   1.714
35227W        W94730   2.278  44.323  13.926
35228W        W94731  22.655   9.157  10.459
35229W        W94732  31.054   7.866   2.217
35230W        W94733  37.847  22.102  14.509
35231W        W94734  23.706  26.487   1.423
35232W        W94735  10.646  19.557  14.921
35233W        W94736  36.390  23.137   3.332
35234W        W94737  37.889  41.969   2.779
35235W        W94738  44.855  11.213  14.940
35236W        W94739  18.068  40.404  11.009
35237W        W94740  18.208  15.605  10.444
35238W        W94741  43.843  33.111  12.458
35239W        W94742  23.150  21.116  10.573
35240W        W94743  33.094   7.396  10.630
35241W        W94744   3.220  33.546  10.466
35242W        W94745   6.260  42.496  14.884
35243W        W94746  10.160  38.853   3.714
35244W        W94747   0.337  10.712   2.208
35245W        W94748   6.410  23.165  11.959
35246W        W94749  15.325  35.504   4.266
35247W        W94750   1.777  25.134   1.232
35248W        W94751  33.457  35.895   1.274
35249W        W94752  42.805  16.650  13.823
35250W        W94753  22.227   8.875   4.189
35251W        W94754   3.785  22.061  11.027
35252W        W94755  37.009  16.573  11.859
35253W        W94756   2.240  20.057  13.892
35254W        W94757  13.640  15.624   3.180
35255W        W94758  37.366  32.537  13.791
35256W        W94759  33.129  44.925  13.483
35257W        W94760  44.938  11.651  14.418
35258W        W94761  25.011  17.722   3.631
35259W        W94762  28.501  30.967   1.865
35260W        W94763  33.127  36.868   2.201
35261W        W94764  17.653  15.579   1.919
35262W        W94765  37.557  19.585  10.962
35263W        W94766  27.611  15.651  11.521
35264W        W94767  40.519  22.995  11.581
35265W        W94768  27.029  31.023  10.952
35266W        W94769  37.840  38.868   4.786
35267W        W94770  35.897  10.840  14.865
35268W        W94771  26.620   3.306   3.736
35269W        W94772  29.641  23.990  12.997
35270W        W94773  41.822   9.217  11.457
35271W        W94774   2.319  22.033   2.775
35272W        W94775  36.032  29.563  10.906
35273W        W94776  38.452  25.703  12.866
35274W        W94777  31.504  42.358  11.032
35275W        W94778  12.676   1.838  13.860
35276W        W94779  35.030  42.820  13.993
35277W        W94780  16.234   1.868   0.294
35278W        W94781  35.908   8.202  13.426
35279W        W94782  29.437  42.296   2.414
35280W        W94783  36.425  34.540   3.311
35281W        W94784  21.218  35.380   1.232
35282W        W94785  33.533  21.042   3.254
35283W        W94786  36.909  23.650  11.414
35284W        W94787  41.882   9.677  14.992
35285W        W94788  35.428  34.090  12.479
35286W        W94789  14.639  28.632  14.012
35287W        W94790  43.916  24.219  13.036
35288W        W94791  36.541  17.061   2.838
35289W        W94792   9.217   0.376  10.948
35290W        W94793  24.711  12.721  13.458
35291W        W94794  30.073  12.630  13.422
35292W        W94795  38.911  27.647   1.776
35293W        W94796  21.667  17.212  13.470
35294W        W94797   8.759  13.802  12.373
35295W        W94798  34.028  16.776  12.537
35296W        W94799  37.020  20.754   0.321
35297W        W94800  40.931  35.371  12.830
35298W        W94801   4.809  27.082  12.488
35299W        W94802   8.871  38.561   3.313
35300W        W94803   2.947  13.250   4.267
35301W        W94804  32.443  27.635  14.765
35302W        W94805  38.908  32.540  10.476
35303W        W94806  16.235   5.218   0.480
35304W        W94807  19.595   0.864   1.925
35305W        W94808  19.648  27.074   4.673
35306W        W94809  35.094  36.938   2.232
35307W        W94810  11.210   3.930  13.836
35308W        W94811  16.193   2.290   2.258
35309W        W94812  37.453  14.663   4.219
35310W        W94813  25.180  22.606  10.950
35311W        W94814  10.633  24.000   2.731
35312W        W94815   4.395  19.096  10.581
35313W        W94816  28.445  26.632   2.250
35314W        W94817   5.934  15.632  12.554
35315W        W94818  20.615  22.522  11.074
35316W        W94819   7.345  11.333   1.911
35317W        W94820  25.020   3.430  10.606
35318W        W94821  26.058  21.246   3.208
35319W        W94822  36.567   8.269   0.788
35320W        W94823   6.249  32.906   1.885
35321W        W94824  13.293   4.918  14.909
35322W        W94825  15.164  42.800   0.939
35323W        W94826  17.695  23.063  13.810
35324W        W94827  30.927  26.129  10.903
35325W        W94828   7.850  18.583   2.308
35326W        W94829   0.355  22.245  11.010
35327W        W94830  34.068  22.513   0.771
35328W        W94831   2.458  27.484  12.515
35329W        W94832  36.368  23.032  13.992
35330W        W94833   1.314  42.007   2.335
35331W        W94834  19.045  42.863   4.700
35332W        W94835  26.164   1.820   2.899
35333W        W94836   1.245  11.286   3.229
35334W        W94837  40.511  36.570  11.976
35335W        W94838   9.210  15.810  11.477
35336W        W94839   4.869  44.485   0.836
35337W        W94840   2.876  31.928  11.471
35338W        W94841  18.612  39.430   3.652
35339W        W94842  20.272  30.933   0.735
35340W        W94843  35.483  42.820   3.670
35341W        W94844  28.138   2.276   3.681
35342W        W94845  14.179  41.790  13.837
35343W        W94846  13.348  10.876  13.528
35344W        W94847  38.958  30.505  14.333
35345W        W94848   1.314  19.686  13.449
35346W        W94849   6.749  24.151   1.868
35347W        W94850  22.525  33.443  10.604
35348W        W94851   1.934  14.324   4.672
35349W        W94852  16.183   4.285  14.276
35350W        W94853  43.284  23.070   4.266
35351W        W94854   4.927  32.011   0.753
35352W        W94855  10.848   6.275  11.570
35353W        W94856   5.244  43.376   9.478
35354W        W94857  38.330   8.689  12.949
35355W        W94858  31.637  37.355   0.329
35356W        W94859  41.032  25.560   1.854
35357W        W94860  20.179  25.987  14.438
35358W        W94861  14.328  30.038   2.862
35359W        W94862  39.335  31.906  13.890
35360W        W94863  43.932  44.415  11.609
35361W        W94864   6.231  10.781   0.967
35362W        W94865  35.863  17.075   2.192
35363W        W94866  40.521  27.536  14.876
35364W        W94867  44.472  14.154  12.545
35365W        W94868  12.316  20.161  10.524
35366W        W94869  14.627  11.726  14.383
35367W        W94870  13.126  25.998   4.337
35368W        W94871  21.205  24.173   4.720
35369W        W94872  15.581  29.954   1.868
35370W        W94873  30.500  42.823  11.566
35371W        W94874  27.958  26.530  12.874
35372W        W94875  42.339  20.177   5.660
35373W        W94876  35.019  15.646  10.155
35374W        W94877  24.618  14.709  10.579
35375W        W94878  21.122  25.198  14.804
35376W        W94879  19.264  34.043   0.782
35377W        W94880   3.713  13.663   3.840
35378W        W94881  17.749   3.299   2.264
35379W        W94882  30.648   8.291  14.287
35380W        W94883  17.705  15.329   4.199
35381W        W94884  29.534   5.229  13.323
35382W        W94885  40.866  18.217   0.305
35383W        W94886  13.732   7.681   4.268
35384W        W94887  44.397   9.676  14.961
35385W        W94888  12.754  22.698   4.648
35386W        W94889  24.188  43.283   4.695
35387W        W94890   4.885  25.510   4.707
35388W        W94891   2.302   3.812   4.217
35389W        W94892  31.947  30.071   0.258
35390W        W94893  40.826  15.219  10.505
35391W        W94894  20.752   6.308  12.574
35392W        W94895   8.298  44.800  14.459
35393W        W94896   3.850  14.643  11.903
35394W        W94897  11.214  36.021  12.572
35395W        W94898  43.791  12.242  14.761
35396W        W94899  25.086  37.481  11.023
35397W        W94900  33.541  21.243  12.040
35398W        W94901  21.682  16.247  14.496
35399W        W94902  14.592  33.946   3.370
35400W        W94903  36.510  22.590   0.294
35401W        W94904  34.918  17.197  11.461
35402W        W94905  22.218   0.908   1.870
35403W        W94906  42.995  37.934   0.347
35404W        W94907  32.610  37.530   3.378
35405W        W94908  39.919  19.219  12.823
35406W        W94909   1.942  20.597   1.727
35407W        W94910  18.719   7.668  10.499
35408W        W94911  31.586  36.532  14.009
35409W        W94912  22.198  10.753   3.282
35410W        W94913   9.200  22.109  13.362
35411W        W94914   8.884  30.557  11.988
35412W        W94915  36.034  31.140   2.302
35413W        W94916   6.698  13.319   0.455
35414W        W94917  33.405  26.494  12.051
35415W        W94918  11.316  35.042  13.837
35416W        W94919  23.718  10.244   3.753
35417W        W94920  30.140  39.389  14.006
35418W        W94921  17.111  13.623   4.716
35419W        W94922   4.444   4.226   1.895
35420W        W94923   6.209  29.930  11.113
35421W        W94924  42.912   3.256  12.027
35422W        W94925  21.188  18.288  13.843
35423W        W94926   5.859  31.031  11.107
35424W        W94927  13.269  40.506   0.292
35425W        W94928  39.836   6.246   0.467
35426W        W94929  34.968  40.453   5.123
35427W        W94930   5.357  31.025  11.570
35428W        W94931  14.201  21.668   1.771
35429W        W94932  10.731  26.560   2.361
35430W        W94933  15.304  33.000   4.631
35431W        W94934  30.999  22.174  13.867
35432W        W94935   3.907  37.532  11.541
35433W        W94936  20.650  18.580  11.408
35434W        W94937  24.631  27.088   0.359
35435W        W94938   4.232  41.992   0.820
35436W        W94939  44.341  34.514   2.879
35437W        W94940  15.189  32.045  14.425
35438W        W94941  35.441  38.990   3.643
35439W        W94942  37.340   3.920  12.024
35440W        W94943   4.351  43.395   2.669
35441W        W94944  26.025  23.696   4.705
35442W        W94945  29.533   4.718  12.052
35443W        W94946  35.072  40.493   2.746
35444W        W94947  34.020  26.016   5.652
35445W        W94948  23.519  30.064   0.424
35446W        W94949  42.952  41.530  12.933
35447W        W94950   7.348  41.024   4.215
35448W        W94951  17.241  36.512  13.882
35449W        W94952  43.974   8.794  14.884
35450W        W94953  38.362   2.803  13.847
35451W        W94954   3.325  13.230  11.594
35452W        W94955   8.661  18.124   3.695
35453W        W94956  12.621  15.230   4.800
35454W        W94957  28.482   1.327   3.737
35455W        W94958  36.847  36.065   0.416
35456W        W94959  27.553  31.648  14.347
35457W        W94960  24.716   4.450  12.933
35458W        W94961  28.013  15.197  11.011
35459W        W94962  43.886  39.045  13.983
35460W        W94963  33.471  37.508   1.850
35461W        W94964   2.264  21.059   1.321
35462W        W94965  33.926   6.751  14.770
35463W        W94966  28.157  17.204  12.555
35464W        W94967   9.818  44.813  10.909
35465W        W94968  26.578  34.112  14.437
35466W        W94969  44.887  22.079   5.225
35467W        W94970  21.248   9.389   2.179
35468W        W94971  29.070  33.948  12.994
35469W        W94972   2.357  14.667  12.495
35470W        W94973   4.807   0.863  13.812
35471W        W94974  23.230  37.489  10.446
35472W        W94975   2.454   8.827   4.302
35473W        W94976  18.265  40.917   1.849
35474W        W94977  44.804  29.664   2.315
35475W        W94978  43.879  31.139   3.322
35476W        W94979   4.335  17.584   0.300
35477W        W94980  12.251  35.936  11.499
35478W        W94981  29.445   7.176   0.934
35479W        W94982  23.027  31.637  14.927
35480W        W94983  31.139  41.874   1.769
35481W        W94984  14.214   3.863  12.054
35482W        W94985  12.157  14.316  12.917
35483W        W94986  39.418  10.172   3.220
35484W        W94987  27.942  15.128   3.166
35485W        W94988  10.169  21.516  13.512
35486W        W94989  35.515   3.351   4.723
35487W        W94990  10.142  38.425   0.955
35488W        W94991  37.503   9.395  11.983
35489W        W94992  40.820  37.501  12.947
35490W        W94993  18.565  36.492  13.307
35491W        W94994   7.855  16.180   5.128
35492W        W94995  26.119  18.780  10.458
35493W        W94996  38.338  31.969  12.430
35494W        W94997   8.685  39.543  11.056
35495W        W94998  18.620  17.295  11.077
35496W        W94999  22.996  43.842   1.269
35497W        W95000  34.971  25.547  14.971
35498W        W95001  12.170  41.491   3.794
35499W        W95002  42.513   7.792   4.260
35500W        W95003  25.002  26.702   3.318
35501W        W95004   9.155  32.579   1.905
35502W        W95005  22.218  25.197  12.525
35503W        W95006   7.828  15.163   2.181
35504W        W95007  19.640  10.322   3.700
35505W        W95008   3.765   6.240   1.695
35506W        W95009   8.783  38.873  11.888
35507W        W95010   0.865  26.103   4.801
35508W        W95011   5.198  16.705   1.397
35509W        W95012  44.408   2.779  13.475
35510W        W95013  35.472  24.069   0.793
35511W        W95014   3.813   8.756   2.822
35512W        W95015  21.608  36.583   2.863
35513W        W95016  19.282  28.624   4.748
35514W        W95017  44.300  18.732   0.891
35515W        W95018  39.535  35.876  12.958
35516W        W95019   5.411  13.785  13.004
35517W        W95020   1.830  26.576  10.968
35518W        W95021   3.777   5.770  11.502
35519W        W95022  20.228   2.252  13.374
35520W        W95023   7.201  38.976  13.397
35521W        W95024  14.667   0.252  14.823
35522W        W95025  23.662  42.962  14.907
35523W        W95026   7.862  40.856  14.837
35524W        W95027  36.517  15.291   3.165
35525W        W95028  22.996  24.214  10.493
35526W        W95029   4.426   9.788   1.346
35527W        W95030  28.553  42.518   0.846
35528W        W95031  41.982  32.977   0.825
35529W        W95032  22.204   8.349  11.430
35530W        W95033  40.034   7.175   0.353
35531W        W95034   1.851  10.684  13.312
35532W        W95035   3.812  28.547   4.795
35533W        W95036  34.023  23.198   3.351
35534W        W95037   9.712  27.655   2.737
35535W        W95038  41.482  40.386   0.455
35536W        W95039   7.684  20.560   2.676
35537W        W95040  35.015   8.826  12.011
35538W        W95041  26.632   6.758   2.688
35539W        W95042  21.685  12.259   2.231
35540W        W95043  24.994  27.540   4.195
35541W        W95044  12.644  30.949  10.635
35542W        W95045  21.097   4.440  12.524
35543W        W95046  10.353   9.334   1.228
35544W        W95047  29.000  21.163   4.183
35545W        W95048   4.880   3.452   5.198
35546W        W95049   6.362  36.591   1.427
35547W        W95050  24.565   1.897  12.085
35548W        W95051  31.023  16.738   1.323
35549W        W95052  12.225  29.103   1.274
35550W        W95053  23.006  27.991  14.930
35551W        W95054  39.445  11.622   0.480
35552W        W95055  11.231  23.166   1.320
35553W        W95056  44.861  24.081  11.982
35554W        W95057   7.335   4.726   3.807
35555W        W95058  38.887   6.247   2.701
35556W        W95059  15.790  27.629  12.437
35557W        W95060  27.136  23.615  14.336
35558W        W95061  25.623  28.477  12.503
35559W        W95062  23.004  43.305   0.366
35560W        W95063  38.916  38.978  11.376
35561W        W95064  11.308  38.486   0.794
35562W        W95065   7.401  10.197   4.190
35563W        W95066  31.539  17.151  12.408
35564W        W95067  39.995  31.920  13.929
35565W        W95068  24.187  11.210   1.742
35566W        W95069   0.268  35.517  11.384
35567W        W95070  35.524  38.399   2.765
35568W        W95071  17.262  13.799  11.119
35569W        W95072  27.483   3.785  11.592
35570W        W95073   7.773  29.626   2.270
35571W        W95074   3.246  38.058  12.570
35572W        W95075  27.996  30.603  12.848
35573W        W95076  40.388  12.274  11.427
35574W        W95077   2.297  31.993   2.894
35575W        W95078   1.270  24.535  11.895
35576W        W95079  40.819  41.809  10.933
35577W        W95080  27.091  28.117   0.403
35578W        W95081   3.744   6.906   3.246
35579W        W95082   1.966  22.530   2.793
35580W        W95083  44.326  30.962   0.959
35581W        W95084  26.093  16.615  10.957
35582W        W95085   3.372   1.859  10.495
35583W        W95086  12.243  42.327  13.064
35584W        W95087  38.029  27.116   2.182
35585W        W95088  11.306  40.940   4.659
35586W        W95089  44.994   8.244  11.424
35587W        W95090  22.182  23.077  13.409
35588W        W95091  17.687   3.898   4.734
35589W        W95092  35.471   2.283  10.444
35590W        W95093  31.608  30.544  13.521
35591W        W95094  24.225  32.423  13.457
35592W        W95095  22.150   7.416  13.948
35593W        W95096  23.492   7.238   1.932
35594W        W95097  14.319   3.819   1.728
35595W        W95098  30.961  41.385   4.235
35596W        W95099  29.637  27.147  14.847
35597W        W95100  24.080   6.790   1.433
35598W        W95101  44.851   4.944   4.327
35599W        W95102  32.514   4.796  10.994
35600W        W95103  42.028  17.585   0.881
35601W        W95104  25.637  19.051  14.815
35602W        W95105  10.335  16.303  11.047
35603W        W95106  39.472  18.161  10.619
35604W        W95107  43.327  17.297   1.766
35605W        W95108  19.659  12.223  11.930
35606W        W95109  13.649  15.107  12.981
35607W        W95110  42.525  18.087   1.414
35608W        W95111  40.365  14.196  12.379
35609W        W95112  32.131   4.353  14.911
35610W        W95113  25.589  35.013  13.918
35611W        W95114  36.357   6.777  14.973
35612W        W95115  15.784  27.505  11.509
35613W        W95116  12.288  21.145  12.362
35614W        W95117  22.727  15.098  14.959
35615W        W95118   6.354  28.957   1.220
35616W        W95119  40.347  28.625  12.840
35617W        W95120  16.638  27.448   2.827
35618W        W95121  37.941  16.774  14.924
35619W        W95122  10.324   1.475   0.347
35620W        W95123  26.564   8.883  14.492
35621W        W95124  17.584  30.008  11.549
35622W        W95125  24.657  24.678  12.978
35623W        W95126  20.068   2.858  14.031
35624W        W95127  16.730  36.000   3.831
35625W        W95128  35.902  40.509  13.984
35626W        W95129  28.469  12.705  13.368
35627W        W95130  19.143  44.986  14.942
35628W        W95131  42.366  17.098  13.870
35629W        W95132   0.848  30.118   2.761
35630W        W95133  34.419  38.965  10.594
35631W        W95134   1.962  22.187   3.857
35632W        W95135  26.142  43.867  10.006
35633W        W95136   5.367   8.355   4.779
35634W        W95137  21.652  10.218  13.847
35635W        W95138   2.415  17.307  13.403
35636W        W95139  36.975  40.517  13.964
35637W        W95140  20.163  34.932  13.824
35638W        W95141  28.053  34.572  10.116
35639W        W95142  31.071  18.145   2.866
35640W        W95143  18.084   5.723  10.963
35641W        W95144  18.788  15.295   2.390
35642W        W95145  42.905   4.760  10.552
35643W        W95146  42.925  29.050  12.970
35644W        W95147  17.677  23.137  14.963
35645W        W95148  30.127  23.172  14.370
35646W        W95149  43.925  14.262  12.071
35647W        W95150  15.703  31.514   2.860
35648W        W95151  33.623   4.795  14.476
35649W        W95152   4.230   2.797   1.443
35650W        W95153  20.214   7.797  10.558
35651W        W95154   3.827  43.379  12.398
35652W        W95155  23.132  41.474   1.896
35653W        W95156  39.856  36.893   3.347
35654W        W95157  33.449  22.698  11.868
35655W        W95158  28.664  41.473  14.443
35656W        W95159   6.913  10.827   3.701
35657W        W95160  29.628  33.947  11.974
35658W        W95161  44.480  21.531   2.724
35659W        W95162  10.366  42.383  13.325
35660W        W95163  44.857  16.134  12.367
35661W        W95164  24.515   5.909  12.568
35662W        W95165  13.266  18.127   4.236
35663W        W95166  42.790  40.998  10.414
35664W        W95167  26.651   0.905  13.327
35665W        W95168   0.980   6.291  14.447
35666W        W95169   3.809  21.137   3.380
35667W        W95170  23.539   3.878  10.970
35668W        W95171   1.891  25.085   0.259
35669W        W95172  10.362  41.503   5.109
35670W        W95173  38.053  32.981  13.472
35671W        W95174  16.258  27.987   1.930
35672W        W95175  38.873  13.695   1.816
35673W        W95176   2.320  32.029  13.362
35674W        W95177  16.235  43.292  12.448
35675W        W95178   4.854   1.466   3.834
35676W        W95179  24.141  26.057   4.323
35677W        W95180  43.343   1.441   0.308
35678W        W95181  20.234  23.646   1.214
35679W        W95182   4.239  17.254  10.463
35680W        W95183  29.135   6.371  12.898
35681W        W95184  35.445  28.977  10.614
35682W        W95185  23.540   2.878  14.918
35683W        W95186   8.674  16.268  12.560
35684W        W95187  21.093  41.478  14.277
35685W        W95188  38.029  40.445   4.179
35686W        W95189   9.789  37.479   3.290
35687W        W95190  43.881  31.423  14.005
35688W        W95191  10.303  23.734  12.363
35689W        W95192  23.064  28.987   1.397
35690W        W95193  32.058  38.422   3.252
35691W        W95194  19.664   8.669   2.253
35692W        W95195   2.381  36.032  12.899
35693W        W95196  27.012   0.425   9.521
35694W        W95197   5.699  29.593  12.043
35695W        W95198  38.031  24.167   1.838
35696W        W95199  28.176  35.853   4.715
35697W        W95200  15.324   8.864   3.206
35698W        W95201  29.929  35.391  14.488
35699W        W95202  12.625  34.585   2.802
35700W        W95203  27.604  36.920   4.265
35701W        W95204  29.079  39.837   0.760
35702W        W95205  18.096  14.820   0.470
35703W        W95206  44.874  32.546  13.930
35704W        W95207   4.398   0.751  12.861
35705W        W95208  27.940   4.393  12.835
35706W        W95209   5.757  20.251  13.413
35707W        W95210  13.295  33.455   0.424
35708W        W95211  35.498  31.041   0.458
35709W        W95212  14.305  26.644   1.707
35710W        W95213  31.467  14.142  11.950
35711W        W95214  20.692  33.607  10.961
35712W        W95215   0.929   6.758   1.281
35713W        W95216   6.904  23.033   2.762
35714W        W95217  25.654   3.911  13.808
35715W        W95218   3.428   3.920  14.282
35716W        W95219  43.293  33.040  12.066
35717W        W95220  30.028  32.465  11.028
35718W        W95221  33.518   6.414  11.562
35719W        W95222   5.807   2.454  13.842
35720W        W95223  29.565  19.569   3.841
35721W        W95224  35.596  10.238  12.344
35722W        W95225  12.626  15.166  14.469
35723W        W95226  43.370  12.241   1.912
35724W        W95227  39.974  21.688   3.852
35725W        W95228  23.583  11.841   1.795
35726W        W95229   9.784   7.199  12.007
35727W        W95230  32.397  26.133   3.670
35728W        W95231  28.143  36.981  10.058
35729W        W95232   1.952  17.562   9.967
35730W        W95233  36.479  37.435   1.269
35731W        W95234  27.562  28.436   5.214
35732W        W95235  25.578  42.950  10.537
35733W        W95236  16.808  37.576  11.895
35734W        W95237  28.983   3.716  10.552
35735W        W95238  34.391  12.288   1.290
35736W        W95239  42.460  38.535   4.140
35737W        W95240  17.710  37.914  10.983
35738W        W95241  25.119  36.523   3.305
35739W        W95242   4.859   5.769  12.485
35740W        W95243   9.820  19.744  11.062
35741W        W95244  16.791   7.415  12.431
35742W        W95245   0.925   1.314  14.969
35743W        W95246   6.355  28.589  12.461
35744W        W95247  34.399  41.800   4.331
35745W        W95248  41.943  17.169   4.189
35746W        W95249  24.143  26.185  10.580
35747W        W95250  12.235  32.532  12.889
35748W        W95251   1.972  15.133  13.843
35749W        W95252  25.653  42.934   3.146
35750W        W95253   7.705  25.177  11.983
35751W        W95254   1.746  35.438  10.447
35752W        W95255  16.778  18.121  14.884
35753W        W95256   9.361   1.824   1.433
35754W        W95257   4.769  40.466   9.957
35755W        W95258  40.985  42.887   4.308
35756W        W95259  28.586  12.715  13.858
35757W        W95260   8.832  42.470   1.251
35758W        W95261  11.330  44.505   4.254
35759W        W95262  37.970  11.155  14.414
35760W        W95263  12.274  20.754   0.810
35761W        W95264  21.052  13.287   4.142
35762W        W95265  30.473  19.670   1.286
35763W        W95266  12.172  12.825  11.875
35764W        W95267   2.888  40.873   0.449
35765W        W95268  42.377  27.679   3.294
35766W        W95269   9.235  41.439  10.629
35767W        W95270  28.520   5.772  14.394
35768W        W95271  39.484  20.144   4.670
35769W        W95272  20.729  11.240   0.937
35770W        W95273  40.410   3.391   5.127
35771W        W95274  20.173   8.775   2.409
35772W        W95275  27.970  12.162   3.669
35773W        W95276  35.032   3.233   3.256
35774W        W95277  21.594  25.473  12.345
35775W        W95278   9.215  40.824   1.363
35776W        W95279   8.697  24.598   4.662
35777W        W95280   8.334  32.044  11.937
35778W        W95281   7.795  14.641  13.338
35779W        W95282  40.889  16.099   2.867
35780W        W95283   8.356   6.281   4.831
35781W        W95284  16.212  28.448  13.016
35782W        W95285  11.629  21.694   1.414
35783W        W95286  15.727   2.898   4.800
35784W        W95287  11.758  19.766   4.309
35785W        W95288  25.215  28.072   3.778
35786W        W95289  28.980  11.332   3.852
35787W        W95290  20.053  38.016  12.905
35788W        W95291  15.195   2.941  13.945
35789W        W95292  38.523  16.217  12.039
35790W        W95293  41.364  31.946   4.796
35791W        W95294   1.333  33.890  10.944
35792W        W95295  20.110  20.755   0.276
35793W        W95296  40.877  40.432   3.654
35794W        W95297  30.924  15.234  14.970
35795W        W95298  16.089  30.524  12.053
35796W        W95299  39.999  11.654   3.274
35797W        W95300  27.619  38.839  14.309
35798W        W95301  39.446  20.231  11.960
35799W        W95302  21.243  15.629   3.784
35800W        W95303  23.187  26.609   2.828
35801W        W95304   2.832   7.401   2.242
35802W        W95305   2.444   4.753   3.206
35803W        W95306  39.868  18.119  13.846
35804W        W95307   2.899  31.629   2.178
35805W        W95308  41.913   5.438  10.593
35806W        W95309  43.294  10.208  10.466
35807W        W95310   8.682  20.215   1.805
35808W        W95311  24.705  35.107   4.162
35809W        W95312  22.238  32.022   2.387
35810W        W95313  28.591  25.108  11.919
35811W        W95314  31.946   5.910   2.751
35812W        W95315  36.514  23.694   2.206
35813W        W95316   8.682  34.597  12.431
35814W        W95317  33.521  32.981  11.541
35815W        W95318  13.689  41.878  11.868
35816W        W95319  41.025   2.329   4.211
35817W        W95320  24.619  29.055  12.845
35818W        W95321  27.673  18.787   1.291
35819W        W95322  31.641   3.710   3.179
35820W        W95323  11.804  27.477   4.215
35821W        W95324  21.675   7.303  11.877
35822W        W95325  21.575  13.191   2.734
35823W        W95326   4.892  31.968  11.106
35824W        W95327   6.306   8.201  10.545
35825W        W95328  10.649   1.968   3.694
35826W        W95329  17.231  25.702   1.729
35827W        W95330  27.646  24.209  11.428
35828W        W95331  25.570  18.739  14.496
35829W        W95332  29.103  26.688   0.931
35830W        W95333  33.455  17.081  13.917
35831W        W95334  22.177  23.153   3.342
35832W        W95335   5.433  39.986  12.575
35833W        W95336  41.507  19.046   5.566
35834W        W95337  43.942  31.496  12.865
35835W        W95338   5.794  28.948   2.270
35836W        W95339  40.477   5.827   0.782
35837W        W95340  20.574  31.014   2.214
35838W        W95341  11.749  31.040   9.478
35839W        W95342  21.675  10.383  12.954
35840W        W95343  17.064  32.572  14.854
35841W        W95344  33.876  40.525  12.834
35842W        W95345  12.819  22.590   1.758
35843W        W95346  13.708  25.976   4.640
35844W        W95347  33.415   5.707   4.606
35845W        W95348   8.404  43.016   2.710
35846W        W95349   6.893   8.773  12.918
35847W        W95350  30.491   0.849  10.938
35848W        W95351   1.960  36.097  10.586
35849W        W95352  10.185  20.660   3.662
35850W        W95353  31.591  20.570  13.445
35851W        W95354  33.469  31.904  14.896
35852W        W95355   6.835  43.486   9.516
35853W        W95356  13.115   0.386   0.823
35854W        W95357  44.447   4.776   1.256
35855W        W95358  37.357  43.277  12.871
35856W        W95359  24.549  40.402  13.901
35857W        W95360  14.697   7.361  13.872
35858W        W95361   7.271   8.329   0.956
35859W        W95362  43.289  33.445  12.500
35860W        W95363  35.991   1.810   0.475
35861W        W95364  10.251  33.090   1.311
35862W        W95365  13.268   7.729   2.818
35863W        W95366   7.328  26.987  11.609
35864W        W95367   2.287  21.056   9.969
35865W        W95368  12.220   9.850  12.001
35866W        W95369  24.668   9.199  12.957
35867W        W95370  37.834  19.187   3.645
35868W        W95371   2.410   3.840  11.570
35869W        W95372  39.319  27.611   1.399
35870W        W95373  30.005  38.970  12.071
35871W        W95374   3.379   8.363   4.246
35872W        W95375  27.681  27.069   2.336
35873W        W95376  16.300  38.008  11.407
35874W        W95377  31.946  24.705   9.981
35875W        W95378  22.050   9.194  14.290
35876W        W95379  11.857  16.567   2.208
35877W        W95380  43.842  39.928   2.213
35878W        W95381   8.707  37.531  13.515
35879W        W95382   3.834  40.927  11.911
35880W        W95383  44.955   2.367  12.406
35881W        W95384   9.761  35.604   3.767
35882W        W95385  34.468  12.220   4.812
35883W        W95386  42.526  20.201  14.016
35884W        W95387  13.157  36.531  11.511
35885W        W95388  39.027   0.307  11.076
35886W        W95389   1.263  27.636   2.779
35887W        W95390   0.314  25.623  11.424
35888W        W95391  23.639  22.129   3.718
35889W        W95392  24.212  31.909   4.140
35890W        W95393  41.791   0.771  10.474
35891W        W95394   6.325  40.949  13.340
35892W        W95395  31.584  10.786  10.967
35893W        W95396  39.812  35.069   3.759
35894W        W95397   1.906  36.999   0.471
35895W        W95398   7.312   5.823  13.475
35896W        W95399  30.644  22.208   0.841
35897W        W95400  38.352  28.117   4.798
35898W        W95401  42.911  16.697   0.911
35899W        W95402  25.629   0.409  14.983
35900W        W95403  17.155  38.969   0.444
35901W        W95404  32.623   8.218  12.509
35902W        W95405  40.851  34.486  12.909
35903W        W95406   4.309   2.241  14.022
35904W        W95407  31.574   0.383   1.349
35905W        W95408  29.639  31.154  10.958
35906W        W95409   2.340  42.515  14.871
35907W        W95410   3.263   6.263   3.802
35908W        W95411  22.651  20.064   2.869
35909W        W95412  23.489  13.782  12.875
35910W        W95413  38.920  40.880   4.751
35911W        W95414  10.780  34.452  14.321
35912W        W95415  31.637  18.216  10.629
35913W        W95416  42.335   4.905   4.227
35914W        W95417  43.418  21.136   1.760
35915W        W95418  41.861  13.118  14.788
35916W        W95419  12.234   7.782   3.841
35917W        W95420  25.107  26.539  14.467
35918W        W95421  27.969  38.347   3.658
35919W        W95422   8.333  33.092   4.659
35920W        W95423   9.150  29.641   3.348
35921W        W95424   1.951  24.210   0.336
35922W        W95425  40.050  30.154  10.574
35923W        W95426  37.855  35.050   4.714
35924W        W95427  44.464  17.071   2.723
35925W        W95428  32.980  31.922   1.786
35926W        W95429  36.570  36.425   4.323
35927W        W95430   0.852   3.403  12.373
35928W        W95431  26.690  24.502   2.825
35929W        W95432  15.084   7.868   3.676
35930W        W95433  24.509  35.943  13.808
35931W        W95434  32.430  10.379   2.696
35932W        W95435  13.609   9.645  12.411
35933W        W95436  22.017  16.177  11.939
35934W        W95437  17.137  27.140  13.985
35935W        W95438  39.912  12.641   4.115
35936W        W95439  29.155  12.680   1.224
35937W        W95440  30.521  28.048  12.341
35938W        W95441  10.801  33.129   0.778
35939W        W95442  15.696  17.118  10.520
35940W        W95443  14.636  10.256  11.857
35941W        W95444  41.483   8.675   2.792
35942W        W95445  34.890  43.392   4.684
35943W        W95446   4.439  30.599   2.397
35944W        W95447  29.977  23.183   1.227
35945W        W95448  15.158  40.959  13.001
35946W        W95449  39.503  29.564  11.969
35947W        W95450  31.429  39.017   5.185
35948W        W95451  27.079  34.487  10.444
35949W        W95452  33.464  11.672   3.644
35950W        W95453  39.960  17.156   2.890
35951W        W95454  41.972  42.305   2.366
35952W        W95455  21.225  15.180  13.314
35953W        W95456  39.927  41.882   0.264
35954W        W95457   2.945  14.813  12.405
35955W        W95458  20.592  30.103  13.822
35956W        W95459   7.892   2.310   4.622
35957W        W95460  41.884  44.264  12.402
35958W        W95461  16.795   2.364   3.174
35959W        W95462   0.856   4.410   0.915
35960W        W95463  20.164   6.709   2.295
35961W        W95464  18.057  17.106   0.918
35962W        W95465  23.156  37.020  13.441
35963W        W95466  26.098   5.349  11.987
35964W        W95467  26.579  21.638  10.972
35965W        W95468  30.094  29.513  13.914
35966W        W95469  33.923  29.662   2.417
35967W        W95470  14.291  28.555  14.461
35968W        W95471   1.438  26.038  12.460
35969W        W95472   7.893  22.080   4.819
35970W        W95473  36.458  28.171  14.810
35971W        W95474   2.247  27.152   3.282
35972W        W95475  25.083  26.681  10.636
35973W        W95476  36.023  28.047   1.923
35974W        W95477  43.876   4.711   1.292
35975W        W95478  12.855  33.409  13.920
35976W        W95479  21.632  22.565   4.679
35977W        W95480  38.965  38.873  12.024
35978W        W95481   7.905  29.666  13.440
35979W        W95482  42.802   3.325   1.376
35980W        W95483  33.483   0.482  13.979
35981W        W95484  34.945  14.669  14.796
35982W        W95485  10.186   5.211  14.310
35983W        W95486  44.838   9.233  13.028
35984W        W95487  31.618   1.788  12.403
35985W        W95488   1.463   2.232   0.453
35986W        W95489  40.883  44.872  14.776
35987W        W95490   8.299   9.226   2.700
35988W        W95491  14.769  39.033   1.229
35989W        W95492  12.828   6.883  14.914
35990W        W95493  31.040  27.034  10.596
35991W        W95494   6.768  24.207   3.252
35992W        W95495   3.366  18.740   0.462
35993W        W95496  32.021   4.942   5.265
35994W        W95497  26.615  18.241   1.777
35995W        W95498  33.483   3.858   2.666
35996W        W95499   4.229  25.595   0.251
35997W        W95500  35.923  27.584   1.228
35998W        W95501  44.981  43.868  14.894
35999W        W95502  44.812  13.199  12.079
36000W        W95503  31.475  24.007  10.454
36001W        W95504   8.894  20.132  11.057
36002W        W95505  23.639   2.315  11.446
36003W        W95506  12.674  31.451   9.995
36004W        W95507  24.049   1.746  10.041
36005W        W95508  24.173   7.385   0.926
36006W        W95509  18.068  35.582  14.294
36007W        W95510  25.474  34.454  10.453
36008W        W95511   7.848   2.244  13.489
36009W        W95512  22.248   2.370   2.351
36010W        W95513  10.276  34.541  10.927
36011W        W95514  27.023  16.749  13.917
36012W        W95515  12.324  12.167  10.953
36013W        W95516  38.395  16.211  14.298
36014W        W95517  12.654  37.879   2.696
36015W        W95518  36.494  22.066   0.357
36016W        W95519  42.492  21.572   0.302
36017W        W95520  39.546  14.630  14.829
36018W        W95521  25.576  27.062   4.735
36019W        W95522  22.163   8.707  13.521
36020W        W95523  13.608  14.306  14.335
36021W        W95524   2.886  23.174   4.215
36022W        W95525  33.558  32.007   1.218
36023W        W95526  19.136  42.913   2.863
36024W        W95527  11.775   6.204  11.406
36025W        W95528  42.002   9.275   1.764
36026W        W95529  10.349  41.485   0.771
36027W        W95530   7.339   0.455  11.943
36028W        W95531   9.811  26.182   0.254
36029W        W95532   2.449  17.170   3.733
36030W        W95533  39.436   7.823  11.962
36031W        W95534  14.248  11.664   0.411
36032W        W95535   2.855  13.785  13.045
36033W        W95536  32.993   4.893   3.809
36034W        W95537  34.000  19.722   0.894
36035W        W95538  10.240  21.045  11.860
36036W        W95539  28.619  39.508  11.869
36037W        W95540  10.288  43.472   2.860
36038W        W95541  40.524  21.108   4.213
36039W        W95542  39.486  32.410   1.748
36040W        W95543  15.115  20.604  14.773
36041W        W95544  20.240  13.648  11.983
36042W        W95545   9.790  11.730  11.411
36043W        W95546   5.922  43.467   5.674
36044W        W95547  11.182   3.942  14.819
36045W        W95548  14.328   9.363   2.345
36046W        W95549  21.250  13.128   1.356
36047W        W95550  31.910  40.313  13.015
36048W        W95551   4.216   9.871  14.506
36049W        W95552  11.255   6.910  14.948
36050W        W95553   3.279  29.541   0.738
36051W        W95554  27.455  16.211   9.668
36052W        W95555  38.955  33.433  13.498
36053W        W95556  23.214  21.665  12.565
36054W        W95557  16.119  17.713  14.800
36055W        W95558  41.856  34.553  10.159
36056W        W95559  34.040  38.436   2.793
36057W        W95560  35.567  39.321  12.402
36058W        W95561   3.925   7.172  14.874
36059W        W95562   5.394   7.226   4.807
36060W        W95563  42.446  25.588   3.276
36061W        W95564  17.720  13.112   0.860
36062W        W95565   1.363  30.521   3.653
36063W        W95566  32.417  19.649   0.810
36064W        W95567  33.896  11.738   0.377
36065W        W95568  11.147  23.155   3.774
36066W        W95569  28.488  14.669  14.809
36067W        W95570  24.101   7.311  11.050
36068W        W95571  39.442   2.812   4.142
36069W        W95572   4.927  37.868   1.804
36070W        W95573  15.677   5.286  13.403
36071W        W95574  28.035  43.857  11.913
36072W        W95575  39.047  36.532  12.027
36073W        W95576  30.997  35.505  12.421
36074W        W95577  38.339  22.694   4.802
36075W        W95578  23.593  39.410   3.713
36076W        W95579   0.418   8.730  12.862
36077W        W95580   4.864  43.903   3.175
36078W        W95581  26.060  15.801  14.028
36079W        W95582  28.178  16.172   2.235
36080W        W95583  36.881  17.115  11.067
36081W        W95584  21.715  23.725  11.449
36082W        W95585  25.471  34.523  13.960
36083W        W95586  20.523  39.968  10.503
36084W        W95587   5.782  44.954   3.710
36085W        W95588  33.913  40.308  10.935
36086W        W95589  29.600   2.949  14.965
36087W        W95590  39.057   2.759   3.282
36088W        W95591  41.964  15.153  13.021
36089W        W95592  41.041   6.355  12.434
36090W        W95593  31.629  28.470   3.860
36091W        W95594  18.744   0.450  10.498
36092W        W95595  30.018  10.150   2.230
36093W        W95596  19.652  35.454  14.899
36094W        W95597  21.055  33.970  10.583
36095W        W95598  15.598  37.355   2.695
36096W        W95599  21.707   2.472   1.339
36097W        W95600  12.848  34.043   2.745
36098W        W95601  19.540  43.392  13.814
36099W        W95602  16.626   4.249  11.588
36100W        W95603   7.399   4.252  12.534
36101W        W95604  23.510  31.448   4.194
36102W        W95605  43.351   0.952   3.761
36103W        W95606  24.046  31.105  11.869
36104W        W95607  37.467  43.480   3.308
36105W        W95608  18.629  44.390  14.300
36106W        W95609   9.175  32.562   9.535
36107W        W95610  42.835  32.602  13.806
36108W        W95611  14.815  32.141  12.454
36109W        W95612   8.754  29.079   1.447
36110W        W95613  11.155   2.407   2.703
36111W        W95614  31.906  20.163  13.011
36112W        W95615  18.236  39.389  10.625
36113W        W95616  43.413  31.433   0.829
36114W        W95617   9.800   3.837  13.816
36115W        W95618  28.660  11.195   0.882
36116W        W95619   8.757  12.818   2.259
36117W        W95620  44.472   2.330   4.132
36118W        W95621   6.331   1.784  13.799
36119W        W95622  26.154  25.578   4.691
36120W        W95623  43.941  11.866  10.590
36121W        W95624  32.101  16.080  13.953
36122W        W95625  36.458  11.851   0.956
36123W        W95626  26.630  17.095   3.708
36124W        W95627   7.871  44.426   0.328
36125W        W95628  23.616  38.874   0.372
36126W        W95629   8.224  28.592  14.861
36127W        W95630  14.791  36.068  10.126
36128W        W95631   3.783  22.137  14.031
36129W        W95632  40.973  41.404   2.235
36130W        W95633   7.838  21.612  14.900
36131W        W95634  21.125  36.039  11.467
36132W        W95635  24.533  13.619   0.900
36133W        W95636  29.137  32.038  12.400
36134W        W95637  44.919  43.856   0.443
36135W        W95638   7.209  22.728   4.704
36136W        W95639  39.472  32.429   2.241
36137W        W95640  44.809  23.137   2.383
36138W        W95641  44.410  36.530   3.214
36139W        W95642  33.404  14.336  12.481
36140W        W95643  10.328  26.661  12.015
36141W        W95644  11.721  25.054  13.863
36142W        W95645  18.770  20.220  13.059
36143W        W95646  31.960  35.533  13.986
36144W        W95647  37.520  24.682   2.315
36145W        W95648   3.459  18.166  11.952
36146W        W95649  39.821  17.590   0.931
36147W        W95650  30.021  27.940   3.166
36148W        W95651  36.844  10.198   3.263
36149W        W95652  17.137  31.413   4.779
36150W        W95653  14.133  33.899   0.830
36151W        W95654   8.844   3.753  11.519
36152W        W95655  26.631  44.847   3.152
36153W        W95656  24.009  20.559   3.710
36154W        W95657  35.041  28.151   1.270
36155W        W95658  28.552  39.945   2.288
36156W        W95659  27.692  38.048   1.255
36157W        W95660  44.354  23.693   1.322
36158W        W95661  35.107  20.745  10.444
36159W        W95662  35.054  19.244   3.762
36160W        W95663   1.293  21.612   3.659
36161W        W95664  38.570   9.689  14.344
36162W        W95665  31.576  15.106   4.269
36163W        W95666   1.868  35.495  13.892
36164W        W95667  33.896  10.253   1.818
36165W        W95668  16.276   1.331  10.430
36166W        W95669  25.996  19.764  13.950
36167W        W95670  43.888   5.698   0.350
36168W        W95671   7.841  43.811   0.835
36169W        W95672  16.587  38.835   0.324
36170W        W95673  14.640  20.707  11.478
36171W        W95674  38.896   9.663  11.894
36172W        W95675  36.521  21.611   3.328
36173W        W95676  32.914  27.521   1.303
36174W        W95677  15.690   2.325   4.713
36175W        W95678  29.998   4.323  13.830
36176W        W95679  43.466   3.893   3.228
36177W        W95680  40.503   7.346   0.433
36178W        W95681  27.962  22.085   4.721
36179W        W95682  32.995  20.042   3.145
36180W        W95683  23.735  44.460  12.562
36181W        W95684  24.040  11.771   4.659
36182W        W95685  21.216  15.164  14.489
36183W        W95686  28.480   4.858  13.062
36184W        W95687  12.819  31.977   1.337
36185W        W95688  41.854   5.340   1.248
36186W        W95689  40.403  34.049  10.921
36187W        W95690   8.661  30.414  14.845
36188W        W95691  33.598  24.982  14.843
36189W        W95692   0.930  25.126   3.713
36190W        W95693  29.162  16.581   5.222
36191W        W95694  41.913  21.151  12.037
36192W        W95695   3.941  42.311   1.910
36193W        W95696  29.527  37.999  13.330
36194W        W95697   6.834   3.390  10.920
36195W        W95698   3.827  15.311   2.834
36196W        W95699  22.215  34.030  13.330
36197W        W95700  27.025  12.196   1.817
36198W        W95701  32.446   4.760   1.268
36199W        W95702  44.807  43.786  10.013
36200W        W95703   0.476  23.010   1.251
36201W        W95704  29.024   9.879  13.359
36202W        W95705   0.958  10.369  10.118
36203W        W95706  21.024  14.137  13.539
36204W        W95707  17.097   6.805   0.269
36205W        W95708   6.427  21.019  11.928
36206W        W95709  40.402  13.213   1.290
36207W        W95710   5.284   7.880  10.541
36208W        W95711  32.125  42.930  13.056
36209W        W95712  32.041  26.541   0.873
36210W        W95713   0.900  12.144   1.745
36211W        W95714  36.443   5.377   9.445
36212W        W95715   8.840  28.161  13.982
36213W        W95716  42.847  18.120   3.728
36214W        W95717   9.754  30.574  10.967
36215W        W95718  10.338  29.964   0.442
36216W        W95719  20.743  11.155  14.769
36217W        W95720   1.292  23.200   1.431
36218W        W95721  27.556  34.107  13.994
36219W        W95722  34.981  19.204   1.759
36220W        W95723  19.718   1.477  10.522
36221W        W95724  20.647  17.182   4.725
36222W        W95725   7.753   5.415  12.470
36223W        W95726  11.179  31.501   2.287
36224W        W95727  20.734  19.672   0.879
36225W        W95728   8.391  21.537  11.051
36226W        W95729   9.379   4.239   3.807
36227W        W95730  14.744  30.067   1.400
36228W        W95731  24.514   1.408   3.308
36229W        W95732  26.138   6.804  12.519
36230W        W95733   8.245  36.992  12.474
36231W        W95734  42.450   4.736  12.874
36232W        W95735  12.770  16.091   4.619
36233W        W95736  36.533  41.518  11.394
36234W        W95737   2.236   9.788  13.821
36235W        W95738  36.079  21.737   3.249
36236W        W95739  37.891  41.398   0.300
36237W        W95740  14.309  22.594  13.849
36238W        W95741  34.493  26.609  14.807
36239W        W95742  17.777  20.663   3.753
36240W        W95743  40.349  10.144  10.124
36241W        W95744   2.233   3.296  10.528
36242W        W95745   5.818   8.819   4.283
36243W        W95746  23.114  18.589   3.656
36244W        W95747  15.177   9.292   4.261
36245W        W95748  39.899  14.684   2.891
36246W        W95749  36.485  27.066  12.983
36247W        W95750  24.053  21.029   5.100
36248W        W95751  37.035   3.862   1.769
36249W        W95752  14.784  33.012   3.678
36250W        W95753   2.807   6.872   1.823
36251W        W95754  18.076  24.975   3.191
36252W        W95755   0.783  35.093   1.371
36253W        W95756  28.573  16.643  11.089
36254W        W95757  31.554  28.586  14.398
36255W        W95758  35.408  36.008  11.916
36256W        W95759  22.114   8.836  10.599
36257W        W95760  16.701  37.897  14.286
36258W        W95761  41.524  34.390   3.725
36259W        W95762   6.402  39.863   3.199
36260W        W95763  37.078  24.611  14.779
36261W        W95764  42.376  30.568  12.532
36262W        W95765   1.384  14.791   2.683
36263W        W95766  43.881  23.574   4.807
36264W        W95767  37.948  40.797  10.613
36265W        W95768  43.865  22.038   0.483
36266W        W95769   6.815  41.009  13.897
36267W        W95770   4.871  12.156   1.413
36268W        W95771  29.558  36.877  14.970
36269W        W95772  12.676   0.389  14.422
36270W        W95773   9.301  20.541  10.576
36271W        W95774  13.165   7.184  14.769
36272W        W95775   0.303  36.918  14.825
36273W        W95776  31.541   6.323  12.521
36274W        W95777  16.247   4.398   0.864
36275W        W95778  23.628  39.509  13.315
36276W        W95779   3.747  43.355  14.838
36277W        W95780  22.508  38.068  14.476
36278W        W95781  26.103   6.406  13.794
36279W        W95782  31.439  38.896   1.296
36280W        W95783  12.722   4.707   4.770
36281W        W95784  44.963  16.182   1.222
36282W        W95785   1.251  32.138  11.089
36283W        W95786  39.872  16.626  11.897
36284W        W95787  30.075  13.253   0.437
36285W        W95788  33.531  42.924   4.599
36286W        W95789  10.721  43.451  11.121
36287W        W95790  11.779   2.311   2.765
36288W        W95791  43.511  41.792  14.814
36289W        W95792  18.565  19.558  13.022
36290W        W95793  23.223  30.481  11.934
36291W        W95794  37.085  33.885  14.506
36292W        W95795  40.918   8.816   2.188
36293W        W95796  13.843  39.368   0.421
36294W        W95797  21.260  40.820   1.411
36295W        W95798  20.654  12.624   1.810
36296W        W95799  27.073  22.180  13.970
36297W        W95800  34.428  35.586   1.299
36298W        W95801   5.833   5.724   3.767
36299W        W95802  24.643  35.038   0.903
36300W        W95803  27.086  14.759   4.822
36301W        W95804  16.704  31.060   2.899
36302W        W95805  44.763  17.800   1.257
36303W        W95806  24.641  22.058   3.849
36304W        W95807   8.387   5.815   1.410
36305W        W95808   5.851   7.172  12.933
36306W        W95809  18.641  20.554  12.013
36307W        W95810  11.217   0.893   2.827
36308W        W95811  39.415   0.348   1.831
36309W        W95812  15.759  24.494   3.809
36310W        W95813  43.385  24.714  10.468
36311W        W95814  10.822  20.108  12.507
36312W        W95815   6.427  20.228   3.650
36313W        W95816   7.740   5.208   3.634
36314W        W95817   5.327  43.386   0.908
36315W        W95818   5.792  35.937  14.337
36316W        W95819  10.715  11.304   1.433
36317W        W95820  28.500  32.635   3.290
36318W        W95821  27.525  36.035   4.837
36319W        W95822  42.998   1.855  13.859
36320W        W95823  21.257  34.480  14.907
36321W        W95824  44.872  33.480   0.355
36322W        W95825  26.998  10.321   2.844
36323W        W95826  35.077  29.057  12.051
36324W        W95827  21.210   1.458   4.238
36325W        W95828   4.853  32.464  10.979
36326W        W95829  35.908  10.211  12.364
36327W        W95830   8.402  16.292  11.549
36328W        W95831  25.655  13.738   4.654
36329W        W95832  25.040  19.136   4.668
36330W        W95833  43.394  17.106  12.068
36331W        W95834  14.749  25.966  13.373
36332W        W95835   8.743  39.974   3.702
36333W        W95836  22.697  42.859  12.376
36334W        W95837  20.183  40.516   5.232
36335W        W95838  42.018  29.031   4.728
36336W        W95839  25.599   1.915  13.986
36337W        W95840  12.227  39.929   1.747
36338W        W95841   9.666  19.043   4.285
36339W        W95842  19.250  39.514  11.999
36340W        W95843  11.696   9.208  13.982
36341W        W95844  24.600  21.650  10.574
36342W        W95845   3.761  18.707   2.702
36343W        W95846  24.193   8.249  13.403
36344W        W95847  36.861  12.633   0.924
36345W        W95848  17.737  10.138   1.228
36346W        W95849  23.154   6.413   1.755
36347W        W95850  28.022  23.032  12.093
36348W        W95851  29.610   8.716   2.899
36349W        W95852  16.630  40.444   3.214
36350W        W95853  13.774   2.939  11.882
36351W        W95854  16.157  32.435  11.959
36352W        W95855  37.023   9.659  14.370
36353W        W95856  26.656  14.748   2.322
36354W        W95857  43.431  23.162   1.834
36355W        W95858  13.147  31.641   3.795
36356W        W95859  26.660   4.412  14.013
36357W        W95860   1.806  35.598  13.056
36358W        W95861  11.299  31.041  12.885
36359W        W95862  25.018  21.105  12.399
36360W        W95863  44.282   7.237   2.829
36361W        W95864  27.994  18.061   2.803
36362W        W95865  39.935   0.754  10.950
36363W        W95866   8.270   4.294   1.241
36364W        W95867   4.320  32.491   1.766
36365W        W95868  42.842  35.584   0.827
36366W        W95869  29.562  27.545   4.656
36367W        W95870  18.282  32.628  13.354
36368W        W95871  14.592  44.969   3.671
36369W        W95872  29.973  11.351   1.729
36370W        W95873  41.929  29.034   0.312
36371W        W95874  31.018  13.627   3.341
36372W        W95875  12.308  11.372   3.763
36373W        W95876   8.354   6.191   3.822
36374W        W95877   4.908  21.059  11.059
36375W        W95878   6.330  24.667  12.575
36376W        W95879  26.125  24.638  10.988
36377W        W95880  31.938  19.705   1.839
36378W        W95881  15.273  31.988  13.338
36379W        W95882  29.925  11.793  14.889
36380W        W95883  29.460  17.704   3.320
36381W        W95884  42.485  30.538  14.463
36382W        W95885  40.820   3.890  12.060
36383W        W95886  41.017  35.465   4.192
36384W        W95887   8.226   6.906  13.478
36385W        W95888  35.990   9.242  13.383
36386W        W95889  43.437  38.940   4.729
36387W        W95890  20.248  37.853   0.395
36388W        W95891  15.747  29.098   4.147
36389W        W95892   3.258  20.561   2.323
36390W        W95893  20.187  25.966  13.884
36391W        W95894   4.249   0.897  13.492
36392W        W95895   6.339  27.105   2.341
36393W        W95896  41.813  28.627   0.314
36394W        W95897  27.685  12.754   4.690
36395W        W95898  44.379  14.629   2.246
36396W        W95899  21.655   7.401  13.008
36397W        W95900   2.822  22.069   3.326
36398W        W95901  33.383  16.113  14.879
36399W        W95902   0.441  30.142  13.979
36400W        W95903  32.603   2.390  14.362
36401W        W95904  18.666  20.152  13.909
36402W        W95905  41.994  10.234  11.962
36403W        W95906  14.338  34.921  14.326
36404W        W95907  25.052  18.276   2.181
36405W        W95908  10.359  22.581  13.402
36406W        W95909  41.803  27.450   0.433
36407W        W95910   8.833  33.015  12.427
36408W        W95911  19.269  38.049  12.518
36409W        W95912  13.257  15.101   2.691
36410W        W95913  16.306  31.103   0.262
36411W        W95914  34.495  44.505   2.697
36412W        W95915   5.692  11.694   1.932
36413W        W95916  40.524   7.817  13.532
36414W        W95917  11.779  31.415  12.920
36415W        W95918  16.073   7.351   4.787
36416W        W95919  13.670  24.553  13.395
36417W        W95920  19.703  42.799   1.861
36418W        W95921   6.220   8.395  12.365
36419W        W95922  32.128  41.439   4.214
36420W        W95923  19.725  19.184  13.932
36421W        W95924  12.686  27.453   0.462
36422W        W95925   2.413  28.496   3.204
36423W        W95926   0.252  17.627  14.275
36424W        W95927  34.014   4.794   0.328
36425W        W95928  30.014  42.340  13.449
36426W        W95929  23.689  15.731  12.083
36427W        W95930   9.698  24.528   1.701
36428W        W95931  32.485   0.830   4.833
36429W        W95932   6.395  34.569  11.432
36430W        W95933  38.937  31.128   1.450
36431W        W95934  38.830  22.148   2.231
36432W        W95935  21.258  37.016   4.796
36433W        W95936  17.115  28.178   5.269
36434W        W95937  34.562  40.811   3.819
36435W        W95938  38.987   0.488   0.768
36436W        W95939  19.591  44.833   2.384
36437W        W95940  38.044  15.734  13.544
36438W        W95941  35.970  42.455  11.533
36439W        W95942  35.441  13.746   2.665
36440W        W95943  37.551  16.267  10.998
36441W        W95944   8.368  30.149   0.480
36442W        W95945  27.514  36.989   1.210
36443W        W95946  21.750  39.808   1.729
36444W        W95947   1.951  35.962   1.405
36445W        W95948   5.755  11.801  14.007
36446W        W95949  15.679  23.077   0.362
36447W        W95950  17.647  12.157  10.431
36448W        W95951  14.792  22.031  13.492
36449W        W95952  35.443  44.861   4.603
36450W        W95953  44.870  43.884  12.407
36451W        W95954  17.198  14.164  12.489
36452W        W95955  18.665  37.409   9.963
36453W        W95956   1.454  39.399  13.042
36454W        W95957  20.189  27.577   0.295
36455W        W95958  30.962   5.408   3.383
36456W        W95959  41.039  27.164  11.916
36457W        W95960  17.653  21.643   4.649
36458W        W95961  31.436   7.732   2.854
36459W        W95962  36.949  28.605  11.943
36460W        W95963  42.465  26.632   0.289
36461W        W95964  31.444   9.738   2.357
36462W        W95965   0.986  25.713   9.999
36463W        W95966  34.000  41.800  11.509
36464W        W95967  35.364  15.781   1.770
36465W        W95968  29.968  26.551   1.354
36466W        W95969  38.448  19.145   1.380
36467W        W95970   4.826   8.767   9.957
36468W        W95971  42.442  41.519  11.011
36469W        W95972  43.457  24.510  12.463
36470W        W95973  16.625  40.498  12.406
36471W        W95974  29.123  43.926   2.869
36472W        W95975  32.460  27.509  11.381
36473W        W95976  34.924   8.827   1.245
36474W        W95977   2.337   1.248   0.292
36475W        W95978  16.723  19.668   1.928
36476W        W95979  14.595  26.143  13.809
36477W        W95980  18.687  39.927  14.377
36478W        W95981  38.543  32.939   0.326
36479W        W95982  37.996  19.691   3.246
36480W        W95983   7.228  22.651   4.225
36481W        W95984  24.064  43.976   1.336
36482W        W95985  30.950   3.768   4.630
36483W        W95986  28.078  16.286  12.548
36484W        W95987  16.638  17.204   2.724
36485W        W95988  28.599  18.187  13.944
36486W        W95989   2.445  22.613   5.273
36487W        W95990  40.879  42.882  13.517
36488W        W95991  40.810  15.632   3.699
36489W        W95992  31.636   3.438   3.860
36490W        W95993  11.838  40.857  12.471
36491W        W95994  43.807  38.408   3.237
36492W        W95995  22.091   8.210  11.895
36493W        W95996  17.184  26.572  12.481
36494W        W95997  28.562   4.932  11.028
36495W        W95998  30.516  31.606  12.449
36496W        W95999  32.025   7.805   0.860
36497W        W96000  17.282   1.313  13.374
36498W        W96001  42.362   9.675   4.787
36499W        W96002   6.227  14.655  14.422
36500W        W96003  10.836  19.199  12.360
36501W        W96004  34.577   0.427   0.837
36502W        W96005   0.478   9.313   1.799
36503W        W96006   9.821  40.802   4.608
36504W        W96007  19.676  41.301  10.444
36505W        W96008  34.097   3.221   2.689
36506W        W96009  25.664  25.551   3.151
36507W        W96010  25.014  13.177  14.318
36508W        W96011  35.939  26.164  14.285
36509W        W96012  34.379  42.331  10.911
36510W        W96013  18.684  34.938   0.337
36511W        W96014  13.320  40.026   0.396
36512W        W96015  36.033  28.127  10.966
36513W        W96016  17.147  20.244   1.900
36514W        W96017   9.671  34.083   1.919
36515W        W96018   8.864   6.281   1.765
36516W        W96019  40.801   8.830  14.942
36517W        W96020  20.568   5.272  14.916
36518W        W96021  24.155  21.547   2.406
36519W        W96022  12.763  17.116   0.482
36520W        W96023  15.797  32.620   4.345
36521W        W96024  12.295  43.017   1.889
36522W        W96025  29.947  14.770   2.253
36523W        W96026  39.553  12.730  13.509
36524W        W96027  44.810  20.218  12.872
36525W        W96028  14.160  29.489  12.897
36526W        W96029  17.579  28.652  11.944
36527W        W96030  29.123  12.633   9.639
36528W        W96031  19.699  34.483  12.529
36529W        W96032  21.517   7.843  13.017
36530W        W96033  17.720   2.957  12.404
36531W        W96034  27.552  32.636  10.953
36532W        W96035  43.461  34.916   2.714
36533W        W96036  13.263  30.050  12.023
36534W        W96037  10.812   5.210   0.333
36535W        W96038  39.382  32.548  12.870
36536W        W96039  35.940  12.829   1.448
36537W        W96040  36.847  12.654   3.820
36538W        W96041  22.633  33.048  13.796
36539W        W96042  25.515  14.175  11.964
36540W        W96043  34.984  14.834   1.821
36541W        W96044  13.241  30.456   0.263
36542W        W96045  34.553  22.147  13.422
36543W        W96046  26.566   7.296  12.557
36544W        W96047  18.744   4.422   4.115
36545W        W96048   2.232  23.555  14.276
36546W        W96049  28.657   4.335  11.030
36547W        W96050  13.330   9.761   1.790
36548W        W96051  40.501  15.634  14.498
36549W        W96052  39.489   3.310   2.306
36550W        W96053   0.876  31.966   0.758
36551W        W96054  26.601  30.592   2.795
36552W        W96055  15.306  43.430  14.427
36553W        W96056  24.514  10.233  14.890
36554W        W96057  42.919   4.769   4.257
36555W        W96058   5.419  39.944  13.002
36556W        W96059  10.772  39.395   3.235
36557W        W96060  22.123  15.231  12.512
36558W        W96061  41.435  17.676   4.781
36559W        W96062  30.992   6.719   4.637
36560W        W96063  32.579  18.130  10.515
36561W        W96064  27.185  29.616  11.607
36562W        W96065  27.095   7.825  11.479
36563W        W96066   0.930  35.365   0.830
36564W        W96067   6.298  37.833   4.286
36565W        W96068  42.493  27.604  11.059
36566W        W96069  40.385  12.307  11.909
36567W        W96070  38.070  22.212   0.887
36568W        W96071   0.795   7.700  12.001
36569W        W96072  36.371  37.076   0.727
36570W        W96073  40.442   6.347   3.149
36571W        W96074  23.658  38.381   4.646
36572W        W96075  38.412  14.266   1.749
36573W        W96076  13.606  15.262   4.706
36574W        W96077  22.124  44.430   1.319
36575W        W96078  16.187   8.832  12.501
36576W        W96079   9.210  37.081  11.557
36577W        W96080  15.821   3.756  12.082
36578W        W96081   8.348  12.177   2.768
36579W        W96082   9.378  15.141   3.252
36580W        W96083  16.608  26.624  12.893
36581W        W96084  42.387  19.549   2.735
36582W        W96085  21.062  11.362  14.429
36583W        W96086   1.422   6.714   0.904
36584W        W96087  14.762  37.509   2.194
36585W        W96088   4.322  44.473   1.764
36586W        W96089   1.825  38.982  12.378
36587W        W96090   2.833  33.912  13.854
36588W        W96091  28.604  40.838  14.488
36589W        W96092  34.460  16.108  11.505
36590W        W96093  44.260   9.176  10.960
36591W        W96094   9.874   2.455   1.212
36592W        W96095  32.570  17.738   2.374
36593W        W96096  34.981  37.419   3.831
36594W        W96097   6.245  25.608   1.421
36595W        W96098  33.393  29.110   4.219
36596W        W96099  10.339   8.704  14.002
36597W        W96100   4.282  39.847  14.461
36598W        W96101  16.179  16.588   0.309
36599W        W96102  12.813   1.938   3.256
36600W        W96103   6.747  41.867   4.155
36601W        W96104  16.701   8.256   4.755
36602W        W96105   9.886   9.164   4.824
36603W        W96106   4.822  27.511  14.446
36604W        W96107  39.830   7.894  12.479
36605W        W96108   6.676  10.340   1.389
36606W        W96109  16.672  15.279   2.186
36607W        W96110  34.556  24.621   0.740
36608W        W96111  17.755  22.666  13.411
36609W        W96112  23.512   8.800   1.387
36610W        W96113  12.172  36.080   1.238
36611W        W96114  13.155  36.488  13.425
36612W        W96115  13.189  21.583  10.529
36613W        W96116   2.756  12.794   3.846
36614W        W96117  10.644  25.493  11.990
36615W        W96118  42.454  41.987  13.978
36616W        W96119  20.684  40.504   3.698
36617W        W96120  37.073  33.047   3.212
36618W        W96121  11.640  28.501   2.896
36619W        W96122   3.276   9.283   0.932
36620W        W96123   3.389   4.810   2.772
36621W        W96124  38.333  44.436  12.485
36622W        W96125  25.472  20.600  14.997
36623W        W96126   3.841  29.921  12.926
36624W        W96127  16.150  26.152  14.304
36625W        W96128   8.221   2.837  11.108
36626W        W96129   0.292  39.840  14.344
36627W        W96130  37.867  37.963  11.527
36628W        W96131   6.271  20.110  10.531
36629W        W96132  28.985   2.336   3.336
36630W        W96133  22.147  22.664   1.705
36631W        W96134  38.484   2.377  12.874
36632W        W96135  36.405  27.484  13.054
36633W        W96136  27.965   3.404  11.917
36634W        W96137  13.609  37.396  14.849
36635W        W96138  33.446   1.403   4.233
36636W        W96139  42.514  44.322  14.410
36637W        W96140  20.536   7.680  11.001
36638W        W96141  19.140  23.162   3.672
36639W        W96142   1.411  29.548   4.717
36640W        W96143  19.599  32.058   1.284
36641W        W96144   1.420   1.442  12.522
36642W        W96145   1.829  18.627  11.082
36643W        W96146   2.913   4.353  10.572
36644W        W96147  14.127  43.903   3.837
36645W        W96148   0.812  20.522   5.298
36646W        W96149   3.444  12.797   4.775
36647W        W96150  28.029  19.738   1.865
36648W        W96151  29.666  22.721   0.338
36649W        W96152  17.776  37.898   2.387
36650W        W96153   6.209  12.740  11.008
36651W        W96154  33.995  43.892  13.427
36652W        W96155  25.607  34.440  14.940
36653W        W96156  22.200  39.363  13.381
36654W        W96157  18.717  40.028   3.221
36655W        W96158   0.817  10.787   3.698
36656W        W96159  37.557   7.364   1.369
36657W        W96160   3.776  25.135   1.346
36658W        W96161   1.283  44.472   2.801
36659W        W96162  39.975  43.308  13.902
36660W        W96163  34.395  44.969  12.867
36661W        W96164  11.150  29.640  14.398
36662W        W96165  44.818  18.627   1.805
36663W        W96166  39.437   2.848   0.321
36664W        W96167  15.175  21.600   3.274
36665W        W96168  16.787  11.195  13.908
36666W        W96169   4.323  34.976   4.262
36667W        W96170  22.569  14.725   3.249
36668W        W96171  39.531  28.041  14.398
36669W        W96172  39.855   9.156  14.357
36670W        W96173  15.263  28.589  13.996
36671W        W96174  27.143  26.616   0.728
36672W        W96175  29.943   9.762  14.425
36673W        W96176  30.146  32.591   2.888
36674W        W96177  18.259   9.276  11.964
36675W        W96178  28.074  32.543  13.323
36676W        W96179  16.755  24.997   4.261
36677W        W96180  42.434  42.384  12.449
36678W        W96181  32.901  28.501   3.747
36679W        W96182  35.034  11.700   0.311
36680W        W96183  44.870  24.493   3.682
36681W        W96184  18.688  21.538   4.718
36682W        W96185  23.508  22.520   0.932
36683W        W96186  40.985  10.684  12.047
36684W        W96187  42.788   1.872  13.365
36685W        W96188  27.582  30.075  11.984
36686W        W96189  22.644  19.126   2.331
36687W        W96190  26.624  35.389  11.507
36688W        W96191  35.896  10.657  13.992
36689W        W96192  33.464  43.298  11.427
36690W        W96193  10.295  27.655  11.586
36691W        W96194  40.344  14.829  10.958
36692W        W96195  39.348  41.932   4.153
36693W        W96196  10.200  37.906  12.895
36694W        W96197  43.273  31.529  11.528
36695W        W96198  25.151  27.685  12.396
36696W        W96199   6.292  25.704  13.037
36697W        W96200  15.208  37.561   1.701
36698W        W96201  33.951  32.393  14.310
36699W        W96202  44.355  13.829  13.003
36700W        W96203  28.474  17.258   0.796
36701W        W96204  37.059  23.614  13.529
36702W        W96205  33.118  10.838   0.817
36703W        W96206  11.818  21.634  10.421
36704W        W96207   5.221   7.414  13.803
36705W        W96208  32.051  33.552  13.960
36706W        W96209  28.629   2.848  13.862
36707W        W96210  26.582  29.589   4.341
36708W        W96211  31.019  31.441  12.935
36709W        W96212   1.416  17.180  10.628
36710W        W96213   1.451  28.145   2.715
36711W        W96214  41.436  25.107  11.028
36712W        W96215   7.260  38.853   2.353
36713W        W96216  11.254  19.775   4.290
36714W        W96217  29.466  26.464   0.772
36715W        W96218  16.708  34.607   4.182
36716W        W96219  11.344  27.058   4.635
36717W        W96220  22.034  13.610   1.348
36718W        W96221  36.424   2.942  14.423
36719W        W96222  42.374   4.384  13.837
36720W        W96223   6.741  10.783  12.835
36721W        W96224   3.729   5.302   0.322
36722W        W96225  35.006  41.432  14.884
36723W        W96226  23.089   6.306  13.431
36724W        W96227  33.565  19.174  11.398
36725W        W96228  18.777  33.443  13.464
36726W        W96229  43.009  35.884   2.820
36727W        W96230  27.144  33.478   3.269
36728W        W96231  36.513  16.206   4.151
36729W        W96232  21.522   7.720   4.702
36730W        W96233   4.797  35.951  14.462
36731W        W96234  41.476  10.815   1.409
36732W        W96235   7.334  20.229   1.334
36733W        W96236  27.147  20.054   0.957
36734W        W96237   7.738   1.871  10.022
36735W        W96238  12.321  39.366  11.912
36736W        W96239  31.619  38.831   2.256
36737W        W96240  31.904  30.105   4.785
36738W        W96241  11.793  15.688   4.134
36739W        W96242  28.484   5.244   0.479
36740W        W96243  35.515  23.171   2.399
36741W        W96244   7.404  26.059  12.967
36742W        W96245  36.938  25.573   0.741
36743W        W96246  11.224  10.363   1.275
36744W        W96247  38.343  34.083   3.179
36745W        W96248  10.669   3.349   0.360
36746W        W96249  13.217  15.592   1.362
36747W        W96250  26.987  37.881  13.835
36748W        W96251   0.945   1.378  13.388
36749W        W96252   0.867  15.680   2.410
36750W        W96253   6.750  41.919   3.264
36751W        W96254   4.338  27.197   0.295
36752W        W96255  27.521  33.091  12.539
36753W        W96256  31.953  28.936  12.343
36754W        W96257  39.880  15.317   2.687
36755W        W96258  16.618  42.830   2.842
36756W        W96259  17.250  14.697  14.832
36757W        W96260  17.707  26.056   4.812
36758W        W96261  18.676  35.520  11.008
36759W        W96262  15.179  39.039  10.498
36760W        W96263  42.922  26.654   3.345
36761W        W96264   4.224  10.709  13.019
36762W        W96265  35.432   9.832   2.353
36763W        W96266  43.015   1.340  11.511
36764W        W96267  12.846  23.196  13.957
36765W        W96268   9.861  20.104  13.535
36766W        W96269   5.820  44.927  13.951
36767W        W96270  14.596  20.102   4.716
36768W        W96271  15.086   4.309   1.373
36769W        W96272   6.259  21.675  14.506
36770W        W96273  12.812  30.558  14.869
36771W        W96274  37.412  13.688   4.130
36772W        W96275  19.106  39.062  10.489
36773W        W96276  23.691  20.135  12.994
36774W        W96277  38.829  35.966  11.987
36775W        W96278  36.528  19.580  13.839
36776W        W96279   8.340   8.321   0.452
36777W        W96280  21.614  32.501   1.321
36778W        W96281   0.948  30.617   1.393
36779W        W96282   5.420  22.714   0.299
36780W        W96283  24.541   9.863  14.348
36781W        W96284  21.600   5.816  13.539
36782W        W96285  33.889  21.724   2.762
36783W        W96286  36.399   8.384   3.680
36784W        W96287  29.163  27.447   2.239
36785W        W96288  24.020   0.952  13.530
36786W        W96289  41.862  20.680   2.290
36787W        W96290  43.854   2.839  14.940
36788W        W96291  39.056  11.150  14.786
36789W        W96292   1.273  35.921  10.558
36790W        W96293  20.112  40.046   4.214
36791W        W96294  31.089  14.232   1.927
36792W        W96295  43.896  44.978  13.342
36793W        W96296  29.102  21.742   2.882
36794W        W96297  19.120  37.845   2.330
36795W        W96298  21.599   3.736   3.244
36796W        W96299  31.908  37.903   5.721
36797W        W96300  14.311  17.120   0.964
36798W        W96301   3.918  14.826   3.214
36799W        W96302  23.031  17.071   4.147
36800W        W96303  39.986  21.579  12.344
36801W        W96304  31.144  42.885   0.359
36802W        W96305   4.292  34.389  10.506
36803W        W96306  43.867  15.246   2.236
36804W        W96307  16.164   1.811   0.836
36805W        W96308  19.107  24.500  13.988
36806W        W96309  13.667  15.674  14.960
36807W        W96310  17.273  30.544   4.351
36808W        W96311   4.293  26.553   0.301
36809W        W96312   6.713   8.251   0.447
36810W        W96313   2.943  35.931   1.859
36811W        W96314  44.366  34.612  12.071
36812W        W96315   5.204   0.811  14.861
36813W        W96316  37.841  26.596   2.362
36814W        W96317  20.177  19.277   2.289
36815W        W96318  20.246  12.341   2.409
36816W        W96319  43.913   8.186  11.556
36817W        W96320  30.519  34.934  14.320
36818W        W96321  29.434  25.711  14.417
36819W        W96322  44.359  17.112  12.469
36820W        W96323   5.816  12.776  10.061
36821W        W96324  16.787  25.098   0.477
36822W        W96325   5.782  34.982  14.341
36823W        W96326   6.316  17.219  13.835
36824W        W96327   2.789   6.336  10.572
36825W        W96328  23.116  43.280   3.291
36826W        W96329   8.291   1.912   0.779
36827W        W96330  33.897  34.400   4.165
36828W        W96331  29.492  14.635  12.868
36829W        W96332  27.506  40.929  11.400
36830W        W96333  43.952  40.859   1.819
36831W        W96334   0.336  35.905  14.949
36832W        W96335  17.158  24.649   2.222
36833W        W96336  30.057  34.461   2.259
36834W        W96337  14.619  21.634   4.182
36835W        W96338  21.620  20.666  12.465
36836W        W96339  19.637  26.062  11.430
36837W        W96340   2.290  31.939  12.435
36838W        W96341  43.304  30.139  10.076
36839W        W96342  16.808  29.103   1.805
36840W        W96343  21.661   8.352   2.355
36841W        W96344  23.238   1.264   1.288
36842W        W96345  28.958  42.492  13.960
36843W        W96346  19.623  38.540   2.220
36844W        W96347  27.128  25.643  13.371
36845W        W96348  23.683  41.040   3.815
36846W        W96349  20.719  13.689   4.783
36847W        W96350   6.800   9.786   1.832
36848W        W96351  12.343  39.532  10.910
36849W        W96352   7.308   3.816   4.598
36850W        W96353  39.372   6.905   9.670
36851W        W96354  30.110   9.381   3.852
36852W        W96355  32.982  33.968   1.798
36853W        W96356  12.658  28.541  14.923
36854W        W96357   1.397  39.896  14.783
36855W        W96358  35.525  29.991   3.218
36856W        W96359  16.602  18.565  13.388
36857W        W96360  32.928  20.036  11.996
36858W        W96361  33.613  28.063  14.796
36859W        W96362  20.150   2.863   4.346
36860W        W96363  29.021  44.408   4.764
36861W        W96364  15.659  26.668   1.804
36862W        W96365  14.332  34.401  13.396
36863W        W96366   1.828   2.299  12.014
36864W        W96367  15.785  25.531  11.112
36865W        W96368  33.537  22.527   5.290
36866W        W96369  23.037  40.880   3.796
36867W        W96370  20.671  27.537   0.792
36868W        W96371  28.574  14.208   4.727
36869W        W96372  26.659  42.507   1.443
36870W        W96373  23.594  41.342  13.404
36871W        W96374  31.133  34.439  10.406
36872W        W96375  34.016  11.367   2.219
36873W        W96376  13.327  30.561   4.271
36874W        W96377  16.159  34.032  12.984
36875W        W96378   4.757  19.766   2.726
36876W        W96379  36.581  15.676   1.396
36877W        W96380  43.877   3.759   3.643
36878W        W96381  39.956  21.702   1.239
36879W        W96382   0.345  35.095   1.338
36880W        W96383  32.420  38.426  13.856
36881W        W96384  16.669  16.291  10.950
36882W        W96385   9.208   2.372   4.716
36883W        W96386  40.356  16.084   2.863
36884W        W96387  23.621  21.131  10.460
36885W        W96388  37.007  29.159  12.831
36886W        W96389  10.745  44.766   4.597
36887W        W96390   1.328  37.551   0.805
36888W        W96391  10.138  15.671   1.352
36889W        W96392  31.073  34.539  13.376
36890W        W96393  16.114  30.057   4.290
36891W        W96394   1.781  12.351  10.957
36892W        W96395  26.051  17.783  12.340
36893W        W96396  29.958   6.800   0.306
36894W        W96397  18.122   5.402   2.757
36895W        W96398   7.887  40.352   3.767
36896W        W96399  13.191   4.253   4.227
36897W        W96400  31.013   7.767  10.957
36898W        W96401  38.049  40.050  12.434
36899W        W96402   4.413   8.365  11.373
36900W        W96403  31.622  41.915   3.811
36901W        W96404   9.273  13.821  11.902
36902W        W96405  30.937   9.861   1.847
36903W        W96406  42.905  33.008   2.195
36904W        W96407  10.675   7.866  14.370
36905W        W96408   3.934  41.832  13.992
36906W        W96409  19.280  11.673  10.519
36907W        W96410  15.744  12.198   1.839
36908W        W96411  25.621  43.831  11.382
36909W        W96412  38.858   0.748   3.332
36910W        W96413  20.096  27.112   3.335
36911W        W96414  26.665   2.769   1.303
36912W        W96415  16.306   9.248  12.883
36913W        W96416  31.976  13.810   1.866
36914W        W96417  32.573  44.444   3.280
36915W        W96418  24.011  16.087  12.050
36916W        W96419  33.914  14.180   1.876
36917W        W96420   3.739   6.241  14.315
36918W        W96421  22.150   2.344  14.861
36919W        W96422   8.198   2.307  11.536
36920W        W96423  26.103  14.833   0.337
36921W        W96424  18.719  23.224   1.833
36922W        W96425  14.601  27.598  12.854
36923W        W96426  29.042  18.579   2.236
36924W        W96427  16.800  37.001   1.887
36925W        W96428  31.980  17.732  10.534
36926W        W96429   6.921   0.328   2.199
36927W        W96430  37.363  17.238   1.825
36928W        W96431  32.891  22.606   3.718
36929W        W96432  43.335  16.149  14.939
36930W        W96433  13.277   5.317  11.569
36931W        W96434  13.143  38.826   4.175
36932W        W96435  40.381   3.864  13.493
36933W        W96436  41.489  31.006  14.865
36934W        W96437  11.170   7.358  13.369
36935W        W96438  15.642  12.347  10.424
36936W        W96439  10.379  43.935   2.365
36937W        W96440  31.959  40.947   3.650
36938W        W96441   2.455  38.487   4.249
36939W        W96442   3.446  39.887   4.296
36940W        W96443  33.934  30.623   2.898
36941W        W96444  40.522  11.332  12.379
36942W        W96445  33.456  21.220  14.338
36943W        W96446  26.495  25.626   2.242
36944W        W96447  22.162  25.538   0.460
36945W        W96448  18.060  22.132  11.551
36946W        W96449   1.873  42.980  13.358
36947W        W96450   7.731  14.160   2.333
36948W        W96451   1.340  41.468  12.559
36949W        W96452  19.671  18.696   4.654
36950W        W96453  38.444   4.913  12.500
36951W        W96454   8.748  30.934  13.927
36952W        W96455  12.279  13.708  12.529
36953W        W96456  35.523   2.762   2.716
36954W        W96457  42.818  11.728  13.528
36955W        W96458  36.367  28.062  13.016
36956W        W96459   3.309  22.100  14.894
36957W        W96460   5.351  22.012  12.348
36958W        W96461  20.744  24.023  13.058
36959W        W96462  30.120   0.850  11.413
36960W        W96463  44.824   6.799  14.809
36961W        W96464   4.367  33.486  12.550
36962W        W96465   4.322  12.624   2.232
36963W        W96466   2.864   7.333  13.850
36964W        W96467  16.190   0.874  14.977
36965W        W96468   5.697   6.841  10.988
36966W        W96469  22.679  14.324   2.892
36967W        W96470  12.765  17.656   3.163
36968W        W96471  40.333   8.739   1.228
36969W        W96472   0.817  23.577  14.976
36970W        W96473   4.317   9.730   0.294
36971W        W96474  25.480  37.536  14.395
36972W        W96475  36.571  40.885  14.910
36973W        W96476  26.202   3.731   3.348
36974W        W96477  13.241   3.365  13.060
36975W        W96478  40.447   0.774   2.188
36976W        W96479  11.845  37.845   1.772
36977W        W96480  21.647  38.931   0.410
36978W        W96481  13.808  25.582  11.477
36979W        W96482  32.919  18.574  10.924
36980W        W96483  29.622  21.537   2.823
36981W        W96484  25.100   6.912   3.663
36982W        W96485   9.767  22.655   3.700
36983W        W96486   4.714  42.387  12.467
36984W        W96487  40.967   9.685   3.375
36985W        W96488  20.582  42.883  10.623
36986W        W96489   1.330  28.037   2.220
36987W        W96490  34.986  40.981  10.950
36988W        W96491   1.799  43.464   1.830
36989W        W96492   0.842  40.361  12.353
36990W        W96493  24.679  42.519   5.746
36991W        W96494  11.790  44.796   3.321
36992W        W96495  40.880  16.773  10.931
36993W        W96496  26.546   1.890   4.632
36994W        W96497   9.366   9.218   0.324
36995W        W96498  39.522  14.118  13.011
36996W        W96499  18.644  11.806  10.974
36997W        W96500   3.779  33.931  14.924
36998W        W96501  42.892   5.407  12.884
36999W        W96502  43.496  24.622  14.335
37000W        W96503  15.326  13.242  12.951
37001W        W96504  39.497   8.810  13.825
37002W        W96505  21.756  15.711   1.751
37003W        W96506  38.374  10.266   4.305
37004W        W96507   6.858  18.631   4.210
37005W        W96508  15.219  12.835  11.592
37006W        W96509  29.495  11.724   2.844
37007W        W96510   5.398  21.114   2.330
37008W        W96511  44.371   3.248  13.307
37009W        W96512  13.253   0.257   3.833
37010W        W96513  38.069  27.495  14.370
37011W        W96514  40.427  23.174   1.922
37012W        W96515   5.328  31.405   2.793
37013W        W96516   5.761  43.814  13.410
37014W        W96517  15.193  17.676   1.783
37015W        W96518  30.500   6.711  11.552
37016W        W96519  31.571  23.021  11.485
37017W        W96520   6.205   9.197  11.023
37018W        W96521   5.863  34.883   3.203
37019W        W96522  12.833  31.996  11.993
37020W        W96523  36.350  32.073   1.759
37021W        W96524   6.868  22.669   1.756
37022W        W96525  21.616  42.446   0.249
37023W        W96526   8.778  12.348  11.409
37024W        W96527  12.160   6.383  12.482
37025W        W96528  27.139  41.491   1.330
37026W        W96529  10.140  24.639   2.727
37027W        W96530  13.180   2.789   0.737
37028W        W96531  15.728  18.135  12.363
37029W        W96532  43.961  39.946  14.994
37030W        W96533   7.188  18.618  11.100
37031W        W96534  44.426  26.511  11.543
37032W        W96535  22.563  32.087   1.375
37033W        W96536  23.568  15.579  14.824
37034W        W96537   3.258  20.251   0.301
37035W        W96538  28.957  15.232  12.072
37036W        W96539  26.486   9.211   3.379
37037W        W96540  11.340   8.393  12.900
37038W        W96541  40.869  41.369  11.901
37039W        W96542  42.902  30.095   2.662
37040W        W96543   3.263   8.164   3.187
37041W        W96544  26.641  18.711  13.543
37042W        W96545  30.077  41.007  11.964
37043W        W96546  11.260  17.612   2.411
37044W        W96547  12.246  30.519  10.618
37045W        W96548  23.029  16.662   4.196
37046W        W96549  32.141  24.211  11.022
37047W        W96550  37.578  21.741  13.393
37048W        W96551  11.740  15.591  13.368
37049W        W96552  41.803  20.200  11.433
37050W        W96553  19.176  33.380  11.051
37051W        W96554  44.971  42.025  12.084
37052W        W96555   3.881  43.429   1.398
37053W        W96556  25.111   6.395   4.615
37054W        W96557  15.809  31.484  13.984
37055W        W96558  43.481  27.458  12.443
37056W        W96559  16.296   3.763  14.327
37057W        W96560  35.423   4.358   2.394
37058W        W96561  35.377   9.721   0.394
37059W        W96562  24.080  42.957  12.520
37060W        W96563   7.220  17.078  14.450
37061W        W96564   2.445  36.491  13.427
37062W        W96565  20.725   4.733  11.384
37063W        W96566  20.599  18.200  12.091
37064W        W96567  15.672   2.316  11.449
37065W        W96568  44.846  25.662   1.912
37066W        W96569  24.550  42.418   0.338
37067W        W96570  30.654   9.283   0.420
37068W        W96571  22.574  30.558  12.517
37069W        W96572  28.649  44.344  14.947
37070W        W96573   7.243   6.766  12.566
37071W        W96574  19.780   8.307  12.022
37072W        W96575  11.257  27.500  11.863
37073W        W96576  30.014  31.405  14.812
37074W        W96577   1.931  20.739   5.150
37075W        W96578  20.079   3.721   0.931
37076W        W96579   9.294  40.862  11.497
37077W        W96580  40.936  14.152   2.411
37078W        W96581  29.101  42.030  13.383
37079W        W96582   0.260   5.281   0.792
37080W        W96583  21.648   2.764  14.023
37081W        W96584   2.843  13.719  13.822
37082W        W96585  33.071   3.403   3.779
37083W        W96586   8.790  28.999  11.938
37084W        W96587  25.564  20.074  14.310
37085W        W96588  19.573  20.669   3.236
37086W        W96589  38.982  20.713  14.278
37087W        W96590  17.169  15.594  14.288
37088W        W96591   4.395  22.653  13.475
37089W        W96592  24.655  22.111   1.322
37090W        W96593  23.035  23.547   4.132
37091W        W96594  16.196  35.051  14.948
37092W        W96595  21.589   8.656  12.479
37093W        W96596   2.423  42.426  11.961
37094W        W96597  22.028  21.717   2.417
37095W        W96598  13.280  31.935  14.995
37096W        W96599   0.881  44.952  14.971
37097W        W96600  19.731   6.708  13.546
37098W        W96601  33.999  23.206  11.106
37099W        W96602   0.293  34.518  12.464
37100W        W96603  23.596  36.527   3.655
37101W        W96604  42.905  19.070  14.023
37102W        W96605   6.833  19.648   1.325
37103W        W96606  29.140  36.512   2.794
37104W        W96607  15.183  16.723  12.401
37105W        W96608  40.008  21.135  10.455
37106W        W96609   7.225   8.892   2.250
37107W        W96610  27.145  35.385  11.371
37108W        W96611  41.407  19.186   0.749
37109W        W96612  14.630  32.047   2.709
37110W        W96613  18.229  41.336  13.026
37111W        W96614   4.263   0.764  10.963
37112W        W96615  34.501   5.266   2.880
37113W        W96616   5.337  29.519  11.470
37114W        W96617  27.642  32.123  11.513
37115W        W96618   9.878  37.850  10.902
37116W        W96619   8.389  44.315  10.084
37117W        W96620  20.708  29.019  12.485
37118W        W96621   3.867  22.101   4.754
37119W        W96622  33.932  25.534  14.397
37120W        W96623  16.167  11.333  11.598
37121W        W96624  18.790   0.771  10.574
37122W        W96625  40.380  30.114  11.951
37123W        W96626   7.724   5.836  13.359
37124W        W96627  25.649  29.090  11.126
37125W        W96628   6.191   0.903  12.044
37126W        W96629  29.052   0.449  14.389
37127W        W96630  39.940  25.962   1.887
37128W        W96631   7.847  13.618   9.950
37129W        W96632  18.569  16.724  12.354
37130W        W96633  31.501   7.189   1.403
37131W        W96634   2.278   0.276  14.417
37132W        W96635   4.327  23.543  12.487
37133W        W96636  34.935  23.568  12.954
37134W        W96637   4.424  31.616   2.309
37135W        W96638  41.804  13.268   1.816
37136W        W96639   3.867  34.467   5.150
37137W        W96640  14.201   3.325   3.176
37138W        W96641  22.230  31.068  12.346
37139W        W96642  38.898   0.376   3.292
37140W        W96643  35.867  15.756  11.904
37141W        W96644  25.542   1.316   9.504
37142W        W96645  42.283  10.817  14.335
37143W        W96646  38.873  32.056   4.739
37144W        W96647  36.844  22.615   1.882
37145W        W96648   9.786   4.328  14.336
37146W        W96649  12.267  17.776   0.729
37147W        W96650  21.072  11.743   2.853
37148W        W96651  27.484  29.026  12.408
37149W        W96652   7.265  29.087  12.824
37150W        W96653  19.211  33.020   3.854
37151W        W96654  27.186  34.573   4.143
37152W        W96655   5.218   7.768  12.043
37153W        W96656  14.233   4.699  13.986
37154W        W96657   8.671  36.467  14.455
37155W        W96658  10.667  11.128   3.704
37156W        W96659   5.844  23.553  13.030
37157W        W96660  33.949  21.572  14.976
37158W        W96661  17.190   2.374  13.969
37159W        W96662  11.362  27.500   3.287
37160W        W96663  24.140  35.059  14.456
37161W        W96664  44.378  35.916  11.008
37162W        W96665   3.870  38.984  13.453
37163W        W96666  25.028  19.753  14.485
37164W        W96667  38.989  23.668  13.001
37165W        W96668  18.553   0.902  14.304
37166W        W96669   5.216   1.326   1.855
37167W        W96670  30.038  32.911  10.897
37168W        W96671  32.498   1.829   3.233
37169W        W96672  43.427  18.119   4.710
37170W        W96673  40.315  23.167  14.914
37171W        W96674  32.535  21.057  10.585
37172W        W96675   2.811   1.297   1.250
37173W        W96676   7.306  13.232   9.650
37174W        W96677  26.175   9.390  11.945
37175W        W96678  36.892  38.336  12.847
37176W        W96679  38.968  19.535  10.081
37177W        W96680  10.162  29.614   2.786
37178W        W96681  18.668  30.978  11.486
37179W        W96682  43.508   2.448   1.717
37180W        W96683  10.302  43.944  12.370
37181W        W96684   9.658  20.226   3.298
37182W        W96685  28.456  20.570  14.917
37183W        W96686   2.927  15.102  11.548
37184W        W96687  30.649  44.880  10.463
37185W        W96688   0.851  39.498  13.331
37186W        W96689  28.598   9.666   4.682
37187W        W96690  43.474  15.249   1.880
37188W        W96691   9.215  23.229  11.536
37189W        W96692   8.215  30.017  13.032
37190W        W96693  21.654  41.900   3.695
37191W        W96694   6.777  35.387  14.412
37192W        W96695   9.695   5.848  13.425
37193W        W96696  41.492   6.192   2.260
37194W        W96697  20.762  23.508  10.418
37195W        W96698   0.248  19.139  13.831
37196W        W96699  20.041   6.756   0.757
37197W        W96700   5.355  20.261   1.927
37198W        W96701  26.180  22.084  10.406
37199W        W96702  33.552  23.035   0.740
37200W        W96703  38.009  10.377  13.411
37201W        W96704  23.591  34.065   1.908
37202W        W96705   4.700   9.272   3.378
37203W        W96706   8.363  35.428   3.861
37204W        W96707  26.010   4.447   1.721
37205W        W96708  27.447  29.664  13.030
37206W        W96709  28.129  10.877   0.924
37207W        W96710  32.973  37.487  10.919
37208W        W96711  24.569  36.432   1.843
37209W        W96712  41.887  21.072  14.489
37210W        W96713  18.684  44.877  13.338
37211W        W96714  11.761   8.307   2.796
37212W        W96715  41.520  35.108  13.989
37213W        W96716  44.881  40.511  11.087
37214W        W96717  20.603  11.756   0.462
37215W        W96718  11.718   6.740   3.207
37216W        W96719  14.734  11.783   1.233
37217W        W96720  15.174   9.740   0.781
37218W        W96721   6.355  13.684   3.287
37219W        W96722  25.661  11.236   2.843
37220W        W96723  13.649  15.750   0.476
37221W        W96724   4.269   6.214  11.864
37222W        W96725  13.760  28.639  12.993
37223W        W96726   3.773  16.076   3.338
37224W        W96727  40.381  37.386  13.482
37225W        W96728   7.245  29.131  14.012
37226W        W96729  36.932  26.103  14.481
37227W        W96730  26.681  35.998   4.711
37228W        W96731  40.916  14.766  12.397
37229W        W96732  44.766  21.061  11.909
37230W        W96733  14.126  44.302  11.963
37231W        W96734  14.281  16.797  12.410
37232W        W96735  11.373  20.743   2.188
37233W        W96736  26.133  33.999   2.819
37234W        W96737  10.340  12.250  14.310
37235W        W96738  27.592  22.996   3.208
37236W        W96739  38.896  29.052  11.016
37237W        W96740  23.734  11.739   4.165
37238W        W96741   5.927  36.950  12.992
37239W        W96742  41.805   5.203   3.312
37240W        W96743   7.358  15.760   3.146
37241W        W96744  44.943  27.951  13.353
37242W        W96745   2.722  40.024  12.450
37243W        W96746   2.378   6.261   2.695
37244W        W96747  26.481  10.343  14.296
37245W        W96748  14.324  39.503  11.460
37246W        W96749  27.170  31.428  14.768
37247W        W96750  37.889   9.369  14.327
37248W        W96751   7.748  13.306   2.898
37249W        W96752  27.491  17.663  11.550
37250W        W96753  38.466  16.658  10.641
37251W        W96754  10.708  16.178   1.322
37252W        W96755  10.767  27.597   4.160
37253W        W96756   6.396   5.354   1.309
37254W        W96757  34.016  30.955   4.312
37255W        W96758  24.626  31.565  12.901
37256W        W96759  22.242  42.992  10.946
37257W        W96760  15.748  36.871  12.845
37258W        W96761  10.243   8.891   4.784
37259W        W96762  41.944   2.961   4.296
37260W        W96763  40.344  33.599   3.326
37261W        W96764  38.390  23.553  11.570
37262W        W96765  26.068   8.381   1.830
37263W        W96766  24.120  27.999   4.259
37264W        W96767  32.486  31.572   4.204
37265W        W96768  41.491  38.876   3.805
37266W        W96769  16.804  21.737  11.880
37267W        W96770  20.080  22.648   1.260
37268W        W96771  35.532  33.595  14.289
37269W        W96772  24.639  43.774   3.798
37270W        W96773  38.052   2.902   0.364
37271W        W96774  16.700  31.044  14.978
37272W        W96775  36.957   8.852   1.212
37273W        W96776   3.413  22.605  11.936
37274W        W96777  39.857  28.644  11.927
37275W        W96778  31.930  33.567   1.346
37276W        W96779  37.983  25.975  14.829
37277W        W96780  29.128  16.196   0.951
37278W        W96781  17.625  13.605   1.818
37279W        W96782   2.886  19.764   2.682
37280W        W96783  43.948  21.131   3.640
37281W        W96784  34.521  30.536  12.924
37282W        W96785  22.710   4.361  10.980
37283W        W96786   8.858  12.662   1.892
37284W        W96787   7.184  43.894  12.897
37285W        W96788  42.810  29.609   5.127
37286W        W96789  33.119  29.974   2.715
37287W        W96790  12.125   0.348  10.548
37288W        W96791  36.365   8.834  13.542
37289W        W96792  14.622  15.745   3.794
37290W        W96793  20.635  19.141   2.327
37291W        W96794  21.040   0.249  10.568
37292W        W96795   6.692  34.489  13.473
37293W        W96796  39.481  21.245   1.242
37294W        W96797   6.243  35.922   4.829
37295W        W96798  17.801  17.721  11.526
37296W        W96799  35.549  37.506   3.309
37297W        W96800  33.454  26.081   0.809
37298W        W96801   1.314  32.560  14.788
37299W        W96802  41.470   3.287   3.224
37300W        W96803  14.122  40.531   4.735
37301W        W96804  37.338   3.391   2.308
37302W        W96805  31.912   6.424  13.923
37303W        W96806  14.136   7.271   0.437
37304W        W96807  20.706  44.836  13.873
37305W        W96808   1.278   2.335  13.884
37306W        W96809   4.898  38.446  13.040
37307W        W96810   4.746  28.067  10.644
37308W        W96811   7.392  19.176   9.982
37309W        W96812  27.451  20.669  13.882
37310W        W96813  11.318  24.525  11.999
37311W        W96814  10.663   9.860  12.479
37312W        W96815  15.268  39.381   0.396
37313W        W96816  17.215   9.169  12.534
37314W        W96817  18.231   3.375  12.060
37315W        W96818  28.102  23.189  12.557
37316W        W96819  30.651  20.540   2.873
37317W        W96820  23.505  33.450   3.325
37318W        W96821  30.551  30.568  14.413
37319W        W96822  35.381  24.686  11.555
37320W        W96823  38.017   2.892  12.888
37321W        W96824  33.048   5.379  10.902
37322W        W96825   5.696  27.518  12.497
37323W        W96826   6.781   6.399  11.527
37324W        W96827  30.953   6.742   3.815
37325W        W96828  17.230  41.807   0.842
37326W        W96829  17.723   3.769  11.456
37327W        W96830  34.096  11.161   0.966
37328W        W96831  44.829  27.668   9.634
37329W        W96832  31.492  11.251   2.338
37330W        W96833   7.823  33.006  11.890
37331W        W96834  43.443  34.120   2.389
37332W        W96835  12.825  11.261  14.782
37333W        W96836  40.481  43.921  12.007
37334W        W96837  13.649   9.884  12.988
37335W        W96838  22.635  43.280  10.408
37336W        W96839  44.888  31.989  14.989
37337W        W96840  27.083  32.431  11.861
37338W        W96841  24.564  40.535   0.856
37339W        W96842  11.647  29.531  13.827
37340W        W96843  22.511  21.212  12.881
37341W        W96844  40.331   1.351   1.304
37342W        W96845  12.678   7.779  13.428
37343W        W96846  26.677   0.436   0.870
37344W        W96847  11.182  30.006   4.225
37345W        W96848  23.231  44.354  11.554
37346W        W96849  30.483  25.096  11.913
37347W        W96850  12.773   6.289   0.894
37348W        W96851  19.220  30.031   2.717
37349W        W96852  38.060  30.011   3.333
37350W        W96853  44.772  18.189  13.826
37351W        W96854  34.108  36.493   2.744
37352W        W96855  35.105  12.174   0.850
37353W        W96856   3.371  32.548  13.487
37354W        W96857  18.780  38.984  12.901
37355W        W96858  37.011   4.316   0.317
37356W        W96859  25.605  14.691  13.320
37357W        W96860  37.916   4.788   0.856
37358W        W96861  23.656  38.560   3.828
37359W        W96862  19.692  29.011   3.251
37360W        W96863  35.885  27.062  12.960
37361W        W96864  14.760  17.182  12.879
37362W        W96865  12.163   8.388   0.287
37363W        W96866  18.128   7.905   2.897
37364W        W96867  20.746  37.927  13.392
37365W        W96868  36.512  12.620   0.832
37366W        W96869   0.311  39.974   0.867
37367W        W96870   6.293  40.950  13.979
37368W        W96871  43.843   0.962  14.023
37369W        W96872  14.280  40.823  12.051
37370W        W96873  20.603  22.231   2.881
37371W        W96874   0.767   2.932   0.249
37372W        W96875  41.529  18.780  14.500
37373W        W96876   6.214   7.256  13.344
37374W        W96877  19.605  18.595  13.418
37375W        W96878   4.795  12.154   2.280
37376W        W96879  20.668  14.322  12.863
37377W        W96880  24.075   1.956  11.379
37378W        W96881  13.846   4.847   2.882
37379W        W96882  10.162  24.068   0.377
37380W        W96883   6.385  30.472  13.437
37381W        W96884  37.543  31.573   4.255
37382W        W96885  28.471  25.518   0.800
37383W        W96886   2.417  29.953   1.324
37384W        W96887   4.288   9.652   2.229
37385W        W96888   9.837  31.444   0.461
37386W        W96889  33.107  28.037   2.375
37387W        W96890   8.192  28.157   4.755
37388W        W96891  14.265   4.229   4.165
37389W        W96892  40.413  24.161   0.404
37390W        W96893  43.400  39.876  11.408
37391W        W96894  17.203  34.470  12.513
37392W        W96895  31.591   2.377  14.405
37393W        W96896  14.106  12.196   3.646
37394W        W96897  19.735  22.570   4.798
37395W        W96898  16.624  18.193   2.665
37396W        W96899  36.083  18.145   1.427
37397W        W96900  11.741  18.563   0.929
37398W        W96901   1.444  15.687  10.547
37399W        W96902  42.831   1.867   4.135
37400W        W96903   2.931  42.319   0.938
37401W        W96904  35.418  12.344  12.365
37402W        W96905  24.049  17.642   0.336
37403W        W96906  37.444  14.731  14.477
37404W        W96907  16.260  30.115   3.345
37405W        W96908  28.453  34.496  14.279
37406W        W96909  17.787  29.564  11.536
37407W        W96910  36.846   2.911   3.269
37408W        W96911  30.096  31.147  13.533
37409W        W96912  19.284   6.853   3.311
37410W        W96913  12.254  25.110  11.582
37411W        W96914   8.171  34.963  10.475
37412W        W96915  39.989  40.488   1.262
37413W        W96916  28.575  23.676   1.740
37414W        W96917  42.782  24.067   1.823
37415W        W96918  20.228  37.431  13.414
37416W        W96919   2.860  27.960   0.481
37417W        W96920  43.860  18.076   0.348
37418W        W96921  28.021  37.957  13.471
37419W        W96922  32.071  24.056  11.555
37420W        W96923  18.158  26.194   1.898
37421W        W96924  38.481   7.367   4.169
37422W        W96925  37.396  37.449   1.338
37423W        W96926  19.192  39.407   0.913
37424W        W96927  12.122  43.315   1.728
37425W        W96928  34.968  39.511  10.424
37426W        W96929   7.206  30.040  12.915
37427W        W96930   3.413  31.570   3.346
37428W        W96931  13.831  12.737   4.794
37429W        W96932  15.305   3.268  13.346
37430W        W96933  21.752  35.989  11.123
37431W        W96934  37.967  36.383  12.535
37432W        W96935  20.173  31.410   1.377
37433W        W96936   2.786  23.159  11.898
37434W        W96937  12.236  11.147   4.682
37435W        W96938  12.610  25.627   2.812
37436W        W96939   6.729   0.402  12.858
37437W        W96940   3.943   2.857   4.665
37438W        W96941   9.661  15.610   0.926
37439W        W96942  33.116  43.383  13.387
37440W        W96943   3.307  41.792   3.864
37441W        W96944  30.014  36.381   4.288
37442W        W96945  30.132   5.742  13.497
37443W        W96946   8.227  31.945   3.807
37444W        W96947   9.226  14.595  14.960
37445W        W96948  17.627  23.001  12.574
37446W        W96949  24.620  12.186   3.723
37447W        W96950   8.657  33.542  10.002
37448W        W96951  27.152  14.114   4.126
37449W        W96952  39.384  25.206  12.003
37450W        W96953  13.163  42.016   4.277
37451W        W96954  21.638  30.610  11.555
37452W        W96955  35.054  44.421  10.436
37453W        W96956  15.274  26.534   0.872
37454W        W96957  41.445  12.205  12.960
37455W        W96958  34.407  28.130   0.727
37456W        W96959  10.359   7.860   4.343
37457W        W96960   0.490  15.711  10.126
37458W        W96961   8.774  23.001   0.932
37459W        W96962  14.750  38.561   4.120
37460W        W96963  34.549  16.273   4.720
37461W        W96964  33.095  10.802  12.044
37462W        W96965  21.197  17.603  11.389
37463W        W96966  28.079   6.860  12.345
37464W        W96967  16.104  26.677  14.329
37465W        W96968  40.346  11.788   2.779
37466W        W96969  15.740  20.031  11.388
37467W        W96970  25.002   9.226  11.960
37468W        W96971  23.656  15.256  14.761
37469W        W96972   7.754  26.539   2.341
37470W        W96973  31.034  40.477   3.301
37471W        W96974   0.461  20.253  11.580
37472W        W96975  41.383  28.459   3.384
37473W        W96976  44.869  39.413   2.418
37474W        W96977  43.864  27.962   4.209
37475W        W96978  26.060  31.001  14.996
37476W        W96979  15.580   9.669  12.083
37477W        W96980   9.247   0.463   4.350
37478W        W96981  27.667  25.625   1.838
37479W        W96982  36.069  33.574  14.784
37480W        W96983  19.644  36.480   0.390
37481W        W96984  42.010   5.437   2.216
37482W        W96985  36.896  30.035   2.864
37483W        W96986  30.108  11.179   5.286
37484W        W96987  43.936   4.235   0.310
37485W        W96988  43.776  10.847   2.865
37486W        W96989   5.291   5.720  10.480
37487W        W96990  35.979   3.369   4.659
37488W        W96991  28.112  30.615  13.317
37489W        W96992  20.152  20.577   4.696
37490W        W96993   3.865   6.889   3.655
37491W        W96994   2.274  10.317  11.019
37492W        W96995  40.442  14.639  12.956
37493W        W96996  42.919   7.177  10.517
37494W        W96997  33.602  23.699   2.325
37495W        W96998  21.544  23.531  11.068
37496W        W96999  24.213  31.584   1.337
37497W        W97000  18.711   2.317  14.444
37498W        W97001   4.727   0.323  13.308
37499W        W97002  16.694  36.474   0.376
37500W        W97003  15.207  25.126   2.867
37501W        W97004  18.251   3.428  10.464
37502W        W97005   5.824  10.175  12.507
37503W        W97006   0.480  13.154  11.015
37504W        W97007  30.520  10.768   5.085
37505W        W97008  42.922  17.581  11.934
37506W        W97009   2.338   0.358  11.426
37507W        W97010  21.037  17.231   3.720
37508W        W97011  17.715  21.250   1.906
37509W        W97012  13.704  28.044   2.278
37510W        W97013  35.489  19.581   3.867
37511W        W97014   4.217   8.294   4.351
37512W        W97015  29.660  42.863   5.138
37513W        W97016  33.404  28.138   0.900
37514W        W97017  40.850  40.839   2.800
37515W        W97018  11.798  28.594  11.434
37516W        W97019  44.987  40.909  12.365
37517W        W97020   8.830   8.788   0.742
37518W        W97021  17.707  37.416   5.185
37519W        W97022   5.360  31.928  10.953
37520W        W97023  35.486  35.925  14.807
37521W        W97024  21.253  26.132   2.852
37522W        W97025   8.667   3.939   2.252
37523W        W97026  39.991  36.529   4.597
37524W        W97027  43.295  21.656   4.139
37525W        W97028   4.831   5.918  13.904
37526W        W97029  30.636   2.910  12.464
37527W        W97030  20.248  13.235  13.332
37528W        W97031   3.299  22.531  11.465
37529W        W97032  29.984  38.403  14.966
37530W        W97033  41.371  32.952   4.207
37531W        W97034  42.463   9.868   1.300
37532W        W97035  25.135  26.966  12.427
37533W        W97036  15.190  40.373  13.330
37534W        W97037  38.499  11.203  10.411
37535W        W97038  19.075   5.217  12.532
37536W        W97039  30.567  15.667   2.341
37537W        W97040  12.361   6.411   3.801
37538W        W97041  20.258  42.939   9.958
37539W        W97042  35.046  43.776  12.863
37540W        W97043  20.261  26.598  11.066
37541W        W97044  42.846  36.026  14.441
37542W        W97045   7.373  19.264   2.720
37543W        W97046   6.336   8.803  12.556
37544W        W97047  39.410  13.118  12.484
37545W        W97048  11.778   1.441   4.634
37546W        W97049   4.878  25.660   9.957
37547W        W97050  18.273  29.544  13.325
37548W        W97051  41.807  14.152   5.113
37549W        W97052  17.649  19.119  11.606
37550W        W97053  21.111  13.207   2.214
37551W        W97054  25.541   3.459   1.808
37552W        W97055   6.225  35.048  12.440
37553W        W97056  11.204  26.027   0.465
37554W        W97057  20.751   8.724  13.326
37555W        W97058  39.993   6.261  13.982
37556W        W97059  32.531  17.603  11.513
37557W        W97060  11.348   5.213  12.932
37558W        W97061   0.933  11.817   4.243
37559W        W97062  15.641   0.864  13.504
37560W        W97063  44.469  21.190   2.670
37561W        W97064  13.269   3.798  10.473
37562W        W97065  38.957  19.582  12.860
37563W        W97066  11.224  26.053  12.512
37564W        W97067  30.428  40.803   3.234
37565W        W97068  30.607  22.658   2.206
37566W        W97069  19.080  44.434   3.230
37567W        W97070  20.590   8.764   2.675
37568W        W97071   0.766   6.679   4.312
37569W        W97072  29.661  30.907  12.417
37570W        W97073   7.772  31.549   2.811
37571W        W97074  29.080   5.926  12.399
37572W        W97075  28.018   6.705   2.334
37573W        W97076  36.873  17.300  13.866
37574W        W97077  39.537   2.922  13.545
37575W        W97078  11.175   8.784  13.314
37576W        W97079  20.641  18.247   0.325
37577W        W97080  32.998  29.425  14.904
37578W        W97081  13.745  14.100   2.794
37579W        W97082  24.130   3.947   3.684
37580W        W97083  34.920  43.310  11.866
37581W        W97084  43.931  30.516  12.547
37582W        W97085  18.744  40.470  11.104
37583W        W97086  27.068  21.528   4.736
37584W        W97087  25.537  17.566  10.550
37585W        W97088  25.032  15.580   3.227
37586W        W97089  43.355   3.332   9.999
37587W        W97090  18.660   9.766  11.084
37588W        W97091   4.717  21.580   3.151
37589W        W97092   3.854  17.647  14.497
37590W        W97093  22.634  39.455   2.285
37591W        W97094  26.664  22.170  11.579
37592W        W97095   7.175   5.340  10.496
37593W        W97096  12.824  22.543   1.305
37594W        W97097   3.265   2.253  10.404
37595W        W97098  31.045  37.442  12.071
37596W        W97099   3.282  17.110  14.470
37597W        W97100   7.717  18.190  12.940
37598W        W97101  24.135  17.753   1.704
37599W        W97102  16.245  37.935   2.768
37600W        W97103  40.872  40.960   1.325
37601W        W97104  32.973  17.186  11.897
37602W        W97105  14.712  23.135   1.349
37603W        W97106  44.470  21.610   9.957
37604W        W97107  21.200  37.958  10.945
37605W        W97108  23.622  20.547   4.307
37606W        W97109  39.394   3.775   3.792
37607W        W97110  15.772  43.881  14.764
37608W        W97111  17.787   9.746  13.318
37609W        W97112  41.498   0.431   3.856
37610W        W97113  34.459   6.240  11.380
37611W        W97114  13.701  42.000   0.861
37612W        W97115  32.491  44.819  14.350
37613W        W97116  26.581   2.866   1.747
37614W        W97117  41.035  18.193  12.040
37615W        W97118  23.196   7.179  14.952
37616W        W97119  37.003  27.089  10.950
37617W        W97120  25.513  41.478  11.911
37618W        W97121  34.520  31.051   1.723
37619W        W97122  44.936   1.427  13.835
37620W        W97123  17.184   4.741   9.984
37621W        W97124  39.826  25.490  13.972
37622W        W97125   7.730  15.085   1.740
37623W        W97126  25.655  17.200  14.011
37624W        W97127  14.313   8.892  13.425
37625W        W97128  34.562  17.679   1.316
37626W        W97129  40.514  17.777   1.720
37627W        W97130  30.484  16.256  14.813
37628W        W97131  43.887  22.515  13.874
37629W        W97132  44.780  21.116  13.942
37630W        W97133  38.030  41.985  14.326
37631W        W97134  33.940   6.760  12.511
37632W        W97135   6.324  11.364  13.389
37633W        W97136  32.450  29.545  14.766
37634W        W97137  16.690  32.579  14.926
37635W        W97138  44.320   4.903  12.521
37636W        W97139   0.783  23.536   9.978
37637W        W97140  24.076   1.241   3.202
37638W        W97141   4.268  25.179   4.193
37639W        W97142  43.278  26.684   1.736
37640W        W97143  35.929   1.448   1.716
37641W        W97144  25.079   8.862  13.495
37642W        W97145   9.335  37.080   0.850
37643W        W97146   7.909  16.799  12.358
37644W        W97147  40.968  44.899   2.773
37645W        W97148  17.299  15.106   1.320
37646W        W97149  32.051  11.359   2.409
37647W        W97150  40.928   4.328   3.330
37648W        W97151  14.766   6.424  10.556
37649W        W97152  27.021  35.055   2.672
37650W        W97153  13.631   6.759   4.718
37651W        W97154   8.811  16.307   2.879
37652W        W97155  23.198  32.096   2.888
37653W        W97156  29.663  42.862  10.039
37654W        W97157  43.355  15.250  10.420
37655W        W97158  40.476  13.224  14.884
37656W        W97159   5.901   7.860  12.972
37657W        W97160  23.042  22.211  13.419
37658W        W97161   7.670  26.979   3.845
37659W        W97162  25.989   9.805  10.494
37660W        W97163  22.158  27.467   1.347
37661W        W97164  25.968   1.927  12.417
37662W        W97165  38.335   5.719   0.254
37663W        W97166  33.063   0.392  12.018
37664W        W97167  33.390  26.126  12.922
37665W        W97168  40.929  27.602   1.336
37666W        W97169   9.815  18.645  12.085
37667W        W97170  14.794  22.056  10.110
37668W        W97171  31.554  24.085  12.059
37669W        W97172  42.937  39.051  11.859
37670W        W97173  40.547  29.062   2.819
37671W        W97174  41.887  29.555   0.927
37672W        W97175  28.550  40.341   3.706
37673W        W97176  21.120  37.996  14.495
37674W        W97177  19.669  33.528  11.391
37675W        W97178  33.423   7.830   4.765
37676W        W97179  18.264  39.456  12.882
37677W        W97180  24.689  15.113  14.765
37678W        W97181  19.231  19.177  12.986
37679W        W97182   3.376  44.418  11.979
37680W        W97183  26.601  33.544  13.394
37681W        W97184   0.251  36.895   2.670
37682W        W97185   6.832   0.970   3.685
37683W        W97186  37.400  38.371   2.392
37684W        W97187   0.959  37.004  11.567
37685W        W97188   9.708  12.751  11.575
37686W        W97189  11.173  39.061   2.221
37687W        W97190  44.328  30.953   2.211
37688W        W97191  38.529   5.382  13.418
37689W        W97192  34.403  34.580  14.850
37690W        W97193  32.104   2.336   3.803
37691W        W97194  29.432  18.139  10.923
37692W        W97195  17.731  21.750  13.849
37693W        W97196   7.305   4.450  11.907
37694W        W97197   0.985  15.226   1.439
37695W        W97198  12.851   2.240  12.400
37696W        W97199  40.488  37.884  11.031
37697W        W97200  37.414   9.815  14.402
37698W        W97201  20.690   2.467  14.992
37699W        W97202  14.235  12.151   2.805
37700W        W97203  13.732  43.937   4.812
37701W        W97204  14.671  35.541  14.815
37702W        W97205  36.573   3.323   0.389
37703W        W97206  33.032  28.047   1.335
37704W        W97207  31.426  36.057  12.050
37705W        W97208  28.964   8.770  13.856
37706W        W97209  25.686  22.540   0.789
37707W        W97210  17.197  22.546  12.546
37708W        W97211  24.208  33.948  10.592
37709W        W97212  44.375   8.388   0.473
37710W        W97213  44.345   3.270   4.598
37711W        W97214  22.503  39.857   4.183
37712W        W97215  38.432  35.570  12.832
37713W        W97216  15.091  10.141  11.495
37714W        W97217   3.919  16.282  14.344
37715W        W97218  42.792  40.821   2.799
37716W        W97219  20.541   9.666   0.766
37717W        W97220  35.578  11.696   3.217
37718W        W97221   7.248  12.643   4.147
37719W        W97222  14.232  43.973   1.317
37720W        W97223  36.933   2.928  10.644
37721W        W97224   9.182  13.653  10.506
37722W        W97225  44.385  19.124   3.815
37723W        W97226  11.360  23.606   3.871
37724W        W97227  43.803  31.095   0.436
37725W        W97228  36.946   3.879   2.789
37726W        W97229   3.909  24.525   1.375
37727W        W97230   7.222  39.523   4.815
37728W        W97231  16.249  21.171  14.506
37729W        W97232  24.212  23.019   2.344
37730W        W97233  33.574  28.930  14.807
37731W        W97234  27.974  28.514   0.770
37732W        W97235   3.372  36.479   2.212
37733W        W97236  37.524   3.723   3.247
37734W        W97237  21.227  37.019   3.819
37735W        W97238  32.594  13.257   3.155
37736W        W97239   9.319   4.359   0.434
37737W        W97240  28.102  39.378  13.540
37738W        W97241  41.909   6.687   0.244
37739W        W97242  24.142  27.021  11.583
37740W        W97243   5.813  29.959   3.292
37741W        W97244  30.648  13.746  14.459
37742W        W97245  42.801  38.952  10.599
37743W        W97246  22.720  26.634   2.418
37744W        W97247  11.691   6.859   3.830
37745W        W97248  18.113  10.155  12.053
37746W        W97249  31.490   0.865   4.752
37747W        W97250  38.452   5.228  14.409
37748W        W97251   4.297  34.466  13.050
37749W        W97252  31.504  29.495  14.819
37750W        W97253  22.237   7.319   3.714
37751W        W97254  12.824  32.967  11.444
37752W        W97255  19.543  10.159   1.381
37753W        W97256   0.458  12.353  14.412
37754W        W97257  26.579   1.287   0.461
37755W        W97258  36.086   6.907  12.030
37756W        W97259   1.953  42.927  12.097
37757W        W97260   5.202  13.112  12.951
37758W        W97261   0.974  31.517   1.929
37759W        W97262  32.489  30.423   0.268
37760W        W97263   9.777  18.648   2.797
37761W        W97264  43.012  37.042   1.862
37762W        W97265  42.997   0.253  11.531
37763W        W97266  41.421  28.522   1.356
37764W        W97267  38.034  22.624  12.984
37765W        W97268  32.889  42.341   2.387
37766W        W97269  16.624  30.048   0.352
37767W        W97270  35.075  21.719   3.778
37768W        W97271  33.534   3.434  12.942
37769W        W97272  26.681   8.675   1.872
37770W        W97273   8.830  36.869  11.034
37771W        W97274  39.900  28.070   2.251
37772W        W97275   7.309  31.574   0.946
37773W        W97276  41.411  41.982   4.190
37774W        W97277  38.908  37.022  11.043
37775W        W97278  41.338  40.834  14.391
37776W        W97279   5.364  31.900   2.228
37777W        W97280  18.244   5.369   0.846
37778W        W97281   9.328  11.714   4.781
37779W        W97282  42.350   6.692   0.481
37780W        W97283  43.934  23.175   4.118
37781W        W97284   7.786  33.463  12.532
37782W        W97285  16.266  44.449   2.752
37783W        W97286   0.954  10.751  14.775
37784W        W97287  26.193  25.207  14.002
37785W        W97288  25.520  25.631   0.962
37786W        W97289  10.660  30.978  10.974
37787W        W97290  11.151  44.897   1.268
37788W        W97291   2.383  36.010  12.071
37789W        W97292  23.073   3.367   0.733
37790W        W97293   8.817  17.156   2.365
37791W        W97294  17.111  14.799   2.739
37792W        W97295  20.178  40.834  13.363
37793W        W97296   0.786  22.166  13.807
37794W        W97297  38.010  42.796   4.169
37795W        W97298  44.389  30.129   3.804
37796W        W97299  37.012  36.886   0.863
37797W        W97300  38.821  31.419   4.345
37798W        W97301  25.503  41.316  13.997
37799W        W97302  42.885  37.085   0.810
37800W        W97303  21.138   8.847   3.668
37801W        W97304  20.586  16.292   4.236
37802W        W97305  10.682  39.063  11.028
37803W        W97306  28.647   2.848  10.980
37804W        W97307   8.680  17.654  14.021
37805W        W97308  15.730  38.518   2.208
37806W        W97309  31.570  15.664   2.816
37807W        W97310  12.668   1.875   1.872
37808W        W97311  10.224  42.464  11.099
37809W        W97312   7.887   3.846  10.518
37810W        W97313   6.754   0.911  12.414
37811W        W97314   2.817  18.177  12.414
37812W        W97315  27.616  44.794   4.760
37813W        W97316  20.157   8.865  10.405
37814W        W97317  26.996  33.431  12.365
37815W        W97318  11.261   9.750   4.313
37816W        W97319  31.900  26.009   3.158
37817W        W97320  15.241  30.612  12.856
37818W        W97321  18.650  16.128  13.478
37819W        W97322  16.811  12.128   2.337
37820W        W97323  21.616   7.805  12.539
37821W        W97324  40.011   7.808  12.979
37822W        W97325   6.864  36.985  13.495
37823W        W97326  24.561  22.245   2.732
37824W        W97327   0.752   6.216  14.769
37825W        W97328  12.214  33.893   3.283
37826W        W97329   7.760  18.162  14.398
37827W        W97330  33.889  33.998   0.328
37828W        W97331  35.855  33.406   1.443
37829W        W97332  43.504  25.055  11.011
37830W        W97333  31.492   4.733   0.374
37831W        W97334   6.346   3.793   1.845
37832W        W97335  38.472  18.206  14.415
37833W        W97336   2.802   2.314   4.826
37834W        W97337   5.425  35.361   1.757
37835W        W97338  38.396  25.604  11.578
37836W        W97339  21.138   0.378   2.670
37837W        W97340   4.732  17.640   2.717
37838W        W97341  39.347   9.877   2.221
37839W        W97342  19.124  40.890   3.298
37840W        W97343  17.297  44.403   1.742
37841W        W97344  26.672  29.484   0.473
37842W        W97345  31.131  32.092   1.342
37843W        W97346  23.178  43.275   3.748
37844W        W97347  20.226  10.770  11.553
37845W        W97348   6.298  31.919   4.648
37846W        W97349  43.496   7.172   1.901
37847W        W97350  31.936  40.439   2.259
37848W        W97351   8.189  22.082   1.728
37849W        W97352  40.346  30.068  10.468
37850W        W97353   4.223  34.537  13.460
37851W        W97354  17.164  10.310  11.887
37852W        W97355  38.976  30.949   2.895
37853W        W97356  43.002  13.672  13.354
37854W        W97357   3.318  32.015   4.797
37855W        W97358  35.895  40.799  12.351
37856W        W97359  42.826   5.374   1.742
37857W        W97360  17.195  43.295   2.734
37858W        W97361  13.798  10.766  13.956
37859W        W97362   3.900  12.695   3.847
37860W        W97363  21.641  34.053   3.747
37861W        W97364   2.443   4.420   3.306
37862W        W97365  24.029  32.977   4.192
37863W        W97366   7.717  40.343  13.030
37864W        W97367  18.206  37.411   4.179
37865W        W97368  20.191   3.307   1.242
37866W        W97369  27.513  18.754   3.160
37867W        W97370   0.818  15.243  13.038
37868W        W97371  31.418  12.116   4.794
37869W        W97372  35.096  14.105  12.001
37870W        W97373  42.352   9.643   0.939
37871W        W97374  20.705  23.519  14.890
37872W        W97375   7.763  23.648   4.600
37873W        W97376  40.403  39.320  13.335
37874W        W97377  29.580  43.780   0.736
37875W        W97378  38.902  26.690   4.740
37876W        W97379  30.589  17.124  12.445
37877W        W97380   7.354  37.973  14.441
37878W        W97381  44.269  11.148  13.051
37879W        W97382  32.008  27.668  13.409
37880W        W97383   0.929  25.070  14.990
37881W        W97384  12.182  35.598   0.878
37882W        W97385   0.764  28.985   2.730
37883W        W97386   5.878   8.877  10.435
37884W        W97387   5.859   7.781   1.753
37885W        W97388  27.499  10.171   4.696
37886W        W97389   5.210  43.963  11.371
37887W        W97390   2.232  25.075   3.862
37888W        W97391  39.933   0.446  11.579
37889W        W97392   3.741  42.438  10.600
37890W        W97393   4.846  14.678  13.523
37891W        W97394  41.802  20.692   0.840
37892W        W97395   2.780  21.162   3.302
37893W        W97396  14.624  29.918   3.768
37894W        W97397   2.338  25.671   2.300
37895W        W97398  12.848  25.097   1.868
37896W        W97399  13.166   1.905   0.767
37897W        W97400  32.554  26.541   2.196
37898W        W97401  23.600   1.284  13.854
37899W        W97402   8.855  20.608   1.784
37900W        W97403  24.133  26.647  14.474
37901W        W97404  11.358  40.962  13.934
37902W        W97405  15.121   4.742  12.057
37903W        W97406   2.901  37.955  13.865
37904W        W97407  43.430   1.749   4.348
37905W        W97408  40.370   2.955   3.251
37906W        W97409  44.924  35.108   3.807
37907W        W97410  19.047  36.972   0.802
37908W        W97411  43.943  32.068  11.015
37909W        W97412  42.367  12.295  11.406
37910W        W97413  43.953   2.821  14.357
37911W        W97414  19.135  32.021   1.229
37912W        W97415  21.744  15.283  12.520
37913W        W97416  36.017   9.706   3.792
37914W        W97417  28.148   4.219   0.479
37915W        W97418  21.141  20.153  11.950
37916W        W97419   5.413  42.513   4.217
37917W        W97420  38.825  39.543   2.355
37918W        W97421   0.894  36.044   3.264
37919W        W97422   8.880  21.152   3.325
37920W        W97423   0.976  42.284   2.775
37921W        W97424  19.283  33.562   1.397
37922W        W97425   9.201  38.995   0.277
37923W        W97426  42.788   9.165  14.783
37924W        W97427  35.452  10.307   3.320
37925W        W97428  37.441  14.785   0.799
37926W        W97429   1.287  31.005   0.823
37927W        W97430   8.301  35.434   2.705
37928W        W97431  24.007   2.937   0.440
37929W        W97432  32.449   1.938  11.606
37930W        W97433  36.848  40.026   1.775
37931W        W97434   5.349  31.081  12.052
37932W        W97435  15.631  15.152   0.357
37933W        W97436   8.700  43.447  14.894
37934W        W97437   1.302  41.847  13.538
37935W        W97438  16.604  22.142  11.107
37936W        W97439   8.291  22.664  13.919
37937W        W97440  16.122  18.681  13.841
37938W        W97441  20.668  28.944  13.824
37939W        W97442  26.126  23.582  12.883
37940W        W97443   0.967   3.836  10.968
37941W        W97444  44.440   5.706  12.955
37942W        W97445  29.952  22.017  14.363
37943W        W97446  17.616  11.268   1.446
37944W        W97447  33.117  13.211  13.335
37945W        W97448  18.560  26.104  14.948
37946W        W97449  11.232  25.622   4.151
37947W        W97450  41.491  10.186  11.951
37948W        W97451   5.302  42.025  11.530
37949W        W97452  28.025  24.672  13.909
37950W        W97453  28.041  15.242   0.434
37951W        W97454  12.146  25.995   2.772
37952W        W97455   2.780   2.247  12.428
37953W        W97456  34.523  17.782  10.631
37954W        W97457  36.068  23.697  14.851
37955W        W97458  40.860  25.714  10.520
37956W        W97459   4.322  19.758  14.280
37957W        W97460  19.557  35.869  13.349
37958W        W97461  39.823   2.408  13.528
37959W        W97462  32.507  19.106   2.191
37960W        W97463  10.189  28.497  12.517
37961W        W97464  12.823   1.439   0.448
37962W        W97465  43.774  42.031   0.745
37963W        W97466  40.947   4.805  12.481
37964W        W97467  21.566  29.144   2.796
37965W        W97468   9.823  14.713  14.436
37966W        W97469  21.170  16.730  14.825
37967W        W97470  28.129  33.128   3.357
37968W        W97471  44.496  44.986  12.448
37969W        W97472  20.143   9.799  13.440
37970W        W97473  14.146   1.772   4.245
37971W        W97474   6.212  28.459  11.063
37972W        W97475  22.717  39.811   1.928
37973W        W97476   8.727  37.461  11.003
37974W        W97477  32.004  38.480   3.706
37975W        W97478  42.336  29.158  12.368
37976W        W97479  28.931  42.879  13.032
37977W        W97480  36.415  19.166  12.508
37978W        W97481  21.565   2.268   0.917
37979W        W97482   9.757  10.665  11.988
37980W        W97483   8.365   4.710   4.796
37981W        W97484  13.711  14.741  14.359
37982W        W97485  37.898  36.517   4.294
37983W        W97486  21.203   0.824  14.840
37984W        W97487  25.186  11.832  13.010
37985W        W97488   0.854  10.826  13.794
37986W        W97489   7.846  28.570  14.291
37987W        W97490  24.149  14.617  13.954
37988W        W97491  10.807  19.585   1.705
37989W        W97492  29.588   8.207  12.009
37990W        W97493  21.162   0.971  13.457
37991W        W97494  17.714  13.164  14.407
37992W        W97495  30.017  44.266   2.892
37993W        W97496   9.827  29.985   3.649
37994W        W97497   1.346   8.818   4.836
37995W        W97498  16.720  25.661   0.760
37996W        W97499  36.514  22.736   4.690
37997W        W97500   9.169   5.195   3.238
37998W        W97501  32.894  19.705   4.682
37999W        W97502  17.694  34.492  14.405
38000W        W97503   7.834  26.567  13.940
38001W        W97504   3.326   3.780   1.259
38002W        W97505  17.292  42.032   5.202
38003W        W97506  17.756   4.381   3.164
38004W        W97507   2.897  41.001   4.220
38005W        W97508   9.793   1.312  12.086
38006W        W97509  18.287  21.572   1.369
38007W        W97510  39.425  14.646  11.507
38008W        W97511  40.950  38.333   1.912
38009W        W97512  39.978  26.034  12.350
38010W        W97513  17.171  15.228   0.762
38011W        W97514   5.744   3.938  12.370
38012W        W97515   8.197  31.011   0.461
38013W        W97516  26.578  18.104  14.362
38014W        W97517   8.863  33.612  14.935
38015W        W97518  29.546  19.279   3.377
38016W        W97519  24.029  34.913  12.830
38017W        W97520  42.313  26.475  14.961
38018W        W97521  33.028  21.107   4.170
38019W        W97522  28.097  24.658   3.869
38020W        W97523  35.008  44.342  12.340
38021W        W97524  29.960  36.849   2.769
38022W        W97525   6.700  27.115   4.655
38023W        W97526  36.442   8.769   2.178
38024W        W97527  26.628  29.446  11.947
38025W        W97528  20.206  22.229   0.412
38026W        W97529  17.675  34.896   2.220
38027W        W97530   5.758  19.603  13.905
38028W        W97531  36.948  22.534   4.745
38029W        W97532  37.405  39.328  10.566
38030W        W97533  22.061  13.278   2.198
38031W        W97534  39.054   8.192   5.797
38032W        W97535  19.051   9.196   1.433
38033W        W97536  21.523  30.099   1.320
38034W        W97537  29.006  30.478  14.892
38035W        W97538  13.770  10.665   3.754
38036W        W97539   0.982  13.752  14.875
38037W        W97540  14.288  43.330  14.779
38038W        W97541  26.638  34.997  14.497
38039W        W97542   6.715   2.818  12.383
38040W        W97543  28.520  20.106  10.930
38041W        W97544  33.928  33.433   4.120
38042W        W97545  18.772  20.077  13.378
38043W        W97546   9.245   6.276   1.401
38044W        W97547  23.668  13.752   1.230
38045W        W97548  14.633  36.395  12.401
38046W        W97549  43.381  21.074  11.126
38047W        W97550  20.227  44.331  14.896
38048W        W97551  43.848  30.968  14.909
38049W        W97552  14.324  27.560  11.888
38050W        W97553  41.971  32.602  12.429
38051W        W97554  23.611  13.833   2.693
38052W        W97555  36.533   0.945   2.667
38053W        W97556  33.052  27.120  12.467
38054W        W97557  13.127  13.692   1.800
38055W        W97558   6.234  26.630  12.870
38056W        W97559  24.620  42.983   0.793
38057W        W97560  33.031  26.629   3.827
38058W        W97561  33.576  31.414  13.340
38059W        W97562  16.129   8.737   4.151
38060W        W97563   8.369  39.826   0.415
38061W        W97564  38.364  28.051  12.382
38062W        W97565  14.107  18.747   1.317
38063W        W97566  41.335   3.830  12.978
38064W        W97567  25.072  44.788   4.209
38065W        W97568   9.649  34.412   4.171
38066W        W97569  15.183  39.445  13.809
38067W        W97570  44.849  36.886   1.802
38068W        W97571  19.575   1.468   4.121
38069W        W97572   3.307  13.825   2.244
38070W        W97573  20.081  43.835   3.254
38071W        W97574  38.051  25.472   2.335
38072W        W97575  39.911  33.997   0.438
38073W        W97576   4.942  13.607  12.556
38074W        W97577  34.494   1.813  12.084
38075W        W97578  12.272  32.541  11.454
38076W        W97579  34.426  19.215   0.846
38077W        W97580  37.533  41.501   4.796
38078W        W97581  25.067  13.161  14.839
38079W        W97582  19.601  24.992   1.899
38080W        W97583  15.729  39.828  10.913
38081W        W97584  16.224   0.857  14.422
38082W        W97585   6.271  34.023   1.365
38083W        W97586   4.790  18.579   5.276
38084W        W97587  29.616  31.485  11.503
38085W        W97588  21.621  44.814  12.512
38086W        W97589  25.701  11.237   3.363
38087W        W97590  14.794  37.901   1.254
38088W        W97591  12.616  27.666   1.755
38089W        W97592   9.682  16.589   0.817
38090W        W97593  25.693   2.824  11.113
38091W        W97594  36.455  10.189   2.322
38092W        W97595  39.334  33.386  13.422
38093W        W97596   9.337  20.671   0.858
38094W        W97597  36.920   0.365  11.088
38095W        W97598  31.042  38.453  11.856
38096W        W97599   2.952  33.483  11.402
38097W        W97600  38.476  26.690   0.327
38098W        W97601  18.706  36.886   0.449
38099W        W97602  13.656   8.329   4.707
38100W        W97603  25.575   9.659   3.383
38101W        W97604  39.396  38.488  11.577
38102W        W97605   1.469  40.039   1.735
38103W        W97606  22.013  20.731  13.460
38104W        W97607  17.679   7.776  14.425
38105W        W97608   1.916  41.035  12.420
38106W        W97609  44.849  30.104  14.832
38107W        W97610  15.639  44.387   4.752
38108W        W97611  12.132  19.759   1.294
38109W        W97612  37.084  25.020  12.489
38110W        W97613  21.040  27.690   1.218
38111W        W97614   1.306  44.428  12.973
38112W        W97615  43.878  18.791   3.214
38113W        W97616  21.675  26.518  12.947
38114W        W97617  12.841  11.341  13.318
38115W        W97618   0.856  38.958   0.440
38116W        W97619  34.383  39.888   4.751
38117W        W97620  22.048  18.766   4.267
38118W        W97621  44.420  18.635   1.874
38119W        W97622  29.632  24.123   4.836
38120W        W97623  11.260  37.529   5.223
38121W        W97624  19.701  23.555  12.070
38122W        W97625  34.392  42.898  12.903
38123W        W97626   2.748  24.210   0.268
38124W        W97627  19.550  38.895   2.196
38125W        W97628  21.690  36.060  11.947
38126W        W97629   9.709  42.829  11.416
38127W        W97630   2.376   8.661   2.193
38128W        W97631  39.026  27.104   3.801
38129W        W97632   7.736  37.998  10.602
38130W        W97633  28.999  38.368   0.281
38131W        W97634  10.698  22.207  10.532
38132W        W97635  24.687  27.559  14.835
38133W        W97636  37.995  24.142  10.940
38134W        W97637  44.881  28.135  14.276
38135W        W97638  43.314  28.456   2.301
38136W        W97639  36.026   6.390   2.346
38137W        W97640  12.185   5.780  12.051
38138W        W97641  18.669  19.536   3.363
38139W        W97642  27.103  14.285  13.492
38140W        W97643   5.293  23.129   0.326
38141W        W97644  35.991  22.241  13.528
38142W        W97645  34.048  32.532  13.471
38143W        W97646  29.669  10.761   3.177
38144W        W97647   1.259  13.235  13.520
38145W        W97648  41.988   9.203  12.508
38146W        W97649  14.158  39.045  13.934
38147W        W97650   1.858  18.594   3.369
38148W        W97651  27.143  31.003  13.423
38149W        W97652  43.874   4.711   3.821
38150W        W97653  24.147   4.326   1.323
38151W        W97654  36.437  17.740   1.876
38152W        W97655  21.250  22.543   4.606
38153W        W97656  23.642  13.802  13.312
38154W        W97657  36.379  13.800   1.431
38155W        W97658  37.898   3.396  10.606
38156W        W97659  40.979  37.506   0.863
38157W        W97660  33.889  44.800  11.906
38158W        W97661   3.820  36.858  12.387
38159W        W97662  26.057  43.798   0.303
38160W        W97663  42.344  29.005  12.989
38161W        W97664  38.940  44.410   5.286
38162W        W97665  19.253  20.193   1.742
38163W        W97666  14.626  32.432   3.367
38164W        W97667  31.119  26.534  13.482
38165W        W97668   1.781   9.813  11.942
38166W        W97669   4.254  13.628  13.515
38167W        W97670   2.817  32.526   2.767
38168W        W97671  28.138  41.418  14.294
38169W        W97672  28.178  25.661  11.024
38170W        W97673  18.544  17.149  14.334
38171W        W97674  22.245  11.191   1.839
38172W        W97675  40.992  29.426  13.851
38173W        W97676  40.346  31.948   2.751
38174W        W97677  21.569  39.950  12.446
38175W        W97678  41.885  11.802  11.018
38176W        W97679   3.955  36.889  13.321
38177W        W97680  40.881  36.479  10.631
38178W        W97681  27.603  31.549  12.560
38179W        W97682  41.295  12.817   3.366
38180W        W97683  14.226  43.486   5.188
38181W        W97684  11.835  27.689   3.255
38182W        W97685  12.829  40.456   4.777
38183W        W97686  26.157  18.598   2.309
38184W        W97687  25.034   2.340  12.030
38185W        W97688  11.333  13.303   2.379
38186W        W97689  23.694  40.315  14.339
38187W        W97690  24.201  16.239   4.291
38188W        W97691  23.602  14.759  11.951
38189W        W97692  34.605  20.588   2.663
38190W        W97693  13.116  39.029   2.201
38191W        W97694   3.329  12.335   3.868
38192W        W97695  15.229  32.473  11.884
38193W        W97696  18.111  38.911   0.484
38194W        W97697   0.894  29.521   0.931
38195W        W97698  26.957  23.584   0.840
38196W        W97699  22.189   1.878  10.991
38197W        W97700  43.938  26.154  10.924
38198W        W97701  16.211  26.969  12.008
38199W        W97702  23.637  24.060  12.912
38200W        W97703  33.408   7.675   4.201
38201W        W97704  39.553  36.419  10.571
38202W        W97705  36.548  41.805  10.563
38203W        W97706  11.675  24.718   3.842
38204W        W97707  39.488  18.577   4.301
38205W        W97708  23.070  10.860  13.943
38206W        W97709  16.680   7.413   3.651
38207W        W97710  36.965  13.839   2.320
38208W        W97711   8.668  11.298   4.186
38209W        W97712   8.686  39.825   0.407
38210W        W97713  33.985  42.399   0.259
38211W        W97714  24.048  20.270   3.640
38212W        W97715  15.697   2.330  12.836
38213W        W97716   1.408   8.317  11.511
38214W        W97717   5.364  14.162   4.751
38215W        W97718  40.043  34.501   0.758
38216W        W97719  12.171   7.310   4.139
38217W        W97720   0.775   3.830   0.298
38218W        W97721  29.576   5.790  12.426
38219W        W97722  17.303   0.786  10.065
38220W        W97723  18.783  30.652   1.248
38221W        W97724   6.819  40.458  11.938
38222W        W97725  18.769  29.601   2.855
38223W        W97726  19.562  15.730   3.238
38224W        W97727  32.491  38.025  13.922
38225W        W97728   3.318  28.639   9.995
38226W        W97729  27.485  33.408  14.922
38227W        W97730  17.675  18.572  13.974
38228W        W97731  28.052  17.720  14.446
38229W        W97732  27.592  29.994   4.182
38230W        W97733  39.541  39.556  11.529
38231W        W97734   9.869  29.075  13.319
38232W        W97735  39.863  10.724   2.779
38233W        W97736  32.935   8.806  12.047
38234W        W97737  36.889   6.298   2.317
38235W        W97738  35.979   8.240  13.041
38236W        W97739  34.512  34.432  13.470
38237W        W97740   0.882  13.311  12.093
38238W        W97741  29.944  24.153  10.025
38239W        W97742  16.210   0.457   2.718
38240W        W97743  15.242  30.939  14.400
38241W        W97744  40.041  12.703   2.865
38242W        W97745  43.764  36.428  14.314
38243W        W97746  12.240  42.410  13.463
38244W        W97747  12.815  36.902  10.917
38245W        W97748  10.347  36.574   0.736
38246W        W97749  31.083  33.416  12.414
38247W        W97750   7.227  42.814  11.064
38248W        W97751  21.539   4.394  13.957
38249W        W97752  44.434  32.505   2.676
38250W        W97753  23.170   2.383  12.070
38251W        W97754  33.921   8.245   3.743
38252W        W97755  44.947  44.408   3.198
38253W        W97756  37.428  21.032   1.930
38254W        W97757  18.566  32.992  10.474
38255W        W97758  12.356  12.338  14.418
38256W        W97759  13.762  11.292   2.733
38257W        W97760  21.237  34.091   1.293
38258W        W97761  16.155   0.838  11.100
38259W        W97762   3.233   4.233  12.986
38260W        W97763  31.004  39.433   2.814
38261W        W97764  37.487  16.197  11.400
38262W        W97765  21.074  10.317  10.532
38263W        W97766   5.850  33.046  13.975
38264W        W97767  43.482   5.313   5.600
38265W        W97768  24.671  20.761   0.274
38266W        W97769  12.293  36.499   4.315
38267W        W97770   3.772  12.840  13.535
38268W        W97771  16.732  42.418  13.824
38269W        W97772  15.627  42.895  14.505
38270W        W97773  44.450  42.516   0.425
38271W        W97774  30.927  38.419  12.503
38272W        W97775   1.328   8.288  13.401
38273W        W97776  19.266  19.131   3.682
38274W        W97777  35.519  36.577  10.973
38275W        W97778  11.685  40.852  12.916
38276W        W97779   1.789  20.679  11.033
38277W        W97780  30.571  26.064   2.720
38278W        W97781  29.157  24.096  12.564
38279W        W97782  37.019  16.594   1.786
38280W        W97783  13.781  41.437   3.730
38281W        W97784   2.868   0.260  14.279
38282W        W97785  14.755  18.617   1.700
38283W        W97786  23.149  31.031  10.900
38284W        W97787  32.113  29.507   1.877
38285W        W97788   4.365  22.677  10.587
38286W        W97789   5.698  43.345   0.337
38287W        W97790  26.165   4.867  12.033
38288W        W97791  42.333  38.477  15.000
38289W        W97792  16.645  31.608  12.861
38290W        W97793  31.972  16.188  10.994
38291W        W97794   6.332  22.621  12.076
38292W        W97795  30.441  28.555  12.519
38293W        W97796  41.928  29.569  11.033
38294W        W97797   5.214   7.893   4.214
38295W        W97798  33.430  33.993   4.818
38296W        W97799  44.500  18.258   4.148
38297W        W97800  29.167  30.117  14.941
38298W        W97801  21.665  13.211   3.240
38299W        W97802  21.227  15.181   2.261
38300W        W97803  23.085  42.487   2.875
38301W        W97804  34.920  36.016  13.044
38302W        W97805  24.638  30.489  14.985
38303W        W97806  28.001  33.444  12.845
38304W        W97807  41.894  12.672  13.900
38305W        W97808   3.364  26.553   2.261
38306W        W97809  42.493  23.151   2.404
38307W        W97810  13.674  37.552   4.659
38308W        W97811  42.398  12.172   3.168
38309W        W97812   3.808  14.124   2.293
38310W        W97813  26.080   4.329   0.471
38311W        W97814  18.278  20.248  11.873
38312W        W97815   7.813  38.988  11.960
38313W        W97816  17.602  39.374   2.662
38314W        W97817  18.050  29.983  12.489
38315W        W97818  22.175  20.091   3.178
38316W        W97819  39.060  33.026  10.891
38317W        W97820  40.471  23.006   3.233
38318W        W97821   4.282  21.653   0.293
38319W        W97822  27.560  28.473  11.905
38320W        W97823  34.552  21.057  12.893
38321W        W97824  10.856   0.321  11.053
38322W        W97825  33.585  43.514  12.065
38323W        W97826  24.979  22.017   3.835
38324W        W97827  13.220  26.690  10.509
38325W        W97828  28.166  44.270  12.913
38326W        W97829  17.095   5.921   3.853
38327W        W97830  15.586  20.530   2.747
38328W        W97831  21.687  23.523   2.198
38329W        W97832  31.092  10.782  11.929
38330W        W97833  19.639  10.369   4.320
38331W        W97834  31.934  23.004  11.542
38332W        W97835  35.569  41.374  11.505
38333W        W97836  22.629  25.026  13.872
38334W        W97837  30.554  32.920   3.226
38335W        W97838  32.068   9.280  13.045
38336W        W97839  26.174  11.137  11.913
38337W        W97840  19.083   5.701  14.023
38338W        W97841  34.524  39.359  14.307
38339W        W97842  29.985  30.068   0.439
38340W        W97843  30.533  31.589  14.938
38341W        W97844   8.852   6.401  13.927
38342W        W97845  34.105  42.363   4.643
38343W        W97846  15.089  18.186  12.979
38344W        W97847   0.326  32.140  10.596
38345W        W97848  20.056   1.833   1.791
38346W        W97849  30.125  25.169  12.506
38347W        W97850  15.595  35.982   1.406
38348W        W97851  36.975  43.473  12.969
38349W        W97852  39.934   0.322  13.432
38350W        W97853  16.588   5.747  11.474
38351W        W97854  35.364  42.032   2.325
38352W        W97855   4.273  32.454  12.557
38353W        W97856  27.045  11.744   3.733
38354W        W97857  18.683  22.190   2.192
38355W        W97858  13.171  17.673   4.336
38356W        W97859  13.211   0.862   1.835
38357W        W97860  24.118  25.625   3.336
38358W        W97861  44.968   5.235   4.806
38359W        W97862  22.715  18.587   3.220
38360W        W97863  24.565  42.394  13.412
38361W        W97864  30.642  13.713  11.436
38362W        W97865  21.688  12.116  13.546
38363W        W97866   0.431   9.184   2.195
38364W        W97867  16.163   1.826   5.249
38365W        W97868  20.212   7.312   3.778
38366W        W97869  22.045  19.674  14.992
38367W        W97870  38.435  16.118  12.409
38368W        W97871  27.505  27.687   1.739
38369W        W97872   9.342  15.638   0.458
38370W        W97873  31.110   2.283   5.263
38371W        W97874  23.637   8.763   2.889
38372W        W97875  27.689  16.300  14.921
38373W        W97876   6.274  12.749  13.880
38374W        W97877  24.489  14.780   1.812
38375W        W97878  11.634   4.387   3.713
38376W        W97879  43.955  35.010   4.680
38377W        W97880   8.216   1.434   1.395
38378W        W97881  42.424  11.298  14.469
38379W        W97882   8.763   2.313  11.993
38380W        W97883  11.668  22.233  14.940
38381W        W97884  30.569   8.805  12.412
38382W        W97885  27.950  27.016  14.923
38383W        W97886   6.750   6.692   0.931
38384W        W97887   7.232  24.227   1.884
38385W        W97888  22.623  31.002   1.797
38386W        W97889  31.590   5.306  11.010
38387W        W97890  23.060  26.508  14.411
38388W        W97891  16.600  22.500  10.406
38389W        W97892  20.684   9.669  12.395
38390W        W97893  41.422  42.013   0.442
38391W        W97894   5.239   2.780   2.270
38392W        W97895  14.201  21.237  12.096
38393W        W97896   5.247  28.050  11.000
38394W        W97897   3.851  21.556   4.686
38395W        W97898  35.867  13.343  13.449
38396W        W97899  42.393  35.051   3.744
38397W        W97900  22.678  39.546  12.357
38398W        W97901  17.757  10.347   0.882
38399W        W97902   8.325  21.166  12.572
38400W        W97903  18.242   9.192  14.860
38401W        W97904  18.295  24.106   1.755
38402W        W97905  35.553  30.433  13.518
38403W        W97906  42.484  13.136  14.013
38404W        W97907  42.933  29.654  13.380
38405W        W97908  14.313  18.239  11.916
38406W        W97909  17.781  13.748  13.828
38407W        W97910  40.326  24.976   0.301
38408W        W97911  31.555  20.558   4.766
38409W        W97912  38.052  29.446  11.378
38410W        W97913  43.444   2.361   2.265
38411W        W97914  33.878  16.079   1.431
38412W        W97915   4.838  10.224   4.762
38413W        W97916  17.190  19.543   4.693
38414W        W97917  33.585  11.673  12.017
38415W        W97918   8.691  35.443   1.368
38416W        W97919   0.951   1.814  10.980
38417W        W97920  10.713   7.318   0.432
38418W        W97921  23.016  27.135  11.028
38419W        W97922  34.533   7.831   2.379
38420W        W97923   2.789   4.888   4.258
38421W        W97924   8.250  32.408  13.896
38422W        W97925   3.776  19.586   2.723
38423W        W97926  27.503  25.603   3.201
38424W        W97927  22.094  16.695   1.742
38425W        W97928  26.069  10.139   1.708
38426W        W97929  10.726  14.120   2.297
38427W        W97930  24.137  20.674   2.250
38428W        W97931   2.260  35.578  10.465
38429W        W97932  28.012  17.791  11.478
38430W        W97933  44.990  39.477  13.917
38431W        W97934  21.737  39.315  12.836
38432W        W97935   7.835  15.659  12.858
38433W        W97936  16.750  13.814  13.814
38434W        W97937   6.349  21.564   1.266
38435W        W97938  19.780  35.597  14.369
38436W        W97939   9.157  40.512   0.771
38437W        W97940  11.233  22.704   2.258
38438W        W97941  36.074  12.644  14.414
38439W        W97942   3.862  42.836  13.973
38440W        W97943  20.215  18.229   5.225
38441W        W97944  23.089   8.747   4.239
38442W        W97945   6.809  41.298  12.575
38443W        W97946   2.394  40.005  13.312
38444W        W97947  36.541   5.401  12.524
38445W        W97948  29.107  26.611   2.327
38446W        W97949  20.744  28.072  11.055
38447W        W97950  20.209  38.404  13.380
38448W        W97951  15.126   6.840  10.578
38449W        W97952  38.530  23.087   0.782
38450W        W97953   5.345   0.988   0.439
38451W        W97954  16.166   4.794   4.739
38452W        W97955   0.303  10.249  13.861
38453W        W97956  33.129  20.161  14.906
38454W        W97957  41.331  13.671  13.451
38455W        W97958  14.666  20.597  11.862
38456W        W97959  44.486  13.169   1.411
38457W        W97960   4.864   7.792  14.013
38458W        W97961  31.918  26.572  14.950
38459W        W97962   2.269  30.930  11.871
38460W        W97963  27.976   3.333  14.375
38461W        W97964   6.745  20.099  10.945
38462W        W97965  21.145  12.360   3.181
38463W        W97966   0.942  38.933  14.806
38464W        W97967   7.280  25.565  11.425
38465W        W97968  24.199  27.988   1.441
38466W        W97969  29.114  19.099   0.364
38467W        W97970  23.144  20.536   4.736
38468W        W97971  42.366   4.283  12.968
38469W        W97972  43.396   0.266  11.597
38470W        W97973  30.587  25.996  11.059
38471W        W97974  17.729  25.594  11.510
38472W        W97975  39.858  19.161   3.323
38473W        W97976  18.741  40.388  10.587
38474W        W97977  12.774  20.255  11.010
38475W        W97978  42.980  22.100  12.519
38476W        W97979  35.031   1.745   0.839
38477W        W97980   7.306  10.779  12.060
38478W        W97981  26.189  43.920   0.769
38479W        W97982  44.820  30.607  12.040
38480W        W97983  37.954  18.166  14.289
38481W        W97984  21.094  15.329   4.778
38482W        W97985   5.807  13.319   9.920
38483W        W97986   3.312  31.478   0.880
38484W        W97987  38.414  12.795  14.778
38485W        W97988  16.728  35.365  11.981
38486W        W97989  23.052   9.644   4.781
38487W        W97990  32.017  25.192   1.293
38488W        W97991   2.299  42.307  11.098
38489W        W97992  10.194  37.384   2.835
38490W        W97993  19.209  29.663   3.836
38491W        W97994  37.423  38.940   0.958
38492W        W97995  22.512  33.994   0.778
38493W        W97996  11.289  25.612  11.595
38494W        W97997  12.740  22.206   0.275
38495W        W97998  28.978   9.365   0.951
38496W        W97999  17.078  39.951   3.149
38497W        W98000  41.413  43.314   0.888
38498W        W98001  30.499   1.424   3.660
38499W        W98002  24.701  38.008  14.904
38500W        W98003  40.963  31.479   0.877
38501W        W98004  34.385   0.839   2.278
38502W        W98005   3.373  40.885   2.676
38503W        W98006  41.327  13.813  10.893
38504W        W98007  21.716  44.862   2.185
38505W        W98008  42.935  34.882   0.375
38506W        W98009   5.912  44.296  12.824
38507W        W98010  12.326  21.253  12.087
38508W        W98011   5.254  40.035  10.608
38509W        W98012  17.708   6.819   3.674
38510W        W98013  33.072  22.587   4.818
38511W        W98014  18.596  11.188  14.510
38512W        W98015   7.843   7.188  11.405
38513W        W98016  21.186  22.124  13.396
38514W        W98017  14.781   4.372  11.438
38515W        W98018  27.607  35.013  11.088
38516W        W98019  11.299  28.465   4.668
38517W        W98020   7.307  17.626  12.060
38518W        W98021  24.979  35.958   3.630
38519W        W98022  40.506   0.832   4.204
38520W        W98023   5.398   9.704   4.181
38521W        W98024  25.635  40.410   4.330
38522W        W98025  34.970  23.668   5.287
38523W        W98026  11.656  19.106  14.776
38524W        W98027  21.550  10.246  13.446
38525W        W98028   9.721  13.709  12.905
38526W        W98029  16.776  19.278   0.311
38527W        W98030  37.054  34.926  14.841
38528W        W98031  32.418  27.500   9.611
38529W        W98032   3.240  14.210  13.463
38530W        W98033  35.512   5.193  10.521
38531W        W98034   2.240  26.151  12.500
38532W        W98035  22.605   5.803   3.278
38533W        W98036  16.799  23.661   2.198
38534W        W98037  37.409  22.736   2.283
38535W        W98038  25.150   6.857  14.908
38536W        W98039  25.027  22.583  14.303
38537W        W98040  34.079  30.523   0.873
38538W        W98041  11.209  33.006   0.802
38539W        W98042  11.157   3.393  12.911
38540W        W98043  24.223   1.958  14.498
38541W        W98044   7.841  10.848  12.882
38542W        W98045  29.554   0.294   1.254
38543W        W98046  44.454  34.530  10.951
38544W        W98047  12.646   3.299  13.034
38545W        W98048  11.717  22.678   3.757
38546W        W98049  29.535  16.253   0.453
38547W        W98050  20.138  20.599  14.920
38548W        W98051  43.313   7.765  14.880
38549W        W98052  20.175   5.773   0.907
38550W        W98053  30.146  33.067   4.321
38551W        W98054  34.492   2.340   1.445
38552W        W98055  26.597   8.254  12.361
38553W        W98056  29.163   3.767  13.906
38554W        W98057  15.220  15.824  11.452
38555W        W98058  33.000  27.090  14.276
38556W        W98059  26.553   7.380   2.410
38557W        W98060  27.951  26.042   2.672
38558W        W98061   4.348  42.846   3.704
38559W        W98062   3.368  43.355   0.395
38560W        W98063  21.751  11.718  13.325
38561W        W98064   6.331  30.153  14.310
38562W        W98065  15.601  19.100  11.476
38563W        W98066  42.370  41.036   2.870
38564W        W98067  39.932  43.923   2.747
38565W        W98068   5.880   2.759  10.556
38566W        W98069  28.983  42.390  14.477
38567W        W98070  13.838  35.442  14.865
38568W        W98071  31.948  29.527   1.356
38569W        W98072  18.596   2.332  11.432
38570W        W98073   0.319  25.699  14.025
38571W        W98074  20.655   1.811  12.451
38572W        W98075  25.618  18.625  10.428
38573W        W98076  27.990  31.580   4.798
38574W        W98077  30.621  19.110   0.397
38575W        W98078  20.611  41.435   4.698
38576W        W98079   1.431   8.221  11.982
38577W        W98080  22.229   0.313   1.266
38578W        W98081  30.627  43.821  11.952
38579W        W98082  10.681  25.999   2.250
38580W        W98083  24.539  41.911  12.057
38581W        W98084  34.417  14.663   3.270
38582W        W98085  43.300  32.413  14.453
38583W        W98086  19.690   7.402   4.280
38584W        W98087  24.993   6.311   1.918
38585W        W98088   8.393  32.634   5.228
38586W        W98089  16.262  15.716   2.873
38587W        W98090  30.958  19.084   3.652
38588W        W98091  28.562  18.735  13.039
38589W        W98092  25.712  17.258   0.387
38590W        W98093  44.782  21.209   1.834
38591W        W98094  37.499  22.163  10.424
38592W        W98095  35.059  22.703  14.497
38593W        W98096  31.476  30.581  11.078
38594W        W98097  10.141  22.575   1.439
38595W        W98098  11.785  43.896   3.788
38596W        W98099  26.010  26.160  10.476
38597W        W98100   0.423  15.714  13.992
38598W        W98101   7.737  18.289   4.828
38599W        W98102  29.013  41.528   2.896
38600W        W98103   5.218  20.173  12.549
38601W        W98104  43.980  23.612   2.832
38602W        W98105   3.749  11.204  14.916
38603W        W98106  17.225  14.324   1.862
38604W        W98107  43.879  37.508   3.158
38605W        W98108   8.851  22.137   1.796
38606W        W98109  14.326   7.761  14.997
38607W        W98110  13.692  31.488  10.008
38608W        W98111   1.309  40.493  10.569
38609W        W98112  13.147  12.727   1.888
38610W        W98113  20.580  11.801   1.437
38611W        W98114  31.647   7.225   4.252
38612W        W98115  23.719  29.136  11.044
38613W        W98116  11.676  13.109   2.381
38614W        W98117   8.283  20.261  12.383
38615W        W98118  20.696   4.268   0.355
38616W        W98119  15.759  12.692   4.709
38617W        W98120  16.709  14.304  10.517
38618W        W98121  43.455  17.067   3.671
38619W        W98122  15.715  40.369  13.049
38620W        W98123  32.091  21.556  14.912
38621W        W98124  22.232  41.520   1.300
38622W        W98125  13.829  10.710   1.696
38623W        W98126   9.742  44.435   1.446
38624W        W98127  33.534  21.262   5.103
38625W        W98128  24.065  35.372  14.014
38626W        W98129  30.478  32.958   2.738
38627W        W98130  16.809  23.996   2.375
38628W        W98131  17.705  44.270  10.014
38629W        W98132  37.046  43.457   3.231
38630W        W98133   6.894  10.853  11.559
38631W        W98134  34.583  37.028   3.826
38632W        W98135  33.583  42.926   2.304
38633W        W98136  15.179   1.747  12.851
38634W        W98137  41.439  31.970  14.495
38635W        W98138  42.451  36.517   3.777
38636W        W98139  43.856   7.235   1.413
38637W        W98140  16.285  27.446   2.409
38638W        W98141  33.045  23.021   0.256
38639W        W98142  17.219  13.602   1.747
38640W        W98143  20.548   5.743   2.875
38641W        W98144   5.314  21.121   4.161
38642W        W98145  12.281  20.551   1.258
38643W        W98146  20.175  27.569   4.618
38644W        W98147  39.409  43.779  14.895
38645W        W98148  36.914  32.478  14.344
38646W        W98149  22.569  40.504   1.392
38647W        W98150  24.686  38.923   1.403
38648W        W98151  41.306  35.466  10.586
38649W        W98152  22.702  35.524  13.337
38650W        W98153  17.095   2.276   4.327
38651W        W98154  38.821   0.367  12.420
38652W        W98155  42.294  14.592   0.748
38653W        W98156  28.564  14.726  12.559
38654W        W98157  17.581  26.004  10.987
38655W        W98158  35.442  24.982  14.907
38656W        W98159  43.844  11.254   1.291
38657W        W98160  19.757  25.130   2.214
38658W        W98161  18.219   7.716   3.297
38659W        W98162  38.022   6.833   1.432
38660W        W98163  29.108  19.611  11.487
38661W        W98164  20.591  30.125  10.458
38662W        W98165  24.040  43.426   9.939
38663W        W98166  27.663  38.398   1.836
38664W        W98167  30.648   6.193  12.413
38665W        W98168  28.122  27.446  13.426
38666W        W98169  20.723  15.142  13.010
38667W        W98170  22.104  17.274   0.482
38668W        W98171  28.966  37.425  14.861
38669W        W98172  38.978   1.853   4.129
38670W        W98173  42.875   9.305   2.348
38671W        W98174   6.264  10.233   4.196
38672W        W98175  37.886  32.404  12.986
38673W        W98176  13.196  42.781   0.335
38674W        W98177  14.153   7.703   4.246
38675W        W98178  37.922  22.060  14.968
38676W        W98179  32.574  12.659  14.850
38677W        W98180  16.770  25.577  12.339
38678W        W98181  15.147   8.686  13.406
38679W        W98182  35.600  28.453  12.085
38680W        W98183  40.859  26.962   3.785
38681W        W98184  34.459  11.766  11.542
38682W        W98185  40.341  18.259  13.057
38683W        W98186   4.329   6.865   2.181
38684W        W98187  22.162   5.823   3.175
38685W        W98188  15.095  17.284  12.843
38686W        W98189  36.576  37.021   3.162
38687W        W98190  24.580  30.613  14.426
38688W        W98191  28.132   9.812  13.454
38689W        W98192  27.634  41.347   0.807
38690W        W98193   0.295  35.389   4.151
38691W        W98194   7.413  39.978  12.456
38692W        W98195  27.019  17.164  12.351
38693W        W98196  32.431  31.928  13.347
38694W        W98197  15.739   3.722   2.403
38695W        W98198   4.910  16.572   1.239
38696W        W98199   7.307  42.488   3.719
38697W        W98200   5.714  32.531   4.670
38698W        W98201   8.226  21.083  12.974
38699W        W98202   1.955  38.075   2.339
38700W        W98203  44.908  19.617   0.779
38701W        W98204  19.159  28.976   1.234
38702W        W98205  37.035  25.116  11.081
38703W        W98206  21.528  36.890  13.956
38704W        W98207  21.693  32.452   4.294
38705W        W98208  39.838   2.395  11.058
38706W        W98209   3.258  12.688  11.063
38707W        W98210   7.677  30.586  13.000
38708W        W98211   2.891  41.401   9.484
38709W        W98212  31.607  11.232  13.529
38710W        W98213  23.233  30.130  11.110
38711W        W98214   9.690  41.371   4.155
38712W        W98215  33.900  16.621   9.984
38713W        W98216  24.585  42.288   1.800
38714W        W98217  18.104  28.516  13.996
38715W        W98218  23.082   7.711   2.248
38716W        W98219   3.943  28.491   0.246
38717W        W98220  27.175  30.029  13.523
38718W        W98221  30.026   0.383   3.342
38719W        W98222  33.926  27.544   2.310
38720W        W98223  22.606  18.249   4.676
38721W        W98224  14.218  37.027  14.951
38722W        W98225  41.454  22.606   3.854
38723W        W98226   2.908  12.684   0.393
38724W        W98227  26.168  31.985   1.334
38725W        W98228  40.992  20.053  11.488
38726W        W98229  28.042  24.090   0.812
38727W        W98230   2.328  10.212   3.231
38728W        W98231  10.686  41.901  10.627
38729W        W98232  24.637   0.949  14.466
38730W        W98233  26.030  34.585   3.807
38731W        W98234   4.936  19.539   1.321
38732W        W98235  10.809  33.522  14.923
38733W        W98236  15.272   2.267   1.700
38734W        W98237  27.044  28.122   1.440
38735W        W98238  35.058  42.478   0.248
38736W        W98239  17.566  30.156  14.463
38737W        W98240  14.133  16.231  11.526
38738W        W98241  39.329  16.728  11.102
38739W        W98242  33.591  18.096   5.175
38740W        W98243  23.625   1.823  13.830
38741W        W98244  29.640   0.327   0.879
38742W        W98245  33.601  39.887   2.672
38743W        W98246  37.070  26.167   4.345
38744W        W98247  27.026   3.889   2.694
38745W        W98248   5.784  42.982  13.799
38746W        W98249  36.401  25.976  10.616
38747W        W98250  38.881  43.992   2.856
38748W        W98251  33.600   5.733  13.055
38749W        W98252  40.337  38.983  13.514
38750W        W98253  23.510  41.009  10.429
38751W        W98254  14.799  42.492   3.386
38752W        W98255  44.473  34.436   1.915
38753W        W98256  44.382  41.313  13.963
38754W        W98257  44.768  27.526  13.459
38755W        W98258   8.820  42.290  11.479
38756W        W98259  30.051  10.260  12.914
38757W        W98260  35.963  25.705   1.804
38758W        W98261  29.650  20.752  11.938
38759W        W98262  31.008  35.497  11.495
38760W        W98263  32.125  14.099  14.857
38761W        W98264  39.991  24.653   3.314
38762W        W98265  31.556  33.457  14.794
38763W        W98266   6.732  40.958   0.852
38764W        W98267  11.842  16.574   4.601
38765W        W98268   7.205  18.791  10.486
38766W        W98269  23.203   1.794   3.218
38767W        W98270   8.742  40.344  11.457
38768W        W98271   0.833  34.501   3.843
38769W        W98272  17.767  17.114   1.374
38770W        W98273   9.841  32.979   3.784
38771W        W98274   5.868   9.756  14.888
38772W        W98275   7.213  43.815  10.911
38773W        W98276  34.424  12.261   3.262
38774W        W98277   2.290  24.678   5.715
38775W        W98278   5.790  34.427  10.950
38776W        W98279  42.959  43.782   4.804
38777W        W98280  10.306  36.025   4.610
38778W        W98281  15.206  12.851  14.822
38779W        W98282  13.153  11.677  10.544
38780W        W98283  43.499  43.877   2.896
38781W        W98284  34.445  10.833  11.058
38782W        W98285  22.030  19.238  14.391
38783W        W98286   7.393  25.672   3.788
38784W        W98287   2.335   1.962   1.860
38785W        W98288  16.201  40.386  11.373
38786W        W98289  18.725  15.320  14.400
38787W        W98290  23.655  37.841  13.416
38788W        W98291  21.740  34.541   4.685
38789W        W98292  16.725  22.124  14.303
38790W        W98293  42.326  26.699   4.291
38791W        W98294  29.439  40.022   4.753
38792W        W98295   3.339   1.384  13.459
38793W        W98296  29.025  25.638  14.953
38794W        W98297   1.386  32.995  12.032
38795W        W98298  17.636  28.450   2.402
38796W        W98299  27.660  44.778   0.967
38797W        W98300  21.570   5.215   1.870
38798W        W98301  11.271   5.860   0.789
38799W        W98302  32.578  27.573  13.958
38800W        W98303   4.858  34.576  12.828
38801W        W98304  18.072  43.002   2.336
38802W        W98305  41.985  32.590  11.374
38803W        W98306   0.819  43.921   3.158
38804W        W98307  24.596  44.881   5.166
38805W        W98308   8.661   4.350   2.199
38806W        W98309  39.924  16.291   2.258
38807W        W98310  15.822  22.136  14.427
38808W        W98311  12.744  31.490   3.795
38809W        W98312  13.808  10.274  14.919
38810W        W98313   0.904  33.975   3.233
38811W        W98314  38.564  20.730   1.415
38812W        W98315  26.967  44.359   1.255
38813W        W98316  19.182  29.123  11.978
38814W        W98317  25.532  36.479  10.637
38815W        W98318   8.783  31.607  14.351
38816W        W98319  20.049  21.683   1.231
38817W        W98320   8.393   0.449  11.025
38818W        W98321  35.036  33.087  14.334
38819W        W98322  37.845  38.961   4.245
38820W        W98323  36.974  29.138  14.947
38821W        W98324  21.695  19.676   0.305
38822W        W98325  29.099  29.053   2.331
38823W        W98326  17.570  42.015   4.647
38824W        W98327  41.955  13.347  11.495
38825W        W98328   8.898  41.517   2.668
38826W        W98329  10.193  31.018   2.838
38827W        W98330  40.413   3.270   0.310
38828W        W98331   7.749  16.131  14.863
38829W        W98332   8.801  18.734   4.297
38830W        W98333  32.075  25.040   2.731
38831W        W98334  19.112  14.712  11.565
38832W        W98335  29.648   1.751   1.224
38833W        W98336   5.231  28.551   0.864
38834W        W98337   4.791  24.008   4.143
38835W        W98338  32.979   0.254   1.446
38836W        W98339  24.024   8.336  13.063
38837W        W98340   2.238  34.424  13.890
38838W        W98341   1.759  18.643  12.389
38839W        W98342  11.772  41.921   2.682
38840W        W98343  39.047  43.440  11.964
38841W        W98344  40.913  28.461  12.874
38842W        W98345  39.055  16.133   2.719
38843W        W98346   2.924   5.913   3.845
38844W        W98347  37.580   0.250  10.131
38845W        W98348  29.044  39.422   4.304
38846W        W98349  42.862  17.131  11.497
38847W        W98350  25.149  16.177   2.894
38848W        W98351  18.711  28.441   0.466
38849W        W98352  32.529  26.988   1.775
38850W        W98353  35.875  43.852  11.065
38851W        W98354  20.080   6.322   2.836
38852W        W98355  22.201   3.933  14.291
38853W        W98356   9.713  35.965  10.998
38854W        W98357  28.150   0.426  13.800
38855W        W98358  40.904  21.717  13.920
38856W        W98359  42.907   1.360   0.429
38857W        W98360  31.541  11.262   2.718
38858W        W98361  39.501  43.788   3.796
38859W        W98362  38.846  36.349  14.366
38860W        W98363  23.619  10.713   3.772
38861W        W98364   6.779  32.595  10.941
38862W        W98365  24.500  39.415  13.481
38863W        W98366   2.732  31.583  14.998
38864W        W98367  23.735  35.950   4.186
38865W        W98368   1.478  28.574   4.698
38866W        W98369   9.202  23.625  14.837
38867W        W98370  23.162  42.469   5.698
38868W        W98371  13.241  38.418   2.798
38869W        W98372  29.460  15.290   3.771
38870W        W98373   4.275  30.556   3.353
38871W        W98374  16.578   1.751  12.081
38872W        W98375  23.183  28.957   2.891
38873W        W98376  24.637  10.861   0.437
38874W        W98377  30.621  10.745   4.256
38875W        W98378  30.623   7.757   3.694
38876W        W98379  43.323  29.577   1.233
38877W        W98380  17.182  32.088   3.726
38878W        W98381   4.328  30.445  12.450
38879W        W98382  25.207  13.693  13.337
38880W        W98383  18.276  44.458   2.777
38881W        W98384  41.856  43.322   2.391
38882W        W98385  32.050  20.687   0.281
38883W        W98386  10.315  23.637   4.835
38884W        W98387  10.307  29.603   3.726
38885W        W98388   1.760  41.829  12.919
38886W        W98389  15.294  43.807  13.795
38887W        W98390  44.924  31.481   4.313
38888W        W98391  17.624   4.779  14.015
38889W        W98392  41.001  29.450   0.826
38890W        W98393   1.295  43.311  14.312
38891W        W98394   8.896  42.980   2.212
38892W        W98395  44.939  41.809   4.821
38893W        W98396  22.052  10.718  14.761
38894W        W98397   7.248   2.334  13.331
38895W        W98398  44.913  11.763   2.834
38896W        W98399  28.173  43.979  11.384
38897W        W98400   4.425  30.051   2.341
38898W        W98401  34.107   5.866  10.515
38899W        W98402   0.387   9.873  13.009
38900W        W98403  30.598  27.048  12.347
38901W        W98404   6.851  39.478   4.196
38902W        W98405  35.099   6.286  14.369
38903W        W98406   7.829  30.058  13.973
38904W        W98407  11.153  40.476  10.612
38905W        W98408  41.923  35.925   3.856
38906W        W98409  38.483   9.165  11.508
38907W        W98410  12.667  43.942  13.003
38908W        W98411   6.212  14.813   5.750
38909W        W98412  23.602  21.231   1.811
38910W        W98413  39.044  34.927   3.867
38911W        W98414  43.383  22.670  14.310
38912W        W98415  26.090   6.870  14.968
38913W        W98416  10.237   6.297   2.707
38914W        W98417  14.209  28.539   2.663
38915W        W98418  32.402  40.427  10.914
38916W        W98419   6.807  38.448  10.505
38917W        W98420  13.317  27.163  12.474
38918W        W98421  22.241  16.156  14.943
38919W        W98422  21.677  29.121   3.846
38920W        W98423  38.903  37.490   2.290
38921W        W98424   8.735  10.309   3.744
38922W        W98425  14.668  29.053  13.368
38923W        W98426  24.541  18.268  10.486
38924W        W98427  41.957  16.775  10.415
38925W        W98428   7.802  35.404  14.855
38926W        W98429  15.682   5.733   0.425
38927W        W98430  16.796  23.226  13.429
38928W        W98431  33.415  20.084  12.467
38929W        W98432  16.273  21.259  10.451
38930W        W98433  22.686  14.310  10.614
38931W        W98434   4.905  25.976   9.986
38932W        W98435  14.723  42.863   4.236
38933W        W98436  21.673  16.740  13.022
38934W        W98437   0.828  25.641  12.454
38935W        W98438  39.837  26.064   3.709
38936W        W98439  28.132  21.540  13.045
38937W        W98440  33.442  24.717   3.692
38938W        W98441  14.142  15.803  14.301
38939W        W98442  13.809  10.683   3.307
38940W        W98443   7.780  33.464   0.950
38941W        W98444  36.381  32.541  10.483
38942W        W98445  11.717  43.766  11.536
38943W        W98446  10.342  12.656  11.527
38944W        W98447   1.797  18.283   4.834
38945W        W98448   7.224   0.324  13.899
38946W        W98449  26.697  28.066  11.572
38947W        W98450  39.945  20.101  12.990
38948W        W98451  40.830   6.922  14.293
38949W        W98452  18.112  41.824   0.306
38950W        W98453  16.208  20.639  12.060
38951W        W98454  16.169  23.736  12.042
38952W        W98455   0.483  32.449   1.444
38953W        W98456   0.988  12.671   3.180
38954W        W98457  23.026   5.758   1.258
38955W        W98458  16.590  30.639  10.422
38956W        W98459  20.169  15.145  11.550
38957W        W98460   3.742  27.657   3.252
38958W        W98461  24.588   6.757   2.275
38959W        W98462  25.541  16.090   3.853
38960W        W98463  37.568  32.077   4.673
38961W        W98464  31.003  24.205  11.419
38962W        W98465  30.033   9.854  11.604
38963W        W98466  32.540  42.285  12.347
38964W        W98467  18.648  18.274   0.267
38965W        W98468  19.644   2.227   4.123
38966W        W98469  34.999  23.645  10.498
38967W        W98470   6.414  38.920  11.897
38968W        W98471  17.625   0.830   1.724
38969W        W98472  10.660   0.893  11.599
38970W        W98473  21.190  37.857   1.221
38971W        W98474   1.963  35.563   1.851
38972W        W98475   0.276  30.637  14.847
38973W        W98476  11.304  35.933  11.381
38974W        W98477  21.637  28.672   4.787
38975W        W98478   3.409  20.768   3.636
38976W        W98479  15.197  15.606   0.286
38977W        W98480  17.090  17.216  11.430
38978W        W98481  29.508  41.893   4.824
38979W        W98482  38.072  35.372  10.556
38980W        W98483   4.312  16.600   1.868
38981W        W98484  36.462  33.102  13.045
38982W        W98485  23.223  25.204   4.603
38983W        W98486  34.863   8.886   4.827
38984W        W98487  15.147  40.405   2.406
38985W        W98488  18.269  14.678   1.810
38986W        W98489  15.103  37.580   4.767
38987W        W98490  19.744  42.322  13.393
38988W        W98491  32.939  16.709   2.376
38989W        W98492  15.689  22.245   1.365
38990W        W98493  11.745  15.717  11.033
38991W        W98494   7.735   2.415   3.343
38992W        W98495  32.896  35.362   4.145
38993W        W98496  15.583  16.290   4.243
38994W        W98497  14.148   7.847   0.481
38995W        W98498   1.955  16.779   0.941
38996W        W98499  30.650  29.959  11.095
38997W        W98500  26.176  18.206   0.855
38998W        W98501   4.221   4.921   3.770
38999W        W98502  17.790  43.874  14.489
39000W        W98503  34.082  38.914   1.212
39001W        W98504  27.080  27.150  14.460
39002W        W98505  15.795  16.784  13.354
39003W        W98506  33.385  19.044   1.719
39004W        W98507  31.913   2.439   4.190
39005W        W98508   9.673   7.336   1.716
39006W        W98509  39.333  28.122  11.393
39007W        W98510  20.207  35.068   4.823
39008W        W98511  22.215  24.503  13.035
39009W        W98512  29.102  12.666  14.000
39010W        W98513   7.252  15.643   2.726
39011W        W98514  43.813  27.510   4.801
39012W        W98515  23.687  19.267   0.414
39013W        W98516  43.277   2.454  14.997
39014W        W98517  30.927   8.182   4.605
39015W        W98518  33.916   8.742  13.411
39016W        W98519  35.038  25.537  10.953
39017W        W98520  37.905  37.042  13.063
39018W        W98521   1.835  20.071  13.034
39019W        W98522   6.321  27.528   0.442
39020W        W98523  40.448  29.668  14.330
39021W        W98524  26.482  20.728  11.903
39022W        W98525   8.729  36.052   0.821
39023W        W98526  22.736  23.574   2.837
39024W        W98527   0.839   2.894  13.324
39025W        W98528   8.165  44.476   0.750
39026W        W98529   3.788   6.917  11.576
39027W        W98530  18.128  11.716  13.832
39028W        W98531  32.625   7.180   4.168
39029W        W98532  39.946  32.997   2.217
39030W        W98533  16.771  42.885  11.456
39031W        W98534  15.821  25.544   5.197
39032W        W98535  22.015   6.401   0.959
39033W        W98536   1.255  40.535   0.298
39034W        W98537  37.482  13.719   0.966
39035W        W98538  21.594  43.879   0.905
39036W        W98539  13.171   2.842   1.277
39037W        W98540  25.183  37.535  10.441
39038W        W98541   3.306  42.809   0.398
39039W        W98542  11.332  13.197   3.806
39040W        W98543  24.661  42.421   3.707
39041W        W98544  33.400   9.711  14.942
39042W        W98545   5.767  35.499  13.980
39043W        W98546  30.992  11.219  13.357
39044W        W98547  39.517   6.309  13.500
39045W        W98548   4.932   7.191  14.939
39046W        W98549  26.506  13.133   0.848
39047W        W98550  34.054  17.640  14.407
39048W        W98551  14.820  18.686  10.932
39049W        W98552  13.226  13.636  11.929
39050W        W98553  33.114  26.621   1.285
39051W        W98554  16.081  28.495  14.868
39052W        W98555  16.117  13.183   4.346
39053W        W98556  41.358  33.567   1.308
39054W        W98557  28.117  28.474  11.513
39055W        W98558  31.074  20.131  10.920
39056W        W98559  44.917  36.483   0.833
39057W        W98560   0.743  35.012   4.265
39058W        W98561  41.016  44.262   1.717
39059W        W98562  34.995  27.539  12.348
39060W        W98563  43.346  27.183   0.367
39061W        W98564  40.887  44.392  11.609
39062W        W98565  42.450  22.072  11.871
39063W        W98566   2.758  29.454   4.664
39064W        W98567  10.743  36.070   2.190
39065W        W98568  43.764   3.244   3.218
39066W        W98569   9.779  37.389   4.745
39067W        W98570  38.962   7.693   0.403
39068W        W98571  35.027  44.287  11.428
39069W        W98572  20.254  37.038  13.405
39070W        W98573  36.452   9.682  14.830
39071W        W98574  10.152   5.770  14.510
39072W        W98575  29.587  33.032   0.446
39073W        W98576  44.378  29.085   2.273
39074W        W98577   0.850  29.513   3.747
39075W        W98578  14.769  41.341   5.266
39076W        W98579  22.018  16.141   1.871
39077W        W98580  10.173  43.426   0.890
39078W        W98581  27.655  18.617  13.947
39079W        W98582  44.940  43.488  12.400
39080W        W98583  22.726  41.436  14.493
39081W        W98584  38.448  30.165   2.346
39082W        W98585  12.190  25.522  10.539
39083W        W98586  13.806  32.525  13.792
39084W        W98587   9.854  35.023  14.511
39085W        W98588  15.720  27.070   3.364
39086W        W98589  10.714   2.392   4.217
39087W        W98590   7.307  27.946  13.398
39088W        W98591  26.085  13.613   2.765
39089W        W98592  22.138  44.494   3.157
39090W        W98593  30.957   0.449  12.966
39091W        W98594  32.075  18.690  12.904
39092W        W98595   2.458  43.862  12.527
39093W        W98596   6.712  18.067  11.984
39094W        W98597  38.905  36.453  13.861
39095W        W98598   4.821  11.328  12.998
39096W        W98599  20.225  29.576   4.257
39097W        W98600  25.094  15.719   0.825
39098W        W98601   7.363  28.544  13.921
39099W        W98602  40.545  21.724   1.338
39100W        W98603  38.968  35.027  12.934
39101W        W98604  26.616   6.694  10.473
39102W        W98605  14.290   3.824   2.768
39103W        W98606  37.967   7.719   0.945
39104W        W98607  37.874  39.967   4.235
39105W        W98608   3.933  18.248  12.445
39106W        W98609  29.126   3.218  12.510
39107W        W98610   7.272   3.460  11.555
39108W        W98611  15.106  44.417  14.364
39109W        W98612  31.526  35.514   2.348
39110W        W98613  17.778  40.819   1.315
39111W        W98614  40.343  41.472  10.083
39112W        W98615   2.343  12.853  10.510
39113W        W98616  24.590  26.603  12.441
39114W        W98617  39.407  19.697  14.007
39115W        W98618   3.396   9.337  11.113
39116W        W98619  35.906  29.551   3.779
39117W        W98620  29.032  41.387   1.887
39118W        W98621  22.541   2.872   9.657
39119W        W98622  37.522  37.045  12.847
39120W        W98623  14.643   7.815  12.950
39121W        W98624  30.527  33.591   5.124
39122W        W98625  14.792   7.263  10.056
39123W        W98626  21.691  37.861   2.767
39124W        W98627  42.940   8.311  12.558
39125W        W98628  40.421  24.558  10.552
39126W        W98629  24.481  11.146  11.970
39127W        W98630  34.112   1.843  13.426
39128W        W98631   9.329  29.454  11.871
39129W        W98632  13.323  19.629  11.389
39130W        W98633  16.809  42.304  10.417
39131W        W98634  36.846  37.918  12.065
39132W        W98635  17.260   8.850  11.931
39133W        W98636   8.693  11.633  14.397
39134W        W98637  36.934   4.856   1.316
39135W        W98638   0.746  24.176   5.201
39136W        W98639  37.475  36.047   3.750
39137W        W98640  18.612  31.544   2.213
39138W        W98641  41.497   8.660   0.842
39139W        W98642  39.859  42.900   3.245
39140W        W98643  37.534  28.513   3.846
39141W        W98644   4.774   4.925  14.926
39142W        W98645  28.647  37.439  14.979
39143W        W98646  11.802  26.995  14.821
39144W        W98647  38.475  43.929   3.285
39145W        W98648  44.804  25.584  15.000
39146W        W98649  23.529  19.134   1.917
39147W        W98650  22.636  18.702  12.437
39148W        W98651  10.223  35.592   1.216
39149W        W98652  25.505  16.274   0.785
39150W        W98653   8.872   7.268   0.965
39151W        W98654  41.916  19.586  12.028
39152W        W98655  28.048  33.972   2.372
39153W        W98656  25.074  16.763   0.951
39154W        W98657  18.253   1.938  12.407
39155W        W98658  15.196   6.313   4.343
39156W        W98659  20.642  37.503   3.853
39157W        W98660   0.283   5.812   1.900
39158W        W98661  33.570  24.514  12.534
39159W        W98662  24.691  33.614   3.641
39160W        W98663  11.761  26.168  13.511
39161W        W98664  17.226  31.062  14.452
39162W        W98665  13.780  40.833   1.223
39163W        W98666  33.440  38.896  14.402
39164W        W98667  33.944   1.869   4.239
39165W        W98668  34.415  43.021  10.908
39166W        W98669  25.673  11.225   0.274
39167W        W98670  24.033  19.093   3.318
39168W        W98671  13.149  27.993  13.893
39169W        W98672  30.105  18.220   0.748
39170W        W98673   0.486  13.656   2.359
39171W        W98674  12.249  17.185  14.906
39172W        W98675   5.416  38.882  13.533
39173W        W98676  24.550  42.991  12.843
39174W        W98677  15.313  36.882  14.922
39175W        W98678   5.420  42.783  14.861
39176W        W98679   0.428  33.891   4.694
39177W        W98680  36.374  10.164  13.952
39178W        W98681  26.669   0.792   0.751
39179W        W98682  38.505   0.313   2.314
39180W        W98683  12.829  35.906   4.805
39181W        W98684  32.458  33.898  11.995
39182W        W98685  14.635  17.619   3.157
39183W        W98686   1.326  33.876   0.965
39184W        W98687  23.187   5.363   0.469
39185W        W98688   5.927  16.703  11.091
39186W        W98689  28.967  44.307   0.466
39187W        W98690  33.447  17.299  12.474
39188W        W98691  29.174  10.775   2.319
39189W        W98692  13.651  14.137   1.426
39190W        W98693  36.994  32.048   3.262
39191W        W98694  15.091  43.413  12.911
39192W        W98695  44.328   5.428  10.989
39193W        W98696  19.777  36.854  12.949
39194W        W98697  38.357   0.375  13.510
39195W        W98698  36.097   1.887  12.444
39196W        W98699  33.913  33.897  13.432
39197W        W98700  21.730   8.364   3.271
39198W        W98701  31.940   0.936   5.184
39199W        W98702   5.852  41.450   4.226
39200W        W98703  35.029  20.585  12.917
39201W        W98704  16.782   8.844   1.820
39202W        W98705  40.532  19.086  13.475
39203W        W98706   2.373  36.914   0.462
39204W        W98707  24.710  34.461  12.349
39205W        W98708   5.913   6.240  12.922
39206W        W98709  15.162  35.924  11.382
39207W        W98710  18.267  27.082  11.510
39208W        W98711   8.377  21.637   4.644
39209W        W98712  37.413  30.086   4.187
39210W        W98713  10.759  27.948   2.320
39211W        W98714  22.119  28.168   1.281
39212W        W98715  31.420  44.007  13.851
39213W        W98716  31.958  32.953  11.427
39214W        W98717   8.298  28.150  10.425
39215W        W98718  31.445  40.311  14.430
39216W        W98719  16.240  37.425   2.874
39217W        W98720  30.484   9.162   2.679
39218W        W98721  36.378  17.157  13.054
39219W        W98722  27.504  43.769  12.429
39220W        W98723   3.295  37.581   0.299
39221W        W98724  27.176  33.606   4.121
39222W        W98725  12.857  30.580   0.452
39223W        W98726  14.095  39.907  13.509
39224W        W98727  28.517  24.078  14.966
39225W        W98728   1.930  30.974   1.840
39226W        W98729  10.825  15.712  14.866
39227W        W98730  16.660  29.109  14.819
39228W        W98731  11.282  43.497   0.398
39229W        W98732  39.491  22.140  13.844
39230W        W98733  28.109  43.438   0.939
39231W        W98734   6.364  29.521   5.226
39232W        W98735  29.617  15.271   2.668
39233W        W98736   6.334  29.949  12.890
39234W        W98737  18.779  27.505   4.322
39235W        W98738  33.575  18.622   4.284
39236W        W98739  32.506  41.477   4.691
39237W        W98740  30.157  34.038  10.548
39238W        W98741  27.027  27.561  11.937
39239W        W98742   3.451  13.806   3.163
39240W        W98743  25.175   3.803  11.046
39241W        W98744   9.874  17.567   3.309
39242W        W98745  28.105  18.618  12.011
39243W        W98746   0.872  22.628  14.512
39244W        W98747   0.819  21.093   0.756
39245W        W98748  16.679   7.851  11.957
39246W        W98749  30.916  31.414   3.826
39247W        W98750  26.983  32.481   4.122
39248W        W98751  30.537  24.999  14.431
39249W        W98752  14.115  37.863   2.366
39250W        W98753  44.765   8.823   0.807
39251W        W98754  28.556  12.298   0.465
39252W        W98755  38.424  19.650   0.819
39253W        W98756  40.517   2.383  10.498
39254W        W98757  10.217  13.323  13.806
39255W        W98758  36.852  41.988   3.801
39256W        W98759  20.665  25.082  13.507
39257W        W98760   7.313  42.895   4.125
39258W        W98761  26.051  35.977   4.205
39259W        W98762  33.407   7.251   0.430
39260W        W98763   0.891  23.536   1.368
39261W        W98764  30.647  38.854   1.815
39262W        W98765  21.204  39.915  13.443
39263W        W98766  34.530  31.636   3.317
39264W        W98767  37.446  35.910  11.591
39265W        W98768   0.937  20.609   2.181
39266W        W98769  20.178  24.568  14.988
39267W        W98770  18.574  17.154   3.637
39268W        W98771  24.131  20.249   0.399
39269W        W98772  40.328  44.465  10.496
39270W        W98773  33.964  29.628  13.517
39271W        W98774  43.394  31.911  11.041
39272W        W98775  31.128  40.054  12.995
39273W        W98776  37.425  37.433  13.307
39274W        W98777  35.019  13.118  11.396
39275W        W98778  44.871  18.548   2.755
39276W        W98779   9.799  28.592   0.757
39277W        W98780  13.348  27.507  12.935
39278W        W98781   7.721   0.972  12.938
39279W        W98782  11.711  16.739   9.518
39280W        W98783  21.608   1.249   3.724
39281W        W98784  43.846  27.507  14.513
39282W        W98785  11.706  25.620  12.401
39283W        W98786  14.628   9.746  13.869
39284W        W98787  24.040  14.588  11.014
39285W        W98788  35.089  22.635   3.284
39286W        W98789  41.831   0.394  12.069
39287W        W98790   0.351  25.211   3.842
39288W        W98791  28.439  34.885  12.999
39289W        W98792  24.561  13.128  14.439
39290W        W98793  20.604  39.365   0.242
39291W        W98794  18.617  15.822  14.989
39292W        W98795  32.402  10.375  14.772
39293W        W98796  37.344   8.373   4.129
39294W        W98797  13.287  14.221   1.766
39295W        W98798  36.423  13.346  12.047
39296W        W98799  23.700   0.983  10.895
39297W        W98800  17.068  10.253  13.865
39298W        W98801   3.295  22.007  13.497
39299W        W98802  16.586   3.896  11.605
39300W        W98803  15.608  36.094  12.836
39301W        W98804  30.141  19.218  12.530
39302W        W98805  13.188   4.748   2.329
39303W        W98806   0.268  24.554   3.778
39304W        W98807  39.449  34.567  11.873
39305W        W98808  37.565  11.727  13.982
39306W        W98809  12.344  14.811  14.459
39307W        W98810  41.485  32.530  11.928
39308W        W98811  32.589  24.973  11.546
39309W        W98812  20.195  40.526  12.475
39310W        W98813  31.627  17.113   0.276
39311W        W98814  39.912  34.067  12.978
39312W        W98815  38.993   4.868  11.531
39313W        W98816   7.210  28.564  13.323
39314W        W98817   8.767   9.691  13.497
39315W        W98818  38.398  31.408  11.600
39316W        W98819  40.374  27.121  12.571
39317W        W98820  10.825  33.562  11.038
39318W        W98821   6.204  28.067  10.586
39319W        W98822  13.725  16.238  10.913
39320W        W98823  16.699  41.943   4.182
39321W        W98824  10.160  25.689  10.594
39322W        W98825  35.045  43.351   0.355
39323W        W98826  12.231  42.016  14.420
39324W        W98827   0.947  12.345  12.442
39325W        W98828  43.428   6.797  10.546
39326W        W98829  18.580  32.976  13.514
39327W        W98830  17.063  39.823  14.430
39328W        W98831  27.018  14.161   2.681
39329W        W98832  16.654  15.288  14.810
39330W        W98833  14.339  39.824   0.833
39331W        W98834  27.047   0.753   4.261
39332W        W98835  23.530  27.105  10.453
39333W        W98836  41.440  41.347   1.413
39334W        W98837  24.668  20.142  14.907
39335W        W98838  40.947  32.009  12.465
39336W        W98839  39.054  10.732   2.809
39337W        W98840   5.345  44.342  11.511
39338W        W98841  34.949   0.370  14.874
39339W        W98842  39.861  30.499   4.261
39340W        W98843   3.945   1.402  12.544
39341W        W98844  14.596  40.000   4.212
39342W        W98845  13.747  29.595  10.551
39343W        W98846  38.988  26.120  14.985
39344W        W98847  15.304  42.336   4.718
39345W        W98848   1.436  12.807  14.315
39346W        W98849  33.399   6.295  12.411
39347W        W98850   6.772  26.127   1.244
39348W        W98851  31.420  25.142   4.150
39349W        W98852  38.914   5.874   3.358
39350W        W98853  44.833   3.244   0.471
39351W        W98854   4.906  44.411   1.319
39352W        W98855  38.409  12.214   4.151
39353W        W98856  22.147  37.040   4.686
39354W        W98857   8.674  28.532   4.715
39355W        W98858  11.730  29.472   2.726
39356W        W98859   9.741  18.633  14.502
39357W        W98860  44.390  43.905  11.913
39358W        W98861  33.451  27.047  13.811
39359W        W98862   3.720   2.396   2.404
39360W        W98863   8.263  34.493  11.467
39361W        W98864   6.909  26.126  11.034
39362W        W98865  35.052  12.731   1.787
39363W        W98866   9.869  22.249  13.010
39364W        W98867  37.535   6.763   3.236
39365W        W98868   6.340  34.439   3.260
39366W        W98869   1.374  42.399   3.259
39367W        W98870   0.458   1.272   3.677
39368W        W98871  39.382  44.962  14.797
39369W        W98872  11.207   8.195   4.317
39370W        W98873  36.066  17.745   2.827
39371W        W98874  32.608  12.130  12.401
39372W        W98875  17.717   8.743  13.042
39373W        W98876   3.293  22.637  12.492
39374W        W98877  25.069  34.548  11.449
39375W        W98878  11.276  27.685   1.745
39376W        W98879  34.458  40.860   0.795
39377W        W98880  27.642   6.427  13.337
39378W        W98881  18.202  26.686   3.746
39379W        W98882  27.646  18.278   2.900
39380W        W98883  25.193  26.012  12.494
39381W        W98884   6.196  11.175   1.920
39382W        W98885  40.050  32.085  14.807
39383W        W98886  15.765  34.867  12.432
39384W        W98887   3.222  25.970  10.568
39385W        W98888  20.147  25.076  10.979
39386W        W98889  24.983  37.923   1.915
39387W        W98890  11.301   4.763   3.735
39388W        W98891  21.572  20.599  12.921
39389W        W98892  43.981  13.176  14.984
39390W        W98893  41.913  11.670  13.940
39391W        W98894  39.525  30.982  10.474
39392W        W98895  20.133  42.458  12.435
39393W        W98896  12.687  41.478   3.674
39394W        W98897  12.285  26.193   4.682
39395W        W98898   1.383  25.089  10.948
39396W        W98899   6.200  12.315  12.987
39397W        W98900  37.371   2.467  12.524
39398W        W98901  31.491  42.450   2.300
39399W        W98902  29.004  13.698   0.403
39400W        W98903  19.746   5.320   2.713
39401W        W98904  38.060  37.961  14.427
39402W        W98905   9.205  31.621  13.419
39403W        W98906  19.606  41.523   0.469
39404W        W98907  41.440  43.799   0.813
39405W        W98908  35.370  25.704  13.307
39406W        W98909  13.681  34.545  11.104
39407W        W98910  19.039  29.006  11.101
39408W        W98911  13.321  28.534  11.608
39409W        W98912  17.206  44.376  11.494
39410W        W98913   0.477  21.251   0.796
39411W        W98914  15.238  18.620   0.787
39412W        W98915  31.492  38.368  13.471
39413W        W98916  17.216  26.976   1.283
39414W        W98917  30.483  44.436  14.927
39415W        W98918  38.495  11.145   1.829
39416W        W98919  31.568   3.355  12.029
39417W        W98920  37.470  23.120   3.219
39418W        W98921  11.273  19.755   3.644
39419W        W98922   9.815  27.053   3.820
39420W        W98923  39.892  39.493   3.680
39421W        W98924  41.423  26.079   1.439
39422W        W98925   6.860  44.270   4.270
39423W        W98926  29.521  30.650  13.903
39424W        W98927   5.749  38.518  13.897
39425W        W98928   4.706  35.561   2.800
39426W        W98929   6.870  40.821  11.581
39427W        W98930  26.030  39.350  10.440
39428W        W98931  10.306  13.148  13.048
39429W        W98932   3.821  37.390  14.894
39430W        W98933  28.556  27.178  14.888
39431W        W98934  27.582  13.219   2.256
39432W        W98935  36.574  16.782   3.683
39433W        W98936   4.908   7.250   1.897
39434W        W98937  41.534  43.964  12.358
39435W        W98938   3.400   6.857  14.783
39436W        W98939  38.888   3.259  11.069
39437W        W98940   2.803  35.060  13.332
39438W        W98941  25.527  20.738   0.783
39439W        W98942  26.996  22.112  14.275
39440W        W98943  30.988  27.564  12.847
39441W        W98944  42.433  34.572  10.481
39442W        W98945  29.172  34.582   3.152
39443W        W98946  41.990   9.246  13.009
39444W        W98947   2.352  30.423   3.321
39445W        W98948  32.441  18.125  11.934
39446W        W98949  13.184  23.217  14.343
39447W        W98950  34.546  38.820   4.661
39448W        W98951  39.467   3.921  12.909
39449W        W98952   2.339  34.390  11.563
39450W        W98953  29.461  17.199  12.946
39451W        W98954  17.137  11.823  10.589
39452W        W98955  16.742  31.133   3.147
39453W        W98956  35.927   2.846   1.297
39454W        W98957  12.277  36.493   1.749
39455W        W98958  33.087   0.319   3.339
39456W        W98959  30.594  10.263  10.057
39457W        W98960   8.330  23.665   0.848
39458W        W98961  12.682  11.237   4.316
39459W        W98962  10.338  24.212  12.042
39460W        W98963  10.156  24.076  12.521
39461W        W98964  12.643  10.761  14.406
39462W        W98965   4.833   4.770   2.852
39463W        W98966   8.391  38.874   1.853
39464W        W98967   0.463  27.549  11.532
39465W        W98968  14.632  20.170   0.404
39466W        W98969  10.184  33.613   3.248
39467W        W98970  35.903  39.984  10.545
39468W        W98971  32.394  36.084   3.781
39469W        W98972  28.183  26.177  12.965
39470W        W98973  35.905  20.191   3.652
39471W        W98974  34.526   8.290   4.265
39472W        W98975  43.421  19.714   0.737
39473W        W98976  17.709  37.568  12.518
39474W        W98977  20.213  40.458   1.377
39475W        W98978  19.568  10.868  13.847
39476W        W98979  31.086   9.875  11.899
39477W        W98980  18.164   2.467  12.040
39478W        W98981  39.855  22.604   4.212
39479W        W98982   7.845  37.988   2.369
39480W        W98983  25.081  24.646   1.251
39481W        W98984  13.328  15.167  13.883
39482W        W98985   7.399  16.195   0.966
39483W        W98986  23.083  32.007   0.762
39484W        W98987  28.151  40.483   0.887
39485W        W98988  32.503  12.851  11.883
39486W        W98989  13.277  40.895  10.447
39487W        W98990  28.080  26.682   4.225
39488W        W98991  28.052  40.019   1.868
39489W        W98992  31.588   4.883   4.137
39490W        W98993  20.744  43.810   0.457
39491W        W98994  15.750  39.030  10.907
39492W        W98995  24.137  17.149   2.730
39493W        W98996  14.723  42.952  13.937
39494W        W98997   2.360  33.526   4.738
39495W        W98998  19.677  44.321  13.878
39496W        W98999  23.723  28.622  13.968
39497W        W99000  30.120  23.041   4.224
39498W        W99001  32.994  21.582  14.929
39499W        W99002  32.494  36.028  11.980
39500W        W99003  41.511  22.198  11.120
39501W        W99004  24.219   2.344  14.023
39502W        W99005  38.406  23.495   1.729
39503W        W99006  32.074  37.434  10.510
39504W        W99007   3.912   5.329  11.384
39505W        W99008  16.736   9.877  14.784
39506W        W99009   4.931  29.945  13.031
39507W        W99010   1.817   6.236   3.350
39508W        W99011  26.079  43.327  11.488
39509W        W99012  40.995  33.068   1.888
39510W        W99013  13.222  15.240   0.888
39511W        W99014  34.059  30.141   3.686
39512W        W99015  35.078  26.060   4.204
39513W        W99016   0.297   4.786   0.380
39514W        W99017  35.888  19.702   1.403
39515W        W99018  44.378  26.491   2.374
39516W        W99019  41.403  25.972   3.679
39517W        W99020  34.580  30.018   3.310
39518W        W99021  23.646  26.100  13.401
39519W        W99022  34.871  32.415  11.001
39520W        W99023  40.888  41.930   1.245
39521W        W99024  33.937  12.312  14.516
39522W        W99025  12.611  25.543   4.791
39523W        W99026  40.982  23.168   1.295
39524W        W99027  36.912   9.756  10.542
39525W        W99028  16.809  33.626   0.438
39526W        W99029  14.601  41.818  13.966
39527W        W99030  10.689  19.238   4.289
39528W        W99031  29.494   4.319  14.765
39529W        W99032   6.206   6.843  13.864
39530W        W99033  23.521   5.874  13.034
39531W        W99034  12.849  44.280   0.311
39532W        W99035  33.005  17.655  10.897
39533W        W99036   9.326  37.999  10.995
39534W        W99037  39.970  35.395  12.373
39535W        W99038   9.382  12.275   1.262
39536W        W99039  31.446  35.933  14.276
39537W        W99040  41.451  32.065   2.756
39538W        W99041  35.413   6.228   0.811
39539W        W99042  23.688  29.930   1.317
39540W        W99043  26.509  11.623   1.368
39541W        W99044   3.257  32.997  10.024
39542W        W99045   1.731  24.140   4.796
39543W        W99046  25.578   2.745  14.977
39544W        W99047  39.358  22.026  12.926
39545W        W99048  36.033  44.461  11.995
39546W        W99049  29.599   7.690   2.712
39547W        W99050  28.647  19.110  14.810
39548W        W99051  41.822   2.441  10.974
39549W        W99052  33.511  25.158   1.827
39550W        W99053  44.396  38.949  14.786
39551W        W99054   8.676   2.752  14.978
39552W        W99055   6.854  20.138  12.498
39553W        W99056   3.786   8.231   1.925
39554W        W99057  43.853  22.537  10.063
39555W        W99058  43.427   5.724  10.624
39556W        W99059  35.923  22.701   4.716
39557W        W99060  37.421  20.116   1.221
39558W        W99061  12.264   6.420  11.931
39559W        W99062   7.800  25.527  12.406
39560W        W99063  15.667  32.125   3.672
39561W        W99064  27.980   7.832   3.240
39562W        W99065   8.743  26.069  12.093
39563W        W99066  25.518  44.941   4.151
39564W        W99067  42.511  40.920   3.288
39565W        W99068  23.631   9.685  12.378
39566W        W99069  39.871  40.306  13.507
39567W        W99070  18.612  32.926   2.398
39568W        W99071   0.856  43.455  11.527
39569W        W99072  23.498  37.962  12.487
39570W        W99073  19.741  17.090  10.991
39571W        W99074  20.049  30.110  13.875
39572W        W99075  36.524  39.813  14.805
39573W        W99076  30.094  39.872  14.504
39574W        W99077  11.806   6.355  13.979
39575W        W99078   3.306  14.825   5.311
39576W        W99079  19.569  39.058  13.462
39577W        W99080  36.386  44.462   3.348
39578W        W99081  40.486  28.186  10.492
39579W        W99082  31.942   8.890   1.377
39580W        W99083  35.876  18.735  12.955
39581W        W99084   6.299  32.923   0.810
39582W        W99085  43.478  37.453  11.436
39583W        W99086  10.209  44.813  12.072
39584W        W99087  15.321  13.148  12.542
39585W        W99088  13.634  14.334  12.352
39586W        W99089   0.812  25.541  11.601
39587W        W99090   9.356   8.173   4.251
39588W        W99091  11.652   5.199  11.018
39589W        W99092  43.989   2.795   3.645
39590W        W99093  23.206  24.545  11.572
39591W        W99094  25.155  34.116  14.025
39592W        W99095   8.698  25.081  13.983
39593W        W99096  25.575  22.232   0.335
39594W        W99097   5.231  11.646  11.593
39595W        W99098  19.595  20.059   5.276
39596W        W99099  44.373  22.110  12.930
39597W        W99100   4.428  28.126   3.719
39598W        W99101  32.429  43.842  11.884
39599W        W99102   3.770  29.489  12.902
39600W        W99103  16.283   3.321   1.313
39601W        W99104  44.279  22.013   5.211
39602W        W99105  39.968  28.594   4.152
39603W        W99106  25.050   4.389   4.826
39604W        W99107  32.419   7.672   4.764
39605W        W99108  19.552  26.703  13.446
39606W        W99109  15.776  29.125   0.884
39607W        W99110  13.686  37.576   3.368
39608W        W99111  20.158   1.449   1.763
39609W        W99112  15.612  14.589   2.865
39610W        W99113  21.182  30.570  14.362
39611W        W99114  28.066  25.217  10.094
39612W        W99115  41.359  23.730   3.350
39613W        W99116  42.431   2.938  11.508
39614W        W99117  36.860   0.981  13.006
39615W        W99118  24.135  35.481   0.453
39616W        W99119  36.867  37.991   3.186
39617W        W99120   2.789  18.549  10.455
39618W        W99121   4.795  21.170  11.374
39619W        W99122   4.755  33.118   3.345
39620W        W99123  41.887  34.110   4.202
39621W        W99124  14.321  16.263  12.942
39622W        W99125  16.624  33.495  11.499
39623W        W99126  34.863  21.239  11.400
39624W        W99127  25.594   3.394   2.224
39625W        W99128  35.018  33.486   9.928
39626W        W99129  22.158  12.241  12.942
39627W        W99130  17.738  41.934   3.811
39628W        W99131  30.569  37.839   0.248
39629W        W99132  26.523  31.101  12.494
39630W        W99133  34.922   9.348  11.895
39631W        W99134  41.401  11.664   5.107
39632W        W99135  43.860  17.674  11.433
39633W        W99136  33.502  28.627  13.532
39634W        W99137  11.180  28.083   0.913
39635W        W99138  30.565  14.306   3.195
39636W        W99139  32.059  23.654   1.289
39637W        W99140  26.023  13.774   0.375
39638W        W99141  26.560  22.170   1.742
39639W        W99142  28.659  16.130  12.462
39640W        W99143  17.158  42.420   4.702
39641W        W99144  12.145  31.015   3.329
39642W        W99145  39.933  13.680  11.864
39643W        W99146  15.822   5.917  12.422
39644W        W99147  21.743  28.152  11.952
39645W        W99148   0.803   5.406  11.525
39646W        W99149  22.161  41.410   4.343
39647W        W99150  11.334  20.204   4.640
39648W        W99151   3.355  43.955  13.858
39649W        W99152   6.192   2.454   2.343
39650W        W99153  36.849  22.678   1.451
39651W        W99154  44.359  33.515   5.155
39652W        W99155  25.997  21.060   3.639
39653W        W99156  36.026  25.105  12.472
39654W        W99157  13.349  17.236  11.877
39655W        W99158   4.301  20.565   1.271
39656W        W99159  27.034  15.799   3.789
39657W        W99160  43.819  28.590   1.848
39658W        W99161  44.779  11.786  11.469
39659W        W99162  25.972  39.977  12.909
39660W        W99163  10.369  19.151  12.357
39661W        W99164  37.556  29.074  12.438
39662W        W99165  21.526  34.408   0.758
39663W        W99166   2.928  39.831  14.001
39664W        W99167  30.558  41.958  13.899
39665W        W99168  30.974  30.139  13.845
39666W        W99169   3.806  16.567  13.004
39667W        W99170  14.217  15.256  10.417
39668W        W99171  22.740  10.332   0.889
39669W        W99172   3.725  10.829  12.058
39670W        W99173   9.738  34.599  11.510
39671W        W99174  18.240  17.282  13.357
39672W        W99175   3.802   2.281  13.927
39673W        W99176  36.528  18.568  11.065
39674W        W99177  30.461  36.502  14.862
39675W        W99178  37.531  13.765   3.870
39676W        W99179   7.395  21.727   4.264
39677W        W99180   9.267  25.160   0.768
39678W        W99181  12.765  43.407   1.797
39679W        W99182  16.192   7.899   1.290
39680W        W99183   3.871   3.448  14.506
39681W        W99184   7.315  19.729  12.964
39682W        W99185  42.788  30.548   1.244
39683W        W99186  35.534  18.715  14.765
39684W        W99187  33.490  23.508   2.802
39685W        W99188  13.135   2.920  12.982
39686W        W99189  26.001  22.732   4.817
39687W        W99190  10.787  40.012  12.404
39688W        W99191  16.586  30.423  14.839
39689W        W99192  33.024  42.852   0.243
39690W        W99193   1.938  34.984  11.483
39691W        W99194  24.082  27.630  10.972
39692W        W99195  19.617  34.382  14.913
39693W        W99196  13.120  13.270   2.812
39694W        W99197   9.304   9.349   1.842
39695W        W99198  28.078  32.504  13.888
39696W        W99199  28.039  15.702  11.490
39697W        W99200  37.535  33.409  13.428
39698W        W99201  35.434   5.203   5.637
39699W        W99202  34.012  31.027  12.015
39700W        W99203  29.958  30.515  10.912
39701W        W99204  15.231   7.689  11.917
39702W        W99205  32.604  31.915  11.529
39703W        W99206  26.959  20.764   0.956
39704W        W99207  24.069  37.072   1.824
39705W        W99208  41.514  12.777  12.417
39706W        W99209  23.661   3.885  14.759
39707W        W99210  22.152   1.340   2.197
39708W        W99211  28.653  15.619   2.729
39709W        W99212  24.480  37.461  13.495
39710W        W99213  44.405  14.820  13.320
39711W        W99214   9.318  34.516   0.793
39712W        W99215   8.676  25.512  14.772
39713W        W99216  34.540   2.803  13.443
39714W        W99217   9.262  13.762   0.800
39715W        W99218  24.509   6.284   4.831
39716W        W99219  31.446   9.875   5.211
39717W        W99220  38.496  38.562  14.499
39718W        W99221  38.071   1.267  12.918
39719W        W99222   8.385  17.292   4.171
39720W        W99223   5.688   2.304   3.341
39721W        W99224   2.274  10.687  14.989
39722W        W99225   1.963   2.891  10.427
39723W        W99226  20.543  25.657   4.718
39724W        W99227  44.420  12.784   1.705
39725W        W99228  38.420   2.295   3.163
39726W        W99229  19.160  17.274  13.902
39727W        W99230   3.834   0.987   4.679
39728W        W99231  11.671  40.833   2.417
39729W        W99232  26.981  22.578  14.445
39730W        W99233   2.851  17.583   0.477
39731W        W99234  34.876  25.530  13.033
39732W        W99235  16.809  14.171   2.410
39733W        W99236  13.188   3.270  13.423
39734W        W99237   4.259  15.309  13.450
39735W        W99238  28.950  22.213  13.805
39736W        W99239  40.989  32.897   2.859
39737W        W99240  17.637   3.869  13.417
39738W        W99241  23.628   5.929   3.191
39739W        W99242  22.550  22.015   2.278
39740W        W99243  38.911  23.640  14.882
39741W        W99244  24.576  25.963   3.375
39742W        W99245  23.658  31.632   1.435
39743W        W99246  20.533   1.352   4.280
39744W        W99247  29.670  15.823  14.824
39745W        W99248  32.924   5.802  13.968
39746W        W99249   7.256  44.401   4.138
39747W        W99250  17.666   5.817  14.965
39748W        W99251  41.831   1.896   9.955
39749W        W99252  20.558   9.721  11.568
39750W        W99253   4.351  19.604   0.939
39751W        W99254   2.252  29.495   0.967
39752W        W99255   6.742  19.588   0.849
39753W        W99256  17.090  33.381   0.937
39754W        W99257   2.760  20.255   4.767
39755W        W99258  27.954  29.456   0.249
39756W        W99259  29.494  17.257   1.412
39757W        W99260   4.703  17.184   2.294
39758W        W99261  32.586  35.488  13.993
39759W        W99262  41.388  42.519   1.906
39760W        W99263  29.596  29.582   0.909
39761W        W99264   3.950  15.240  10.963
39762W        W99265  40.930  28.437   0.930
39763W        W99266   4.319  34.437   1.407
39764W        W99267  27.117  30.148  13.923
39765W        W99268  38.363  22.517  11.915
39766W        W99269  37.937  23.061  14.429
39767W        W99270  11.304  43.791   4.169
39768W        W99271  41.429  44.851  13.925
39769W        W99272   7.692  11.144  12.067
39770W        W99273  42.492  17.755  12.358
39771W        W99274  34.965  17.690  10.498
39772W        W99275  25.600  36.356   4.702
39773W        W99276  18.077  35.472  14.001
39774W        W99277  19.574  27.966   4.119
39775W        W99278  11.824  44.337   1.905
39776W        W99279  44.326  33.040  10.139
39777W        W99280  10.210  26.172  10.000
39778W        W99281   2.253  11.719   0.895
39779W        W99282  18.548  14.640   1.803
39780W        W99283  29.607  29.623  14.420
39781W        W99284  34.501  43.424  13.824
39782W        W99285  27.085   5.726   2.236
39783W        W99286  32.419   2.771   2.252
39784W        W99287  12.610  27.104   3.185
39785W        W99288  22.712  24.624   3.226
39786W        W99289  24.209  30.610   5.087
39787W        W99290  18.235  42.852   3.639
39788W        W99291  32.543   6.881   1.908
39789W        W99292  14.607  40.476  12.834
39790W        W99293  41.968  39.028  11.438
39791W        W99294  25.183  36.049   2.817
39792W        W99295   8.291  29.618  12.849
39793W        W99296  32.454  36.960  14.893
39794W        W99297  16.317  25.020   0.748
39795W        W99298  34.021  28.094  13.408
39796W        W99299  33.956  30.150   2.371
39797W        W99300  37.045   9.851  11.053
39798W        W99301  18.251  34.053   4.724
39799W        W99302   8.280  36.934   2.821
39800W        W99303  16.614  42.322  13.364
39801W        W99304  36.848  19.686  10.538
39802W        W99305  12.321  11.295  13.891
39803W        W99306  24.545  15.291   2.871
39804W        W99307  14.806  35.986  11.485
39805W        W99308  15.740   6.401  10.564
39806W        W99309  27.971   2.912   0.294
39807W        W99310  38.030  36.483   0.373
39808W        W99311  38.925   3.256  12.523
39809W        W99312   9.184  42.800  14.022
39810W        W99313   4.298  19.203  12.919
39811W        W99314  30.440   1.974   1.714
39812W        W99315  12.660  15.780  12.861
39813W        W99316  42.516   3.903   0.248
39814W        W99317   0.944  15.200   3.819
39815W        W99318  37.935  10.303   1.231
39816W        W99319   5.311  42.364   3.634
39817W        W99320  17.232  36.364   0.868
39818W        W99321   1.431  13.667   0.852
39819W        W99322  44.797  15.230  14.854
39820W        W99323   7.785  14.294   3.298
39821W        W99324   5.897  36.589  11.443
39822W        W99325  19.575   1.876  13.850
39823W        W99326  15.236  28.028  14.295
39824W        W99327   8.837   3.358  13.448
39825W        W99328  19.154  41.358  12.532
39826W        W99329  39.512  31.511  11.591
39827W        W99330   3.240  13.769   4.179
39828W        W99331  19.749  36.870   2.855
39829W        W99332  41.313  24.630  12.366
39830W        W99333  29.567  26.560  14.847
39831W        W99334  29.106  42.397  10.426
39832W        W99335  14.286   5.762  14.420
39833W        W99336  37.368   6.781   9.957
39834W        W99337  33.065  40.317  13.935
39835W        W99338  16.200  16.568   3.756
39836W        W99339  31.493  35.496   4.803
39837W        W99340  33.382  34.412  11.019
39838W        W99341  25.551   8.729  11.045
39839W        W99342  40.517  39.500   0.783
39840W        W99343  40.326  43.881  14.879
39841W        W99344  19.634  31.403  13.545
39842W        W99345  28.625   0.356  12.339
39843W        W99346  43.484  26.584  12.026
39844W        W99347   5.375  32.410   4.685
39845W        W99348   1.766  39.516  14.947
39846W        W99349  34.601  40.926   1.701
39847W        W99350  36.521  12.171   3.845
39848W        W99351  28.930  10.770  13.447
39849W        W99352  21.066   8.383   0.417
39850W        W99353  33.584  16.658  12.041
39851W        W99354  41.461  31.913  14.868
39852W        W99355   8.821  27.669   3.314
39853W        W99356  10.702  17.073  13.436
39854W        W99357  35.915  17.713   4.753
39855W        W99358  31.993  33.586   0.365
39856W        W99359  43.827  39.037  10.996
39857W        W99360  43.924  28.666   5.601
39858W        W99361  35.408  34.113  11.896
39859W        W99362  34.413  31.596  14.323
39860W        W99363   5.236  40.530  11.443
39861W        W99364   7.692  40.904  11.475
39862W        W99365  19.558  30.440   3.740
39863W        W99366  40.464   1.323  13.958
39864W        W99367   5.259  18.786  13.857
39865W        W99368  25.557  11.862   2.379
39866W        W99369   6.308  19.544   4.350
39867W        W99370   7.787   1.440  11.973
39868W        W99371  43.791  44.378  13.508
39869W        W99372  19.729   0.385   1.438
39870W        W99373  31.140  41.973   2.787
39871W        W99374   4.735  29.498  11.386
39872W        W99375  26.592   9.310  11.452
39873W        W99376  18.778  15.134  12.955
39874W        W99377  32.916  31.616  12.893
39875W        W99378  30.503  44.295  10.475
39876W        W99379  44.359  26.631  13.820
39877W        W99380  21.517  11.694   1.701
39878W        W99381   3.346  14.175   0.805
39879W        W99382  26.994  33.927  11.487
39880W        W99383  13.253  24.578   4.285
39881W        W99384  44.480  25.527   3.170
39882W        W99385  20.148  31.420  11.587
39883W        W99386  13.731  20.247  10.480
39884W        W99387  12.723  19.140   3.854
39885W        W99388  35.514   2.380  11.412
39886W        W99389  14.214  18.228  13.839
39887W        W99390  41.353  11.845  13.854
39888W        W99391  40.829   2.892  14.395
39889W        W99392  30.926  25.976   3.779
39890W        W99393  27.597  22.676   4.196
39891W        W99394  28.075  14.638  10.892
39892W        W99395  19.108  43.299   4.225
39893W        W99396  38.902   0.888  12.543
39894W        W99397  12.250  14.766  11.029
39895W        W99398  35.017  27.961   0.328
39896W        W99399  24.696  38.401  10.959
39897W        W99400   2.296  39.042  10.916
39898W        W99401  37.890  30.591   0.842
39899W        W99402  34.508  37.404  10.594
39900W        W99403  35.997  44.997   0.254
39901W        W99404  25.703  22.041   2.860
39902W        W99405  36.585  40.456   5.255
39903W        W99406  10.769   0.490   2.401
39904W        W99407  20.220  21.739   3.255
39905W        W99408   1.870   6.214   2.797
39906W        W99409  23.726  43.400  10.506
39907W        W99410   8.304  31.546  12.831
39908W        W99411  26.135  28.079  14.508
39909W        W99412  42.961   3.386   2.751
39910W        W99413  25.561  14.163   4.293
39911W        W99414  40.842  13.825  10.962
39912W        W99415  16.745  35.558  11.543
39913W        W99416   0.843  21.244  12.993
39914W        W99417   9.809  25.215  11.099
39915W        W99418  24.986  38.877  10.515
39916W        W99419  20.062   1.314  12.082
39917W        W99420  21.063  32.579   1.925
39918W        W99421   8.181  35.882   1.400
39919W        W99422  21.742  32.603  10.960
39920W        W99423  42.416  32.104  12.540
39921W        W99424  28.082  23.498  13.867
39922W        W99425  40.449  42.886  14.760
39923W        W99426   3.231  39.912  10.492
39924W        W99427  22.177  32.999   1.817
39925W        W99428  26.456  43.866   3.334
39926W        W99429  37.922  40.038  13.888
39927W        W99430  12.356  37.871   0.799
39928W        W99431  20.629  20.056  13.848
39929W        W99432  32.620   7.823  13.955
39930W        W99433  40.869  33.906   0.728
39931W        W99434  30.560   4.942   0.745
39932W        W99435  19.579  36.460   1.261
39933W        W99436  25.138   5.256   2.771
39934W        W99437  24.556  18.170   4.208
39935W        W99438   5.289  19.147  12.070
39936W        W99439  14.756  35.399   1.868
39937W        W99440  29.162  11.337  11.997
39938W        W99441  44.945  14.165  12.074
39939W        W99442   8.656  34.988  14.487
39940W        W99443  29.638  38.495   1.325
39941W        W99444  31.578  16.622   2.756
39942W        W99445  29.038  24.607   4.187
39943W        W99446  27.134  33.945  12.449
39944W        W99447  30.502  41.486   0.967
39945W        W99448  29.595  15.649  14.339
39946W        W99449  32.569   1.279  13.406
39947W        W99450  25.091  40.327   5.292
39948W        W99451   8.806   7.791  13.399
39949W        W99452  22.249   8.280   2.774
39950W        W99453  17.166  11.756   2.802
39951W        W99454  23.670  22.558   0.431
39952W        W99455  20.723  17.107  12.880
39953W        W99456  14.753  33.505   4.208
39954W        W99457   4.776  25.688  14.797
39955W        W99458   8.299   0.874  10.559
39956W        W99459  17.288  43.926   3.213
39957W        W99460  42.781  42.028   2.845
39958W        W99461  19.137  37.963   0.792
39959W        W99462  25.177  13.765   0.736
39960W        W99463   8.847  38.339  10.511
39961W        W99464  37.995   5.825   0.407
39962W        W99465  16.570  22.109  13.459
39963W        W99466   3.874  37.346   3.841
39964W        W99467  39.512  27.687   3.317
39965W        W99468  14.696   2.352   1.346
39966W        W99469   8.711  18.223   4.673
39967W        W99470  33.117  21.708  14.370
39968W        W99471  25.139   1.905   2.316
39969W        W99472  37.984  29.062   0.430
39970W        W99473  21.714  19.114   3.292
39971W        W99474  33.003  11.732  11.865
39972W        W99475   6.763   3.312   3.172
39973W        W99476  28.602  34.118   4.802
39974W        W99477  22.560  17.682  13.882
39975W        W99478  27.115   4.760   0.354
39976W        W99479  20.162   1.437   0.478
39977W        W99480  43.354   1.295  10.495
39978W        W99481  28.099  38.019  13.896
39979W        W99482   9.282  28.166   5.318
39980W        W99483  30.981  37.004  12.362
39981W        W99484  30.087  43.315   3.365
39982W        W99485  37.554  28.589  13.404
39983W        W99486  34.103  16.290  12.966
39984W        W99487   1.439  43.942  11.925
39985W        W99488   2.469   7.183  13.906
39986W        W99489  38.945  10.307   4.208
39987W        W99490  13.684  43.996   3.185
39988W        W99491  15.609  25.546   2.714
39989W        W99492  39.972  22.213   0.838
39990W        W99493  23.598  13.214  13.883
39991W        W99494  12.209  13.175   4.792
39992W        W99495  18.727  29.101  13.476
39993W        W99496  32.589  20.190   4.313
39994W        W99497  24.024  17.680  13.343
39995W        W99498  15.790   1.795  12.885
39996W        W99499   9.756  22.641   3.313
39997W        W99500   4.798  32.394   4.319
39998W        W99501   2.895   0.307  13.003
39999W        W99502  38.871  10.208   3.644
40000W        W99503  31.486  21.160   4.713
40001W        W99504  19.664  20.175   1.714
40002W        W99505  11.709  41.943  10.974
40003W        W99506   6.799  32.051  12.364
40004W        W99507  43.301  19.551  13.362
40005W        W99508  32.488  41.346  12.502
40006W        W99509  27.966  25.132  14.478
40007W        W99510  44.769   6.283  11.026
40008W        W99511  24.095  26.525  13.004
40009W        W99512  14.695  29.615  11.938
40010W        W99513  23.071  40.345   4.243
40011W        W99514   2.391  36.089  14.388
40012W        W99515  44.499  12.130   1.228
40013W        W99516  44.421  18.642  14.799
40014W        W99517  15.683  24.709   1.370
40015W        W99518  28.039  29.664  11.533
40016W        W99519  17.726  19.137   0.826
40017W        W99520  35.459  18.557   3.641
40018W        W99521  12.254  13.168   1.868
40019W        W99522   3.781   5.932  10.912
40020W        W99523  29.988   7.212  14.914
40021W        W99524   5.823   1.829   3.219
40022W        W99525  21.241  22.222  11.887
40023W        W99526  20.144  29.529   3.666
40024W        W99527  15.254   5.814   4.313
40025W        W99528  27.942   4.709   3.259
40026W        W99529  32.547  33.977  14.415
40027W        W99530  42.825  17.693   4.279
40028W        W99531  10.274  27.173  13.981
40029W        W99532   1.794   2.309  12.354
40030W        W99533  40.467  17.290  11.411
40031W        W99534  36.395  43.340  10.888
40032W        W99535  42.393  31.526   0.840
40033W        W99536  18.079   3.239   1.285
40034W        W99537  39.507   5.242   9.551
40035W        W99538   3.719  32.012   1.914
40036W        W99539  28.672  22.037   4.653
40037W        W99540  16.755  32.468  13.338
40038W        W99541  37.336   4.449  14.775
40039W        W99542  21.661  37.478   2.888
40040W        W99543  35.089  20.134  11.557
40041W        W99544  20.195  18.657  12.878
40042W        W99545   0.345  26.202   3.775
40043W        W99546  36.548  22.570  11.603
40044W        W99547  20.111  23.512   0.790
40045W        W99548   7.793   1.436   1.299
40046W        W99549  43.475   8.321   4.335
40047W        W99550  31.996  10.834  14.002
40048W        W99551   8.737  33.100   0.862
40049W        W99552  42.366  27.474  13.965
40050W        W99553  16.088  38.957  14.931
40051W        W99554  35.924   6.760   4.780
40052W        W99555  19.641   3.759   2.855
40053W        W99556   9.248  34.080   1.416
40054W        W99557  37.937  15.226  13.845
40055W        W99558  44.861  42.909   0.848
40056W        W99559  31.531  37.539  11.395
40057W        W99560  29.599  10.324   1.227
40058W        W99561  12.830  40.979  12.925
40059W        W99562  15.291  19.594  12.379
40060W        W99563  30.451  17.583   2.842
40061W        W99564  27.531   1.955  10.057
40062W        W99565  43.297   1.400  12.388
40063W        W99566  36.383  30.458   4.248
40064W        W99567  38.389  25.485   2.244
40065W        W99568   2.728  19.652   0.361
40066W        W99569   6.715  41.791  12.444
40067W        W99570  30.579  24.211   4.162
40068W        W99571  17.086  36.889  12.573
40069W        W99572  40.325  33.405   1.399
40070W        W99573  37.868  41.043   2.781
40071W        W99574   0.389  24.193  12.940
40072W        W99575   6.293  39.057   1.814
40073W        W99576  41.477  36.910   3.656
40074W        W99577  16.293  26.100   1.316
40075W        W99578  33.040  21.618  13.370
40076W        W99579   0.451  24.706   9.993
40077W        W99580  19.615   3.915  12.058
40078W        W99581  44.476  25.713  11.524
40079W        W99582   8.819  40.305  11.077
40080W        W99583  13.701   3.284   2.204
40081W        W99584  22.999   6.882   4.117
40082W        W99585  43.925  33.618   2.282
40083W        W99586  23.000  28.160   4.725
40084W        W99587  37.505  14.155   3.757
40085W        W99588  39.450   4.306  14.326
40086W        W99589  23.691  31.934   1.859
40087W        W99590  14.653  16.284  12.480
40088W        W99591  25.138  26.077   1.435
40089W        W99592  33.091  14.158   0.361
40090W        W99593  16.281  10.800   3.277
40091W        W99594  31.540  27.011   1.233
40092W        W99595  15.149  22.092   2.865
40093W        W99596  35.993  22.537   0.357
40094W        W99597  33.600   6.856   2.246
40095W        W99598  33.893   8.796   5.108
40096W        W99599   5.231   1.453  14.811
40097W        W99600  32.994  25.667   4.151
40098W        W99601  44.455  33.089   0.820
40099W        W99602  19.042  21.026  14.763
40100W        W99603  17.733   9.804   0.342
40101W        W99604  31.486   4.374   4.142
40102W        W99605   3.321  20.218   3.777
40103W        W99606  20.616   6.691  13.477
40104W        W99607  27.070  42.985   4.156
40105W        W99608  40.320  17.132  13.950
40106W        W99609   8.220  19.652   0.901
40107W        W99610  35.018  26.059   2.354
40108W        W99611  38.527  18.277  14.894
40109W        W99612  29.535  17.277   4.762
40110W        W99613  38.926  29.575   4.631
40111W        W99614   4.346  27.195   1.733
40112W        W99615   2.241  31.153  12.372
40113W        W99616  27.959  13.789  12.044
40114W        W99617  15.324  29.938  11.526
40115W        W99618  33.077  33.450   0.294
40116W        W99619   6.883  19.240  14.340
40117W        W99620  18.584   6.835   0.251
40118W        W99621  12.818  10.681  10.888
40119W        W99622  36.530  37.551  12.569
40120W        W99623   2.856  37.944   3.742
40121W        W99624  21.684   1.741   2.756
40122W        W99625   9.652  40.398  12.869
40123W        W99626  44.911  29.956   3.188
40124W        W99627   8.278  35.030  11.385
40125W        W99628  11.219  26.079   3.792
40126W        W99629  30.573  17.724   0.369
40127W        W99630  40.811  17.676   0.353
40128W        W99631  34.961   4.268  13.364
40129W        W99632  44.391   6.704   2.259
40130W        W99633  26.487  22.052  14.346
40131W        W99634  33.527  22.210   1.880
40132W        W99635  19.247   4.363  13.474
40133W        W99636  42.464  39.354  12.431
40134W        W99637  11.708  25.684   1.249
40135W        W99638  20.054  43.804   2.193
40136W        W99639  19.132  29.578  11.410
40137W        W99640  40.341   4.830   4.617
40138W        W99641  22.652  38.053   0.946
40139W        W99642  29.052  26.193  12.074
40140W        W99643  35.507  26.507  10.955
40141W        W99644  28.621  11.198   2.864
40142W        W99645   1.464  23.166  13.401
40143W        W99646  23.554  33.543  14.972
40144W        W99647  17.667  14.778  14.479
40145W        W99648  39.822  26.971   4.629
40146W        W99649  44.388   4.871   2.415
40147W        W99650  39.403  41.424   4.822
40148W        W99651  30.586   4.390  13.339
40149W        W99652  34.373  41.370   4.653
40150W        W99653  16.709   3.840   0.782
40151W        W99654  31.142  31.998  12.870
40152W        W99655  17.299  43.418  12.050
40153W        W99656  20.698  36.356   3.839
40154W        W99657  44.822  35.014  13.851
40155W        W99658  17.653  16.236  13.905
40156W        W99659  26.464  15.795   0.914
40157W        W99660  20.235  30.114   1.726
40158W        W99661  33.592   5.273   3.299
40159W        W99662  19.589  35.966  12.472
40160W        W99663  39.389  44.953   2.752
40161W        W99664  30.075  42.510   3.696
40162W        W99665  41.860  34.492   2.326
40163W        W99666  13.335   3.322  14.284
40164W        W99667  24.223  31.503  12.431
40165W        W99668  30.599  15.169  12.362
40166W        W99669  20.645  15.637  13.384
40167W        W99670  14.227   6.769  14.820
40168W        W99671  26.669  23.695  11.000
40169W        W99672   4.725   2.237   3.696
40170W        W99673   3.868   9.245   1.827
40171W        W99674  28.967  43.315   4.635
40172W        W99675   4.327  21.600  14.359
40173W        W99676  22.201  29.463  13.500
40174W        W99677   1.867  23.690  12.008
40175W        W99678   3.223  44.357  12.952
40176W        W99679   6.250  32.520  14.787
40177W        W99680  28.957  27.995   1.927
40178W        W99681  32.130  17.197  12.838
40179W        W99682  18.261  19.087  13.805
40180W        W99683  14.156  15.674  10.980
40181W        W99684  23.622   9.754   4.250
40182W        W99685   5.282   1.300  10.052
40183W        W99686  42.309  43.469   3.860
40184W        W99687  10.642  42.515  13.538
40185W        W99688   3.286  43.789  11.410
40186W        W99689  26.010  25.047   1.780
40187W        W99690  25.966  40.827  14.785
40188W        W99691   4.869  15.200  11.095
40189W        W99692  37.380  29.924  13.849
40190W        W99693  35.424  32.952   0.755
40191W        W99694   9.684  11.790  10.636
40192W        W99695  39.454  43.779   1.837
40193W        W99696  19.280  22.032   2.884
40194W        W99697   7.713  34.480   3.770
40195W        W99698  43.908  20.581   4.795
40196W        W99699  31.144  40.329  14.498
40197W        W99700  37.466  11.853  10.408
40198W        W99701  34.979   5.804   3.817
40199W        W99702  30.526  18.732   1.345
40200W        W99703  39.843   7.797  14.281
40201W        W99704  31.926  42.909   5.160
40202W        W99705  33.030  22.105   0.759
40203W        W99706   9.204  37.013   1.238
40204W        W99707  16.707  28.542   1.764
40205W        W99708  32.083  28.125   1.913
40206W        W99709  32.490   3.875   1.239
40207W        W99710   7.718   7.173  14.861
40208W        W99711  13.785  34.582   4.132
40209W        W99712  12.333  19.645  12.858
40210W        W99713  13.106  38.416  11.589
40211W        W99714  41.896  39.012  13.548
40212W        W99715  39.544  12.275   3.748
40213W        W99716   7.757  37.401   1.225
40214W        W99717  31.500  11.172  11.895
40215W        W99718  33.561  15.306   2.285
40216W        W99719  38.570   1.839  14.291
40217W        W99720  27.639  23.491   2.242
40218W        W99721  13.262  43.446   2.229
40219W        W99722   9.741  11.687  13.478
40220W        W99723  38.346  12.133   3.788
40221W        W99724   3.882  37.866   1.268
40222W        W99725  38.070  25.218   1.814
40223W        W99726  31.136  16.702  11.101
40224W        W99727  27.129  43.970   9.930
40225W        W99728  39.440   6.208  10.624
40226W        W99729  13.842  44.807  14.427
40227W        W99730   8.661  10.204   4.811
40228W        W99731  42.870  18.116   2.239
40229W        W99732  30.935  16.794  10.601
40230W        W99733   6.312  14.155   1.737
40231W        W99734  31.070   7.701  12.045
40232W        W99735  44.825  30.520   4.723
40233W        W99736   7.799   3.881   0.904
40234W        W99737  21.718   9.797   2.248
40235W        W99738  21.260  41.838  10.915
40236W        W99739  41.023  41.848  10.452
40237W        W99740  39.877   7.781   5.168
40238W        W99741  17.218  27.643   1.334
40239W        W99742  24.124  27.942   2.867
40240W        W99743   8.764   2.435   4.267
40241W        W99744  38.875  42.975   1.788
40242W        W99745  34.458  11.285  11.421
40243W        W99746  35.052  20.545   2.674
40244W        W99747  11.835  24.659   0.781
40245W        W99748  33.126  17.241   2.251
40246W        W99749  25.662  41.937   3.341
40247W        W99750  35.857   3.765  12.072
40248W        W99751  21.746   9.278  10.455
40249W        W99752   4.346  24.079  11.451
40250W        W99753  36.585   9.645  13.451
40251W        W99754  17.685  16.213  12.987
40252W        W99755  35.552  35.469  12.091
40253W        W99756  26.701  24.081   4.295
40254W        W99757  18.612  34.016  14.993
40255W        W99758  33.479  27.657   5.267
40256W        W99759  44.299  30.616   4.175
40257W        W99760  23.188  18.119   0.404
40258W        W99761  29.004  16.693  12.012
40259W        W99762  34.614  33.128  14.925
40260W        W99763   2.919  29.032  14.381
40261W        W99764   0.411  44.276   3.774
40262W        W99765  16.285  15.173  11.515
40263W        W99766  44.352  14.609  14.014
40264W        W99767   6.735   4.326   3.166
40265W        W99768  11.667  29.114   3.739
40266W        W99769  12.354  29.435  11.411
40267W        W99770  25.185   8.877  12.836
40268W        W99771  10.825  36.539   2.387
40269W        W99772  31.045  21.138   3.195
40270W        W99773  38.460  22.561  10.497
40271W        W99774  13.188   8.775  13.972
40272W        W99775  20.700  28.675   3.731
40273W        W99776  44.856  29.519  13.462
40274W        W99777  28.937   5.898   4.616
40275W        W99778   7.206   7.279  12.871
40276W        W99779  11.255  16.608   1.313
40277W        W99780  20.042  21.709   4.678
40278W        W99781  12.207  29.643  13.830
40279W        W99782  32.412  10.376  10.536
40280W        W99783  33.901   1.384   0.411
40281W        W99784  22.197  40.336  13.998
40282W        W99785  34.458  16.105  14.379
40283W        W99786   5.820  19.746  14.353
40284W        W99787  36.931  32.015   0.770
40285W        W99788   7.243  16.747  13.056
40286W        W99789  34.013  21.734  10.489
40287W        W99790  36.987  31.959  13.930
40288W        W99791   6.363  30.009  11.524
40289W        W99792  20.239  40.858   1.440
40290W        W99793  20.555  22.686  13.401
40291W        W99794   5.766  31.903   1.397
40292W        W99795   2.360   5.771  13.325
40293W        W99796   2.411  30.577   4.628
40294W        W99797   0.277  35.557   1.705
40295W        W99798  13.338   1.253  11.528
40296W        W99799  16.626  29.464  10.570
40297W        W99800  20.559  27.499  11.962
40298W        W99801  18.202   6.356   2.350
40299W        W99802  18.648  22.170  12.058
40300W        W99803  32.416   5.311  10.565
40301W        W99804   6.314   5.198  13.848
40302W        W99805  33.900  21.668   2.248
40303W        W99806  31.474   6.253   1.384
40304W        W99807  28.627  30.121   4.298
40305W        W99808   5.859  25.026   0.266
40306W        W99809  25.139  33.610  12.577
40307W        W99810  11.160  21.020   3.243
40308W        W99811  43.433  19.117   0.448
40309W        W99812  39.366  29.530  14.347
40310W        W99813  39.429  44.957  10.613
40311W        W99814  23.181  11.801   4.305
40312W        W99815  32.133  43.780  12.981
40313W        W99816  20.184  33.525  12.041
40314W        W99817  37.362  30.547   2.893
40315W        W99818   1.339   6.836  12.386
40316W        W99819  16.696  11.727   3.178
40317W        W99820  23.504   5.212  10.434
40318W        W99821  16.801  10.284   1.427
40319W        W99822   4.266  30.970  12.065
40320W        W99823  42.459  16.765   0.453
40321W        W99824  39.422   2.347  14.865
40322W        W99825   1.448  40.959  14.760
40323W        W99826  44.308   5.816   1.401
40324W        W99827  41.930   8.783  14.912
40325W        W99828  15.204  29.976  14.410
40326W        W99829  21.523  43.449   4.662
40327W        W99830   6.892   2.334  12.925
40328W        W99831  14.604   2.872  10.956
40329W        W99832  33.407   9.271   4.159
40330W        W99833  26.091  15.650  12.051
40331W        W99834  42.916  13.191   3.190
40332W        W99835  44.490  40.323  11.608
40333W        W99836   1.280  42.331   4.728
40334W        W99837  20.132  20.755  10.632
40335W        W99838  19.544  17.671   0.467
40336W        W99839  20.203  25.078  11.391
40337W        W99840  34.580  40.427  10.432
40338W        W99841   6.333  41.972   2.856
40339W        W99842  35.994   4.886   0.795
40340W        W99843  14.815   2.738  14.418
40341W        W99844  20.251  18.162   0.360
40342W        W99845  25.633   2.845  11.874
40343W        W99846   6.405  25.550  12.070
40344W        W99847   7.759  20.269   0.910
40345W        W99848  25.545  33.500  10.125
40346W        W99849  43.497   9.221  10.577
40347W        W99850  32.040  27.048   2.842
40348W        W99851  15.300  18.051  11.602
40349W        W99852  35.971  42.024   2.753
40350W        W99853  29.942  11.321  13.896
40351W        W99854  15.261  14.833   2.809
40352W        W99855  28.665  32.086   0.268
40353W        W99856  39.880  19.699   2.336
40354W        W99857  19.755  19.250   1.369
40355W        W99858  42.886   1.821  10.490
40356W        W99859  34.023  37.985   3.220
40357W        W99860   9.675  34.017   5.689
40358W        W99861  38.559  27.581  14.363
40359W        W99862   8.891   7.288  14.381
40360W        W99863   0.403   2.287   4.139
40361W        W99864   5.697  15.260  10.150
40362W        W99865  18.290   4.345   2.263
40363W        W99866  19.760  13.669  11.100
40364W        W99867  43.385  12.328   3.211
40365W        W99868  22.234   8.885   2.368
40366W        W99869  34.514  40.500  12.931
40367W        W99870   2.402  42.024  10.011
40368W        W99871  23.225  15.287   1.276
40369W        W99872  29.431  24.571  10.534
40370W        W99873  42.879  44.367   5.139
40371W        W99874  14.289  21.051   1.927
40372W        W99875  37.079  42.030  11.912
40373W        W99876  30.557  13.147   2.337
40374W        W99877  10.241  12.806   0.426
40375W        W99878  41.496  30.014  11.433
40376W        W99879  10.705  23.003  13.445
40377W        W99880  28.519  20.162   2.361
40378W        W99881  41.804  10.778   2.214
40379W        W99882  32.103  28.627   0.802
40380W        W99883  23.517  13.288  12.836
40381W        W99884  24.156  18.129   5.159
40382W        W99885  11.867   2.948  14.478
40383W        W99886   3.718  12.235  14.973
40384W        W99887  38.995  17.658  10.569
40385W        W99888  36.362   2.287  11.056
40386W        W99889  39.494  10.210   1.758
40387W        W99890   2.346  32.492   0.730
40388W        W99891  41.377   5.912   2.238
40389W        W99892  12.208  26.999   2.747
40390W        W99893  44.350  23.606   3.853
40391W        W99894  21.215  19.629   1.881
40392W        W99895  16.746  22.034   2.669
40393W        W99896  29.138  27.044   3.163
40394W        W99897  17.721   2.388   0.253
40395W        W99898  11.790  28.106  13.355
40396W        W99899  34.116  28.070  11.122
40397W        W99900  31.481  35.369  10.468
40398W        W99901  36.060   0.494   3.297
40399W        W99902  12.348  26.560  13.041
40400W        W99903  39.992   7.416  13.947
40401W        W99904  14.137  39.440   2.727
40402W        W99905  34.054  40.309   1.911
40403W        W99906   6.734   3.348   2.215
40404W        W99907  27.047  39.940   1.775
40405W        W99908  37.442  18.752  11.578
40406W        W99909  12.703  43.308  11.127
40407W        W99910  26.494  15.716  14.385
40408W        W99911   9.838  36.936  12.361
40409W        W99912  28.453   3.809  12.485
40410W        W99913  28.051  17.631   3.845
40411W        W99914  22.723  44.816   4.269
40412W        W99915  12.257  32.039  14.872
40413W        W99916  10.381   8.901  13.002
40414W        W99917  21.512  33.388  14.386
40415W        W99918   2.963  28.964   4.275
40416W        W99919  24.632   1.832  14.382
40417W        W99920  31.523  26.152  12.069
40418W        W99921   8.231   9.649   1.318
40419W        W99922  29.945  18.243  11.120
40420W        W99923  36.574  27.044   2.366
40421W        W99924  26.691  13.827   0.341
40422W        W99925   0.865  42.813   3.689
40423W        W99926  16.134   9.388  12.054
40424W        W99927  39.315  42.292  10.623
40425W        W99928   8.675  12.310   0.282
40426W        W99929  15.100  14.233   1.258
40427W        W99930  28.946  17.746  12.395
40428W        W99931  11.709  43.849   4.186
40429W        W99932  36.940   1.799  12.384
40430W        W99933  42.906  22.526  13.541
40431W        W99934  30.991   8.815  13.835
40432W        W99935   5.862  20.630   2.853
40433W        W99936  33.001  40.997  11.511
40434W        W99937  13.621  29.629  11.083
40435W        W99938  41.511   1.916  13.041
40436W        W99939  10.276  39.876  14.431
40437W        W99940  10.700   0.957  13.518
40438W        W99941  24.608  25.061   4.749
40439W        W99942  27.477  12.334  10.568
40440W        W99943  11.702  35.476  12.075
40441W        W99944  11.670  14.113   2.202
40442W        W99945   5.257  33.577  11.973
40443W        W99946  29.496  40.035  12.076
40444W        W99947  23.524  16.191  11.437
40445W        W99948  30.618  35.463  12.451
40446W        W99949   8.702   9.744  12.408
40447W        W99950  43.879  31.914   1.393
40448W        W99951  19.236  16.152   3.212
40449W        W99952  15.241  30.106   0.779
40450W        W99953   1.237  22.161  11.104
40451W        W99954   9.739  29.616  13.036
40452W        W99955  43.903  34.874   4.147
40453W        W99956  15.137  32.987  13.810
40454W        W99957  38.565   2.346   1.340
40455W        W99958   7.897  29.657  14.773
40456W        W99959  42.442  44.437   2.412
40457W        W99960  41.528  22.200   0.959
40458W        W99961   6.838  15.124   1.847
40459W        W99962  16.100  35.894  14.020
40460W        W99963  12.210  17.187  13.480
40461W        W99964  29.055  20.198  13.994
40462W        W99965  18.226  18.739  10.918
40463W        W99966  30.971  12.189   3.722
40464W        W99967  29.547  14.115  13.007
40465W        W99968   2.900  30.933   3.380
40466W        W99969  26.487   1.970  12.409
40467W        W99970  26.697   8.672   4.346
40468W        W99971  13.728  25.474   0.849
40469W        W99972  35.914  23.993   0.429
40470W        W99973  10.721  34.439  12.066
40471W        W99974  24.108   7.863   0.874
40472W        W99975  21.745  28.002   2.291
40473W        W99976  15.303  26.509  10.585
40474W        W99977  35.066  16.685   3.722
40475W        W99978  29.564  27.562  13.809
40476W        W99979   7.692  44.940  14.805
40477W        W99980   9.765   7.195  10.560
40478W        W99981  10.767  38.568   2.412
40479W        W99982  37.491  29.452  13.438
40480W        W99983  39.472  19.599  12.987
40481W        W99984  17.576  27.452  14.961
40482W        W99985  44.883  17.179  12.504
40483W        W99986  24.580  39.018  12.450
40484W        W99987  40.889  15.822  11.944
40485W        W99988   7.395   9.774  14.912
40486W        W99989   5.914  19.753   1.274
40487W        W99990  33.595  37.357  11.874
40488W        W99991  31.955   7.683  12.424
40489W        W99992  17.672  23.693  13.064
40490W        W99993  40.823  29.667  10.443
40491W        W99994   4.388  24.205   3.220
40492W        W99995  21.511  25.065  13.020
40493W        W99996  43.437  25.989   1.707
40494W        W99997  36.565  28.973   5.251
40495W        W99998  33.476  43.475  12.426
40496W        W99999  11.308  40.419   3.746
40497W        W    0  35.590  38.022  13.946
40498W        W    1  18.752  33.980  12.017
40499W        W    2  28.492   3.892   0.440
40500W        W    3  17.213   3.269  12.499
40501W        W    4  21.092  41.943   4.254
40502W        W    5  21.660   8.268  13.021
40503W        W    6  21.039  27.085   3.648
40504W        W    7  32.013  11.807   4.288
40505W        W    8  16.589  10.154   4.319
40506W        W    9   5.773  43.855  14.980
40507W        W   10  13.293  13.336   4.777
40508W        W   11  41.368   2.302   1.913
40509W        W   12  38.887  33.946  12.996
40510W        W   13  44.289  21.023  13.410
40511W        W   14  15.727  30.645   3.829
40512W        W   15  20.136  37.975   2.300
40513W        W   16  26.599  27.500  12.398
40514W        W   17  34.593  12.157  11.559
40515W        W   18  21.543  25.044   1.277
40516W        W   19   5.364  25.468  14.903
40517W        W   20  20.257  11.247  11.595
40518W        W   21   8.796  34.106   3.243
40519W        W   22  43.961  31.536  10.416
40520W        W   23  11.161  30.970  14.004
40521W        W   24  40.871  30.077   2.366
40522W        W   25  39.385  35.959  11.599
40523W        W   26  29.018  28.491  11.930
40524W        W   27  13.186  14.095  13.906
40525W        W   28  43.932  11.157   3.748
40526W        W   29   2.349   6.808   1.219
40527W        W   30   7.713  34.065  13.021
40528W        W   31  29.948  15.713   1.727
40529W        W   32  23.142  41.893   3.277
40530W        W   33  42.790  27.024   4.168
40531W        W   34   9.810  33.386  13.357
40532W        W   35  29.021   6.276   0.276
40533W        W   36   9.220  24.152  10.442
40534W        W   37  34.534  37.436  14.332
40535W        W   38  25.649  43.407  11.071
40536W        W   39   2.344  40.376   4.311
40537W        W   40  17.199   7.291   4.173
40538W        W   41  42.836  14.733  13.061
40539W        W   42  29.929  36.562   4.777
40540W        W   43  21.750  39.849   1.368
40541W        W   44  41.450  13.193  14.373
40542W        W   45  21.053  43.932   2.229
40543W        W   46  21.745  32.413   2.766
40544W        W   47   1.763   2.303   1.375
40545W        W   48  27.458  12.139  13.356
40546W        W   49  15.799  30.566  11.061
40547W        W   50  30.024  39.500   2.661
40548W        W   51  34.994   2.805   1.302
40549W        W   52  37.979  16.677  11.984
40550W        W   53  27.994  37.396   2.722
40551W        W   54  10.818   7.193  11.612
40552W        W   55  15.664  42.355  13.317
40553W        W   56  21.237  30.132  11.984
40554W        W   57  22.601  29.030  12.067
40555W        W   58  44.347  32.081  10.432
40556W        W   59  43.984  14.687  13.031
40557W        W   60  17.188  41.895   4.318
40558W        W   61  18.707  22.648   3.150
40559W        W   62  19.180  24.716   3.840
40560W        W   63  15.295   0.438  13.830
40561W        W   64   7.236  15.116   0.336
40562W        W   65  35.578  25.079   1.855
40563W        W   66   8.742   0.850  13.503
40564W        W   67  13.279  42.472  13.319
40565W        W   68  17.647  39.393  14.904
40566W        W   69   6.815   2.907  11.864
40567W        W   70  26.196   5.291   2.677
40568W        W   71  24.017  37.868   1.933
40569W        W   72  17.294  30.579   3.167
40570W        W   73   3.423  10.181   2.209
40571W        W   74  13.683  25.541   4.197
40572W        W   75  34.928  33.488  13.458
40573W        W   76  22.713  11.134  10.899
40574W        W   77  21.726  32.068  11.945
40575W        W   78  10.190  40.915  10.968
40576W        W   79  19.658  28.630  11.464
40577W        W   80  10.291   2.740  11.389
40578W        W   81  12.849   4.445  10.982
40579W        W   82  24.140  16.646   2.856
40580W        W   83  19.118  17.647  14.771
40581W        W   84   3.221  30.923   2.201
40582W        W   85   1.383  27.608   2.396
40583W        W   86  39.327   4.241  14.759
40584W        W   87   6.397  38.365   1.853
40585W        W   88  14.681  17.779   0.304
40586W        W   89  39.406  25.510  13.056
40587W        W   90  17.197  35.485   3.151
40588W        W   91  12.219  19.607  10.476
40589W        W   92  22.573  27.618  12.566
40590W        W   93  33.038  28.473  11.021
40591W        W   94  26.649   4.210  10.129
40592W        W   95  20.243  17.120   4.224
40593W        W   96  26.570  41.841   2.240
40594W        W   97  32.435  18.613  14.970
40595W        W   98  43.377   2.444  12.401
40596W        W   99  33.926  19.582   2.220
40597W        W  100  25.499  30.005   0.962
40598W        W  101  19.544  12.834  12.931
40599W        W  102   6.863   4.928   3.821
40600W        W  103   5.747  41.936  13.945
40601W        W  104   1.364   6.300   0.945
40602W        W  105   2.792  39.827   3.831
40603W        W  106  31.618  35.073   4.713
40604W        W  107  10.786  44.441  12.506
40605W        W  108  18.712  37.530  14.875
40606W        W  109  25.615  34.042  10.587
40607W        W  110  27.514  36.449   1.260
40608W        W  111  18.559  25.215   4.117
40609W        W  112  28.640  32.428  13.389
40610W        W  113  34.593  36.479  11.574
40611W        W  114  31.147   3.723  11.031
40612W        W  115  44.447  35.584  14.905
40613W        W  116   1.260  12.320  13.315
40614W        W  117   3.289  44.841   1.734
40615W        W  118  35.045  26.481  12.459
40616W        W  119   5.223  41.864   2.376
40617W        W  120   4.250  37.336   1.407
40618W        W  121  37.384  26.464   3.353
40619W        W  122  13.660  42.344   0.733
40620W        W  123  17.262  13.246   0.411
40621W        W  124  28.059  18.589   0.779
40622W        W  125   7.171  36.405  13.538
40623W        W  126  33.623   2.233  13.007
40624W        W  127  32.943  29.110  14.279
40625W        W  128  43.903  40.307   0.306
40626W        W  129  19.236  17.678   0.965
40627W        W  130   5.789  32.034  12.413
40628W        W  131  41.415  33.051   0.936
40629W        W  132  35.046  13.744   3.286
40630W        W  133  19.692  21.541  14.842
40631W        W  134   1.395   1.364   4.341
40632W        W  135  34.529  36.359   3.162
40633W        W  136  15.140  26.123  11.591
40634W        W  137  41.013  18.630   3.290
40635W        W  138  43.397  17.571   4.721
40636W        W  139   4.849  37.468  13.008
40637W        W  140  39.471   7.751   0.265
40638W        W  141  22.210  13.255  10.638
40639W        W  142   1.905  35.440  14.954
40640W        W  143  37.485  21.718  14.789
40641W        W  144  29.047  30.077  13.345
40642W        W  145   9.166  12.317  11.375
40643W        W  146  27.581  19.128  14.363
40644W        W  147  39.487   8.819   5.223
40645W        W  148  22.606   7.282  13.359
40646W        W  149  15.729  40.009  11.426
40647W        W  150  41.983  38.832   0.392
40648W        W  151  44.431   1.308   1.794
40649W        W  152  32.455  24.575   0.346
40650W        W  153  43.460  18.277  11.484
40651W        W  154   6.806  32.021   3.825
40652W        W  155  29.071  22.679   3.241
40653W        W  156  19.535  40.801   4.723
40654W        W  157  42.452  21.027   2.854
40655W        W  158   2.920  18.744   0.288
40656W        W  159  32.891  26.516  14.963
40657W        W  160   1.410   1.931  13.951
40658W        W  161  11.319   1.471  12.405
40659W        W  162  25.660  17.278  14.928
40660W        W  163  18.127  21.108   2.902
40661W        W  164  39.552  23.066  11.465
40662W        W  165  29.458  10.651  12.505
40663W        W  166  19.173  13.717   1.439
40664W        W  167   0.387  37.373  14.931
40665W        W  168  23.115  38.063  13.798
40666W        W  169   2.276  10.258  13.984
40667W        W  170  14.205   1.431   0.955
40668W        W  171  10.294  35.503  14.801
40669W        W  172  17.288  41.477  10.074
40670W        W  173  10.814  36.484  14.795
40671W        W  174  25.499  15.296   0.339
40672W        W  175   5.708   0.252   4.729
40673W        W  176  19.093  21.628   2.687
40674W        W  177  33.899  39.049  10.894
40675W        W  178  20.040  17.768   0.825
40676W        W  179  12.275   8.662   4.782
40677W        W  180   8.226  44.419  14.776
40678W        W  181   6.206  11.743   2.242
40679W        W  182  10.838  37.537  13.460
40680W        W  183  20.088  24.512   4.338
40681W        W  184  22.088  13.268   4.261
40682W        W  185   5.410  18.156   1.271
40683W        W  186  41.475  15.294   2.885
40684W        W  187  41.789  22.103  12.967
40685W        W  188   4.306  27.024  13.498
40686W        W  189  15.255  20.701  11.426
40687W        W  190  36.544  18.647   4.228
40688W        W  191  23.986  31.937  12.063
40689W        W  192  18.632  29.004  12.885
40690W        W  193  43.356  30.637  11.986
40691W        W  194  41.927  25.209  12.071
40692W        W  195   4.709  33.402   1.883
40693W        W  196   4.324  14.225  12.891
40694W        W  197  21.077  36.523   2.193
40695W        W  198  38.841  24.622  12.923
40696W        W  199   4.873  30.072   9.520
40697W        W  200  11.682  35.858   0.835
40698W        W  201  17.067  35.944  13.025
40699W        W  202  16.629  16.291  14.374
40700W        W  203  25.008   5.344  11.529
40701W        W  204  16.729  14.094   5.172
40702W        W  205  24.119  40.498  13.880
40703W        W  206  21.214  37.933  14.808
40704W        W  207  40.929   3.272  14.765
40705W        W  208  39.470  30.576   4.219
40706W        W  209  38.912  28.037   3.747
40707W        W  210  23.993   8.737  13.467
40708W        W  211  43.857  15.763  13.001
40709W        W  212  28.456  12.633  11.384
40710W        W  213   1.377  33.056   2.720
40711W        W  214  35.039   5.777   1.382
40712W        W  215  28.490   2.261  13.363
40713W        W  216  16.597  29.018   3.730
40714W        W  217  34.474  42.371   4.314
40715W        W  218  30.645  29.498  11.115
40716W        W  219  43.404  19.281  11.901
40717W        W  220  39.403  13.314  14.900
40718W        W  221  12.747  31.101  13.884
40719W        W  222  40.864  15.654  10.958
40720W        W  223  29.540  21.218   0.261
40721W        W  224  40.024  38.392   3.358
40722W        W  225  32.460  37.843  13.413
40723W        W  226  37.352  26.201  14.914
40724W        W  227  21.744  13.805   3.155
40725W        W  228   5.830   1.439   3.361
40726W        W  229  27.992  23.633  10.145
40727W        W  230  27.178  44.319   4.750
40728W        W  231  31.093   2.272  14.502
40729W        W  232  40.505  20.053   1.439
40730W        W  233  12.123   2.775  14.761
40731W        W  234  27.645   2.382  12.967
40732W        W  235   9.165   7.716   0.434
40733W        W  236  30.142  32.053   0.944
40734W        W  237   5.289  11.796  14.308
40735W        W  238  28.597  24.524   0.955
40736W        W  239  10.175  29.144   2.390
40737W        W  240  30.130   7.861   3.273
40738W        W  241  12.127   3.299   1.407
40739W        W  242  21.706  23.706   0.947
40740W        W  243  14.257  24.070   3.711
40741W        W  244  38.067  15.174   0.367
40742W        W  245   0.448  12.200   1.253
40743W        W  246  29.161  40.920  14.775
40744W        W  247  29.600  10.868   1.754
40745W        W  248  27.194  10.642  14.365
40746W        W  249  36.390  15.600   2.736
40747W        W  250   3.937   9.389  14.513
40748W        W  251  30.140  33.035  11.981
40749W        W  252   5.397  21.697   4.234
40750W        W  253  44.503   1.296  11.561
40751W        W  254  22.581  33.451  12.889
40752W        W  255  28.940  34.604  10.126
40753W        W  256  23.503  42.954  10.526
40754W        W  257   0.960  43.922  13.059
40755W        W  258  16.625  15.785   4.353
40756W        W  259  18.088  14.723  14.354
40757W        W  260  21.736  21.719  11.611
40758W        W  261  12.313   1.769  14.973
40759W        W  262  30.466   7.391   3.721
40760W        W  263  12.727  30.499   1.842
40761W        W  264  22.209  43.987   1.350
40762W        W  265  21.675  23.225  10.446
40763W        W  266  35.016  22.228   4.621
40764W        W  267  10.220  33.895   1.785
40765W        W  268  27.183  33.969   2.270
40766W        W  269  29.166   0.460   2.850
40767W        W  270  14.730  29.547  14.807
40768W        W  271  34.375  35.373  14.968
40769W        W  272  25.666  29.549   4.826
40770W        W  273  26.142   7.386   2.902
40771W        W  274  23.023   0.753  14.406
40772W        W  275  20.221  34.437  11.103
40773W        W  276  21.163  30.014   4.347
40774W        W  277   8.730  10.317   2.719
40775W        W  278   3.834   5.363  11.957
40776W        W  279  22.565   4.413   1.311
40777W        W  280  17.640  29.643   3.739
40778W        W  281  24.541  13.296   4.739
40779W        W  282   5.411   7.866  14.818
40780W        W  283  23.524  25.989   2.667
40781W        W  284  42.821  43.968   1.846
40782W        W  285  20.560  40.420  11.966
40783W        W  286  14.799  34.978   4.291
40784W        W  287  43.851  38.912   1.298
40785W        W  288  35.598  42.431  13.054
40786W        W  289  41.909  32.917   3.866
40787W        W  290  26.475  15.141   3.249
40788W        W  291  25.467  23.525   3.767
40789W        W  292  10.199  20.580  13.372
40790W        W  293  43.402   2.952   0.729
40791W        W  294  33.015   0.801  10.503
40792W        W  295  35.412  40.441   0.801
40793W        W  296  36.883  38.345   2.265
40794W        W  297  24.048  39.418   0.872
40795W        W  298  23.031  25.556   1.917
40796W        W  299  44.294  18.067   2.839
40797W        W  300  32.068  31.613   3.745
40798W        W  301  37.973  12.810  10.485
40799W        W  302   3.361  38.524   1.401
40800W        W  303  37.540   1.950   3.773
40801W        W  304   0.490  17.189   3.363
40802W        W  305   8.183  14.302  12.885
40803W        W  306   6.758  15.297   1.335
40804W        W  307   1.413  35.045  11.097
40805W        W  308   9.775  33.902   0.865
40806W        W  309  31.428  25.605  11.596
40807W        W  310  25.049   7.795   2.320
40808W        W  311  35.973  35.557  11.005
40809W        W  312  15.255   8.327   4.186
40810W        W  313  33.512   3.270   3.385
40811W        W  314  27.682  27.090  11.014
40812W        W  315   7.393  19.077  10.985
40813W        W  316   2.460  24.570   0.733
40814W        W  317  27.168  26.598  10.481
40815W        W  318   7.238   9.233  13.838
40816W        W  319  15.149  30.605   1.371
40817W        W  320   7.210  34.940   4.232
40818W        W  321  12.211  29.098  13.013
40819W        W  322  14.716  10.862  12.409
40820W        W  323  44.972   5.856  13.479
40821W        W  324  42.011  15.116  13.838
40822W        W  325   5.255  33.605  11.396
40823W        W  326  41.490  39.868  14.941
40824W        W  327  41.003   4.431  10.983
40825W        W  328  11.674  34.485  12.926
40826W        W  329  38.874   7.333   0.925
40827W        W  330  10.790  23.531   3.174
40828W        W  331  31.147   3.818  14.478
40829W        W  332  33.891  24.135   0.964
40830W        W  333  19.180  10.299  13.323
40831W        W  334  13.710  28.954   1.245
40832W        W  335  10.844  12.820  10.120
40833W        W  336   6.414  41.422  13.503
40834W        W  337  13.264   6.913   3.305
40835W        W  338  44.941  25.712   4.117
40836W        W  339   5.919  13.313   0.268
40837W        W  340   2.316  25.073  10.606
40838W        W  341  16.303  41.906   2.755
40839W        W  342  31.906  43.898  12.545
40840W        W  343  27.059  15.269  10.523
40841W        W  344  16.784   7.402   2.763
40842W        W  345  21.109  19.586  14.435
40843W        W  346  10.314  21.525   3.326
40844W        W  347  18.251  29.435   4.643
40845W        W  348   4.272  19.271  13.519
40846W        W  349  19.757  33.516   1.865
40847W        W  350  10.807   4.224  14.490
40848W        W  351  20.116   2.397   4.631
40849W        W  352  37.498   2.926  10.541
40850W        W  353  28.934  16.757  13.808
40851W        W  354  23.238  34.069  14.922
40852W        W  355   2.785   4.301   4.240
40853W        W  356  17.100  27.971   0.253
40854W        W  357  43.836  33.021   0.742
40855W        W  358  29.996   1.269  12.997
40856W        W  359   0.281  34.001   1.282
40857W        W  360  28.625  15.113  13.893
40858W        W  361   6.276   9.888  11.088
40859W        W  362   9.210  30.610   4.229
40860W        W  363   6.225  39.462   0.417
40861W        W  364  29.963   7.837   2.195
40862W        W  365   2.388   9.660  11.500
40863W        W  366  31.896   0.430  12.937
40864W        W  367  17.731  33.495  13.927
40865W        W  368  40.370  41.442   4.656
40866W        W  369  23.498  17.709  12.440
40867W        W  370  13.122  43.306  12.397
40868W        W  371  22.724  40.532  12.575
40869W        W  372   0.387  40.852   1.354
40870W        W  373  28.551   4.315   2.342
40871W        W  374  36.413   0.834  12.425
40872W        W  375   5.900   6.800   0.948
40873W        W  376  38.487  25.622   1.861
40874W        W  377   3.253  15.723  11.033
40875W        W  378  18.594   4.325   3.357
40876W        W  379  38.950  33.895   3.662
40877W        W  380  10.696   5.904   2.889
40878W        W  381  30.421  23.194  12.994
40879W        W  382  38.445  30.933   0.810
40880W        W  383  22.620  33.438   3.704
40881W        W  384  19.124  13.307   3.172
40882W        W  385  23.570  38.345   0.781
40883W        W  386  31.007  32.029   4.131
40884W        W  387  39.518  23.733   0.957
40885W        W  388  43.948  18.568  10.117
40886W        W  389   2.389  11.805   2.799
40887W        W  390  29.499  36.462  13.419
40888W        W  391  25.128  26.032   3.302
40889W        W  392  11.226  34.081  13.821
40890W        W  393  41.333  20.626  13.892
40891W        W  394  21.534   2.886   3.253
40892W        W  395  18.075  28.663   3.759
40893W        W  396  38.973  22.011  12.362
40894W        W  397  12.229   6.871  12.902
40895W        W  398  31.512  38.034  13.052
40896W        W  399   1.919  18.659   0.907
40897W        W  400   3.345   3.315  14.401
40898W        W  401  23.491  15.766   3.284
40899W        W  402   6.737  19.710   2.348
40900W        W  403   3.799  43.348   2.721
40901W        W  404   5.766  16.752   2.827
40902W        W  405  19.727   2.944   2.705
40903W        W  406  22.606  17.768   4.193
40904W        W  407  18.280   2.311   0.922
40905W        W  408  12.223  25.111   1.403
40906W        W  409  32.925  39.487  13.525
40907W        W  410  30.979   8.217   0.343
40908W        W  411  42.428   1.957  13.363
40909W        W  412  34.041  32.031   4.272
40910W        W  413  22.554  22.721  11.997
40911W        W  414  21.075  44.381  11.437
40912W        W  415   9.188  22.010  11.513
40913W        W  416  31.449  31.926  11.077
40914W        W  417  33.950  32.446   2.311
40915W        W  418  38.355  19.659   0.400
40916W        W  419  17.677   9.880  12.578
40917W        W  420  38.835  42.001   3.670
40918W        W  421  41.361   3.887   4.132
40919W        W  422   2.300  11.825  14.416
40920W        W  423  13.805  20.184  13.333
40921W        W  424  26.965   5.383   4.273
40922W        W  425   4.859  34.101   1.860
40923W        W  426  37.396  24.553  10.990
40924W        W  427   5.857  12.819   2.334
40925W        W  428  15.645  28.590   1.305
40926W        W  429  42.915  32.094  14.493
40927W        W  430  41.347  27.551   0.937
40928W        W  431  31.567  10.811  11.912
40929W        W  432   8.864  12.275   3.146
40930W        W  433  44.455  27.567   3.152
40931W        W  434  44.909  38.993   1.727
40932W        W  435  23.182  38.074   3.386
40933W        W  436  35.894  42.001  12.896
40934W        W  437  12.680  34.071   1.746
40935W        W  438   9.726   7.704   3.675
40936W        W  439   8.793   0.289   0.443
40937W        W  440  33.537  38.892  13.992
40938W        W  441  20.157  13.804  13.422
40939W        W  442   2.791  23.026  14.968
40940W        W  443  20.695  35.071  10.903
40941W        W  444  15.814  37.945   4.717
40942W        W  445   8.402   3.760  14.402
40943W        W  446  18.289  26.485  13.504
40944W        W  447  29.424   9.796   0.382
40945W        W  448  13.662  14.616   4.741
40946W        W  449  12.743  27.022   4.247
40947W        W  450  38.857  43.413   3.795
40948W        W  451  25.216  36.480   2.197
40949W        W  452  13.295  10.662  12.957
40950W        W  453  38.400   0.481  10.454
40951W        W  454  42.348  27.166   3.632
40952W        W  455  38.378  20.525   3.263
40953W        W  456  23.670  11.805  14.356
40954W        W  457  40.889   5.696  11.121
40955W        W  458  13.817  22.504  14.297
40956W        W  459  25.026  12.823   0.827
40957W        W  460   8.836  17.621   4.168
40958W        W  461   7.719  29.166   3.286
40959W        W  462   5.755   8.715  12.351
40960W        W  463   8.874  21.745   1.749
40961W        W  464  42.392   1.862   4.755
40962W        W  465   8.798  20.660   0.456
40963W        W  466  29.061  11.229   1.877
40964W        W  467   0.935  40.432  14.800
40965W        W  468  17.175  11.160   2.326
40966W        W  469  15.628  10.815  10.414
40967W        W  470  24.194  44.437  10.913
40968W        W  471  33.048  30.479  14.281
40969W        W  472  28.101  11.767  12.834
40970W        W  473  25.200  21.151   2.786
40971W        W  474  13.291  40.834  12.545
40972W        W  475  24.225  23.214  12.862
40973W        W  476  21.256  38.421   3.221
40974W        W  477  11.829  41.994  14.898
40975W        W  478  34.514  41.351   2.319
40976W        W  479   2.333   9.725   4.618
40977W        W  480   4.446   1.460  13.387
40978W        W  481  23.566   7.355  12.075
40979W        W  482  23.566  28.487  10.423
40980W        W  483  28.633  20.583   4.212
40981W        W  484  38.522  26.543  14.446
40982W        W  485  25.545   2.356  11.989
40983W        W  486  38.948  34.574   3.349
40984W        W  487  32.600   3.375   4.125
40985W        W  488  22.701  41.410   4.597
40986W        W  489  18.271  28.673   0.837
40987W        W  490  32.904   1.830   2.360
40988W        W  491  31.416  10.191   3.240
40989W        W  492  18.248   2.455   3.194
40990W        W  493  34.450  16.299  10.578
40991W        W  494  44.820  20.573   0.307
40992W        W  495   3.386   2.872   4.803
40993W        W  496  32.904  11.211   0.794
40994W        W  497   3.417   0.985  10.990
40995W        W  498   7.329  28.044  14.030
40996W        W  499  38.864  29.028   1.415
40997W        W  500   0.470   8.860  11.603
40998W        W  501  21.729  28.032   2.713
40999W        W  502   2.773  19.633   0.839
41000W        W  503   6.279  11.225  14.864
41001W        W  504   0.758   4.403   4.683
41002W        W  505  24.529  15.823   3.310
41003W        W  506  10.656  37.448   4.610
41004W        W  507  36.579  17.791   4.138
41005W        W  508  38.526  30.946  13.795
41006W        W  509  13.145  39.471  13.321
41007W        W  510  11.841  35.598   4.223
41008W        W  511  27.536  40.376   3.787
41009W        W  512  19.205  37.473  12.030
41010W        W  513  32.965   1.446  13.021
41011W        W  514  43.322  10.373  14.836
41012W        W  515  30.026  25.623  11.078
41013W        W  516  38.406  14.221  10.910
41014W        W  517   6.856  24.653  13.488
41015W        W  518  42.914   2.802   2.780
41016W        W  519  24.189  39.923  14.986
41017W        W  520  21.657  25.535  12.003
41018W        W  521  25.705   4.313   4.155
41019W        W  522  31.476  16.278   1.888
41020W        W  523  11.745  10.641  14.333
41021W        W  524  34.441  18.146  12.499
41022W        W  525  16.136  35.951  10.588
41023W        W  526  21.194  12.678  10.967
41024W        W  527   6.793  23.229   0.950
41025W        W  528  26.979  32.965  11.471
41026W        W  529  42.831  44.332  10.448
41027W        W  530   3.883  34.904   2.221
41028W        W  531  14.339  36.464   0.272
41029W        W  532  41.979  34.083   1.247
41030W        W  533   0.749  39.945  14.881
41031W        W  534   8.171  13.600  14.978
41032W        W  535  36.084  16.707  12.838
41033W        W  536  25.073  14.597  13.901
41034W        W  537  24.580   5.310   0.854
41035W        W  538  15.137  30.530   1.872
41036W        W  539   0.752  27.490  13.510
41037W        W  540  20.110   4.700  14.832
41038W        W  541  15.117  12.699   1.931
41039W        W  542   4.292  33.005  14.430
41040W        W  543  26.988   0.306  12.942
41041W        W  544  25.689  43.332   1.286
41042W        W  545  14.760  11.242   4.728
41043W        W  546  32.466   5.218  11.553
41044W        W  547  30.440  42.998  11.013
41045W        W  548   4.220  43.977   2.748
41046W        W  549  37.951  15.736   0.479
41047W        W  550  26.515  17.637   0.356
41048W        W  551  43.966  19.184  11.603
41049W        W  552  42.958  43.376  11.874
41050W        W  553  11.139   9.275  11.476
41051W        W  554  30.588  30.123   5.310
41052W        W  555  32.939  20.237  11.119
41053W        W  556  31.630  23.612   2.234
41054W        W  557  10.230   1.755  14.420
41055W        W  558   4.378  17.789  12.862
41056W        W  559  29.551  29.010  12.983
41057W        W  560  15.258  22.184  14.877
41058W        W  561  21.045  14.744  10.986
41059W        W  562  21.751  24.198  13.327
41060W        W  563  10.183   7.259  13.540
41061W        W  564   2.761  33.957  10.425
41062W        W  565  19.534  36.545  13.339
41063W        W  566  25.702  18.618   1.267
41064W        W  567  23.605  14.270   0.306
41065W        W  568  21.136  34.505   3.821
41066W        W  569  10.225  14.808   3.841
41067W        W  570  31.490  14.726  12.420
41068W        W  571   0.381  39.011   1.428
41069W        W  572  10.684  24.027   0.467
41070W        W  573  21.167   4.355   2.310
41071W        W  574  29.995  17.586  10.592
41072W        W  575  31.433  35.529   9.632
41073W        W  576  27.454   8.201   2.299
41074W        W  577   6.245  38.063  11.873
41075W        W  578  40.816  32.050   0.290
41076W        W  579  43.497  28.025   0.245
41077W        W  580  22.543  32.540  14.431
41078W        W  581  15.683  35.601  13.411
41079W        W  582  26.107   7.795  13.979
41080W        W  583   2.960   0.747   0.321
41081W        W  584  38.975  21.614   3.695
41082W        W  585   5.233  29.458  14.980
41083W        W  586  30.082   1.320   2.795
41084W        W  587  12.621  12.166   1.348
41085W        W  588  15.777  13.659   1.210
41086W        W  589  23.015  17.697   3.237
41087W        W  590  15.147   1.270   3.234
41088W        W  591  30.649   7.895   0.472
41089W        W  592  44.303   2.314  13.830
41090W        W  593  40.904   1.327  14.758
41091W        W  594  31.598  25.702  12.428
41092W        W  595  37.540  27.060  13.500
41093W        W  596  35.495  11.679   0.462
41094W        W  597   7.332  26.554   4.760
41095W        W  598   5.806   2.800   4.337
41096W        W  599   4.821  16.240  12.933
41097W        W  600  42.927  30.586   2.275
41098W        W  601  31.064  10.322   0.417
41099W        W  602  32.143  38.465  14.809
41100W        W  603  42.404  21.715  12.998
41101W        W  604   2.314  41.404  12.440
41102W        W  605  37.506  42.375   4.258
41103W        W  606  40.916   4.742   2.266
41104W        W  607  13.612  19.134   2.383
41105W        W  608  28.673  19.123   4.639
41106W        W  609  38.994  32.614  13.395
41107W        W  610  19.191  28.569  11.406
41108W        W  611  40.538  11.305  14.885
41109W        W  612   8.188  31.482   2.897
41110W        W  613   3.746   3.873   2.857
41111W        W  614  16.186   8.748  13.515
41112W        W  615  16.787   8.367  13.333
41113W        W  616  41.808  14.219  13.425
41114W        W  617  16.196  14.826  11.541
41115W        W  618   8.311  32.458  14.401
41116W        W  619  33.901  32.074  12.476
41117W        W  620  32.128   5.781   1.790
41118W        W  621  31.052  42.955  14.880
41119W        W  622   5.859  17.238  13.531
41120W        W  623  39.974  22.243  12.388
41121W        W  624  23.661  34.570   0.739
41122W        W  625  28.031   8.862   3.234
41123W        W  626   4.785   6.239   4.256
41124W        W  627   0.915  42.930  11.907
41125W        W  628  42.318   7.378   4.297
41126W        W  629   6.266  26.991   9.974
41127W        W  630  11.309   4.813   4.333
41128W        W  631  19.742   7.731  13.866
41129W        W  632  44.422  38.996  14.481
41130W        W  633  34.571  21.035  13.807
41131W        W  634   7.797  38.887  13.401
41132W        W  635  36.543  31.633  11.590
41133W        W  636  17.191  37.368  10.072
41134W        W  637  31.635   7.411  10.431
41135W        W  638   7.336  12.338  12.954
41136W        W  639  28.636  31.986  14.960
41137W        W  640  38.531  13.251  10.936
41138W        W  641  17.233   7.414   4.762
41139W        W  642   9.227  18.084  13.905
41140W        W  643  33.062  39.911   3.736
41141W        W  644  11.807  24.609   1.228
41142W        W  645   9.802   7.770   3.199
41143W        W  646  25.476  12.776   3.281
41144W        W  647  23.141  11.136   0.855
41145W        W  648  21.127  15.122  11.924
41146W        W  649  12.751   8.222   4.790
41147W        W  650   6.747  12.291   1.873
41148W        W  651  26.994  39.050   3.288
41149W        W  652  26.478  44.826  12.511
41150W        W  653  21.146  24.202  11.585
41151W        W  654  35.086  37.502  11.520
41152W        W  655  27.995  34.441  14.345
41153W        W  656   6.718  31.013  11.078
41154W        W  657   7.225  19.760   3.324
41155W        W  658  35.602  36.481   0.430
41156W        W  659   3.932  30.959  11.558
41157W        W  660   8.169  18.755   4.680
41158W        W  661  35.941  26.524  11.038
41159W        W  662  21.664   5.406   0.458
41160W        W  663  34.008  27.463   0.844
41161W        W  664   7.823  19.190  13.038
41162W        W  665   0.884  14.339   0.442
41163W        W  666  21.662  11.671   0.737
41164W        W  667  14.683  11.359   1.715
41165W        W  668   7.879   1.797   3.293
41166W        W  669   7.356  33.565  14.436
41167W        W  670  14.788   1.780   3.801
41168W        W  671  33.384   2.733   0.286
41169W        W  672  25.516  39.826   2.244
41170W        W  673  28.077  36.887   4.169
41171W        W  674  36.013  33.468  13.494
41172W        W  675  11.215  33.026  13.054
41173W        W  676  43.822   2.387   0.905
41174W        W  677  25.535  26.039  14.322
41175W        W  678  39.548  40.425   0.412
41176W        W  679  36.078  38.854   3.782
41177W        W  680  12.343   3.897  13.376
41178W        W  681  17.194  36.898  14.404
41179W        W  682  43.915  34.566  12.031
41180W        W  683  42.868  24.684   0.329
41181W        W  684   2.782  35.479   3.794
41182W        W  685  43.795  19.049  13.396
41183W        W  686  27.622  37.505   3.153
41184W        W  687   5.759  39.549   4.250
41185W        W  688   1.808  40.980   1.725
41186W        W  689   4.900  39.379   2.292
41187W        W  690  32.935  10.778  12.508
41188W        W  691  31.943  30.929  14.847
41189W        W  692  25.999  35.511   4.753
41190W        W  693  31.536  37.365  11.901
41191W        W  694   6.827   0.260   5.584
41192W        W  695   9.678  44.982   3.350
41193W        W  696  26.511  20.612   3.291
41194W        W  697  44.895   6.366  14.017
41195W        W  698  12.286  44.458  13.042
41196W        W  699  33.001  27.984   4.239
41197W        W  700   0.459  17.232  11.524
41198W        W  701  26.625   8.184  14.018
41199W        W  702  32.483  17.288  14.515
41200W        W  703  23.109  43.007   2.256
41201W        W  704  32.524  19.708   4.728
41202W        W  705  28.609   8.703   0.296
41203W        W  706   5.289   7.403  13.543
41204W        W  707  35.448  34.946  14.964
41205W        W  708  34.392  43.399   2.234
41206W        W  709  36.376  34.870  14.021
41207W        W  710  33.441  12.127  11.536
41208W        W  711  22.746  28.550   4.235
41209W        W  712  12.133  19.102  10.449
41210W        W  713   4.827  17.249  14.951
41211W        W  714  10.291  32.609  12.047
41212W        W  715  11.307  35.393  12.912
41213W        W  716  18.112  37.370  13.063
41214W        W  717  36.082  23.615  13.844
41215W        W  718  21.058  19.185   1.399
41216W        W  719  23.645  43.332   4.212
41217W        W  720  44.483  43.274  12.375
41218W        W  721   6.735  13.730  14.898
41219W        W  722  21.738  20.120  13.335
41220W        W  723  41.394  20.741   2.822
41221W        W  724   5.428  17.656   4.179
41222W        W  725  16.096  38.979   3.820
41223W        W  726   0.263   3.308  13.368
41224W        W  727  42.975  20.595   1.419
41225W        W  728  44.880  41.334   4.779
41226W        W  729  33.413  19.605   1.372
41227W        W  730   7.184  37.512  14.901
41228W        W  731  23.645   2.735  13.320
41229W        W  732   2.401  31.598   1.888
41230W        W  733   7.694  28.457  13.999
41231W        W  734   0.954   6.716  10.420
41232W        W  735  36.976  40.863  13.514
41233W        W  736  32.517   9.818  11.958
41234W        W  737  35.450  37.392   0.926
41235W        W  738  18.565  30.570  14.319
41236W        W  739  12.118  17.145   2.847
41237W        W  740  29.520  32.575   0.726
41238W        W  741  44.365  15.163   0.373
41239W        W  742  38.369  12.189   1.780
41240W        W  743  38.428  35.418  12.479
41241W        W  744  25.686  30.651  10.122
41242W        W  745   1.337  30.546  11.910
41243W        W  746  37.460  32.434   0.435
41244W        W  747   3.461   6.805   2.269
41245W        W  748   5.846  20.103   3.161
41246W        W  749   9.671  42.429   4.207
41247W        W  750   3.770  16.753  14.955
41248W        W  751  17.800  31.409   0.814
41249W        W  752  44.315  35.938   3.304
41250W        W  753  37.955  39.549  10.617
41251W        W  754  12.826  12.265  11.457
41252W        W  755  12.194  31.645  10.532
41253W        W  756  12.804   6.408   1.876
41254W        W  757   6.352  42.335  13.537
41255W        W  758  29.606  23.554  14.015
41256W        W  759  28.161   8.203   0.755
41257W        W  760   4.702   1.828   1.430
41258W        W  761  15.823  18.238  14.498
41259W        W  762   6.253   4.701   4.694
41260W        W  763  17.150   8.730   1.355
41261W        W  764   8.367   9.378  14.312
41262W        W  765  24.543  33.386   3.225
41263W        W  766  39.504  19.698  12.425
41264W        W  767  37.429  37.579   2.777
41265W        W  768  27.626  43.953   4.190
41266W        W  769  35.563  28.012  11.930
41267W        W  770   3.822  15.752   3.790
41268W        W  771  20.641  32.093   1.821
41269W        W  772  13.721  43.507   0.337
41270W        W  773  37.438  42.006  10.546
41271W        W  774  28.121  24.518  14.976
41272W        W  775  11.340  18.286  14.441
41273W        W  776  11.625  10.643   4.157
41274W        W  777  43.996  38.325   1.769
41275W        W  778  26.497  10.246   1.227
41276W        W  779  20.566  22.057  13.389
41277W        W  780   3.773  34.093  10.921
41278W        W  781  32.000   9.847   0.846
41279W        W  782  35.604   5.432   9.506
41280W        W  783   4.227   1.827  10.537
41281W        W  784  11.165  41.032  11.116
41282W        W  785   6.897  20.627  13.338
41283W        W  786  40.463   0.944   0.460
41284W        W  787  22.598  11.186  12.362
41285W        W  788  20.578  20.058  12.899
41286W        W  789   0.487  24.985   5.728
41287W        W  790  29.101  22.996   4.597
41288W        W  791  21.566  41.862   1.735
41289W        W  792  31.624  15.233  13.899
41290W        W  793  37.860  28.024   2.669
41291W        W  794  20.555  41.456  10.494
41292W        W  795  42.310  26.519   3.815
41293W        W  796  44.975  13.814   4.805
41294W        W  797   9.253  40.357   2.297
41295W        W  798  19.549  33.009   2.240
41296W        W  799  18.239  24.673   3.735
41297W        W  800   7.302  21.564  13.018
41298W        W  801   1.841  13.786   0.342
41299W        W  802   7.199   0.371   0.798
41300W        W  803  21.201  18.219   4.211
41301W        W  804  43.440  10.318   3.308
41302W        W  805  31.080  43.812  14.862
41303W        W  806  16.803   0.482  14.002
41304W        W  807   0.969   3.865   3.181
41305W        W  808  13.844   5.293   0.436
41306W        W  809  23.713   1.386  12.052
41307W        W  810  12.281  34.987   9.541
41308W        W  811  34.612  23.638  10.485
41309W        W  812  18.096  41.507  14.933
41310W        W  813   4.281   6.241  14.794
41311W        W  814  37.929  23.630  13.992
41312W        W  815  11.836   4.714  11.596
41313W        W  816  39.812  24.525  10.981
41314W        W  817  43.851   5.805  12.415
41315W        W  818  13.130  29.987   3.209
41316W        W  819   8.353   0.402   3.368
41317W        W  820  12.273   2.728  10.895
41318W        W  821  23.043  25.204  11.412
41319W        W  822  37.920  21.261  11.578
41320W        W  823  18.706  36.916  11.507
41321W        W  824   7.272  21.221  12.536
41322W        W  825  27.553  30.003  13.334
41323W        W  826  17.653  29.110  11.956
41324W        W  827  38.064  12.164   3.722
41325W        W  828   0.345  37.074   0.960
41326W        W  829  38.833  37.577   2.744
41327W        W  830  43.516  26.953   2.306
41328W        W  831  21.233  17.293  10.542
41329W        W  832  30.487  31.085  14.287
41330W        W  833  25.032   5.322   2.271
41331W        W  834  34.924   9.267   2.350
41332W        W  835  37.065   9.301  13.992
41333W        W  836  17.575  26.527   0.258
41334W        W  837  22.529  39.448  12.966
41335W        W  838  44.976  28.022   3.292
41336W        W  839  15.178  29.530  14.484
41337W        W  840   6.767  35.866  11.529
41338W        W  841   4.759   3.788  12.858
41339W        W  842  10.151   9.362  12.865
41340W        W  843  30.035   2.945   0.947
41341W        W  844   2.264  30.074  11.006
41342W        W  845  19.718  41.351  11.590
41343W        W  846  24.587  26.701  13.897
41344W        W  847  30.607  10.262   0.418
41345W        W  848  38.511  26.966  14.826
41346W        W  849  23.643  39.813   4.718
41347W        W  850  13.628  11.359   3.211
41348W        W  851  18.100  24.717  12.972
41349W        W  852  38.405  43.487   2.274
41350W        W  853  20.752  18.120  11.460
41351W        W  854  19.178  30.135   4.633
41352W        W  855  41.961  37.408   5.136
41353W        W  856   9.250  37.995   4.748
41354W        W  857   0.869  14.639  12.531
41355W        W  858  10.678  30.474   1.878
41356W        W  859  15.815   0.387  10.574
41357W        W  860  43.876  32.588   1.813
41358W        W  861  20.564  18.204   2.407
41359W        W  862   8.252  36.996   0.954
41360W        W  863   7.310  41.876   0.963
41361W        W  864  38.069  20.217   2.892
41362W        W  865  27.956   2.281  12.087
41363W        W  866  43.364  18.121   0.740
41364W        W  867  43.795  24.606   3.376
41365W        W  868  39.433   0.836   0.787
41366W        W  869  35.426  44.272  14.973
41367W        W  870  21.747  38.045   3.254
41368W        W  871  31.035  11.637   3.742
41369W        W  872  28.620  12.331  13.020
41370W        W  873  17.752  33.049   1.394
41371W        W  874  42.460   5.706  10.435
41372W        W  875  40.356  32.130   2.335
41373W        W  876   2.724  42.804  11.966
41374W        W  877   0.487  25.501   2.349
41375W        W  878  41.362  39.510  11.470
41376W        W  879  44.009  23.562   0.817
41377W        W  880  32.439  17.130   1.437
41378W        W  881  30.039  39.875   4.206
41379W        W  882  40.536  36.357   3.706
41380W        W  883  12.201  15.819   0.454
41381W        W  884  39.480  20.605   4.688
41382W        W  885  22.528  15.255   1.760
41383W        W  886  39.525  10.336   0.859
41384W        W  887  14.612   1.301   2.344
41385W        W  888  17.154   5.850   3.250
41386W        W  889  12.139  36.987   0.772
41387W        W  890  12.625  40.320  12.088
41388W        W  891  12.239  35.538  12.097
41389W        W  892  25.187  15.082  10.507
41390W        W  893  26.179  16.754   4.196
41391W        W  894  29.640  16.652   9.979
41392W        W  895  38.029  25.192   3.827
41393W        W  896  40.499  19.695   1.934
41394W        W  897  30.646  16.654  14.828
41395W        W  898  24.075   0.309   2.198
41396W        W  899  13.109  24.982   3.749
41397W        W  900   0.894  12.130   2.414
41398W        W  901  44.783  33.890  12.576
41399W        W  902  36.954  32.499   4.695
41400W        W  903  16.098  38.384   1.749
41401W        W  904  18.205  21.669   0.739
41402W        W  905  21.047   9.841  13.951
41403W        W  906  44.874  29.029   3.645
41404W        W  907  19.623  11.854  10.453
41405W        W  908  20.651  35.971   3.204
41406W        W  909  31.150  26.609   3.244
41407W        W  910  35.000  31.550   0.319
41408W        W  911   1.366  27.646   0.447
41409W        W  912  36.429  41.810   5.202
41410W        W  913  42.462   5.324   3.218
41411W        W  914  13.156  41.483   1.393
41412W        W  915  31.081   4.336  13.037
41413W        W  916   1.733  37.911  12.352
41414W        W  917  16.790   2.326   0.774
41415W        W  918   3.759  22.580   3.841
41416W        W  919   2.412  36.380   0.884
41417W        W  920  33.053  14.615  11.552
41418W        W  921  28.533  33.436   3.835
41419W        W  922  44.311   2.264   1.824
41420W        W  923  19.150  14.181  11.597
41421W        W  924  34.034   2.409  10.512
41422W        W  925  29.137  25.664   3.717
41423W        W  926   2.876  14.710  14.859
41424W        W  927  32.118   4.338  12.551
41425W        W  928  12.220  42.810  12.826
41426W        W  929   4.898  32.628   1.902
41427W        W  930  20.621  19.669   1.301
41428W        W  931  19.591  11.179   1.322
41429W        W  932   7.364  14.308   2.286
41430W        W  933  11.253  19.275  13.988
41431W        W  934  17.168  38.879  13.046
41432W        W  935  18.714  39.466  11.430
41433W        W  936  15.220   6.263   2.243
41434W        W  937   7.384  14.786  12.052
41435W        W  938   9.739  26.518   2.893
41436W        W  939  22.037  39.474   1.396
41437W        W  940  10.633  13.729  10.528
41438W        W  941   7.208  22.167  11.424
41439W        W  942  39.868  40.839   4.694
41440W        W  943  36.875  27.992  11.863
41441W        W  944   1.433  12.326  13.996
41442W        W  945  11.134   0.887   3.277
41443W        W  946  29.544   7.876   0.387
41444W        W  947   3.937   7.396  14.507
41445W        W  948  18.269  31.964  13.546
41446W        W  949  32.596  42.467  11.574
41447W        W  950  10.160   4.769  11.950
41448W        W  951   2.315   5.763  13.031
41449W        W  952   9.720  36.413  11.903
41450W        W  953   3.218  12.702  10.615
41451W        W  954   9.874   0.787  14.397
41452W        W  955  40.969  15.215   3.791
41453W        W  956  10.724  41.041   3.332
41454W        W  957  41.454  23.086  10.514
41455W        W  958  44.859  39.470   0.395
41456W        W  959  28.039  12.147   1.924
41457W        W  960  43.377  23.007  13.868
41458W        W  961  29.614  42.813  12.879
41459W        W  962  29.551  43.946  14.383
41460W        W  963  12.657  10.761  11.507
41461W        W  964  24.536   4.923   4.181
41462W        W  965   1.977  28.130   3.292
41463W        W  966  40.054   1.365   4.633
41464W        W  967  40.835  31.419  10.993
41465W        W  968  17.294  37.525   4.326
41466W        W  969  18.286   3.395   0.244
41467W        W  970  40.951  14.713   1.333
41468W        W  971   1.288  38.476   1.915
41469W        W  972  37.361  38.920  11.581
41470W        W  973   0.415   1.331   5.128
41471W        W  974  25.116  40.797  12.891
41472W        W  975  11.801  39.528  11.453
41473W        W  976  12.135  12.833  11.465
41474W        W  977   5.387  13.699  13.408
41475W        W  978  16.644  20.525  10.567
41476W        W  979  36.977  41.801   1.735
41477W        W  980  18.190  41.791   2.742
41478W        W  981  40.517  32.137  12.410
41479W        W  982  14.650  12.667  13.390
41480W        W  983  25.632  35.078   4.834
41481W        W  984   6.311  38.401   3.314
41482W        W  985   1.290   7.177   0.358
41483W        W  986  35.570  11.645   1.745
41484W        W  987  15.758  17.656   3.256
41485W        W  988  21.148  33.925   0.395
41486W        W  989   3.759  38.552   1.220
41487W        W  990  33.472  29.974  14.969
41488W        W  991  22.612  29.662  10.616
41489W        W  992  32.396  38.444  14.485
41490W        W  993  33.898  34.422  11.916
41491W        W  994  41.338  14.252  13.510
41492W        W  995  13.272  44.775  14.430
41493W        W  996  16.662  25.180   0.904
41494W        W  997  40.541  34.949   2.226
41495W        W  998  17.069  34.507   0.952
41496W        W  999  40.475  21.063   5.304
41497W        W 1000  44.420  10.279  10.583
41498W        W 1001  42.334  15.735  12.357
41499W        W 1002  40.053  23.632   4.282
41500W        W 1003  28.968  14.771   2.270
41501W        W 1004  28.975   3.332   5.244
41502W        W 1005  18.612  32.092   1.905
41503W        W 1006  41.488   8.205  12.016
41504W        W 1007  21.723  13.119  14.320
41505W        W 1008  31.497  25.636   3.196
41506W        W 1009  12.793  22.147   4.259
41507W        W 1010  17.280   0.394   2.289
41508W        W 1011  18.786  26.180   0.746
41509W        W 1012  37.877  42.998   3.345
41510W        W 1013  22.067  32.588  12.877
41511W        W 1014  32.615  42.989   0.401
41512W        W 1015  20.731  16.811  11.376
41513W        W 1016  29.494   8.392  14.795
41514W        W 1017  11.863   2.331  13.972
41515W        W 1018   5.216   8.687   0.289
41516W        W 1019   7.684  10.202   4.640
41517W        W 1020  16.093  17.608  14.397
41518W        W 1021   1.348  33.969  14.276
41519W        W 1022  19.265  32.914  12.873
41520W        W 1023   9.199  22.614   9.963
41521W        W 1024   6.687  10.689   4.785
41522W        W 1025  31.486   2.409  12.001
41523W        W 1026  17.231   0.765   3.176
41524W        W 1027  26.564  32.405   1.434
41525W        W 1028  37.913  20.036   1.313
41526W        W 1029   1.804  25.522   2.797
41527W        W 1030  41.022  16.244  14.880
41528W        W 1031   8.900   4.215   0.862
41529W        W 1032  39.511   4.401   2.213
41530W        W 1033   8.706  17.160   0.479
41531W        W 1034  28.608   9.208   3.693
41532W        W 1035  16.677  27.119  10.500
41533W        W 1036  39.944  35.043   0.893
41534W        W 1037  31.098  39.431  14.984
41535W        W 1038  32.999  37.859  14.348
41536W        W 1039  23.101  39.026  10.007
41537W        W 1040  39.431  35.069  10.467
41538W        W 1041  35.096   4.789   0.454
41539W        W 1042  36.455  42.030  12.954
41540W        W 1043   6.191  10.274  12.938
41541W        W 1044   5.804  20.536  13.899
41542W        W 1045  37.464  10.776   0.266
41543W        W 1046  36.372   9.836   0.803
41544W        W 1047  24.654  21.045   0.276
41545W        W 1048  17.131   0.909  11.028
41546W        W 1049   4.785  31.621  13.972
41547W        W 1050  30.058  17.139   2.369
41548W        W 1051  27.633  37.959  12.063
41549W        W 1052  24.134  41.954  11.399
41550W        W 1053  28.541  29.608  13.461
41551W        W 1054  14.331  21.175   2.825
41552W        W 1055  43.919  25.709   4.623
41553W        W 1056  24.696  34.930   4.616
41554W        W 1057  27.104  32.452  11.079
41555W        W 1058   4.357   2.827   2.396
41556W        W 1059  27.998   5.278   0.445
41557W        W 1060  35.470   9.328   0.933
41558W        W 1061  40.820  35.554   2.901
41559W        W 1062  13.297  17.725  12.981
41560W        W 1063  32.888  39.486  14.761
41561W        W 1064  28.097  22.629  13.500
41562W        W 1065  31.591  25.197   0.787
41563W        W 1066   1.902   3.371   5.198
41564W        W 1067   8.680  19.284   2.894
41565W        W 1068  23.543  36.011   3.208
41566W        W 1069  38.340  14.771  13.876
41567W        W 1070  38.063  12.232  14.804
41568W        W 1071   0.268  42.471   0.421
41569W        W 1072  35.502  25.617  12.079
41570W        W 1073  17.783  44.381  13.547
41571W        W 1074  21.089  41.931  13.508
41572W        W 1075  25.625  19.535  13.793
41573W        W 1076  11.743  41.850   0.956
41574W        W 1077  12.161  38.887   4.274
41575W        W 1078  38.027  33.434  11.583
41576W        W 1079   3.287   0.378  10.994
41577W        W 1080  10.879  37.055   2.770
41578W        W 1081  15.808  21.608   0.371
41579W        W 1082  40.038  38.858   3.724
41580W        W 1083  14.826   5.210   2.397
41581W        W 1084  25.611  42.376   1.905
41582W        W 1085  37.966  15.266   3.818
41583W        W 1086  22.601   4.896  10.033
41584W        W 1087  36.842  30.960   4.733
41585W        W 1088  40.893  30.003  11.487
41586W        W 1089  10.862   2.952  12.976
41587W        W 1090  23.114  41.828  14.799
41588W        W 1091   5.249   0.424   0.876
41589W        W 1092  22.698  39.338   2.674
41590W        W 1093  11.242  35.021   0.480
41591W        W 1094  14.318  39.550   4.727
41592W        W 1095  19.260  33.432   4.317
41593W        W 1096   4.387  34.092  10.903
41594W        W 1097   5.869  27.195  10.931
41595W        W 1098  29.656  35.517   4.114
41596W        W 1099   1.961   2.878   2.393
41597W        W 1100  37.005  34.536  11.568
41598W        W 1101  33.088  10.819   1.827
41599W        W 1102  12.740   2.913   1.409
41600W        W 1103  33.585   4.821   3.714
41601W        W 1104  22.121   5.842   1.803
41602W        W 1105  40.456  17.260   1.933
41603W        W 1106  40.395   8.789   4.813
41604W        W 1107  26.576  27.099   0.965
41605W        W 1108   8.357  11.198   2.836
41606W        W 1109  11.244   8.251  10.978
41607W        W 1110  25.962   2.957  13.486
41608W        W 1111  34.088   1.804   0.427
41609W        W 1112  23.223  33.605   4.676
41610W        W 1113  32.570  13.660  13.987
41611W        W 1114  41.910  33.533  12.458
41612W        W 1115  23.717  15.178   2.743
41613W        W 1116  24.188  44.320  14.958
41614W        W 1117  44.423  13.320  11.601
41615W        W 1118  39.030  11.786   2.206
41616W        W 1119  24.195  25.035   4.325
41617W        W 1120   8.266  23.023   2.707
41618W        W 1121  16.596  40.950   0.371
41619W        W 1122   2.938  31.033  11.105
41620W        W 1123  33.504  17.660   1.344
41621W        W 1124  33.895  42.828   0.778
41622W        W 1125  10.799  44.325   2.856
41623W        W 1126  43.997  33.398   3.811
41624W        W 1127  24.057  16.745  10.421
41625W        W 1128  31.641  38.490  13.055
41626W        W 1129   6.347  29.122  10.547
41627W        W 1130  17.769  43.774   0.325
41628W        W 1131   8.323  35.050  11.087
41629W        W 1132  42.453  16.702   2.359
41630W        W 1133  41.346  24.493   0.342
41631W        W 1134   9.218   7.684   1.743
41632W        W 1135  33.116  18.717  10.634
41633W        W 1136  43.903   5.312  14.422
41634W        W 1137   5.278  32.085   1.702
41635W        W 1138  16.122   9.849  14.432
41636W        W 1139   9.656  29.986  14.340
41637W        W 1140   7.282  40.352  11.106
41638W        W 1141  32.960   4.776   2.367
41639W        W 1142  38.331  22.125  14.434
41640W        W 1143  19.263  44.765  12.432
41641W        W 1144  23.599  20.196  13.494
41642W        W 1145  39.331  43.802  13.981
41643W        W 1146  29.962  17.287  14.300
41644W        W 1147  20.128   9.331  13.917
41645W        W 1148  16.144  22.509   1.825
41646W        W 1149  26.186  14.835   3.296
41647W        W 1150  25.132  22.021   4.694
41648W        W 1151   6.893   9.198   3.699
41649W        W 1152  30.140  19.723   2.754
41650W        W 1153   0.383  11.233  13.816
41651W        W 1154   2.329  33.408  14.810
41652W        W 1155  10.678  21.748   3.749
41653W        W 1156  27.100  32.431  13.844
41654W        W 1157  39.898  36.028   3.174
41655W        W 1158   7.896   7.217  12.398
41656W        W 1159   2.295  40.506  13.884
41657W        W 1160  43.878  19.079   0.471
41658W        W 1161  29.094  22.699  11.911
41659W        W 1162  38.891  38.493   3.328
41660W        W 1163  31.569  42.936  14.925
41661W        W 1164  24.685  23.706   1.334
41662W        W 1165   1.851  16.162   1.431
41663W        W 1166  32.538  16.316  11.976
41664W        W 1167  12.295  43.318  11.920
41665W        W 1168  35.993  25.559   4.648
41666W        W 1169  33.606  38.532  10.986
41667W        W 1170  25.000  15.291   2.823
41668W        W 1171  13.688  11.858  14.334
41669W        W 1172  43.806  41.930  12.376
41670W        W 1173  23.716  20.680  14.802
41671W        W 1174  12.826   7.794   0.258
41672W        W 1175  12.163  27.128  13.434
41673W        W 1176   6.688  33.909   2.669
41674W        W 1177  34.926  27.178  13.360
41675W        W 1178  20.033   8.779   2.870
41676W        W 1179  38.462  20.242  11.050
41677W        W 1180  25.078   5.847   1.417
41678W        W 1181  12.773  41.428  12.369
41679W        W 1182   8.770   9.325   0.838
41680W        W 1183  38.433   2.457   4.151
41681W        W 1184  31.934  10.651   3.317
41682W        W 1185  37.437  30.529  12.849
41683W        W 1186  40.845  37.034   2.193
41684W        W 1187  13.137  33.039   2.829
41685W        W 1188  31.467  19.533   4.221
41686W        W 1189  19.769  26.133   2.831
41687W        W 1190  39.907   9.205   2.238
41688W        W 1191  13.252  34.460  14.897
41689W        W 1192  27.641  44.463   2.738
41690W        W 1193  31.484  35.449   2.719
41691W        W 1194  19.239  20.226  13.404
41692W        W 1195   8.877  33.074  14.322
41693W        W 1196  24.579  37.912   1.233
41694W        W 1197  19.044  23.123   1.235
41695W        W 1198   4.395  13.270   2.261
41696W        W 1199  26.989  12.689   0.406
41697W        W 1200  39.055  11.754   2.739
41698W        W 1201  11.190   1.266   2.301
41699W        W 1202  15.618  44.796  11.118
41700W        W 1203  35.858   4.384  14.287
41701W        W 1204  33.956  20.242   1.266
41702W        W 1205  43.321  23.704   1.263
41703W        W 1206  44.000  42.320   0.366
41704W        W 1207  19.668  44.852   1.450
41705W        W 1208   3.782  43.859   9.984
41706W        W 1209   2.963   9.227  14.016
41707W        W 1210  15.660  43.360   4.766
41708W        W 1211  12.801  36.446   0.387
41709W        W 1212  32.624  17.567   0.298
41710W        W 1213  14.177   0.864  12.070
41711W        W 1214  11.267  21.132  12.500
41712W        W 1215  21.652  13.139  11.015
41713W        W 1216  12.226  15.299  14.761
41714W        W 1217   3.923  37.339  10.574
41715W        W 1218  23.568   2.949   2.859
41716W        W 1219  38.957  26.618   3.734
41717W        W 1220  21.709  43.452   2.774
41718W        W 1221   8.345  25.214   2.679
41719W        W 1222  42.342  35.458  13.476
41720W        W 1223   7.272  17.743   2.669
41721W        W 1224  10.304  42.414   4.636
41722W        W 1225  27.156   2.234  11.869
41723W        W 1226  24.016  35.399   3.640
41724W        W 1227  12.125  29.170  10.971
41725W        W 1228  38.388   9.320   4.662
41726W        W 1229  40.350  20.674   4.615
41727W        W 1230  36.557   5.759  13.520
41728W        W 1231  41.859   9.162   4.214
41729W        W 1232  23.185  38.383  12.931
41730W        W 1233   3.303  25.992  12.945
41731W        W 1234  11.214  29.107   3.210
41732W        W 1235  20.698  31.542   4.814
41733W        W 1236  20.266  22.161  14.379
41734W        W 1237  36.433   8.816   2.693
41735W        W 1238  40.798   1.767  11.105
41736W        W 1239  11.632  27.634   0.254
41737W        W 1240  44.392  29.137   0.835
41738W        W 1241  33.995  17.701  12.414
41739W        W 1242  44.907  15.669  10.936
41740W        W 1243  44.000  19.205  12.042
41741W        W 1244  41.038  17.207  13.005
41742W        W 1245  20.088  26.161  10.934
41743W        W 1246  35.438   9.806  13.874
41744W        W 1247  25.550  23.105  10.639
41745W        W 1248  17.146  19.768  10.489
41746W        W 1249  21.699  29.653   0.810
41747W        W 1250  15.201   9.270  12.446
41748W        W 1251  28.564  13.732  14.416
41749W        W 1252  42.776  44.457   4.302
41750W        W 1253   4.304  13.324   1.744
41751W        W 1254  24.560  43.404   4.695
41752W        W 1255  37.915   6.764  14.961
41753W        W 1256  30.563  18.686  11.458
41754W        W 1257   8.673   0.480  10.462
41755W        W 1258   1.879  40.522   4.216
41756W        W 1259  43.839  16.715  10.599
41757W        W 1260  33.100  42.396   4.240
41758W        W 1261   1.940  24.545  11.125
41759W        W 1262  41.503  21.550  13.053
41760W        W 1263  20.206  10.373  14.473
41761W        W 1264  32.624  35.042  11.027
41762W        W 1265  17.607   1.731  14.331
41763W        W 1266   5.335  33.132   2.758
41764W        W 1267  44.857  29.599  14.002
41765W        W 1268  19.564  36.495   4.251
41766W        W 1269  20.556   8.277   1.716
41767W        W 1270   7.829  35.361   1.316
41768W        W 1271  30.658  32.024  14.319
41769W        W 1272  19.670  44.346  12.397
41770W        W 1273   8.209  30.599  12.883
41771W        W 1274  29.460  24.115   0.251
41772W        W 1275   7.671  22.672  14.379
41773W        W 1276  19.171  44.478  10.924
41774W        W 1277  41.952  34.899   0.372
41775W        W 1278  40.539  39.504  14.379
41776W        W 1279   1.285  26.480  10.411
41777W        W 1280   9.288  26.489   0.275
41778W        W 1281  24.067  19.146  12.889
41779W        W 1282   5.758  42.491  14.379
41780W        W 1283   3.443   0.289   0.382
41781W        W 1284  30.583  30.102  13.038
41782W        W 1285  36.847  30.907   0.783
41783W        W 1286  28.576   2.768   3.179
41784W        W 1287  22.561  41.808   1.398
41785W        W 1288  20.256  15.804   4.797
41786W        W 1289   5.760   9.806  12.093
41787W        W 1290  42.368  41.951   2.783
41788W        W 1291  19.644  12.793   4.340
41789W        W 1292  27.959  39.922  10.991
41790W        W 1293  21.692  12.119  10.500
41791W        W 1294  38.369  39.984  12.869
41792W        W 1295  20.581  31.060  13.949
41793W        W 1296  17.068   2.762   4.664
41794W        W 1297  28.503  12.851  14.772
41795W        W 1298  43.417  22.091  14.368
41796W        W 1299  33.904  13.740   5.745
41797W        W 1300  12.611  30.460  13.448
41798W        W 1301  11.288   9.293  11.105
41799W        W 1302   9.329  32.463   4.775
41800W        W 1303  12.216  16.285   2.239
41801W        W 1304  37.966  25.524   3.652
41802W        W 1305  28.152  21.586   0.268
41803W        W 1306  16.165   1.353   3.238
41804W        W 1307   2.272   4.267  12.485
41805W        W 1308   7.277   3.736  14.990
41806W        W 1309  19.635  35.527   0.782
41807W        W 1310   1.857  22.694   0.456
41808W        W 1311  22.554  19.669   1.381
41809W        W 1312  40.541  21.678  13.823
41810W        W 1313  32.093  27.014   3.318
41811W        W 1314   0.462   1.946   0.346
41812W        W 1315   7.296  19.654  13.374
41813W        W 1316  26.099  11.366  13.547
41814W        W 1317  26.647  14.280  10.584
41815W        W 1318  29.505  32.079   4.814
41816W        W 1319   8.751  31.060  13.443
41817W        W 1320  44.319   3.294   1.322
41818W        W 1321  27.689  10.151  10.459
41819W        W 1322  41.824  39.407  11.457
41820W        W 1323  18.180  19.051  14.315
41821W        W 1324   2.366  39.969   0.760
41822W        W 1325  14.648  34.589   4.206
41823W        W 1326   0.749  30.461   0.760
41824W        W 1327  40.022  26.653   3.276
41825W        W 1328   5.709  18.598  13.454
41826W        W 1329   8.775  25.108   1.774
41827W        W 1330  22.737  31.494   3.319
41828W        W 1331  26.666  27.488  12.975
41829W        W 1332  36.487  26.623   9.979
41830W        W 1333  39.816   5.875   0.760
41831W        W 1334   0.767  43.450   3.307
41832W        W 1335  28.153  42.373  13.045
41833W        W 1336   1.442  21.713   4.346
41834W        W 1337  30.649  31.517  10.956
41835W        W 1338   0.826  25.498   0.727
41836W        W 1339  32.018   7.229  11.036
41837W        W 1340  35.971   5.345   1.247
41838W        W 1341   3.347   8.718   2.841
41839W        W 1342  34.908  37.846   5.163
41840W        W 1343  23.501  37.571   3.733
41841W        W 1344  20.683  35.037   2.199
41842W        W 1345  26.647  36.004   3.320
41843W        W 1346  21.174  36.357   3.819
41844W        W 1347  44.439  34.999  14.849
41845W        W 1348  25.990  21.520  10.576
41846W        W 1349  29.144  26.168  13.378
41847W        W 1350  10.828  39.425  12.405
41848W        W 1351  30.646  11.802  13.904
41849W        W 1352  36.576  15.719   4.280
41850W        W 1353   7.668  11.311  10.489
41851W        W 1354   2.804   1.911   1.784
41852W        W 1355   4.762  16.134   4.801
41853W        W 1356  26.207  40.930   4.124
41854W        W 1357  11.695  17.256  10.924
41855W        W 1358  30.099  16.576   1.385
41856W        W 1359  36.002  30.592   3.831
41857W        W 1360  29.106   9.376   4.273
41858W        W 1361  37.569  38.070  11.485
41859W        W 1362  20.060   9.344   4.795
41860W        W 1363  32.546  33.074  14.394
41861W        W 1364  24.557  34.584  12.091
41862W        W 1365  20.115   2.773   3.147
41863W        W 1366  17.247  15.803  14.768
41864W        W 1367  26.019  39.964  11.931
41865W        W 1368  39.343  41.517  14.774
41866W        W 1369  11.766   9.218  13.428
41867W        W 1370  10.232  22.665  12.355
41868W        W 1371  16.208  39.836  13.045
41869W        W 1372  28.493   8.181   2.747
41870W        W 1373  40.825  22.997  10.578
41871W        W 1374  26.076  14.293  10.519
41872W        W 1375  18.258  41.893  11.015
41873W        W 1376   4.327  29.953   0.859
41874W        W 1377  19.077   7.300   1.736
41875W        W 1378   8.729  42.802  14.514
41876W        W 1379  38.047  36.553   1.893
41877W        W 1380   2.950  44.420   0.956
41878W        W 1381  10.767  42.291  10.568
41879W        W 1382  19.050  31.516   3.720
41880W        W 1383  42.434  39.905   0.915
41881W        W 1384   8.214  14.275   1.388
41882W        W 1385   3.886  14.308   5.081
41883W        W 1386   8.221  14.721   1.797
41884W        W 1387  41.396  41.467   1.735
41885W        W 1388   3.946  14.782   0.861
41886W        W 1389  25.070  37.861  11.441
41887W        W 1390  11.284  42.340   1.446
41888W        W 1391  44.400  37.558   5.102
41889W        W 1392   7.800  41.523   1.306
41890W        W 1393  16.578  35.487  10.543
41891W        W 1394  20.626  21.691  10.984
41892W        W 1395  22.632  37.580   1.928
41893W        W 1396   2.428  16.802   0.863
41894W        W 1397  39.828  30.916  11.459
41895W        W 1398   1.273  10.851  12.447
41896W        W 1399   7.704  37.925   4.663
41897W        W 1400  14.105  24.151  11.476
41898W        W 1401  10.669  11.724   1.212
41899W        W 1402  37.337   1.314   0.895
41900W        W 1403  30.117   5.403   2.682
41901W        W 1404  26.113  29.582   1.910
41902W        W 1405  19.751  12.340   1.735
41903W        W 1406   9.876  16.649   2.673
41904W        W 1407  25.617  22.715   3.215
41905W        W 1408  35.411  17.104  10.474
41906W        W 1409  26.956  30.629  10.549
41907W        W 1410   1.330   4.817  11.927
41908W        W 1411  24.225  34.081   1.756
41909W        W 1412   5.707  36.493  12.862
41910W        W 1413   8.900  21.147  11.484
41911W        W 1414  21.074  39.848   4.722
41912W        W 1415  26.636  26.543  12.008
41913W        W 1416  22.655  17.705  10.408
41914W        W 1417  43.414  26.031   3.236
41915W        W 1418  34.522  21.222   1.753
41916W        W 1419  30.598  42.814  12.477
41917W        W 1420  22.720   2.950   3.693
41918W        W 1421  37.935   8.189  14.352
41919W        W 1422  30.417  10.343  14.389
41920W        W 1423   5.353   9.250   1.413
41921W        W 1424   8.734  31.437   3.697
41922W        W 1425  13.135  14.236  13.348
41923W        W 1426  36.452   2.344  14.275
41924W        W 1427   1.416  24.591   4.155
41925W        W 1428   3.287   6.418  13.990
41926W        W 1429   0.386  36.070   1.872
41927W        W 1430  23.177  13.650   0.409
41928W        W 1431   7.210  32.071   3.802
41929W        W 1432  24.508   7.364   0.767
41930W        W 1433  15.160   0.478   3.802
41931W        W 1434  32.411  17.605   2.769
41932W        W 1435  25.677  27.538   0.470
41933W        W 1436   3.853   2.881   1.425
41934W        W 1437   6.781  34.055   3.856
41935W        W 1438  24.574  24.634  13.827
41936W        W 1439  10.678  13.683   3.163
41937W        W 1440  29.176  13.775  13.393
41938W        W 1441   0.445  11.367  11.575
41939W        W 1442  37.896   5.269   1.265
41940W        W 1443  21.680   5.815  10.943
41941W        W 1444  35.030  22.546   9.969
41942W        W 1445  31.500  29.503   0.963
41943W        W 1446  16.304   9.829  12.422
41944W        W 1447   7.312  18.652   1.878
41945W        W 1448  12.808  28.442   2.701
41946W        W 1449  37.004  36.841   1.731
41947W        W 1450   1.364   8.850  14.868
41948W        W 1451  28.092  26.030  10.966
41949W        W 1452  43.472  32.926   0.841
41950W        W 1453  10.324  39.032  14.396
41951W        W 1454  26.031  35.533   0.759
41952W        W 1455  44.001  16.588  12.501
41953W        W 1456  26.538  29.926  10.634
41954W        W 1457  38.542  15.580   1.779
41955W        W 1458  16.645  24.163  13.950
41956W        W 1459  27.105  24.198   4.827
41957W        W 1460  17.705  18.153   3.225
41958W        W 1461  23.684  15.686  13.008
41959W        W 1462  35.368  27.131  11.404
41960W        W 1463   0.382  39.409   4.245
41961W        W 1464   2.414  33.428   1.924
41962W        W 1465  30.016  12.708  12.891
41963W        W 1466  37.039  27.066   2.283
41964W        W 1467   3.236  21.558   4.832
41965W        W 1468  16.573  30.492   4.156
41966W        W 1469   9.874  11.864  13.833
41967W        W 1470  23.591  19.102  13.892
41968W        W 1471  39.881   2.724   2.358
41969W        W 1472  20.582   2.410   1.857
41970W        W 1473   1.923  23.610  10.630
41971W        W 1474  41.339  38.529  10.993
41972W        W 1475   1.767  42.359   5.621
41973W        W 1476  29.092  11.660  11.489
41974W        W 1477  11.699  32.918   3.250
41975W        W 1478  12.232  38.858   2.859
41976W        W 1479  37.065  21.584   1.370
41977W        W 1480   8.731  42.475  13.509
41978W        W 1481  22.646  38.077   4.119
41979W        W 1482   2.805   8.835  12.987
41980W        W 1483  16.254  11.800  13.910
41981W        W 1484  31.126   3.938  13.480
41982W        W 1485  42.323  31.570  13.402
41983W        W 1486  13.339  14.311   0.283
41984W        W 1487  16.250  33.936  13.387
41985W        W 1488  28.514   1.829  13.982
41986W        W 1489  13.191   6.422   2.234
41987W        W 1490  15.721   8.818   1.801
41988W        W 1491  33.427  42.420  11.432
41989W        W 1492  35.591   9.288   2.849
41990W        W 1493  24.576  26.459   3.299
41991W        W 1494  13.212  36.044  12.862
41992W        W 1495  20.726   9.848  11.015
41993W        W 1496  13.761  27.588   0.843
41994W        W 1497  36.570   5.193  10.404
41995W        W 1498  29.626  42.001   1.292
41996W        W 1499  40.507  38.882   0.730
41997W        W 1500   7.295  19.620  12.477
41998W        W 1501   8.725  24.633  10.607
41999W        W 1502  43.467  15.248  14.462
42000W        W 1503   7.298  33.541  13.994
42001W        W 1504  14.284  42.838  11.540
42002W        W 1505  39.539  25.570   1.758
42003W        W 1506  13.820   8.274  14.876
42004W        W 1507  15.310  34.483   2.366
42005W        W 1508  30.442  26.178   4.355
42006W        W 1509  31.898  21.614   2.714
42007W        W 1510   8.313  28.503  10.964
42008W        W 1511  32.963  24.612  14.823
42009W        W 1512  11.774  33.114   2.388
42010W        W 1513  29.537   3.789   0.361
42011W        W 1514  15.766   3.258   5.162
42012W        W 1515  13.308   0.333  14.454
42013W        W 1516  28.047  16.805  14.303
42014W        W 1517  32.623  28.179  13.546
42015W        W 1518  28.668  44.462   1.708
42016W        W 1519  23.101  21.535  13.455
42017W        W 1520  15.584  21.119  10.481
42018W        W 1521  14.159  31.988  14.430
42019W        W 1522  32.084  12.322  11.903
42020W        W 1523   7.803   1.342  13.497
42021W        W 1524  36.352  24.721  11.120
42022W        W 1525   3.884   6.425  11.435
42023W        W 1526  15.323   5.298  11.543
42024W        W 1527  12.850   4.367  10.421
42025W        W 1528  23.999  24.995  12.441
42026W        W 1529  38.046  35.462  11.123
42027W        W 1530  12.748  35.011  13.376
42028W        W 1531  39.933  18.137   3.232
42029W        W 1532  36.448  28.552  11.450
42030W        W 1533  25.500   4.773   1.859
42031W        W 1534  39.924  37.566   1.818
42032W        W 1535  27.501  13.292   3.290
42033W        W 1536  20.561  22.012   0.356
42034W        W 1537   8.827  27.150   1.365
42035W        W 1538  12.177   0.309  14.338
42036W        W 1539  10.857  16.711  11.094
42037W        W 1540  26.636  25.128   4.670
42038W        W 1541  22.160   3.796  12.433
42039W        W 1542  41.318  24.169   3.779
42040W        W 1543   7.239   8.361  14.513
42041W        W 1544  31.554  13.772  12.483
42042W        W 1545  37.083  34.938  11.904
42043W        W 1546  18.626  36.927  11.990
42044W        W 1547  30.640   9.176   0.804
42045W        W 1548  16.146  39.519   2.337
42046W        W 1549   0.877  15.645  12.497
42047W        W 1550   8.663  39.886  12.434
42048W        W 1551  41.526  19.751   4.195
42049W        W 1552  44.491  34.914   2.771
42050W        W 1553  20.144  20.258  11.063
42051W        W 1554  26.140  22.513   4.123
42052W        W 1555  14.685   4.243  10.493
42053W        W 1556  27.980  27.543  12.903
42054W        W 1557  33.520  22.604   2.688
42055W        W 1558  18.286  17.620  13.319
42056W        W 1559  10.170   6.714   3.820
42057W        W 1560  27.177   8.664  12.901
42058W        W 1561  21.686   1.835   9.640
42059W        W 1562   8.338  34.373   2.768
42060W        W 1563   3.337   4.372   4.165
42061W        W 1564   3.391  22.034  11.496
42062W        W 1565  41.357  35.939   2.312
42063W        W 1566  12.841  31.626  10.518
42064W        W 1567  44.382  21.579  10.502
42065W        W 1568  14.767  26.978   4.249
42066W        W 1569   6.814  43.516   5.759
42067W        W 1570  33.039   1.344  10.517
42068W        W 1571  27.959  32.412   0.348
42069W        W 1572   5.793  20.529  11.393
42070W        W 1573   4.872  21.637   3.659
42071W        W 1574   8.254   7.798  12.472
42072W        W 1575  41.018  16.630   4.128
42073W        W 1576   8.273  40.420   4.691
42074W        W 1577   2.742  36.849  10.585
42075W        W 1578   8.351  20.229   4.171
42076W        W 1579   0.415  12.323  12.406
42077W        W 1580  22.239  23.036  12.911
42078W        W 1581  15.660  23.668  12.957
42079W        W 1582  10.743  29.999   0.382
42080W        W 1583  18.551   9.279  12.989
42081W        W 1584  29.468  20.720  13.802
42082W        W 1585  29.945  42.988   4.185
42083W        W 1586  32.504  19.189  12.872
42084W        W 1587   9.729  24.724   2.224
42085W        W 1588  23.173  10.270   3.810
42086W        W 1589  40.981   2.423   0.953
42087W        W 1590   0.986  31.077   1.283
42088W        W 1591  44.444  41.908  13.476
42089W        W 1592  19.694  33.469  10.979
42090W        W 1593  13.215  23.519   3.650
42091W        W 1594  10.844  23.217   1.706
42092W        W 1595   2.307  30.476  13.423
42093W        W 1596  41.872  42.968   3.822
42094W        W 1597  38.967  29.070   0.954
42095W        W 1598  43.013  33.501  11.858
42096W        W 1599  36.061   7.700  11.950
42097W        W 1600   8.877  10.296  14.286
42098W        W 1601  15.317  18.545   2.902
42099W        W 1602  10.762  34.495   0.369
42100W        W 1603  25.562  15.596  10.529
42101W        W 1604  44.265  13.275   0.820
42102W        W 1605  23.671   9.278  11.585
42103W        W 1606  40.368  34.874   4.317
42104W        W 1607   8.176   5.342   4.609
42105W        W 1608  31.566  24.043   1.912
42106W        W 1609  35.862  30.521  14.277
42107W        W 1610  30.544   6.854   0.763
42108W        W 1611  44.443   3.785  13.347
42109W        W 1612   6.355  35.863  13.363
42110W        W 1613   6.219  26.584  13.417
42111W        W 1614  25.079  37.871  14.373
42112W        W 1615   6.862  29.055   3.744
42113W        W 1616  33.978  32.115   0.921
42114W        W 1617   0.976  35.416  11.961
42115W        W 1618   4.737   3.921   1.230
42116W        W 1619  36.534   3.861   1.271
42117W        W 1620  29.022  33.069  11.885
42118W        W 1621  35.062  38.881   3.669
42119W        W 1622   7.773  23.988  11.436
42120W        W 1623   0.486  14.675   3.231
42121W        W 1624  29.488  40.043   0.297
42122W        W 1625  38.034   9.364   1.236
42123W        W 1626  41.810  23.514   2.724
42124W        W 1627  27.647   6.342   3.673
42125W        W 1628   2.852  28.093  12.445
42126W        W 1629  17.134  30.936  12.838
42127W        W 1630  15.797  31.052  13.857
42128W        W 1631  24.631   7.351   2.401
42129W        W 1632  22.691  33.063  12.507
42130W        W 1633  19.728   0.935   0.250
42131W        W 1634  34.936  31.524   0.755
42132W        W 1635  43.278  24.985  13.401
42133W        W 1636  15.664  27.657   2.261
42134W        W 1637  34.369  36.385  13.491
42135W        W 1638  27.540  24.552  11.986
42136W        W 1639  36.374  16.287  12.385
42137W        W 1640  39.059  18.200   3.643
42138W        W 1641   5.338  37.064   2.283
42139W        W 1642   7.703  24.665  14.360
42140W        W 1643  38.420  36.026  11.874
42141W        W 1644  14.641   2.890   0.460
42142W        W 1645  29.077  10.183  11.599
42143W        W 1646  22.107   1.380  13.395
42144W        W 1647  27.157  26.528   1.902
42145W        W 1648  10.847  21.163   2.850
42146W        W 1649  41.442  19.631  12.068
42147W        W 1650   3.905  29.438   2.366
42148W        W 1651  11.373  22.598   0.897
42149W        W 1652   7.404  17.662  14.935
42150W        W 1653  27.608  39.808   3.780
42151W        W 1654  20.181  12.672  14.998
42152W        W 1655  44.345  23.495   2.252
42153W        W 1656  25.163  12.262   0.819
42154W        W 1657  40.528  21.574  11.862
42155W        W 1658  40.033   4.241   5.145
42156W        W 1659  14.647  23.153   4.800
42157W        W 1660  10.846  27.187  13.350
42158W        W 1661   5.353  25.604  12.560
42159W        W 1662  15.653  42.427  12.886
42160W        W 1663  35.570  16.196   2.724
42161W        W 1664  19.747  17.117  14.948
42162W        W 1665   7.277  11.166   0.382
42163W        W 1666  10.156  14.150  14.835
42164W        W 1667  14.708  25.064   1.244
42165W        W 1668   2.447  18.643   1.901
42166W        W 1669  40.476   9.849   1.371
42167W        W 1670  35.445  21.571   2.871
42168W        W 1671  12.623  13.272  14.898
42169W        W 1672  34.473   6.340  10.414
42170W        W 1673  38.568  28.601   2.315
42171W        W 1674  13.606   8.182   0.837
42172W        W 1675  10.866  26.000   3.186
42173W        W 1676  17.731  44.398   2.406
42174W        W 1677   4.371  33.504   3.641
42175W        W 1678  36.514   6.805   1.709
42176W        W 1679  28.494  40.918   1.882
42177W        W 1680   6.361  37.044   1.720
42178W        W 1681  21.237  34.614  14.336
42179W        W 1682  32.525  34.005   0.420
42180W        W 1683  20.698  40.421   2.283
42181W        W 1684  43.923  16.773  14.372
42182W        W 1685  13.749  12.306   1.807
42183W        W 1686  28.950  23.225   2.323
42184W        W 1687  40.893   9.152  14.467
42185W        W 1688  30.029  11.826  12.561
42186W        W 1689  14.191  22.229  11.524
42187W        W 1690  14.634  30.988  14.377
42188W        W 1691  20.037  16.651   3.296
42189W        W 1692  15.104  43.454  11.467
42190W        W 1693  14.193  20.229   2.203
42191W        W 1694  22.068  35.459   4.694
42192W        W 1695  16.195   7.288   4.297
42193W        W 1696  27.683  26.500   1.367
42194W        W 1697  33.977  19.726  11.479
42195W        W 1698  31.591   5.777  10.605
42196W        W 1699   7.882  13.707   0.840
42197W        W 1700  28.581  40.357   2.394
42198W        W 1701  39.817  37.835  11.015
42199W        W 1702  13.754   3.270  10.947
42200W        W 1703   0.481  27.456  12.493
42201W        W 1704  26.495  33.048   3.670
42202W        W 1705  11.694   8.281  11.003
42203W        W 1706  22.232  15.733  13.941
42204W        W 1707   4.718  39.940   2.759
42205W        W 1708  43.855  44.454   9.974
42206W        W 1709   1.413  40.543   1.921
42207W        W 1710  25.504   5.918   1.931
42208W        W 1711  29.667  36.362   2.392
42209W        W 1712  31.636  34.909   2.410
42210W        W 1713   9.301  35.385   2.683
42211W        W 1714  36.377  34.056   3.807
42212W        W 1715  21.190  23.030  11.480
42213W        W 1716  22.680  24.541   1.861
42214W        W 1717  40.895   0.391   0.295
42215W        W 1718  14.300  14.768  14.951
42216W        W 1719  25.044  31.531  12.905
42217W        W 1720  20.208   8.339   4.132
42218W        W 1721   6.828  35.950  13.427
42219W        W 1722  40.441  17.777   4.197
42220W        W 1723  40.332   8.248   2.817
42221W        W 1724   2.758  44.260  14.277
42222W        W 1725  29.936  20.256  12.824
42223W        W 1726  14.689  38.978   2.225
42224W        W 1727   5.418  29.137   4.720
42225W        W 1728   1.239  40.978  14.406
42226W        W 1729  41.405  43.986  11.059
42227W        W 1730  21.125   6.375   4.173
42228W        W 1731  35.965   3.859  10.616
42229W        W 1732   5.857   1.790  12.538
42230W        W 1733  17.270  36.045  10.906
42231W        W 1734  43.997  16.312   1.821
42232W        W 1735  13.715  29.590  14.879
42233W        W 1736  13.741  22.115  12.964
42234W        W 1737  19.105  35.035   0.432
42235W        W 1738   5.815  23.191   4.177
42236W        W 1739  42.304  21.080  13.953
42237W        W 1740   7.399  43.769  10.575
42238W        W 1741  34.515  25.219   1.918
42239W        W 1742  10.640  32.978  11.543
42240W        W 1743   1.410   8.740   2.243
42241W        W 1744  17.650  12.336  12.545
42242W        W 1745   1.825  41.513   2.676
42243W        W 1746  41.498  28.466  12.341
42244W        W 1747   3.410  30.924   2.688
42245W        W 1748   3.317  13.348  14.922
42246W        W 1749  12.760  18.130   4.713
42247W        W 1750  33.402  30.975   3.778
42248W        W 1751   2.897  13.635   1.840
42249W        W 1752  31.950  29.936  13.793
42250W        W 1753   2.920  31.556   4.135
42251W        W 1754  11.258  16.776   0.963
42252W        W 1755  39.336  12.168  11.855
42253W        W 1756  16.754   2.961   1.270
42254W        W 1757  34.412  16.291   0.429
42255W        W 1758  41.808  33.081   1.908
42256W        W 1759  23.061   5.786  12.087
42257W        W 1760  44.319  24.701   4.789
42258W        W 1761  28.050  22.223  13.335
42259W        W 1762   1.239  42.444   1.239
42260W        W 1763  31.125  35.860   0.820
42261W        W 1764  33.513  14.797  13.430
42262W        W 1765  11.865  18.675   2.802
42263W        W 1766   6.905   1.455   3.763
42264W        W 1767  23.536   5.743   1.406
42265W        W 1768   6.387  26.702   1.415
42266W        W 1769  13.725  15.089  12.443
42267W        W 1770  42.424  40.405   2.233
42268W        W 1771   4.323   0.399   2.839
42269W        W 1772  21.256   5.371  11.575
42270W        W 1773  38.071  28.024   9.950
42271W        W 1774  35.515   7.737  11.441
42272W        W 1775  14.323  32.977   1.389
42273W        W 1776  34.113   2.853  12.474
42274W        W 1777  43.272  35.582   1.811
42275W        W 1778  26.153  35.048   4.216
42276W        W 1779  44.355  10.364  14.996
42277W        W 1780  26.687   3.281   3.348
42278W        W 1781  19.548   5.895   2.852
42279W        W 1782  28.441  12.295   2.206
42280W        W 1783   6.191  29.525   1.837
42281W        W 1784   9.759  33.477   1.306
42282W        W 1785   8.369  24.991   0.922
42283W        W 1786  38.519  25.175  11.036
42284W        W 1787   0.449  21.206  12.886
42285W        W 1788   3.883  24.675   5.174
42286W        W 1789  25.604  10.636   0.412
42287W        W 1790  39.951  29.029   0.482
42288W        W 1791  26.555  37.570   0.965
42289W        W 1792  33.004  25.186   3.200
42290W        W 1793  28.113   1.404  12.004
42291W        W 1794  30.640  25.644   1.875
42292W        W 1795  13.117  44.262   0.869
42293W        W 1796  30.048  12.354   2.871
42294W        W 1797  32.564   7.300   2.302
42295W        W 1798  16.630  29.995   4.187
42296W        W 1799  11.833  20.637   1.917
42297W        W 1800  25.219   7.702   4.150
42298W        W 1801  30.491  41.464  10.472
42299W        W 1802  11.782  21.662   3.787
42300W        W 1803  30.046  36.531  13.406
42301W        W 1804  25.198  38.485   0.325
42302W        W 1805  43.446  43.909   0.865
42303W        W 1806  23.013  33.075  14.845
42304W        W 1807  17.679  26.569  14.012
42305W        W 1808  19.735  31.151  14.910
42306W        W 1809  34.985  22.627  13.907
42307W        W 1810  31.121  41.974  10.534
42308W        W 1811  18.193  26.646  13.839
42309W        W 1812   8.315   4.270   3.298
42310W        W 1813  26.014  34.102   4.238
42311W        W 1814  43.509  35.994   4.652
42312W        W 1815  26.697   2.935   4.175
42313W        W 1816  22.026  11.778  10.563
42314W        W 1817   6.265   4.868   0.292
42315W        W 1818  43.337  43.920  13.309
42316W        W 1819   7.724  27.073  12.992
42317W        W 1820   7.205  22.249  11.950
42318W        W 1821   2.885  43.970  11.552
42319W        W 1822  42.347  41.893  14.873
42320W        W 1823  11.137  17.609   3.163
42321W        W 1824   9.720  27.151   2.716
42322W        W 1825  39.838  30.026  13.063
42323W        W 1826   8.289  30.051  10.956
42324W        W 1827   2.954  19.044   2.827
42325W        W 1828   2.246  30.973   1.747
42326W        W 1829  17.165   8.188  14.885
42327W        W 1830  31.055   3.410  10.510
42328W        W 1831  44.830  14.709   0.282
42329W        W 1832  19.598   4.440  11.455
42330W        W 1833  30.631   1.375   2.350
42331W        W 1834  31.977  41.816  14.287
42332W        W 1835  31.053  37.072  13.865
42333W        W 1836   0.975  20.664   3.777
42334W        W 1837  20.735  30.616   4.238
42335W        W 1838  24.187  37.035  10.951
42336W        W 1839  16.740  32.998   1.698
42337W        W 1840   2.370  22.566   3.844
42338W        W 1841  14.114   7.712  12.939
42339W        W 1842  16.690  22.166   4.766
42340W        W 1843  24.020  24.515   1.714
42341W        W 1844   8.268   6.214   4.117
42342W        W 1845  34.539  40.043  13.544
42343W        W 1846   8.252  34.096   2.798
42344W        W 1847  43.917  12.262   3.746
42345W        W 1848  37.963  33.007   0.961
42346W        W 1849  39.445   0.291   1.433
42347W        W 1850  18.592  23.181   2.272
42348W        W 1851  33.128  34.570  12.372
42349W        W 1852   8.310   7.784  13.415
42350W        W 1853  34.073  31.465  14.296
42351W        W 1854  39.453  36.872   2.808
42352W        W 1855  40.046   1.313  14.311
42353W        W 1856   4.871   9.826   1.232
42354W        W 1857   1.768   8.775   4.264
42355W        W 1858  27.101  36.006  14.780
42356W        W 1859  19.613  36.945   4.129
42357W        W 1860  24.609  39.900   1.778
42358W        W 1861   5.196  17.729   2.693
42359W        W 1862  27.668  36.591   3.211
42360W        W 1863  26.110  18.588   3.172
42361W        W 1864  40.370   6.384  14.811
42362W        W 1865   9.312  22.709  11.517
42363W        W 1866  20.544  19.563  14.814
42364W        W 1867   0.746  25.166   2.812
42365W        W 1868  44.806  36.385   3.195
42366W        W 1869  28.660  14.153  12.451
42367W        W 1870   0.342  11.775  14.844
42368W        W 1871  43.364  39.947   1.721
42369W        W 1872  34.458   2.314   4.661
42370W        W 1873  31.915   2.729  10.915
42371W        W 1874  29.521  35.029  14.758
42372W        W 1875  42.295  27.549   4.137
42373W        W 1876  25.595  10.215  10.425
42374W        W 1877  28.436   0.936   9.986
42375W        W 1878  26.698  19.728  12.434
42376W        W 1879   0.778  40.317  10.496
42377W        W 1880   2.343   8.825   3.206
42378W        W 1881  33.917  27.974   9.501
42379W        W 1882  20.162  41.306   0.451
42380W        W 1883  14.166  38.390  11.552
42381W        W 1884  15.209  11.779  14.907
42382W        W 1885  25.017  38.512  14.499
42383W        W 1886  43.921  22.645  13.336
42384W        W 1887   0.348  43.950   5.298
42385W        W 1888  10.663  38.871   3.863
42386W        W 1889  34.069  25.975   3.708
42387W        W 1890  43.803  25.485  10.464
42388W        W 1891  25.615   3.276   4.344
42389W        W 1892  36.847   2.281   0.316
42390W        W 1893  30.518   3.811  10.455
42391W        W 1894  37.485  42.999  10.987
42392W        W 1895  17.769  24.532  12.401
42393W        W 1896  41.411   5.198  11.990
42394W        W 1897  41.833  11.645   4.795
42395W        W 1898  26.196  15.255   2.225
42396W        W 1899  44.903  28.039   3.711
42397W        W 1900  28.589  37.562  13.948
42398W        W 1901  37.514  20.095   3.807
42399W        W 1902  24.568  44.375  13.991
42400W        W 1903  43.001  10.231   1.431
42401W        W 1904  10.204  30.595  14.785
42402W        W 1905  42.904  10.796  10.962
42403W        W 1906  29.454  33.445  13.896
42404W        W 1907  12.181   3.837  12.867
42405W        W 1908  25.150   6.902  13.327
42406W        W 1909  21.757  40.468   4.655
42407W        W 1910  24.045  30.575  14.465
42408W        W 1911  18.165  14.802   2.820
42409W        W 1912  10.656  44.882  11.422
42410W        W 1913   3.429   4.326   1.362
42411W        W 1914  14.208  17.662   4.714
42412W        W 1915  36.094  31.424  12.434
42413W        W 1916  14.807  43.793  13.829
42414W        W 1917   9.645  14.126  14.902
42415W        W 1918   5.326  32.981  13.909
42416W        W 1919   3.329  11.197   3.188
42417W        W 1920  30.551  35.428   4.757
42418W        W 1921  20.253  42.988  12.342
42419W        W 1922   5.293  25.162   3.797
42420W        W 1923  35.401  37.434  12.851
42421W        W 1924  34.608  30.146   4.723
42422W        W 1925  16.771  38.935   2.848
42423W        W 1926  27.599   5.724  13.792
42424W        W 1927  38.385  10.277   3.246
42425W        W 1928  44.792   2.833   0.295
42426W        W 1929  39.883  30.043   4.228
42427W        W 1930  27.674  37.471  13.530
42428W        W 1931  12.653  38.443   0.364
42429W        W 1932  26.550  24.558   3.759
42430W        W 1933  23.207  33.419   1.927
42431W        W 1934  37.983   4.398   3.818
42432W        W 1935  25.616  35.045  14.385
42433W        W 1936  36.439  19.690  14.911
42434W        W 1937  30.420  28.655   2.355
42435W        W 1938   3.364  36.569   1.895
42436W        W 1939  35.571   2.919   2.222
42437W        W 1940  34.058  40.373  12.074
42438W        W 1941   4.806   5.748   3.378
42439W        W 1942  39.451  21.262  12.958
42440W        W 1943  35.893  30.922  11.502
42441W        W 1944   8.345  44.804   2.408
42442W        W 1945  16.784   4.818  11.119
42443W        W 1946  43.765  29.151  14.377
42444W        W 1947   1.319  36.354   4.127
42445W        W 1948  31.016  35.932  14.803
42446W        W 1949   2.826  31.508   0.945
42447W        W 1950  30.112  38.521  11.879
42448W        W 1951  33.484   1.263  13.536
42449W        W 1952  12.822  33.083   2.860
42450W        W 1953  37.896  39.514   3.735
42451W        W 1954  18.643  38.386  11.588
42452W        W 1955  26.456  16.718  10.433
42453W        W 1956  35.013  22.080  11.977
42454W        W 1957  35.883  39.947  14.467
42455W        W 1958  22.235  32.449   4.196
42456W        W 1959  36.031   5.704   4.603
42457W        W 1960  29.601  29.076   0.932
42458W        W 1961  11.354  21.150   0.903
42459W        W 1962  42.340  34.017   4.303
42460W        W 1963  11.316  39.982   3.738
42461W        W 1964  20.168  36.375  11.560
42462W        W 1965  22.743  31.611  14.301
42463W        W 1966  12.631  16.141  12.093
42464W        W 1967  27.170  33.517  10.621
42465W        W 1968   2.467   6.261  13.922
42466W        W 1969  37.410  15.236   0.906
42467W        W 1970  12.243  42.384   0.357
42468W        W 1971  31.629  37.993   2.242
42469W        W 1972  43.317  19.137   0.895
42470W        W 1973  10.271  30.046   2.215
42471W        W 1974  29.436  32.404  12.393
42472W        W 1975  16.714  16.661  10.924
42473W        W 1976   0.413   7.847  10.530
42474W        W 1977   2.402  34.011   2.180
42475W        W 1978  17.096   8.728  12.406
42476W        W 1979   8.714   9.757   1.749
42477W        W 1980   4.233  11.835  12.435
42478W        W 1981  28.634  18.576   1.710
42479W        W 1982  20.073  35.435   3.308
42480W        W 1983  44.939  40.539   3.226
42481W        W 1984  26.058  31.609   3.254
42482W        W 1985   4.913  12.669   4.797
42483W        W 1986  12.124  37.905   1.247
42484W        W 1987   3.397   1.919  11.413
42485W        W 1988  31.488  16.111   0.451
42486W        W 1989   1.974  13.269  14.480
42487W        W 1990  34.056   5.290   2.840
42488W        W 1991  23.508   5.435   2.876
42489W        W 1992  35.498  41.376  12.382
42490W        W 1993  12.733  12.773  10.583
42491W        W 1994  44.942  15.616  10.460
42492W        W 1995  36.861  30.534   1.804
42493W        W 1996  11.290  40.454   2.390
42494W        W 1997  22.115   9.292   1.819
42495W        W 1998  41.350  30.130  14.897
42496W        W 1999  35.021  12.733  10.607
42497W        W 2000   1.441  33.124   4.772
42498W        W 2001  28.547  43.479  13.521
42499W        W 2002   6.316  35.893  10.124
42500W        W 2003  18.563  44.409   4.723
42501W        W 2004  33.586  38.055  11.937
42502W        W 2005  37.554   8.710   5.183
42503W        W 2006  30.537   6.721   0.329
42504W        W 2007  11.671  28.151  12.853
42505W        W 2008   4.724  23.994   1.805
42506W        W 2009  28.012  35.585  12.958
42507W        W 2010  30.102  44.473   4.700
42508W        W 2011  15.189  26.000   4.233
42509W        W 2012  29.099  24.541   4.617
42510W        W 2013  42.307  12.829  14.509
42511W        W 2014   1.774  13.717   4.807
42512W        W 2015  20.728  13.634  13.018
42513W        W 2016  39.521  42.366  11.588
42514W        W 2017  21.041   4.788   2.863
42515W        W 2018  22.218  26.192   3.649
42516W        W 2019  29.500   0.944  12.425
42517W        W 2020  19.154  11.163  13.378
42518W        W 2021  39.556   3.325  14.363
42519W        W 2022  21.043  23.160  10.581
42520W        W 2023   4.905  20.660   4.349
42521W        W 2024  42.879  43.399   2.683
42522W        W 2025  29.020   3.353  11.959
42523W        W 2026  28.644   8.843  12.436
42524W        W 2027  40.844  43.435  13.467
42525W        W 2028  13.113  10.292  12.555
42526W        W 2029  26.525   3.798   1.932
42527W        W 2030   6.424  43.451  13.808
42528W        W 2031  13.621  15.230  10.955
42529W        W 2032  39.027   1.272   0.826
42530W        W 2033  16.248  44.336   1.291
42531W        W 2034  30.463  34.593  13.818
42532W        W 2035  15.681  22.107  14.012
42533W        W 2036  17.689  34.087  10.998
42534W        W 2037  29.920  19.779   1.259
42535W        W 2038  34.479  25.963   4.147
42536W        W 2039   8.207  43.486   4.335
42537W        W 2040   5.808  27.157   4.717
42538W        W 2041  24.153  40.492  14.949
42539W        W 2042   8.855  16.255   3.359
42540W        W 2043  31.614  28.527   2.348
42541W        W 2044   7.343  28.981   3.753
42542W        W 2045   2.847  20.723   3.196
42543W        W 2046  12.261  12.224   2.352
42544W        W 2047   9.387  32.626   2.310
42545W        W 2048  20.733  36.559   3.218
42546W        W 2049  36.510  32.530   1.439
42547W        W 2050  27.120  12.318   4.121
42548W        W 2051   3.779   3.893   4.638
42549W        W 2052  41.820  31.912  14.790
42550W        W 2053   7.899  13.232  10.941
42551W        W 2054  38.472   9.750  10.969
42552W        W 2055   7.176  18.768  13.052
42553W        W 2056   6.870   1.263  13.010
42554W        W 2057   5.392  35.930   0.462
42555W        W 2058  20.622   0.785   3.284
42556W        W 2059  41.948  41.925   4.238
42557W        W 2060  34.097  23.164  14.471
42558W        W 2061   8.366   8.745   4.146
42559W        W 2062   6.326   0.789   3.369
42560W        W 2063  29.539  34.527  14.512
42561W        W 2064  28.563  38.003  13.889
42562W        W 2065  17.634  43.937  14.848
42563W        W 2066   8.738  28.511  12.050
42564W        W 2067  27.485  41.469   1.221
42565W        W 2068   9.320  12.268  10.987
42566W        W 2069  22.049  40.862   3.770
42567W        W 2070  37.486  10.817  12.343
42568W        W 2071  26.578   7.680  14.376
42569W        W 2072  33.112  41.318   1.251
42570W        W 2073  43.401  26.688  12.863
42571W        W 2074   6.765  19.074  12.003
42572W        W 2075  26.151   0.277  14.367
42573W        W 2076  41.404   7.781  12.341
42574W        W 2077  14.117  11.689   3.754
42575W        W 2078  22.733  35.584  10.558
42576W        W 2079  29.065  35.031   2.337
42577W        W 2080  18.770  42.007   4.311
42578W        W 2081  21.660  39.935   4.251
42579W        W 2082  37.357  12.209   0.909
42580W        W 2083  30.547  26.191  12.482
42581W        W 2084   5.751  11.696  10.981
42582W        W 2085   4.886  34.929  13.424
42583W        W 2086   8.292  22.228  14.317
42584W        W 2087   9.353  21.215  10.143
42585W        W 2088   4.905   7.366   2.406
42586W        W 2089  41.791  35.444  14.439
42587W        W 2090   4.844  16.272  10.941
42588W        W 2091  13.332  33.522  11.913
42589W        W 2092  43.312   8.657  12.406
42590W        W 2093  11.200  27.958   1.225
42591W        W 2094  42.310  24.048  11.058
42592W        W 2095   5.769  20.180  12.059
42593W        W 2096  27.945  14.741  10.412
42594W        W 2097  13.305  25.972  11.957
42595W        W 2098  25.010   0.890   1.832
42596W        W 2099  33.566  22.694   0.368
42597W        W 2100  31.951  38.031  13.970
42598W        W 2101  20.150  42.527   2.204
42599W        W 2102  13.725  21.746   1.835
42600W        W 2103   7.213  23.118  12.023
42601W        W 2104  37.540  35.475   4.779
42602W        W 2105  17.302  28.155  14.768
42603W        W 2106   2.379  35.083   2.183
42604W        W 2107  32.405  29.009   1.921
42605W        W 2108  22.223   4.816  12.460
42606W        W 2109  17.599  29.546  10.615
42607W        W 2110  44.913   8.897  11.436
42608W        W 2111  26.509  39.885   4.211
42609W        W 2112  20.049  43.397   0.324
42610W        W 2113  35.473  11.643  12.372
42611W        W 2114  19.265  21.069  11.120
42612W        W 2115  34.867   8.715  13.495
42613W        W 2116  19.155  16.690   0.745
42614W        W 2117  12.810  12.146  12.513
42615W        W 2118  19.641  24.481   4.219
42616W        W 2119  11.197  44.991   2.265
42617W        W 2120  31.598  23.614   4.636
42618W        W 2121  27.627  41.432  10.471
42619W        W 2122   3.744  15.709  13.518
42620W        W 2123  43.360  17.684   5.296
42621W        W 2124  36.538   8.807   3.182
42622W        W 2125   6.910  39.458   1.880
42623W        W 2126  24.051  29.115  10.509
42624W        W 2127   0.979  31.130  12.499
42625W        W 2128  35.003  29.047  11.534
42626W        W 2129  22.108  33.953  14.805
42627W        W 2130  23.617  12.252  13.943
42628W        W 2131  29.961  11.233  10.619
42629W        W 2132  36.047  30.955   4.303
42630W        W 2133  37.418  23.090  13.310
42631W        W 2134  29.627  35.536   3.799
42632W        W 2135  22.090  43.269  11.377
42633W        W 2136  11.299  11.211  14.831
42634W        W 2137  40.431  31.586   3.807
42635W        W 2138   8.670  39.845  13.979
42636W        W 2139  23.016  14.662  13.899
42637W        W 2140  23.039   6.394   2.777
42638W        W 2141  17.235   1.782   2.731
42639W        W 2142  19.107  14.731   2.318
42640W        W 2143  38.454  11.221  14.503
42641W        W 2144  41.507  38.343   0.474
42642W        W 2145  32.900  33.577  11.060
42643W        W 2146   1.854  13.140   0.848
42644W        W 2147  19.578  32.454   3.224
42645W        W 2148  40.932   9.737  11.017
42646W        W 2149  27.966   8.211   2.813
42647W        W 2150  20.639  44.306   2.794
42648W        W 2151  14.341  32.123  11.100
42649W        W 2152   6.314   7.271  14.926
42650W        W 2153  41.527  34.027   1.797
42651W        W 2154  37.418  44.321  10.949
42652W        W 2155  37.897  27.953  14.515
42653W        W 2156  28.558  13.801   2.386
42654W        W 2157   5.761  22.608   4.339
42655W        W 2158  31.970  10.272  11.108
42656W        W 2159  18.690   8.882   2.717
42657W        W 2160  25.605  30.599  13.802
42658W        W 2161   7.666  21.099  14.469
42659W        W 2162  16.628  24.693   3.363
42660W        W 2163   4.318  16.712  10.049
42661W        W 2164  25.582  26.538  14.826
42662W        W 2165  10.143  43.290   0.443
42663W        W 2166  22.048   4.330  11.875
42664W        W 2167  26.457  20.609  13.542
42665W        W 2168  19.720  44.005   3.352
42666W        W 2169   4.804   8.881   2.313
42667W        W 2170  18.713  37.381  13.336
42668W        W 2171  36.014  32.964  11.956
42669W        W 2172   1.965  18.227   4.146
42670W        W 2173   5.876  34.026   0.472
42671W        W 2174   7.181  15.708   2.179
42672W        W 2175  37.946  37.871  10.536
42673W        W 2176  43.459  17.229   2.888
42674W        W 2177  38.931  10.871   2.324
42675W        W 2178   2.940  16.175  14.515
42676W        W 2179   8.164  19.571  10.960
42677W        W 2180   6.249   0.341   1.829
42678W        W 2181  13.752  40.053   1.384
42679W        W 2182  37.974  32.498   0.464
42680W        W 2183   7.738  18.642  14.469
42681W        W 2184  39.439  28.495  11.464
42682W        W 2185  25.525  44.911   0.756
42683W        W 2186  44.343  20.228   1.233
42684W        W 2187   9.362  31.489  12.369
42685W        W 2188  25.120  19.269  13.938
42686W        W 2189  14.113  10.146  11.381
42687W        W 2190   3.342  31.145  12.467
42688W        W 2191   0.337  37.535   3.656
42689W        W 2192  43.841  41.425   4.698
42690W        W 2193  33.514  17.681  11.464
42691W        W 2194  10.343  25.146  13.831
42692W        W 2195  16.615  42.294  11.958
42693W        W 2196  10.375  21.207   2.250
42694W        W 2197  19.265  25.987  14.861
42695W        W 2198   6.912  19.266  11.093
42696W        W 2199  21.560  32.908   4.310
42697W        W 2200  13.821  43.457  12.823
42698W        W 2201   6.323  14.677   2.885
42699W        W 2202  16.158  36.990   1.727
42700W        W 2203  28.081  19.620   0.883
42701W        W 2204  26.569  24.029  13.989
42702W        W 2205   5.203  24.584   3.208
42703W        W 2206   1.941  38.857   0.335
42704W        W 2207  21.561  16.154   0.863
42705W        W 2208  32.478  34.068  11.115
42706W        W 2209  26.100  16.148   0.938
42707W        W 2210  26.599  22.732  14.292
42708W        W 2211   2.902  41.375   1.765
42709W        W 2212  32.059  40.028  14.864
42710W        W 2213  34.587  31.584  11.959
42711W        W 2214   5.340  13.687   0.933
42712W        W 2215  19.195  18.231   1.770
42713W        W 2216   7.813  37.004   3.175
42714W        W 2217  33.470  12.775   2.741
42715W        W 2218  20.218  25.471  12.839
42716W        W 2219  39.505  10.829  12.065
42717W        W 2220  15.752  32.971  14.760
42718W        W 2221  41.035  40.832   0.305
42719W        W 2222  23.070   6.278  10.437
42720W        W 2223   2.799  35.541  11.037
42721W        W 2224   0.857   7.861  13.997
42722W        W 2225  12.742  42.837  11.048
42723W        W 2226  38.049  32.444   1.304
42724W        W 2227  39.034  34.561   2.314
42725W        W 2228  36.874  38.881   2.305
42726W        W 2229  23.598   7.710   4.771
42727W        W 2230  43.279   2.749  14.467
42728W        W 2231  32.997   8.837   1.373
42729W        W 2232  27.618   0.884  14.418
42730W        W 2233  21.021  12.854   4.754
42731W        W 2234  17.775  41.020   2.857
42732W        W 2235  38.340  43.502  11.950
42733W        W 2236  38.882  43.809   3.761
42734W        W 2237  12.746  33.416  13.502
42735W        W 2238  15.243   3.889  13.452
42736W        W 2239   3.402  14.705  13.404
42737W        W 2240  21.162  21.734  14.389
42738W        W 2241  38.858  15.702   1.292
42739W        W 2242  16.761  31.091  13.408
42740W        W 2243  16.777  43.389  13.015
42741W        W 2244  39.484  18.242   1.786
42742W        W 2245  20.212  39.495   2.853
42743W        W 2246  38.995  17.223   5.300
42744W        W 2247  29.950  43.456   3.870
42745W        W 2248  22.161  33.012  11.007
42746W        W 2249   4.853  11.694  10.584
42747W        W 2250  42.490  12.169   2.351
42748W        W 2251  17.678  41.382   0.328
42749W        W 2252  13.285  40.005   4.655
42750W        W 2253  43.979  44.976  14.506
42751W        W 2254  16.073  36.087   1.324
42752W        W 2255   1.435   2.952   4.170
42753W        W 2256  25.995  10.350   4.264
42754W        W 2257  27.552  18.157  12.396
42755W        W 2258  33.383  16.181  10.972
42756W        W 2259   2.454  11.330   9.942
42757W        W 2260  30.117   5.744  11.485
42758W        W 2261  12.270  11.824   3.671
42759W        W 2262   6.212  28.595   3.712
42760W        W 2263  30.624  39.520  14.915
42761W        W 2264  36.842  35.371   1.306
42762W        W 2265   0.921  15.103   0.811
42763W        W 2266  15.172   7.371  14.761
42764W        W 2267  23.194  30.074   1.885
42765W        W 2268  16.159  32.496   4.178
42766W        W 2269  11.247   9.752  11.056
42767W        W 2270  15.608  19.576  10.153
42768W        W 2271  11.772  30.003  12.438
42769W        W 2272  26.570  15.684   4.624
42770W        W 2273   6.767   8.859  12.549
42771W        W 2274  30.452  32.585   0.854
42772W        W 2275   9.226  41.984  14.359
42773W        W 2276   8.807   0.872   1.426
42774W        W 2277  36.046  41.337   2.395
42775W        W 2278  35.515  34.572   2.870
42776W        W 2279   5.418  23.589   4.311
42777W        W 2280  28.075  32.444  11.574
42778W        W 2281   4.880  42.400   2.727
42779W        W 2282  22.517  21.152  14.397
42780W        W 2283  24.643  19.189  13.351
42781W        W 2284   1.811  25.088  13.309
42782W        W 2285  27.060  18.102  11.080
42783W        W 2286  13.715   4.929   2.303
42784W        W 2287   9.855   1.362  12.444
42785W        W 2288  39.953  27.635  11.567
42786W        W 2289  22.642   0.303  13.937
42787W        W 2290  17.577  36.991   3.767
42788W        W 2291   9.231  24.221  13.499
42789W        W 2292   3.445  42.469  14.336
42790W        W 2293   5.879   0.826   1.880
42791W        W 2294  39.934  24.036  12.962
42792W        W 2295  27.160  30.027  12.095
42793W        W 2296  37.063   3.943   9.956
42794W        W 2297  20.109   2.779  13.442
42795W        W 2298  43.497  37.879   4.203
42796W        W 2299   0.785   2.770  14.275
42797W        W 2300  25.042  39.343   3.145
42798W        W 2301   7.273  26.463   1.861
42799W        W 2302  19.124  26.458   4.317
42800W        W 2303  35.415  44.893  11.475
42801W        W 2304  43.909  33.450  11.120
42802W        W 2305  16.589  27.691  11.476
42803W        W 2306  13.162  11.196   3.725
42804W        W 2307  21.103  23.503  10.444
42805W        W 2308   3.865  36.432  12.530
42806W        W 2309   0.957  31.501   2.903
42807W        W 2310  11.686  38.022   2.834
42808W        W 2311  26.535  41.958  12.006
42809W        W 2312  35.476   4.733  12.903
42810W        W 2313  27.102  18.149   4.829
42811W        W 2314  11.652  25.083   2.253
42812W        W 2315  38.449   0.330   1.915
42813W        W 2316  42.455  11.278   3.698
42814W        W 2317  18.227   5.389  11.003
42815W        W 2318  40.869  19.232   3.384
42816W        W 2319  25.185  37.450   3.337
42817W        W 2320  27.493   5.708  11.390
42818W        W 2321  18.270  30.995   2.322
42819W        W 2322  17.211  28.481  10.635
42820W        W 2323  43.918  10.715  13.499
42821W        W 2324  24.213   1.352  13.993
42822W        W 2325  44.397  13.810   3.781
42823W        W 2326   2.764  44.410  11.959
42824W        W 2327   2.828  34.488   3.643
42825W        W 2328  33.896  18.777   0.445
42826W        W 2329  11.675  13.324   4.640
42827W        W 2330  18.699  13.762  11.563
42828W        W 2331   3.899  37.945   2.900
42829W        W 2332  10.317  25.095   2.178
42830W        W 2333   3.745   2.264  14.832
42831W        W 2334  26.459  29.066  12.088
42832W        W 2335  35.571  19.761   4.740
42833W        W 2336  25.043  44.326   2.251
42834W        W 2337  40.983  18.139   3.658
42835W        W 2338  40.831  25.153   1.779
42836W        W 2339  26.966  43.843   3.237
42837W        W 2340  18.097  14.130  13.543
42838W        W 2341  11.261   7.321  13.002
42839W        W 2342  43.796  27.576   0.858
42840W        W 2343   6.904  14.686  14.016
42841W        W 2344  44.370  36.000   4.266
42842W        W 2345   0.805   5.783  11.093
42843W        W 2346   8.364   0.844   2.378
42844W        W 2347  24.642  38.851  10.502
42845W        W 2348   2.357  36.347   3.271
42846W        W 2349  11.863  44.424   4.649
42847W        W 2350  28.577  43.002  11.448
42848W        W 2351  26.061  19.285  14.767
42849W        W 2352  38.434  34.454   0.362
42850W        W 2353   8.213  40.894  12.484
42851W        W 2354  24.514  16.806   1.826
42852W        W 2355  26.662  16.310  10.624
42853W        W 2356  29.043  44.422  11.485
42854W        W 2357   2.919  14.181  14.347
42855W        W 2358   0.788  40.354  12.053
42856W        W 2359  28.958  43.366   4.338
42857W        W 2360  24.218  14.208  10.575
42858W        W 2361   1.308  39.378  11.993
42859W        W 2362   2.437  15.282  11.028
42860W        W 2363  13.249  44.390  12.417
42861W        W 2364  35.072  25.548   1.389
42862W        W 2365  27.662  36.499   2.280
42863W        W 2366  17.171  41.399  13.013
42864W        W 2367  36.021  25.674  13.508
42865W        W 2368   9.289  43.999   4.193
42866W        W 2369  43.764  10.366   0.396
42867W        W 2370  17.754  39.915  12.345
42868W        W 2371  44.865  39.047  12.543
42869W        W 2372  11.259  18.771  11.944
42870W        W 2373  34.519   5.223   3.723
42871W        W 2374  10.806  20.251   1.297
42872W        W 2375   1.325  28.575  12.510
42873W        W 2376  36.025   1.454  12.037
42874W        W 2377  12.237  18.770   3.637
42875W        W 2378  13.244  33.073  11.942
42876W        W 2379  40.025   2.834  12.823
42877W        W 2380  25.968  18.256  11.490
42878W        W 2381  15.307  28.532   0.901
42879W        W 2382  11.299  10.743  11.935
42880W        W 2383  19.177  42.809  12.365
42881W        W 2384  26.592  28.165   0.468
42882W        W 2385  36.076   4.380   3.216
42883W        W 2386  18.075  21.159   1.389
42884W        W 2387  12.778  17.699  13.038
42885W        W 2388  12.763   9.654   1.860
42886W        W 2389  24.691  13.324  14.939
42887W        W 2390   0.457  24.104  12.345
42888W        W 2391  20.246  15.650   4.328
42889W        W 2392  15.236  42.477   1.378
42890W        W 2393   6.782   3.263   3.823
42891W        W 2394   7.714  27.038   2.363
42892W        W 2395   8.390  35.488  11.553
42893W        W 2396  13.143   6.208  13.456
42894W        W 2397  40.389   8.344  12.970
42895W        W 2398   4.755  23.610  14.500
42896W        W 2399  39.531  32.945  10.479
42897W        W 2400  37.412   9.286   4.175
42898W        W 2401   5.429   7.878   3.800
42899W        W 2402   6.287  23.044   3.839
42900W        W 2403   9.737  37.043  14.320
42901W        W 2404  30.108   8.291  12.080
42902W        W 2405   7.911  29.592  11.889
42903W        W 2406  32.084  32.590   1.895
42904W        W 2407  24.480  37.985  13.376
42905W        W 2408  19.104  27.650   4.698
42906W        W 2409  43.341  22.018  10.475
42907W        W 2410  12.845   4.213   2.756
42908W        W 2411  42.805   4.878  12.996
42909W        W 2412  40.823  14.218  11.881
42910W        W 2413  19.740  11.816   0.857
42911W        W 2414  42.344   5.337  12.882
42912W        W 2415   0.290  43.824  13.924
42913W        W 2416  10.658  39.522   0.357
42914W        W 2417  39.544   6.191  14.313
42915W        W 2418  14.322  42.477  11.930
42916W        W 2419  17.591   1.376  12.445
42917W        W 2420   3.933  33.945  14.310
42918W        W 2421  40.505   4.874  11.488
42919W        W 2422  32.922  24.522  13.503
42920W        W 2423  20.258  23.225   3.644
42921W        W 2424  44.282  12.118  11.946
42922W        W 2425  42.463  29.091  14.467
42923W        W 2426   1.884  12.781   2.389
42924W        W 2427  33.394  31.132   3.314
42925W        W 2428  14.717  10.293   0.248
42926W        W 2429  34.473  12.639   2.903
42927W        W 2430  20.049  44.430  10.487
42928W        W 2431   7.748  25.154  14.304
42929W        W 2432  35.061  27.972   2.763
42930W        W 2433   9.246  38.421   1.908
42931W        W 2434   9.258  13.277  11.429
42932W        W 2435   6.324  43.779   3.646
42933W        W 2436  36.034  43.370  11.489
42934W        W 2437  30.523  30.973  10.583
42935W        W 2438  40.458  10.689  13.511
42936W        W 2439  44.363   4.847  10.489
42937W        W 2440  18.212  34.119  10.535
42938W        W 2441  36.877  34.024   4.153
42939W        W 2442  37.935  16.128   2.318
42940W        W 2443  20.659  40.975   1.707
42941W        W 2444  22.028  18.690  12.578
42942W        W 2445  33.453  34.389  11.587
42943W        W 2446  35.088  18.699  14.006
42944W        W 2447  17.253  33.925   3.752
42945W        W 2448  20.740  37.840   1.813
42946W        W 2449  17.165  13.195   3.206
42947W        W 2450  10.242  37.055   4.767
42948W        W 2451  28.167   3.888  12.467
42949W        W 2452  44.407  25.968   3.287
42950W        W 2453   8.877  20.239   3.335
42951W        W 2454  37.505  16.232   4.318
42952W        W 2455   1.935  11.140  13.464
42953W        W 2456  26.618  31.412  13.061
42954W        W 2457  10.735  13.829   2.262
42955W        W 2458  21.161  26.087   4.253
42956W        W 2459  21.680  41.024  11.883
42957W        W 2460  10.195  26.646  10.625
42958W        W 2461  10.803   2.233  14.310
42959W        W 2462  23.598  12.176   2.755
42960W        W 2463  23.514  27.133  12.462
42961W        W 2464   3.804  38.347   2.808
42962W        W 2465  15.220  25.962   2.749
42963W        W 2466  23.051  42.858  10.014
42964W        W 2467  23.498  33.973  14.856
42965W        W 2468  25.704   2.241   0.768
42966W        W 2469   6.774  12.137  12.460
42967W        W 2470  12.691  38.362  10.465
42968W        W 2471   8.793  10.702   0.835
42969W        W 2472  26.135  38.059   1.871
42970W        W 2473  34.929   0.274  10.530
42971W        W 2474  24.150  17.125  11.944
42972W        W 2475  38.352  24.494   2.692
42973W        W 2476  22.227  13.304   2.677
42974W        W 2477  34.443  22.705   4.138
42975W        W 2478  30.091  19.170  12.874
42976W        W 2479  14.179  13.690  12.506
42977W        W 2480  15.696  39.350   0.268
42978W        W 2481  36.351  37.436  14.023
42979W        W 2482  36.874  35.040   4.785
42980W        W 2483  21.093  36.958  12.402
42981W        W 2484  23.646   0.327  13.383
42982W        W 2485  38.375  21.058   3.190
42983W        W 2486  35.919  22.682   3.856
42984W        W 2487  27.162  13.160  11.911
42985W        W 2488  33.518   1.803  14.817
42986W        W 2489  22.683  11.143   2.371
42987W        W 2490  10.792   8.260  14.833
42988W        W 2491   9.324   3.427   3.861
42989W        W 2492  11.812  28.543  13.401
42990W        W 2493  21.615   1.350   0.263
42991W        W 2494   5.928   5.220  12.388
42992W        W 2495  27.652   0.386   1.307
42993W        W 2496   7.881  32.399   3.689
42994W        W 2497  28.129  34.054   1.278
42995W        W 2498   7.825  23.733  11.503
42996W        W 2499  12.787  44.895   2.729
42997W        W 2500  35.506   4.220  13.974
42998W        W 2501  16.615  43.771  13.010
42999W        W 2502  44.269  33.999  10.596
43000W        W 2503  27.525  22.048   4.787
43001W        W 2504  16.692   6.332  11.511
43002W        W 2505  31.507  44.855   1.433
43003W        W 2506   0.750  22.521   3.334
43004W        W 2507  22.035  22.585   1.374
43005W        W 2508   1.808  18.688  11.889
43006W        W 2509  30.592   6.697   4.672
43007W        W 2510  28.545  22.142   0.763
43008W        W 2511  43.459   1.811  12.514
43009W        W 2512  25.535  28.986  11.551
43010W        W 2513   3.833   4.348   1.924
43011W        W 2514   8.900  12.286   1.321
43012W        W 2515   4.792  21.697   0.850
43013W        W 2516  26.496  19.687   1.241
43014W        W 2517  17.207  16.275   4.199
43015W        W 2518   4.348  38.885   3.385
43016W        W 2519  16.166  25.001  13.031
43017W        W 2520  39.969   8.395   3.703
43018W        W 2521  11.743   3.338  14.304
43019W        W 2522  30.957  19.775   5.166
43020W        W 2523  31.023  21.708  12.343
43021W        W 2524  38.436  35.861   2.750
43022W        W 2525  15.280   4.278   4.722
43023W        W 2526   1.240   5.271  11.544
43024W        W 2527  23.158  11.645   1.372
43025W        W 2528  16.225  37.425   0.313
43026W        W 2529  22.677  43.406   4.249
43027W        W 2530  29.591  10.741  13.961
43028W        W 2531  16.141  22.570   2.363
43029W        W 2532   4.223  23.008  12.013
43030W        W 2533  41.845  29.620   3.193
43031W        W 2534   8.261  19.104   2.371
43032W        W 2535  25.176   3.370  14.500
43033W        W 2536  20.068  31.921   3.378
43034W        W 2537  43.777  25.112   0.739
43035W        W 2538  40.957   0.887   3.295
43036W        W 2539   7.354  38.474  14.516
43037W        W 2540  36.074  29.038  12.876
43038W        W 2541  24.582  36.896  13.879
43039W        W 2542  28.018   4.301  13.538
43040W        W 2543  18.693   8.659  14.278
43041W        W 2544  15.174  43.919  13.324
43042W        W 2545  15.817   1.787   4.216
43043W        W 2546  40.400  23.045  13.332
43044W        W 2547  13.641  22.058   1.217
43045W        W 2548  43.496  26.042  12.361
43046W        W 2549  24.494   8.884  10.438
43047W        W 2550  10.704  38.539   1.424
43048W        W 2551   0.751  11.313  11.897
43049W        W 2552   4.438  34.942  12.095
43050W        W 2553  26.074  15.094   0.475
43051W        W 2554  37.967  12.122  14.469
43052W        W 2555   4.441  33.052   0.759
43053W        W 2556  18.184  15.698  12.392
43054W        W 2557   2.468  10.733  10.466
43055W        W 2558  29.032   7.898  13.912
43056W        W 2559   5.774   7.844   2.824
43057W        W 2560  33.424  27.140   1.730
43058W        W 2561  20.249  30.634  13.378
43059W        W 2562  41.822  17.777  11.526
43060W        W 2563   7.898  20.695   4.300
43061W        W 2564  36.843  44.503   0.850
43062W        W 2565  16.282  27.946  13.519
43063W        W 2566   4.438   1.948   3.639
43064W        W 2567   7.799  11.274  12.511
43065W        W 2568  30.629  26.958  13.025
43066W        W 2569  14.340  23.012  13.320
43067W        W 2570   5.929   2.337   3.654
43068W        W 2571  16.218  42.437  13.833
43069W        W 2572  17.161  25.511   4.613
43070W        W 2573  36.540   6.789  11.567
43071W        W 2574  31.472  32.085   1.862
43072W        W 2575  25.620  26.032   2.804
43073W        W 2576  15.580  29.547   1.808
43074W        W 2577  38.954  16.758  12.496
43075W        W 2578  12.840  39.982   1.256
43076W        W 2579  31.144  11.334  14.405
43077W        W 2580  14.603  29.148   2.735
43078W        W 2581  23.070  35.370   1.882
43079W        W 2582   9.203  32.903   2.241
43080W        W 2583   5.223  14.298   3.185
43081W        W 2584  35.946  22.033   3.785
43082W        W 2585  13.258  19.589  10.982
43083W        W 2586  17.661   8.202   0.256
43084W        W 2587  29.989  35.063  13.945
43085W        W 2588   4.923   3.340   1.856
43086W        W 2589  36.981  43.785   4.738
43087W        W 2590  21.704   1.335   2.815
43088W        W 2591   5.306   9.761  13.365
43089W        W 2592  11.149   1.323   1.920
43090W        W 2593  41.787  38.861  13.895
43091W        W 2594  33.959   5.374   3.825
43092W        W 2595  21.230  11.826   3.250
43093W        W 2596  41.018  32.551  12.449
43094W        W 2597  14.720   6.215  10.964
43095W        W 2598  18.588  25.183  11.047
43096W        W 2599  29.072  16.222   1.413
43097W        W 2600  38.496  31.585  12.515
43098W        W 2601  22.681  23.575   0.449
43099W        W 2602  34.391  12.303   3.772
43100W        W 2603  34.891  19.611   0.366
43101W        W 2604  13.303  35.439  13.361
43102W        W 2605  37.923  17.757   4.797
43103W        W 2606  42.785  26.000  12.473
43104W        W 2607   1.288   9.758   4.278
43105W        W 2608   4.288  21.548   4.194
43106W        W 2609  39.946  20.173  10.529
43107W        W 2610   0.438  43.473  13.804
43108W        W 2611  17.135  18.058  12.366
43109W        W 2612  21.086   8.823  11.432
43110W        W 2613  18.645  19.632   0.386
43111W        W 2614   7.295  43.845   1.243
43112W        W 2615   6.919  39.491  13.322
43113W        W 2616  17.093  32.953   1.766
43114W        W 2617  13.809  20.718   2.815
43115W        W 2618  22.244  31.943  13.328
43116W        W 2619   4.880  33.613  10.572
43117W        W 2620  26.645  39.942   2.233
43118W        W 2621  20.720  32.099   3.640
43119W        W 2622  10.878  23.568  12.492
43120W        W 2623  21.111  37.064  13.805
43121W        W 2624  15.581   7.835   1.830
43122W        W 2625  11.258  40.829   0.326
43123W        W 2626  15.201  20.763   2.894
43124W        W 2627   0.306   5.800   2.282
43125W        W 2628  14.279  31.142  11.113
43126W        W 2629  16.712  32.571  14.401
43127W        W 2630  41.516  41.424  14.449
43128W        W 2631   2.882   6.871   0.385
43129W        W 2632  18.247  43.411   0.369
43130W        W 2633   4.265  24.077  10.603
43131W        W 2634  15.749  29.150  12.073
43132W        W 2635  41.386  41.333  11.012
43133W        W 2636  21.207  30.067   3.709
43134W        W 2637  19.673  13.631  14.991
43135W        W 2638   5.386   5.691   0.269
43136W        W 2639   7.832  34.041   4.313
43137W        W 2640  44.453   9.803  14.278
43138W        W 2641  27.976  30.497   2.775
43139W        W 2642   9.779  40.363   4.627
43140W        W 2643  24.528  41.505   2.411
43141W        W 2644  25.599   3.843   1.834
43142W        W 2645  26.649  36.902  11.600
43143W        W 2646   7.829  32.519   2.891
43144W        W 2647  42.902  44.808   3.842
43145W        W 2648  34.473  36.844   2.821
43146W        W 2649  41.816  13.731  14.457
43147W        W 2650  41.927  32.606  14.772
43148W        W 2651  36.573  34.899   4.628
43149W        W 2652  14.738  32.546   5.084
43150W        W 2653   9.186  34.508  13.833
43151W        W 2654  31.508  13.717   4.176
43152W        W 2655  19.632  38.849   1.897
43153W        W 2656  35.466  38.027  13.454
43154W        W 2657  33.422  32.067   0.798
43155W        W 2658  22.214  26.098  14.365
43156W        W 2659  15.098   8.404  12.432
43157W        W 2660  26.562   0.419  14.395
43158W        W 2661  28.967  28.956   3.300
43159W        W 2662  27.598   8.181   1.928
43160W        W 2663  11.843  38.337  14.807
43161W        W 2664  11.784  10.198  11.465
43162W        W 2665   7.832   6.695   0.290
43163W        W 2666  29.594   4.776  11.091
43164W        W 2667  21.107  19.273  13.498
43165W        W 2668  35.563  41.884   0.417
43166W        W 2669  34.089   9.707  12.493
43167W        W 2670  10.879  29.593  14.765
43168W        W 2671  20.173   7.225  13.435
43169W        W 2672  13.318  10.294  10.408
43170W        W 2673   7.227  23.688   2.690
43171W        W 2674  26.671  40.492   1.910
43172W        W 2675  39.499  33.399   4.626
43173W        W 2676  14.315  19.713  13.372
43174W        W 2677   7.833   9.681   2.873
43175W        W 2678   2.307  41.967  12.899
43176W        W 2679   0.859  11.325  11.385
43177W        W 2680  17.726  32.050   0.747
43178W        W 2681  19.207  28.602  10.547
43179W        W 2682  37.031  16.183  12.444
43180W        W 2683  35.016  24.582   1.290
43181W        W 2684  30.502  36.909   1.399
43182W        W 2685  27.964  38.920   3.687
43183W        W 2686   8.682  27.465  10.428
43184W        W 2687  25.710  19.661  11.999
43185W        W 2688   9.270  15.782  11.089
43186W        W 2689  27.115  18.708  12.833
43187W        W 2690  30.458  18.616   0.280
43188W        W 2691   9.186   8.899  11.447
43189W        W 2692  22.694  36.992   0.789
43190W        W 2693  14.205  17.143   2.778
43191W        W 2694   2.910  23.661   4.757
43192W        W 2695  39.878  40.962   2.832
43193W        W 2696  24.723   8.743  11.896
43194W        W 2697  41.806  22.659  13.940
43195W        W 2698   8.312  32.515  11.955
43196W        W 2699  39.929  36.560   0.360
43197W        W 2700  18.782  18.195  11.549
43198W        W 2701  37.018  17.575   2.818
43199W        W 2702   9.183  10.698  11.069
43200W        W 2703  10.203  27.449  13.937
43201W        W 2704  15.580  12.243   4.192
43202W        W 2705  32.024  36.412  14.878
43203W        W 2706  24.046  29.440   4.336
43204W        W 2707  19.743  16.628   0.871
43205W        W 2708   6.374  23.503  13.320
43206W        W 2709  28.003  37.022  12.884
43207W        W 2710  27.526  38.891  13.843
43208W        W 2711  28.949  13.221   1.405
43209W        W 2712   1.293  10.360   2.884
43210W        W 2713  36.979   0.859  13.406
43211W        W 2714  23.046   7.232   1.829
43212W        W 2715  31.084  16.775  14.421
43213W        W 2716  18.089  34.055   3.174
43214W        W 2717  27.518  35.883   3.241
43215W        W 2718   5.840  15.164   2.273
43216W        W 2719  26.527  30.480  13.899
43217W        W 2720  24.027  43.356   3.838
43218W        W 2721  40.862  29.529  13.012
43219W        W 2722  17.110  42.297   3.173
43220W        W 2723  12.638  14.124  14.905
43221W        W 2724   4.207  38.016   2.212
43222W        W 2725  37.011  33.605  11.991
43223W        W 2726  20.228  15.134   3.660
43224W        W 2727   5.377  40.423  10.527
43225W        W 2728  17.701  30.428   0.450
43226W        W 2729  35.969  16.607   0.424
43227W        W 2730  38.491  27.182  14.445
43228W        W 2731   2.304  16.253   1.767
43229W        W 2732  38.479  23.131  11.126
43230W        W 2733   6.235   3.920  10.532
43231W        W 2734  14.816  15.675   0.313
43232W        W 2735  16.091  14.235   0.440
43233W        W 2736  31.142   4.220  14.019
43234W        W 2737  17.203  35.888   3.263
43235W        W 2738   8.786  41.974  13.011
43236W        W 2739  27.659  36.376  13.908
43237W        W 2740   8.694  32.950  14.983
43238W        W 2741  14.288  17.635  11.381
43239W        W 2742  15.761  33.465   4.686
43240W        W 2743   9.263  18.068  11.092
43241W        W 2744  27.557  33.943   0.963
43242W        W 2745  35.588   1.971  13.517
43243W        W 2746  22.238  24.193   0.322
43244W        W 2747  17.190  22.608  14.947
43245W        W 2748  13.223  40.537   2.281
43246W        W 2749   0.923  14.703  10.456
43247W        W 2750   3.723   3.931  13.875
43248W        W 2751  17.267  41.328   3.371
43249W        W 2752  28.978  28.671  10.986
43250W        W 2753  31.120  35.387  10.024
43251W        W 2754  13.162   1.849  14.021
43252W        W 2755  33.512  32.601   1.382
43253W        W 2756  18.157  42.355  14.292
43254W        W 2757  38.041  19.039  14.865
43255W        W 2758  13.162  31.129  11.494
43256W        W 2759  21.052  19.040  12.000
43257W        W 2760  20.268  21.153   3.703
43258W        W 2761  41.006  35.064  11.970
43259W        W 2762  33.060  28.079  12.082
43260W        W 2763  16.126   3.832  13.991
43261W        W 2764   0.442  36.562   1.267
43262W        W 2765   8.165  34.516   2.277
43263W        W 2766  35.445  15.577   2.263
43264W        W 2767   4.700  37.078   1.324
43265W        W 2768   2.362  26.463   2.417
43266W        W 2769  33.462   0.798  11.542
43267W        W 2770  32.919  12.156  10.464
43268W        W 2771   1.946  10.772  10.921
43269W        W 2772  29.987  25.504   5.274
43270W        W 2773  38.985  29.587   0.742
43271W        W 2774  37.553  14.197  12.507
43272W        W 2775  43.435  30.105  13.875
43273W        W 2776  24.701  39.371   3.867
43274W        W 2777  25.699   4.814  10.443
43275W        W 2778  40.310   3.807  14.759
43276W        W 2779  17.590  12.352  14.405
43277W        W 2780  35.502  10.160   3.737
43278W        W 2781  12.152  44.990   3.164
43279W        W 2782  44.918  38.981  13.894
43280W        W 2783  26.592   8.896   0.452
43281W        W 2784  36.455   8.879  10.078
43282W        W 2785  40.886  32.936  13.010
43283W        W 2786  20.593  33.880  14.805
43284W        W 2787   6.689   2.438  12.480
43285W        W 2788  15.127  12.136   1.792
43286W        W 2789   4.213  43.397  14.339
43287W        W 2790  14.592  32.637   4.250
43288W        W 2791   6.187  33.570   3.196
43289W        W 2792   3.444  28.168   0.737
43290W        W 2793  40.420   4.849   9.965
43291W        W 2794  22.643  43.929   3.794
43292W        W 2795   7.738  29.589  12.493
43293W        W 2796  27.060  27.602  11.491
43294W        W 2797  38.437  31.513   3.821
43295W        W 2798  14.321  13.319  14.345
43296W        W 2799  43.300  18.609   3.740
43297W        W 2800   7.724  16.744  14.857
43298W        W 2801   6.817  12.153   3.736
43299W        W 2802  13.686  17.625  11.419
43300W        W 2803  29.466  42.341  14.954
43301W        W 2804   1.346  43.495  13.977
43302W        W 2805  16.759  31.562   3.264
43303W        W 2806  31.044   0.834   4.722
43304W        W 2807  40.498  41.007   2.393
43305W        W 2808   3.824   0.370  12.888
43306W        W 2809  20.107  30.506   1.815
43307W        W 2810  38.452  43.825  14.966
43308W        W 2811  20.569  28.094   1.905
43309W        W 2812  11.281  35.425   1.699
43310W        W 2813  17.238   7.387  10.431
43311W        W 2814  44.895  26.650  10.036
43312W        W 2815  42.993  23.015  14.955
43313W        W 2816  24.130  35.587  10.920
43314W        W 2817  30.050  19.264   4.254
43315W        W 2818   6.212  16.083   2.395
43316W        W 2819  34.457   8.740  12.027
43317W        W 2820  23.030  24.122  11.497
43318W        W 2821   8.798  19.129   4.249
43319W        W 2822  21.018  43.424   3.313
43320W        W 2823   0.909  40.918  14.429
43321W        W 2824   5.257  43.412  14.842
43322W        W 2825   1.849  21.525  11.053
43323W        W 2826  14.726  25.005   4.153
43324W        W 2827  33.480  21.617  11.002
43325W        W 2828  26.989   5.397  13.800
43326W        W 2829  29.567  12.149  12.388
43327W        W 2830  30.078  29.577   0.375
43328W        W 2831  38.335  34.518  12.508
43329W        W 2832  13.677  34.106  13.819
43330W        W 2833  24.055   7.682  12.451
43331W        W 2834  28.678   5.436   2.762
43332W        W 2835  15.204   7.237   1.809
43333W        W 2836  11.356   5.396   4.743
43334W        W 2837  37.514  39.933   1.410
43335W        W 2838  35.869  41.486  10.560
43336W        W 2839  11.683  15.703   3.183
43337W        W 2840   0.912  35.874  13.367
43338W        W 2841   7.688  12.349   2.412
43339W        W 2842  23.690  44.807   1.434
43340W        W 2843   2.390  14.339   0.793
43341W        W 2844  43.828  27.142   4.608
43342W        W 2845  38.487   4.898   4.729
43343W        W 2846  16.578  32.106  12.564
43344W        W 2847  25.545  10.269   4.173
43345W        W 2848  28.546  16.272   0.263
43346W        W 2849  13.174  41.033   3.279
43347W        W 2850  29.992  15.738   0.928
43348W        W 2851  44.435  28.665   2.232
43349W        W 2852  36.409  35.400  12.076
43350W        W 2853  28.550   2.927   3.742
43351W        W 2854  28.115  11.337  12.513
43352W        W 2855  24.048  25.701   1.390
43353W        W 2856  27.580  39.350  12.424
43354W        W 2857   5.327  23.591  13.043
43355W        W 2858  19.136   8.325  13.319
43356W        W 2859   6.697  25.208  12.898
43357W        W 2860  16.784  41.463  14.414
43358W        W 2861  21.038  36.005  10.913
43359W        W 2862   3.435  44.948   4.759
43360W        W 2863  27.145  32.927   3.148
43361W        W 2864  32.414  44.383  13.920
43362W        W 2865  17.105  17.266   0.813
43363W        W 2866  14.792  19.200  12.076
43364W        W 2867  26.573  39.338  14.368
43365W        W 2868  32.506  26.457  11.915
43366W        W 2869  32.892   8.887   1.826
43367W        W 2870  23.069   9.738  10.891
43368W        W 2871  29.101   4.277  12.992
43369W        W 2872  25.181  31.423   0.462
43370W        W 2873   8.870   1.832   2.300
43371W        W 2874   5.720  37.389  10.504
43372W        W 2875  25.066   4.411   1.695
43373W        W 2876  24.085   4.730   0.967
43374W        W 2877  25.668  23.226   2.882
43375W        W 2878  24.481  24.637  10.965
43376W        W 2879  32.128  18.601   0.419
43377W        W 2880  14.701  32.035   0.829
43378W        W 2881   9.366  33.924  11.426
43379W        W 2882  16.809  17.076   4.768
43380W        W 2883  31.549  15.174   2.231
43381W        W 2884  36.032   4.339  10.907
43382W        W 2885   7.835  20.029  13.484
43383W        W 2886  16.139  14.753  14.853
43384W        W 2887   4.714  14.601   1.313
43385W        W 2888   0.916  13.320   2.796
43386W        W 2889  12.761  24.560  10.425
43387W        W 2890  12.199  39.374   3.764
43388W        W 2891  18.050   2.305   3.693
43389W        W 2892   8.307  33.503   0.418
43390W        W 2893  25.515  32.989  12.354
43391W        W 2894   4.805   9.759  10.473
43392W        W 2895  15.221  42.370   1.877
43393W        W 2896  40.049  25.205  11.869
43394W        W 2897  16.136   1.432   2.753
43395W        W 2898  43.810  20.552  12.435
43396W        W 2899  12.168   4.753  14.809
43397W        W 2900  40.349  18.104  13.873
43398W        W 2901  12.199  31.569   5.694
43399W        W 2902  20.736   2.306   4.677
43400W        W 2903  29.027  18.138   3.665
43401W        W 2904  31.151  31.972  14.504
43402W        W 2905  15.192   1.869  11.518
43403W        W 2906  43.863  24.606  10.555
43404W        W 2907  10.652  17.219   3.271
43405W        W 2908  17.761  36.588   1.280
43406W        W 2909  22.071   1.335  14.460
43407W        W 2910  23.521  31.436   3.241
43408W        W 2911  13.193  17.142   3.213
43409W        W 2912  17.565  34.076   0.947
43410W        W 2913  42.416  21.656  13.339
43411W        W 2914  41.841  29.074  11.864
43412W        W 2915  24.199  41.007  12.902
43413W        W 2916  22.160  37.458  10.921
43414W        W 2917  22.175  31.447   1.223
43415W        W 2918  26.114   4.414  11.468
43416W        W 2919  23.064  14.626   4.615
43417W        W 2920   0.421  25.063   1.786
43418W        W 2921  35.379  13.162   2.329
43419W        W 2922  10.730  14.639  11.467
43420W        W 2923  41.354  29.639   3.151
43421W        W 2924  13.612  25.990  11.069
43422W        W 2925  21.556   3.776   2.200
43423W        W 2926  34.441  23.111   4.729
43424W        W 2927  20.076  41.963   3.673
43425W        W 2928  39.369  27.115   3.252
43426W        W 2929  37.068  25.078  13.844
43427W        W 2930   4.732  33.569   3.805
43428W        W 2931  34.587  34.894  11.922
43429W        W 2932  26.702   3.287   4.284
43430W        W 2933  37.974  29.550  13.051
43431W        W 2934   1.939  29.042   1.286
43432W        W 2935   2.254  41.945   4.724
43433W        W 2936  32.077   0.870  10.934
43434W        W 2937  29.918  41.311   0.454
43435W        W 2938  37.418  36.971   4.702
43436W        W 2939  18.648   8.367   1.860
43437W        W 2940  40.537  10.227  11.897
43438W        W 2941  41.337  42.847   2.294
43439W        W 2942   6.220  28.467   1.796
43440W        W 2943  13.741   1.466  13.812
43441W        W 2944  38.553   1.884   3.811
43442W        W 2945  25.976  35.478  13.455
43443W        W 2946   3.911  18.725  13.958
43444W        W 2947  41.834   1.443   3.182
43445W        W 2948  14.224  30.558   0.260
43446W        W 2949  37.087  11.242  13.030
43447W        W 2950   9.171  21.585  12.866
43448W        W 2951  27.646  17.571  11.948
43449W        W 2952  19.610  26.180   4.184
43450W        W 2953  15.742  37.946  10.082
43451W        W 2954   7.781  23.509   4.349
43452W        W 2955  19.628  29.525  14.498
43453W        W 2956   3.916  29.447  13.929
43454W        W 2957  23.049  27.941   1.929
43455W        W 2958  15.788  39.982  10.607
43456W        W 2959  32.627   8.783   4.133
43457W        W 2960  24.975  41.868  13.338
43458W        W 2961  14.791  29.147  14.508
43459W        W 2962  31.020   0.265   4.311
43460W        W 2963  24.064  24.639  11.548
43461W        W 2964  34.951  17.159   2.218
43462W        W 2965   3.347  11.293   4.682
43463W        W 2966   1.471   0.957   3.765
43464W        W 2967  30.001   9.378  11.507
43465W        W 2968   4.331  29.050   3.330
43466W        W 2969  27.090  13.277  11.571
43467W        W 2970  33.956   8.666   0.732
43468W        W 2971  15.612  18.253   0.906
43469W        W 2972   7.792   0.909  10.927
43470W        W 2973  11.339   7.830  14.925
43471W        W 2974   6.787  24.991  11.421
43472W        W 2975  35.545   3.782   1.235
43473W        W 2976  11.205  25.581   3.781
43474W        W 2977  25.499  41.533  13.542
43475W        W 2978  22.221  28.568   0.916
43476W        W 2979  33.111  32.908  14.852
43477W        W 2980  18.282   0.466  11.613
43478W        W 2981   8.764  25.194  11.049
43479W        W 2982  25.110   3.953   3.252
43480W        W 2983  39.821  28.640  11.461
43481W        W 2984  11.649   4.824  13.392
43482W        W 2985  40.883  33.455   0.826
43483W        W 2986  17.777  25.088   0.289
43484W        W 2987  40.988  14.785  13.061
43485W        W 2988  37.046  43.788   1.213
43486W        W 2989  26.475  29.583  13.886
43487W        W 2990  24.559  41.958  14.480
43488W        W 2991  29.587  10.360  12.369
43489W        W 2992   6.892   0.947   3.164
43490W        W 2993  37.408  16.223  11.969
43491W        W 2994  26.076  18.777  12.049
43492W        W 2995  26.681  37.876   2.409
43493W        W 2996  41.826  33.530   4.255
43494W        W 2997   1.787   5.738   0.962
43495W        W 2998   9.318   2.855  11.502
43496W        W 2999  44.793  39.828  10.586
43497W        W 3000   2.816  10.709   0.316
43498W        W 3001  38.867  28.608   5.136
43499W        W 3002  16.719   5.720   0.424
43500W        W 3003  35.861  37.947  13.417
43501W        W 3004   9.282  10.695  11.979
43502W        W 3005   6.273  22.646   0.932
43503W        W 3006  20.159  20.029  11.495
43504W        W 3007   5.394   3.374   0.257
43505W        W 3008   8.208  23.689  12.963
43506W        W 3009   2.860  21.060   1.338
43507W        W 3010  10.634  24.172  10.081
43508W        W 3011  13.115  10.754  11.402
43509W        W 3012   3.751  11.741  13.408
43510W        W 3013  39.499  25.616  13.427
43511W        W 3014  29.446  42.814  10.552
43512W        W 3015  38.508  15.621  12.850
43513W        W 3016  19.554  25.683  10.514
43514W        W 3017   2.260  19.056   3.258
43515W        W 3018  32.064  27.159   1.290
43516W        W 3019  20.577   3.369  10.469
43517W        W 3020  44.469  31.591   3.212
43518W        W 3021  22.151   4.794  13.328
43519W        W 3022  11.650   3.933   0.259
43520W        W 3023  39.063  17.240   3.176
43521W        W 3024  23.143  12.314   2.823
43522W        W 3025  43.986  29.479  12.824
43523W        W 3026  35.955   8.853   3.218
43524W        W 3027  43.497  10.660  12.843
43525W        W 3028  12.234  21.568   4.146
43526W        W 3029  27.007  18.599   2.183
43527W        W 3030  17.110  29.103  11.097
43528W        W 3031  11.133  39.372  11.474
43529W        W 3032  43.276  35.415  10.441
43530W        W 3033  19.170   1.795  14.301
43531W        W 3034  15.158  25.141   1.260
43532W        W 3035  40.858  27.540  10.565
43533W        W 3036  31.501   9.391   1.311
43534W        W 3037   7.753  12.623   4.766
43535W        W 3038  39.907  32.108  12.473
43536W        W 3039  25.217   8.730  14.299
43537W        W 3040   2.851  36.954   1.706
43538W        W 3041   6.188  37.488  11.941
43539W        W 3042  23.585  40.036  13.318
43540W        W 3043   2.742   6.871   2.269
43541W        W 3044  20.554  39.426   1.316
43542W        W 3045  16.646  29.937  12.087
43543W        W 3046  42.446  36.405   2.813
43544W        W 3047  13.806  32.627  11.511
43545W        W 3048  41.828  35.873  14.910
43546W        W 3049  18.559  21.187   4.666
43547W        W 3050  34.945   5.724  11.101
43548W        W 3051   0.911  27.115  14.358
43549W        W 3052  42.795   4.915   5.278
43550W        W 3053   4.853   4.729  12.450
43551W        W 3054  34.112  15.284   1.323
43552W        W 3055  11.302   6.411  11.416
43553W        W 3056  17.261   8.267   1.795
43554W        W 3057  42.997  19.728   2.373
43555W        W 3058   0.863  34.992  11.090
43556W        W 3059  29.653  13.799  11.910
43557W        W 3060   9.307  25.496  10.484
43558W        W 3061  12.139  36.357   4.686
43559W        W 3062  12.651  24.105   2.202
43560W        W 3063   1.903   6.409   3.715
43561W        W 3064  11.786   5.403  13.005
43562W        W 3065   5.817  11.151   4.772
43563W        W 3066  21.516  32.416  13.935
43564W        W 3067  30.119  25.014  13.812
43565W        W 3068  22.114  34.965   4.697
43566W        W 3069   8.235  33.878   3.675
43567W        W 3070  28.465  20.739  11.001
43568W        W 3071   7.264  14.633   1.427
43569W        W 3072  43.432   9.766  10.504
43570W        W 3073   4.245  36.089   3.304
43571W        W 3074  17.798  10.768   2.869
43572W        W 3075   3.380  22.083   2.877
43573W        W 3076  14.326  18.269   3.734
43574W        W 3077  29.021  24.180   4.131
43575W        W 3078  32.081   4.761  10.895
43576W        W 3079  25.066  28.620  11.514
43577W        W 3080  12.741  35.362   4.624
43578W        W 3081  12.720  16.116  13.008
43579W        W 3082  26.955  12.689  12.505
43580W        W 3083  35.017  34.990  10.464
43581W        W 3084  32.528  39.497  12.417
43582W        W 3085   2.345  38.846  14.824
43583W        W 3086  19.274  19.592  11.917
43584W        W 3087  11.205  31.565   9.603
43585W        W 3088  14.243  16.666   1.759
43586W        W 3089  37.913  25.157  10.523
43587W        W 3090  40.865  33.522  14.850
43588W        W 3091  32.601  37.017  13.819
43589W        W 3092   9.286  27.613  11.888
43590W        W 3093  21.602  33.618   3.741
43591W        W 3094   6.732  15.577   1.270
43592W        W 3095   6.212   6.787   2.822
43593W        W 3096  37.384  27.475  12.512
43594W        W 3097   8.270  21.222   4.115
43595W        W 3098  39.463  23.704   1.314
43596W        W 3099  35.002  23.610   0.829
43597W        W 3100  12.166  25.989  11.057
43598W        W 3101  17.089  28.025  11.992
43599W        W 3102   9.870  42.801  14.907
43600W        W 3103   2.382  27.129  13.922
43601W        W 3104  39.879  22.023  13.000
43602W        W 3105  36.995  41.867  10.981
43603W        W 3106  42.022  23.734  10.441
43604W        W 3107  11.332  18.273   1.725
43605W        W 3108   5.406  15.760   2.370
43606W        W 3109  18.605  42.424  13.831
43607W        W 3110  39.864  26.678   0.908
43608W        W 3111  13.728  23.104  14.815
43609W        W 3112  27.966  41.298   3.734
43610W        W 3113  38.437  22.107   4.616
43611W        W 3114  34.418   6.339   0.905
43612W        W 3115  39.893  43.474  13.500
43613W        W 3116  29.599   8.674  10.948
43614W        W 3117  17.302  43.825   4.343
43615W        W 3118  14.234  43.015   0.847
43616W        W 3119   7.311  31.477   2.763
43617W        W 3120  36.036  31.610  14.980
43618W        W 3121  32.482  13.285  12.952
43619W        W 3122  36.473  21.737   2.309
43620W        W 3123  24.034  27.678   1.817
43621W        W 3124  40.392  33.037   0.281
43622W        W 3125  38.556   0.787   4.130
43623W        W 3126  43.349  16.594   2.819
43624W        W 3127  43.018  42.015  12.032
43625W        W 3128   1.828  35.886  14.886
43626W        W 3129  36.992  19.117  11.427
43627W        W 3130  14.657  18.237   0.386
43628W        W 3131  31.995  12.165  11.459
43629W        W 3132  30.615  10.741  12.541
43630W        W 3133  22.132  12.189   3.645
43631W        W 3134  19.691  37.075  13.357
43632W        W 3135  11.224  30.973   4.282
43633W        W 3136   2.266  17.705   3.793
43634W        W 3137   5.895  40.881   4.822
43635W        W 3138  18.159  16.710  10.613
43636W        W 3139  42.282  15.193  11.503
43637W        W 3140  31.083  40.857  12.527
43638W        W 3141  26.998  18.641  10.545
43639W        W 3142  34.009  43.856  14.355
43640W        W 3143   5.247  20.642   0.915
43641W        W 3144  21.571  10.738   1.441
43642W        W 3145   7.846  16.767   2.211
43643W        W 3146  43.377  44.959  12.401
43644W        W 3147   9.231  10.273  12.036
43645W        W 3148   0.359  39.390  13.318
43646W        W 3149  20.139  39.904  13.372
43647W        W 3150  38.369  39.425   2.320
43648W        W 3151  35.009  20.147   0.405
43649W        W 3152   1.853  26.627   1.323
43650W        W 3153   4.402  39.516   2.330
43651W        W 3154   0.829  28.027  13.354
43652W        W 3155  30.611   7.787   1.217
43653W        W 3156  16.257  15.711   1.416
43654W        W 3157  24.201  31.536  13.813
43655W        W 3158  15.287  12.824  10.474
43656W        W 3159   3.778  28.047   1.322
43657W        W 3160  32.020  32.972  13.443
43658W        W 3161   6.857   1.753   4.621
43659W        W 3162  17.209   1.747  12.438
43660W        W 3163  12.285   5.869  14.513
43661W        W 3164  25.492  20.092   4.349
43662W        W 3165  22.126  30.112   0.841
43663W        W 3166  22.615  23.642   4.769
43664W        W 3167  33.000  34.612  10.086
43665W        W 3168  36.445  16.599  12.396
43666W        W 3169   1.441  13.268   2.238
43667W        W 3170   1.885   7.735  11.595
43668W        W 3171  35.978   0.478   4.318
43669W        W 3172  27.165  29.433  13.908
43670W        W 3173  35.493  36.928  10.941
43671W        W 3174  13.599  11.373  12.890
43672W        W 3175   1.814  15.805   3.814
43673W        W 3176   7.223  22.589   1.434
43674W        W 3177  13.144  27.111  14.834
43675W        W 3178   3.239  34.002  10.954
43676W        W 3179  30.970  11.309  12.558
43677W        W 3180   1.286   1.844  12.061
43678W        W 3181   5.710  39.896   0.268
43679W        W 3182  19.233   4.934   3.170
43680W        W 3183  24.478  24.046   0.788
43681W        W 3184  29.140  30.545  12.932
43682W        W 3185  28.093  24.159   2.816
43683W        W 3186   8.719  40.354   1.313
43684W        W 3187  30.113  32.987   2.330
43685W        W 3188  27.068  15.257  11.924
43686W        W 3189  13.239  22.140  13.002
43687W        W 3190   1.892  22.194  14.416
43688W        W 3191  43.459  28.531  13.047
43689W        W 3192  39.552  18.172   3.162
43690W        W 3193  43.306  18.096   1.870
43691W        W 3194  33.020  23.489  12.514
43692W        W 3195  21.612  33.563   3.372
43693W        W 3196  30.093  35.452   1.300
43694W        W 3197  30.623   1.465  10.592
43695W        W 3198  20.041   7.328  10.039
43696W        W 3199  29.068   6.790  11.055
43697W        W 3200  40.422  37.487  11.415
43698W        W 3201  37.884  31.545   4.632
43699W        W 3202  24.593   1.399   0.766
43700W        W 3203  34.937   1.316   0.855
43701W        W 3204   3.930   3.437   4.323
43702W        W 3205  32.607   3.710   2.379
43703W        W 3206  44.259  17.561   4.602
43704W        W 3207  12.231   3.356   2.333
43705W        W 3208  39.950  30.946   1.380
43706W        W 3209   0.354  11.135  10.892
43707W        W 3210  35.405   3.735   4.344
43708W        W 3211  25.126  44.962   3.300
43709W        W 3212  12.613   6.848  14.475
43710W        W 3213  39.066   6.336   1.333
43711W        W 3214  16.731   6.396  14.292
43712W        W 3215  42.340   5.736  14.834
43713W        W 3216   1.328   5.761  10.476
43714W        W 3217  34.081  27.567   3.790
43715W        W 3218   7.696  39.425  13.041
43716W        W 3219  28.024   7.336   3.335
43717W        W 3220  13.233  36.935  11.101
43718W        W 3221  32.943   3.793   2.869
43719W        W 3222  10.657  28.041   2.798
43720W        W 3223  31.027  43.810   0.435
43721W        W 3224   1.272  42.488   0.895
43722W        W 3225  18.102  13.718  12.882
43723W        W 3226  29.964  25.032   4.235
43724W        W 3227  19.755  33.026  14.957
43725W        W 3228  37.543  16.777   1.912
43726W        W 3229  28.932  20.631   3.156
43727W        W 3230  29.924  37.483   3.321
43728W        W 3231  35.927   4.428  13.444
43729W        W 3232   6.325  30.093   3.765
43730W        W 3233  43.914  32.022   2.870
43731W        W 3234  24.071  31.929  14.783
43732W        W 3235  23.060  19.742  12.025
43733W        W 3236  22.044  41.360   0.342
43734W        W 3237  26.053  29.116  13.349
43735W        W 3238  11.726  34.565   0.882
43736W        W 3239  28.175   1.244  12.481
43737W        W 3240  10.716  18.686  13.960
43738W        W 3241  34.928   7.342  13.461
43739W        W 3242   2.233  23.201   4.350
43740W        W 3243  27.457   7.668  11.020
43741W        W 3244  27.054   9.668   3.251
43742W        W 3245  16.206  14.105  14.357
43743W        W 3246   4.790  21.149  10.050
43744W        W 3247  10.306  10.162  14.988
43745W        W 3248  40.418  24.115   0.820
43746W        W 3249  25.660  17.070  14.388
43747W        W 3250  36.563  22.082   2.360
43748W        W 3251  14.312  41.311  13.357
43749W        W 3252  21.181  10.675   0.312
43750W        W 3253  36.997  27.600  11.127
43751W        W 3254  11.854  40.436  12.570
43752W        W 3255  30.414  11.371  11.603
43753W        W 3256  19.140  16.811  13.358
43754W        W 3257  22.063  24.523   4.810
43755W        W 3258  19.276  22.554   0.958
43756W        W 3259  18.583  25.991   2.771
43757W        W 3260  39.848  13.709   2.766
43758W        W 3261  17.099  23.006  14.493
43759W        W 3262   1.271  31.548  10.077
43760W        W 3263  39.887  14.638   4.639
43761W        W 3264  16.280  17.211   3.631
43762W        W 3265  27.023   6.823   4.826
43763W        W 3266  42.018  21.033  13.529
43764W        W 3267  35.542  24.210  14.373
43765W        W 3268  40.504  43.494  11.496
43766W        W 3269   3.811  35.594   2.854
43767W        W 3270  11.649  25.990  11.965
43768W        W 3271   7.196   3.441   1.705
43769W        W 3272  36.574  30.596   1.796
43770W        W 3273   0.906  33.499  12.519
43771W        W 3274   8.370  16.692  14.958
43772W        W 3275   9.249  24.986  11.998
43773W        W 3276  34.885   8.385   1.700
43774W        W 3277  24.174   5.256  11.904
43775W        W 3278  41.982   5.928  11.962
43776W        W 3279  10.138  32.082   3.200
43777W        W 3280  13.616   8.741  10.510
43778W        W 3281  22.717   4.735  10.609
43779W        W 3282   8.320  40.354   1.264
43780W        W 3283  11.251  13.325  11.527
43781W        W 3284  33.111  34.444   9.554
43782W        W 3285  41.937  43.497  11.458
43783W        W 3286  37.415  25.032  12.451
43784W        W 3287  44.385  35.371   1.323
43785W        W 3288  20.614  26.543   0.409
43786W        W 3289  35.098  38.852   0.806
43787W        W 3290   7.816  24.063  14.515
43788W        W 3291  27.157  30.999   0.957
43789W        W 3292   6.366  35.055   4.170
43790W        W 3293  44.868  14.124  10.467
43791W        W 3294  33.128  42.963   4.827
43792W        W 3295  11.311   2.444   0.756
43793W        W 3296  25.190  44.332   4.120
43794W        W 3297  40.808  38.480  12.382
43795W        W 3298  35.885  34.012  12.351
43796W        W 3299   6.364  34.015  12.386
43797W        W 3300  21.211   5.379  14.309
43798W        W 3301  38.052  32.423  12.018
43799W        W 3302   3.891  32.548  11.584
43800W        W 3303  24.196  14.819   4.293
43801W        W 3304  42.833  26.549  12.927
43802W        W 3305   1.424   6.810  13.921
43803W        W 3306  30.109  43.280   4.755
43804W        W 3307  22.692  38.823  11.584
43805W        W 3308  13.124  35.047   3.752
43806W        W 3309  44.325  33.014  14.902
43807W        W 3310  13.784  10.247  12.054
43808W        W 3311   1.365   8.893  13.424
43809W        W 3312  39.497  40.499   2.297
43810W        W 3313  43.822  14.822   4.186
43811W        W 3314  38.339   9.879  12.951
43812W        W 3315  26.041   9.341   3.695
43813W        W 3316  28.978  40.366  10.471
43814W        W 3317  19.715  12.843  11.559
43815W        W 3318  26.686  28.957  12.836
43816W        W 3319  14.648   9.327  13.441
43817W        W 3320   8.190   3.370  10.526
43818W        W 3321  13.650  31.579   2.322
43819W        W 3322  15.088  43.921   2.684
43820W        W 3323  32.400   8.711  14.495
43821W        W 3324   9.846   3.942   1.268
43822W        W 3325  26.041  33.465  13.816
43823W        W 3326  11.728   2.415   3.859
43824W        W 3327  17.669  33.620  10.110
43825W        W 3328  36.887  23.040  11.971
43826W        W 3329  15.324  30.925   4.353
43827W        W 3330  38.441  23.203  11.546
43828W        W 3331  44.815  35.970   3.650
43829W        W 3332  44.790  30.080   2.849
43830W        W 3333  26.071  30.545  13.380
43831W        W 3334   2.882  34.571   1.249
43832W        W 3335  20.163  13.352   5.085
43833W        W 3336  15.107  11.147  12.489
43834W        W 3337  25.169   4.358   2.305
43835W        W 3338  43.326  32.091   3.631
43836W        W 3339  41.344  32.583   0.772
43837W        W 3340   1.252  12.711  12.032
43838W        W 3341  41.797  36.078   3.241
43839W        W 3342  23.494  26.597  14.011
43840W        W 3343  36.402  26.487   4.776
43841W        W 3344  27.017  42.429  13.472
43842W        W 3345  21.726  32.015   3.728
43843W        W 3346   9.669  43.970   0.262
43844W        W 3347  37.073  17.069   0.746
43845W        W 3348  19.226   5.797  11.407
43846W        W 3349  20.755  30.031   0.734
43847W        W 3350  17.218   7.798  10.975
43848W        W 3351  26.661  27.685  14.975
43849W        W 3352  44.461   1.795  14.797
43850W        W 3353  20.707  39.018   4.762
43851W        W 3354  38.483  41.516  12.389
43852W        W 3355  14.830  25.645   1.907
43853W        W 3356  43.967  41.817   2.241
43854W        W 3357  20.141  25.002   2.724
43855W        W 3358   0.811  16.783  11.524
43856W        W 3359   3.776  36.918  14.464
43857W        W 3360  21.055  13.345  14.763
43858W        W 3361  13.776   9.168  10.420
43859W        W 3362  21.114  18.643  14.016
43860W        W 3363  26.513  41.527  14.447
43861W        W 3364  27.942  27.613   4.226
43862W        W 3365  35.973  40.339   0.823
43863W        W 3366  31.407  23.098   3.198
43864W        W 3367   8.800  32.903  10.913
43865W        W 3368  20.618  20.627  13.495
43866W        W 3369  10.741  38.447  11.473
43867W        W 3370  17.619  35.399   3.804
43868W        W 3371   4.908  32.921  10.012
43869W        W 3372  14.684  33.077   0.392
43870W        W 3373  37.405  30.105  11.107
43871W        W 3374   9.290  19.269  11.975
43872W        W 3375  10.270  32.076   1.281
43873W        W 3376  43.393  35.977  14.005
43874W        W 3377  22.706  13.840  12.947
43875W        W 3378  32.470  16.752  14.471
43876W        W 3379  31.641   3.915   2.845
43877W        W 3380  16.644  21.722  13.528
43878W        W 3381   0.479  38.395  13.792
43879W        W 3382  38.940  43.433   1.902
43880W        W 3383  39.916  27.499   3.336
43881W        W 3384  40.447  41.019   3.799
43882W        W 3385  11.228  24.077   2.329
43883W        W 3386  23.200  29.509  14.810
43884W        W 3387  33.040  30.155  14.432
43885W        W 3388  11.832   8.232  13.377
43886W        W 3389  24.990  30.419  10.610
43887W        W 3390  39.811  31.546  11.024
43888W        W 3391   9.179   1.424  10.581
43889W        W 3392  40.421  29.943   4.758
43890W        W 3393  13.674  34.482  10.484
43891W        W 3394  29.987  35.105  14.429
43892W        W 3395  36.977  14.220   2.760
43893W        W 3396  20.050   2.898   0.965
43894W        W 3397  18.620  21.728   0.321
43895W        W 3398   9.348  29.960   3.303
43896W        W 3399   8.242  44.793  10.585
43897W        W 3400  22.597  27.450  12.836
43898W        W 3401  15.213  27.560  11.891
43899W        W 3402  14.588   1.905   5.290
43900W        W 3403  17.303   1.770   1.358
43901W        W 3404  32.946  35.485   2.388
43902W        W 3405  18.162  16.272   4.286
43903W        W 3406  44.973  26.176   0.422
43904W        W 3407   0.870  44.854   2.208
43905W        W 3408  32.078  29.430   5.732
43906W        W 3409  11.141  15.183  12.493
43907W        W 3410  23.078   6.286   1.282
43908W        W 3411  39.402  14.784   4.669
43909W        W 3412  41.840   8.393   3.723
43910W        W 3413   1.836  32.905  13.801
43911W        W 3414  13.814  12.186   3.757
43912W        W 3415  33.963   2.767  13.428
43913W        W 3416  15.590  28.609   2.899
43914W        W 3417  44.415  19.559  14.387
43915W        W 3418  17.603  26.565  13.507
43916W        W 3419   1.302  41.015   2.372
43917W        W 3420   5.829   8.741   1.395
43918W        W 3421  13.290  43.901   1.430
43919W        W 3422  42.434   9.208   0.437
43920W        W 3423  23.183  21.175   4.287
43921W        W 3424  21.141   6.867   4.333
43922W        W 3425   2.757   4.237   0.780
43923W        W 3426  14.638  33.130  14.848
43924W        W 3427  35.367  13.694  12.013
43925W        W 3428  25.214   2.290   1.266
43926W        W 3429  23.515  36.389  11.095
43927W        W 3430  17.290  43.330  13.375
43928W        W 3431  43.806  23.636   0.325
43929W        W 3432  36.383   8.852  11.442
43930W        W 3433  11.718  26.700   0.263
43931W        W 3434  16.284  17.094  10.979
43932W        W 3435  26.111  36.978  10.478
43933W        W 3436  39.040  38.873   3.831
43934W        W 3437  31.436   6.332   3.821
43935W        W 3438  12.190  20.739  10.630
43936W        W 3439  39.974  26.483   1.262
43937W        W 3440   8.707  18.100  14.469
43938W        W 3441  23.604  27.651   4.778
43939W        W 3442  33.943  15.193  13.323
43940W        W 3443  43.428  23.679  14.403
43941W        W 3444  12.235  23.177  14.847
43942W        W 3445  30.035  29.643  14.870
43943W        W 3446   2.918   4.297  14.773
43944W        W 3447   5.361   9.657  11.587
43945W        W 3448   6.780  38.025  14.855
43946W        W 3449  18.578  19.566   4.234
43947W        W 3450  22.110  10.682   0.939
43948W        W 3451  15.232  32.508   0.331
43949W        W 3452  28.435  33.561   1.776
43950W        W 3453  24.545  32.938   4.691
43951W        W 3454  16.590  18.179  11.969
43952W        W 3455  34.922  42.432   0.759
43953W        W 3456  13.825  18.765  13.385
43954W        W 3457  20.243  16.211   4.765
43955W        W 3458  37.011   2.876  11.376
43956W        W 3459   3.355   3.949   5.307
43957W        W 3460  16.213  24.111  12.391
43958W        W 3461  29.495  42.287  13.837
43959W        W 3462  30.460  16.722  10.483
43960W        W 3463  35.856  18.267   1.774
43961W        W 3464   6.236   4.870  14.450
43962W        W 3465  37.340   2.881   1.728
43963W        W 3466  44.980  13.810   1.233
43964W        W 3467   0.469  29.667  12.896
43965W        W 3468  10.868  25.687  13.944
43966W        W 3469   1.870   3.953  11.943
43967W        W 3470  31.484  43.836  10.915
43968W        W 3471  25.167  29.088   2.180
43969W        W 3472  27.640  11.167  10.919
43970W        W 3473  25.195  33.552   1.272
43971W        W 3474  34.438  10.701  14.392
43972W        W 3475  19.227  40.350  12.559
43973W        W 3476   4.734  30.508  11.865
43974W        W 3477  28.176  13.827   4.835
43975W        W 3478  20.161   3.952  12.497
43976W        W 3479  42.857  41.476   4.127
43977W        W 3480  24.059  33.967  11.434
43978W        W 3481  24.665  24.167  12.531
43979W        W 3482   8.718  34.984   9.954
43980W        W 3483   5.223  37.953  14.880
43981W        W 3484  38.443   1.738   2.274
43982W        W 3485  33.998  41.414  12.998
43983W        W 3486  26.135  43.926   4.229
43984W        W 3487   7.179   4.422  14.958
43985W        W 3488   2.323  42.413   2.729
43986W        W 3489  37.509  40.479   2.408
43987W        W 3490  37.532  37.390   1.914
43988W        W 3491   3.306  15.588  13.430
43989W        W 3492  37.519   7.786  10.611
43990W        W 3493  25.708   9.224   2.723
43991W        W 3494  43.424  17.792  10.434
43992W        W 3495   5.310  28.019  13.517
43993W        W 3496  23.518  38.520   3.290
43994W        W 3497  34.543   5.356   2.399
43995W        W 3498   1.803  32.889  14.930
43996W        W 3499  15.760  16.808  12.051
43997W        W 3500  13.810   9.731  14.289
43998W        W 3501  14.654   5.325  12.580
43999W        W 3502  13.343  12.279   4.623
44000W        W 3503  37.497  25.600  11.063
44001W        W 3504  39.394  26.680  12.386
44002W        W 3505   4.769  40.495   4.659
44003W        W 3506  36.484  10.240  10.626
44004W        W 3507  21.578  35.550  14.856
44005W        W 3508  15.259  23.080   2.759
44006W        W 3509  11.639  25.559  13.398
44007W        W 3510  21.051  19.256  10.998
44008W        W 3511   9.656  11.743  12.510
44009W        W 3512  15.731  35.009   2.828
44010W        W 3513   5.237  22.590  12.998
44011W        W 3514  36.912  28.943   1.843
44012W        W 3515  29.084  21.599   4.679
44013W        W 3516  40.909  12.362   3.172
44014W        W 3517  19.631  16.799   1.426
44015W        W 3518  12.336  42.789  12.068
44016W        W 3519  42.359  39.904  13.321
44017W        W 3520  17.568  13.819  13.397
44018W        W 3521  33.536  38.869  12.573
44019W        W 3522   3.891  31.615  10.921
44020W        W 3523  43.956  39.890  14.427
44021W        W 3524  20.254   0.297   5.710
44022W        W 3525  34.062   9.186   1.308
44023W        W 3526  34.024  37.008   2.754
44024W        W 3527  36.074  18.631  10.910
44025W        W 3528   0.857  25.146  10.069
44026W        W 3529  14.834   2.801  12.825
44027W        W 3530  20.748  41.430  13.408
44028W        W 3531  13.703   0.427   2.795
44029W        W 3532  19.677  26.525  13.940
44030W        W 3533  11.774  18.683  14.433
44031W        W 3534  30.962  27.552  10.505
44032W        W 3535  19.202  11.215   0.245
44033W        W 3536  34.028  38.820  12.880
44034W        W 3537  27.455  30.981   1.279
44035W        W 3538   9.859  19.091  12.900
44036W        W 3539  38.420  20.240  13.910
44037W        W 3540  23.729  14.217   1.212
44038W        W 3541  38.460  38.401   3.227
44039W        W 3542  34.867   4.275   3.640
44040W        W 3543  20.245  25.017   1.722
44041W        W 3544  26.185  27.999  12.863
44042W        W 3545  17.285  31.409  11.991
44043W        W 3546  14.676  13.236  12.504
44044W        W 3547  44.325  39.904  11.564
44045W        W 3548  16.228  12.303   1.247
44046W        W 3549  38.996  30.086  11.078
44047W        W 3550  14.281  31.067  12.026
44048W        W 3551  26.601  35.435  11.099
44049W        W 3552  35.443  34.102   3.854
44050W        W 3553   8.403  31.595   3.363
44051W        W 3554  31.898  20.216  11.878
44052W        W 3555  38.466  36.049   1.338
44053W        W 3556  36.564  36.576   3.347
44054W        W 3557  26.543  34.499   1.320
44055W        W 3558   6.333   7.780  12.361
44056W        W 3559  38.972  39.460  12.546
44057W        W 3560  16.649  34.046   2.876
44058W        W 3561  40.967  23.025  11.978
44059W        W 3562  25.604  43.801  13.462
44060W        W 3563  33.982   2.399  12.988
44061W        W 3564  31.006  36.854  14.961
44062W        W 3565  39.886  16.693   4.637
44063W        W 3566  44.827  37.847   0.830
44064W        W 3567  39.968   7.758   1.252
44065W        W 3568  28.146  31.422  12.962
44066W        W 3569  12.150  26.475   3.333
44067W        W 3570  29.040  12.837   5.618
44068W        W 3571   5.920  13.653   4.742
44069W        W 3572  40.975  39.006   3.292
44070W        W 3573  22.216  42.509   2.681
44071W        W 3574  24.696  17.653  11.524
44072W        W 3575   8.704  20.556   2.710
44073W        W 3576   1.458  38.022   3.178
44074W        W 3577  12.674  25.981  13.930
44075W        W 3578  40.813  11.677  12.456
44076W        W 3579  36.908  27.119  14.463
44077W        W 3580  39.060  41.027  10.582
44078W        W 3581  11.846  31.622   2.741
44079W        W 3582  27.960   7.684   2.336
44080W        W 3583  41.008  39.488  14.760
44081W        W 3584  28.989  37.444  10.971
44082W        W 3585  18.656  18.240   4.837
44083W        W 3586   8.707  23.014   1.880
44084W        W 3587  36.474  44.374  14.813
44085W        W 3588  23.161  25.537  14.427
44086W        W 3589  23.092  44.330   3.162
44087W        W 3590  13.251  17.656  14.452
44088W        W 3591  41.837   1.796   1.838
44089W        W 3592  28.162  43.783   0.895
44090W        W 3593   3.364  40.011   1.810
44091W        W 3594  27.089  35.502   2.721
44092W        W 3595  39.903  33.407  10.468
44093W        W 3596  36.563  24.716  14.943
44094W        W 3597  20.604  25.538   2.863
44095W        W 3598   4.699   6.884   4.777
44096W        W 3599  30.647   5.781  13.964
44097W        W 3600   3.356  24.719  14.355
44098W        W 3601   1.351   8.404   1.433
44099W        W 3602  37.368  40.010  12.496
44100W        W 3603   0.848  18.640   4.113
44101W        W 3604  15.251  40.887  11.494
44102W        W 3605  28.550  40.368  12.504
44103W        W 3606  26.581  37.965  11.872
44104W        W 3607  28.565  19.172   2.717
44105W        W 3608  43.769  29.125  13.993
44106W        W 3609  11.850  36.888   3.681
44107W        W 3610  22.657  42.819  12.032
44108W        W 3611  11.764  20.269   4.771
44109W        W 3612  18.269  43.411  14.414
44110W        W 3613  23.539   3.381  12.547
44111W        W 3614  43.842  16.709   4.314
44112W        W 3615  43.309  37.527   2.351
44113W        W 3616  17.596  44.939   0.432
44114W        W 3617  35.934  43.397  10.609
44115W        W 3618  19.122   2.465  12.571
44116W        W 3619  13.705  36.987  11.549
44117W        W 3620  28.451   3.315  11.421
44118W        W 3621  21.727  33.022  14.455
44119W        W 3622  35.902  35.449  14.908
44120W        W 3623  40.827  12.341  11.607
44121W        W 3624  21.695   8.778   3.679
44122W        W 3625  10.164  12.770  13.531
44123W        W 3626  14.225  35.059  11.611
44124W        W 3627  28.142  16.590   3.657
44125W        W 3628  14.325  36.910  13.548
44126W        W 3629   0.444  23.695  10.919
44127W        W 3630  26.565  32.616   5.296
44128W        W 3631  22.605  44.943   0.344
44129W        W 3632   3.746  37.924  14.837
44130W        W 3633   6.209  44.501   3.349
44131W        W 3634  17.092  25.011   1.821
44132W        W 3635  28.947  33.888   4.685
44133W        W 3636  16.654  23.647   4.324
44134W        W 3637  37.571   6.280   9.554
44135W        W 3638  37.851  18.734   0.273
44136W        W 3639   9.169  24.588   0.402
44137W        W 3640  27.035  11.848  12.934
44138W        W 3641  17.581  40.946  14.020
44139W        W 3642   2.408  35.569  14.878
44140W        W 3643  10.790  44.945   4.261
44141W        W 3644   6.348   1.860  10.471
44142W        W 3645  33.450  11.659   2.280
44143W        W 3646  38.952  12.822   3.195
44144W        W 3647  10.336  24.717   3.839
44145W        W 3648  30.540   1.906  12.869
44146W        W 3649  11.787  30.055  14.909
44147W        W 3650  35.464   6.866  12.959
44148W        W 3651  25.081  35.958  12.003
44149W        W 3652  35.939  31.408   4.708
44150W        W 3653   9.888  38.539  10.948
44151W        W 3654  12.625   5.780   3.812
44152W        W 3655  39.897  18.769  11.454
44153W        W 3656  11.314   4.309  14.948
44154W        W 3657   4.791  28.655  13.012
44155W        W 3658  43.920   3.426  12.415
44156W        W 3659   6.771  35.979  14.886
44157W        W 3660  40.534   1.400  10.461
44158W        W 3661  30.163   9.835  13.362
44159W        W 3662  31.574  14.715   1.416
44160W        W 3663  35.476  41.918   1.441
44161W        W 3664  38.035  43.838  14.973
44162W        W 3665   0.336  24.692   1.399
44163W        W 3666  38.408   8.210   0.267
44164W        W 3667   8.844  42.996   5.157
44165W        W 3668  28.540   0.486  11.072
44166W        W 3669  12.624  44.901  13.913
44167W        W 3670  39.055  15.731   3.206
44168W        W 3671  25.625  12.831  14.486
44169W        W 3672   3.943  40.050  14.979
44170W        W 3673  33.995  25.652  13.799
44171W        W 3674  44.417  20.126   3.663
44172W        W 3675  23.690   9.171   3.659
44173W        W 3676  11.339  41.942  13.857
44174W        W 3677  12.726  17.571  14.776
44175W        W 3678  14.138  32.888  14.358
44176W        W 3679  17.694  30.954  12.831
44177W        W 3680  33.048  11.345  12.964
44178W        W 3681  17.067  32.125   5.316
44179W        W 3682   6.765  44.949  14.477
44180W        W 3683  30.086  25.475   4.620
44181W        W 3684  15.085   7.845   3.161
44182W        W 3685   2.752  36.554  13.962
44183W        W 3686  31.640  34.531  14.954
44184W        W 3687   4.284  21.171   2.867
44185W        W 3688  37.399  27.561   3.336
44186W        W 3689  24.181  38.359  12.061
44187W        W 3690  34.936  13.760   1.933
44188W        W 3691   7.898   1.814   0.246
44189W        W 3692   8.359  32.528   9.588
44190W        W 3693   2.229  42.823   3.673
44191W        W 3694  43.951  38.429  13.343
44192W        W 3695   3.372  40.040  10.902
44193W        W 3696  16.213   0.455   0.843
44194W        W 3697  19.607  11.183   4.299
44195W        W 3698   5.883  33.124   4.144
44196W        W 3699   7.827  20.713   4.792
44197W        W 3700  17.110   4.811   3.190
44198W        W 3701  40.466  35.602   0.477
44199W        W 3702  30.130  29.941  11.981
44200W        W 3703  31.406  22.048   0.445
44201W        W 3704   9.773  35.493  14.488
44202W        W 3705  17.584  44.824  12.571
44203W        W 3706  21.723  11.208   4.267
44204W        W 3707  41.947  24.147   0.428
44205W        W 3708  20.066  20.178  14.805
44206W        W 3709  15.601  15.741   0.900
44207W        W 3710   8.731  20.573   3.654
44208W        W 3711   8.171  38.510   3.210
44209W        W 3712  18.686   3.342   3.150
44210W        W 3713  41.902   9.684   4.114
44211W        W 3714  36.516  19.271   3.294
44212W        W 3715  26.634  37.512  10.569
44213W        W 3716  13.669  25.042   2.184
44214W        W 3717  10.143  33.046  13.501
44215W        W 3718  24.657   4.252   0.313
44216W        W 3719  40.361  28.964  12.971
44217W        W 3720  35.573   1.857  14.022
44218W        W 3721  16.285  36.587  14.440
44219W        W 3722  19.248  37.988   1.401
44220W        W 3723  14.701  30.524   4.715
44221W        W 3724   7.287  19.703  14.337
44222W        W 3725  44.859  26.068   2.793
44223W        W 3726   8.807  23.178  13.991
44224W        W 3727  40.969  11.703  13.043
44225W        W 3728  37.433  22.694   0.868
44226W        W 3729  17.792   5.804  12.538
44227W        W 3730  19.699   3.793   4.171
44228W        W 3731  26.458  33.519  14.883
44229W        W 3732  16.573   0.312  10.536
44230W        W 3733  28.612  34.999  10.952
44231W        W 3734  26.083   4.279  13.062
44232W        W 3735  18.556  23.152   1.349
44233W        W 3736  28.173  22.038   1.729
44234W        W 3737  37.902  33.587  12.462
44235W        W 3738  22.047  21.688  11.981
44236W        W 3739  35.963  27.037  14.928
44237W        W 3740   9.280  27.505  13.023
44238W        W 3741  15.199  39.511  14.928
44239W        W 3742  29.424   1.806   2.721
44240W        W 3743  26.636   0.428   2.354
44241W        W 3744   2.722  37.490  13.883
44242W        W 3745  42.451  42.452   1.819
44243W        W 3746  27.566  24.497  13.346
44244W        W 3747   9.744  33.131   9.452
44245W        W 3748  14.314  34.042   0.267
44246W        W 3749  33.411   6.371  13.394
44247W        W 3750  22.125   9.237  12.432
44248W        W 3751  28.081  30.126  10.130
44249W        W 3752  30.111  22.061   1.284
44250W        W 3753  24.596  15.732   3.795
44251W        W 3754  25.999  28.492   4.209
44252W        W 3755  27.156  41.513   4.214
44253W        W 3756   0.471   0.895  10.905
44254W        W 3757   5.338  27.600   2.859
44255W        W 3758   3.461  34.993   4.116
44256W        W 3759  26.206  36.980   1.749
44257W        W 3760  32.038  42.023   2.231
44258W        W 3761  20.690  17.609  14.909
44259W        W 3762  42.305  42.877   1.809
44260W        W 3763  34.383  10.747  12.042
44261W        W 3764   4.718  38.519  14.971
44262W        W 3765  19.731  26.012   0.925
44263W        W 3766  31.094   6.354  14.959
44264W        W 3767  32.473   8.753  12.935
44265W        W 3768   8.781  17.578   3.738
44266W        W 3769  39.556  29.919   1.891
44267W        W 3770   8.669  29.574   1.785
44268W        W 3771   1.436  25.712   3.147
44269W        W 3772  25.972  14.598  13.366
44270W        W 3773  28.657  24.661   2.203
44271W        W 3774  18.717  25.099  12.365
44272W        W 3775  19.135  38.943  14.857
44273W        W 3776  18.205  23.668   2.873
44274W        W 3777  39.974  36.468   2.272
44275W        W 3778  29.975  30.012  13.023
44276W        W 3779  32.032  37.051  13.022
44277W        W 3780  31.601   4.345   0.339
44278W        W 3781   1.880  17.132   0.921
44279W        W 3782  17.236  33.555  14.436
44280W        W 3783  11.186   5.433  14.292
44281W        W 3784   8.389  41.838   3.291
44282W        W 3785   4.743  33.412   1.357
44283W        W 3786  37.485   7.826   3.301
44284W        W 3787  38.328  18.786   3.849
44285W        W 3788  42.468  35.376   3.213
44286W        W 3789   5.713  10.657  11.964
44287W        W 3790  21.226  28.575   0.964
44288W        W 3791  18.653  22.581  12.373
44289W        W 3792  23.047  43.801   4.215
44290W        W 3793  33.612  11.748  13.857
44291W        W 3794  41.989  15.625  14.424
44292W        W 3795  13.602  44.293   0.876
44293W        W 3796  39.392  14.687  10.614
44294W        W 3797  10.687  37.343  13.973
44295W        W 3798  37.032  21.018   0.264
44296W        W 3799  10.695  44.964  13.311
44297W        W 3800  25.074  25.047   0.251
44298W        W 3801  14.308  38.869  13.416
44299W        W 3802  20.232  35.586   4.672
44300W        W 3803  36.904  21.746  10.633
44301W        W 3804  39.824  12.687  13.353
44302W        W 3805  24.643  24.673  14.369
44303W        W 3806   7.700  12.162   4.666
44304W        W 3807  13.338  29.164  14.494
44305W        W 3808  21.040  38.931   5.098
44306W        W 3809   9.251  27.970  10.050
44307W        W 3810  32.393   9.817   4.249
44308W        W 3811  43.878  10.191  11.976
44309W        W 3812   8.396  38.057  11.535
44310W        W 3813  35.410   6.263  11.513
44311W        W 3814  12.675  18.207   2.754
44312W        W 3815  33.904  37.559   3.638
44313W        W 3816  34.492   0.939  14.275
44314W        W 3817  43.798  22.106   2.330
44315W        W 3818  27.166  13.813  10.545
44316W        W 3819  11.624  14.668   1.883
44317W        W 3820  36.427  14.225   5.174
44318W        W 3821  36.094  40.469  14.812
44319W        W 3822   6.198  44.272  10.465
44320W        W 3823   4.236  18.198   4.140
44321W        W 3824  27.016  38.897   4.264
44322W        W 3825   6.797   3.352  14.964
44323W        W 3826  16.179  32.587   2.340
44324W        W 3827  11.770   2.404  13.037
44325W        W 3828  19.667  19.137   3.201
44326W        W 3829  23.648  20.575  14.424
44327W        W 3830  14.609  44.291   2.206
44328W        W 3831  21.153  30.947   5.291
44329W        W 3832  14.226  20.684   3.314
44330W        W 3833   7.685  34.019  13.836
44331W        W 3834  10.659  26.051   4.224
44332W        W 3835  27.670  34.952   4.813
44333W        W 3836   6.810  15.724  11.397
44334W        W 3837   5.229  35.929   3.826
44335W        W 3838  17.119  22.061   0.474
44336W        W 3839  40.830  14.755  10.975
44337W        W 3840   3.252  25.485   2.274
44338W        W 3841  10.152  11.331   4.663
44339W        W 3842   8.308  42.790  13.848
44340W        W 3843  11.207  31.080  12.389
44341W        W 3844   8.819  26.161  13.829
44342W        W 3845  36.951  26.192   2.256
44343W        W 3846  26.551  21.055   4.149
44344W        W 3847  36.542  39.512  11.018
44345W        W 3848  15.794  43.820  14.474
44346W        W 3849   9.369  33.481   0.374
44347W        W 3850  25.201  22.523   0.844
44348W        W 3851  21.743   4.447   1.389
44349W        W 3852  13.833  12.657  13.981
44350W        W 3853  39.516   1.879   3.289
44351W        W 3854   8.678  12.199   4.355
44352W        W 3855  44.930  13.271   0.826
44353W        W 3856   7.881  26.678   1.314
44354W        W 3857   6.813  38.915   2.830
44355W        W 3858  11.320  28.574  13.394
44356W        W 3859   6.342  10.353   0.441
44357W        W 3860   0.908   6.235  13.950
44358W        W 3861  11.647  19.142  11.444
44359W        W 3862  20.268   2.241   0.280
44360W        W 3863   9.654  16.087   2.718
44361W        W 3864  34.402  40.911   4.715
44362W        W 3865  29.495  41.474   0.924
44363W        W 3866  40.894  41.511   0.783
44364W        W 3867  24.225   2.910   9.920
44365W        W 3868   2.275  35.911   4.332
44366W        W 3869  44.888  19.269   2.204
44367W        W 3870   1.289  36.976  14.309
44368W        W 3871  25.690  19.625  10.908
44369W        W 3872  14.300  10.169  11.114
44370W        W 3873  30.563  38.510   3.159
44371W        W 3874  40.326  11.707  12.887
44372W        W 3875  18.592   1.753   2.302
44373W        W 3876   1.351   4.778  12.883
44374W        W 3877  32.889  34.580   3.767
44375W        W 3878  18.577   0.960  10.014
44376W        W 3879  42.924  31.051   1.278
44377W        W 3880  19.204  13.807   4.273
44378W        W 3881  17.281  12.722   1.259
44379W        W 3882  38.934  18.575   3.732
44380W        W 3883  30.091   7.756  10.924
44381W        W 3884  30.909  11.776  12.578
44382W        W 3885  14.832   3.264   3.380
44383W        W 3886  19.719  31.438  12.495
44384W        W 3887   2.949  28.602  13.058
44385W        W 3888  19.674  35.968   4.811
44386W        W 3889  14.188  42.861   2.329
44387W        W 3890  27.458   2.296   3.803
44388W        W 3891  40.996   2.826   3.796
44389W        W 3892  22.508   5.724   1.349
44390W        W 3893  34.393   0.418   0.304
44391W        W 3894  41.909   4.897  13.338
44392W        W 3895  29.491   6.199  10.948
44393W        W 3896  22.191  21.591   1.391
44394W        W 3897   9.289  14.600  12.900
44395W        W 3898   1.294  24.082   3.192
44396W        W 3899  42.326   5.819   3.192
44397W        W 3900  14.332   0.415   1.270
44398W        W 3901  30.479  32.487  13.824
44399W        W 3902  39.911  37.893  13.378
44400W        W 3903  31.983  43.817  14.789
44401W        W 3904  13.831  32.120   2.213
44402W        W 3905   5.396   0.896   1.758
44403W        W 3906  12.346  38.544   1.903
44404W        W 3907   9.754  17.605  12.022
44405W        W 3908  28.977  12.751   0.456
44406W        W 3909   5.864  15.213   0.427
44407W        W 3910  17.691  21.741   1.344
44408W        W 3911  28.514   9.312  14.511
44409W        W 3912  16.240  32.907   4.284
44410W        W 3913  39.427  15.258  11.011
44411W        W 3914   3.838  20.744  14.763
44412W        W 3915  16.122  18.633  13.448
44413W        W 3916   0.350   3.755   0.437
44414W        W 3917  24.582  17.618  10.508
44415W        W 3918  17.204  23.627   9.940
44416W        W 3919  12.610  15.589   4.773
44417W        W 3920  39.436   6.360  10.929
44418W        W 3921  36.348  25.702   4.217
44419W        W 3922   6.275  29.150   3.736
44420W        W 3923  18.155  24.528   1.382
44421W        W 3924   1.398  31.085  14.850
44422W        W 3925   2.831  23.034  12.909
44423W        W 3926   2.893   9.816   0.482
44424W        W 3927  43.421  34.503   3.344
44425W        W 3928  22.641  25.019   0.468
44426W        W 3929  42.380   7.248   0.904
44427W        W 3930  17.086  11.186   4.334
44428W        W 3931  18.629  20.033   2.285
44429W        W 3932  27.982  37.965   2.321
44430W        W 3933   8.170  35.969  13.376
44431W        W 3934  16.614  22.700  12.921
44432W        W 3935  14.795  14.135   5.315
44433W        W 3936   0.949  40.321   1.859
44434W        W 3937  15.585  24.186   1.271
44435W        W 3938  18.069  30.476  11.590
44436W        W 3939   5.749  32.001   3.195
44437W        W 3940  11.719  30.622   5.315
44438W        W 3941  26.173  11.232  12.912
44439W        W 3942  24.709  14.808   3.680
44440W        W 3943   2.314  24.107   5.796
44441W        W 3944   5.258  22.659   2.694
44442W        W 3945   2.741  27.485   0.875
44443W        W 3946   9.177   3.746  12.443
44444W        W 3947  18.690   9.713   1.734
44445W        W 3948  41.504  44.470  11.984
44446W        W 3949  11.727  12.681  14.006
44447W        W 3950  42.996  35.568   1.802
44448W        W 3951   9.340  27.023   3.379
44449W        W 3952  38.029   8.333   3.210
44450W        W 3953  39.428  12.291  10.574
44451W        W 3954  40.027  26.976  12.524
44452W        W 3955  11.234   7.189   3.191
44453W        W 3956  27.101  19.541   3.147
44454W        W 3957  32.104  38.042   4.772
44455W        W 3958  26.182  11.679   3.196
44456W        W 3959  14.671  36.946   4.137
44457W        W 3960  23.498  13.614   3.833
44458W        W 3961  22.509  33.384  13.982
44459W        W 3962  11.358  14.207   2.759
44460W        W 3963  25.995  44.936  13.857
44461W        W 3964  39.400  18.638  12.074
44462W        W 3965  19.044   3.226   0.868
44463W        W 3966  38.940   5.392  13.407
44464W        W 3967  25.159  29.113   0.357
44465W        W 3968  37.483  13.663  13.356
44466W        W 3969   3.291  41.390  13.038
44467W        W 3970   4.847  41.420   3.197
44468W        W 3971   6.361  25.575   0.329
44469W        W 3972  13.674   3.790   3.265
44470W        W 3973   7.831  42.859   0.400
44471W        W 3974  29.508  27.578   2.721
44472W        W 3975  40.486  15.637   5.189
44473W        W 3976  37.903  42.347   2.288
44474W        W 3977  35.382   8.359   4.806
44475W        W 3978  15.150  19.663   4.315
44476W        W 3979  26.985  36.384  12.435
44477W        W 3980  36.549  43.832  12.989
44478W        W 3981  28.586  22.174   2.201
44479W        W 3982   4.335   4.902   0.757
44480W        W 3983   1.247  38.845  11.410
44481W        W 3984  11.309  39.901   1.809
44482W        W 3985   2.373   8.350   0.933
44483W        W 3986  21.204   5.349  13.861
44484W        W 3987  31.450  39.350  14.468
44485W        W 3988  32.409  41.859   3.731
44486W        W 3989  29.046  43.952  13.797
44487W        W 3990  23.526  35.097  13.528
44488W        W 3991   4.720  17.166   4.154
44489W        W 3992  30.149  21.252  10.569
44490W        W 3993  19.631   7.352   4.618
44491W        W 3994  31.112  36.465   3.186
44492W        W 3995   9.159  25.976   3.860
44493W        W 3996   0.477   2.774  13.880
44494W        W 3997  26.117  27.071  11.606
44495W        W 3998   2.785  38.400  14.875
44496W        W 3999  24.214  26.189   2.852
44497W        W 4000  12.162   4.250  10.904
44498W        W 4001  14.274  14.835  13.519
44499W        W 4002  27.047  21.697  11.455
44500W        W 4003   4.756  37.028  13.995
44501W        W 4004  31.627  40.872   3.803
44502W        W 4005  41.988  18.654   1.765
44503W        W 4006  30.560  37.870  14.494
44504W        W 4007  28.585  32.538   2.268
44505W        W 4008  42.948  10.216   1.885
44506W        W 4009  25.540  33.877  14.972
44507W        W 4010  18.183  18.603  12.030
44508W        W 4011   9.337   1.365   3.641
44509W        W 4012  14.695  32.975  10.025
44510W        W 4013  11.207   6.769   1.927
44511W        W 4014  22.056  39.941   3.321
44512W        W 4015   5.410   0.313  14.780
44513W        W 4016  21.552  31.609   0.838
44514W        W 4017  17.621  28.187  10.642
44515W        W 4018   1.352  18.085  12.420
44516W        W 4019  35.939   4.223   2.369
44517W        W 4020  17.144  26.623  13.014
44518W        W 4021  31.458  31.628  14.468
44519W        W 4022  37.450   0.959  13.421
44520W        W 4023  38.501  16.227  12.966
44521W        W 4024  16.704  24.091  13.393
44522W        W 4025  26.076  10.798  10.563
44523W        W 4026   2.323  24.078   2.834
44524W        W 4027  28.161  23.641  11.922
44525W        W 4028   1.430  35.453  11.519
44526W        W 4029  16.692   2.774  13.848
44527W        W 4030  25.032  38.991   1.257
44528W        W 4031  33.410  25.968  10.507
44529W        W 4032  34.044  12.258  12.052
44530W        W 4033  41.002  38.412  13.379
44531W        W 4034  31.907  33.501  11.553
44532W        W 4035  22.203  25.011   3.853
44533W        W 4036  19.090   1.852   1.746
44534W        W 4037   4.928   8.773  13.444
44535W        W 4038  35.423  31.574   1.395
44536W        W 4039  29.602  34.495   1.372
44537W        W 4040  12.318  39.022   0.291
44538W        W 4041   6.297  44.439   0.335
44539W        W 4042  25.642  43.510  14.363
44540W        W 4043   2.911  30.559  14.405
44541W        W 4044   3.450  36.980   2.848
44542W        W 4045  13.841  41.533   4.155
44543W        W 4046  17.613  32.938  10.915
44544W        W 4047  15.195  23.232   4.259
44545W        W 4048   7.217  23.024  11.599
44546W        W 4049  14.729  27.095  12.928
44547W        W 4050  44.839  21.590   4.788
44548W        W 4051  27.164  30.161  14.775
44549W        W 4052  20.159  19.232  11.487
44550W        W 4053  19.686  20.695  11.382
44551W        W 4054  31.982  34.509  10.405
44552W        W 4055  28.623  34.453   4.283
44553W        W 4056   5.865  29.553  10.554
44554W        W 4057  10.865  39.360   1.237
44555W        W 4058  42.841  17.718  14.335
44556W        W 4059  41.516  18.704  10.899
44557W        W 4060  32.567  33.941   1.859
44558W        W 4061  30.492  25.689   4.754
44559W        W 4062   5.864  42.959   9.446
44560W        W 4063   2.464  20.678  12.495
44561W        W 4064  13.268  43.832  11.020
44562W        W 4065  38.391  40.517   0.818
44563W        W 4066  23.719  21.580  11.924
44564W        W 4067  24.694  38.523   0.320
44565W        W 4068  19.629   4.315  13.907
44566W        W 4069  30.572  31.945   4.675
44567W        W 4070  12.231  29.441   0.793
44568W        W 4071   3.390  25.514  12.372
44569W        W 4072   2.267   7.363  13.368
44570W        W 4073  43.400   9.890   1.385
44571W        W 4074   7.292  40.848  12.339
44572W        W 4075  22.685  13.117  10.140
44573W        W 4076  37.408   0.481  12.441
44574W        W 4077  24.624  11.751   0.437
44575W        W 4078  26.642   0.985   3.326
44576W        W 4079  22.033  11.663  12.858
44577W        W 4080  13.143  26.122  13.535
44578W        W 4081  17.623  15.110   0.737
44579W        W 4082  42.403  29.465  10.407
44580W        W 4083   4.267   8.270  11.114
44581W        W 4084  40.952  26.979  12.913
44582W        W 4085  39.417   8.846  11.603
44583W        W 4086  19.273  33.906  10.417
44584W        W 4087   9.746  18.778   2.295
44585W        W 4088  41.988  30.058  13.927
44586W        W 4089  20.200  24.100  14.276
44587W        W 4090  28.564  24.514  10.437
44588W        W 4091   1.844  36.954   3.290
44589W        W 4092  29.142  29.447   2.301
44590W        W 4093  36.375   6.758  12.538
44591W        W 4094  32.478  27.635  14.358
44592W        W 4095   5.876   3.738  11.123
44593W        W 4096   5.884  28.487   0.405
44594W        W 4097  36.919  33.528   1.274
44595W        W 4098  16.147  32.392  10.931
44596W        W 4099  30.485  34.369   3.246
44597W        W 4100  25.217  18.167  13.042
44598W        W 4101   2.343  16.086   3.705
44599W        W 4102   4.774  41.518  14.425
44600W        W 4103   2.424   4.821   5.260
44601W        W 4104   1.279  42.926   2.662
44602W        W 4105  42.350  42.966  11.572
44603W        W 4106  32.092  31.083  10.977
44604W        W 4107   1.281  28.140  12.851
44605W        W 4108  39.886   0.470  10.582
44606W        W 4109  23.082  34.979  12.912
44607W        W 4110  22.712  41.511  12.002
44608W        W 4111  34.568  22.250   2.193
44609W        W 4112  31.529   2.468   4.633
44610W        W 4113  41.435  37.462  12.928
44611W        W 4114  36.077  18.579  11.559
44612W        W 4115  16.715  28.616   3.207
44613W        W 4116  31.402  11.228  10.529
44614W        W 4117   3.319  14.721  13.968
44615W        W 4118  28.159  44.393   4.353
44616W        W 4119  11.330  30.451   5.318
44617W        W 4120  15.151  22.702  13.378
44618W        W 4121  23.229  41.477   1.283
44619W        W 4122  31.904  31.091   1.865
44620W        W 4123  24.563   3.374  14.925
44621W        W 4124   9.179  28.049   0.466
44622W        W 4125   3.443  22.542   0.336
44623W        W 4126  13.157  23.212  13.537
44624W        W 4127  18.238  22.022  10.639
44625W        W 4128  25.966  15.284  12.415
44626W        W 4129  23.535  13.241  14.385
44627W        W 4130   3.938  16.096   1.305
44628W        W 4131  19.690  20.219   4.305
44629W        W 4132  27.031  27.036  14.815
44630W        W 4133   2.964  27.637  13.370
44631W        W 4134  38.058  17.111   1.337
44632W        W 4135   2.339  17.564  13.879
44633W        W 4136  34.924  30.995   0.868
44634W        W 4137  39.531   6.890   0.283
44635W        W 4138  32.886  13.233  14.951
44636W        W 4139   6.916  32.469   0.437
44637W        W 4140  20.147  34.082  11.047
44638W        W 4141   2.226  11.734  12.416
44639W        W 4142   8.673  24.049  11.086
44640W        W 4143  30.018  36.356  12.969
44641W        W 4144   8.346  12.768   0.940
44642W        W 4145  12.719  21.611  14.459
44643W        W 4146  35.003   7.862  11.603
44644W        W 4147  18.176  43.419   1.896
44645W        W 4148   1.478  23.164  10.557
44646W        W 4149   3.393  24.121  11.375
44647W        W 4150  16.087  32.939  14.288
44648W        W 4151  26.980  26.957   2.854
44649W        W 4152   8.166  32.017   1.431
44650W        W 4153   2.409  27.569  14.791
44651W        W 4154  39.032  39.879  14.921
44652W        W 4155  15.650  39.963   1.694
44653W        W 4156  27.631  25.077   4.692
44654W        W 4157  40.444  26.074  13.500
44655W        W 4158  31.566  16.741  14.324
44656W        W 4159   3.719   5.930  13.959
44657W        W 4160  16.273  36.046  14.453
44658W        W 4161  17.075  34.405  10.552
44659W        W 4162  44.416   7.742  10.148
44660W        W 4163  35.555  15.668   4.608
44661W        W 4164   8.840   9.783  14.966
44662W        W 4165  20.064  28.606   4.670
44663W        W 4166  17.267  41.512   1.273
44664W        W 4167   9.792  10.695   1.933
44665W        W 4168  42.849  16.777  12.823
44666W        W 4169  40.006  31.441  14.978
44667W        W 4170  29.111  24.625  10.894
44668W        W 4171  30.140  22.061   3.785
44669W        W 4172  23.529  26.542  14.764
44670W        W 4173   9.150  18.751  12.836
44671W        W 4174  29.517  15.107   4.824
44672W        W 4175  26.693  13.768   4.220
44673W        W 4176   2.889   1.920  12.835
44674W        W 4177  14.319  44.394   1.229
44675W        W 4178  18.194   3.352   4.640
44676W        W 4179  40.894  30.426   4.737
44677W        W 4180   8.354  17.719  14.293
44678W        W 4181  22.052  34.054  11.115
44679W        W 4182  19.074  21.170  13.400
44680W        W 4183   5.309  15.621  12.562
44681W        W 4184   0.914   3.879  13.956
44682W        W 4185  10.727   3.810   2.863
44683W        W 4186  13.213  40.963  14.397
44684W        W 4187  34.119  21.192  13.330
44685W        W 4188  36.540  42.417   0.950
44686W        W 4189  33.466  29.448  12.517
44687W        W 4190  20.674  12.179  10.475
44688W        W 4191   9.821  39.548   0.730
44689W        W 4192  17.143   1.764  13.348
44690W        W 4193   5.385  10.356  11.594
44691W        W 4194  37.385  19.235   0.426
44692W        W 4195  22.559  44.315  11.957
44693W        W 4196  14.168  42.807   1.805
44694W        W 4197   0.926   7.237  10.639
44695W        W 4198  34.570   6.771  14.411
44696W        W 4199  23.501  39.381   2.777
44697W        W 4200  39.451  41.392  11.957
44698W        W 4201  24.021  30.518  10.116
44699W        W 4202  11.328  43.769  13.474
44700W        W 4203  24.193   2.456  11.476
44701W        W 4204  20.042  43.448   4.241
44702W        W 4205   0.810  24.162  10.541
44703W        W 4206  42.921  32.432   3.723
44704W        W 4207  31.490  42.390   3.262
44705W        W 4208  35.017  21.734  12.988
44706W        W 4209  39.350  39.480   2.249
44707W        W 4210   1.746  41.885  14.339
44708W        W 4211  35.098  31.985   2.381
44709W        W 4212  34.613  10.663  11.566
44710W        W 4213  22.691  42.354   1.439
44711W        W 4214   4.226   4.212  14.341
44712W        W 4215  27.591  31.558   0.833
44713W        W 4216  33.035   6.308  10.546
44714W        W 4217  30.988   0.354  10.955
44715W        W 4218  26.478  20.140  12.410
44716W        W 4219  15.239  27.971   3.832
44717W        W 4220  24.974  17.780  13.031
44718W        W 4221  12.744  26.511  11.505
44719W        W 4222  21.640  23.033  14.504
44720W        W 4223  21.164  36.529   5.200
44721W        W 4224   2.467  16.629   0.275
44722W        W 4225  17.290  32.996  11.948
44723W        W 4226  26.493  38.462   0.804
44724W        W 4227  25.648  37.924  11.944
44725W        W 4228   2.958   0.870   0.853
44726W        W 4229  16.124  14.213   1.724
44727W        W 4230  21.532   5.773  12.970
44728W        W 4231  27.509  13.752  12.092
44729W        W 4232  15.252  24.203  14.870
44730W        W 4233  10.671  44.916   3.174
44731W        W 4234  19.082  19.040  13.483
44732W        W 4235  43.868  43.933   4.260
44733W        W 4236  41.392  31.005  14.431
44734W        W 4237  27.031  39.375  10.572
44735W        W 4238  35.405   1.311   3.785
44736W        W 4239   9.326  35.555   0.883
44737W        W 4240  12.273   8.286  13.977
44738W        W 4241  34.025  34.120  10.614
44739W        W 4242  21.258  39.054   4.813
44740W        W 4243  32.140  24.519  14.937
44741W        W 4244  30.516   0.977   1.777
44742W        W 4245  41.386  21.581  11.954
44743W        W 4246  23.604   4.382   4.158
44744W        W 4247   6.748  44.464  10.938
44745W        W 4248  21.661  36.565  14.847
44746W        W 4249  27.533  22.680  13.370
44747W        W 4250  41.902  18.692   4.188
44748W        W 4251  22.241  24.486  14.290
44749W        W 4252  13.144   9.665  13.012
44750W        W 4253  38.355   8.169  11.914
44751W        W 4254  38.993  15.730  14.854
44752W        W 4255  27.042  26.986   0.377
44753W        W 4256  36.395  17.293   4.775
44754W        W 4257  28.059  10.217   3.666
44755W        W 4258   3.277  27.109   0.931
44756W        W 4259  25.219  11.750   0.378
44757W        W 4260  43.358  38.407   4.331
44758W        W 4261  12.648   7.351   3.346
44759W        W 4262  24.670  35.852  11.438
44760W        W 4263  35.519  23.673  11.049
44761W        W 4264  31.112  16.109  10.965
44762W        W 4265  32.025  24.511  10.587
44763W        W 4266  40.518  43.300  13.869
44764W        W 4267   8.693   8.657   3.269
44765W        W 4268  42.926   6.754   9.510
44766W        W 4269  33.076   8.317   2.773
44767W        W 4270   0.286  20.099  10.639
44768W        W 4271   0.454  18.245   3.236
44769W        W 4272  40.865  32.998   2.398
44770W        W 4273  20.605   7.325  10.519
44771W        W 4274  14.635  23.622   1.766
44772W        W 4275  43.017  22.619  12.479
44773W        W 4276  40.377   8.678  14.885
44774W        W 4277  24.148   8.180  11.965
44775W        W 4278   4.848  39.809  11.033
44776W        W 4279  32.071  35.506   3.214
44777W        W 4280  15.686  13.161  10.570
44778W        W 4281   5.865  23.665   0.320
44779W        W 4282  44.844  34.447   2.366
44780W        W 4283   1.380   1.320  14.457
44781W        W 4284  10.634   7.864   4.615
44782W        W 4285  17.063   9.833   0.932
44783W        W 4286   0.288  24.660  11.375
44784W        W 4287  14.744  22.130  12.459
44785W        W 4288  26.626  35.514  13.977
44786W        W 4289  40.410   5.821   3.369
44787W        W 4290  24.490   7.733  10.547
44788W        W 4291  22.124  32.087  12.919
44789W        W 4292  21.062  28.105   2.315
44790W        W 4293   9.644  31.972   5.191
44791W        W 4294  33.510  35.969  11.528
44792W        W 4295  27.653  44.935   4.296
44793W        W 4296  32.632  21.749  14.022
44794W        W 4297  40.018  11.152   4.227
44795W        W 4298  26.629  14.239   4.291
44796W        W 4299  20.175  43.768   4.609
44797W        W 4300  18.119  37.087   3.629
44798W        W 4301  37.911  39.387   0.941
44799W        W 4302   2.861  41.429   4.726
44800W        W 4303  19.758   5.339   4.671
44801W        W 4304  14.265  33.607  14.882
44802W        W 4305  24.993   8.286  13.502
44803W        W 4306   2.295   0.360  14.945
44804W        W 4307  34.929  42.493  12.864
44805W        W 4308  33.893  19.084  14.786
44806W        W 4309  23.130  34.097  11.443
44807W        W 4310   3.956  32.068  14.489
44808W        W 4311  36.586  10.164  10.943
44809W        W 4312  17.203  35.455   2.395
44810W        W 4313  40.359  40.981   0.427
44811W        W 4314   5.831  34.473  14.497
44812W        W 4315  44.848  18.768   0.796
44813W        W 4316  37.889  28.527  14.372
44814W        W 4317  24.092  20.086  14.315
44815W        W 4318   4.240  13.757   3.779
44816W        W 4319   7.171  18.744  14.309
44817W        W 4320  29.031   0.861   0.850
44818W        W 4321  11.336  20.242   4.143
44819W        W 4322  15.766  25.633   1.795
44820W        W 4323  34.053  29.143   2.759
44821W        W 4324  29.105  29.647   0.792
44822W        W 4325  38.458   3.364   1.383
44823W        W 4326  27.054  40.426  12.894
44824W        W 4327  12.201  34.574   9.516
44825W        W 4328  18.774   4.722   2.900
44826W        W 4329   2.388  37.026  13.971
44827W        W 4330   8.286   8.804   2.270
44828W        W 4331  24.206  35.073  10.104
44829W        W 4332  16.199   8.295   4.206
44830W        W 4333  37.888  15.622  13.874
44831W        W 4334  12.119  10.274   1.906
44832W        W 4335  12.721  36.966   4.302
44833W        W 4336  38.532  30.129  12.954
44834W        W 4337  18.159  27.682   3.662
44835W        W 4338  38.822   6.198   0.400
44836W        W 4339  29.567  43.876  12.393
44837W        W 4340  40.857  15.783   0.371
44838W        W 4341  23.646   8.833  13.385
44839W        W 4342  12.288  13.286   0.372
44840W        W 4343  44.968  32.973  14.809
44841W        W 4344   5.223  16.787   0.376
44842W        W 4345  29.444   5.266   4.710
44843W        W 4346  38.870   8.354  14.023
44844W        W 4347  17.129   8.757  11.022
44845W        W 4348   3.410  38.972  11.538
44846W        W 4349  16.683  12.836  12.835
44847W        W 4350  44.482   7.359  14.830
44848W        W 4351  25.058  28.657   2.688
44849W        W 4352  37.522  38.864   1.817
44850W        W 4353   1.271  19.623   1.426
44851W        W 4354  26.148  27.110  10.414
44852W        W 4355  35.938  33.966   4.242
44853W        W 4356  26.667  43.989   4.116
44854W        W 4357  44.320  23.208   1.934
44855W        W 4358  16.766  42.864  12.849
44856W        W 4359   5.915  22.710   4.726
44857W        W 4360   3.251  24.557   0.882
44858W        W 4361  40.537  11.707  10.956
44859W        W 4362  41.408  14.640  12.096
44860W        W 4363   2.793  16.278  12.428
44861W        W 4364  15.240   4.899  11.587
44862W        W 4365  10.666  14.821   5.666
44863W        W 4366  25.502  43.404   0.431
44864W        W 4367  30.044  16.677   0.858
44865W        W 4368  36.490  35.428   1.810
44866W        W 4369  34.118  16.728  13.814
44867W        W 4370  13.341  20.706  11.996
44868W        W 4371  37.076  33.886   4.810
44869W        W 4372  30.917  32.909  13.437
44870W        W 4373  27.083   1.379   2.778
44871W        W 4374  36.477  15.317   4.214
44872W        W 4375  37.473  34.508  12.836
44873W        W 4376  42.491  25.180   5.249
44874W        W 4377   0.476   6.758   1.396
44875W        W 4378  43.875  28.615   0.852
44876W        W 4379  32.405  25.984  14.494
44877W        W 4380  31.909  11.820  12.373
44878W        W 4381  19.098  30.469   0.304
44879W        W 4382   4.375  32.118  11.384
44880W        W 4383  28.097  41.382  13.875
44881W        W 4384  25.664  39.401   1.395
44882W        W 4385  19.228  10.840  11.610
44883W        W 4386  18.255  23.195  12.979
44884W        W 4387   0.863  13.829   3.663
44885W        W 4388  20.545   3.788   1.333
44886W        W 4389   7.733  20.044  10.559
44887W        W 4390  21.644  12.630   1.784
44888W        W 4391   1.835  37.830  14.805
44889W        W 4392  33.045  29.658   0.246
44890W        W 4393  29.163   3.815   0.307
44891W        W 4394  31.926   8.350  12.403
44892W        W 4395  39.002  25.526  12.865
44893W        W 4396   6.918  26.036   1.848
44894W        W 4397  18.125  13.180  14.337
44895W        W 4398  26.632  24.669  12.396
44896W        W 4399  25.039   8.865   1.296
44897W        W 4400   8.337  20.073   1.739
44898W        W 4401   7.385  44.446   3.328
44899W        W 4402  35.458   0.920  10.978
44900W        W 4403  25.983  18.246  10.493
44901W        W 4404  11.648  38.562  11.548
44902W        W 4405   1.856   4.723  12.920
44903W        W 4406   4.734  44.426   2.338
44904W        W 4407  26.192  32.061  11.911
44905W        W 4408  22.229  15.791   1.212
44906W        W 4409  10.246  39.960   2.674
44907W        W 4410  13.211  28.601  14.300
44908W        W 4411  27.495  12.205  11.056
44909W        W 4412  33.991  23.195   4.300
44910W        W 4413  15.750  36.845   2.678
44911W        W 4414   4.334  27.488  11.039
44912W        W 4415  20.590  28.001   3.313
44913W        W 4416  41.998   7.680  14.336
44914W        W 4417  31.995  20.670  13.383
44915W        W 4418   4.944  30.068  11.972
44916W        W 4419  26.574  12.200   2.180
44917W        W 4420   0.842  22.020   0.322
44918W        W 4421  20.038   8.750   3.249
44919W        W 4422  19.201   2.815   0.445
44920W        W 4423  38.376  20.555  14.928
44921W        W 4424  12.124  31.138   1.876
44922W        W 4425  41.390  14.636  12.493
44923W        W 4426  12.830  32.409  14.879
44924W        W 4427  19.610   9.180  14.776
44925W        W 4428   2.813  19.747  12.452
44926W        W 4429  33.408   7.310  13.793
44927W        W 4430  24.140  15.102  13.908
44928W        W 4431  34.457  29.590  13.973
44929W        W 4432  34.566   1.316  11.888
44930W        W 4433  38.977  34.985   3.163
44931W        W 4434  35.589  31.986   0.824
44932W        W 4435  20.170  19.536   5.172
44933W        W 4436   2.452  17.110   3.209
44934W        W 4437   6.252  31.942   2.278
44935W        W 4438   7.346   1.780  13.363
44936W        W 4439  16.669   8.214  10.570
44937W        W 4440   5.216  23.094  11.571
44938W        W 4441   4.718  42.855  12.506
44939W        W 4442  27.528   6.842   0.448
44940W        W 4443   9.699  14.285  14.500
44941W        W 4444  39.928   5.200   0.831
44942W        W 4445  10.279  40.521   5.173
44943W        W 4446  43.350   3.240   3.331
44944W        W 4447  29.600  19.692  13.894
44945W        W 4448  44.919   0.295   4.243
44946W        W 4449   2.308  34.494  12.011
44947W        W 4450  30.080  38.067   3.254
44948W        W 4451   9.800  21.654   2.198
44949W        W 4452  35.579   1.356   1.926
44950W        W 4453   7.287  10.318  13.432
44951W        W 4454  30.517   7.681  13.023
44952W        W 4455  30.955  36.042  10.980
44953W        W 4456  31.430  23.604   1.804
44954W        W 4457   1.957  33.062  10.458
44955W        W 4458  18.280  27.523  12.482
44956W        W 4459  30.160  41.319   4.647
44957W        W 4460  11.241  37.556  11.001
44958W        W 4461  14.193   6.744   1.299
44959W        W 4462   3.745   8.851  12.022
44960W        W 4463  22.558   3.368  11.082
44961W        W 4464   1.357   7.245  10.613
44962W        W 4465  10.380  19.747  13.940
44963W        W 4466  36.516  24.179   2.240
44964W        W 4467   5.354  35.901   3.146
44965W        W 4468   4.822   4.352   4.248
44966W        W 4469  17.095  24.218   1.247
44967W        W 4470  39.938  37.963   1.861
44968W        W 4471  33.068  14.782  11.026
44969W        W 4472  35.540  10.867  11.489
44970W        W 4473  32.636  44.962   2.364
44971W        W 4474  21.059  19.672   2.894
44972W        W 4475  13.843  44.280   2.872
44973W        W 4476  26.009  17.795   4.683
44974W        W 4477  25.148  30.040  13.823
44975W        W 4478  42.001  16.632  14.292
44976W        W 4479  11.226  17.186   0.958
44977W        W 4480  40.864  37.417  12.503
44978W        W 4481   8.795  31.151   0.836
44979W        W 4482  16.244   2.438  10.405
44980W        W 4483  37.870  24.563   0.427
44981W        W 4484   3.376  21.679  13.040
44982W        W 4485  29.484   5.199  14.433
44983W        W 4486   7.834  40.921  10.547
44984W        W 4487  43.018   6.738   5.751
44985W        W 4488  41.492  11.174   1.401
44986W        W 4489   0.397   1.961  14.375
44987W        W 4490  31.627  43.476  12.514
44988W        W 4491  34.419  28.630  13.983
44989W        W 4492  44.951  41.925  14.426
44990W        W 4493  21.026  35.886   2.852
44991W        W 4494  42.293  40.866   3.832
44992W        W 4495  32.980  25.068  10.022
44993W        W 4496  13.637  20.598  10.418
44994W        W 4497   0.818   3.888   4.724
44995W        W 4498  31.601   3.878   0.447
44996W        W 4499  31.573   8.247   2.204
44997W        W 4500  28.438  17.212   3.729
44998W        W 4501  34.061  33.483  11.420
44999W        W 4502  13.784  27.007  12.898
45000W        W 4503  36.457  12.118   0.335
45001W        W 4504  35.375  26.696   4.190
45002W        W 4505  26.556  14.222   0.750
45003W        W 4506   9.329  19.145  10.015
45004W        W 4507  13.735   1.858   2.784
45005W        W 4508  22.014  33.477   3.715
45006W        W 4509   3.859  37.939  13.918
45007W        W 4510  18.592  13.841   1.394
45008W        W 4511   3.345  37.408  10.474
45009W        W 4512  44.396  24.155  13.449
45010W        W 4513  18.075  35.974  12.354
45011W        W 4514  39.935   5.790   2.719
45012W        W 4515  44.853  14.738  13.339
45013W        W 4516  15.252   1.473  11.124
45014W        W 4517  26.198   5.843   4.318
45015W        W 4518  31.509  12.221   3.379
45016W        W 4519  20.584   0.840   0.930
45017W        W 4520  28.131  26.585   1.418
45018W        W 4521  13.296   9.825  14.377
45019W        W 4522   3.247  44.851  13.974
45020W        W 4523   5.791  13.186  14.370
45021W        W 4524   0.880   8.686   0.897
45022W        W 4525  40.012  40.339  13.967
45023W        W 4526  14.219  16.774   3.726
45024W        W 4527   7.846  22.585   9.996
45025W        W 4528  15.819  27.467   2.817
45026W        W 4529  24.018   3.875  10.125
45027W        W 4530  42.417  32.123  13.339
45028W        W 4531  40.311   5.222  14.475
45029W        W 4532   6.704   7.767  11.883
45030W        W 4533  28.934  32.040  12.043
45031W        W 4534  31.558  13.763  10.127
45032W        W 4535   2.769  24.181  14.961
45033W        W 4536   6.737  14.266  12.936
45034W        W 4537  22.153  27.494   4.265
45035W        W 4538  19.118  19.119   0.743
45036W        W 4539   5.261  30.055  12.968
45037W        W 4540  16.111  33.901  10.618
45038W        W 4541  28.468  26.596  10.483
45039W        W 4542  35.880  35.576   1.801
45040W        W 4543   2.803   0.322  11.956
45041W        W 4544  15.647  15.234   1.297
45042W        W 4545   2.741  26.564  14.768
45043W        W 4546  37.531  38.461   4.152
45044W        W 4547  42.801  31.523   4.228
45045W        W 4548   9.791  38.349  14.394
45046W        W 4549   9.726  23.710   0.388
45047W        W 4550  38.008   1.863   2.243
45048W        W 4551   1.818  25.963   5.762
45049W        W 4552   2.329   9.219   2.388
45050W        W 4553   2.226  36.593   2.387
45051W        W 4554   4.900   5.739   2.395
45052W        W 4555  38.463  40.409   4.242
45053W        W 4556  37.010   5.821  11.907
45054W        W 4557  36.351   3.859   3.274
45055W        W 4558  15.758  18.685   0.299
45056W        W 4559  22.193  44.910  13.427
45057W        W 4560  31.153  22.143  10.489
45058W        W 4561  40.909  15.821   2.382
45059W        W 4562  34.431  42.408   0.390
45060W        W 4563   9.822  44.980   3.663
45061W        W 4564  44.788  16.711   3.373
45062W        W 4565  32.990  40.445   3.385
45063W        W 4566  38.872  15.160  14.803
45064W        W 4567  15.721  18.695   3.193
45065W        W 4568  26.540  18.707  10.580
45066W        W 4569  31.935   9.691  10.942
45067W        W 4570  16.611  41.043   1.305
45068W        W 4571  24.079   4.307   3.156
45069W        W 4572  30.468  29.655  13.432
45070W        W 4573  44.923  10.242   4.306
45071W        W 4574  22.082  24.668   2.689
45072W        W 4575  29.997   0.863   3.312
45073W        W 4576   0.352   6.764  14.822
45074W        W 4577  10.802   4.832   9.921
45075W        W 4578   6.884   8.317   2.736
45076W        W 4579  13.616  30.935  14.311
45077W        W 4580  13.108  13.159  10.641
45078W        W 4581  25.585  23.170   0.913
45079W        W 4582  27.567  16.623  13.817
45080W        W 4583   5.827  29.640  14.491
45081W        W 4584  43.966  16.299  12.466
45082W        W 4585  27.504   2.250   2.345
45083W        W 4586  39.342   8.320   4.132
45084W        W 4587  12.759  18.676   1.934
45085W        W 4588   4.717  12.209   3.807
45086W        W 4589  38.005  29.089   2.769
45087W        W 4590   6.693  22.534  14.969
45088W        W 4591  32.098  15.763   2.245
45089W        W 4592   3.357  43.897  10.426
45090W        W 4593  33.429  36.519  14.380
45091W        W 4594  28.942  21.607   4.154
45092W        W 4595  18.259  34.512   1.866
45093W        W 4596  23.676  21.519   0.810
45094W        W 4597  39.504  39.455  12.937
45095W        W 4598   6.363   3.272  11.567
45096W        W 4599  37.879  19.640  11.435
45097W        W 4600  38.070   1.398   3.380
45098W        W 4601   4.924  44.959  10.603
45099W        W 4602   1.919   7.738   0.935
45100W        W 4603  18.689  38.064   0.362
45101W        W 4604  16.715   1.253  10.619
45102W        W 4605  12.271   1.404   2.216
45103W        W 4606   0.849  28.629   3.150
45104W        W 4607  20.552  13.628   0.742
45105W        W 4608  10.200  12.656   4.723
45106W        W 4609  20.097   1.477  13.541
45107W        W 4610   9.778  18.779   0.864
45108W        W 4611  30.485  11.292  14.021
45109W        W 4612  17.093  40.365   4.222
45110W        W 4613  13.660  30.478  11.987
45111W        W 4614   0.922   6.817   2.255
45112W        W 4615  39.857   9.748  14.311
45113W        W 4616  35.073  35.390   3.373
45114W        W 4617  14.175  29.623  11.476
45115W        W 4618  28.631  37.440  12.534
45116W        W 4619  43.864  34.914   3.702
45117W        W 4620  10.156  24.054   1.832
45118W        W 4621  18.652  23.698  10.551
45119W        W 4622  38.063  42.483  14.462
45120W        W 4623  23.632  21.112   1.374
45121W        W 4624   9.773  37.472   0.795
45122W        W 4625   3.285  43.890   1.360
45123W        W 4626  41.375  36.404  11.382
45124W        W 4627  33.989  44.419   2.862
45125W        W 4628   4.386  37.506   0.334
45126W        W 4629   5.729  32.540  13.468
45127W        W 4630  22.124  14.185   2.753
45128W        W 4631  40.874  35.914   3.831
45129W        W 4632  26.196  12.354   2.288
45130W        W 4633  10.288  13.616  11.858
45131W        W 4634   1.262  32.086  10.593
45132W        W 4635  15.670   1.344  14.775
45133W        W 4636  14.682   7.739   1.785
45134W        W 4637  30.135  41.459   3.741
45135W        W 4638  37.839   6.348   3.865
45136W        W 4639  19.659  37.377   0.955
45137W        W 4640   9.188  28.534  12.511
45138W        W 4641  21.519  24.676   0.344
45139W        W 4642  44.901  14.164  12.388
45140W        W 4643  36.353  24.226  13.362
45141W        W 4644  25.505  24.590  13.013
45142W        W 4645  27.522   9.244  10.633
45143W        W 4646  15.217  26.562   3.323
45144W        W 4647  38.827  41.938  12.887
45145W        W 4648  28.165   3.422  11.459
45146W        W 4649  13.613  35.035   3.159
45147W        W 4650  36.430   0.850   0.850
45148W        W 4651  32.500  40.363  12.423
45149W        W 4652  22.633  23.146   3.723
45150W        W 4653   2.352  28.547  12.450
45151W        W 4654  44.301  38.039  10.893
45152W        W 4655  36.061  40.886   4.291
45153W        W 4656   6.815  42.810   5.117
45154W        W 4657   9.866  19.133   3.157
45155W        W 4658  17.274  29.944   4.762
45156W        W 4659  15.142   0.418  12.505
45157W        W 4660   7.863  20.114   1.362
45158W        W 4661  15.821  10.676   2.888
45159W        W 4662  42.380  38.465   4.692
45160W        W 4663  15.308  17.712  11.386
45161W        W 4664  33.567  32.394  14.016
45162W        W 4665   6.199  26.458  12.477
45163W        W 4666  38.347   6.274   0.275
45164W        W 4667  28.597  11.234   2.185
45165W        W 4668  25.576   6.384  13.420
45166W        W 4669  29.946  21.174   3.764
45167W        W 4670  38.330  24.035   0.478
45168W        W 4671   2.724  27.950  14.010
45169W        W 4672  17.168   6.386   2.695
45170W        W 4673   5.334  23.597  13.532
45171W        W 4674  30.614  20.207  11.041
45172W        W 4675  16.696  21.182  12.023
45173W        W 4676  41.353  27.129  12.069
45174W        W 4677  36.412  13.179   0.295
45175W        W 4678  15.801   5.407   4.689
45176W        W 4679  42.362  13.265  12.936
45177W        W 4680  41.040  44.992  12.552
45178W        W 4681   5.771  30.523  13.371
45179W        W 4682  39.353   8.286   3.751
45180W        W 4683   7.268  41.464  13.852
45181W        W 4684  40.331  15.803   2.692
45182W        W 4685  24.661   7.409   0.356
45183W        W 4686  29.173  40.015   1.426
45184W        W 4687  37.554  37.085   3.185
45185W        W 4688  30.982  34.995   4.162
45186W        W 4689  15.790  27.583   4.157
45187W        W 4690  18.608   0.826  12.987
45188W        W 4691  43.771  30.162   1.447
45189W        W 4692   9.712   9.366  11.514
45190W        W 4693   9.298  34.471  11.028
45191W        W 4694  39.942  20.637  11.113
45192W        W 4695  12.313  16.258   2.783
45193W        W 4696   4.894  20.646  14.914
45194W        W 4697  19.247  28.025  13.978
45195W        W 4698   5.903  31.588   2.277
45196W        W 4699   0.976  18.689   4.747
45197W        W 4700  17.569  27.042   3.640
45198W        W 4701  25.606   9.882   0.359
45199W        W 4702   2.840  38.501  11.404
45200W        W 4703  16.642   1.339   3.239
45201W        W 4704  20.217  11.855   2.831
45202W        W 4705  43.939   9.325  12.565
45203W        W 4706  12.828  42.296  10.631
45204W        W 4707  18.711  26.487   1.239
45205W        W 4708  27.972  38.036   3.300
45206W        W 4709  16.148  21.028   1.841
45207W        W 4710  13.627  42.928   1.325
45208W        W 4711  40.369  27.624  14.439
45209W        W 4712   7.771   3.758  14.930
45210W        W 4713  31.641   6.282   2.718
45211W        W 4714  23.693  17.094   2.256
45212W        W 4715  21.044  36.357   4.755
45213W        W 4716  25.679  21.741   4.238
45214W        W 4717  36.561  30.436   3.700
45215W        W 4718   5.423  13.249   2.379
45216W        W 4719  27.197  39.928  12.393
45217W        W 4720  31.086  18.711  13.942
45218W        W 4721   4.903   1.738   4.275
45219W        W 4722  39.811  20.268   3.667
45220W        W 4723  28.107  40.891  10.476
45221W        W 4724  26.974   7.353  10.494
45222W        W 4725   8.712  15.592  14.024
45223W        W 4726  37.562  32.091  11.435
45224W        W 4727  10.232  38.499   9.950
45225W        W 4728  31.589  19.055   2.750
45226W        W 4729  21.561   0.292  12.922
45227W        W 4730   6.276  43.890   1.810
45228W        W 4731   4.412  32.578   0.301
45229W        W 4732  22.507  37.398   9.921
45230W        W 4733   2.225  32.986   0.941
45231W        W 4734   9.386  23.508  10.923
45232W        W 4735   6.413  31.972   9.996
45233W        W 4736  18.220  12.122   2.880
45234W        W 4737  42.940   8.218   3.236
45235W        W 4738  25.561  32.448  11.857
45236W        W 4739  23.627   8.231   1.819
45237W        W 4740  15.819  23.072  11.082
45238W        W 4741  16.621  27.184   4.255
45239W        W 4742  40.428   2.821   0.282
45240W        W 4743  44.271   6.378   1.838
45241W        W 4744  30.485  20.600   2.388
45242W        W 4745  15.182  14.823   2.217
45243W        W 4746   4.895  39.996   1.300
45244W        W 4747   6.803   0.332  12.550
45245W        W 4748  11.832  41.924   3.335
45246W        W 4749  18.629   8.313  10.429
45247W        W 4750  15.249  32.925   0.890
45248W        W 4751   0.368   6.783   2.382
45249W        W 4752  29.425  37.888  11.042
45250W        W 4753  30.155  20.150   4.250
45251W        W 4754   5.746  41.418   0.807
45252W        W 4755   7.729   9.272   1.803
45253W        W 4756  34.015  28.012  13.819
45254W        W 4757  14.164   8.175   2.825
45255W        W 4758   8.171  13.773   1.376
45256W        W 4759  36.511  27.998  12.558
45257W        W 4760  35.875  30.981   1.303
45258W        W 4761   5.809  30.913   1.374
45259W        W 4762  37.899  14.813   1.306
45260W        W 4763   0.761  10.288   1.866
45261W        W 4764  25.492  20.699   4.746
45262W        W 4765  32.033  40.425  12.534
45263W        W 4766  13.729  10.372   2.683
45264W        W 4767  27.518  26.493  11.965
45265W        W 4768  22.590   7.304  11.083
45266W        W 4769  31.574  17.110   2.292
45267W        W 4770   9.247  10.855   4.333
45268W        W 4771   5.428  33.978   2.781
45269W        W 4772   5.267   3.398   3.343
45270W        W 4773  18.100  30.618  13.404
45271W        W 4774  42.359  32.000   2.748
45272W        W 4775   8.170  23.734  14.017
45273W        W 4776   3.347  35.397  13.368
45274W        W 4777  12.266   2.857   0.372
45275W        W 4778  24.507  10.799   2.724
45276W        W 4779  37.079   1.413   2.179
45277W        W 4780  27.523  22.218   3.312
45278W        W 4781  13.758  33.494  10.979
45279W        W 4782  17.657  20.615   1.307
45280W        W 4783  44.770  15.322  10.932
45281W        W 4784   3.923  12.203  13.977
45282W        W 4785  12.185  25.997  11.490
45283W        W 4786  33.583  24.592  12.032
45284W        W 4787  19.581  32.956   1.807
45285W        W 4788   4.706  12.330  10.910
45286W        W 4789   2.376   6.411   1.432
45287W        W 4790  13.304  21.536  11.100
45288W        W 4791  23.679   4.938  13.383
45289W        W 4792  17.164  20.134   0.782
45290W        W 4793  32.080   0.308  13.382
45291W        W 4794  44.970  40.486   1.397
45292W        W 4795   6.810  13.816   3.822
45293W        W 4796  44.327   3.841   2.730
45294W        W 4797  31.944   4.822   4.252
45295W        W 4798  26.558  20.152   4.690
45296W        W 4799   5.816  32.138   2.314
45297W        W 4800  31.591   9.324  11.509
45298W        W 4801  14.793  19.688  10.483
45299W        W 4802  28.979  18.109   1.377
45300W        W 4803  15.197  39.039  12.836
45301W        W 4804  38.959  17.564  13.346
45302W        W 4805  14.125   5.205   1.371
45303W        W 4806   5.270  13.235  11.994
45304W        W 4807  42.425  42.350   0.304
45305W        W 4808   8.753   5.250   4.597
45306W        W 4809  35.990  15.772  11.466
45307W        W 4810   7.791   5.200   4.800
45308W        W 4811  34.864  12.349  12.009
45309W        W 4812   5.813  28.564   2.811
45310W        W 4813  26.186  36.914   4.239
45311W        W 4814  32.986  37.415  11.398
45312W        W 4815   8.844  39.327   1.846
45313W        W 4816  19.085  27.006  10.582
45314W        W 4817  15.666  17.185   4.350
45315W        W 4818  26.494   2.783   3.296
45316W        W 4819   6.366  26.188   3.238
45317W        W 4820  21.746  22.656   1.247
45318W        W 4821  13.840  17.795   4.661
45319W        W 4822  19.146  24.555   2.739
45320W        W 4823   9.288  13.707  12.866
45321W        W 4824  10.265   4.778  11.404
45322W        W 4825  31.919  43.993  11.429
45323W        W 4826   9.782  19.146  13.459
45324W        W 4827  16.758  11.639  14.017
45325W        W 4828  25.646  16.078   3.150
45326W        W 4829  36.054  21.651  14.883
45327W        W 4830  39.034  35.502   3.312
45328W        W 4831  39.420  41.026  13.462
45329W        W 4832  39.852  37.546   3.815
45330W        W 4833  12.750   1.440  12.349
45331W        W 4834  41.537  19.205  12.876
45332W        W 4835  10.731  43.808   3.736
45333W        W 4836   8.821  30.115   4.230
45334W        W 4837  33.058  40.810  12.906
45335W        W 4838  38.410   4.884  11.992
45336W        W 4839  26.027  13.350  12.903
45337W        W 4840  39.894  44.488  10.562
45338W        W 4841  40.444  44.771   4.607
45339W        W 4842   5.240  17.254   2.245
45340W        W 4843  27.954  41.900   4.696
45341W        W 4844  30.476  43.901  14.440
45342W        W 4845  41.964  14.301   2.185
45343W        W 4846  40.866  24.496   4.238
45344W        W 4847  38.976   6.341  14.409
45345W        W 4848  31.474   7.771   2.319
45346W        W 4849  29.433  10.707   4.604
45347W        W 4850  39.844  38.851  12.566
45348W        W 4851   1.904  27.597   3.279
45349W        W 4852  26.558  12.277  12.910
45350W        W 4853  41.796  26.115  13.895
45351W        W 4854  29.513  14.270  10.568
45352W        W 4855  29.169   4.389   4.337
45353W        W 4856   8.833  22.561   3.710
45354W        W 4857  37.467  30.958  12.383
45355W        W 4858  14.296  40.461   1.728
45356W        W 4859   2.942  44.891   1.915
45357W        W 4860  37.526  35.514  11.004
45358W        W 4861  30.531  22.025  11.580
45359W        W 4862  20.257  22.564   9.942
45360W        W 4863  14.168   6.347  12.452
45361W        W 4864  12.214  30.911   2.346
45362W        W 4865  16.771  36.866  10.448
45363W        W 4866  10.730  25.012   1.752
45364W        W 4867  16.778  38.959   4.128
45365W        W 4868  26.507  15.757  13.979
45366W        W 4869  11.637  31.140  13.062
45367W        W 4870  40.013   6.706   4.256
45368W        W 4871  34.917  16.261  10.118
45369W        W 4872   4.848   5.394   2.332
45370W        W 4873  11.797  29.045  12.572
45371W        W 4874   6.336   4.817  10.423
45372W        W 4875  19.567  33.022  12.881
45373W        W 4876  34.058  22.112   0.409
45374W        W 4877  27.984  41.796   0.293
45375W        W 4878  27.145  16.726   1.383
45376W        W 4879  20.138  20.560   2.688
45377W        W 4880  40.840  23.008  12.460
45378W        W 4881   8.669  36.531   4.621
45379W        W 4882  29.658  31.032   4.260
45380W        W 4883  42.453  25.158   1.820
45381W        W 4884  23.989  13.308  10.483
45382W        W 4885   0.365  18.230  12.368
45383W        W 4886  17.643   7.716  12.429
45384W        W 4887  11.210  32.927  14.786
45385W        W 4888   0.403   7.698   0.290
45386W        W 4889  42.475  22.643   3.209
45387W        W 4890  42.323  11.203   0.338
45388W        W 4891  24.119  38.051   3.683
45389W        W 4892  28.018  39.910  11.517
45390W        W 4893  18.143  23.615  14.956
45391W        W 4894  39.335  43.979   1.254
45392W        W 4895  43.357  30.923  14.492
45393W        W 4896  26.079  18.209  14.459
45394W        W 4897  38.893  24.495   4.336
45395W        W 4898  44.972  41.844  11.057
45396W        W 4899   6.427  10.779  14.978
45397W        W 4900  32.439   6.741  11.010
45398W        W 4901  41.362  16.790  11.897
45399W        W 4902  15.776  25.205  12.440
45400W        W 4903  37.440  18.093   0.950
45401W        W 4904  40.014  34.397   2.232
45402W        W 4905  40.372  22.638  14.855
45403W        W 4906  28.063   9.187  11.441
45404W        W 4907  26.637  17.586  12.475
45405W        W 4908   5.759  24.117  14.975
45406W        W 4909  28.949  10.698  10.522
45407W        W 4910   4.242  26.053  13.046
45408W        W 4911  25.985  32.117   4.644
45409W        W 4912  36.945  17.592  12.903
45410W        W 4913  42.350   5.419   4.293
45411W        W 4914  20.763  10.376   3.212
45412W        W 4915  10.276  39.835   1.390
45413W        W 4916  44.987  12.693  13.859
45414W        W 4917  33.407  16.713   3.683
45415W        W 4918  31.024  38.992   0.921
45416W        W 4919  31.453  10.349   5.116
45417W        W 4920  43.332  24.212  12.538
45418W        W 4921  33.513  15.691  11.074
45419W        W 4922   9.361  20.171  14.483
45420W        W 4923  34.529  23.715   0.908
45421W        W 4924  33.613  13.665   5.658
45422W        W 4925  12.684  44.422   1.897
45423W        W 4926  29.550  38.362   2.705
45424W        W 4927  11.243  37.496   1.821
45425W        W 4928   7.697  34.492  12.567
45426W        W 4929  26.164  25.707  12.906
45427W        W 4930  43.012  15.605   0.479
45428W        W 4931  22.216  16.611   0.424
45429W        W 4932  28.036   3.439  14.920
45430W        W 4933  10.853  27.679   0.333
45431W        W 4934   8.683  33.485   4.687
45432W        W 4935  12.162  33.896   0.345
45433W        W 4936  18.053  14.590  14.905
45434W        W 4937  36.444  16.665   2.828
45435W        W 4938   2.440   0.460   4.722
45436W        W 4939  14.636  29.950   4.300
45437W        W 4940  18.772  11.161  10.619
45438W        W 4941   0.742  23.693   3.657
45439W        W 4942  13.623  11.204  14.874
45440W        W 4943   7.686  33.897  10.450
45441W        W 4944  30.947  18.602   4.351
45442W        W 4945  38.986  10.768   1.709
45443W        W 4946  37.942  10.784  14.773
45444W        W 4947  18.734  44.439   0.410
45445W        W 4948  35.564   5.376   1.278
45446W        W 4949  28.076  25.587   0.745
45447W        W 4950  15.266  44.777  14.441
45448W        W 4951  22.516  36.512  10.450
45449W        W 4952  42.028  11.245  11.535
45450W        W 4953  12.303  17.707  11.387
45451W        W 4954  34.008  25.582   1.292
45452W        W 4955  40.474  34.890  13.485
45453W        W 4956  26.968  16.297  13.452
45454W        W 4957  19.257  18.621  14.475
45455W        W 4958  15.732  26.590   0.440
45456W        W 4959  26.020  18.200  12.459
45457W        W 4960   4.429   4.214   2.688
45458W        W 4961  32.473   3.823  11.110
45459W        W 4962  36.387   5.830  10.563
45460W        W 4963  29.491  17.123  14.408
45461W        W 4964  18.719   0.961  11.070
45462W        W 4965  29.992  24.027  14.991
45463W        W 4966  38.070   9.351  12.525
45464W        W 4967   1.352  11.643  14.818
45465W        W 4968  13.192  20.164   1.411
45466W        W 4969  23.035   9.178  10.579
45467W        W 4970  13.624   6.275  11.077
45468W        W 4971  15.812  15.609   2.201
45469W        W 4972  41.863  27.039  11.515
45470W        W 4973  36.483  14.151  10.039
45471W        W 4974  23.122   4.436  14.330
45472W        W 4975   4.306  33.910  13.916
45473W        W 4976  17.600  28.971   3.738
45474W        W 4977  43.803  22.228  14.320
45475W        W 4978  31.065   0.377   3.674
45476W        W 4979  32.453  11.271  13.522
45477W        W 4980  39.937  29.935  13.534
45478W        W 4981  39.429  43.333   2.892
45479W        W 4982  36.869  37.448  11.120
45480W        W 4983  29.043  37.005   4.140
45481W        W 4984  25.581  20.704   1.783
45482W        W 4985   2.734  44.916  13.488
45483W        W 4986  38.567   6.748   0.824
45484W        W 4987  44.813  11.309  13.884
45485W        W 4988  28.509  12.756   5.171
45486W        W 4989  26.629  10.374   1.896
45487W        W 4990  10.836  23.208  13.998
45488W        W 4991  10.701  14.340   0.411
45489W        W 4992  35.062   3.258   5.296
45490W        W 4993  12.269   8.734   3.702
45491W        W 4994  14.594  34.938  12.094
45492W        W 4995  25.474  17.658  12.897
45493W        W 4996  33.434  41.018  13.816
45494W        W 4997  33.401   7.670  10.607
45495W        W 4998  16.773  41.997   4.679
45496W        W 4999  24.042  44.968   9.502
45497W        W 5000  34.910  42.817   1.844
45498W        W 5001  28.137  31.042   2.397
45499W        W 5002   8.896  38.497   1.761
45500W        W 5003  16.732  17.206  12.880
45501W        W 5004  27.986  33.050  12.015
45502W        W 5005  41.852  22.106   4.313
45503W        W 5006   8.710  35.911  12.882
45504W        W 5007  22.611  17.712   4.630
45505W        W 5008  35.870  26.631  14.325
45506W        W 5009  22.047  41.445  11.034
45507W        W 5010  43.334  37.894  11.548
45508W        W 5011  19.170  10.207  10.480
45509W        W 5012  23.014  44.457  13.804
45510W        W 5013  16.747  13.210   4.173
45511W        W 5014   6.225   0.846   0.886
45512W        W 5015  16.670   4.443   1.253
45513W        W 5016  23.203  15.218  11.572
45514W        W 5017  32.513  44.485  12.940
45515W        W 5018  31.121   8.900  10.536
45516W        W 5019  15.757  13.313  13.006
45517W        W 5020  21.532  11.703   4.625
45518W        W 5021  11.156  27.149   3.241
45519W        W 5022  18.113   9.817  14.011
45520W        W 5023  38.905   4.748   5.743
45521W        W 5024  29.450   9.710   4.610
45522W        W 5025   8.224  27.097  11.379
45523W        W 5026  15.662  37.058  14.282
45524W        W 5027   1.808  35.989   0.841
45525W        W 5028  10.325  40.967  12.362
45526W        W 5029  44.774   9.814  14.795
45527W        W 5030  16.214  34.995   4.217
45528W        W 5031  12.220  15.261  13.431
45529W        W 5032  40.911  33.442  13.939
45530W        W 5033  18.654  39.323   0.390
45531W        W 5034  29.112   7.735  10.932
45532W        W 5035  39.522  29.163   3.863
45533W        W 5036   8.843   4.213  10.455
45534W        W 5037  21.159  14.681  11.957
45535W        W 5038  19.705  34.916  13.414
45536W        W 5039   8.304  25.982   1.714
45537W        W 5040  13.687  20.041   4.295
45538W        W 5041  29.025  42.796   3.665
45539W        W 5042   1.789  30.648   2.267
45540W        W 5043  23.542  11.252  11.491
45541W        W 5044  18.693   1.271   2.838
45542W        W 5045  31.457  14.683   5.163
45543W        W 5046  22.055  31.921   2.768
45544W        W 5047  38.379  35.083   4.726
45545W        W 5048  13.646  30.607  14.890
45546W        W 5049  41.535  16.308   3.779
45547W        W 5050  37.978  41.357   2.763
45548W        W 5051  38.377  26.638   4.637
45549W        W 5052   7.406  39.995   0.941
45550W        W 5053  11.330  25.469  12.991
45551W        W 5054  11.308  30.484  13.539
45552W        W 5055  30.558  13.644   1.328
45553W        W 5056   1.443  26.556  11.020
45554W        W 5057  25.027  30.653   0.287
45555W        W 5058   0.410  42.419   1.708
45556W        W 5059  44.263  34.926   4.702
45557W        W 5060  28.965  22.204  12.967
45558W        W 5061  19.727  42.979  11.061
45559W        W 5062  39.450  26.605   1.333
45560W        W 5063  18.193  35.995   4.701
45561W        W 5064  31.146  22.580   4.156
45562W        W 5065  43.487  40.503   0.760
45563W        W 5066  30.524  42.881   0.322
45564W        W 5067  17.564  24.064  14.819
45565W        W 5068  10.182   0.356   1.924
45566W        W 5069  30.948  25.601   9.939
45567W        W 5070  19.569  39.419  14.275
45568W        W 5071  25.063   4.314  14.349
45569W        W 5072   0.454  44.470  11.097
45570W        W 5073   5.206  15.225  11.586
45571W        W 5074  33.103   8.743  10.443
45572W        W 5075  19.658   1.372   1.726
45573W        W 5076   3.454  36.948   0.815
45574W        W 5077  16.087   5.394   1.296
45575W        W 5078   6.815  21.667  13.799
45576W        W 5079  42.438   3.325  14.800
45577W        W 5080   3.910   2.827  10.416
45578W        W 5081  27.640   1.783   3.746
45579W        W 5082   2.386  35.859  13.489
45580W        W 5083  11.832  19.241  12.895
45581W        W 5084  10.287  20.655   1.803
45582W        W 5085  27.188  33.524   2.209
45583W        W 5086  20.187  29.993  12.475
45584W        W 5087  25.141   6.921   4.213
45585W        W 5088  34.899  36.002  10.051
45586W        W 5089  25.713  37.859  11.433
45587W        W 5090  28.542  19.673   0.727
45588W        W 5091  12.342  43.295   3.678
45589W        W 5092   3.766  33.475  11.417
45590W        W 5093   5.828  35.430  11.017
45591W        W 5094  12.624   5.202  11.576
45592W        W 5095  13.108  13.319  14.487
45593W        W 5096   3.913  29.476  11.596
45594W        W 5097  37.857   8.213   2.359
45595W        W 5098  11.746  13.238  12.573
45596W        W 5099   8.850   5.728   0.355
45597W        W 5100   4.882  43.919  10.007
45598W        W 5101  38.860  20.644  11.026
45599W        W 5102  24.510  11.168   0.894
45600W        W 5103  25.507  17.619   4.604
45601W        W 5104  16.311  21.654   3.247
45602W        W 5105   7.190   0.486   4.194
45603W        W 5106  39.340  28.124  13.537
45604W        W 5107   1.973   6.359   0.255
45605W        W 5108   4.317   7.289   4.687
45606W        W 5109  34.390   0.377   1.211
45607W        W 5110  13.646  14.287   4.229
45608W        W 5111   6.836   8.881   2.821
45609W        W 5112  29.457  33.092  14.974
45610W        W 5113   3.430  43.290  14.385
45611W        W 5114  42.805  18.202  10.932
45612W        W 5115   1.748  28.053   4.626
45613W        W 5116  29.997  22.247  14.031
45614W        W 5117  34.920  24.079  14.419
45615W        W 5118  33.573  10.834   3.221
45616W        W 5119  21.723  13.797  14.368
45617W        W 5120  16.117   9.354  13.447
45618W        W 5121   6.920  33.002  13.388
45619W        W 5122  38.960  31.401   4.611
45620W        W 5123  40.854  37.396   5.155
45621W        W 5124  29.965  19.688  14.904
45622W        W 5125  20.102  23.690  13.918
45623W        W 5126  31.556  38.924  13.527
45624W        W 5127  26.167   0.381   2.713
45625W        W 5128  11.324   2.404  10.920
45626W        W 5129  15.755  12.676   0.838
45627W        W 5130   0.404   2.898   3.747
45628W        W 5131  33.393  14.331  14.871
45629W        W 5132   9.356  30.526  12.512
45630W        W 5133   6.264  18.263   4.220
45631W        W 5134  40.365  30.430   0.957
45632W        W 5135   2.459  11.301  13.448
45633W        W 5136  16.308  22.694  10.962
45634W        W 5137  40.544  33.925  12.349
45635W        W 5138   8.752  33.480  11.041
45636W        W 5139  21.584  32.010  12.555
45637W        W 5140  33.433  21.732   4.193
45638W        W 5141   5.274  11.829   1.776
45639W        W 5142  35.412  28.935  12.995
45640W        W 5143  12.194  35.559   1.314
45641W        W 5144  19.224   0.748  12.512
45642W        W 5145  26.952   3.776   4.734
45643W        W 5146  29.940  30.624   0.385
45644W        W 5147  43.980  21.620   1.406
45645W        W 5148   3.245   3.729  12.568
45646W        W 5149  39.525  28.623   1.718
45647W        W 5150  19.540   1.316   4.825
45648W        W 5151  29.957  34.056   2.398
45649W        W 5152  36.575  25.064  14.420
45650W        W 5153   4.428  24.092   1.371
45651W        W 5154  31.956  27.127  14.921
45652W        W 5155  11.196  17.260  13.969
45653W        W 5156   6.228  32.097   1.397
45654W        W 5157  33.623  20.749  10.924
45655W        W 5158  13.640   3.439  12.555
45656W        W 5159  40.857  10.696   3.382
45657W        W 5160  42.880   6.867   2.263
45658W        W 5161   6.411  26.094  12.531
45659W        W 5162  37.383  12.255   2.270
45660W        W 5163  21.637  22.151  12.958
45661W        W 5164  38.459  41.374   0.829
45662W        W 5165  41.881   7.870  10.605
45663W        W 5166   2.446  18.261   3.763
45664W        W 5167   9.660  22.608  11.381
45665W        W 5168  25.692  42.839  13.439
45666W        W 5169  29.923  14.614  11.917
45667W        W 5170  13.306  44.259   4.744
45668W        W 5171   5.256   5.917   3.337
45669W        W 5172  24.022  38.412   4.601
45670W        W 5173  10.862   2.344   1.233
45671W        W 5174   2.931  22.508   1.896
45672W        W 5175   6.893  27.106   1.262
45673W        W 5176  19.743  24.124  14.288
45674W        W 5177   8.351  29.115   0.291
45675W        W 5178  10.347  15.785   0.847
45676W        W 5179   4.866  36.063   1.826
45677W        W 5180  26.646  39.461  11.983
45678W        W 5181  12.339  30.653   1.420
45679W        W 5182  22.194  43.513  13.399
45680W        W 5183  20.130  35.562  13.462
45681W        W 5184   0.464  41.393  14.806
45682W        W 5185  35.559  10.661  11.015
45683W        W 5186   2.779  24.526  13.062
45684W        W 5187  32.406  44.843   1.340
45685W        W 5188  18.546  17.716  11.413
45686W        W 5189  15.134  41.911  11.864
45687W        W 5190  29.524  29.083   0.257
45688W        W 5191  39.017  41.912   0.838
45689W        W 5192  37.558  12.637   1.907
45690W        W 5193   7.304  21.709   0.370
45691W        W 5194  11.802  12.328  11.958
45692W        W 5195  17.562  41.931   1.369
45693W        W 5196  24.191  17.181   3.755
45694W        W 5197  10.832  14.243  14.809
45695W        W 5198   1.934   0.866   3.659
45696W        W 5199  27.503  17.560   0.781
45697W        W 5200   3.405   8.294  14.905
45698W        W 5201  36.879   1.298  11.052
45699W        W 5202  25.518  22.608   4.160
45700W        W 5203  35.900  16.681   2.211
45701W        W 5204  43.389  42.418  12.089
45702W        W 5205  15.798  16.302   0.954
45703W        W 5206   1.887  18.225   0.410
45704W        W 5207   4.934   5.789   1.761
45705W        W 5208   1.873  13.136  10.470
45706W        W 5209  26.062   6.867  12.067
45707W        W 5210  26.985  32.138   3.866
45708W        W 5211  32.907  11.266   1.816
45709W        W 5212   0.862  38.563  13.851
45710W        W 5213  12.330  11.667   0.843
45711W        W 5214   8.854  37.567  13.043
45712W        W 5215  32.912  16.108   1.440
45713W        W 5216  14.620   1.284   2.894
45714W        W 5217   4.807  19.587  13.358
45715W        W 5218  14.297  29.539   4.129
45716W        W 5219  38.358  35.937  11.564
45717W        W 5220  10.813  32.016   0.250
45718W        W 5221  11.338  24.661  12.863
45719W        W 5222   4.907  13.340   0.439
45720W        W 5223  26.991  20.737  12.953
45721W        W 5224  25.098  30.155   0.389
45722W        W 5225   5.918   3.733   0.834
45723W        W 5226  41.296   1.921   3.383
45724W        W 5227  30.640   7.399   4.230
45725W        W 5228  15.621  30.962  11.399
45726W        W 5229  15.583  41.304  13.884
45727W        W 5230  11.703  24.568   2.331
45728W        W 5231  37.983   9.646  12.401
45729W        W 5232  15.595   6.254  11.416
45730W        W 5233  14.693  35.427   3.833
45731W        W 5234  11.280   5.265  11.891
45732W        W 5235  23.649  28.024   4.233
45733W        W 5236  39.900  20.091   0.810
45734W        W 5237   0.251   3.946   1.727
45735W        W 5238  24.572   2.750   1.914
45736W        W 5239  33.100  30.469   4.200
45737W        W 5240  28.639  26.058  11.537
45738W        W 5241  41.393  40.936  14.876
45739W        W 5242  11.695  43.382  13.456
45740W        W 5243   2.337  33.510   1.400
45741W        W 5244  10.232   1.398  12.863
45742W        W 5245  27.050  21.130   2.760
45743W        W 5246  31.610   5.841   2.404
45744W        W 5247  39.865  31.013  13.389
45745W        W 5248   0.919  31.089  11.383
45746W        W 5249  24.122  38.921   0.963
45747W        W 5250  23.225  10.193   1.257
45748W        W 5251   4.389  21.695  10.580
45749W        W 5252  17.137  10.273   0.788
45750W        W 5253   4.308   6.429  14.359
45751W        W 5254   7.173  30.415   3.151
45752W        W 5255  25.022  42.915   4.354
45753W        W 5256   1.351   3.718   1.855
45754W        W 5257  42.345  35.920  11.000
45755W        W 5258  12.796  19.663  14.410
45756W        W 5259  26.547  30.441   4.173
45757W        W 5260  41.965  43.779   1.416
45758W        W 5261  34.015  42.941  11.584
45759W        W 5262  34.975  11.245   3.833
45760W        W 5263  20.637   0.317  13.490
45761W        W 5264  41.826  31.981   0.377
45762W        W 5265  15.121  12.661   2.200
45763W        W 5266  34.019  39.396   0.263
45764W        W 5267  14.709   6.425  14.434
45765W        W 5268  29.590  39.420   3.385
45766W        W 5269  18.222  44.344  10.563
45767W        W 5270   7.339  17.678   1.768
45768W        W 5271   0.415  11.265   3.798
45769W        W 5272  41.525  41.503   2.830
45770W        W 5273  22.237   4.851   0.748
45771W        W 5274   9.644  36.469   3.871
45772W        W 5275  31.550  13.829   2.268
45773W        W 5276  33.542  15.653  14.402
45774W        W 5277   8.858  28.503  10.557
45775W        W 5278  32.015  16.768   4.126
45776W        W 5279  11.829   0.271   3.246
45777W        W 5280   9.667  16.615   1.712
45778W        W 5281  25.158  37.398  13.951
45779W        W 5282  15.805  32.950   1.743
45780W        W 5283  38.854   6.350   0.749
45781W        W 5284  34.395  13.603  11.027
45782W        W 5285  31.140  42.957  11.582
45783W        W 5286  11.146  41.904   4.196
45784W        W 5287  15.286   9.167   2.684
45785W        W 5288  34.468   5.301  14.005
45786W        W 5289  44.945  12.624  12.904
45787W        W 5290  12.316   5.912  12.546
45788W        W 5291  17.640  44.312  10.965
45789W        W 5292  24.140  27.993  14.924
45790W        W 5293  29.573  44.365  10.504
45791W        W 5294   9.792  27.580   4.836
45792W        W 5295   5.853  13.759  12.823
45793W        W 5296  30.134  28.935  13.928
45794W        W 5297  16.587  25.510  12.020
45795W        W 5298  27.599  12.762  11.926
45796W        W 5299  17.170  14.253  14.947
45797W        W 5300  30.110  30.057   2.247
45798W        W 5301   6.919   4.409   0.358
45799W        W 5302  12.758  21.169  13.029
45800W        W 5303  18.175  35.457   4.751
45801W        W 5304   9.831  27.008   1.299
45802W        W 5305  29.590  23.590   0.331
45803W        W 5306  40.546   3.882  13.805
45804W        W 5307  20.598   5.694  13.819
45805W        W 5308  32.515  29.092  11.423
45806W        W 5309   5.829  19.543  12.089
45807W        W 5310   9.218   1.360  13.045
45808W        W 5311  15.607  42.885   2.835
45809W        W 5312  14.590  23.616   4.740
45810W        W 5313   2.740   2.878  13.927
45811W        W 5314  27.455   3.886  14.832
45812W        W 5315  36.972  40.346  13.480
45813W        W 5316  39.993  26.127  12.942
45814W        W 5317  36.982  12.737  13.500
45815W        W 5318  28.600  18.245  14.338
45816W        W 5319   7.739   2.932   2.254
45817W        W 5320  31.408   9.249  11.919
45818W        W 5321  41.917   8.663  13.313
45819W        W 5322  19.608  20.558  13.489
45820W        W 5323  40.370  17.558   0.378
45821W        W 5324  14.602   0.829  14.826
45822W        W 5325  21.727  21.220  11.523
45823W        W 5326  31.120  15.762   4.796
45824W        W 5327  33.113  26.501   2.347
45825W        W 5328  14.617  33.090   2.321
45826W        W 5329   5.297  13.619  11.068
45827W        W 5330   7.236  41.809   4.633
45828W        W 5331  40.542  21.565  13.336
45829W        W 5332  25.024  18.726  13.527
45830W        W 5333   9.286   0.869   2.226
45831W        W 5334   5.763  42.442   2.227
45832W        W 5335  32.048  24.622   1.218
45833W        W 5336   7.904   1.281  11.582
45834W        W 5337  10.166  38.491  12.371
45835W        W 5338  43.365  25.200   2.745
45836W        W 5339  33.526  23.987  11.085
45837W        W 5340   1.424   6.334  11.524
45838W        W 5341  42.864  18.055   2.717
45839W        W 5342  41.328  44.456  12.509
45840W        W 5343   4.832   6.917  11.975
45841W        W 5344  34.458  12.277   2.674
45842W        W 5345  39.958  10.203   5.134
45843W        W 5346  19.620  43.982  11.944
45844W        W 5347  39.953  13.173   4.219
45845W        W 5348  19.270   8.166   4.723
45846W        W 5349  33.931   8.749  12.933
45847W        W 5350  17.640  30.154   0.930
45848W        W 5351  28.079  21.196   3.376
45849W        W 5352   4.724   0.942   3.766
45850W        W 5353  26.030  38.845  13.970
45851W        W 5354  34.948  37.930  10.548
45852W        W 5355  39.347  35.022  14.002
45853W        W 5356  20.045  38.491   3.859
45854W        W 5357  30.650   5.231  14.820
45855W        W 5358   9.791   2.300   4.327
45856W        W 5359  35.891  11.643   3.332
45857W        W 5360  38.841  44.771   0.914
45858W        W 5361  32.990  15.682   0.256
45859W        W 5362  23.186   6.336   3.332
45860W        W 5363  43.817  23.657   1.814
45861W        W 5364  10.875  12.653   3.684
45862W        W 5365  12.186  31.615  12.916
45863W        W 5366  26.054  33.525  14.917
45864W        W 5367   2.962  12.854  13.791
45865W        W 5368  20.583   4.343   0.808
45866W        W 5369  42.453  35.387  13.796
45867W        W 5370   7.676  22.160  13.988
45868W        W 5371  39.042  29.002   2.700
45869W        W 5372  23.014   2.391   0.782
45870W        W 5373   2.794   9.354   0.903
45871W        W 5374   5.923   1.943   3.691
45872W        W 5375   0.262   9.394  12.434
45873W        W 5376   4.356   5.233  13.919
45874W        W 5377  41.985   0.253   0.250
45875W        W 5378  35.107   9.859  11.543
45876W        W 5379  15.736  30.575  10.048
45877W        W 5380  23.140  28.618   3.652
45878W        W 5381  24.116   3.934  10.632
45879W        W 5382  28.021  24.674  10.998
45880W        W 5383  44.867  18.106   4.730
45881W        W 5384  41.388  37.939   0.807
45882W        W 5385  19.087  36.017  11.439
45883W        W 5386  35.004  23.192   2.898
45884W        W 5387  37.986   3.367  11.921
45885W        W 5388  13.281  18.173   3.737
45886W        W 5389  36.991  35.485  12.917
45887W        W 5390  18.175  30.520  11.044
45888W        W 5391  26.696  19.175   1.735
45889W        W 5392  11.256   7.871   2.306
45890W        W 5393  25.666  39.379   4.691
45891W        W 5394  18.063   4.234   3.702
45892W        W 5395  37.540  42.496   0.250
45893W        W 5396  13.788   9.706  11.066
45894W        W 5397  39.899  25.694  11.932
45895W        W 5398  29.152  15.681  13.800
45896W        W 5399  40.803  18.760  13.906
45897W        W 5400  11.727   8.390   4.246
45898W        W 5401  43.852  19.727   4.115
45899W        W 5402  36.025  20.595   0.832
45900W        W 5403  38.418   1.312  14.845
45901W        W 5404   3.428  20.191  13.372
45902W        W 5405  15.719   3.879  10.547
45903W        W 5406  40.411  31.442   0.279
45904W        W 5407  13.714  42.871   4.285
45905W        W 5408   5.199  43.282  11.575
45906W        W 5409  35.556  44.003  11.096
45907W        W 5410  42.392  33.125   1.880
45908W        W 5411   6.267  13.259  13.379
45909W        W 5412  30.941  28.457  14.832
45910W        W 5413  23.684   9.375   3.261
45911W        W 5414  16.653  23.516  13.476
45912W        W 5415  30.077  31.078   2.267
45913W        W 5416  20.214  35.604  10.567
45914W        W 5417  25.148  39.012   3.816
45915W        W 5418  28.029   2.453  11.428
45916W        W 5419  27.465  19.534  14.904
45917W        W 5420  11.742  12.312   0.251
45918W        W 5421  34.946  13.112  12.470
45919W        W 5422  33.950  24.103   2.698
45920W        W 5423  11.819  40.823   2.855
45921W        W 5424  20.719   6.344  11.534
45922W        W 5425  30.554  25.597  11.441
45923W        W 5426  34.594   1.750   2.278
45924W        W 5427  11.355  26.113   2.884
45925W        W 5428  39.445  37.836   2.775
45926W        W 5429  33.972  32.893  12.354
45927W        W 5430  13.146   2.914  10.955
45928W        W 5431  17.785  24.617   3.384
45929W        W 5432  12.761  14.225   4.816
45930W        W 5433  42.920  20.251   5.213
45931W        W 5434  31.439  41.455  13.809
45932W        W 5435  15.189   5.809   3.166
45933W        W 5436  32.073  33.552   5.175
45934W        W 5437  24.218  41.433  10.601
45935W        W 5438  27.054  34.535  11.479
45936W        W 5439  41.405  11.768   4.623
45937W        W 5440  12.768  27.111   3.837
45938W        W 5441  24.562  27.597   2.690
45939W        W 5442  10.727   5.888  11.535
45940W        W 5443  10.692  23.507   3.709
45941W        W 5444  25.092   1.338   0.371
45942W        W 5445  26.464   8.791  12.505
45943W        W 5446  23.001  14.645   0.347
45944W        W 5447   9.250  14.287  14.836
45945W        W 5448  16.222  19.110  12.569
45946W        W 5449  32.566  40.359   4.607
45947W        W 5450  24.994  41.013   4.620
45948W        W 5451  15.733  14.736   1.752
45949W        W 5452  37.047   9.739  13.921
45950W        W 5453  19.684   6.690   3.869
45951W        W 5454  10.717  21.757   3.170
45952W        W 5455   8.164  43.396  10.613
45953W        W 5456  29.594  21.641   3.342
45954W        W 5457  29.016  25.550   1.253
45955W        W 5458   8.837  40.369  12.353
45956W        W 5459  29.522   0.882   2.184
45957W        W 5460  29.632  15.674  13.023
45958W        W 5461  38.076  18.553  11.978
45959W        W 5462  34.094   2.846  14.814
45960W        W 5463  38.364   7.350   0.354
45961W        W 5464  18.762  18.573   3.305
45962W        W 5465   5.435  36.056  11.071
45963W        W 5466  36.391  19.672   5.191
45964W        W 5467  41.477  24.154   1.375
45965W        W 5468  18.752  40.805  12.344
45966W        W 5469  42.358  38.972  12.440
45967W        W 5470  44.345   9.835   4.173
45968W        W 5471  18.099  25.535   0.319
45969W        W 5472  25.967  10.236   2.193
45970W        W 5473  30.441  14.793  12.854
45971W        W 5474   4.868  13.222  11.576
45972W        W 5475  30.589  26.150  10.501
45973W        W 5476  29.123  32.481  14.991
45974W        W 5477  23.998  15.273  14.471
45975W        W 5478  16.073  32.521  13.355
45976W        W 5479   6.220  13.291   3.841
45977W        W 5480  40.820  43.336  13.063
45978W        W 5481  31.106   3.830   4.249
45979W        W 5482  20.211  21.636   3.763
45980W        W 5483  12.283   8.673  12.962
45981W        W 5484  40.452  35.454  14.979
45982W        W 5485   9.336  40.547  12.543
45983W        W 5486  39.007  31.576  14.414
45984W        W 5487  15.110  17.253   3.309
45985W        W 5488  41.013  14.145  14.789
45986W        W 5489  16.105   8.187   0.751
45987W        W 5490  23.645  11.253  12.548
45988W        W 5491  12.156  39.482  12.396
45989W        W 5492  32.578  21.134   0.958
45990W        W 5493  42.303  40.815   0.456
45991W        W 5494  23.110  21.218   1.926
45992W        W 5495  39.034  30.145  10.009
45993W        W 5496  36.483  36.576   1.881
45994W        W 5497  43.353  38.858  13.813
45995W        W 5498  35.917  29.450  12.410
45996W        W 5499  43.891  31.999   3.810
45997W        W 5500  12.239  25.109  13.898
45998W        W 5501   6.189  15.188  14.788
45999W        W 5502   8.224   9.226  11.049
46000W        W 5503  29.536  44.877   1.450
46001W        W 5504   7.199  30.632   2.345
46002W        W 5505  19.177  28.440   0.362
46003W        W 5506  38.974   7.306  14.383
46004W        W 5507  26.966  15.241  12.362
46005W        W 5508  15.207  35.426   1.718
46006W        W 5509  12.753  23.534  12.564
46007W        W 5510   2.929  38.051   0.262
46008W        W 5511  43.444  17.574   1.703
46009W        W 5512   0.813   0.785   3.699
46010W        W 5513   6.771  37.897  10.415
46011W        W 5514   7.874  25.517   0.781
46012W        W 5515  34.934  23.631  12.541
46013W        W 5516  37.012  25.066   4.682
46014W        W 5517   2.414  41.343   0.349
46015W        W 5518  19.723  22.523  11.547
46016W        W 5519  31.988   3.931  12.065
46017W        W 5520  29.622  17.127   3.848
46018W        W 5521  18.183  31.534  14.415
46019W        W 5522   2.941  36.968  12.971
46020W        W 5523  19.212  16.689   0.244
46021W        W 5524   1.840  13.694  10.588
46022W        W 5525   8.238  19.716   4.821
46023W        W 5526  39.414  10.369   4.717
46024W        W 5527  36.943  26.072   2.757
46025W        W 5528   7.767   3.267  11.943
46026W        W 5529  10.794   6.225  13.909
46027W        W 5530  32.479  21.099   4.723
46028W        W 5531  17.303  30.555   4.760
46029W        W 5532  33.475  35.942   2.181
46030W        W 5533   0.896   9.692   1.764
46031W        W 5534  43.832  27.449   2.689
46032W        W 5535  28.961   0.424  13.460
46033W        W 5536  34.435   6.691   4.760
46034W        W 5537  44.448  26.209   4.203
46035W        W 5538  23.515  11.269  13.865
46036W        W 5539  40.445  39.872   3.728
46037W        W 5540  15.783  28.574   3.216
46038W        W 5541   1.357  34.092   4.757
46039W        W 5542  27.484  24.687   2.709
46040W        W 5543  22.579  36.387  10.933
46041W        W 5544  23.196  41.919   1.705
46042W        W 5545  12.649  39.927  13.003
46043W        W 5546   2.340  19.126   0.732
46044W        W 5547  32.405  34.066  13.414
46045W        W 5548  21.743  25.180  13.416
46046W        W 5549  44.426   5.773   2.736
46047W        W 5550   9.712  30.552   3.748
46048W        W 5551  41.938   7.413  11.535
46049W        W 5552  23.069  26.553   1.878
46050W        W 5553  32.982   6.355  13.014
46051W        W 5554   7.727  19.169   9.593
46052W        W 5555  14.146   1.247   3.364
46053W        W 5556  16.276  31.923   4.606
46054W        W 5557  14.168   6.260  11.611
46055W        W 5558   9.755   7.376  12.406
46056W        W 5559  36.942  42.904  13.805
46057W        W 5560  26.543  12.708   9.956
46058W        W 5561   0.980  28.958  12.392
46059W        W 5562  36.350   1.358  14.018
46060W        W 5563  11.860  27.544   0.727
46061W        W 5564  23.020  10.661  12.384
46062W        W 5565  34.426   6.387   3.335
46063W        W 5566   9.729  21.589  11.958
46064W        W 5567   2.293  16.238   0.935
46065W        W 5568  13.332  13.782   0.405
46066W        W 5569  25.479  41.339   4.237
46067W        W 5570   0.804  16.655  13.460
46068W        W 5571  25.013  32.033   3.334
46069W        W 5572   6.285  41.803  12.399
46070W        W 5573  35.912  14.678  14.875
46071W        W 5574  14.170  31.486  14.477
46072W        W 5575   4.828  13.838   0.899
46073W        W 5576  44.898   2.431   3.686
46074W        W 5577  24.169  39.980   0.286
46075W        W 5578  41.349  32.505   2.677
46076W        W 5579  43.869  23.668   3.743
46077W        W 5580  42.830  36.375   3.629
46078W        W 5581  26.622  18.559  11.401
46079W        W 5582  33.394   0.889   5.154
46080W        W 5583   1.479   0.342  14.473
46081W        W 5584   9.187   4.267  11.001
46082W        W 5585  25.173  33.491  13.447
46083W        W 5586  40.443  33.590   1.824
46084W        W 5587  31.051  32.951   0.294
46085W        W 5588  18.083  11.841   0.965
46086W        W 5589   9.878  40.976  14.316
46087W        W 5590  39.418  15.634  11.500
46088W        W 5591  38.881  41.025  13.883
46089W        W 5592  43.976  30.014   0.780
46090W        W 5593  19.594  41.955   4.693
46091W        W 5594  21.242   1.290   2.779
46092W        W 5595  30.059  11.794  12.039
46093W        W 5596   0.745  16.209   0.428
46094W        W 5597  21.225  38.043   3.664
46095W        W 5598  39.930  30.427  12.505
46096W        W 5599  32.413  43.351   4.726
46097W        W 5600  13.831   7.846   4.649
46098W        W 5601  36.388  14.224   2.689
46099W        W 5602  16.802  15.227  12.053
46100W        W 5603  42.794  43.395   4.678
46101W        W 5604  22.564  20.625   0.250
46102W        W 5605  14.783  23.542   4.292
46103W        W 5606  27.675  11.312   0.850
46104W        W 5607  40.936  31.513   4.303
46105W        W 5608  42.504  27.988   2.222
46106W        W 5609  44.464  22.554  10.502
46107W        W 5610  39.352  30.129   0.858
46108W        W 5611  30.009  14.704   3.323
46109W        W 5612  36.964  44.941   2.674
46110W        W 5613  39.369  37.558   1.409
46111W        W 5614   8.188  21.627   1.302
46112W        W 5615   0.274  40.819  11.915
46113W        W 5616  36.400  17.800   3.701
46114W        W 5617   1.341  31.597  12.377
46115W        W 5618  30.568   3.722   1.389
46116W        W 5619  33.893  44.007  10.506
46117W        W 5620   1.425  41.835  11.509
46118W        W 5621  19.719  30.931  11.931
46119W        W 5622   1.822  41.480   3.258
46120W        W 5623  11.719   9.195  14.778
46121W        W 5624  18.665  16.292   4.664
46122W        W 5625   9.831  18.063  14.011
46123W        W 5626  35.425  18.093  10.908
46124W        W 5627   6.197  44.444  14.400
46125W        W 5628  41.811  44.379   2.752
46126W        W 5629  25.658  36.499   2.882
46127W        W 5630  27.458  28.639   9.947
46128W        W 5631  39.525  13.751  13.812
46129W        W 5632  34.045  29.444  14.396
46130W        W 5633  43.842  40.798  14.439
46131W        W 5634  25.181   1.245  12.831
46132W        W 5635  10.359  21.111   4.803
46133W        W 5636  41.325   3.875  14.791
46134W        W 5637  41.980  13.214   3.817
46135W        W 5638  14.679   2.373  10.638
46136W        W 5639   6.787  27.551  13.383
46137W        W 5640  19.048   9.761   4.715
46138W        W 5641  28.625  30.997   2.691
46139W        W 5642  36.352  41.344  14.448
46140W        W 5643  17.239  13.763   3.656
46141W        W 5644  42.802  19.663  13.893
46142W        W 5645  39.447  15.224  12.951
46143W        W 5646  35.943   4.826   9.548
46144W        W 5647   7.809  28.560  12.521
46145W        W 5648  44.879  32.024   0.893
46146W        W 5649   3.851   6.872  13.008
46147W        W 5650  26.983  34.942   0.746
46148W        W 5651  15.744  26.624  10.509
46149W        W 5652  26.180  38.392   0.341
46150W        W 5653  42.798  30.982   0.347
46151W        W 5654   7.802  34.474   0.925
46152W        W 5655  13.807  31.618  13.545
46153W        W 5656   6.237  26.094  14.019
46154W        W 5657   2.262  11.809   3.667
46155W        W 5658   0.916  34.434  12.560
46156W        W 5659  10.683  17.733  13.815
46157W        W 5660  24.520   3.361   2.764
46158W        W 5661  15.619   2.228   2.253
46159W        W 5662   0.393  38.857   0.764
46160W        W 5663  21.234   3.283  13.941
46161W        W 5664  21.247  22.706   5.226
46162W        W 5665  42.777  41.798  12.967
46163W        W 5666   7.842  20.724  14.315
46164W        W 5667  29.503  24.633  12.455
46165W        W 5668  38.364  42.512  13.356
46166W        W 5669  16.095  15.730   2.367
46167W        W 5670  24.517   4.270  11.436
46168W        W 5671  21.212  41.388   4.610
46169W        W 5672   6.225  41.473  11.034
46170W        W 5673   4.275  24.636  14.802
46171W        W 5674  14.718  42.964   0.435
46172W        W 5675  20.187  33.424   1.739
46173W        W 5676   9.362   9.822   1.884
46174W        W 5677  40.960  12.813  11.864
46175W        W 5678  26.653   4.859   3.193
46176W        W 5679  27.556  36.991   0.332
46177W        W 5680  17.229  25.699   1.288
46178W        W 5681  12.300  15.133   3.382
46179W        W 5682  44.798  22.247  11.020
46180W        W 5683  34.474  24.985   3.333
46181W        W 5684  29.652  32.532  10.929
46182W        W 5685  29.497  37.894   4.221
46183W        W 5686  13.124  32.077   1.836
46184W        W 5687  14.801  17.066   0.313
46185W        W 5688  25.616  11.247   4.784
46186W        W 5689  16.743  41.003   1.812
46187W        W 5690  31.597  39.031  10.453
46188W        W 5691   9.832   8.253   4.755
46189W        W 5692  40.819  16.579  12.915
46190W        W 5693  16.595  32.084  14.918
46191W        W 5694   4.871  32.437   5.145
46192W        W 5695  40.801   9.738  12.340
46193W        W 5696  38.909  31.960  11.996
46194W        W 5697  28.517   9.271   4.802
46195W        W 5698  24.687  21.691   2.669
46196W        W 5699  28.530  17.689  12.871
46197W        W 5700  19.628  20.065  12.562
46198W        W 5701   8.346  27.464  13.327
46199W        W 5702   3.420  28.633   1.751
46200W        W 5703   8.298  23.175  12.978
46201W        W 5704  44.485  38.844  12.382
46202W        W 5705  13.332   3.866   3.361
46203W        W 5706  22.066   0.932  13.872
46204W        W 5707  28.625  23.090   2.295
46205W        W 5708  31.948  25.517  11.857
46206W        W 5709  11.788  34.118  11.611
46207W        W 5710  27.484  35.094   3.642
46208W        W 5711  24.216  44.343   5.623
46209W        W 5712   5.905  12.646   4.312
46210W        W 5713   6.404  20.752   0.948
46211W        W 5714  22.678  13.789   0.743
46212W        W 5715  26.072  43.906   1.923
46213W        W 5716  19.100  26.547   1.803
46214W        W 5717  24.651   5.719  13.985
46215W        W 5718  26.065  27.459  14.405
46216W        W 5719  11.365  43.882  10.448
46217W        W 5720  30.652  21.225   2.780
46218W        W 5721  12.741  21.551  14.945
46219W        W 5722   0.814  19.714   0.813
46220W        W 5723  26.956  35.396  12.372
46221W        W 5724   1.248  25.963   5.592
46222W        W 5725  15.297   8.402   3.183
46223W        W 5726   9.284  25.071  14.418
46224W        W 5727   0.486  21.598   0.739
46225W        W 5728  44.823   1.857  14.506
46226W        W 5729  35.603  39.001   9.620
46227W        W 5730  23.036  33.419   0.390
46228W        W 5731  33.903   4.208   1.721
46229W        W 5732  12.139   8.327   2.796
46230W        W 5733   8.894  25.200  11.940
46231W        W 5734   0.899   2.282  12.879
46232W        W 5735  17.695   7.809   0.355
46233W        W 5736  42.365  27.039  14.857
46234W        W 5737  33.585  43.905   1.921
46235W        W 5738  11.748  13.683   4.164
46236W        W 5739  37.087   5.735   0.317
46237W        W 5740  16.090  37.954   1.308
46238W        W 5741  26.137  18.586   4.782
46239W        W 5742  23.196   8.663   0.383
46240W        W 5743   6.687  35.021  13.850
46241W        W 5744  42.792  19.558  12.849
46242W        W 5745  34.946  43.944   3.753
46243W        W 5746   7.170  24.625   0.481
46244W        W 5747  23.121  41.415   2.191
46245W        W 5748  36.434  35.398  14.347
46246W        W 5749  29.493  32.408   3.283
46247W        W 5750   2.855  28.181  12.092
46248W        W 5751  36.527  15.759  13.881
46249W        W 5752  34.464  15.168   2.859
46250W        W 5753  11.135  36.999   2.672
46251W        W 5754  14.249  13.150   4.233
46252W        W 5755  11.813  27.142   0.372
46253W        W 5756  41.935  39.004  13.016
46254W        W 5757  44.952   9.658   2.677
46255W        W 5758  37.866  13.712   4.297
46256W        W 5759  41.531   0.973  10.951
46257W        W 5760   7.691  11.685   0.443
46258W        W 5761  17.759  33.552  11.479
46259W        W 5762  35.081  39.959   1.788
46260W        W 5763  28.625  29.492  14.968
46261W        W 5764   6.373  14.637  11.595
46262W        W 5765  13.120   4.921  10.531
46263W        W 5766  23.998  43.411   1.732
46264W        W 5767  42.371   1.802   0.770
46265W        W 5768  42.328  41.813   0.914
46266W        W 5769  41.036  26.505   0.936
46267W        W 5770   9.382   3.281  10.030
46268W        W 5771   5.289  34.604   0.254
46269W        W 5772   8.829  31.041   4.165
46270W        W 5773  16.731  36.946   0.937
46271W        W 5774  14.649   3.373   3.705
46272W        W 5775  14.758  30.086   2.402
46273W        W 5776   7.728  40.331  10.929
46274W        W 5777  10.710  18.756   0.373
46275W        W 5778  39.411  27.103  12.411
46276W        W 5779  40.489   8.224  12.049
46277W        W 5780   4.420  18.223  13.982
46278W        W 5781  34.577  42.977  12.481
46279W        W 5782  29.535   8.338   1.828
46280W        W 5783  11.663  34.886  11.417
46281W        W 5784  32.498   7.215  11.578
46282W        W 5785  26.082  21.176  12.378
46283W        W 5786  17.188  20.630   2.276
46284W        W 5787   0.865   5.393   2.416
46285W        W 5788  28.064  26.031   4.602
46286W        W 5789  22.997  18.210   3.150
46287W        W 5790  20.758   2.386  14.368
46288W        W 5791  11.813  24.564   2.748
46289W        W 5792   4.868  18.276   1.901
46290W        W 5793  17.734  44.882   2.845
46291W        W 5794  22.123  15.678   0.842
46292W        W 5795  42.786  26.114   2.375
46293W        W 5796  20.255  43.370   2.793
46294W        W 5797  33.896   6.189   4.733
46295W        W 5798   7.267  28.012   0.257
46296W        W 5799  44.300  40.958  12.089
46297W        W 5800  14.289  17.258   1.255
46298W        W 5801  30.932  19.094   4.620
46299W        W 5802  20.630  16.281  12.516
46300W        W 5803  29.621  10.253   5.134
46301W        W 5804  23.638  20.122   3.816
46302W        W 5805  30.974   0.937   3.314
46303W        W 5806   2.816   6.908  14.786
46304W        W 5807   8.242  26.098   4.721
46305W        W 5808  25.538  29.091   4.616
46306W        W 5809  21.612  21.677   0.932
46307W        W 5810   2.944  20.124   0.371
46308W        W 5811  17.076  44.819  13.877
46309W        W 5812  15.328  30.037   2.190
46310W        W 5813  32.959  43.942  10.900
46311W        W 5814  40.323  23.198   4.735
46312W        W 5815  33.905  17.194   2.819
46313W        W 5816  32.948  26.033  11.926
46314W        W 5817   4.912  11.844  11.554
46315W        W 5818  16.104  18.085   2.222
46316W        W 5819  33.463   4.424   2.370
46317W        W 5820   7.903   0.343   4.343
46318W        W 5821  42.862   5.772  12.019
46319W        W 5822  40.936  27.016   2.341
46320W        W 5823  38.489  12.221   2.747
46321W        W 5824  33.973  35.926  14.375
46322W        W 5825  21.575  31.571  11.856
46323W        W 5826  33.400  21.533  11.426
46324W        W 5827  40.401  20.634   4.163
46325W        W 5828  18.218   6.860  14.816
46326W        W 5829  36.869   7.393  12.973
46327W        W 5830  42.780  35.569  13.390
46328W        W 5831  15.320  39.543  12.548
46329W        W 5832  42.475  26.967  14.443
46330W        W 5833  34.378  15.810  14.875
46331W        W 5834  35.046  37.573   4.306
46332W        W 5835  13.606   8.373  11.916
46333W        W 5836  22.235  13.755   0.270
46334W        W 5837  40.390  26.171  10.460
46335W        W 5838   5.922  34.001  12.987
46336W        W 5839  23.092  15.741   3.363
46337W        W 5840  42.022  11.236  13.539
46338W        W 5841  14.676  44.799  13.896
46339W        W 5842   8.736  37.370   0.263
46340W        W 5843   5.778  12.150  14.793
46341W        W 5844  44.380  35.865  13.926
46342W        W 5845  15.284  38.003  14.794
46343W        W 5846   7.370  32.414  12.902
46344W        W 5847  28.943  38.026  12.534
46345W        W 5848  24.063  19.079  11.461
46346W        W 5849  22.184  35.100  13.377
46347W        W 5850  21.133  44.888   1.910
46348W        W 5851  15.153  30.957   3.180
46349W        W 5852  20.658  15.593  10.952
46350W        W 5853  27.522  39.956  14.498
46351W        W 5854  40.414  10.281  11.032
46352W        W 5855   7.765  26.007   1.325
46353W        W 5856  13.745  41.832   4.609
46354W        W 5857  13.709  21.242   1.735
46355W        W 5858  43.359  13.753   3.772
46356W        W 5859  36.496  42.451  13.345
46357W        W 5860   9.314  42.937  14.897
46358W        W 5861  18.682  14.616   3.252
46359W        W 5862   5.792  43.490   2.870
46360W        W 5863  26.612  30.160   1.318
46361W        W 5864  26.685  36.572  12.514
46362W        W 5865  41.915  43.808   4.193
46363W        W 5866   9.742   9.299   2.249
46364W        W 5867  38.855  24.056   2.349
46365W        W 5868   2.297  34.424   2.278
46366W        W 5869   6.697   4.216   2.399
46367W        W 5870  42.877  12.824  13.017
46368W        W 5871  24.683  31.024  13.822
46369W        W 5872  38.504  15.788   2.263
46370W        W 5873  15.191  44.426   2.783
46371W        W 5874  19.158  18.682   2.266
46372W        W 5875  12.131  12.344  14.978
46373W        W 5876   4.709   4.856  11.879
46374W        W 5877   1.255  27.949   1.331
46375W        W 5878  13.692  12.650  10.423
46376W        W 5879  18.627   3.721  10.999
46377W        W 5880  42.430  38.346   0.924
46378W        W 5881  27.989  17.256  10.949
46379W        W 5882  32.440  30.108  13.514
46380W        W 5883  31.535   5.691   2.878
46381W        W 5884   5.259  19.106  10.468
46382W        W 5885  28.149  29.170   0.906
46383W        W 5886   6.777   5.833   2.240
46384W        W 5887  20.127  31.585   0.336
46385W        W 5888  22.596  16.218  12.092
46386W        W 5889  33.406  35.886   0.269
46387W        W 5890  29.052  13.337   2.747
46388W        W 5891  25.553  38.822   5.245
46389W        W 5892  40.480  19.668   3.234
46390W        W 5893  20.074  15.655  11.083
46391W        W 5894  28.443   7.886  10.550
46392W        W 5895  43.914  41.501  12.424
46393W        W 5896  37.567   5.233   9.526
46394W        W 5897  41.322  12.231   0.447
46395W        W 5898  12.335  37.410   4.723
46396W        W 5899  31.646  16.201  13.010
46397W        W 5900   9.695   5.736   3.682
46398W        W 5901  19.669  35.088   4.295
46399W        W 5902  10.308  16.644  10.062
46400W        W 5903  34.904  14.278   4.670
46401W        W 5904  40.391  40.982  14.933
46402W        W 5905   4.276   8.693  12.007
46403W        W 5906  10.352  13.129   0.917
46404W        W 5907  13.832  42.428   4.265
46405W        W 5908  20.767  18.170  12.445
46406W        W 5909  16.744   4.910   3.183
46407W        W 5910  26.077   9.148   0.880
46408W        W 5911  10.153   3.333  12.866
46409W        W 5912   7.241  43.273  13.482
46410W        W 5913  12.621  30.649   1.280
46411W        W 5914  20.155   0.883   4.768
46412W        W 5915  26.640  29.583   5.276
46413W        W 5916  18.678  13.124   2.220
46414W        W 5917  14.822  42.522   1.228
46415W        W 5918   1.872  40.941   4.163
46416W        W 5919  37.370  32.452   4.114
46417W        W 5920  25.158  15.199  11.001
46418W        W 5921  40.526   9.270  14.981
46419W        W 5922  30.993  24.015   3.376
46420W        W 5923  22.040  34.870   0.421
46421W        W 5924  23.191  26.955  12.370
46422W        W 5925  37.362  33.019  14.484
46423W        W 5926   7.251  34.079  10.471
46424W        W 5927   5.275  39.956   2.209
46425W        W 5928  27.611  36.515  10.027
46426W        W 5929   9.155  19.117   3.285
46427W        W 5930  32.457   4.877  12.858
46428W        W 5931  38.877  30.575  11.396
46429W        W 5932  37.079  21.192  12.892
46430W        W 5933  20.110   4.703   2.210
46431W        W 5934  12.147  22.182  11.580
46432W        W 5935  32.503   5.431   0.382
46433W        W 5936  31.462   1.928  11.457
46434W        W 5937  19.185  32.090   1.713
46435W        W 5938  38.523  20.029   1.375
46436W        W 5939   4.819  25.043   0.398
46437W        W 5940  36.853  14.695  12.044
46438W        W 5941  18.562   2.728  12.456
46439W        W 5942   4.354   7.847  13.823
46440W        W 5943  31.491  16.276  12.456
46441W        W 5944  30.602  16.084   4.319
46442W        W 5945  40.848  28.504   1.333
46443W        W 5946   5.916  22.195  12.579
46444W        W 5947  25.504  35.594  13.368
46445W        W 5948  44.322  41.424  11.602
46446W        W 5949   6.301   5.761   0.247
46447W        W 5950  16.676  14.299   0.268
46448W        W 5951   5.841  18.750  14.905
46449W        W 5952  10.331  38.997  11.377
46450W        W 5953  37.475  33.398  12.525
46451W        W 5954  22.241   9.361  11.590
46452W        W 5955   9.164  17.290  14.404
46453W        W 5956  37.857   5.375   5.257
46454W        W 5957   9.183  34.106  12.412
46455W        W 5958   9.660   5.379  13.380
46456W        W 5959  27.972   2.873  13.332
46457W        W 5960  27.492  20.709   0.376
46458W        W 5961  35.965   1.875  14.880
46459W        W 5962   7.217  40.967   1.884
46460W        W 5963  33.016   6.882  13.017
46461W        W 5964  11.318   4.359   4.804
46462W        W 5965   5.753  22.155  12.901
46463W        W 5966  14.696  31.987   5.611
46464W        W 5967  39.362  23.654  13.396
46465W        W 5968  35.056  10.309  13.484
46466W        W 5969   5.199   3.410   0.926
46467W        W 5970  14.592  27.106   3.247
46468W        W 5971  17.776  10.321  13.547
46469W        W 5972   5.719  43.341   4.641
46470W        W 5973  41.807  28.003   3.242
46471W        W 5974  30.582   1.273   0.834
46472W        W 5975  21.030  39.907  11.110
46473W        W 5976  40.027  32.941   4.783
46474W        W 5977  34.431   9.676   4.223
46475W        W 5978  42.426   8.800  13.448
46476W        W 5979   3.821  11.624   4.835
46477W        W 5980  11.281  39.824  13.383
46478W        W 5981   3.749  31.459   0.404
46479W        W 5982  23.222  27.040   0.874
46480W        W 5983  17.704  14.336  12.997
46481W        W 5984  26.501  42.345   0.272
46482W        W 5985   0.247  43.800   2.841
46483W        W 5986  34.924  28.552   4.198
46484W        W 5987  35.067  39.947   2.196
46485W        W 5988  20.137  22.158   2.788
46486W        W 5989  27.674  29.139   4.217
46487W        W 5990   8.325   0.489  14.287
46488W        W 5991  18.268  34.567  13.382
46489W        W 5992  44.415  41.886   3.658
46490W        W 5993  18.588  25.682   3.835
46491W        W 5994  28.155  16.654   2.773
46492W        W 5995  35.912   5.768  14.814
46493W        W 5996   1.785   7.701   4.243
46494W        W 5997  17.067  31.960   2.689
46495W        W 5998   9.284  38.899  12.916
46496W        W 5999  44.797  33.395  14.436
46497W        W 6000  30.445  23.560   4.714
46498W        W 6001  41.404  18.677  10.607
46499W        W 6002  22.735   6.390   3.369
46500W        W 6003   0.834  42.461  13.932
46501W        W 6004   2.414  37.502   1.722
46502W        W 6005   5.714  22.046  13.928
46503W        W 6006  18.685   5.345  11.565
46504W        W 6007  37.442   6.270  14.902
46505W        W 6008  24.083  13.346  13.535
46506W        W 6009  22.071  12.792   2.795
46507W        W 6010   4.739   5.791  11.477
46508W        W 6011  11.671  44.273   0.759
46509W        W 6012  21.163  11.793   3.670
46510W        W 6013   3.327  18.738   3.698
46511W        W 6014  19.151   4.908  12.478
46512W        W 6015  17.672  20.156  11.594
46513W        W 6016   7.718  20.211  14.463
46514W        W 6017   6.242   6.760  11.928
46515W        W 6018  22.069  43.798  11.455
46516W        W 6019  37.835  15.656   2.275
46517W        W 6020   4.827  35.091  12.458
46518W        W 6021  13.681  26.113   4.115
46519W        W 6022  38.542  22.720  14.925
46520W        W 6023  26.512  40.979   2.763
46521W        W 6024   0.941  26.036  10.580
46522W        W 6025  17.649  29.037  14.388
46523W        W 6026   3.768   8.183   4.763
46524W        W 6027  22.658  13.618   3.157
46525W        W 6028  39.990  43.509  11.947
46526W        W 6029  31.622  23.712  10.149
46527W        W 6030  11.140  42.925  14.887
46528W        W 6031  26.520  42.437  11.985
46529W        W 6032  17.300   9.846   3.769
46530W        W 6033   2.402  42.390   0.831
46531W        W 6034  15.711  24.576   4.325
46532W        W 6035  24.079  40.400   2.899
46533W        W 6036  27.543  28.952  11.010
46534W        W 6037  13.674  42.428  10.539
46535W        W 6038  14.804  40.933  14.803
46536W        W 6039  30.648  23.710  10.951
46537W        W 6040   8.225  17.652  11.589
46538W        W 6041  26.467  40.812  12.912
46539W        W 6042  42.879  42.467   0.263
46540W        W 6043  38.503  34.977   2.692
46541W        W 6044  13.793  36.432  14.022
46542W        W 6045  33.585   1.364  14.503
46543W        W 6046   2.961  20.659  10.098
46544W        W 6047  17.746  38.433   2.402
46545W        W 6048   6.192  18.106   3.306
46546W        W 6049  44.995  39.031   3.773
46547W        W 6050  44.440   5.376  12.893
46548W        W 6051   8.899  38.460   3.777
46549W        W 6052   5.752  13.253  11.978
46550W        W 6053  38.488  39.937   0.847
46551W        W 6054  14.253   3.453  11.485
46552W        W 6055  16.204   9.862  10.627
46553W        W 6056  23.096  35.448  10.404
46554W        W 6057  30.581   3.360  10.550
46555W        W 6058  36.930  35.853  14.386
46556W        W 6059  38.329  14.630  13.534
46557W        W 6060  14.213  11.308   2.311
46558W        W 6061  39.822  42.360  14.872
46559W        W 6062  11.155  14.603  14.851
46560W        W 6063  20.653   2.287   0.929
46561W        W 6064  26.033  21.528  10.961
46562W        W 6065  43.923  23.190  13.478
46563W        W 6066  22.736  16.251  14.032
46564W        W 6067  11.757  40.022   9.952
46565W        W 6068  43.331  43.514  10.509
46566W        W 6069  43.849  14.328  12.922
46567W        W 6070  38.054  30.098  12.526
46568W        W 6071   5.381   3.404  13.931
46569W        W 6072  25.218   1.256  11.973
46570W        W 6073  24.061   1.332  10.542
46571W        W 6074  13.745  37.833  11.519
46572W        W 6075  28.040  20.207   3.160
46573W        W 6076   5.431   1.844   4.158
46574W        W 6077  20.030  39.347   0.835
46575W        W 6078   7.821  10.742  12.028
46576W        W 6079  18.570  38.830  14.946
46577W        W 6080   1.750  31.017   4.680
46578W        W 6081   7.716  25.068   4.720
46579W        W 6082  12.229   7.783   1.842
46580W        W 6083  26.083  18.639  13.488
46581W        W 6084  11.190  42.777  11.543
46582W        W 6085  16.100  14.819   0.785
46583W        W 6086  31.928  30.484   4.285
46584W        W 6087  17.215   1.367  12.548
46585W        W 6088  10.196   3.285   2.302
46586W        W 6089   6.919  22.231  14.888
46587W        W 6090  32.450  31.648   3.869
46588W        W 6091  24.514   1.747   5.259
46589W        W 6092  30.911  43.854  12.559
46590W        W 6093  27.557  42.835  14.277
46591W        W 6094  18.202  26.459   0.814
46592W        W 6095   8.794  11.178   2.317
46593W        W 6096  20.056  22.037   0.886
46594W        W 6097  13.643  30.504   0.346
46595W        W 6098  23.698  11.641  10.944
46596W        W 6099  43.905  33.525  12.030
46597W        W 6100   6.827  27.467  14.840
46598W        W 6101  13.806  14.613  14.920
46599W        W 6102  12.718   0.429  13.033
46600W        W 6103  17.794  40.477  14.791
46601W        W 6104  38.988  11.340  10.644
46602W        W 6105  41.917  24.539  13.412
46603W        W 6106   8.802  15.278  13.894
46604W        W 6107   2.259  21.736   4.176
46605W        W 6108  37.908   0.411  14.479
46606W        W 6109  41.850   8.826   4.334
46607W        W 6110  32.622  11.783  14.883
46608W        W 6111  10.144   2.247  12.981
46609W        W 6112   8.734   7.675  11.041
46610W        W 6113   0.422   1.411  14.445
46611W        W 6114  38.034  20.044  10.564
46612W        W 6115  34.407  38.407   4.186
46613W        W 6116  24.530  17.117   4.253
46614W        W 6117   4.239  29.969  13.400
46615W        W 6118   1.973   5.794   4.246
46616W        W 6119  29.626  10.859   0.785
46617W        W 6120  22.026  16.223  10.583
46618W        W 6121  26.043  38.874   2.709
46619W        W 6122  22.085  27.571   2.208
46620W        W 6123  30.571  32.612   1.404
46621W        W 6124  17.773  42.808  11.524
46622W        W 6125  37.869  33.454  10.120
46623W        W 6126  23.142  32.635  14.905
46624W        W 6127  12.857  14.777   4.753
46625W        W 6128  27.078  16.668  11.969
46626W        W 6129  15.716  28.491  14.897
46627W        W 6130  36.358  34.387  10.430
46628W        W 6131  15.311  17.075  13.360
46629W        W 6132   3.779  11.695  14.461
46630W        W 6133  13.792   6.884  12.877
46631W        W 6134  21.720  16.677   3.750
46632W        W 6135   0.746  23.680  14.340
46633W        W 6136  37.493   3.801  14.976
46634W        W 6137  14.286  34.538  14.334
46635W        W 6138  18.546   8.188  12.910
46636W        W 6139   6.255  17.617   0.797
46637W        W 6140   0.459  17.646   3.773
46638W        W 6141   6.852  27.608  12.990
46639W        W 6142  39.830  12.277   1.798
46640W        W 6143  39.966  37.954  14.369
46641W        W 6144  12.680  38.960  13.468
46642W        W 6145  11.785   5.248   0.787
46643W        W 6146   5.232  26.472  13.852
46644W        W 6147  41.859  21.570  13.416
46645W        W 6148  23.203  28.114   0.813
46646W        W 6149  10.288  36.980  13.825
46647W        W 6150  15.705   8.230  11.076
46648W        W 6151  19.617  27.666   2.295
46649W        W 6152  42.298   7.795  11.007
46650W        W 6153  31.066  34.884   0.261
46651W        W 6154  34.614  44.370  13.472
46652W        W 6155  41.388   9.375  13.397
46653W        W 6156   5.824  19.233   1.901
46654W        W 6157  44.473  29.613  14.769
46655W        W 6158  15.322  28.602  11.480
46656W        W 6159  41.011  41.499   1.373
46657W        W 6160  30.064  11.823   4.317
46658W        W 6161   0.387  36.517  11.047
46659W        W 6162  11.287  29.574   0.874
46660W        W 6163  28.577   4.226   1.447
46661W        W 6164  18.578   7.768  14.799
46662W        W 6165  29.000   7.696  12.972
46663W        W 6166  32.581   4.411  13.017
46664W        W 6167  24.178  22.628  13.430
46665W        W 6168  43.362  21.729  11.450
46666W        W 6169  11.143   8.841  11.963
46667W        W 6170  35.508  23.082   4.699
46668W        W 6171   9.786   0.877  11.086
46669W        W 6172  13.736  34.499  12.032
46670W        W 6173   1.381  14.265   1.450
46671W        W 6174   5.743  19.701  10.547
46672W        W 6175  40.973  41.877   3.648
46673W        W 6176  15.306  38.914  14.330
46674W        W 6177  28.459  28.167   2.211
46675W        W 6178  19.056   3.775  11.555
46676W        W 6179  14.219  42.493  11.426
46677W        W 6180   8.207   2.254   1.357
46678W        W 6181   7.322   2.778  11.071
46679W        W 6182   5.432  31.587  13.944
46680W        W 6183  21.219  36.531  12.368
46681W        W 6184  28.145  34.031  13.819
46682W        W 6185   4.885   6.299   3.274
46683W        W 6186  36.900   3.251  14.469
46684W        W 6187  21.169  43.852   3.249
46685W        W 6188  23.561  18.730  12.535
46686W        W 6189  35.863   9.737  14.479
46687W        W 6190  43.911  11.170  13.055
46688W        W 6191   0.846  30.577  10.911
46689W        W 6192  36.855   0.953  14.413
46690W        W 6193  41.923  44.404   3.210
46691W        W 6194  33.989  38.861   1.818
46692W        W 6195   4.383  40.334   1.362
46693W        W 6196  21.575  36.503  13.930
46694W        W 6197   0.958  15.716   1.758
46695W        W 6198  25.082  17.068  14.955
46696W        W 6199  19.273  18.699  12.987
46697W        W 6200  23.019  16.747  10.436
46698W        W 6201   1.420  33.578  11.570
46699W        W 6202  33.897  44.305  12.383
46700W        W 6203  42.482   5.852   2.677
46701W        W 6204  10.236   7.271  10.441
46702W        W 6205  35.868  26.969  14.469
46703W        W 6206  22.126  42.295  13.365
46704W        W 6207  27.182  24.528  11.042
46705W        W 6208  24.479  19.161  14.938
46706W        W 6209  28.107  33.626   1.929
46707W        W 6210  18.735  13.690   3.176
46708W        W 6211   7.673  20.136  12.942
46709W        W 6212   3.430  34.983  14.383
46710W        W 6213  21.660  34.388  14.385
46711W        W 6214   9.308  18.772   5.722
46712W        W 6215   0.392  30.562   4.699
46713W        W 6216   2.946  40.367  14.496
46714W        W 6217   9.785  36.516   1.230
46715W        W 6218  19.116  17.761  11.566
46716W        W 6219  38.879   1.397  12.997
46717W        W 6220   3.402  17.070   1.737
46718W        W 6221   9.802  31.422  12.910
46719W        W 6222   5.773  12.141  12.990
46720W        W 6223  14.779  44.756  12.895
46721W        W 6224  27.688  11.298  12.985
46722W        W 6225  31.599  10.855  10.518
46723W        W 6226  21.079  25.190   0.353
46724W        W 6227   4.311   7.369  11.560
46725W        W 6228  38.825   0.324  14.870
46726W        W 6229   3.816  11.217  13.014
46727W        W 6230  35.949  10.204   4.120
46728W        W 6231  32.924  17.562  13.021
46729W        W 6232  17.249   4.861  11.882
46730W        W 6233  26.082  21.198   0.928
46731W        W 6234  13.809  21.169   0.349
46732W        W 6235  37.399  43.336   2.890
46733W        W 6236  44.400   5.365  14.838
46734W        W 6237  36.969  33.551  10.938
46735W        W 6238  12.176  23.185   2.365
46736W        W 6239  40.881  14.279  10.602
46737W        W 6240  17.678  32.494  11.378
46738W        W 6241  30.585  40.355  12.873
46739W        W 6242  31.433  42.327   2.696
46740W        W 6243  36.028  28.667  12.403
46741W        W 6244  25.187  14.285  13.833
46742W        W 6245   5.717  28.541  11.990
46743W        W 6246  28.556  13.699   2.736
46744W        W 6247   4.261  13.185  14.932
46745W        W 6248  44.939  23.213  11.113
46746W        W 6249   1.743  39.867   2.398
46747W        W 6250  23.013  36.559   0.465
46748W        W 6251  13.732  41.971  12.410
46749W        W 6252  38.460  11.135  12.484
46750W        W 6253  42.397   7.780   2.787
46751W        W 6254   0.846  20.177   0.408
46752W        W 6255  16.267  28.084  12.359
46753W        W 6256  34.950  17.586  12.859
46754W        W 6257  18.211  21.545   2.276
46755W        W 6258  11.263  21.039  11.604
46756W        W 6259  20.613  14.277  11.999
46757W        W 6260   8.182  21.684   0.321
46758W        W 6261  38.897  37.386   1.407
46759W        W 6262   1.743  27.135   1.298
46760W        W 6263  42.835  37.879   2.261
46761W        W 6264  24.647   6.245  12.053
46762W        W 6265  24.609  37.063   0.357
46763W        W 6266   6.232  40.318  14.032
46764W        W 6267  20.244   5.728  11.069
46765W        W 6268  15.789  24.173  13.469
46766W        W 6269  29.529   7.893  11.396
46767W        W 6270   0.805  20.269   3.314
46768W        W 6271   2.863   5.832  10.988
46769W        W 6272   6.189  27.450   0.740
46770W        W 6273  27.457  41.492   4.612
46771W        W 6274  40.868  40.052   0.281
46772W        W 6275   2.293  30.432   4.234
46773W        W 6276  42.002   3.372   4.824
46774W        W 6277   1.271  32.464   1.332
46775W        W 6278  14.250  32.522  12.991
46776W        W 6279   8.222  23.227   4.720
46777W        W 6280  19.775  15.586  13.314
46778W        W 6281  43.796  39.818  13.325
46779W        W 6282   0.754  19.078   1.878
46780W        W 6283  27.988   3.890   1.806
46781W        W 6284  10.197  37.008  10.888
46782W        W 6285  21.072  25.489   4.647
46783W        W 6286  37.928  14.773  10.451
46784W        W 6287  34.040  32.947  11.062
46785W        W 6288  44.397  26.162  14.905
46786W        W 6289  40.831   0.872  10.463
46787W        W 6290  17.775  27.078  10.634
46788W        W 6291  11.708  38.826   2.376
46789W        W 6292   2.802  36.582  13.481
46790W        W 6293   6.245  35.996   4.185
46791W        W 6294   0.902  39.968  13.792
46792W        W 6295  43.377  43.514   4.793
46793W        W 6296  27.629   3.800  12.048
46794W        W 6297  35.560  36.916   3.767
46795W        W 6298  13.295   0.250   4.736
46796W        W 6299   4.936  22.541   2.261
46797W        W 6300  30.554  18.671  11.865
46798W        W 6301  24.647   3.356  10.920
46799W        W 6302  11.128  43.956   2.884
46800W        W 6303  35.909  20.091   4.635
46801W        W 6304   3.723  36.551  14.450
46802W        W 6305   6.262  35.917  12.085
46803W        W 6306   5.370  40.914   4.678
46804W        W 6307  19.676  18.652   3.176
46805W        W 6308  25.999  14.672  14.846
46806W        W 6309  19.055   3.905   4.769
46807W        W 6310   8.204  27.543   0.448
46808W        W 6311  26.073  26.549  14.862
46809W        W 6312  32.011  43.412  10.569
46810W        W 6313  24.599  42.878   3.355
46811W        W 6314  40.988  35.503   0.396
46812W        W 6315  29.055  42.429   0.837
46813W        W 6316   3.936  26.544  12.439
46814W        W 6317   4.755  41.369   1.419
46815W        W 6318  35.417  24.146   4.811
46816W        W 6319  23.995  35.061   3.730
46817W        W 6320  43.923   9.207  12.023
46818W        W 6321   7.224  41.958  12.342
46819W        W 6322  23.713  26.479  11.909
46820W        W 6323   4.928  14.154   3.318
46821W        W 6324  36.496  24.163   1.743
46822W        W 6325  40.390   6.273   9.939
46823W        W 6326  10.767  10.164  11.007
46824W        W 6327  32.587   9.886  13.419
46825W        W 6328  18.279  30.123   1.694
46826W        W 6329   1.917  34.443  14.317
46827W        W 6330  20.680  27.001   4.324
46828W        W 6331  23.663  27.118  13.980
46829W        W 6332   4.246  10.165  12.521
46830W        W 6333  22.729  13.291   2.220
46831W        W 6334  28.039  29.561  10.898
46832W        W 6335  33.425  13.706   9.471
46833W        W 6336  35.581  43.819  13.547
46834W        W 6337  35.514  19.232  10.912
46835W        W 6338  21.652  28.498   1.808
46836W        W 6339  15.685  14.612  11.887
46837W        W 6340  17.672  18.074  11.548
46838W        W 6341  24.660  13.242  12.907
46839W        W 6342  17.606  37.567  13.928
46840W        W 6343   3.819  34.528  12.927
46841W        W 6344  35.435  11.190  14.959
46842W        W 6345  22.250  42.022  11.482
46843W        W 6346  21.651   8.871   1.408
46844W        W 6347   5.713  15.705   2.701
46845W        W 6348  34.464   7.388  12.067
46846W        W 6349  26.544  19.161   3.631
46847W        W 6350   7.811  20.651   2.256
46848W        W 6351   5.210  15.177  12.570
46849W        W 6352  16.680  19.224  14.795
46850W        W 6353  37.926  11.345  12.044
46851W        W 6354  12.660  12.701  11.507
46852W        W 6355  26.107  38.844   0.456
46853W        W 6356  26.967  43.338   4.672
46854W        W 6357  38.051  23.237   1.412
46855W        W 6358  38.363  17.162   4.749
46856W        W 6359  37.414  32.121   2.202
46857W        W 6360  40.315  19.255  11.393
46858W        W 6361  23.618   7.286   0.272
46859W        W 6362  39.035  31.625  10.129
46860W        W 6363  30.995  17.137   0.827
46861W        W 6364  30.952  43.938   1.432
46862W        W 6365  13.840  38.502  11.559
46863W        W 6366  23.114   4.369   4.286
46864W        W 6367  32.523   3.295  12.868
46865W        W 6368   4.863   3.377  13.379
46866W        W 6369  17.611  19.273  14.347
46867W        W 6370  39.535  26.639  13.900
46868W        W 6371  22.507   6.285  14.793
46869W        W 6372  36.572  30.472  12.995
46870W        W 6373  10.287  27.576   0.731
46871W        W 6374  11.193  22.549   2.728
46872W        W 6375   7.209  14.284   3.730
46873W        W 6376  18.202  28.130   1.398
46874W        W 6377  22.245  29.441   4.167
46875W        W 6378   9.204  35.541  14.945
46876W        W 6379  32.593  29.976  11.889
46877W        W 6380  41.836  36.913   0.870
46878W        W 6381  30.925  19.215   0.362
46879W        W 6382  39.343  37.406  10.139
46880W        W 6383  20.067  29.473  10.137
46881W        W 6384  25.125  15.725  12.893
46882W        W 6385  38.041   6.325   0.809
46883W        W 6386   6.384   8.817   4.198
46884W        W 6387  28.061  38.017   3.715
46885W        W 6388  41.308  10.141   0.288
46886W        W 6389  26.634  25.678   1.825
46887W        W 6390  30.538  27.117   3.752
46888W        W 6391  15.659  18.712  11.068
46889W        W 6392  42.009  19.208   1.883
46890W        W 6393  19.733  19.751   3.688
46891W        W 6394   4.940  33.592  10.942
46892W        W 6395  26.055  11.776   4.643
46893W        W 6396  30.103  29.980  10.621
46894W        W 6397  22.250  38.046   2.870
46895W        W 6398  22.147  18.638   3.786
46896W        W 6399   1.977  41.820  13.375
46897W        W 6400  32.940  13.701  13.347
46898W        W 6401  14.628  44.447   3.148
46899W        W 6402  40.500  34.593   4.332
46900W        W 6403  27.653  16.744  10.977
46901W        W 6404  30.010   5.828   3.352
46902W        W 6405   9.343  43.017  11.946
46903W        W 6406  14.744  10.282  10.613
46904W        W 6407  29.559  33.070   2.838
46905W        W 6408   8.896  20.056  13.851
46906W        W 6409  38.982   9.383  12.380
46907W        W 6410   0.442   9.360  12.986
46908W        W 6411  35.877  25.542  10.449
46909W        W 6412   4.883  22.228   3.668
46910W        W 6413  36.934  17.263   1.404
46911W        W 6414  14.291   8.823  11.443
46912W        W 6415  39.482  41.455   1.319
46913W        W 6416  35.440  30.647   0.759
46914W        W 6417  33.582  27.002  11.061
46915W        W 6418  32.141  39.513   3.150
46916W        W 6419  16.578  36.558   1.451
46917W        W 6420  20.599  32.899   2.232
46918W        W 6421  36.971  41.989   4.666
46919W        W 6422  18.624  19.070   4.640
46920W        W 6423  12.697  34.061   3.216
46921W        W 6424  43.396  37.493  14.379
46922W        W 6425  18.181   5.735  14.938
46923W        W 6426  40.342   1.899  10.561
46924W        W 6427  42.891   6.912  10.432
46925W        W 6428   4.431   4.403   4.247
46926W        W 6429  44.311   5.751  13.897
46927W        W 6430  41.359   0.796  12.993
46928W        W 6431   2.375   6.917   3.145
46929W        W 6432   4.424  27.967   2.692
46930W        W 6433  43.861  25.167   4.758
46931W        W 6434  33.006  17.657   2.680
46932W        W 6435   8.754  12.759  14.454
46933W        W 6436  26.605  42.303  13.499
46934W        W 6437   8.890  42.380  14.774
46935W        W 6438  42.337  12.791  12.909
46936W        W 6439  10.648  43.465   2.339
46937W        W 6440  13.326  22.701   3.859
46938W        W 6441  15.193  17.562  10.990
46939W        W 6442   1.372  28.678  13.407
46940W        W 6443   5.256   2.796  10.439
46941W        W 6444  10.752  18.634  12.017
46942W        W 6445  10.152  36.535  11.564
46943W        W 6446  21.091  28.566  10.954
46944W        W 6447   6.405  37.967   3.188
46945W        W 6448  20.754  42.924  12.459
46946W        W 6449  30.029  39.942   0.779
46947W        W 6450  20.716  44.983   1.912
46948W        W 6451  42.417  21.058   1.413
46949W        W 6452  32.023  43.783  14.384
46950W        W 6453  44.961  13.802  11.512
46951W        W 6454  37.477  12.688  12.043
46952W        W 6455   0.376  27.948  10.107
46953W        W 6456   6.689  26.568   1.397
46954W        W 6457  29.464  10.345   2.338
46955W        W 6458  43.448  34.547  13.962
46956W        W 6459  34.430  30.134  13.022
46957W        W 6460  19.547  44.289  14.922
46958W        W 6461  14.703  40.537  12.538
46959W        W 6462   2.761  27.181  13.841
46960W        W 6463   4.796   8.198   2.237
46961W        W 6464  24.482  44.902   1.896
46962W        W 6465   2.935  20.625   4.613
46963W        W 6466   4.831  34.445  13.522
46964W        W 6467  28.083   5.395  13.456
46965W        W 6468  22.221  40.998   1.442
46966W        W 6469   5.401  37.352   1.402
46967W        W 6470   2.874   5.754   2.306
46968W        W 6471   3.345   7.384   3.756
46969W        W 6472  42.892  15.232   3.357
46970W        W 6473  35.861  23.709   3.248
46971W        W 6474  28.945  29.014  11.600
46972W        W 6475   6.182   7.292   3.658
46973W        W 6476  34.886  32.501   4.703
46974W        W 6477   8.386  10.818   2.754
46975W        W 6478  42.520  33.079   4.838
46976W        W 6479  24.685  15.636  11.515
46977W        W 6480  34.104  23.005  10.634
46978W        W 6481  25.099   7.687  11.035
46979W        W 6482  13.210  35.005  11.867
46980W        W 6483  25.675  36.456  13.511
46981W        W 6484  25.964  39.505   0.780
46982W        W 6485   4.710  22.105   0.247
46983W        W 6486  11.274  26.456   2.346
46984W        W 6487  42.818   8.674  14.494
46985W        W 6488   3.443  17.209   2.833
46986W        W 6489  27.631   9.281   0.426
46987W        W 6490  10.160   4.356   2.240
46988W        W 6491  31.544   6.895   1.710
46989W        W 6492  23.040  40.965  10.407
46990W        W 6493  22.131  10.258  13.396
46991W        W 6494  14.216  27.054  12.040
46992W        W 6495  28.118   6.766  13.366
46993W        W 6496  29.016   5.839   0.475
46994W        W 6497  36.047   1.392  13.534
46995W        W 6498   2.395  41.788  13.313
46996W        W 6499   4.312  40.831  12.391
46997W        W 6500  22.092  10.202   2.323
46998W        W 6501  31.040   9.679  14.835
46999W        W 6502  28.046  24.169  10.606
47000W        W 6503   6.380  35.086   2.310
47001W        W 6504  20.559  11.198   2.289
47002W        W 6505  40.454  41.510  11.874
47003W        W 6506  10.257  11.151  12.823
47004W        W 6507  43.003  37.508   3.236
47005W        W 6508  22.604  24.146   4.697
47006W        W 6509  36.881   5.765   2.337
47007W        W 6510  23.497  42.020  14.925
47008W        W 6511  15.151  15.777  10.616
47009W        W 6512  44.321  18.177  10.052
47010W        W 6513  37.397  15.696  14.287
47011W        W 6514   7.287  34.098   4.217
47012W        W 6515  15.216  21.583  14.410
47013W        W 6516  33.053  22.718   1.875
47014W        W 6517  15.692  40.417   2.874
47015W        W 6518  21.636   4.846   5.087
47016W        W 6519  15.208  19.260  12.570
47017W        W 6520  41.366  16.714   4.702
47018W        W 6521  21.723  34.055   1.264
47019W        W 6522   8.379  14.156   4.332
47020W        W 6523  17.651  22.583   4.120
47021W        W 6524  13.842  37.854  14.290
47022W        W 6525  39.868  25.708  14.357
47023W        W 6526  42.859  18.671  12.977
47024W        W 6527  42.832  44.333   3.186
47025W        W 6528  10.250  37.548  12.933
47026W        W 6529   6.877   4.854  13.962
47027W        W 6530  41.497  18.268   0.412
47028W        W 6531  40.923  32.031  14.455
47029W        W 6532  21.062  30.993  13.328
47030W        W 6533  29.547  24.517  12.873
47031W        W 6534  35.521  30.490  11.931
47032W        W 6535  27.117  13.827  12.344
47033W        W 6536  40.833  42.519  10.535
47034W        W 6537  13.697  13.264   4.182
47035W        W 6538  24.618  41.327  12.345
47036W        W 6539   4.838   4.392   0.249
47037W        W 6540  15.591  12.250  13.425
47038W        W 6541  37.942  14.180  12.568
47039W        W 6542   3.228  10.181  14.398
47040W        W 6543  34.463  39.509  12.354
47041W        W 6544   9.764   9.362  10.987
47042W        W 6545   4.309   7.205   0.949
47043W        W 6546  22.594  31.936   3.321
47044W        W 6547   9.833  40.533  10.635
47045W        W 6548  21.690  43.432  12.998
47046W        W 6549  16.575   1.973   0.766
47047W        W 6550  31.975  11.362  14.942
47048W        W 6551   9.791  32.525  13.314
47049W        W 6552  41.454  25.990  13.333
47050W        W 6553  37.036  16.275   2.825
47051W        W 6554   8.663  40.346   4.134
47052W        W 6555   4.449  11.246   4.193
47053W        W 6556  13.239  22.698  14.378
47054W        W 6557  41.889  14.131  14.967
47055W        W 6558  20.201  44.388   3.307
47056W        W 6559   7.796   2.469   0.442
47057W        W 6560  12.798  26.107  14.318
47058W        W 6561  17.704  21.031  12.936
47059W        W 6562  16.703   0.977   3.158
47060W        W 6563   1.900  30.037  13.894
47061W        W 6564   2.331  17.198  11.033
47062W        W 6565  44.774  40.907   3.361
47063W        W 6566  17.146  12.318   0.362
47064W        W 6567   9.833  21.089  14.786
47065W        W 6568   6.861  35.865   2.353
47066W        W 6569  27.121   4.772  13.828
47067W        W 6570  31.578  30.634  12.435
47068W        W 6571  19.240  23.558   1.433
47069W        W 6572  17.602  19.274  10.942
47070W        W 6573   3.240  33.906  11.577
47071W        W 6574  36.411   1.332   4.616
47072W        W 6575  42.023  27.448   1.384
47073W        W 6576  41.822  19.642  12.991
47074W        W 6577  18.109  18.640  12.422
47075W        W 6578  29.482   7.852  14.461
47076W        W 6579   0.906  16.610   9.998
47077W        W 6580  15.646  30.601  12.032
47078W        W 6581  20.653  29.036  11.501
47079W        W 6582  17.675   9.393  12.442
47080W        W 6583  33.933  19.724   4.332
47081W        W 6584   8.704   0.783   3.708
47082W        W 6585   8.850   5.857  13.995
47083W        W 6586  33.597   3.303   2.373
47084W        W 6587  32.885  35.016  12.873
47085W        W 6588   7.879   9.358  14.441
47086W        W 6589  34.934  26.626  11.373
47087W        W 6590   1.459  18.743   4.231
47088W        W 6591  17.236  41.813  10.900
47089W        W 6592  40.979   6.426   1.427
47090W        W 6593   1.342  25.496   4.676
47091W        W 6594  10.233  32.079  11.476
47092W        W 6595  23.227  10.831   1.229
47093W        W 6596  24.710  30.918   2.816
47094W        W 6597  14.664  31.500  11.043
47095W        W 6598  28.121   1.875   4.330
47096W        W 6599  16.587  14.766   0.345
47097W        W 6600  22.504  37.035   1.226
47098W        W 6601  43.335  11.710   0.295
47099W        W 6602   6.913  16.086  14.401
47100W        W 6603  27.506  28.017   1.378
47101W        W 6604  31.604  19.700   2.804
47102W        W 6605  18.178  25.713  14.968
47103W        W 6606  42.311   8.368  10.548
47104W        W 6607  10.267  26.582  11.377
47105W        W 6608  37.541  16.665  13.925
47106W        W 6609  18.289   3.858   1.796
47107W        W 6610  16.592   0.918  13.444
47108W        W 6611  30.907   5.897  13.423
47109W        W 6612  31.966  19.690   2.772
47110W        W 6613   1.335  43.300   1.248
47111W        W 6614  37.908  39.343   3.311
47112W        W 6615  27.511  44.499  10.574
47113W        W 6616  31.640  28.457   5.741
47114W        W 6617  40.914  31.578  11.535
47115W        W 6618  22.193   5.799  12.341
47116W        W 6619  23.721  39.910  13.014
47117W        W 6620   2.452  39.523  12.090
47118W        W 6621  41.892   7.696  13.968
47119W        W 6622   2.328  24.699   5.204
47120W        W 6623   9.854   2.282  12.460
47121W        W 6624  30.426   8.241  12.505
47122W        W 6625  31.946   5.757  11.051
47123W        W 6626  41.437  28.469  11.103
47124W        W 6627   8.881   0.756   4.627
47125W        W 6628  15.180  13.176  10.925
47126W        W 6629  34.888   6.755   1.253
47127W        W 6630   5.758  18.722   5.119
47128W        W 6631  24.000  38.544  13.991
47129W        W 6632   0.315  32.078  11.600
47130W        W 6633  28.002  20.177   0.783
47131W        W 6634  30.449  22.251  12.002
47132W        W 6635   2.921  27.186  14.385
47133W        W 6636  26.665  25.093  12.008
47134W        W 6637  28.140  34.109  10.949
47135W        W 6638  21.128  28.158   1.886
47136W        W 6639  20.623  22.246   1.866
47137W        W 6640  39.507   5.428  10.110
47138W        W 6641   8.372  10.259   1.826
47139W        W 6642  40.425   7.894   2.224
47140W        W 6643   9.180   6.864  10.453
47141W        W 6644   1.907  32.919  13.502
47142W        W 6645  33.958  40.427  14.480
47143W        W 6646   2.321   4.385  13.365
47144W        W 6647  15.812   8.806  13.007
47145W        W 6648  25.692  23.599   3.295
47146W        W 6649  34.509  30.021  10.890
47147W        W 6650   2.277  13.712  10.940
47148W        W 6651   9.812  14.673   1.438
47149W        W 6652   6.260  40.819  11.888
47150W        W 6653  12.634   7.829   3.307
47151W        W 6654  24.485  42.989  11.029
47152W        W 6655   8.297  21.532  11.888
47153W        W 6656   2.810  36.500   3.782
47154W        W 6657   5.213  15.780   5.086
47155W        W 6658  27.992  34.866  11.896
47156W        W 6659   6.208   5.288  12.455
47157W        W 6660   2.438  39.394   4.800
47158W        W 6661  27.183  44.394   2.722
47159W        W 6662   1.943  33.607  14.846
47160W        W 6663  37.450   7.692  13.916
47161W        W 6664   5.198  12.784  11.981
47162W        W 6665  18.612  36.946   4.693
47163W        W 6666  27.043  18.651   0.774
47164W        W 6667  16.755  30.958   0.321
47165W        W 6668  21.741  37.966   4.632
47166W        W 6669  31.125   9.248   2.407
47167W        W 6670  21.213  19.693  13.307
47168W        W 6671  22.223  24.215  10.447
47169W        W 6672   4.388  32.933  11.879
47170W        W 6673  17.235  28.978  10.154
47171W        W 6674  39.866  16.796   1.892
47172W        W 6675   2.431   9.191  13.062
47173W        W 6676  16.636  27.073  14.954
47174W        W 6677  44.335  17.244  10.045
47175W        W 6678  22.066   3.845  12.834
47176W        W 6679  33.549   2.416   3.686
47177W        W 6680  30.548  37.394   1.410
47178W        W 6681  20.616  25.479   2.304
47179W        W 6682  21.736  10.723  12.439
47180W        W 6683  13.109  28.048   0.307
47181W        W 6684   1.925  14.102  13.878
47182W        W 6685   6.843  20.562  12.900
47183W        W 6686   1.970  35.403   2.834
47184W        W 6687  33.413  17.087  11.537
47185W        W 6688  12.192  23.540  12.031
47186W        W 6689  35.936  25.553   3.740
47187W        W 6690  29.950  16.646   1.888
47188W        W 6691  23.150  27.637  14.960
47189W        W 6692  34.471  25.670   3.302
47190W        W 6693  18.134  20.188  11.597
47191W        W 6694  29.472  44.857  11.096
47192W        W 6695  25.510  25.503  11.519
47193W        W 6696  23.519  11.151   0.433
47194W        W 6697  39.940  15.102  11.541
47195W        W 6698  42.465  28.502   4.804
47196W        W 6699  25.069  15.230   2.194
47197W        W 6700   4.277  27.588   2.204
47198W        W 6701  15.753  15.816   2.666
47199W        W 6702  42.027  44.884  13.397
47200W        W 6703  30.441  42.899  13.933
47201W        W 6704  36.588   3.935   0.871
47202W        W 6705  27.960  38.477   1.774
47203W        W 6706  23.550  23.029  11.593
47204W        W 6707  38.327  13.227  13.309
47205W        W 6708  29.494   0.445  13.336
47206W        W 6709   4.748   0.865   1.703
47207W        W 6710   2.773  22.238  10.905
47208W        W 6711  43.000  38.433   2.744
47209W        W 6712   9.354  38.862   4.732
47210W        W 6713  28.175  21.178   1.814
47211W        W 6714  27.461  21.186  11.107
47212W        W 6715  34.979  29.118  10.160
47213W        W 6716  42.869  35.956  13.822
47214W        W 6717  27.974  41.905   1.395
47215W        W 6718   7.703  44.279   2.410
47216W        W 6719  16.242  41.896   1.320
47217W        W 6720   6.897  44.295  10.641
47218W        W 6721  34.041   3.779  11.918
47219W        W 6722  30.043  33.936   0.960
47220W        W 6723  30.424  31.537  10.613
47221W        W 6724  28.459   6.294   2.281
47222W        W 6725   9.231   3.275   0.294
47223W        W 6726   8.226  12.845  11.374
47224W        W 6727  14.777  43.782   4.631
47225W        W 6728  27.518  29.058   3.813
47226W        W 6729  24.612  38.503  11.563
47227W        W 6730   3.754   8.872  13.413
47228W        W 6731  40.420  29.997  14.957
47229W        W 6732  13.682   5.222  13.967
47230W        W 6733   4.231   5.689  14.391
47231W        W 6734  33.030   4.751  11.912
47232W        W 6735   9.162  25.539   0.869
47233W        W 6736  22.181  21.120  11.867
47234W        W 6737  32.890  21.527  11.117
47235W        W 6738   9.272  29.508   1.761
47236W        W 6739  43.981  34.882   2.667
47237W        W 6740   5.279  31.957  14.432
47238W        W 6741  15.101  37.374  14.376
47239W        W 6742  17.645   8.330   0.935
47240W        W 6743  16.242   1.964   3.811
47241W        W 6744  25.006   4.731  12.496
47242W        W 6745  22.076  38.348   3.778
47243W        W 6746  19.183  21.639   3.734
47244W        W 6747  32.120  35.873   3.166
47245W        W 6748  36.553  34.105  13.876
47246W        W 6749  33.575   6.801  14.928
47247W        W 6750  21.154  32.584   0.435
47248W        W 6751  33.947  26.701  12.346
47249W        W 6752  15.093  26.522  13.022
47250W        W 6753  35.866  38.372   3.636
47251W        W 6754  11.352  20.111   2.184
47252W        W 6755   8.867  40.932   4.187
47253W        W 6756  14.588  36.366   1.774
47254W        W 6757   1.323   0.263   0.266
47255W        W 6758  16.613  22.056  14.783
47256W        W 6759  25.149   8.395   4.305
47257W        W 6760  41.526  43.414  10.404
47258W        W 6761  26.177  17.230   2.368
47259W        W 6762  35.998   3.794  14.889
47260W        W 6763  10.865   3.218   4.354
47261W        W 6764   2.419  13.187   4.161
47262W        W 6765   8.164  32.453   3.838
47263W        W 6766  18.791  37.567  10.990
47264W        W 6767  19.208  25.098  12.060
47265W        W 6768  42.302  40.009   4.675
47266W        W 6769  30.913  10.730   1.250
47267W        W 6770  36.587   1.943   2.757
47268W        W 6771  32.506  25.127  10.911
47269W        W 6772  34.421  36.526   9.968
47270W        W 6773  38.441   1.736  11.892
47271W        W 6774  16.568  34.062   1.733
47272W        W 6775   1.475  44.814  13.916
47273W        W 6776   1.427  44.912   2.321
47274W        W 6777  39.965  25.105   0.418
47275W        W 6778  20.527  41.863   1.424
47276W        W 6779   3.341  34.934   4.606
47277W        W 6780  40.313  14.650  11.922
47278W        W 6781  30.997  11.302  14.792
47279W        W 6782  44.779  44.265   2.317
47280W        W 6783  21.038  39.482   1.296
47281W        W 6784  26.110  33.493   1.876
47282W        W 6785  19.745  11.176  14.983
47283W        W 6786   5.254   7.217   3.762
47284W        W 6787  21.021  40.461   1.411
47285W        W 6788  20.596  24.002   1.411
47286W        W 6789  27.668  31.543   2.275
47287W        W 6790  16.130  33.448  14.803
47288W        W 6791  33.391   0.958  12.879
47289W        W 6792  25.560  11.210  12.827
47290W        W 6793  21.112  31.070  14.987
47291W        W 6794  32.459  39.989  10.974
47292W        W 6795  18.293  26.000  13.807
47293W        W 6796  43.516  32.600  13.034
47294W        W 6797  36.033  13.639   2.877
47295W        W 6798  25.110  37.876  13.935
47296W        W 6799  18.278  32.107   1.818
47297W        W 6800  18.227  26.548  14.800
47298W        W 6801   8.871  19.265  12.919
47299W        W 6802  44.919  37.037   2.202
47300W        W 6803  23.535  18.583  14.982
47301W        W 6804  11.797  41.808   4.722
47302W        W 6805  29.603   8.868   1.395
47303W        W 6806  12.236  35.052  14.787
47304W        W 6807  28.042  15.208   3.802
47305W        W 6808   1.326  17.163  12.565
47306W        W 6809  41.911  36.013   5.190
47307W        W 6810  40.959   0.780   0.817
47308W        W 6811  10.137  37.506   2.333
47309W        W 6812  26.163   7.877   0.322
47310W        W 6813  20.572  23.126   4.666
47311W        W 6814  16.610  40.506   2.822
47312W        W 6815  19.737  31.036  11.104
47313W        W 6816  22.072  32.051  14.975
47314W        W 6817  30.619  43.398   2.667
47315W        W 6818  23.067  32.940   2.697
47316W        W 6819  26.626  18.716   4.240
47317W        W 6820   9.800  37.950   3.734
47318W        W 6821  16.793  26.526   3.785
47319W        W 6822  37.903  43.921   2.383
47320W        W 6823  12.359  20.257   3.228
47321W        W 6824  27.674  28.161  13.035
47322W        W 6825  26.964  37.007   2.309
47323W        W 6826  14.270  27.603   2.398
47324W        W 6827   6.812  17.576  13.319
47325W        W 6828   0.916  33.579   3.287
47326W        W 6829  31.053   8.862  11.893
47327W        W 6830  34.408  11.850  13.412
47328W        W 6831   1.949  18.746   1.812
47329W        W 6832   8.789  41.890  14.822
47330W        W 6833  24.049  31.970   1.332
47331W        W 6834  19.143  20.740   3.338
47332W        W 6835   0.881  33.953  10.966
47333W        W 6836  40.906  29.918   4.323
47334W        W 6837   2.733  21.643  11.435
47335W        W 6838  44.983   3.817  11.574
47336W        W 6839  39.887  21.570   3.162
47337W        W 6840  12.140   6.296  11.071
47338W        W 6841   1.286  18.737  12.893
47339W        W 6842  21.563  19.751   0.884
47340W        W 6843  18.619   0.459   0.425
47341W        W 6844  23.606   9.387   1.749
47342W        W 6845  42.881  32.451  10.960
47343W        W 6846  28.065   6.756   4.177
47344W        W 6847  35.503   2.919  11.932
47345W        W 6848  13.307  38.467  13.805
47346W        W 6849  35.983  10.700   3.654
47347W        W 6850  11.740  12.719   3.731
47348W        W 6851  40.926  22.719   0.892
47349W        W 6852  16.271  19.115   4.704
47350W        W 6853  11.757   2.828   3.667
47351W        W 6854  11.740  15.679  12.350
47352W        W 6855   9.186  31.424   2.380
47353W        W 6856  18.669  44.981   0.309
47354W        W 6857   4.793  15.706  10.563
47355W        W 6858  31.495  27.502  10.016
47356W        W 6859   6.391  23.147  11.413
47357W        W 6860  16.197  20.261   4.600
47358W        W 6861  33.943   1.246  11.069
47359W        W 6862  30.039   2.755  14.939
47360W        W 6863   7.783   1.255   1.768
47361W        W 6864   7.697  28.034   1.698
47362W        W 6865  38.385   2.855  14.913
47363W        W 6866  11.172  37.929   4.334
47364W        W 6867  23.632  17.649   2.709
47365W        W 6868   4.852   8.782   0.253
47366W        W 6869  26.612  37.858  11.016
47367W        W 6870  39.520  39.853   3.858
47368W        W 6871  32.540  41.853   3.363
47369W        W 6872  26.064  10.277   4.768
47370W        W 6873  34.958  37.013  13.022
47371W        W 6874  18.780  15.181  11.424
47372W        W 6875  18.563   8.228  13.368
47373W        W 6876  21.236  32.133   2.680
47374W        W 6877  34.531  43.511   1.755
47375W        W 6878  37.916  31.513  12.842
47376W        W 6879  43.907  28.042  12.009
47377W        W 6880  41.528  32.477  14.459
47378W        W 6881  21.528   0.968  13.511
47379W        W 6882  31.994  39.452  13.885
47380W        W 6883  35.090  28.612  11.554
47381W        W 6884  38.928  22.030  11.402
47382W        W 6885   7.734   4.351  10.520
47383W        W 6886  28.470  10.640   2.876
47384W        W 6887  24.207  11.797   3.379
47385W        W 6888   1.327  29.519   2.834
47386W        W 6889  42.434  13.689  10.988
47387W        W 6890  40.868  31.477  10.566
47388W        W 6891  29.109  40.991   0.475
47389W        W 6892   3.314  14.237   4.813
47390W        W 6893  32.440   7.786   0.407
47391W        W 6894   4.215  30.938   4.288
47392W        W 6895   9.191  44.978  14.961
47393W        W 6896   3.781   5.869  12.459
47394W        W 6897   4.904  38.436  14.277
47395W        W 6898  15.216  19.051  11.450
47396W        W 6899   2.257  36.451  13.035
47397W        W 6900   4.329  25.002   1.871
47398W        W 6901   9.839  33.907  10.911
47399W        W 6902  27.963  25.088  13.879
47400W        W 6903  43.493  17.636  14.836
47401W        W 6904  26.623  43.488  13.312
47402W        W 6905  12.737   3.870   4.190
47403W        W 6906  16.079   6.358  11.072
47404W        W 6907   2.947  26.153  10.528
47405W        W 6908  26.152  40.836   3.802
47406W        W 6909  21.585   1.883  11.521
47407W        W 6910  33.993  39.420   2.742
47408W        W 6911  10.796  14.728   9.953
47409W        W 6912  33.518   8.274   0.461
47410W        W 6913  19.259   2.336   0.730
47411W        W 6914  24.985  25.596  12.087
47412W        W 6915  27.453   9.730  14.949
47413W        W 6916  25.987  32.950   0.776
47414W        W 6917  10.320   6.777  11.482
47415W        W 6918   4.781   9.210   2.812
47416W        W 6919   4.881  31.540   4.341
47417W        W 6920  42.334  44.310  10.610
47418W        W 6921  27.051  28.653   1.743
47419W        W 6922  36.035   9.176   4.173
47420W        W 6923  35.602   3.892  10.466
47421W        W 6924  12.844  44.328   3.654
47422W        W 6925  41.031  35.108  10.573
47423W        W 6926  28.111  42.938  14.763
47424W        W 6927  32.505  38.571   2.695
47425W        W 6928  15.297   2.756  11.530
47426W        W 6929  26.203  16.097   2.414
47427W        W 6930  31.566   1.291   2.262
47428W        W 6931  11.252  40.945  14.951
47429W        W 6932  12.681  31.041  12.436
47430W        W 6933  35.959  37.867  14.863
47431W        W 6934  27.592  18.155  11.991
47432W        W 6935  37.555  41.522  11.059
47433W        W 6936   4.777  37.411  14.926
47434W        W 6937   8.763  19.684   3.205
47435W        W 6938  36.853   5.223  11.004
47436W        W 6939  44.467  12.247  12.349
47437W        W 6940  19.735  28.145   3.794
47438W        W 6941  44.399  24.557  13.812
47439W        W 6942   1.924   5.919  13.321
47440W        W 6943  34.479  44.335  12.034
47441W        W 6944  34.402  35.063   3.864
47442W        W 6945  35.375  26.121   1.384
47443W        W 6946  22.022  14.177   1.896
47444W        W 6947  17.175  30.060   4.226
47445W        W 6948  44.443  40.989  13.429
47446W        W 6949  19.209  22.694   0.450
47447W        W 6950  24.643  24.986   3.378
47448W        W 6951   3.461  33.485   0.398
47449W        W 6952  30.456  18.256  14.932
47450W        W 6953  33.887  15.181  12.861
47451W        W 6954  26.592  44.385   3.276
47452W        W 6955  11.151  28.034  13.895
47453W        W 6956  42.499  21.623   4.252
47454W        W 6957   8.217   9.658  11.086
47455W        W 6958  18.774  23.014  12.442
47456W        W 6959   9.180  23.098  13.990
47457W        W 6960   8.777  25.649   3.304
47458W        W 6961  10.872  18.051   0.761
47459W        W 6962  26.068  17.289   4.707
47460W        W 6963  11.812  20.689  14.292
47461W        W 6964  13.248   6.301  14.011
47462W        W 6965  21.237  11.840   1.403
47463W        W 6966  36.394   3.442  12.854
47464W        W 6967  30.611  22.527  12.382
47465W        W 6968   5.774  23.206  14.373
47466W        W 6969  40.397  10.334  12.427
47467W        W 6970   1.738  16.303   4.813
47468W        W 6971   7.873  43.467   3.279
47469W        W 6972   9.817  20.251   0.828
47470W        W 6973   5.223   4.415   1.868
47471W        W 6974  23.595   5.285   1.870
47472W        W 6975  41.414  26.608   2.190
47473W        W 6976   7.693  41.339  14.383
47474W        W 6977  19.078  29.600  10.504
47475W        W 6978  19.697  22.710  11.956
47476W        W 6979   0.348  23.043   4.218
47477W        W 6980  37.437  31.118   2.259
47478W        W 6981   1.409  14.703  11.527
47479W        W 6982   8.309  18.562  12.432
47480W        W 6983   2.388  17.257   2.896
47481W        W 6984   5.246  15.274   3.379
47482W        W 6985  20.091   4.894   4.163
47483W        W 6986  10.232  25.099   1.764
47484W        W 6987  18.652  29.664   0.309
47485W        W 6988  20.599  33.877   0.899
47486W        W 6989  12.234  21.028  13.802
47487W        W 6990  37.392   0.931  14.906
47488W        W 6991  22.604   9.826   2.837
47489W        W 6992  13.614   6.813  14.414
47490W        W 6993  16.617  21.753   0.312
47491W        W 6994  37.019  28.097  13.488
47492W        W 6995  25.555  11.828   3.335
47493W        W 6996  36.005   6.182  11.465
47494W        W 6997  34.877  30.626   0.871
47495W        W 6998  44.773   0.321   0.263
47496W        W 6999   3.284  15.236   2.793
47497W        W 7000  41.886   6.250  14.799
47498W        W 7001   6.207  13.157  14.965
47499W        W 7002  38.893   1.460   3.305
47500W        W 7003  19.706  10.856  10.472
47501W        W 7004   2.835   5.310   1.914
47502W        W 7005  14.812  25.659   1.356
47503W        W 7006  17.153   7.194   5.086
47504W        W 7007  40.806  10.822  12.897
47505W        W 7008  19.656  44.893   3.368
47506W        W 7009  26.642  40.391   1.367
47507W        W 7010   7.712  30.618   4.240
47508W        W 7011  28.028   4.227  14.397
47509W        W 7012  38.865  26.063  13.342
47510W        W 7013   9.362  42.511   3.369
47511W        W 7014   2.866   7.347  12.340
47512W        W 7015  32.539  23.038  14.808
47513W        W 7016  24.538  39.887   4.310
47514W        W 7017  43.468  17.676   0.854
47515W        W 7018  12.192  36.082   1.894
47516W        W 7019  27.523   6.685  11.381
47517W        W 7020  42.313  26.172   0.827
47518W        W 7021   8.686   1.900  13.802
47519W        W 7022  21.151  34.904   4.662
47520W        W 7023   6.706  18.226  13.447
47521W        W 7024  36.016  11.811  10.524
47522W        W 7025  28.490   2.281   3.374
47523W        W 7026  10.775  41.866   4.250
47524W        W 7027  36.094  22.739  12.509
47525W        W 7028   0.817  25.991   5.622
47526W        W 7029  22.656   6.799   3.840
47527W        W 7030  26.140  14.195   2.815
47528W        W 7031  25.599  13.757   4.135
47529W        W 7032   8.399  11.361  10.898
47530W        W 7033  12.835  27.063  12.409
47531W        W 7034  25.604  43.387   4.834
47532W        W 7035  34.376  15.621   3.824
47533W        W 7036  25.028   3.338  12.901
47534W        W 7037  12.663  37.434  14.446
47535W        W 7038  24.109  25.152  12.842
47536W        W 7039   5.709  37.049   4.692
47537W        W 7040  35.407  12.299  13.947
47538W        W 7041  13.150  29.460   3.342
47539W        W 7042  19.170  36.404   2.353
47540W        W 7043  11.285   3.881   4.797
47541W        W 7044  15.124  42.855   3.857
47542W        W 7045  26.188   9.262  13.944
47543W        W 7046  38.969  40.482   3.860
47544W        W 7047  22.677  19.738  14.441
47545W        W 7048  39.928   3.400  10.408
47546W        W 7049  44.951   4.757  14.818
47547W        W 7050  41.520  33.085  12.398
47548W        W 7051   3.420   7.406  14.371
47549W        W 7052  23.661  20.522  12.880
47550W        W 7053  38.887  20.734  11.939
47551W        W 7054  31.003  29.641  14.012
47552W        W 7055   6.284   1.360   1.310
47553W        W 7056  44.461   2.919   1.443
47554W        W 7057  42.828   9.377   0.769
47555W        W 7058  13.197   1.876  10.464
47556W        W 7059   1.738  16.696   4.641
47557W        W 7060   8.814   2.897   1.391
47558W        W 7061  27.195  34.020   3.368
47559W        W 7062  19.097  14.295  13.510
47560W        W 7063  34.924  40.532  10.497
47561W        W 7064  28.526  38.554   2.266
47562W        W 7065  42.294  11.257   3.298
47563W        W 7066  15.773   7.696   3.643
47564W        W 7067  35.463   9.851  13.394
47565W        W 7068  28.632  10.327  14.956
47566W        W 7069  34.101  43.981   0.464
47567W        W 7070  17.131  21.155   1.374
47568W        W 7071  16.143  25.114  13.455
47569W        W 7072   3.294  22.193   1.860
47570W        W 7073  36.921  23.620  12.432
47571W        W 7074  35.097  42.808  10.001
47572W        W 7075   8.210  31.050  12.537
47573W        W 7076  19.226  26.616  13.837
47574W        W 7077  12.711  24.155   4.153
47575W        W 7078  24.973  34.529   4.719
47576W        W 7079  37.993  33.937  12.949
47577W        W 7080  38.857  30.478   3.183
47578W        W 7081  37.025  17.126  13.519
47579W        W 7082  14.729  40.522   9.929
47580W        W 7083  34.989   9.394  12.380
47581W        W 7084  43.934  26.457   2.705
47582W        W 7085  20.164  14.245   2.702
47583W        W 7086  21.026  38.834  13.922
47584W        W 7087  16.120  43.342   4.302
47585W        W 7088  22.660  19.064   0.410
47586W        W 7089   9.350  33.083  11.390
47587W        W 7090  21.549  14.238  10.568
47588W        W 7091  44.809  17.172   0.431
47589W        W 7092  14.105  31.141   1.836
47590W        W 7093  22.567  26.593  14.822
47591W        W 7094  27.022  16.731   4.228
47592W        W 7095  32.997   6.706  13.946
47593W        W 7096  38.029  37.576  10.414
47594W        W 7097  29.145  39.946   3.744
47595W        W 7098  40.027  30.483   4.622
47596W        W 7099  20.671  36.398  10.990
47597W        W 7100  12.210  33.894  10.944
47598W        W 7101  40.411  20.048  12.982
47599W        W 7102  42.958  24.192   2.746
47600W        W 7103  35.985   9.324   0.402
47601W        W 7104  11.208  37.461   3.854
47602W        W 7105  17.205  26.109   4.767
47603W        W 7106  35.957  27.487  10.505
47604W        W 7107  30.488  30.428   1.935
47605W        W 7108  21.175  31.574   3.351
47606W        W 7109  21.179   2.721   3.642
47607W        W 7110  28.528  19.548  13.952
47608W        W 7111  36.493  10.278  14.864
47609W        W 7112   0.397  30.441   0.750
47610W        W 7113  41.804  25.047  12.923
47611W        W 7114  20.206  12.296  14.031
47612W        W 7115  37.964   9.180  13.495
47613W        W 7116  25.156   4.738   5.270
47614W        W 7117   5.876   8.231   1.876
47615W        W 7118   5.816  20.242   4.210
47616W        W 7119  25.181  17.305   0.421
47617W        W 7120  20.587  26.507   1.320
47618W        W 7121  25.613   6.812   1.364
47619W        W 7122  20.196  15.105  12.520
47620W        W 7123  44.375  31.153   3.853
47621W        W 7124  37.925  13.630  14.444
47622W        W 7125  10.705  12.251   3.751
47623W        W 7126  14.592  17.203   1.712
47624W        W 7127  39.517  32.906  13.965
47625W        W 7128  30.618  44.409   2.270
47626W        W 7129  33.403  27.576  10.096
47627W        W 7130  43.291  34.610  11.552
47628W        W 7131   5.761  25.050  12.350
47629W        W 7132  30.537  35.369  10.955
47630W        W 7133  20.137   0.873   5.291
47631W        W 7134  15.229  33.027   2.280
47632W        W 7135  36.856  38.487  10.559
47633W        W 7136  39.833  32.563   0.942
47634W        W 7137  42.434  31.617  12.865
47635W        W 7138   2.333  16.293  10.501
47636W        W 7139  31.522  22.570  13.900
47637W        W 7140  17.646   5.304   4.218
47638W        W 7141  19.134  11.140  14.494
47639W        W 7142  22.120  10.843   0.374
47640W        W 7143   3.780  21.196   0.835
47641W        W 7144  13.778   9.840  14.827
47642W        W 7145   4.928   4.922   4.758
47643W        W 7146  43.905  26.074   0.468
47644W        W 7147  15.261   5.333   1.426
47645W        W 7148  43.914  16.813  11.873
47646W        W 7149   2.325  37.541   3.649
47647W        W 7150   6.307  13.622   3.708
47648W        W 7151  43.822  33.944   0.257
47649W        W 7152  13.236  23.130  10.615
47650W        W 7153  25.675  10.691   4.616
47651W        W 7154   3.437  26.037   2.771
47652W        W 7155  21.020  32.062   0.396
47653W        W 7156  39.811  35.548  11.555
47654W        W 7157   9.665  21.056  13.898
47655W        W 7158  12.203  20.598  13.480
47656W        W 7159   5.745  38.898   0.299
47657W        W 7160  13.736  42.952   1.766
47658W        W 7161  41.789  14.310  10.156
47659W        W 7162  29.963  40.420   2.766
47660W        W 7163  42.330  11.283   2.356
47661W        W 7164  15.820  19.766   0.277
47662W        W 7165  30.562   6.681  10.442
47663W        W 7166  14.272   1.245   1.444
47664W        W 7167   7.308  13.639  14.374
47665W        W 7168  20.080  44.944   0.339
47666W        W 7169  20.594  23.127  14.280
47667W        W 7170  30.573  18.725  14.814
47668W        W 7171   8.244   7.791   4.700
47669W        W 7172   8.850  11.623   0.859
47670W        W 7173  14.764  23.050   2.705
47671W        W 7174  28.041   6.378   4.715
47672W        W 7175  21.049  10.165   1.779
47673W        W 7176  38.567  14.594  12.348
47674W        W 7177   9.377  29.036  13.321
47675W        W 7178  13.771  24.214   1.211
47676W        W 7179  37.061  18.697   3.280
47677W        W 7180   8.207  37.866  13.906
47678W        W 7181  21.738  22.603  14.962
47679W        W 7182   5.257   6.238  14.890
47680W        W 7183  29.966   3.807  12.466
47681W        W 7184  26.962  25.009   3.154
47682W        W 7185  41.482  15.775   2.671
47683W        W 7186  28.621  20.683  10.421
47684W        W 7187  42.989  42.859   3.813
47685W        W 7188  29.485  12.275   4.271
47686W        W 7189  10.253   2.928   0.846
47687W        W 7190   0.872  24.012  11.959
47688W        W 7191   4.247  38.846   0.381
47689W        W 7192  37.461  26.592  10.538
47690W        W 7193  25.065  23.158   4.239
47691W        W 7194  37.358  40.549  11.080
47692W        W 7195  28.492  40.426   0.448
47693W        W 7196   1.378  19.212   1.911
47694W        W 7197  21.717  36.443   1.249
47695W        W 7198  31.515  41.005  14.426
47696W        W 7199  44.394  23.237  13.931
47697W        W 7200  39.903   9.195   3.750
47698W        W 7201  19.273  41.437   1.704
47699W        W 7202   0.395  27.059  13.031
47700W        W 7203  34.872  37.951   5.571
47701W        W 7204  43.348  35.959   2.761
47702W        W 7205  38.921  29.569  13.036
47703W        W 7206  13.639  30.441  12.996
47704W        W 7207  24.659  22.541  11.007
47705W        W 7208   2.283  40.461  11.877
47706W        W 7209  44.948  36.593  13.945
47707W        W 7210   0.376  17.581   2.247
47708W        W 7211  27.960  36.931  10.597
47709W        W 7212  18.788  27.057  13.002
47710W        W 7213  22.639  41.923   4.723
47711W        W 7214  10.803   6.201   1.754
47712W        W 7215  18.149   5.357   0.361
47713W        W 7216  30.439  16.619   5.142
47714W        W 7217  32.465  28.563   2.855
47715W        W 7218  20.114   3.400   4.628
47716W        W 7219  21.145   5.219   3.332
47717W        W 7220   6.739  39.355  14.953
47718W        W 7221  28.943  37.958   4.168
47719W        W 7222  27.508  33.500  13.035
47720W        W 7223   0.375  23.065   1.811
47721W        W 7224  40.907  31.546  11.995
47722W        W 7225  12.341   4.814   0.941
47723W        W 7226  41.365   7.674   4.305
47724W        W 7227  44.474  24.058  14.349
47725W        W 7228  33.448  16.622   3.209
47726W        W 7229  42.843  42.876   4.612
47727W        W 7230  44.889  20.095   9.566
47728W        W 7231  19.748  44.817  11.893
47729W        W 7232  26.058  40.989  12.563
47730W        W 7233   1.413  26.024  12.861
47731W        W 7234  42.011   9.227   5.197
47732W        W 7235  30.444  32.496  13.443
47733W        W 7236  20.630  39.389  14.862
47734W        W 7237  32.411  30.022  13.952
47735W        W 7238  41.816  41.005   4.323
47736W        W 7239   9.338  31.994  13.047
47737W        W 7240  12.732  36.435  11.922
47738W        W 7241  18.736  32.421  10.537
47739W        W 7242  16.176   8.169  14.760
47740W        W 7243  27.145  40.025   3.351
47741W        W 7244  39.387  29.174  13.426
47742W        W 7245  36.067  34.009  14.817
47743W        W 7246   9.666  11.169   2.664
47744W        W 7247  16.795   6.706   2.300
47745W        W 7248   3.865  37.496   4.256
47746W        W 7249  20.627   8.866  13.049
47747W        W 7250  12.268  40.497  12.363
47748W        W 7251  43.923  32.093  14.461
47749W        W 7252  13.157  28.160   3.166
47750W        W 7253  42.796  11.674   3.372
47751W        W 7254   9.690   5.827   3.299
47752W        W 7255  32.554  42.512  10.888
47753W        W 7256  37.082  38.521   4.760
47754W        W 7257  30.150  43.440  14.312
47755W        W 7258   8.374  11.650   2.865
47756W        W 7259  22.743  25.992   0.290
47757W        W 7260  39.520  41.474  13.976
47758W        W 7261  36.010   4.753   3.761
47759W        W 7262  38.930   2.379   0.850
47760W        W 7263   6.286  30.122   1.886
47761W        W 7264  18.094  44.317  13.970
47762W        W 7265   4.357  10.879  13.846
47763W        W 7266  42.352  15.650   3.785
47764W        W 7267  15.600  29.108  10.950
47765W        W 7268  44.283  41.522  13.453
47766W        W 7269   6.243  30.154   4.700
47767W        W 7270  38.938  38.822   0.415
47768W        W 7271  12.681  21.263   1.355
47769W        W 7272  13.302   9.242   3.359
47770W        W 7273  24.113  10.685   3.642
47771W        W 7274  13.784  25.516  12.837
47772W        W 7275  19.748   2.295   4.644
47773W        W 7276  32.498  15.819  11.088
47774W        W 7277   9.186   4.750  14.986
47775W        W 7278  23.055  36.449   3.720
47776W        W 7279  36.564   0.459   4.295
47777W        W 7280  11.318  37.440   0.899
47778W        W 7281  14.725  37.009   2.853
47779W        W 7282  30.520   6.391  11.950
47780W        W 7283  42.961  11.208   3.870
47781W        W 7284  23.553  35.971   0.399
47782W        W 7285  36.062  37.851  12.023
47783W        W 7286  15.804  36.539   3.324
47784W        W 7287   2.735  19.153   5.256
47785W        W 7288  29.980   6.400  11.052
47786W        W 7289  30.076  28.037   0.785
47787W        W 7290   6.846  13.221   1.342
47788W        W 7291   0.803  41.891  12.843
47789W        W 7292  38.897  40.002  12.537
47790W        W 7293  18.786  17.102   0.823
47791W        W 7294  18.728  38.363   4.635
47792W        W 7295  22.634   2.440   0.446
47793W        W 7296  15.313  36.547   0.883
47794W        W 7297  41.809  29.504   3.655
47795W        W 7298  41.832  22.233  11.064
47796W        W 7299   4.824  18.058  14.816
47797W        W 7300  23.502  10.258   4.325
47798W        W 7301  43.285  16.230   3.845
47799W        W 7302  14.217   5.290  10.641
47800W        W 7303  22.157  40.811  14.854
47801W        W 7304  10.787  41.312  10.448
47802W        W 7305  23.084  42.338   1.860
47803W        W 7306  42.371   2.779   0.279
47804W        W 7307   2.354   7.872   0.759
47805W        W 7308  36.549  33.595  11.978
47806W        W 7309  17.158   8.847  13.898
47807W        W 7310  24.161  41.473   4.243
47808W        W 7311  11.362   3.215   3.822
47809W        W 7312   9.301  19.705  12.386
47810W        W 7313  42.304   8.352  11.929
47811W        W 7314  21.023  42.383  13.482
47812W        W 7315  28.459  12.338   3.158
47813W        W 7316   4.216   2.904  11.869
47814W        W 7317  23.529  34.028   4.143
47815W        W 7318  39.418  43.364  14.912
47816W        W 7319  33.926  15.113  10.446
47817W        W 7320  10.244  28.955  10.113
47818W        W 7321  14.258  12.775   1.809
47819W        W 7322  21.116  13.119   2.693
47820W        W 7323  10.178  38.037   1.920
47821W        W 7324  19.563  26.580   0.869
47822W        W 7325  15.090  31.427  10.513
47823W        W 7326  16.810  37.904  13.017
47824W        W 7327  28.175   5.700   0.321
47825W        W 7328  26.089  12.704   1.905
47826W        W 7329  36.060  24.621   0.937
47827W        W 7330  22.710  43.905   1.856
47828W        W 7331  13.757   1.824   0.296
47829W        W 7332  44.466  26.690   5.240
47830W        W 7333   9.846   6.396  12.008
47831W        W 7334   2.455  37.475  14.438
47832W        W 7335  15.178   1.922  13.822
47833W        W 7336  12.135  11.651   1.759
47834W        W 7337  43.470  25.036  10.558
47835W        W 7338  18.760  24.534   3.242
47836W        W 7339  12.298  14.258   4.127
47837W        W 7340  23.681  26.674  11.113
47838W        W 7341  42.498  19.757   1.445
47839W        W 7342  31.024  17.235   1.774
47840W        W 7343  18.252  39.424  11.915
47841W        W 7344   4.408  22.647  14.311
47842W        W 7345  18.059  40.025  12.556
47843W        W 7346  24.002  44.965   1.308
47844W        W 7347   4.445  14.333   1.764
47845W        W 7348   2.938   6.732   1.328
47846W        W 7349  12.222  31.992  11.963
47847W        W 7350  26.457  14.731   1.865
47848W        W 7351   9.319  23.735   1.394
47849W        W 7352  30.989  10.258  14.433
47850W        W 7353  35.868  22.570  11.113
47851W        W 7354   0.430  22.667   2.181
47852W        W 7355  17.143  32.565  12.075
47853W        W 7356  22.744  13.701  12.501
47854W        W 7357  37.417  38.874  12.033
47855W        W 7358   5.276   7.816  11.078
47856W        W 7359  15.109  21.048  12.079
47857W        W 7360  33.027   1.762  11.920
47858W        W 7361  23.114   1.409  12.541
47859W        W 7362  30.494  33.610   2.393
47860W        W 7363  38.917  37.904  14.774
47861W        W 7364  39.438  17.624   2.326
47862W        W 7365  41.429  43.978  11.492
47863W        W 7366  17.567   5.252   3.344
47864W        W 7367  12.316   2.851  11.468
47865W        W 7368  13.771  40.998  11.464
47866W        W 7369  20.549   0.296   4.626
47867W        W 7370  44.267   4.403  12.401
47868W        W 7371  12.772   5.196  14.023
47869W        W 7372  21.582   1.940   0.921
47870W        W 7373  20.676   8.351   2.772
47871W        W 7374  10.168   0.446  11.471
47872W        W 7375  42.022  21.234   4.680
47873W        W 7376  27.156  27.966   4.234
47874W        W 7377  33.475  30.656   1.853
47875W        W 7378  21.053  18.549   0.957
47876W        W 7379  17.680  13.137   3.792
47877W        W 7380  31.025  22.171   4.700
47878W        W 7381  32.028  25.613  14.950
47879W        W 7382  23.149  39.531   3.381
47880W        W 7383  28.076  36.483  10.919
47881W        W 7384  10.153  38.965   5.101
47882W        W 7385  21.515  38.382   2.314
47883W        W 7386   8.785   0.477   9.930
47884W        W 7387  13.736  26.546  13.342
47885W        W 7388  41.304  39.892   2.320
47886W        W 7389   6.693  27.120   4.198
47887W        W 7390   7.281  13.212  14.378
47888W        W 7391   6.678  17.217   1.221
47889W        W 7392  38.335  36.033   4.603
47890W        W 7393  30.142   8.385  14.028
47891W        W 7394  36.589  21.173  11.492
47892W        W 7395  43.364  16.271  13.995
47893W        W 7396  27.974   5.394   3.383
47894W        W 7397   0.916   1.816   0.766
47895W        W 7398  21.607   3.375   2.844
47896W        W 7399  32.485  42.317   4.213
47897W        W 7400  19.673  30.943   5.319
47898W        W 7401  29.077   4.358   3.244
47899W        W 7402   9.740   5.851  10.458
47900W        W 7403   0.451  40.891  11.063
47901W        W 7404  43.294  22.084   4.161
47902W        W 7405  34.945  35.370  12.025
47903W        W 7406  24.682  43.855   1.783
47904W        W 7407   1.755   1.407   4.271
47905W        W 7408  40.805  43.333  12.351
47906W        W 7409   4.408  19.534  14.869
47907W        W 7410  28.160  25.656  13.823
47908W        W 7411  31.105   8.271  10.431
47909W        W 7412  21.068  10.148   3.750
47910W        W 7413   9.883  15.176  11.055
47911W        W 7414   8.325  37.048  12.867
47912W        W 7415  25.624  19.091  14.420
47913W        W 7416  30.937  31.521  14.911
47914W        W 7417  26.615  34.949   4.315
47915W        W 7418  13.780  18.780  11.085
47916W        W 7419  21.537  19.759  14.377
47917W        W 7420   4.763  10.742  13.459
47918W        W 7421  39.372  10.829  14.859
47919W        W 7422  37.532   5.283  12.414
47920W        W 7423  14.679  22.067   1.931
47921W        W 7424  39.396  37.865  13.359
47922W        W 7425  44.856  44.336   1.795
47923W        W 7426  11.200  27.096  12.387
47924W        W 7427  30.633  38.025  12.553
47925W        W 7428  23.558  18.122  10.433
47926W        W 7429   2.962  35.396  13.470
47927W        W 7430  33.429   2.249   4.160
47928W        W 7431   8.280  41.992   3.846
47929W        W 7432   0.865   0.911   4.159
47930W        W 7433   3.846   4.391   2.295
47931W        W 7434   6.224  34.529   4.754
47932W        W 7435  27.555  20.080  10.535
47933W        W 7436  19.541  16.241   2.797
47934W        W 7437   9.394  15.650  10.558
47935W        W 7438  41.863  30.544   3.746
47936W        W 7439   5.755  17.224   3.147
47937W        W 7440  17.678   2.865   3.858
47938W        W 7441  27.006  42.318  11.434
47939W        W 7442   6.726  36.413   1.220
47940W        W 7443  44.873  24.485  10.631
47941W        W 7444  33.461   9.656   2.859
47942W        W 7445  11.718  11.848  14.443
47943W        W 7446  33.906  34.944  11.564
47944W        W 7447  43.291  31.961   1.324
47945W        W 7448   5.717  18.192  14.358
47946W        W 7449  19.165  20.233  14.414
47947W        W 7450  36.098  31.996  14.451
47948W        W 7451  26.996  35.470   1.841
47949W        W 7452   9.784  28.065  14.921
47950W        W 7453  30.939  41.808  12.925
47951W        W 7454  28.980  33.470   2.810
47952W        W 7455   9.393  43.912  10.989
47953W        W 7456  11.269  28.087  13.472
47954W        W 7457  36.845  16.720   0.810
47955W        W 7458  28.061  12.679  10.422
47956W        W 7459  43.291  11.232   1.415
47957W        W 7460   7.866   5.710  11.923
47958W        W 7461  10.815  16.152  10.437
47959W        W 7462   1.965  34.412   0.862
47960W        W 7463  29.669  36.356   4.284
47961W        W 7464  43.893  30.558   1.318
47962W        W 7465  14.747  36.877  10.968
47963W        W 7466  29.069  31.515  10.615
47964W        W 7467  39.055  18.121   4.155
47965W        W 7468  25.013  15.618   5.242
47966W        W 7469  28.129  22.666   4.620
47967W        W 7470  30.928  30.027   4.156
47968W        W 7471  32.903   7.404  13.403
47969W        W 7472   6.314  27.591   3.635
47970W        W 7473  35.926   2.332   2.328
47971W        W 7474  13.799  15.788  12.950
47972W        W 7475  41.821   4.204  12.559
47973W        W 7476  34.477   8.307   3.801
47974W        W 7477   3.222  17.568   1.429
47975W        W 7478  10.209   6.277  13.993
47976W        W 7479   0.775  38.402   0.859
47977W        W 7480  17.283   0.430  12.571
47978W        W 7481  22.562   2.864   1.320
47979W        W 7482   5.792   0.920  13.380
47980W        W 7483  13.284  43.879   2.837
47981W        W 7484  32.885  35.541  11.119
47982W        W 7485  15.225   6.853  11.546
47983W        W 7486  27.081  35.061  13.832
47984W        W 7487  14.231  14.708  11.104
47985W        W 7488   5.244   4.363   3.193
47986W        W 7489  25.029  23.565  12.028
47987W        W 7490  18.058  36.015  14.476
47988W        W 7491  21.724  29.109  11.544
47989W        W 7492  22.235   3.459   2.900
47990W        W 7493  41.038  15.121  14.515
47991W        W 7494  25.512  40.028   0.307
47992W        W 7495  31.473  23.193   2.368
47993W        W 7496  13.193  17.701  10.554
47994W        W 7497  17.300  15.175   2.179
47995W        W 7498  14.139   6.732  14.368
47996W        W 7499  11.293  28.184  14.825
47997W        W 7500  15.802  34.572   2.720
47998W        W 7501  14.661  19.642  14.324
47999W        W 7502  24.112  11.183  14.411
48000W        W 7503  12.825  37.545  13.064
48001W        W 7504  19.628  23.067   1.275
48002W        W 7505  24.226  41.829  13.521
48003W        W 7506  27.154   6.830  14.774
48004W        W 7507  29.529  29.585  12.410
48005W        W 7508  35.054  38.444   0.247
48006W        W 7509   3.387  30.576  12.365
48007W        W 7510   4.816  39.322  14.421
48008W        W 7511  42.463  26.006   3.870
48009W        W 7512  25.984  31.577   1.839
48010W        W 7513  30.453  36.569   2.338
48011W        W 7514   9.204  42.009   0.371
48012W        W 7515   4.774  29.973  10.102
48013W        W 7516  12.167  18.184   1.785
48014W        W 7517  42.816  16.292  14.395
48015W        W 7518   3.260  28.465   4.653
48016W        W 7519  20.558  10.167   0.917
48017W        W 7520  35.105  37.869  13.016
48018W        W 7521  14.268  23.239  10.413
48019W        W 7522  32.408  16.766   3.275
48020W        W 7523   8.406  14.736  12.421
48021W        W 7524  37.442   9.757   0.818
48022W        W 7525  35.393   7.807  10.452
48023W        W 7526  11.744  33.004   3.675
48024W        W 7527  20.700  28.131  10.570
48025W        W 7528  19.760  21.079   4.316
48026W        W 7529  14.120   0.829   0.745
48027W        W 7530   2.939   0.399  11.534
48028W        W 7531  16.637  12.649  11.933
48029W        W 7532   5.347  15.620  11.898
48030W        W 7533  26.612  37.472  14.331
48031W        W 7534   8.881  33.087  13.817
48032W        W 7535   8.321   6.371  11.878
48033W        W 7536   4.724  25.592   2.229
48034W        W 7537  17.071   3.301  10.100
48035W        W 7538  35.988  20.175  11.948
48036W        W 7539  42.991  35.955  10.912
48037W        W 7540   2.229  19.777   4.339
48038W        W 7541  15.745  41.428  12.863
48039W        W 7542   6.292  30.544  12.980
48040W        W 7543  32.486  39.405   2.408
48041W        W 7544  33.059  21.170   4.758
48042W        W 7545  39.995  24.204   0.424
48043W        W 7546  35.983  23.579  14.410
48044W        W 7547  39.813  32.592   4.194
48045W        W 7548  20.653  25.027   1.777
48046W        W 7549  24.584  23.667  10.415
48047W        W 7550  35.093  35.977  11.879
48048W        W 7551   2.816  37.432   2.285
48049W        W 7552  20.532  34.943  12.498
48050W        W 7553  25.671  39.017   3.733
48051W        W 7554  24.011  11.713  11.045
48052W        W 7555  38.075  22.565  14.826
48053W        W 7556  20.629   0.389   9.993
48054W        W 7557  32.074  28.678   1.267
48055W        W 7558  39.874  10.866  13.850
48056W        W 7559   3.801  14.697   4.144
48057W        W 7560  21.626  14.250  14.459
48058W        W 7561  19.265  18.785  11.447
48059W        W 7562   4.278  26.073   2.199
48060W        W 7563  10.716  31.134  13.369
48061W        W 7564  29.969   1.764  13.956
48062W        W 7565  44.842  16.661   0.760
48063W        W 7566  24.537  30.124  13.429
48064W        W 7567  16.309  27.085  13.855
48065W        W 7568  31.440  34.060   1.831
48066W        W 7569  22.659  18.199   2.683
48067W        W 7570  30.594  11.162   0.834
48068W        W 7571  34.069   1.237   2.665
48069W        W 7572   0.259  32.410   3.708
48070W        W 7573  30.129  12.127   0.841
48071W        W 7574  34.013  36.849  11.376
48072W        W 7575  11.249  16.107  12.017
48073W        W 7576   5.204  20.732   3.153
48074W        W 7577   5.903  14.145   2.275
48075W        W 7578  29.589  32.049   4.273
48076W        W 7579  36.889  10.776  14.393
48077W        W 7580  32.637  35.596  14.383
48078W        W 7581  10.317  33.596   5.169
48079W        W 7582  12.805   8.750   1.354
48080W        W 7583  11.316   1.976   2.890
48081W        W 7584  33.399  14.112   3.351
48082W        W 7585  20.245  13.333  11.949
48083W        W 7586  10.184  31.133   1.244
48084W        W 7587   2.948  26.537  13.373
48085W        W 7588  21.654   6.241  10.025
48086W        W 7589  44.999   1.372   2.839
48087W        W 7590  33.625  19.637   2.869
48088W        W 7591  38.491  10.699   3.867
48089W        W 7592  38.929  10.256   1.831
48090W        W 7593  43.955  14.162   4.167
48091W        W 7594  30.966  13.266  11.379
48092W        W 7595  44.985  15.284   3.707
48093W        W 7596  10.147  25.985  12.428
48094W        W 7597   8.346  24.213  13.533
48095W        W 7598  26.083  19.146   2.249
48096W        W 7599   5.828   9.789   3.663
48097W        W 7600  32.395  16.616  14.810
48098W        W 7601  36.492  12.261   2.884
48099W        W 7602   9.291  43.307  10.619
48100W        W 7603  19.706  22.115   4.775
48101W        W 7604  33.616  28.135   4.755
48102W        W 7605   8.834   2.843   3.360
48103W        W 7606  27.993  33.051  12.427
48104W        W 7607  37.516   0.791   5.302
48105W        W 7608   1.905  30.611   1.817
48106W        W 7609  25.036  25.508  13.052
48107W        W 7610   7.285  19.066  10.452
48108W        W 7611  10.282  29.557  14.761
48109W        W 7612  11.701  14.329   3.266
48110W        W 7613   2.284  21.637  12.430
48111W        W 7614  11.818  13.183  14.895
48112W        W 7615   8.196   5.692   4.650
48113W        W 7616   8.345  11.305  11.447
48114W        W 7617  27.944  21.196   0.363
48115W        W 7618  10.866  28.185  13.432
48116W        W 7619  41.318   5.293  12.869
48117W        W 7620  26.681  34.055   3.270
48118W        W 7621  21.532  29.996   4.712
48119W        W 7622  39.900  23.722  14.867
48120W        W 7623  27.653   4.772   4.721
48121W        W 7624  37.935  42.885   1.374
48122W        W 7625  17.268   0.311   4.728
48123W        W 7626  10.213  41.418  14.006
48124W        W 7627   0.445  30.642  13.932
48125W        W 7628  31.949  43.296  12.430
48126W        W 7629  11.231  10.218  12.398
48127W        W 7630  21.710  16.191   1.284
48128W        W 7631  12.171   6.793   3.273
48129W        W 7632  17.254  31.599  10.532
48130W        W 7633  19.144  11.312  11.978
48131W        W 7634  44.917   8.733   4.270
48132W        W 7635  15.690   1.903  10.060
48133W        W 7636  21.569  43.796  14.918
48134W        W 7637  33.986  34.871   1.329
48135W        W 7638  29.586   6.249   3.869
48136W        W 7639  12.813  38.043   2.401
48137W        W 7640   1.329  16.769  14.018
48138W        W 7641  10.637  11.630   4.621
48139W        W 7642  13.716  33.471  14.317
48140W        W 7643  14.116   2.231  12.847
48141W        W 7644  33.604  10.791  12.394
48142W        W 7645  29.017  44.474  11.960
48143W        W 7646  42.023  23.156   1.384
48144W        W 7647   7.209   6.428  11.454
48145W        W 7648  41.326  12.281  13.308
48146W        W 7649  38.369  20.691   4.223
48147W        W 7650  19.732  41.910   4.214
48148W        W 7651  39.525  30.938  12.432
48149W        W 7652  41.861  18.790  14.910
48150W        W 7653   0.286  30.158  12.558
48151W        W 7654  16.736  18.582   3.181
48152W        W 7655  11.170  31.489  11.098
48153W        W 7656  14.773  34.972  11.012
48154W        W 7657   1.958  35.570   2.341
48155W        W 7658   9.679  12.220   0.303
48156W        W 7659  32.546  11.849  12.451
48157W        W 7660  37.913  18.272   5.199
48158W        W 7661  20.688   5.318   4.711
48159W        W 7662  14.231  35.967  13.980
48160W        W 7663   4.276  29.439   1.697
48161W        W 7664  43.944  37.934   4.689
48162W        W 7665  11.686  41.300  12.477
48163W        W 7666  13.824  41.831  11.579
48164W        W 7667  26.194  36.086   1.287
48165W        W 7668  19.543   6.919   0.829
48166W        W 7669   7.695   9.794   0.423
48167W        W 7670  30.918   9.871   0.819
48168W        W 7671   7.289  31.029  14.781
48169W        W 7672  43.931  26.025  14.803
48170W        W 7673  20.532  11.796   3.813
48171W        W 7674  25.673  10.163   2.785
48172W        W 7675  26.509  43.506   2.862
48173W        W 7676  19.645  29.071   4.119
48174W        W 7677  34.882  17.779   2.844
48175W        W 7678  30.000  24.024   2.837
48176W        W 7679  24.674  39.551  13.870
48177W        W 7680   0.447   6.419  14.368
48178W        W 7681  39.353  23.596   4.183
48179W        W 7682  40.480  23.105   0.886
48180W        W 7683  28.437  27.191   1.253
48181W        W 7684   7.855  13.193  10.049
48182W        W 7685  43.887  37.086   4.203
48183W        W 7686  31.045   9.192  12.555
48184W        W 7687  35.571  41.035   0.405
48185W        W 7688   1.926  22.534   4.204
48186W        W 7689  41.353  12.802   2.370
48187W        W 7690  29.990   3.242   1.392
48188W        W 7691  38.033  35.455  12.419
48189W        W 7692   2.265  30.633   1.311
48190W        W 7693  15.162  33.463  13.392
48191W        W 7694   3.916  14.132   3.379
48192W        W 7695  33.444   5.709   1.905
48193W        W 7696  12.287   2.370  13.064
48194W        W 7697   9.257  30.462  13.313
48195W        W 7698  21.204   2.319  14.965
48196W        W 7699  20.092  15.663  10.498
48197W        W 7700  44.953  42.027  11.526
48198W        W 7701  34.033  18.605  13.983
48199W        W 7702  20.164  20.604   3.782
48200W        W 7703  25.491  13.748  12.995
48201W        W 7704  24.494   5.382  14.393
48202W        W 7705  36.962  15.277  12.937
48203W        W 7706   6.832  11.315   4.272
48204W        W 7707  40.913  40.426   2.297
48205W        W 7708  17.783  20.765   0.935
48206W        W 7709  34.001  37.558  11.896
48207W        W 7710  40.817   5.287   0.921
48208W        W 7711  40.854  34.543   0.960
48209W        W 7712  25.473  35.951   1.890
48210W        W 7713  10.271  42.811   3.344
48211W        W 7714  14.136  23.695  12.081
48212W        W 7715  40.969  17.064   4.819
48213W        W 7716  29.070  33.893  12.364
48214W        W 7717  28.680   9.363   1.694
48215W        W 7718  16.812   4.207   1.819
48216W        W 7719  17.681   6.817  13.473
48217W        W 7720  31.610  12.722   1.297
48218W        W 7721  19.059   1.342   3.322
48219W        W 7722   3.453  15.121   2.226
48220W        W 7723  24.219  42.960  13.544
48221W        W 7724  15.660  27.117  12.907
48222W        W 7725   7.760   6.678  13.352
48223W        W 7726  42.345  13.308   3.742
48224W        W 7727  24.124  14.261   1.779
48225W        W 7728  36.460  18.648  14.384
48226W        W 7729  31.618  35.943   2.745
48227W        W 7730  31.612  26.644  11.938
48228W        W 7731  42.496   4.227  13.419
48229W        W 7732  11.812  31.142  10.427
48230W        W 7733  41.451  32.568  13.996
48231W        W 7734  23.607  15.620   1.386
48232W        W 7735  42.440   0.342  11.062
48233W        W 7736  12.175  14.681  11.866
48234W        W 7737  12.352  37.557  14.903
48235W        W 7738  43.987  18.229   1.861
48236W        W 7739  32.549  22.612  14.917
48237W        W 7740  26.663  34.951   0.800
48238W        W 7741  34.038  39.930  13.796
48239W        W 7742  38.500   2.729  10.430
48240W        W 7743  16.800   7.679   1.893
48241W        W 7744  16.092  14.240  13.916
48242W        W 7745  20.117   8.303   2.416
48243W        W 7746   8.396  16.582  11.603
48244W        W 7747  39.995  44.360  10.992
48245W        W 7748  10.160  26.048   3.683
48246W        W 7749  12.232  42.842  10.900
48247W        W 7750  31.028  43.959  14.487
48248W        W 7751  17.713  31.502  13.932
48249W        W 7752  22.674  10.818   3.784
48250W        W 7753  44.957   6.883  11.440
48251W        W 7754  15.593  28.040   2.311
48252W        W 7755  34.539  41.954  11.053
48253W        W 7756  39.428  28.006  13.939
48254W        W 7757  34.583  17.217  12.550
48255W        W 7758   8.190  22.189  13.398
48256W        W 7759  21.177  42.792  13.824
48257W        W 7760  15.620  44.922   0.764
48258W        W 7761  10.659  30.066  12.507
48259W        W 7762  29.470  12.614  12.935
48260W        W 7763  23.693  23.638   2.761
48261W        W 7764  34.378  39.921   3.359
48262W        W 7765  36.501  38.821   4.792
48263W        W 7766  40.367   7.748   3.326
48264W        W 7767  38.514  28.637   2.755
48265W        W 7768  32.491  35.570  13.472
48266W        W 7769  39.369  36.954  10.447
48267W        W 7770  31.566   2.912  14.340
48268W        W 7771   3.393  28.102   9.926
48269W        W 7772  35.068  19.286  10.961
48270W        W 7773  17.623   8.365   3.725
48271W        W 7774   0.930   2.865   1.211
48272W        W 7775   4.350  10.154  14.879
48273W        W 7776  11.732  35.518   1.439
48274W        W 7777   0.918   3.861  14.813
48275W        W 7778  43.371  15.131   1.328
48276W        W 7779  11.171  24.089  13.846
48277W        W 7780  44.291  26.962   1.441
48278W        W 7781  20.526  38.843  12.499
48279W        W 7782  25.607  32.955   2.760
48280W        W 7783  27.983  20.241   4.708
48281W        W 7784   3.413  11.821   3.216
48282W        W 7785  20.099  16.590   2.312
48283W        W 7786  11.201   5.359   1.289
48284W        W 7787  12.333  29.019  13.935
48285W        W 7788  34.038  28.941   4.137
48286W        W 7789   6.275  23.535   4.798
48287W        W 7790  21.095  25.138  11.447
48288W        W 7791  15.617   7.697   4.324
48289W        W 7792  34.615  11.841  12.927
48290W        W 7793  39.426  11.842  14.866
48291W        W 7794  15.271  34.512  13.931
48292W        W 7795   5.872   4.214   1.356
48293W        W 7796  36.875  24.583   2.834
48294W        W 7797  34.120   1.816   2.301
48295W        W 7798  34.547  11.751  14.509
48296W        W 7799  43.383   2.867  13.948
48297W        W 7800  18.119  19.106   3.304
48298W        W 7801  44.389  17.661  13.967
48299W        W 7802  31.607  20.261  14.509
48300W        W 7803  28.096  11.241   2.881
48301W        W 7804   6.764   1.870   3.690
48302W        W 7805  41.339  22.674  14.876
48303W        W 7806  13.733  26.977  13.417
48304W        W 7807  14.830  35.916  14.348
48305W        W 7808  24.979  21.621  12.374
48306W        W 7809  14.187  41.918  14.842
48307W        W 7810   0.404  22.506  13.412
48308W        W 7811  25.647  27.064   0.291
48309W        W 7812   4.756  17.655  14.830
48310W        W 7813  22.725  44.772   0.945
48311W        W 7814  14.677   6.733  14.504
48312W        W 7815  41.484  42.490   4.202
48313W        W 7816  21.638  23.622  10.480
48314W        W 7817   6.705   9.254   2.235
48315W        W 7818  38.328  22.217   2.749
48316W        W 7819   5.218  42.350  12.543
48317W        W 7820  11.209  28.583   4.313
48318W        W 7821  35.476  11.803   2.231
48319W        W 7822  17.653  20.760   2.690
48320W        W 7823  13.756  38.936  13.343
48321W        W 7824  22.529  16.709   3.368
48322W        W 7825  27.017  32.504  12.963
48323W        W 7826  17.070  29.577  10.552
48324W        W 7827   7.909  31.924   0.869
48325W        W 7828   3.830  32.504  14.931
48326W        W 7829  38.942  28.639  12.873
48327W        W 7830  32.531   7.876  11.117
48328W        W 7831   5.916  26.152  11.599
48329W        W 7832  27.652  31.959  13.861
48330W        W 7833  39.981  10.688  13.502
48331W        W 7834  38.844  27.131  10.437
48332W        W 7835  43.925  12.739   4.118
48333W        W 7836  29.995   3.926   4.746
48334W        W 7837   0.769   2.749  14.919
48335W        W 7838  33.917   4.915  11.498
48336W        W 7839  22.520  23.037   0.384
48337W        W 7840  26.020   7.773  11.054
48338W        W 7841  27.462  21.119  14.996
48339W        W 7842   4.238  38.062   0.247
48340W        W 7843  36.909  31.473   4.610
48341W        W 7844   5.767  43.970   4.678
48342W        W 7845   9.855  26.604  14.904
48343W        W 7846   8.770  23.734  12.836
48344W        W 7847  16.658  39.865   1.449
48345W        W 7848  10.690  11.258  11.916
48346W        W 7849  32.115   0.292   2.239
48347W        W 7850  36.932  33.414   4.700
48348W        W 7851  13.244   7.803   3.373
48349W        W 7852  30.142  23.687   3.169
48350W        W 7853   1.407  15.672   1.858
48351W        W 7854  20.756   3.258  11.961
48352W        W 7855  38.542  23.587   3.261
48353W        W 7856  42.423  29.600  11.099
48354W        W 7857   7.771  17.306  10.514
48355W        W 7858  25.708   9.291  13.041
48356W        W 7859  19.685  44.266  11.020
48357W        W 7860  38.824   1.273  14.025
48358W        W 7861  30.519  27.013  13.989
48359W        W 7862   2.802  41.023  11.018
48360W        W 7863  37.364  23.993   0.395
48361W        W 7864   0.834  36.450   3.640
48362W        W 7865  29.515  12.180   2.201
48363W        W 7866  38.499   3.394   0.925
48364W        W 7867  44.263  23.187   3.805
48365W        W 7868  24.145   6.322  11.498
48366W        W 7869  29.132  26.607   0.244
48367W        W 7870  15.304  11.693  12.992
48368W        W 7871  33.502   1.372   3.838
48369W        W 7872  34.522  29.452   1.359
48370W        W 7873   6.394  41.992   3.213
48371W        W 7874  25.565  18.247  14.883
48372W        W 7875  42.969  30.639   0.759
48373W        W 7876  30.571  44.265   4.609
48374W        W 7877  22.735  12.660   1.721
48375W        W 7878   1.257  24.660  10.891
48376W        W 7879  40.429  27.194  13.355
48377W        W 7880  17.096  10.188  10.142
48378W        W 7881  41.512  36.030  12.006
48379W        W 7882  12.711   8.706   5.226
48380W        W 7883  32.026  41.899   0.819
48381W        W 7884  21.715  21.026  12.465
48382W        W 7885  44.753  32.947   1.808
48383W        W 7886   6.256  35.062   1.374
48384W        W 7887  10.163  38.948   3.184
48385W        W 7888  30.928  30.502   4.746
48386W        W 7889   9.774   0.262   3.842
48387W        W 7890   1.915   3.859  12.961
48388W        W 7891  11.339  20.535  12.532
48389W        W 7892  39.853  24.488  13.854
48390W        W 7893  17.654   6.410   2.673
48391W        W 7894   6.788  22.184  10.488
48392W        W 7895  11.373  28.995  11.935
48393W        W 7896  18.098  29.170   3.245
48394W        W 7897  32.453  10.818   3.163
48395W        W 7898  17.636  33.991   1.745
48396W        W 7899  25.146  33.874  11.424
48397W        W 7900  30.087   6.687   4.116
48398W        W 7901  15.258   7.850   4.637
48399W        W 7902   5.916  26.528  14.783
48400W        W 7903  33.065   3.350   1.311
48401W        W 7904  42.442  22.200  11.431
48402W        W 7905   5.216  37.522  11.460
48403W        W 7906  20.265  33.937  12.841
48404W        W 7907  30.968   3.885  14.838
48405W        W 7908  20.614  40.527  12.579
48406W        W 7909  36.484  25.966   0.746
48407W        W 7910  33.412  15.820  13.396
48408W        W 7911  43.787  27.624  13.951
48409W        W 7912  37.480  39.527  13.805
48410W        W 7913  11.845  36.566   3.205
48411W        W 7914  34.933  32.405  11.551
48412W        W 7915  12.147  28.019   2.290
48413W        W 7916  22.617  15.767   4.660
48414W        W 7917  43.337  35.574  11.556
48415W        W 7918  11.720   6.415   0.420
48416W        W 7919  18.787  11.177   4.728
48417W        W 7920  25.498  13.620   0.452
48418W        W 7921  21.588  20.033  12.540
48419W        W 7922  35.970  20.722   3.291
48420W        W 7923   1.791  32.028  12.350
48421W        W 7924  27.076  16.218   2.783
48422W        W 7925   8.356   1.401  14.462
48423W        W 7926  23.655  44.854  13.843
48424W        W 7927  12.124  37.995  14.389
48425W        W 7928   4.238  44.429   0.886
48426W        W 7929  21.170   5.380   0.869
48427W        W 7930   5.304   4.229  10.478
48428W        W 7931  22.129   2.891  12.950
48429W        W 7932  10.773  29.986   1.324
48430W        W 7933  11.819  16.270   1.408
48431W        W 7934   2.764   3.748   4.647
48432W        W 7935   6.364  32.932  10.446
48433W        W 7936  10.660  44.322   4.652
48434W        W 7937   3.860   4.859  11.931
48435W        W 7938  12.314  43.416  13.894
48436W        W 7939   2.727  44.819   5.161
48437W        W 7940   9.876  37.875   3.298
48438W        W 7941   0.754  11.821  12.395
48439W        W 7942  23.106  35.501   3.769
48440W        W 7943  21.064   4.875   0.933
48441W        W 7944   9.188   5.406  11.435
48442W        W 7945  26.095  41.292  12.010
48443W        W 7946  41.393   4.277   1.873
48444W        W 7947  44.338  10.244   2.213
48445W        W 7948  39.347  12.244   1.768
48446W        W 7949   7.728   8.369   2.672
48447W        W 7950  29.570  31.950  12.073
48448W        W 7951  31.981   5.929   1.444
48449W        W 7952  21.652   6.739  10.943
48450W        W 7953  15.218  28.494   4.185
48451W        W 7954   7.787   3.369  12.578
48452W        W 7955   7.362  18.727   4.685
48453W        W 7956   0.447  25.160   4.214
48454W        W 7957  14.683  28.493   0.927
48455W        W 7958   7.410   2.388   1.803
48456W        W 7959   4.257  40.006  12.062
48457W        W 7960  13.820  13.172  11.946
48458W        W 7961  16.254   2.959  11.377
48459W        W 7962   9.343  40.474  12.002
48460W        W 7963  11.135  44.810   2.880
48461W        W 7964  17.167   5.237  13.385
48462W        W 7965  16.168   9.760  14.940
48463W        W 7966  40.954  40.885  11.890
48464W        W 7967  22.082  39.871  12.938
48465W        W 7968  18.620  22.560   1.841
48466W        W 7969  23.145   6.717   2.771
48467W        W 7970   6.295  36.351  12.850
48468W        W 7971  26.569  14.792  12.491
48469W        W 7972  33.426  15.327  10.602
48470W        W 7973  37.442  37.395   5.255
48471W        W 7974  27.559  43.902  10.587
48472W        W 7975   1.426  24.224   1.828
48473W        W 7976  42.862   3.885  11.949
48474W        W 7977  18.653  33.476   3.736
48475W        W 7978  31.641   9.347  13.983
48476W        W 7979  41.027  41.362  13.360
48477W        W 7980  15.752  14.651  14.367
48478W        W 7981  21.219   2.869  14.297
48479W        W 7982  19.042  17.641   0.481
48480W        W 7983  26.100  34.007  11.551
48481W        W 7984  15.602  25.537  13.930
48482W        W 7985  10.313   7.861  14.928
48483W        W 7986   3.760   0.867  14.807
48484W        W 7987   4.937  29.026   3.852
48485W        W 7988  27.014  14.325  13.870
48486W        W 7989  31.067   3.242  12.905
48487W        W 7990   4.754   1.328  13.971
48488W        W 7991  16.123  32.928   0.763
48489W        W 7992  13.337  42.451   1.312
48490W        W 7993  17.773  18.684  11.988
48491W        W 7994  23.525  44.011   0.822
48492W        W 7995  37.081  26.543  11.959
48493W        W 7996  19.138  19.078   2.413
48494W        W 7997  32.399  44.291   1.782
48495W        W 7998  11.293  26.205  10.565
48496W        W 7999  24.636  11.691   2.695
48497W        W 8000  11.169  43.823   1.272
48498W        W 8001   7.363  19.756   3.840
48499W        W 8002  37.351  14.815   3.369
48500W        W 8003  41.298  18.783   1.440
48501W        W 8004  39.022   2.732   5.086
48502W        W 8005   1.244  29.023   1.854
48503W        W 8006  16.266  24.133   4.665
48504W        W 8007  10.320  42.883  11.560
48505W        W 8008  22.727  25.580  14.956
48506W        W 8009  36.029  34.938  12.518
48507W        W 8010  20.246  14.615   0.289
48508W        W 8011  21.599  16.719   4.816
48509W        W 8012  35.416   5.346   0.418
48510W        W 8013  15.601  14.163  11.971
48511W        W 8014   2.767   4.372   2.701
48512W        W 8015  27.075  23.508   1.821
48513W        W 8016  36.868  37.031  11.608
48514W        W 8017   0.298  21.543   1.447
48515W        W 8018   7.201   3.432  13.830
48516W        W 8019   8.745  20.538   2.386
48517W        W 8020   4.366  24.684  10.404
48518W        W 8021  30.656  21.542   3.657
48519W        W 8022  15.793  11.656  12.366
48520W        W 8023  20.735  15.217  14.910
48521W        W 8024  29.063  16.168   3.712
48522W        W 8025  18.282  40.355   2.292
48523W        W 8026  27.180  34.986   3.333
48524W        W 8027  43.872  39.541  12.415
48525W        W 8028  21.740  17.203  10.640
48526W        W 8029  19.096   6.296   1.212
48527W        W 8030   2.297   1.389   3.305
48528W        W 8031  31.462  36.353  14.341
48529W        W 8032  34.463  39.463   3.681
48530W        W 8033  15.802  37.520   3.725
48531W        W 8034  43.275  14.175   0.405
48532W        W 8035  29.456  23.703   9.964
48533W        W 8036  14.116  12.310   4.632
48534W        W 8037  11.241  22.668  14.424
48535W        W 8038  34.528  31.921  12.980
48536W        W 8039  11.266   1.391  10.423
48537W        W 8040  37.422  18.110  12.855
48538W        W 8041   2.858  36.052  12.992
48539W        W 8042   6.803  27.137   2.784
48540W        W 8043  42.474   6.717   5.140
48541W        W 8044  40.456  39.895  12.530
48542W        W 8045   2.759  11.853  14.352
48543W        W 8046  24.200  10.874   4.161
48544W        W 8047   8.726  32.132   1.367
48545W        W 8048  27.084   3.925   3.667
48546W        W 8049  18.739  39.429   0.894
48547W        W 8050  44.925  14.284  14.389
48548W        W 8051  19.111   3.351   3.775
48549W        W 8052  20.153   7.839  14.417
48550W        W 8053   4.736  16.207  12.013
48551W        W 8054  27.187  21.664   0.271
48552W        W 8055  26.993  24.571   1.709
48553W        W 8056  22.705  32.935  11.917
48554W        W 8057  25.124   7.216   3.858
48555W        W 8058   1.443   6.753  14.333
48556W        W 8059  18.740  25.162  12.879
48557W        W 8060  38.465  35.532  13.451
48558W        W 8061  11.286  40.002  12.960
48559W        W 8062  20.540  25.659  11.557
48560W        W 8063  24.981  30.480  14.480
48561W        W 8064   3.717   8.676   2.345
48562W        W 8065  26.176  21.533   3.324
48563W        W 8066   4.830  13.610  14.412
48564W        W 8067  20.167  15.223   4.344
48565W        W 8068  23.216  41.446   0.954
48566W        W 8069  35.364  34.018  11.068
48567W        W 8070  39.811  15.725   3.257
48568W        W 8071  18.573   5.388  10.453
48569W        W 8072  30.040  14.686   0.403
48570W        W 8073   0.769  16.745   0.408
48571W        W 8074  20.638  40.820  12.000
48572W        W 8075   1.870   6.682   2.325
48573W        W 8076  40.876  34.993   0.447
48574W        W 8077  36.049  37.852  13.818
48575W        W 8078  15.158  37.901  13.810
48576W        W 8079   9.299  25.711  13.498
48577W        W 8080  22.618  18.726  14.808
48578W        W 8081  30.985   8.387  13.048
48579W        W 8082  21.556  39.397   4.237
48580W        W 8083  15.727  13.720  14.415
48581W        W 8084  17.113   2.792   3.851
48582W        W 8085  24.571   4.913   1.266
48583W        W 8086   6.410  17.215   2.186
48584W        W 8087  26.976  23.085   0.250
48585W        W 8088  30.147  42.411   3.291
48586W        W 8089  22.189  10.874  11.858
48587W        W 8090  23.709  16.593   1.772
48588W        W 8091  40.452  13.288  12.910
48589W        W 8092  35.093   1.843   3.380
48590W        W 8093  25.622  23.105  12.381
48591W        W 8094  30.658   7.186   2.748
48592W        W 8095   0.842  23.196   5.634
48593W        W 8096  10.217  22.038  13.951
48594W        W 8097  25.986   0.460   5.768
48595W        W 8098  42.792  13.346  14.819
48596W        W 8099   5.349   5.428  10.544
48597W        W 8100  13.674  19.223   1.272
48598W        W 8101  28.034  26.088   0.316
48599W        W 8102  19.747  28.681   4.713
48600W        W 8103  37.976  13.139  11.072
48601W        W 8104  30.602  42.931   3.368
48602W        W 8105  16.788  16.234  13.523
48603W        W 8106   0.776  34.588   3.267
48604W        W 8107  15.667  27.994   3.206
48605W        W 8108  22.666  40.818   4.341
48606W        W 8109  44.938  16.309  14.973
48607W        W 8110  40.331  15.225  11.116
48608W        W 8111  32.529   4.227   1.718
48609W        W 8112   6.331  43.420   1.812
48610W        W 8113   6.921  18.688   0.944
48611W        W 8114  40.320   2.249   0.896
48612W        W 8115  36.879  35.929  13.825
48613W        W 8116  18.770  29.982   0.400
48614W        W 8117  11.254  11.671   2.898
48615W        W 8118  26.649   6.710   0.314
48616W        W 8119   3.295  26.544   3.237
48617W        W 8120  25.141  36.579  11.528
48618W        W 8121  23.178  10.782  12.051
48619W        W 8122  18.584  37.360  11.547
48620W        W 8123   1.764  10.768   3.749
48621W        W 8124  32.012   2.886   3.215
48622W        W 8125  33.604  19.663  13.904
48623W        W 8126  41.857   5.737   1.798
48624W        W 8127  26.551  21.706  11.529
48625W        W 8128  35.920  13.605  14.944
48626W        W 8129  18.126  12.812   4.219
48627W        W 8130  44.372  44.505   4.287
48628W        W 8131  14.693  29.151   0.904
48629W        W 8132  16.231  20.129  14.777
48630W        W 8133  44.465  16.182  13.345
48631W        W 8134  43.362   7.203   1.288
48632W        W 8135   5.356  41.044   1.337
48633W        W 8136   7.355  28.484   2.817
48634W        W 8137  37.944  14.755   2.895
48635W        W 8138   6.409   2.303  10.955
48636W        W 8139  16.784  15.644  10.911
48637W        W 8140  42.880   1.786   2.682
48638W        W 8141  39.911  18.089  12.927
48639W        W 8142   6.838   8.397  12.915
48640W        W 8143   9.643  37.893  14.959
48641W        W 8144  24.040  37.026   1.279
48642W        W 8145   8.256  18.256  14.895
48643W        W 8146  42.004  32.906  10.911
48644W        W 8147  43.982   2.922   1.933
48645W        W 8148  33.912  24.040   1.786
48646W        W 8149  32.132  20.746  14.407
48647W        W 8150  12.262  39.892   3.166
48648W        W 8151  34.591  35.080   1.802
48649W        W 8152  33.123  19.130   1.323
48650W        W 8153   8.731  33.601   2.261
48651W        W 8154   9.806  11.265  13.537
48652W        W 8155   6.226   4.322   0.382
48653W        W 8156   3.249  39.528  13.490
48654W        W 8157  24.147  35.544   0.912
48655W        W 8158   7.789  33.999   0.263
48656W        W 8159  21.667  41.973   2.365
48657W        W 8160  17.768  18.235   0.415
48658W        W 8161   0.835  33.445  13.361
48659W        W 8162  31.443  43.819   3.838
48660W        W 8163  42.787  21.662  12.989
48661W        W 8164  12.614  39.466  10.442
48662W        W 8165   5.723   4.426   2.313
48663W        W 8166  29.097  41.011   0.827
48664W        W 8167  14.789  23.603  13.960
48665W        W 8168  16.163  27.018   3.659
48666W        W 8169  12.816  41.354   2.268
48667W        W 8170  12.345  32.570  10.949
48668W        W 8171  28.083   2.772   2.221
48669W        W 8172  25.035  21.517   0.735
48670W        W 8173  42.341  19.603   0.377
48671W        W 8174  24.676  16.204  13.443
48672W        W 8175  27.534   2.965   2.350
48673W        W 8176  39.463  18.263  14.291
48674W        W 8177  21.043   9.873  10.031
48675W        W 8178   8.329   2.825  11.970
48676W        W 8179  10.844  28.074  10.566
48677W        W 8180  17.771  36.465   1.812
48678W        W 8181  31.453  37.044  12.929
48679W        W 8182  28.992  36.589   9.457
48680W        W 8183  15.162  10.210  10.559
48681W        W 8184  16.266   2.908   1.247
48682W        W 8185  19.039  30.479  14.814
48683W        W 8186  20.152   8.758   0.261
48684W        W 8187  37.844   1.887   0.262
48685W        W 8188   9.366  40.881   0.935
48686W        W 8189  39.946  44.968   4.238
48687W        W 8190   8.891  35.998   2.780
48688W        W 8191  37.395  37.479   3.799
48689W        W 8192  31.472  35.082  12.492
48690W        W 8193  21.152   6.219  12.983
48691W        W 8194  38.011   9.887   2.255
48692W        W 8195  28.981   8.200   4.614
48693W        W 8196  11.652  14.248   5.101
48694W        W 8197  42.001  28.536  11.942
48695W        W 8198  13.121   6.764   2.775
48696W        W 8199  40.900  12.803  13.338
48697W        W 8200  13.256  17.706   2.846
48698W        W 8201  27.600  24.137   1.328
48699W        W 8202  29.443  31.497  14.865
48700W        W 8203  11.663  38.867   0.931
48701W        W 8204  21.170   9.173   4.170
48702W        W 8205  12.792  36.930   0.315
48703W        W 8206  27.692  35.949  12.892
48704W        W 8207  15.714  16.774  10.498
48705W        W 8208  10.300  38.372  14.816
48706W        W 8209  36.446   1.294  12.016
48707W        W 8210  20.678  26.126  13.048
48708W        W 8211   7.357   3.880   1.252
48709W        W 8212  33.450  35.501  11.455
48710W        W 8213  32.566  19.708  11.974
48711W        W 8214  28.496  44.458   2.379
48712W        W 8215  12.688   6.201  12.914
48713W        W 8216  11.280  12.289   1.231
48714W        W 8217  31.522  22.531   0.863
48715W        W 8218   6.187  15.607  13.921
48716W        W 8219  39.521  38.923   0.422
48717W        W 8220  28.471  43.899  13.839
48718W        W 8221   7.274  44.453  10.596
48719W        W 8222  32.433  20.214  11.521
48720W        W 8223   5.274  42.957   4.286
48721W        W 8224   7.362  29.520  14.365
48722W        W 8225   6.841  16.598  10.899
48723W        W 8226  16.798  26.118   2.419
48724W        W 8227  14.630   8.251  12.457
48725W        W 8228  12.670  42.463   4.218
48726W        W 8229  37.359  13.184   4.198
48727W        W 8230   0.766  29.047  11.017
48728W        W 8231  44.829  44.358  10.098
48729W        W 8232   9.276  31.437   1.343
48730W        W 8233  26.146  10.313   0.837
48731W        W 8234  24.552  28.446   1.877
48732W        W 8235  24.146  22.085   3.191
48733W        W 8236  10.712  10.354   1.713
48734W        W 8237  34.932   3.243   0.291
48735W        W 8238   2.891   6.757  11.380
48736W        W 8239  31.504  11.152   0.826
48737W        W 8240  30.583  23.160  12.566
48738W        W 8241  26.503  31.630  14.349
48739W        W 8242   4.740  12.730  14.318
48740W        W 8243  15.224  31.544  12.556
48741W        W 8244  24.167  11.226   3.793
48742W        W 8245   3.862  28.480  13.868
48743W        W 8246   1.471  11.232  10.569
48744W        W 8247  34.963   8.843  11.585
48745W        W 8248  38.950  17.150   4.344
48746W        W 8249  25.706  23.996  12.565
48747W        W 8250  41.909  10.722  13.040
48748W        W 8251   3.956  16.735  14.479
48749W        W 8252  16.694  15.785   0.458
48750W        W 8253   9.821  41.030  12.366
48751W        W 8254   4.243   8.675   3.792
48752W        W 8255  28.185  27.197  13.990
48753W        W 8256  36.855  15.292  13.987
48754W        W 8257  42.395  27.961  13.505
48755W        W 8258  17.559  31.430  14.963
48756W        W 8259  15.692   8.239  13.820
48757W        W 8260  38.482  21.211  10.586
48758W        W 8261  29.581  32.898  14.471
48759W        W 8262  18.627   9.677   3.853
48760W        W 8263  27.613  36.964   4.834
48761W        W 8264  19.147  19.232  14.347
48762W        W 8265  28.065   0.434  14.510
48763W        W 8266  22.079  42.785   4.824
48764W        W 8267  12.643  18.599  11.127
48765W        W 8268   4.394  13.232  11.975
48766W        W 8269  26.464  38.072  12.956
48767W        W 8270  22.578   6.739  14.459
48768W        W 8271  14.823  10.703   2.210
48769W        W 8272  32.460  27.542   3.708
48770W        W 8273  42.948  28.544  12.979
48771W        W 8274   1.880   9.155  13.798
48772W        W 8275  14.748  37.057  11.961
48773W        W 8276  23.013  37.925   1.433
48774W        W 8277  23.644  31.646   2.179
48775W        W 8278  18.581  33.975  12.451
48776W        W 8279  42.805   5.918  13.427
48777W        W 8280  20.065  20.758  11.544
48778W        W 8281  13.678  43.015   0.963
48779W        W 8282  31.062  38.328   1.717
48780W        W 8283  32.422  30.002  12.851
48781W        W 8284  27.610  30.960  13.434
48782W        W 8285  14.215  14.132  10.471
48783W        W 8286  22.241   7.728   1.231
48784W        W 8287   7.291  34.614   4.242
48785W        W 8288  39.506  23.510   3.151
48786W        W 8289  38.446   5.724  14.854
48787W        W 8290  12.226  19.121   1.445
48788W        W 8291   5.821   4.864  14.504
48789W        W 8292   4.875   6.730   2.366
48790W        W 8293  34.043  32.591   3.863
48791W        W 8294  19.640  10.662   1.919
48792W        W 8295  26.068  15.283  11.880
48793W        W 8296  35.007  20.157   1.927
48794W        W 8297  44.763   2.261  11.463
48795W        W 8298  39.467   3.915  13.349
48796W        W 8299  24.037   1.740   5.204
48797W        W 8300  38.505  40.941  13.850
48798W        W 8301  21.204  24.177  10.452
48799W        W 8302  36.405  31.131   1.252
48800W        W 8303  19.553  36.065  11.967
48801W        W 8304  36.064  33.531  14.476
48802W        W 8305  20.051  21.037  11.910
48803W        W 8306  10.173  11.672   3.820
48804W        W 8307  41.293  22.743  14.368
48805W        W 8308  19.255  12.188   2.235
48806W        W 8309  35.398  23.587   4.653
48807W        W 8310   8.857  18.199   0.414
48808W        W 8311   6.349  29.013  14.328
48809W        W 8312  12.619  12.724   3.714
48810W        W 8313   7.685   4.755  11.001
48811W        W 8314   8.772  22.159  12.064
48812W        W 8315  33.054  11.679   3.387
48813W        W 8316  28.975  39.990   2.241
48814W        W 8317  12.690   8.181  13.498
48815W        W 8318  19.273  28.110  14.781
48816W        W 8319  27.198  31.016   3.646
48817W        W 8320  23.636  18.165  12.893
48818W        W 8321  19.044   5.902  10.486
48819W        W 8322   2.763   2.887   2.367
48820W        W 8323  34.863  19.749  10.418
48821W        W 8324  39.554   0.743   4.645
48822W        W 8325   5.761  22.205   4.837
48823W        W 8326  18.260  20.638  13.817
48824W        W 8327  17.789   5.425   1.712
48825W        W 8328  14.258   4.433   1.381
48826W        W 8329  15.106  20.128  13.535
48827W        W 8330  24.203   8.330   2.692
48828W        W 8331   8.768  16.774   0.728
48829W        W 8332  28.516  44.972   4.304
48830W        W 8333  33.429  36.414  10.433
48831W        W 8334  30.126  30.952  13.871
48832W        W 8335  40.839   4.777  11.476
48833W        W 8336  23.565  14.328  11.508
48834W        W 8337   7.236  32.999  12.542
48835W        W 8338  43.997  25.181  13.828
48836W        W 8339   6.725  36.502   3.696
48837W        W 8340   2.257   0.826   5.237
48838W        W 8341  30.491  24.031  12.893
48839W        W 8342  33.453  24.062   1.707
48840W        W 8343  18.107  21.105  11.513
48841W        W 8344  29.479  32.001   1.383
48842W        W 8345   6.903  12.310   0.930
48843W        W 8346  14.649  42.780  13.466
48844W        W 8347  21.122  37.880  12.570
48845W        W 8348  27.489  14.236  11.431
48846W        W 8349  22.683  34.948   4.126
48847W        W 8350   8.317  37.980   2.728
48848W        W 8351  35.361   9.356   2.241
48849W        W 8352   0.395  15.810  14.366
48850W        W 8353  33.401  16.188  12.464
48851W        W 8354  28.939  42.493  11.604
48852W        W 8355   7.273  21.743  10.408
48853W        W 8356  32.594  13.645   0.475
48854W        W 8357  19.268  27.549  12.527
48855W        W 8358  25.071  13.244   3.280
48856W        W 8359  20.586  17.734   3.334
48857W        W 8360  22.229  12.189   3.342
48858W        W 8361  24.538  10.877  13.895
48859W        W 8362  18.785  40.365   0.319
48860W        W 8363  40.447  32.513  14.947
48861W        W 8364  36.064  23.186  12.833
48862W        W 8365  11.844  14.330   2.890
48863W        W 8366  16.806   2.846  14.359
48864W        W 8367  22.161  42.991   0.830
48865W        W 8368  14.791  23.069  11.530
48866W        W 8369   2.376  33.877  14.765
48867W        W 8370  11.751  20.539   1.314
48868W        W 8371  42.455  37.351   3.735
48869W        W 8372  17.792  16.680  10.907
48870W        W 8373   9.823  19.537  13.547
48871W        W 8374  37.470  29.008   1.782
48872W        W 8375  20.701   1.896   4.698
48873W        W 8376   2.307  26.154  10.983
48874W        W 8377   3.410  24.013   0.365
48875W        W 8378  40.376  17.137   0.915
48876W        W 8379   4.710  32.935   3.675
48877W        W 8380  14.717  15.091  12.438
48878W        W 8381  23.636  25.587   0.858
48879W        W 8382  12.272  25.552  12.978
48880W        W 8383   7.178  13.334  13.437
48881W        W 8384  27.471  42.922  12.388
48882W        W 8385  39.427  39.459   3.673
48883W        W 8386  17.191  37.899   1.707
48884W        W 8387  30.091  34.587  10.924
48885W        W 8388  16.721  35.048   1.831
48886W        W 8389  27.598  23.032  12.384
48887W        W 8390  37.410  40.914  12.036
48888W        W 8391   3.748  23.631  12.439
48889W        W 8392  31.545  40.024   5.625
48890W        W 8393  41.321  41.898  13.315
48891W        W 8394   8.306  38.823  14.837
48892W        W 8395  39.899  14.790   2.206
48893W        W 8396  15.778  20.091  10.539
48894W        W 8397  31.977  17.598  14.848
48895W        W 8398  42.448  44.487  12.879
48896W        W 8399  17.272  40.478   2.668
48897W        W 8400   6.877   2.827  13.345
48898W        W 8401   9.702  38.534   3.285
48899W        W 8402  30.017  12.637  14.803
48900W        W 8403  42.522  18.663   0.767
48901W        W 8404   4.885  33.050   4.131
48902W        W 8405  29.137  11.700  10.904
48903W        W 8406   5.700  31.525   0.343
48904W        W 8407  40.510   6.363  11.041
48905W        W 8408  40.927   2.909   4.306
48906W        W 8409  24.167  23.594   2.292
48907W        W 8410  29.050  15.173  10.436
48908W        W 8411  36.047  25.532  12.048
48909W        W 8412  41.992  22.216  14.472
48910W        W 8413  27.144   9.743  11.604
48911W        W 8414  28.155  24.110   4.177
48912W        W 8415  17.743  32.072  14.363
48913W        W 8416  38.380  35.013  13.505
48914W        W 8417  23.733  37.572   4.663
48915W        W 8418  18.577   7.357  11.082
48916W        W 8419  41.507  14.173   1.270
48917W        W 8420  35.972  38.983  11.395
48918W        W 8421   3.791  31.408  11.530
48919W        W 8422   3.349   2.868  13.980
48920W        W 8423  28.002  28.937  11.108
48921W        W 8424   7.674  28.931   2.672
48922W        W 8425  15.318  35.493  13.456
48923W        W 8426   5.313  17.692  14.759
48924W        W 8427   4.269  43.975  11.470
48925W        W 8428   4.837  30.645   0.467
48926W        W 8429   1.961  11.226  14.336
48927W        W 8430  42.014  28.011  14.764
48928W        W 8431  26.518  13.806  11.065
48929W        W 8432  19.125  20.071   4.241
48930W        W 8433   1.349  37.382   2.331
48931W        W 8434  30.992   1.338   1.441
48932W        W 8435   3.248   1.861  14.372
48933W        W 8436  40.800  33.435  12.092
48934W        W 8437  16.693  38.871   3.757
48935W        W 8438  32.424   1.324  10.563
48936W        W 8439  14.262  21.739  10.528
48937W        W 8440  19.583  35.911   2.850
48938W        W 8441  37.965  22.722  11.026
48939W        W 8442   1.815  15.234   3.176
48940W        W 8443  24.099   1.902   1.229
48941W        W 8444  15.815  16.793   2.743
48942W        W 8445  33.091  19.187   2.202
48943W        W 8446  24.999   3.908  13.893
48944W        W 8447   8.232  30.611  14.868
48945W        W 8448  33.626   5.766  11.859
48946W        W 8449   3.943  27.982   2.872
48947W        W 8450  11.708  34.493  14.379
48948W        W 8451  43.502   6.320  13.917
48949W        W 8452  19.095  28.615   2.183
48950W        W 8453  11.227   8.894  12.438
48951W        W 8454   1.763   4.805   1.773
48952W        W 8455  15.084  25.618  13.865
48953W        W 8456  27.160  44.320   4.300
48954W        W 8457  15.713  14.742  13.982
48955W        W 8458   2.839  26.003   3.811
48956W        W 8459  24.225  12.192   3.377
48957W        W 8460  42.805  34.006   2.414
48958W        W 8461   7.296  19.091   0.821
48959W        W 8462  36.915   4.343   2.898
48960W        W 8463  11.631  35.501  10.639
48961W        W 8464  22.069  20.764  12.453
48962W        W 8465  23.493  13.148   2.310
48963W        W 8466  20.692  36.485   2.771
48964W        W 8467  25.985  10.306  10.580
48965W        W 8468  32.475  32.484   4.748
48966W        W 8469   7.311  12.204  14.316
48967W        W 8470  22.554  25.628   4.765
48968W        W 8471  12.760  26.680  10.567
48969W        W 8472  19.683  40.027   2.387
48970W        W 8473  41.800  29.046  14.380
48971W        W 8474  31.606   0.393   3.664
48972W        W 8475  35.893  35.406  14.293
48973W        W 8476  20.637   3.852   2.363
48974W        W 8477   5.882  21.093   1.377
48975W        W 8478   9.347   7.684   3.236
48976W        W 8479  12.750   9.804   2.245
48977W        W 8480  27.090  37.906  12.002
48978W        W 8481  11.658  16.151   1.899
48979W        W 8482  35.508  20.099  13.944
48980W        W 8483  13.643  40.429   1.307
48981W        W 8484  33.503   1.287  14.960
48982W        W 8485  17.765  28.559  14.881
48983W        W 8486  21.042  20.090  14.327
48984W        W 8487  32.514  17.671  10.888
48985W        W 8488  31.496   1.296  11.471
48986W        W 8489  37.065  14.752   0.396
48987W        W 8490  30.572  25.554   5.741
48988W        W 8491  42.892  43.976   0.356
48989W        W 8492  32.636  44.427  12.080
48990W        W 8493  30.948  11.217   2.247
48991W        W 8494  23.725  34.936   0.759
48992W        W 8495  34.441  12.362  13.361
48993W        W 8496  41.827  20.566   1.696
48994W        W 8497  25.205  32.620  14.871
48995W        W 8498  22.103  25.526  14.375
48996W        W 8499   6.313  40.831   2.364
48997W        W 8500  23.099  33.017   3.757
48998W        W 8501  27.491   6.196  12.054
48999W        W 8502  12.246  35.560   4.169
49000W        W 8503  11.798  32.418   2.394
49001W        W 8504  28.178  15.802  12.838
49002W        W 8505  42.488  31.634   3.813
49003W        W 8506  18.643  14.102  11.962
49004W        W 8507  39.480  17.661  11.976
49005W        W 8508  11.783  44.756   3.846
49006W        W 8509  12.622   1.814  12.917
49007W        W 8510  33.467   9.768  12.344
49008W        W 8511   9.187   9.781  12.094
49009W        W 8512  30.148   7.867   4.640
49010W        W 8513  28.137   6.382   1.248
49011W        W 8514  23.237  27.686  12.840
49012W        W 8515  19.147  43.432  14.359
49013W        W 8516   5.877  44.890   2.811
49014W        W 8517  32.985   7.190   2.898
49015W        W 8518   4.869  29.482   0.295
49016W        W 8519   8.259  15.270  14.821
49017W        W 8520   1.441   9.289  12.066
49018W        W 8521  20.733  39.861   1.905
49019W        W 8522  27.187  26.140   1.431
49020W        W 8523  31.644  44.988  14.438
49021W        W 8524   7.703  33.923   1.236
49022W        W 8525  26.146  44.318   1.385
49023W        W 8526  10.251   7.688  12.906
49024W        W 8527  30.633  30.418  10.452
49025W        W 8528  30.655  33.947   4.608
49026W        W 8529  20.706  41.954  14.834
49027W        W 8530  15.668  29.425  11.477
49028W        W 8531  18.762  33.048  12.456
49029W        W 8532  28.458  23.735   0.388
49030W        W 8533  23.594  37.338  10.929
49031W        W 8534   9.861   9.191  10.421
49032W        W 8535  19.040  33.106   2.799
49033W        W 8536   1.412  14.679  13.340
49034W        W 8537   6.890  30.592  12.377
49035W        W 8538   7.878   7.247   0.251
49036W        W 8539  43.312   4.288   1.929
49037W        W 8540  44.871  15.117  14.389
49038W        W 8541  18.255   9.786   3.272
49039W        W 8542  32.588  33.091   0.854
49040W        W 8543   8.338  40.890  12.853
49041W        W 8544  24.072  21.551   1.288
49042W        W 8545  10.833  32.899  13.030
49043W        W 8546  18.237  32.490  11.078
49044W        W 8547   0.972  23.191   0.926
49045W        W 8548  14.113  24.665   2.202
49046W        W 8549  15.303  20.266   2.282
49047W        W 8550   3.829  34.955  13.986
49048W        W 8551  24.548  19.728   3.781
49049W        W 8552  11.260  10.853  11.031
49050W        W 8553  30.035  23.229  13.837
49051W        W 8554  12.798  16.792  12.856
49052W        W 8555  41.440  33.456  14.877
49053W        W 8556  10.300  19.730   3.724
49054W        W 8557  19.225  43.360  13.537
49055W        W 8558   2.731  40.798  14.888
49056W        W 8559  24.510  34.506  11.552
49057W        W 8560   4.220  24.034   0.873
49058W        W 8561  22.011  14.645  10.623
49059W        W 8562  43.802  40.412   1.736
49060W        W 8563  33.511  20.699   0.874
49061W        W 8564  31.408   0.282   4.827
49062W        W 8565  36.892  28.955  14.349
49063W        W 8566  39.427  40.367   1.875
49064W        W 8567  14.094   2.839  11.380
49065W        W 8568  41.852  29.610  12.570
49066W        W 8569   2.243   1.950   1.217
49067W        W 8570  15.813  34.090   9.544
49068W        W 8571  34.925  29.949  10.546
49069W        W 8572  38.350  24.118   3.317
49070W        W 8573  33.939   0.747  13.453
49071W        W 8574  30.585  36.894   2.323
49072W        W 8575   7.698   7.352   1.822
49073W        W 8576  23.997  35.560  12.900
49074W        W 8577  43.919   6.393   3.636
49075W        W 8578  31.609  34.598  11.039
49076W        W 8579  42.896  20.201   2.864
49077W        W 8580  38.998  36.410   4.312
49078W        W 8581  32.090  31.442   1.276
49079W        W 8582  39.316   4.251  10.930
49080W        W 8583  41.392   0.305   0.438
49081W        W 8584  25.106   8.244  12.025
49082W        W 8585   0.441  31.098  14.010
49083W        W 8586   2.728  39.909   3.172
49084W        W 8587  35.899  37.565  10.420
49085W        W 8588  42.782  19.274  12.477
49086W        W 8589  25.091  34.973   4.179
49087W        W 8590  27.062  17.600   4.783
49088W        W 8591  37.857  18.254  12.055
49089W        W 8592  11.838  43.388   3.368
49090W        W 8593  40.987   9.341   3.247
49091W        W 8594  30.545  16.251   0.949
49092W        W 8595  37.939  15.626  14.920
49093W        W 8596  36.467  43.459   0.934
49094W        W 8597  21.139  27.567  11.456
49095W        W 8598  34.901   9.648   3.224
49096W        W 8599  24.016   4.373  10.945
49097W        W 8600  41.795  22.232   1.279
49098W        W 8601  29.059  25.505  11.451
49099W        W 8602  12.261  33.118  12.944
49100W        W 8603  32.409  26.541  11.551
49101W        W 8604   9.157  29.064   3.205
49102W        W 8605   4.292  11.302   0.425
49103W        W 8606   9.338  29.525   0.934
49104W        W 8607  22.729  36.422   4.685
49105W        W 8608  30.635   5.882   1.882
49106W        W 8609  30.497  29.957   2.224
49107W        W 8610  34.461  34.958  13.857
49108W        W 8611   4.225  43.853   0.823
49109W        W 8612  38.031  35.003   1.807
49110W        W 8613  12.783  24.096   1.373
49111W        W 8614   3.406  15.629  13.893
49112W        W 8615  33.889   2.898  11.116
49113W        W 8616  33.462  41.363   1.346
49114W        W 8617   2.846   9.219   2.263
49115W        W 8618  18.200  10.844  12.494
49116W        W 8619  19.284  32.950  14.897
49117W        W 8620  39.454  28.605  14.379
49118W        W 8621  33.893  40.967  11.546
49119W        W 8622  41.428  27.611  14.970
49120W        W 8623  13.775  39.339  14.955
49121W        W 8624  25.018  42.514  13.386
49122W        W 8625  17.205  43.354  10.018
49123W        W 8626  36.380  10.859   4.676
49124W        W 8627  12.780  22.234   0.847
49125W        W 8628  44.281   4.727   5.173
49126W        W 8629  17.269   8.344   1.406
49127W        W 8630   1.851  36.581  13.415
49128W        W 8631  40.532  43.331  14.436
49129W        W 8632  41.299  22.532   4.632
49130W        W 8633   6.393  41.426   5.190
49131W        W 8634   8.242  11.205   4.334
49132W        W 8635  30.578  22.545   5.121
49133W        W 8636   7.367  12.278   3.695
49134W        W 8637  35.435  22.024  12.396
49135W        W 8638  13.765  34.393  12.858
49136W        W 8639  30.656  42.510   4.339
49137W        W 8640  24.657   7.693   1.422
49138W        W 8641  23.496  19.549   3.297
49139W        W 8642   4.866  27.177  11.491
49140W        W 8643   9.294  36.509  10.476
49141W        W 8644  28.680  42.003   0.411
49142W        W 8645  15.742  35.099  11.978
49143W        W 8646  12.749  10.659   3.166
49144W        W 8647  10.358   3.850   1.773
49145W        W 8648   0.824  33.457  14.853
49146W        W 8649  14.205  29.135  14.894
49147W        W 8650  36.563  37.991   1.756
49148W        W 8651  41.988  32.422  13.863
49149W        W 8652   3.814  29.976   4.299
49150W        W 8653  44.343  20.173  12.478
49151W        W 8654  15.308  21.203  10.144
49152W        W 8655  26.470   9.205  12.835
49153W        W 8656   5.211   7.911  12.381
49154W        W 8657  33.568  41.873  11.858
49155W        W 8658   2.939  30.515  11.084
49156W        W 8659  20.033  18.750  10.427
49157W        W 8660   0.932   1.910  13.989
49158W        W 8661  28.585  27.188   0.850
49159W        W 8662  18.603  31.105  12.909
49160W        W 8663  13.727  16.626  14.855
49161W        W 8664  39.544  14.269  12.477
49162W        W 8665  35.001  34.965   3.234
49163W        W 8666   6.911  33.993   4.279
49164W        W 8667  30.615  43.418   1.910
49165W        W 8668  20.251   3.890  14.473
49166W        W 8669  22.164  18.063  13.062
49167W        W 8670  35.386  40.307   4.291
49168W        W 8671   4.894  29.510  14.998
49169W        W 8672  33.894  34.008  10.920
49170W        W 8673  30.622  40.357  13.416
49171W        W 8674  44.279  41.034  11.541
49172W        W 8675  22.212  20.174  14.362
49173W        W 8676  28.467  41.353  11.920
49174W        W 8677  10.639  21.700  11.495
49175W        W 8678  36.951  14.706  13.047
49176W        W 8679  31.414   7.903   0.755
49177W        W 8680  36.495  24.702  13.945
49178W        W 8681   2.728   9.216   4.353
49179W        W 8682  28.443  29.020  13.028
49180W        W 8683  20.564  32.093  13.859
49181W        W 8684  19.246   6.726  10.610
49182W        W 8685  25.101   6.901  11.925
49183W        W 8686  34.538  12.634  12.577
49184W        W 8687   0.419  26.060  12.413
49185W        W 8688  20.681  25.593   0.951
49186W        W 8689   7.347  38.845   0.851
49187W        W 8690  35.584   5.814  13.021
49188W        W 8691  25.521  44.761   1.862
49189W        W 8692  43.981   0.954  11.494
49190W        W 8693  32.093  25.630   4.737
49191W        W 8694  12.134  14.598  12.951
49192W        W 8695  24.173  11.791  13.527
49193W        W 8696  14.215  15.173  11.966
49194W        W 8697  19.065   3.453  14.791
49195W        W 8698  32.009  18.625  14.762
49196W        W 8699  14.733  34.930   3.159
49197W        W 8700  18.248  35.388  14.858
49198W        W 8701  33.115   0.299  14.405
49199W        W 8702  35.407  40.465  14.384
49200W        W 8703  26.558  25.520   1.422
49201W        W 8704  26.511  41.473  12.051
49202W        W 8705  35.891  41.350  14.902
49203W        W 8706  30.074  24.998   3.377
49204W        W 8707   9.818  42.373   1.861
49205W        W 8708  21.589  26.569   3.701
49206W        W 8709   6.257   5.199  13.418
49207W        W 8710  24.119  34.882   2.880
49208W        W 8711  17.618  39.380  11.091
49209W        W 8712  43.941  13.809   1.329
49210W        W 8713  38.385   1.464  11.597
49211W        W 8714  17.089  36.035   0.376
49212W        W 8715  25.132  44.324   2.687
49213W        W 8716   9.851   8.693   2.295
49214W        W 8717  28.081  12.735   3.168
49215W        W 8718  33.486  30.583   3.842
49216W        W 8719  42.813  41.019   0.462
49217W        W 8720  11.371  18.768   2.363
49218W        W 8721   0.863  25.964  12.037
49219W        W 8722  18.605  28.482  12.076
49220W        W 8723  31.933   9.345  12.574
49221W        W 8724  35.894   1.901  10.484
49222W        W 8725  14.631  31.099  14.997
49223W        W 8726  10.371  38.823   2.816
49224W        W 8727   8.223  11.249   1.843
49225W        W 8728  41.336   6.338   0.451
49226W        W 8729  28.029  11.662  12.061
49227W        W 8730  18.144  17.778  13.010
49228W        W 8731  24.028  28.062  12.512
49229W        W 8732  40.995  24.102  13.453
49230W        W 8733  32.425  20.755  14.426
49231W        W 8734  20.572  32.075   0.935
49232W        W 8735   4.784  26.130   4.624
49233W        W 8736   0.920  41.336   4.283
49234W        W 8737  16.203  11.867   9.955
49235W        W 8738   2.381  40.919   1.823
49236W        W 8739   3.796  43.972  11.976
49237W        W 8740  15.789  17.152  12.871
49238W        W 8741  14.642  34.053  11.512
49239W        W 8742  10.237   6.890   3.365
49240W        W 8743  35.872  42.853  13.315
49241W        W 8744  19.104  18.249  13.369
49242W        W 8745  16.208  18.640  10.974
49243W        W 8746  13.683  10.344   4.700
49244W        W 8747  21.083   7.784   4.838
49245W        W 8748  33.086  31.014   1.281
49246W        W 8749  22.077  37.498   4.616
49247W        W 8750  36.009  32.435  10.468
49248W        W 8751  37.400   5.267  13.358
49249W        W 8752  42.850   7.735  14.347
49250W        W 8753  12.803  33.113  14.490
49251W        W 8754  19.574   7.736  12.046
49252W        W 8755  41.855   8.173   1.345
49253W        W 8756  37.023   4.818  14.470
49254W        W 8757   0.864   0.751  12.520
49255W        W 8758  16.692  31.079   4.248
49256W        W 8759   2.322  38.992   0.747
49257W        W 8760  12.126  24.195  11.888
49258W        W 8761  42.906  39.049  13.415
49259W        W 8762  23.033   7.406   4.116
49260W        W 8763  11.829  22.728  13.392
49261W        W 8764  10.664  27.110  14.879
49262W        W 8765  11.809  20.612  12.983
49263W        W 8766  42.901   9.244  13.932
49264W        W 8767  44.495   6.225  13.942
49265W        W 8768  23.723   8.851  12.917
49266W        W 8769  29.467  13.785   3.331
49267W        W 8770  38.827   4.287   0.324
49268W        W 8771  24.153  30.603  14.848
49269W        W 8772  21.630  26.008   2.348
49270W        W 8773   2.760   6.833  10.404
49271W        W 8774  42.420  43.843   0.363
49272W        W 8775   2.253  12.207  11.378
49273W        W 8776  21.095  26.072   0.793
49274W        W 8777  36.443   3.838  11.123
49275W        W 8778   6.424  32.982  13.813
49276W        W 8779   4.296  36.567  12.569
49277W        W 8780  11.239  39.001   0.925
49278W        W 8781  26.971  25.995   4.668
49279W        W 8782  40.969  16.112  12.936
49280W        W 8783  44.838   9.824  14.426
49281W        W 8784  25.474  23.133  14.959
49282W        W 8785  39.468  24.996   3.764
49283W        W 8786  27.110   6.302   3.151
49284W        W 8787  31.535   0.755  12.079
49285W        W 8788  33.534  17.576   1.742
49286W        W 8789  22.076  37.412  10.641
49287W        W 8790   4.449  16.665   4.119
49288W        W 8791  43.431  24.519  11.049
49289W        W 8792  26.539  33.471  11.081
49290W        W 8793  44.982   2.282  13.871
49291W        W 8794  42.448   2.455  13.818
49292W        W 8795  26.179   2.443   0.882
49293W        W 8796  13.660  39.055   2.203
49294W        W 8797  42.978  34.044  12.876
49295W        W 8798   3.754  11.813   2.682
49296W        W 8799  22.088   5.705   2.245
49297W        W 8800  17.232   1.823  10.644
49298W        W 8801  26.603  21.631   0.761
49299W        W 8802  40.524   5.257  13.032
49300W        W 8803  39.818  43.362   4.277
49301W        W 8804  27.660  12.762  10.014
49302W        W 8805  10.223  22.583  11.107
49303W        W 8806  22.635  40.968   4.686
49304W        W 8807  30.559  11.795   5.578
49305W        W 8808  19.053  26.045   2.755
49306W        W 8809  20.269  38.998  12.932
49307W        W 8810  38.843  26.207   1.417
49308W        W 8811  43.286  26.047  14.000
49309W        W 8812  11.785   0.843  13.861
49310W        W 8813  42.936   4.220  14.792
49311W        W 8814  15.756  17.215   2.729
49312W        W 8815  41.436  26.681   4.165
49313W        W 8816  32.103  42.916   2.292
49314W        W 8817  25.665  11.659   1.395
49315W        W 8818   9.740  25.178   1.353
49316W        W 8819  19.672  43.957   0.829
49317W        W 8820  33.577  18.069   4.233
49318W        W 8821  23.626  19.646   1.385
49319W        W 8822  30.040   2.337  13.505
49320W        W 8823  15.223  21.113  11.490
49321W        W 8824  22.154   3.917   2.757
49322W        W 8825  25.166  30.576   2.307
49323W        W 8826  17.603   4.377  12.461
49324W        W 8827   2.773  43.377   1.738
49325W        W 8828   9.356  36.482  14.498
49326W        W 8829  17.225  34.097   2.394
49327W        W 8830  29.930  24.104   5.726
49328W        W 8831  41.509  23.519   0.929
49329W        W 8832   9.824  35.019  11.497
49330W        W 8833  36.523  22.581   2.278
49331W        W 8834  11.647  22.555   4.307
49332W        W 8835  23.006  23.542  12.061
49333W        W 8836  14.831  36.538   2.782
49334W        W 8837  29.634  33.959   1.791
49335W        W 8838  24.086  33.535  10.456
49336W        W 8839   6.792   9.677  11.534
49337W        W 8840  25.019  29.112   4.286
49338W        W 8841  22.208  22.188  14.312
49339W        W 8842   4.884   8.356  11.515
49340W        W 8843  22.244  25.218  13.949
49341W        W 8844   7.708  39.965   4.645
49342W        W 8845   3.444  19.691  14.995
49343W        W 8846   6.793   7.393  11.028
49344W        W 8847   2.941  25.153  12.956
49345W        W 8848  42.289  41.494   2.189
49346W        W 8849  28.944   2.745  13.352
49347W        W 8850  41.517   1.786  13.490
49348W        W 8851  24.696   3.316   1.928
49349W        W 8852   5.704  41.866   4.354
49350W        W 8853  30.974  29.051  12.048
49351W        W 8854   3.733  33.538   1.763
49352W        W 8855  19.257  42.432  12.382
49353W        W 8856  39.546   9.339   0.323
49354W        W 8857  17.164  25.711  13.034
49355W        W 8858   8.847  38.004  12.831
49356W        W 8859  31.521  18.136  12.369
49357W        W 8860  11.281   5.714  10.496
49358W        W 8861  34.491  39.934  11.431
49359W        W 8862   5.210  13.262  11.113
49360W        W 8863  21.109   7.290  13.848
49361W        W 8864  42.919  21.657  12.007
49362W        W 8865  36.014   5.259  13.924
49363W        W 8866  32.911  10.233  12.963
49364W        W 8867   6.692   2.388  13.961
49365W        W 8868   6.856  30.091   2.891
49366W        W 8869   2.429  12.634  14.947
49367W        W 8870  43.826  16.161   3.345
49368W        W 8871  35.545  35.858   1.818
49369W        W 8872  12.309  40.420  10.918
49370W        W 8873  23.608  30.915  11.073
49371W        W 8874   4.902   3.759  14.936
49372W        W 8875  14.102  12.136   0.792
49373W        W 8876  40.470  22.701  11.579
49374W        W 8877  25.557  32.620  12.928
49375W        W 8878  32.507  41.966  10.966
49376W        W 8879  34.873  40.943  14.370
49377W        W 8880  25.040  35.522   2.308
49378W        W 8881  27.134  13.821  14.810
49379W        W 8882  11.839  14.835   3.220
49380W        W 8883  26.082  28.663  12.478
49381W        W 8884   1.828  11.787  13.307
49382W        W 8885  33.474   2.326  12.029
49383W        W 8886  21.165  20.246  10.605
49384W        W 8887  22.184   3.446  14.474
49385W        W 8888  12.632  26.143  12.930
49386W        W 8889  26.083  32.627  11.081
49387W        W 8890  15.769   8.260   0.780
49388W        W 8891  24.597  37.488   3.317
49389W        W 8892  23.128  20.579  13.831
49390W        W 8893   9.283  24.638  13.018
49391W        W 8894  36.914  25.558  11.022
49392W        W 8895  40.012  15.274   0.770
49393W        W 8896  43.390  42.433   2.730
49394W        W 8897  43.878   3.778  11.525
49395W        W 8898  29.949  24.513  10.611
49396W        W 8899  33.549   6.827  11.043
49397W        W 8900  18.544  23.043  11.016
49398W        W 8901  34.520  16.729  14.970
49399W        W 8902  17.799  35.022   4.236
49400W        W 8903  23.526  18.752   0.901
49401W        W 8904  23.166  20.086   4.245
49402W        W 8905   1.481  37.434   3.843
49403W        W 8906  19.213   9.318   0.781
49404W        W 8907  40.922  28.136  13.386
49405W        W 8908  33.974  36.509   3.364
49406W        W 8909   0.985  23.658  12.939
49407W        W 8910   0.857  21.242  12.470
49408W        W 8911  24.677  38.950   0.932
49409W        W 8912  20.082  28.975   3.825
49410W        W 8913  11.718  31.896  14.397
49411W        W 8914  35.601  14.629   4.257
49412W        W 8915  14.669  38.487  10.559
49413W        W 8916  29.061  13.116   2.348
49414W        W 8917  15.603   7.376  14.030
49415W        W 8918  10.305  28.165   5.120
49416W        W 8919  35.897  20.174  12.468
49417W        W 8920   7.685   3.928   2.271
49418W        W 8921   6.401   0.424  14.992
49419W        W 8922   6.794  33.551   3.235
49420W        W 8923  17.778  23.696  10.451
49421W        W 8924  11.318   3.818   4.350
49422W        W 8925   4.213  34.078   4.329
49423W        W 8926  41.340  17.081   1.741
49424W        W 8927  30.415  27.605  12.371
49425W        W 8928  10.828  26.141  13.951
49426W        W 8929  39.975  30.002  12.554
49427W        W 8930  26.977  33.904  12.890
49428W        W 8931  32.058  40.974   1.730
49429W        W 8932  35.543  12.133  12.875
49430W        W 8933   2.934  24.169  14.335
49431W        W 8934  33.465  14.232   0.752
49432W        W 8935   3.891  10.767  10.583
49433W        W 8936  27.489  17.617   3.210
49434W        W 8937  16.679  39.493   3.838
49435W        W 8938  25.598   8.707   1.260
49436W        W 8939  21.634  44.437  14.953
49437W        W 8940  23.166   8.247   3.152
49438W        W 8941  36.480   8.290   2.402
49439W        W 8942  39.849   1.340   4.347
49440W        W 8943  37.343  32.988   2.233
49441W        W 8944   5.900  16.225   2.201
49442W        W 8945   5.719  21.098   2.194
49443W        W 8946  21.625  12.269   3.841
49444W        W 8947  25.529  30.994  12.087
49445W        W 8948  35.383  14.731  13.376
49446W        W 8949  12.214  38.479  12.899
49447W        W 8950  27.134  31.001  13.861
49448W        W 8951  18.550  42.437   3.668
49449W        W 8952  17.569  25.984   3.823
49450W        W 8953  38.836  42.393   2.750
49451W        W 8954  27.684  25.041   2.821
49452W        W 8955  38.500  11.815  10.897
49453W        W 8956  36.425  22.641   9.927
49454W        W 8957  21.524  13.290   4.834
49455W        W 8958   5.297  27.658  13.475
49456W        W 8959  36.392  18.551  14.930
49457W        W 8960   0.276  42.876  14.327
49458W        W 8961  19.629  29.553   3.288
49459W        W 8962  14.238  19.573   3.789
49460W        W 8963  25.084  43.378   2.291
49461W        W 8964   2.943  20.763   5.171
49462W        W 8965   4.222   0.417  13.521
49463W        W 8966   7.332  43.856   1.886
49464W        W 8967  30.072   9.879  10.439
49465W        W 8968  16.780   9.672   2.304
49466W        W 8969  16.721  16.128  10.540
49467W        W 8970   0.939  10.296  13.944
49468W        W 8971  34.450  33.019  11.094
49469W        W 8972  16.730  40.400   4.171
49470W        W 8973  31.017   9.831  10.509
49471W        W 8974   1.834  44.764  14.505
49472W        W 8975  16.218  16.696  12.032
49473W        W 8976  43.378  27.068  13.545
49474W        W 8977  15.246  42.996   1.784
49475W        W 8978   6.870  29.116   1.301
49476W        W 8979  14.736   5.888  13.509
49477W        W 8980  42.918  36.902   2.197
49478W        W 8981  28.101  12.806   5.155
49479W        W 8982  38.369  31.062   3.351
49480W        W 8983  10.270   8.768   0.879
49481W        W 8984  31.941  11.353   0.391
49482W        W 8985  20.094   3.877   1.784
49483W        W 8986  17.117  35.460   1.722
49484W        W 8987  24.527  14.828   4.124
49485W        W 8988  34.477  33.423   2.702
49486W        W 8989  10.154  33.083   2.363
49487W        W 8990  38.037  38.057  12.095
49488W        W 8991  19.274  17.112  12.986
49489W        W 8992  15.310  28.514  14.815
49490W        W 8993  30.156   1.456  14.967
49491W        W 8994  34.009   6.325  14.847
49492W        W 8995   2.371  32.020   0.390
49493W        W 8996  24.658  32.436  12.889
49494W        W 8997   8.374  38.462   1.244
49495W        W 8998  36.469  42.856  14.302
49496W        W 8999  32.991  39.327   2.316
49497W        W 9000  37.360  23.674   2.784
49498W        W 9001  29.517   8.210   0.760
49499W        W 9002   7.737  37.982  13.866
49500W        W 9003   6.824  19.705   0.402
49501W        W 9004  31.014   5.234   1.759
49502W        W 9005  38.346  17.061   1.409
49503W        W 9006  43.311  31.470   2.834
49504W        W 9007  11.157  29.063   2.329
49505W        W 9008   0.797   0.287  14.934
49506W        W 9009  33.909  17.091  11.957
49507W        W 9010  22.157  36.056   4.137
49508W        W 9011  38.891  18.562   4.179
49509W        W 9012  30.496   0.315   3.835
49510W        W 9013   3.434  22.243   3.663
49511W        W 9014  40.376   6.228  14.488
49512W        W 9015  38.911  33.457  11.424
49513W        W 9016  25.010   4.328   3.858
49514W        W 9017  17.239   0.334   0.795
49515W        W 9018  43.978  19.274   2.216
49516W        W 9019  44.811  11.168  13.430
49517W        W 9020  30.026  38.469   3.277
49518W        W 9021  30.542  22.543  11.008
49519W        W 9022  19.052  22.687  11.582
49520W        W 9023   4.297   0.415  12.436
49521W        W 9024  27.076  11.179  12.408
49522W        W 9025  39.865  35.898   1.786
49523W        W 9026  24.209  12.266   0.247
49524W        W 9027   8.854  18.279   1.403
49525W        W 9028  17.776  41.993  11.381
49526W        W 9029  39.976  41.485  10.545
49527W        W 9030  26.543  39.952   2.802
49528W        W 9031  39.948  21.162  14.329
49529W        W 9032  44.827  15.645  12.891
49530W        W 9033   7.869   1.844  13.324
49531W        W 9034  13.655  43.788   1.289
49532W        W 9035  23.661  17.639  13.886
49533W        W 9036   3.772   3.930  12.404
49534W        W 9037  29.983  17.274  12.982
49535W        W 9038  43.437  40.496   0.275
49536W        W 9039  17.290  32.523  14.446
49537W        W 9040  25.490  44.001   0.878
49538W        W 9041  28.453  37.508  13.063
49539W        W 9042  20.717  19.182  14.476
49540W        W 9043   0.953   3.438  11.855
49541W        W 9044  36.474  42.840   2.780
49542W        W 9045  18.618  17.656  14.816
49543W        W 9046  43.488  37.574   3.840
49544W        W 9047  20.544  39.891  11.581
49545W        W 9048  30.139  41.984   2.248
49546W        W 9049   0.841  19.254  13.362
49547W        W 9050  20.639   1.740   0.361
49548W        W 9051   3.850   3.296   0.891
49549W        W 9052  27.140  18.219   1.747
49550W        W 9053  32.142  31.132   2.817
49551W        W 9054  31.459   6.826   0.339
49552W        W 9055  15.706  41.461  14.897
49553W        W 9056   8.722   2.377  14.316
49554W        W 9057  23.003  12.639   3.720
49555W        W 9058   4.336  21.043  12.552
49556W        W 9059  29.088  38.848   4.333
49557W        W 9060  32.096  32.518  13.998
49558W        W 9061  28.681  38.914   0.955
49559W        W 9062  31.077  10.160  14.897
49560W        W 9063   5.350  34.500  11.395
49561W        W 9064  11.299  13.200   2.689
49562W        W 9065  24.482  24.490   0.883
49563W        W 9066  35.028  20.131  14.974
49564W        W 9067  35.058   7.364   0.741
49565W        W 9068  20.730   3.424   9.645
49566W        W 9069  19.147  22.672  11.902
49567W        W 9070  10.156  22.659   0.423
49568W        W 9071  21.580  37.431  12.056
49569W        W 9072  12.285  18.631  13.341
49570W        W 9073  24.542   8.901   1.834
49571W        W 9074  42.826  18.192  14.881
49572W        W 9075  28.157  19.625  14.420
49573W        W 9076  29.941  17.129  14.026
49574W        W 9077  37.929   2.267   4.276
49575W        W 9078  39.539  24.210  14.838
49576W        W 9079   4.344  19.603   2.197
49577W        W 9080   1.278  39.056  12.919
49578W        W 9081   0.936  22.636   2.767
49579W        W 9082  27.569   3.289  12.379
49580W        W 9083  22.022  36.926   0.452
49581W        W 9084  25.661   0.775   1.375
49582W        W 9085  17.294   9.359   4.343
49583W        W 9086  23.009  13.318   1.315
49584W        W 9087   3.722  13.219   1.218
49585W        W 9088  30.652  14.794  14.335
49586W        W 9089  20.221  30.930   4.833
49587W        W 9090  43.825  14.780   2.376
49588W        W 9091  19.591  36.927   1.396
49589W        W 9092  17.776  10.690   1.304
49590W        W 9093  29.011  25.564   0.457
49591W        W 9094  29.574  11.225  11.607
49592W        W 9095  20.205  31.939   2.833
49593W        W 9096  38.986   4.798  12.080
49594W        W 9097  29.937  42.281   1.244
49595W        W 9098   2.942  24.215  10.992
49596W        W 9099  44.383   5.353  10.408
49597W        W 9100  22.660  15.791   4.185
49598W        W 9101  43.495  36.347  12.441
49599W        W 9102  42.342  34.955  14.436
49600W        W 9103  13.162  14.133   0.743
49601W        W 9104  29.051  28.009  14.892
49602W        W 9105   9.288   3.742   2.787
49603W        W 9106  21.023  12.698   1.399
49604W        W 9107  33.424   3.235   4.771
49605W        W 9108  27.657  12.127   4.209
49606W        W 9109  14.129  44.412   2.340
49607W        W 9110  12.155  23.186   1.414
49608W        W 9111  42.784  43.861   2.227
49609W        W 9112  33.563   5.372  11.067
49610W        W 9113   8.789  21.170  12.472
49611W        W 9114  19.260  39.353   3.744
49612W        W 9115  18.244  38.416  12.906
49613W        W 9116  34.422  31.991  14.515
49614W        W 9117  33.510   1.890   1.284
49615W        W 9118  27.666  23.615  13.864
49616W        W 9119  22.232  31.998   0.290
49617W        W 9120  42.956  37.938   0.848
49618W        W 9121  13.163  20.151   3.867
49619W        W 9122  24.097  42.879   1.319
49620W        W 9123   2.896  31.944   0.774
49621W        W 9124  38.863  15.231   3.656
49622W        W 9125  44.986   9.153   3.822
49623W        W 9126  31.495  31.096   0.777
49624W        W 9127  15.194   7.877  11.127
49625W        W 9128  11.698  22.181  13.372
49626W        W 9129  12.717  24.530  12.894
49627W        W 9130  28.079   6.803   2.815
49628W        W 9131  13.270  29.962   3.850
49629W        W 9132  17.073   1.322  10.072
49630W        W 9133  21.161  27.163  14.403
49631W        W 9134  39.490  12.738  14.020
49632W        W 9135  10.669  36.036   3.368
49633W        W 9136   4.813   6.186   4.645
49634W        W 9137   4.865   1.391  14.502
49635W        W 9138   7.388  41.477   0.790
49636W        W 9139  14.152  22.500   5.101
49637W        W 9140   6.867  17.225   2.235
49638W        W 9141  15.197  34.487   4.352
49639W        W 9142  41.409  16.097  14.383
49640W        W 9143  29.525   9.193  12.951
49641W        W 9144  20.739   5.877  13.485
49642W        W 9145   7.796   0.443   3.707
49643W        W 9146  30.452  11.238   4.790
49644W        W 9147  19.227  34.950  13.916
49645W        W 9148   0.384  24.523   1.832
49646W        W 9149  43.990  22.210  12.972
49647W        W 9150  34.579  35.395   4.674
49648W        W 9151   6.415  37.465  14.336
49649W        W 9152  12.626  31.941   2.362
49650W        W 9153   6.898  17.292   0.838
49651W        W 9154  41.989  29.174  14.796
49652W        W 9155  44.778  11.170   4.226
49653W        W 9156  36.566  13.669  12.353
49654W        W 9157   5.832  26.964   1.718
49655W        W 9158  14.114  26.632  12.425
49656W        W 9159   4.399  12.228  13.546
49657W        W 9160  35.533  21.512   0.965
49658W        W 9161   2.461   7.309   4.752
49659W        W 9162   7.411  18.140  14.943
49660W        W 9163  43.375  24.166   2.666
49661W        W 9164  29.150   5.908   4.232
49662W        W 9165  14.820  14.288  11.040
49663W        W 9166  33.031  26.990  11.920
49664W        W 9167  25.977   9.306  11.527
49665W        W 9168  39.964   3.423   2.234
49666W        W 9169  22.692  29.960   0.771
49667W        W 9170  26.966   4.742   9.933
49668W        W 9171  41.301   0.308  13.388
49669W        W 9172   3.350  24.029  12.859
49670W        W 9173  39.808  12.274   3.180
49671W        W 9174  36.400  12.613  14.405
49672W        W 9175  11.330  18.255   3.773
49673W        W 9176  12.815  21.177  13.365
49674W        W 9177  34.117  32.983  12.993
49675W        W 9178  35.603  27.113   0.357
49676W        W 9179  29.025  24.585  14.426
49677W        W 9180  36.359  35.564  10.457
49678W        W 9181  14.661   0.941  11.523
49679W        W 9182  23.229  14.189  11.958
49680W        W 9183  16.688  19.568   2.399
49681W        W 9184  36.440   5.212   3.309
49682W        W 9185  19.545  23.158   0.847
49683W        W 9186   7.248  40.845  14.359
49684W        W 9187  14.600  12.362  12.531
49685W        W 9188  37.956   0.965  10.145
49686W        W 9189  15.626  26.566   3.311
49687W        W 9190  18.687  17.176   2.286
49688W        W 9191   5.334   8.220   3.314
49689W        W 9192  16.707   7.378   2.394
49690W        W 9193   3.743  27.196  14.819
49691W        W 9194  34.379  14.629  14.510
49692W        W 9195  41.935  19.565  13.326
49693W        W 9196  19.649  26.629  12.869
49694W        W 9197  20.257  42.488   0.863
49695W        W 9198  27.147   6.902   3.344
49696W        W 9199  42.805  27.052  12.017
49697W        W 9200  23.522  27.105   2.325
49698W        W 9201   5.326   1.952   3.321
49699W        W 9202  28.542  42.357  14.421
49700W        W 9203  38.973  25.571  14.312
49701W        W 9204  41.984   6.908  13.871
49702W        W 9205  41.944  17.612   3.663
49703W        W 9206  30.584  29.618   3.223
49704W        W 9207   2.247  30.591  10.994
49705W        W 9208  16.624  24.042   2.768
49706W        W 9209  37.424  31.401  14.418
49707W        W 9210  27.463  43.958   2.351
49708W        W 9211  25.575  41.987   1.243
49709W        W 9212  18.652  17.083  11.596
49710W        W 9213  33.886  40.945   0.956
49711W        W 9214  27.109  30.655   5.248
49712W        W 9215   4.791  11.806  14.506
49713W        W 9216   0.818   0.472  10.959
49714W        W 9217  23.091  14.213   3.228
49715W        W 9218   2.932  18.757  14.833
49716W        W 9219   5.294  17.229  12.961
49717W        W 9220  41.921  36.482   1.857
49718W        W 9221  15.798  30.429  13.965
49719W        W 9222  22.118  21.063   0.757
49720W        W 9223   9.287  30.427   3.320
49721W        W 9224  27.003  42.959   0.889
49722W        W 9225  10.667   4.315   4.125
49723W        W 9226  31.108  12.174   5.310
49724W        W 9227   3.748  35.382  14.807
49725W        W 9228  39.441   3.394   1.832
49726W        W 9229   3.386  27.099   0.448
49727W        W 9230  43.460   1.413   1.414
49728W        W 9231   3.334  41.852  11.556
49729W        W 9232   8.394  26.994  12.499
49730W        W 9233  28.515  22.562   2.340
49731W        W 9234   3.263   4.827  10.432
49732W        W 9235   3.748   6.356  14.870
49733W        W 9236  42.982  20.561   3.278
49734W        W 9237  10.721  31.896  11.983
49735W        W 9238   5.193  19.130   3.333
49736W        W 9239  42.516   9.265  14.898
49737W        W 9240  32.134  15.103  13.467
49738W        W 9241  28.507  35.423  12.491
49739W        W 9242  10.248  38.389  12.829
49740W        W 9243  32.904  18.758  14.488
49741W        W 9244  22.125   6.193   4.193
49742W        W 9245  33.882  23.139  14.805
49743W        W 9246  18.197  10.743  12.922
49744W        W 9247   0.433  21.696   4.624
49745W        W 9248  18.732  16.734  11.491
49746W        W 9249  11.319   0.862   2.357
49747W        W 9250  18.174  32.557  11.511
49748W        W 9251  12.751  26.480   2.888
49749W        W 9252  44.405  29.075  14.368
49750W        W 9253   9.261  24.532   2.367
49751W        W 9254   1.305   2.778  12.353
49752W        W 9255   9.317  39.816   2.671
49753W        W 9256  15.140  14.670   4.293
49754W        W 9257  37.030  28.066  12.996
49755W        W 9258  24.157   0.905  12.833
49756W        W 9259  38.545   8.895  10.073
49757W        W 9260  12.150  32.929  13.826
49758W        W 9261  29.535  12.276  12.889
49759W        W 9262  27.044  30.157   3.805
49760W        W 9263   3.879  24.494   2.833
49761W        W 9264  43.905  15.700   4.307
49762W        W 9265  35.502  36.352  12.039
49763W        W 9266  44.830  20.660   0.741
49764W        W 9267  29.985  26.528  12.381
49765W        W 9268  42.309  34.404   0.308
49766W        W 9269  22.693  21.210  10.059
49767W        W 9270  43.323  10.370  12.524
49768W        W 9271  11.342  15.635   2.664
49769W        W 9272   5.345  39.370  14.426
49770W        W 9273   4.795  18.266  11.920
49771W        W 9274  24.174  37.436  13.938
49772W        W 9275  39.472  29.476   4.739
49773W        W 9276  31.475  16.599   0.728
49774W        W 9277  13.205  42.890  12.525
49775W        W 9278  17.198  39.360  10.559
49776W        W 9279   7.384  42.364   0.265
49777W        W 9280  20.215  23.643   5.115
49778W        W 9281  12.310   1.476  11.901
49779W        W 9282   6.842  33.976  14.877
49780W        W 9283  28.990  38.529   3.774
49781W        W 9284  39.860  43.934   3.166
49782W        W 9285  25.197   4.742   4.264
49783W        W 9286  43.817  28.987   1.901
49784W        W 9287  39.468  24.706   1.357
49785W        W 9288  32.137  13.214  12.531
49786W        W 9289  12.327  29.614   4.802
49787W        W 9290  44.346  27.001   0.397
49788W        W 9291  30.432   7.368  11.407
49789W        W 9292  43.882   6.366  12.519
49790W        W 9293  31.001  34.401   1.855
49791W        W 9294  43.399  39.934   2.276
49792W        W 9295  20.630  41.360  12.565
49793W        W 9296   3.409  25.520   0.730
49794W        W 9297  31.942  21.708  10.630
49795W        W 9298  33.020  20.096   2.278
49796W        W 9299  39.040   4.824  13.958
49797W        W 9300  15.119  35.518  12.462
49798W        W 9301  14.264  12.757  12.052
49799W        W 9302   5.865  10.656  14.844
49800W        W 9303  26.963  36.497  13.369
49801W        W 9304   0.340   0.828  13.528
49802W        W 9305   0.870   8.749   0.244
49803W        W 9306   2.322   5.855   1.736
49804W        W 9307  12.181  34.497  13.445
49805W        W 9308  41.963  11.856  12.351
49806W        W 9309  23.231  20.104   4.658
49807W        W 9310  20.034  27.501   1.355
49808W        W 9311  15.320  16.679  10.981
49809W        W 9312  42.899  31.088  14.278
49810W        W 9313  21.596  39.942  14.346
49811W        W 9314  30.085   0.415  11.451
49812W        W 9315  25.675  23.053  12.081
49813W        W 9316  35.979  15.821   3.859
49814W        W 9317  36.357   2.463   3.145
49815W        W 9318   1.330  11.198  11.413
49816W        W 9319  18.613  18.284  10.533
49817W        W 9320  34.604  21.135  11.440
49818W        W 9321  15.315   0.291   1.276
49819W        W 9322  22.123  18.778   1.411
49820W        W 9323  38.933  27.619   4.737
49821W        W 9324  41.437   8.674   3.656
49822W        W 9325  13.700  21.713  11.019
49823W        W 9326   5.837   1.438  14.367
49824W        W 9327  37.871  43.325  14.859
49825W        W 9328  11.314   2.318  10.517
49826W        W 9329  41.007   0.360  14.862
49827W        W 9330  32.004  25.667   3.365
49828W        W 9331   7.344  32.544  12.073
49829W        W 9332  31.632  14.224  11.382
49830W        W 9333   0.907  28.158   2.665
49831W        W 9334  24.667  42.370  11.394
49832W        W 9335  34.485  42.959   2.183
49833W        W 9336   0.853  35.028  12.558
49834W        W 9337  25.611  19.227   3.716
49835W        W 9338  14.783   9.687  11.921
49836W        W 9339   7.372   9.827  11.959
49837W        W 9340  35.591  19.689  13.911
49838W        W 9341  41.477  11.851  10.988
49839W        W 9342   8.207  44.504   1.927
49840W        W 9343  23.731  42.796   3.716
49841W        W 9344  40.801  29.036  13.034
49842W        W 9345  13.234  10.692  14.285
49843W        W 9346   5.310  18.557  11.505
49844W        W 9347   2.823   6.723   3.684
49845W        W 9348  43.010   8.346  12.843
49846W        W 9349  22.248  14.144   4.776
49847W        W 9350  20.111  23.633   3.165
49848W        W 9351   0.259   6.194   2.229
49849W        W 9352  20.239  26.656  14.758
49850W        W 9353  15.772  24.001   0.737
49851W        W 9354  33.905  14.752  14.767
49852W        W 9355   3.326  39.993  13.524
49853W        W 9356  25.485  44.828   2.703
49854W        W 9357  15.823  36.879  12.466
49855W        W 9358  10.861  33.063   0.477
49856W        W 9359   4.291  26.504   2.815
49857W        W 9360  28.118  18.276   0.771
49858W        W 9361  12.817   0.488  12.471
49859W        W 9362  26.106  17.119  10.531
49860W        W 9363   8.705  21.593  14.472
49861W        W 9364   8.761  33.012   3.221
49862W        W 9365  18.658   4.762   0.876
49863W        W 9366  21.578   8.767   0.832
49864W        W 9367  18.742  27.496  10.600
49865W        W 9368  20.579  13.211   0.749
49866W        W 9369  32.934  31.128  12.046
49867W        W 9370   5.908  21.033   4.710
49868W        W 9371   3.846  41.345   1.215
49869W        W 9372  23.538   1.255   0.778
49870W        W 9373  41.491  31.597  13.935
49871W        W 9374   5.807   6.817  14.275
49872W        W 9375  43.990  11.290  12.378
49873W        W 9376   1.925  36.457   4.755
49874W        W 9377  26.087  20.217   4.315
49875W        W 9378  37.862  40.455   1.298
49876W        W 9379  39.888  11.278  11.422
49877W        W 9380  15.160  25.585   0.479
49878W        W 9381   1.800  34.481   3.371
49879W        W 9382  10.317   0.786  14.990
49880W        W 9383  25.185  44.973   1.919
49881W        W 9384   7.820   0.808   1.819
49882W        W 9385   8.856  29.119  12.905
49883W        W 9386  32.498  28.494   1.290
49884W        W 9387  39.898  30.980   2.755
49885W        W 9388   1.885   1.285   0.257
49886W        W 9389  22.577  31.121  10.437
49887W        W 9390  39.952  22.175  14.789
49888W        W 9391  39.409  41.903  12.928
49889W        W 9392  21.049  43.793  13.445
49890W        W 9393  40.922  26.091  13.334
49891W        W 9394  16.273  19.131  14.362
49892W        W 9395  23.630  37.884  10.928
49893W        W 9396  19.699  34.091  12.535
49894W        W 9397   6.183   1.921   0.835
49895W        W 9398  36.513  43.878   2.391
49896W        W 9399  24.498  17.087  11.436
49897W        W 9400  30.572  33.392  13.951
49898W        W 9401  43.475  39.045   3.743
49899W        W 9402  26.646  32.110  10.918
49900W        W 9403  30.539  43.853  12.945
49901W        W 9404  19.159   8.178   4.294
49902W        W 9405  19.094  25.518   0.434
49903W        W 9406  42.483  11.362  10.510
49904W        W 9407  37.522  23.566  13.816
49905W        W 9408  15.252   4.279  14.872
49906W        W 9409  37.528  11.822  12.051
49907W        W 9410  34.470   7.373   3.804
49908W        W 9411  44.807  39.500   3.635
49909W        W 9412  37.833  39.375  12.095
49910W        W 9413  33.550  11.131  13.450
49911W        W 9414  14.291   9.825   3.633
49912W        W 9415  25.491  32.093  12.090
49913W        W 9416  26.985  16.746   2.795
49914W        W 9417   4.319  21.723   1.876
49915W        W 9418  18.085  37.948  14.431
49916W        W 9419   0.387   2.416  12.007
49917W        W 9420   2.809  35.041  13.914
49918W        W 9421  41.315  24.624   1.286
49919W        W 9422  11.756  13.652  10.974
49920W        W 9423  10.864  30.933   2.835
49921W        W 9424   1.271  18.145  10.447
49922W        W 9425  13.222   6.289  10.643
49923W        W 9426  14.654  21.541  13.970
49924W        W 9427  35.892  41.442  12.960
49925W        W 9428  11.736  11.766   2.742
49926W        W 9429  26.461  31.057   4.633
49927W        W 9430  15.159  13.686   2.305
49928W        W 9431  23.731  25.145  11.904
49929W        W 9432  21.146   3.277  14.784
49930W        W 9433  38.454   7.880  12.841
49931W        W 9434  18.718  32.959   3.265
49932W        W 9435  41.436   9.199  14.403
49933W        W 9436  30.524  21.093   1.245
49934W        W 9437  25.548  23.152   4.244
49935W        W 9438  21.687  14.339  14.762
49936W        W 9439  13.302  24.200   4.647
49937W        W 9440   0.296  33.954  14.876
49938W        W 9441   1.464  26.466   4.189
49939W        W 9442   1.733  13.333  13.011
49940W        W 9443  21.676  19.538   3.303
49941W        W 9444  16.091  44.990   3.849
49942W        W 9445  29.071   8.686   1.230
49943W        W 9446  27.689  10.303   2.204
49944W        W 9447  15.089  17.106   4.789
49945W        W 9448  42.368  17.579   3.684
49946W        W 9449  39.348  13.833   0.948
49947W        W 9450  21.144  38.445   2.893
49948W        W 9451   6.912   1.767   1.788
49949W        W 9452  14.289  43.799   4.640
49950W        W 9453  33.015  35.857   0.787
49951W        W 9454  10.188  20.619   4.662
49952W        W 9455  11.853   6.697  13.355
49953W        W 9456  14.266  25.066   3.196
49954W        W 9457  12.735  16.719  12.370
49955W        W 9458   8.233  22.997   4.255
49956W        W 9459   7.827  40.932   3.365
49957W        W 9460  34.060  16.172  11.976
49958W        W 9461  26.520  11.138   0.439
49959W        W 9462  27.508  15.813   4.243
49960W        W 9463  19.219  24.480   1.725
49961W        W 9464  41.036  33.494  10.015
49962W        W 9465  28.619   1.309   3.266
49963W        W 9466   6.201   2.907   4.828
49964W        W 9467  40.841  36.874  11.927
49965W        W 9468  21.532  43.831   2.807
49966W        W 9469  28.444  15.086  12.922
49967W        W 9470  11.637  26.615   3.807
49968W        W 9471  42.913   4.892  13.489
49969W        W 9472   4.351  15.710  10.141
49970W        W 9473  16.090  23.169   3.245
49971W        W 9474  26.200  20.531   4.684
49972W        W 9475  13.338  41.482   3.262
49973W        W 9476  16.085  34.871  11.535
49974W        W 9477   0.393  18.786   3.301
49975W        W 9478  31.550  25.187   2.757
49976W        W 9479   9.704  20.760   4.274
49977W        W 9480  44.349  44.795  13.540
49978W        W 9481  40.946   3.409   3.356
49979W        W 9482   9.171  13.659   2.386
49980W        W 9483  38.821  21.612   1.281
49981W        W 9484  27.155  40.866  11.940
49982W        W 9485  27.120  33.430   1.778
49983W        W 9486   5.904  28.162   1.369
49984W        W 9487  17.282  19.567   4.268
49985W        W 9488  21.117  31.582  13.332
49986W        W 9489  30.085  11.762   5.291
49987W        W 9490   4.928  27.978  14.486
49988W        W 9491   1.951   5.379  13.375
49989W        W 9492  40.310   4.760   1.801
49990W        W 9493  42.964   0.825   2.863
49991W        W 9494  16.796  15.147   0.371
49992W        W 9495   6.217  30.989  10.600
49993W        W 9496   8.841  44.305  12.510
49994W        W 9497  37.417  30.124  10.610
49995W        W 9498  28.090  35.958  14.349
49996W        W 9499  29.146  11.788  12.533
49997W        W 9500  27.461  28.112   3.327
49998W        W 9501   9.888  11.738   2.311
49999W        W 9502  17.195  40.326  14.999
50000W        W 9503   1.261  26.584   3.672
50001W        W 9504  17.728  38.483   4.247
50002W        W 9505  28.567  27.554   2.899
50003W        W 9506  14.804  33.004   5.186
50004W        W 9507  41.860  38.847  10.004
50005W        W 9508   7.323  44.785  10.642
50006W        W 9509   8.885  40.942  11.082
50007W        W 9510  10.731  35.960   0.929
50008W        W 9511  14.266  18.282   4.784
50009W        W 9512  27.966   2.753   2.859
50010W        W 9513  14.329  40.492  14.030
50011W        W 9514  26.557  31.965   4.599
50012W        W 9515  10.159  36.536   3.342
50013W        W 9516  44.978  20.229  11.497
50014W        W 9517  34.416   3.912  11.040
50015W        W 9518  19.122  42.396  14.009
50016W        W 9519  17.725  36.991  14.821
50017W        W 9520   1.941  40.476   0.939
50018W        W 9521  30.912  43.515   1.437
50019W        W 9522  13.840  41.343  11.085
50020W        W 9523  29.506  41.375   0.465
50021W        W 9524  23.155  10.873   2.733
50022W        W 9525  30.483  22.123   1.843
50023W        W 9526  15.248  43.271   1.740
50024W        W 9527  22.099  18.681  11.387
50025W        W 9528  24.171  28.989   2.211
50026W        W 9529  30.431  42.975   5.118
50027W        W 9530   3.284  34.564  14.759
50028W        W 9531  38.425  43.017  11.001
50029W        W 9532  23.543   4.257  14.870
50030W        W 9533  33.379  42.310   0.819
50031W        W 9534   2.810   3.717   1.362
50032W        W 9535   1.264  35.555   1.274
50033W        W 9536  24.524  24.091  11.080
50034W        W 9537  22.007  39.039  12.906
50035W        W 9538  25.665  42.283  12.883
50036W        W 9539  35.858  38.826   2.342
50037W        W 9540   2.921   4.249   0.439
50038W        W 9541  17.264   9.809   2.841
50039W        W 9542  41.927   5.423   2.747
50040W        W 9543  19.164  33.905  14.782
50041W        W 9544  19.761  17.238  11.878
50042W        W 9545  20.156   8.273  14.314
50043W        W 9546  18.567  41.313   1.810
50044W        W 9547  17.226  40.926  11.446
50045W        W 9548  37.369  20.243   2.316
50046W        W 9549  36.455  38.353  12.470
50047W        W 9550  10.643  40.317   0.788
50048W        W 9551   7.191  31.638  14.274
50049W        W 9552   8.810   6.821   4.663
50050W        W 9553  32.970  26.133   2.712
50051W        W 9554  22.243  28.159  12.964
50052W        W 9555  25.218  43.005   1.806
50053W        W 9556  21.257  17.578   3.735
50054W        W 9557   1.298  39.398   2.664
50055W        W 9558  34.082   9.869  11.944
50056W        W 9559  35.489  28.541   2.281
50057W        W 9560   5.824  17.686   0.886
50058W        W 9561  26.554   8.884  13.484
50059W        W 9562  30.976   0.445   1.275
50060W        W 9563   1.862  10.341  14.880
50061W        W 9564  18.760  19.136  10.955
50062W        W 9565  31.618  26.138  13.051
50063W        W 9566  22.549  26.588   2.676
50064W        W 9567  35.563  25.974  14.833
50065W        W 9568  31.449  28.481  14.914
50066W        W 9569  40.015  22.607   0.856
50067W        W 9570  25.185  24.601  11.873
50068W        W 9571  44.272  17.188   1.296
50069W        W 9572  37.551  33.446  12.054
50070W        W 9573  32.622  18.271   2.239
50071W        W 9574  43.486   6.863   3.757
50072W        W 9575  23.536  27.035   4.248
50073W        W 9576  20.039  15.184  13.987
50074W        W 9577  30.931  37.561  14.390
50075W        W 9578  34.592  14.628  11.517
50076W        W 9579   4.258  31.922  14.871
50077W        W 9580   9.197  21.582   0.326
50078W        W 9581  31.501  31.618  12.881
50079W        W 9582   6.347  30.105  13.376
50080W        W 9583  26.958  21.239  14.960
50081W        W 9584   2.359  16.133  13.039
50082W        W 9585  22.707  36.446  12.339
50083W        W 9586  15.784  33.054   2.732
50084W        W 9587   5.757   1.252  14.895
50085W        W 9588  44.968  29.599   0.877
50086W        W 9589  38.894  25.637  13.509
50087W        W 9590   5.389   9.801  11.092
50088W        W 9591  26.496  17.243  14.460
50089W        W 9592  16.227  14.800   2.668
50090W        W 9593  33.579  29.148  13.841
50091W        W 9594  38.885  31.944  13.930
50092W        W 9595   6.795   8.844   3.774
50093W        W 9596   7.277  38.862   4.709
50094W        W 9597  40.512   2.743  13.999
50095W        W 9598   4.351  40.915   0.296
50096W        W 9599   6.217  42.910  13.015
50097W        W 9600  19.687  10.739   3.184
50098W        W 9601  37.960  41.359  10.459
50099W        W 9602   8.875  22.207  13.433
50100W        W 9603  37.023  38.828  11.535
50101W        W 9604  10.254  26.141  13.846
50102W        W 9605   2.293  22.090   0.404
50103W        W 9606  28.486  15.220  11.498
50104W        W 9607  40.001   4.442   0.910
50105W        W 9608  20.629  24.609  11.590
50106W        W 9609  31.020  31.408   2.684
50107W        W 9610  15.690  23.664  10.955
50108W        W 9611  33.460  40.476  10.113
50109W        W 9612   1.374  15.300   3.369
50110W        W 9613   1.472  20.062  13.866
50111W        W 9614  26.492  22.545   1.857
50112W        W 9615  27.644  35.446  14.970
50113W        W 9616  14.656  36.021   1.364
50114W        W 9617  40.454  37.002   1.219
50115W        W 9618  40.969  16.277  12.471
50116W        W 9619   5.213  27.152   0.838
50117W        W 9620  23.534  42.824   0.736
50118W        W 9621   4.846  38.352  10.466
50119W        W 9622  42.890   9.785  11.124
50120W        W 9623  43.844  13.642  11.381
50121W        W 9624  11.159  42.361  11.926
50122W        W 9625  22.203  17.701   0.467
50123W        W 9626  25.505  24.606   0.411
50124W        W 9627  43.317  23.513  11.602
50125W        W 9628   1.472  31.988  14.351
50126W        W 9629  33.588  23.594  10.556
50127W        W 9630   5.387  30.485   0.286
50128W        W 9631  22.695  20.150  10.952
50129W        W 9632  20.234  37.346  14.855
50130W        W 9633  44.430  42.815  10.058
50131W        W 9634   3.886  13.799  11.975
50132W        W 9635  10.225   1.350  13.406
50133W        W 9636  34.490   8.377   0.393
50134W        W 9637  20.754  13.822  11.426
50135W        W 9638  22.227  41.490  11.522
50136W        W 9639  37.577   3.850   0.859
50137W        W 9640  29.166  44.410  12.395
50138W        W 9641  19.746  35.051  11.896
50139W        W 9642  24.185  10.192  12.394
50140W        W 9643  18.079  11.173   1.774
50141W        W 9644  10.828   0.472  11.896
50142W        W 9645  34.894  42.363  12.526
50143W        W 9646  42.969   8.165   1.701
50144W        W 9647   7.850  36.983   2.322
50145W        W 9648   3.885  42.351   5.102
50146W        W 9649  44.904  23.032   4.749
50147W        W 9650  39.512   9.871   4.623
50148W        W 9651  13.336  44.991  12.453
50149W        W 9652   5.380  22.698   4.355
50150W        W 9653  34.978  44.327   4.618
50151W        W 9654  42.019  11.761  14.783
50152W        W 9655  16.171  20.729   0.329
50153W        W 9656  43.839  43.426   3.756
50154W        W 9657   3.857  13.736  12.974
50155W        W 9658  14.225  20.249   4.205
50156W        W 9659  41.384  18.270  14.877
50157W        W 9660   9.742  38.988   2.241
50158W        W 9661   0.932  33.419  13.834
50159W        W 9662   3.720  19.045  10.624
50160W        W 9663  17.115  44.004  13.952
50161W        W 9664   9.871  24.097  13.798
50162W        W 9665  22.576  37.989  11.388
50163W        W 9666  11.230  30.080   0.776
50164W        W 9667  42.870  12.125   2.411
50165W        W 9668  25.198  14.151  11.443
50166W        W 9669  23.017  14.220   1.417
50167W        W 9670   0.978  35.425  10.516
50168W        W 9671  44.811  35.879   5.100
50169W        W 9672   7.212  20.725   3.264
50170W        W 9673  40.312  30.123  12.564
50171W        W 9674  31.620  41.929  14.480
50172W        W 9675  17.800  30.549   2.331
50173W        W 9676  18.158   8.657  13.855
50174W        W 9677  21.600  26.534   3.351
50175W        W 9678  32.045  38.852  11.935
50176W        W 9679  37.971  43.999  12.890
50177W        W 9680  40.956  29.061   1.727
50178W        W 9681  27.595  15.728   3.865
50179W        W 9682  11.242  24.119  11.903
50180W        W 9683  14.288  38.907   2.340
50181W        W 9684  35.574  33.997  14.341
50182W        W 9685   7.217  22.734   0.908
50183W        W 9686  24.514   1.956   1.873
50184W        W 9687  14.298  27.652  14.018
50185W        W 9688  28.131  15.592   2.849
50186W        W 9689  33.110  17.750  12.529
50187W        W 9690   1.336  28.159  11.963
50188W        W 9691   4.938  38.962  11.531
50189W        W 9692   9.325  20.249   0.861
50190W        W 9693  35.958  21.751   4.327
50191W        W 9694  25.150  12.637   2.316
50192W        W 9695   5.923  42.864   3.358
50193W        W 9696  14.307  25.974   1.409
50194W        W 9697  34.020  43.901   3.311
50195W        W 9698  10.794  35.549  12.020
50196W        W 9699  17.282  35.986  14.989
50197W        W 9700   6.311  27.181  10.485
50198W        W 9701  11.829   7.679   0.425
50199W        W 9702  10.358  15.792   3.268
50200W        W 9703   5.865  17.773  13.056
50201W        W 9704  26.951  23.127   3.848
50202W        W 9705   6.190  37.513   2.257
50203W        W 9706  31.051  38.489  13.539
50204W        W 9707  30.003   1.333  13.312
50205W        W 9708   1.331  33.059  10.900
50206W        W 9709   7.670  43.863  12.955
50207W        W 9710  39.913  38.420  14.779
50208W        W 9711  38.000  16.108  14.485
50209W        W 9712  40.012  36.467  12.013
50210W        W 9713  12.127  39.846  10.479
50211W        W 9714  43.449  43.393   4.189
50212W        W 9715  15.718  38.443  13.002
50213W        W 9716  13.335  37.968   3.222
50214W        W 9717  42.396  17.737  14.510
50215W        W 9718   3.712  28.606  11.530
50216W        W 9719  40.931  11.230   2.387
50217W        W 9720  27.030  37.545  14.793
50218W        W 9721   7.721  37.857  13.441
50219W        W 9722  30.563  33.508   4.698
50220W        W 9723   4.874  16.641   5.724
50221W        W 9724   9.178  39.956  11.955
50222W        W 9725  40.988   7.316   0.801
50223W        W 9726  19.264  26.073  13.811
50224W        W 9727  18.678  36.862  14.997
50225W        W 9728  12.702  30.438  13.965
50226W        W 9729  19.609  13.822   3.374
50227W        W 9730  14.633  44.801  11.569
50228W        W 9731   0.390  37.036   3.280
50229W        W 9732  22.142  20.584  13.829
50230W        W 9733  20.727  14.707   0.956
50231W        W 9734  27.038   6.293   3.705
50232W        W 9735  37.496  19.583   2.748
50233W        W 9736  11.707   7.354  13.956
50234W        W 9737  17.776   3.840   2.243
50235W        W 9738   2.853  22.572  10.118
50236W        W 9739  38.884  32.984   4.336
50237W        W 9740  15.684   3.266  14.491
50238W        W 9741  35.007   0.818   2.233
50239W        W 9742   0.882  36.953   4.210
50240W        W 9743   8.214  40.493  13.870
50241W        W 9744  14.644  38.971   1.739
50242W        W 9745  21.180  35.366  14.884
50243W        W 9746  22.650  44.289   1.374
50244W        W 9747  19.136  42.505  11.118
50245W        W 9748  20.615   1.908  13.331
50246W        W 9749  34.532  20.540  11.020
50247W        W 9750  22.609  42.333  11.880
50248W        W 9751   1.786  43.956  12.983
50249W        W 9752   1.971  33.922   3.663
50250W        W 9753  28.112  22.626   1.410
50251W        W 9754  24.206  19.071  11.005
50252W        W 9755  28.559  36.849   3.733
50253W        W 9756   0.954   9.792   4.802
50254W        W 9757  37.017  37.568   2.368
50255W        W 9758  13.842  20.216   1.376
50256W        W 9759  31.439   9.772   0.861
50257W        W 9760  15.794  10.333  10.022
50258W        W 9761   7.263  26.044   2.339
50259W        W 9762  39.478  42.987   1.764
50260W        W 9763  17.305  37.894   2.391
50261W        W 9764  34.941  18.157   0.786
50262W        W 9765  24.665  12.184  10.962
50263W        W 9766  36.086  35.979  13.943
50264W        W 9767  16.634  35.063   0.445
50265W        W 9768  29.153  29.158   2.889
50266W        W 9769   0.436  22.191  12.357
50267W        W 9770  32.035  16.789  13.526
50268W        W 9771   0.933  44.978   0.965
50269W        W 9772  36.426  40.893   4.314
50270W        W 9773  13.308  32.542   1.321
50271W        W 9774   2.295  22.625  11.925
50272W        W 9775  24.104  15.221   3.736
50273W        W 9776  13.294  38.939  13.399
50274W        W 9777   2.817  18.617  11.106
50275W        W 9778   9.785  35.392  11.566
50276W        W 9779  19.117   3.876   1.878
50277W        W 9780  27.486   0.960   0.794
50278W        W 9781   8.721  12.140   9.543
50279W        W 9782   0.435  41.826   1.419
50280W        W 9783  38.549  16.261   0.824
50281W        W 9784  13.614  27.533  14.489
50282W        W 9785   5.850  27.973   4.197
50283W        W 9786  37.890  28.156   0.258
50284W        W 9787  18.655  16.807   2.860
50285W        W 9788   4.906  27.662   5.314
50286W        W 9789   2.912  17.161  13.446
50287W        W 9790  21.045  31.565  11.870
50288W        W 9791  13.294   9.657   1.346
50289W        W 9792  19.192  31.074   4.188
50290W        W 9793  36.904  13.846  11.433
50291W        W 9794  32.983  30.430  10.991
50292W        W 9795  18.661   2.728   2.337
50293W        W 9796  43.483  19.208  13.871
50294W        W 9797   3.877  20.167   1.790
50295W        W 9798   7.817   1.798   1.704
50296W        W 9799  24.564  27.077   4.188
50297W        W 9800  43.823   7.370   2.710
50298W        W 9801   2.957  26.687   9.602
50299W        W 9802   4.332  29.169   4.153
50300W        W 9803  41.818  26.471   0.472
50301W        W 9804   1.842  12.145   2.189
50302W        W 9805  18.720  21.624  11.520
50303W        W 9806  26.575   2.463   2.205
50304W        W 9807  25.473  23.055  10.975
50305W        W 9808  36.359   5.327   0.740
50306W        W 9809  44.970  18.296   5.245
50307W        W 9810  40.944  27.646   1.843
50308W        W 9811  22.648  44.472  10.545
50309W        W 9812   2.924  15.144   0.333
50310W        W 9813  39.968  13.666  10.644
50311W        W 9814  31.005  41.868   2.276
50312W        W 9815  25.576  22.581  13.477
50313W        W 9816  43.478  33.004   4.355
50314W        W 9817   1.243   9.774  14.510
50315W        W 9818  28.125  40.476   2.679
50316W        W 9819  17.157  30.463   0.456
50317W        W 9820  34.935  12.164  14.328
50318W        W 9821  36.891  34.966  13.938
50319W        W 9822   6.226   8.354   0.294
50320W        W 9823  31.636  25.551   4.305
50321W        W 9824  36.097  40.983  13.970
50322W        W 9825  39.858  39.493   4.298
50323W        W 9826   2.801   0.877  10.596
50324W        W 9827  38.034  27.512   1.425
50325W        W 9828  32.049  39.462   1.764
50326W        W 9829  15.135   4.866   3.806
50327W        W 9830  11.720   9.855   0.794
50328W        W 9831   8.678  14.101   1.294
50329W        W 9832  34.022  14.128   3.696
50330W        W 9833  22.065  20.114  12.049
50331W        W 9834  13.124  17.239   3.653
50332W        W 9835  10.803   9.256   2.857
50333W        W 9836  39.034  36.396   2.415
50334W        W 9837  24.704   3.878   0.463
50335W        W 9838  37.358  35.394  13.941
50336W        W 9839  13.631   3.249   3.686
50337W        W 9840   9.866   0.859   4.661
50338W        W 9841  42.966  30.487   4.305
50339W        W 9842  19.147  13.765  13.397
50340W        W 9843  43.280   7.794  11.510
50341W        W 9844  31.437  30.061  13.945
50342W        W 9845   2.962  17.582   0.936
50343W        W 9846  19.645  38.876   0.879
50344W        W 9847  34.519  35.872   0.818
50345W        W 9848  21.718  34.549   4.117
50346W        W 9849  25.075  14.768  13.045
50347W        W 9850  43.872  37.968   2.295
50348W        W 9851   9.197  25.590   2.735
50349W        W 9852  19.574  12.228   1.303
50350W        W 9853  27.067  43.411  14.004
50351W        W 9854   2.310  30.073   2.235
50352W        W 9855   3.251   0.248   3.693
50353W        W 9856  23.608  39.425   2.415
50354W        W 9857  21.568  28.645   3.643
50355W        W 9858  15.319  13.655  14.855
50356W        W 9859  26.960  36.895  11.384
50357W        W 9860  41.868  14.592   0.877
50358W        W 9861   6.396  32.992  14.437
50359W        W 9862  15.144  13.209  14.465
50360W        W 9863  10.205  17.636  13.326
50361W        W 9864  21.156  12.190  12.543
50362W        W 9865  25.972  30.059  14.447
50363W        W 9866  37.914  26.202   0.739
50364W        W 9867  33.999  40.432  11.578
50365W        W 9868  38.449  44.268   0.921
50366W        W 9869  44.459  34.387  12.899
50367W        W 9870  38.441  14.615   0.862
50368W        W 9871  29.106  24.576   2.308
50369W        W 9872  14.197  15.252   2.357
50370W        W 9873  19.586   6.760  14.380
50371W        W 9874  24.023  40.023  11.966
50372W        W 9875  23.559  10.176  11.430
50373W        W 9876  41.012   7.673  14.941
50374W        W 9877   4.710  25.012  10.966
50375W        W 9878  18.221   7.180  14.304
50376W        W 9879  40.988  30.440   1.799
50377W        W 9880   5.816   1.430  13.501
50378W        W 9881   1.303  33.462   2.345
50379W        W 9882  24.020  42.351  13.018
50380W        W 9883  12.267   5.824   1.879
50381W        W 9884   7.710  43.508  14.942
50382W        W 9885  26.061  43.446  14.000
50383W        W 9886  13.125   9.726  13.948
50384W        W 9887   3.863  21.571  14.293
50385W        W 9888  32.577   9.319  11.891
50386W        W 9889  34.552  16.751   0.414
50387W        W 9890   5.863  30.961   0.338
50388W        W 9891   6.330  22.205   0.362
50389W        W 9892  39.515  14.793   3.365
50390W        W 9893  12.704  25.555  13.912
50391W        W 9894   9.285  27.567   0.828
50392W        W 9895   4.813  16.584  11.480
50393W        W 9896  30.090  37.004  11.398
50394W        W 9897  30.426   6.364   0.283
50395W        W 9898   9.816   5.773   0.786
50396W        W 9899   1.410  22.529  12.987
50397W        W 9900  23.559  16.594  11.525
50398W        W 9901   3.775  27.023   5.168
50399W        W 9902  41.801  20.259   0.321
50400W        W 9903  30.943  13.173  12.040
50401W        W 9904  26.598  26.148   1.295
50402W        W 9905   6.230  39.964   0.447
50403W        W 9906  38.963  29.653   2.314
50404W        W 9907   6.361  22.129  12.070
50405W        W 9908  36.465  35.404  12.937
50406W        W 9909   5.331  21.728  14.358
50407W        W 9910   9.321   0.852  10.448
50408W        W 9911   7.671  24.639  13.055
50409W        W 9912  36.348  41.368  14.940
50410W        W 9913  41.827  34.554  10.584
50411W        W 9914  12.695  10.193  12.036
50412W        W 9915  10.277   8.801   4.278
50413W        W 9916  36.049   5.421  13.425
50414W        W 9917  17.290  38.029  14.849
50415W        W 9918   9.779  31.630   2.754
50416W        W 9919   4.356  43.314   1.303
50417W        W 9920  32.621   0.973  14.307
50418W        W 9921  37.887  29.517   1.780
50419W        W 9922   7.211  24.551   0.829
50420W        W 9923  15.721  39.521   3.312
50421W        W 9924  21.176  19.093   3.195
50422W        W 9925   9.675  37.496  14.366
50423W        W 9926  37.870  13.704  11.088
50424W        W 9927  39.467  37.567   1.840
50425W        W 9928  36.572  26.995  14.759
50426W        W 9929   2.846  35.030   1.379
50427W        W 9930  16.100  22.077  12.530
50428W        W 9931  44.907   7.213   1.381
50429W        W 9932  13.804   0.256   3.352
50430W        W 9933  41.475   7.399   2.788
50431W        W 9934  13.758  27.993   4.754
50432W        W 9935  42.028   3.269  13.542
50433W        W 9936  42.507  31.107  14.380
50434W        W 9937  38.427  29.515   0.266
50435W        W 9938  40.375  23.717   2.273
50436W        W 9939  22.704  34.042  11.601
50437W        W 9940  18.272  31.900  11.952
50438W        W 9941   8.763   4.303  11.564
50439W        W 9942  43.840  13.823   2.791
50440W        W 9943   5.328  41.300  13.478
50441W        W 9944  33.381  32.616   0.351
50442W        W 9945  44.904  21.548   1.440
50443W        W 9946  24.179   6.818   0.827
50444W        W 9947  11.766   3.331   4.599
50445W        W 9948  17.700  16.113   0.898
50446W        W 9949  41.348  32.605   1.328
50447W        W 9950  12.152  43.497   1.407
50448W        W 9951  17.262  39.039   4.715
50449W        W 9952  36.423   4.894  13.806
50450W        W 9953  34.478   3.856   1.287
50451W        W 9954  14.306  43.485   4.679
50452W        W 9955  22.093  24.624  13.816
50453W        W 9956  17.239  20.149   4.125
50454W        W 9957  24.204   4.373   0.824
50455W        W 9958  10.653   2.813   3.771
50456W        W 9959  38.516  19.649  14.907
50457W        W 9960  39.510  18.230  11.441
50458W        W 9961   7.281  24.061   0.447
50459W        W 9962  28.510  25.965  13.862
50460W        W 9963  29.455  19.752   4.648
50461W        W 9964  24.055   0.818   0.807
50462W        W 9965  30.921  36.865   1.352
50463W        W 9966   4.360   6.331   4.623
50464W        W 9967  23.235  32.423   4.165
50465W        W 9968  30.131   0.960   0.432
50466W        W 9969  41.830  10.273   3.159
50467W        W 9970   1.335  31.969  14.805
50468W        W 9971  33.392  34.970  13.388
50469W        W 9972  40.451  12.179   1.290
50470W        W 9973  11.242  20.680   1.871
50471W        W 9974  40.460  26.495   3.800
50472W        W 9975  13.156   3.391   4.723
50473W        W 9976  13.716  31.538   3.825
50474W        W 9977  22.126  13.719  13.048
50475W        W 9978  43.780  20.746   1.773
50476W        W 9979  11.299   6.708  13.547
50477W        W 9980  42.422  19.609  12.553
50478W        W 9981  12.797  37.355   3.813
50479W        W 9982  37.360   2.900  14.497
50480W        W 9983  43.796  40.423   2.234
50481W        W 9984  29.024  29.457  12.870
50482W        W 9985  10.779  10.248   3.340
50483W        W 9986  14.258  25.053   2.684
50484W        W 9987  43.866  43.482  10.632
50485W        W 9988  11.758  22.149  13.924
50486W        W 9989  27.121   7.372   1.212
50487W        W 9990  21.144  25.481  11.401
50488W        W 9991   3.765  26.583   1.743
50489W        W 9992   4.861  10.752  11.584
50490W        W 9993   4.864  22.731   1.302
50491W        W 9994  25.180  32.634  13.382
50492W        W 9995  37.050  26.018   1.299
50493W        W 9996   4.329  37.907  14.957
50494W        W 9997  28.571   1.783  14.814
50495W        W 9998  28.180  26.105   1.880
50496W        W 9999   4.425   2.406   0.413
50497W        W10000  29.139  14.119   3.292
50498W        W10001   9.353  37.534   2.778
50499W        W10002  23.604  13.136   1.356
50500W        W10003  19.622  20.098  14.323
50501W        W10004  13.288  32.601   2.250
50502W        W10005  42.913  20.611   2.810
50503W        W10006  39.840  43.309   0.425
50504W        W10007  32.920  13.323  13.933
50505W        W10008  43.378   1.828   0.963
50506W        W10009   1.250  44.341   5.251
50507W        W10010  32.455  39.945  12.929
50508W        W10011   8.378  41.963  11.952
50509W        W10012   0.429  44.338   0.880
50510W        W10013  29.012  25.173   2.296
50511W        W10014   7.211  28.136   1.294
50512W        W10015   8.393  26.114  13.332
50513W        W10016  27.979  13.311   4.334
50514W        W10017  41.432  19.556   3.837
50515W        W10018  16.794  12.776   1.417
50516W        W10019  10.323   0.390   3.280
50517W        W10020   5.247  44.314  10.416
50518W        W10021  25.206  10.750  13.791
50519W        W10022  37.389  39.852   0.883
50520W        W10023  36.394  24.223  14.873
50521W        W10024  10.354  10.151   0.739
50522W        W10025   8.761  18.573  10.428
50523W        W10026  39.353  42.337  14.766
50524W        W10027  17.653  43.792   2.211
50525W        W10028   2.742  40.441   0.774
50526W        W10029   1.811  20.745  10.050
50527W        W10030   3.898  42.924   1.901
50528W        W10031   1.938   3.276   2.831
50529W        W10032  17.163   0.820   5.271
50530W        W10033  44.459  29.940   1.807
50531W        W10034  34.945   3.798  14.290
50532W        W10035  14.783   9.782  13.015
50533W        W10036  35.533  36.382  14.355
50534W        W10037  42.325  23.024   4.790
50535W        W10038   4.850  11.308  11.916
50536W        W10039  14.095   8.298   1.871
50537W        W10040   2.304   6.765  11.882
50538W        W10041  27.984  36.050  10.117
50539W        W10042  43.776  44.267  14.381
50540W        W10043   5.750  25.576   4.712
50541W        W10044  43.990  26.506   0.728
50542W        W10045  29.163  21.244  10.972
50543W        W10046  30.485  41.870  12.997
50544W        W10047  43.956  10.379  11.584
50545W        W10048  35.102   5.348  14.320
50546W        W10049  35.868  20.134  11.075
50547W        W10050  25.621   6.227  12.402
50548W        W10051  12.766   8.869  13.863
50549W        W10052  19.599  37.995   4.299
50550W        W10053  42.882  10.382  13.028
50551W        W10054  41.875  19.280   2.289
50552W        W10055  16.114  20.682   2.685
50553W        W10056  29.518   1.481   2.897
50554W        W10057  33.996  28.069   1.411
50555W        W10058  31.630  31.079   4.154
50556W        W10059   9.850   9.757  13.354
50557W        W10060  43.806  24.574  14.307
50558W        W10061  14.233  29.051   3.309
50559W        W10062   4.376  22.527   1.407
50560W        W10063   9.199  15.688  12.580
50561W        W10064  44.460  36.407  12.511
50562W        W10065   9.693  10.186  14.870
50563W        W10066  22.701   0.845   2.282
50564W        W10067  32.401  30.650   1.834
50565W        W10068  13.205  41.921   0.929
50566W        W10069  11.183  36.587   3.332
50567W        W10070  17.147   9.668  13.318
50568W        W10071  17.182  25.539   0.966
50569W        W10072  40.525  36.419  13.361
50570W        W10073  10.829  15.647  14.476
50571W        W10074  44.434   3.236   3.653
50572W        W10075  10.661   3.245   2.717
50573W        W10076   6.878  42.880   0.756
50574W        W10077  38.893  12.193   0.340
50575W        W10078  18.659  21.219  14.845
50576W        W10079  20.595  23.996  14.777
50577W        W10080  19.272   6.842  11.115
50578W        W10081  33.506  12.772   0.773
50579W        W10082   4.218  33.393  14.355
50580W        W10083  15.751   4.938   3.642
50581W        W10084  40.439  27.186   4.650
50582W        W10085  15.699   9.202   1.397
50583W        W10086  34.082   6.244   1.922
50584W        W10087  26.702  44.447  10.628
50585W        W10088   0.978  15.316   3.166
50586W        W10089  21.223  22.054   4.745
50587W        W10090   3.831  35.540  13.540
50588W        W10091  32.456  30.121  14.859
50589W        W10092   9.684  11.158  13.978
50590W        W10093  10.242  13.173  14.786
50591W        W10094  17.240  38.474  14.466
50592W        W10095  27.178  26.027  13.797
50593W        W10096  35.375  25.088   4.742
50594W        W10097   1.892  40.441   5.088
50595W        W10098  28.577  18.640   4.656
50596W        W10099  44.448  26.168  11.114
50597W        W10100   5.860   4.794  11.098
50598W        W10101  43.884  38.856  10.609
50599W        W10102  19.273   8.331  12.870
50600W        W10103  42.001  10.678   2.816
50601W        W10104  20.128  23.531   2.381
50602W        W10105   0.890  31.576  10.412
50603W        W10106  15.274   0.281  11.460
50604W        W10107  39.922  37.922   2.290
50605W        W10108  44.965  23.210  11.418
50606W        W10109  32.542  38.906  11.437
50607W        W10110   5.712  10.647   1.908
50608W        W10111   7.903  38.547  14.918
50609W        W10112   7.330   6.816  13.873
50610W        W10113  12.332  34.549  12.380
50611W        W10114   4.286  44.803  10.608
50612W        W10115  16.294  22.519   4.764
50613W        W10116  18.645  31.959  13.060
50614W        W10117   3.374  15.711   2.371
50615W        W10118  31.127   2.735   1.809
50616W        W10119  43.909  33.431  12.340
50617W        W10120  36.514  41.381   1.897
50618W        W10121   0.788  27.957   0.801
50619W        W10122  34.996  30.935   1.710
50620W        W10123  19.255  35.062   3.867
50621W        W10124  14.255   8.830   3.290
50622W        W10125  16.597  38.553   4.296
50623W        W10126  13.324  16.303  11.047
50624W        W10127  41.944  15.242   1.293
50625W        W10128  15.159  15.784   4.250
50626W        W10129  41.435  37.072  12.461
50627W        W10130  34.031  12.197   1.280
50628W        W10131  23.019  27.480  12.407
50629W        W10132   3.293  37.021  14.301
50630W        W10133  14.273   5.724  10.487
50631W        W10134  13.787  33.578   1.805
50632W        W10135  29.935  32.010  14.435
50633W        W10136  24.513  44.805  11.088
50634W        W10137  15.274  31.536   3.718
50635W        W10138  39.406   0.416   2.310
50636W        W10139  43.020  21.517   2.312
50637W        W10140  37.060   3.931  14.278
50638W        W10141   4.928  42.367  11.019
50639W        W10142  44.482   1.262   3.217
50640W        W10143   1.891  44.995   0.258
50641W        W10144   4.334  30.063   3.311
50642W        W10145  40.913  40.357   0.339
50643W        W10146  41.444  25.589  11.384
50644W        W10147  21.622   2.324   3.866
50645W        W10148  13.114  11.227  11.566
50646W        W10149  25.094  39.519  10.522
50647W        W10150  38.401  44.952  12.911
50648W        W10151  28.502   7.879   3.858
50649W        W10152  24.216  27.639   2.717
50650W        W10153  17.702  12.259   4.721
50651W        W10154   7.842   1.814   2.713
50652W        W10155  35.381  27.672   3.336
50653W        W10156  24.678  31.613   3.704
50654W        W10157   3.249   5.256   3.315
50655W        W10158   5.406  23.642   1.220
50656W        W10159  20.580  30.916   2.844
50657W        W10160  11.710  30.165   0.955
50658W        W10161  23.079  34.031  12.476
50659W        W10162  40.808  40.359   3.279
50660W        W10163  34.581  33.984  14.349
50661W        W10164  38.854  25.205  11.928
50662W        W10165   3.285  36.947  12.976
50663W        W10166   6.828   1.901  11.594
50664W        W10167  17.697  15.237  14.915
50665W        W10168  17.616  18.156   2.730
50666W        W10169   1.900  33.596   0.923
50667W        W10170  13.803  37.051  12.533
50668W        W10171  19.255  28.610   2.692
50669W        W10172  16.238  29.424   0.445
50670W        W10173  23.115  42.990  12.561
50671W        W10174  44.765  23.227  14.903
50672W        W10175  19.736   0.831   3.831
50673W        W10176  28.111  36.532  14.773
50674W        W10177  12.291  18.149   2.183
50675W        W10178  26.600  39.551  12.911
50676W        W10179  22.097  35.406  10.441
50677W        W10180  26.969  26.124   3.639
50678W        W10181  28.664   8.660   3.289
50679W        W10182   5.276   3.234  12.359
50680W        W10183  40.339  34.958  13.954
50681W        W10184  33.429  20.678  10.595
50682W        W10185  27.639  26.496   0.868
50683W        W10186  16.812   7.190  13.468
50684W        W10187   9.866  27.633   0.857
50685W        W10188  28.625  28.449   2.226
50686W        W10189  20.709   8.733   4.664
50687W        W10190  11.694  17.779  12.546
50688W        W10191  11.746   7.712  12.371
50689W        W10192   8.879  16.130   1.868
50690W        W10193  37.380  15.772  13.327
50691W        W10194  33.073  10.852   3.853
50692W        W10195  22.549   5.869  10.640
50693W        W10196  10.366  44.905  12.506
50694W        W10197   9.341  24.519  13.822
50695W        W10198   2.335  38.908   1.865
50696W        W10199  30.974  39.844  14.318
50697W        W10200  26.158  29.070   1.754
50698W        W10201  43.505  44.364   0.309
50699W        W10202  37.965  24.193   3.164
50700W        W10203  20.716   8.754  11.556
50701W        W10204   4.267  44.929   0.370
50702W        W10205   4.847   6.295  14.791
50703W        W10206  31.127  44.420  14.906
50704W        W10207  40.401   2.305   4.797
50705W        W10208  15.671   7.776   1.353
50706W        W10209  12.139  18.087  14.401
50707W        W10210  40.027  16.791   1.365
50708W        W10211   6.335  19.111  11.436
50709W        W10212  26.702  28.948  12.348
50710W        W10213   3.856  13.685   1.832
50711W        W10214   6.757  37.922   2.764
50712W        W10215  10.185  16.764   0.385
50713W        W10216   3.935  14.809  11.437
50714W        W10217  43.321  43.470   3.803
50715W        W10218  39.922  26.520   0.246
50716W        W10219  42.371  26.464  14.414
50717W        W10220  44.368  21.185   1.931
50718W        W10221  22.546  10.849  10.934
50719W        W10222  25.967  17.171   3.762
50720W        W10223  23.050   5.772  14.516
50721W        W10224   6.681  38.027   4.616
50722W        W10225  43.001  17.266   1.865
50723W        W10226  18.575  33.064  14.855
50724W        W10227  38.984  38.058  10.978
50725W        W10228  41.852  11.721  10.539
50726W        W10229  33.579  33.387   5.247
50727W        W10230  11.678  11.673  10.418
50728W        W10231  37.027  20.241   4.802
50729W        W10232  14.313  43.439   0.745
50730W        W10233  37.048  21.630  13.382
50731W        W10234  35.373   2.335  12.372
50732W        W10235  43.868   3.815   4.795
50733W        W10236  37.920   7.303  11.942
50734W        W10237  13.244  23.009  11.481
50735W        W10238  29.517  37.548   5.196
50736W        W10239  30.526  41.006   1.850
50737W        W10240  36.968  41.529  10.946
50738W        W10241  19.760  23.682  11.509
50739W        W10242  22.687  39.392  13.536
50740W        W10243   4.371  37.020  12.964
50741W        W10244  11.811  21.658  12.036
50742W        W10245  27.601  44.999  14.885
50743W        W10246  36.011  16.699   4.801
50744W        W10247   4.378  26.050  14.411
50745W        W10248   1.254   2.381   4.210
50746W        W10249  14.299   5.884   4.695
50747W        W10250  40.024   1.855   0.795
50748W        W10251  21.640   6.394   1.783
50749W        W10252  10.723  36.932  12.542
50750W        W10253   7.411   4.420   0.465
50751W        W10254  33.945   9.322  14.781
50752W        W10255  28.561  44.338   1.419
50753W        W10256  37.555  14.784  11.395
50754W        W10257  28.111  28.546  13.340
50755W        W10258   8.812  16.786   1.284
50756W        W10259  18.236   4.341   0.767
50757W        W10260  15.717  17.299  13.986
50758W        W10261  36.843  13.701   0.384
50759W        W10262  12.286   0.399   3.695
50760W        W10263  25.199   7.213  12.968
50761W        W10264  23.128  10.854  14.393
50762W        W10265  25.688   9.321  10.941
50763W        W10266   7.884  27.156   4.253
50764W        W10267  23.138   3.929   3.799
50765W        W10268  43.472  35.462   0.336
50766W        W10269  39.984   5.842  12.912
50767W        W10270   0.387  15.187   2.673
50768W        W10271  20.135   7.671   5.310
50769W        W10272  31.133  15.087   3.727
50770W        W10273  27.633  10.663   2.829
50771W        W10274  18.650  33.106  11.856
50772W        W10275  28.938  16.300  12.905
50773W        W10276  20.738  30.641  14.450
50774W        W10277  14.777  18.754  12.362
50775W        W10278  16.076  36.445   1.325
50776W        W10279  17.090   7.835   3.749
50777W        W10280  11.753  24.533  13.888
50778W        W10281  36.903   8.365   9.572
50779W        W10282  27.488   6.834  11.912
50780W        W10283   2.853  43.479   3.739
50781W        W10284  14.623   8.889   2.261
50782W        W10285  24.523  28.122   1.772
50783W        W10286  39.535   3.266   0.359
50784W        W10287  29.604  17.164   2.244
50785W        W10288  25.012  41.956  11.447
50786W        W10289  25.547  25.080   0.344
50787W        W10290  32.615   1.353   2.223
50788W        W10291   9.855  18.746  11.113
50789W        W10292  34.510  24.153   1.736
50790W        W10293  38.869   4.754   1.342
50791W        W10294  43.804  43.848   2.226
50792W        W10295  21.562   0.366  12.504
50793W        W10296  16.654  12.309   3.178
50794W        W10297  17.097  34.103  12.060
50795W        W10298   5.757  11.800   2.810
50796W        W10299  22.631  31.082  12.437
50797W        W10300  36.549  44.959   4.704
50798W        W10301  20.136  27.195   4.698
50799W        W10302  35.079  24.197  12.954
50800W        W10303  23.069  42.841  10.562
50801W        W10304  28.108  15.096  13.439
50802W        W10305  22.718  27.608   1.268
50803W        W10306   5.799  40.955  13.390
50804W        W10307  44.354  35.017  12.936
50805W        W10308  19.255  34.483   0.440
50806W        W10309  22.196  15.204  13.012
50807W        W10310  32.917   6.865   1.228
50808W        W10311   3.338  35.576  11.126
50809W        W10312  37.971   9.885   3.835
50810W        W10313  23.500  12.804   0.940
50811W        W10314   6.356  36.431  14.362
50812W        W10315  25.118   9.318  13.466
50813W        W10316  16.750  29.925   0.958
50814W        W10317  32.471  43.496  10.490
50815W        W10318  14.332  21.196  12.545
50816W        W10319  15.720  15.319  13.343
50817W        W10320   6.194   7.331   4.322
50818W        W10321   5.244  43.368   1.283
50819W        W10322  35.045  27.492  14.840
50820W        W10323  22.615  19.058  10.099
50821W        W10324  14.745  19.758  12.344
50822W        W10325  22.518  24.185  14.470
50823W        W10326   3.912  27.169  13.448
50824W        W10327  31.085  31.645   9.546
50825W        W10328  26.191   0.426   0.407
50826W        W10329  35.435   8.824  13.466
50827W        W10330  32.964  17.292  13.397
50828W        W10331   9.876  42.451  11.476
50829W        W10332  38.053  36.052  11.106
50830W        W10333   6.321  41.959  14.336
50831W        W10334  25.074  13.717   2.852
50832W        W10335  39.401   2.869  11.415
50833W        W10336  37.471   0.790   1.786
50834W        W10337  15.178   5.906  10.912
50835W        W10338  12.223   2.467  14.782
50836W        W10339  39.540  10.839  12.900
50837W        W10340  14.653  30.478  13.316
50838W        W10341  40.041  41.840  13.951
50839W        W10342   6.323  28.513  13.367
50840W        W10343   1.273  15.085  12.413
50841W        W10344  19.605  28.990  14.908
50842W        W10345  39.987  27.468  12.371
50843W        W10346  23.103   6.721   2.252
50844W        W10347  28.526  28.950  14.375
50845W        W10348  44.438  28.590   4.777
50846W        W10349  33.046  16.155  14.887
50847W        W10350  40.438   1.374   0.422
50848W        W10351  12.358  28.569  12.431
50849W        W10352   9.206   1.442   4.677
50850W        W10353   0.457  21.116   0.287
50851W        W10354  20.681   9.162   2.395
50852W        W10355  39.476   7.707  14.962
50853W        W10356   1.854  33.435   3.681
50854W        W10357  43.800  42.884  14.773
50855W        W10358  42.508  28.582  12.399
50856W        W10359  41.473  12.237   2.371
50857W        W10360   8.782   7.755  14.856
50858W        W10361   3.782  31.952  13.390
50859W        W10362  43.513  37.543  14.905
50860W        W10363  18.173  28.653  10.621
50861W        W10364  36.984  35.918  11.457
50862W        W10365  42.906  18.550   0.456
50863W        W10366  24.559  43.516  13.372
50864W        W10367  19.080  25.620  13.962
50865W        W10368  42.877  38.453  13.899
50866W        W10369   2.427  29.038   4.677
50867W        W10370  29.118  12.713  12.827
50868W        W10371  37.846  23.701  14.339
50869W        W10372  32.539  11.786  11.005
50870W        W10373   3.215  40.535  11.013
50871W        W10374  30.434  33.571   3.647
50872W        W10375  13.792  35.524  12.465
50873W        W10376  29.589  21.209   2.834
50874W        W10377  31.918  42.514  11.122
50875W        W10378  32.989  43.337  11.942
50876W        W10379  12.138  28.530  13.977
50877W        W10380  34.073  38.505   1.355
50878W        W10381  44.895  41.505   3.850
50879W        W10382   8.362  26.511  11.440
50880W        W10383  28.673  25.523   1.333
50881W        W10384  42.931  28.929  10.576
50882W        W10385  35.373  31.055   4.216
50883W        W10386  36.533  37.397   2.889
50884W        W10387  33.402  42.008   4.134
50885W        W10388  40.545  26.504   2.279
50886W        W10389   1.754  16.781   2.379
50887W        W10390   5.770  39.837  10.636
50888W        W10391  36.082  23.132  10.559
50889W        W10392  28.547  35.901   3.802
50890W        W10393   6.248   2.229   2.819
50891W        W10394   6.269   8.248   4.193
50892W        W10395   9.238  10.818   0.311
50893W        W10396   1.777  21.121   1.379
50894W        W10397  17.165   6.801  10.941
50895W        W10398  36.947  38.862  13.825
50896W        W10399  29.602  39.848  12.844
50897W        W10400   2.928  13.783   4.266
50898W        W10401   0.298  34.987   4.720
50899W        W10402   3.251  14.765   3.325
50900W        W10403   3.447   8.272  10.521
50901W        W10404  29.668  12.716  13.328
50902W        W10405  13.280  28.548   0.804
50903W        W10406  42.837  32.998   9.958
50904W        W10407  32.447  14.695  14.449
50905W        W10408  43.919  23.072   0.964
50906W        W10409  35.039  16.168   0.326
50907W        W10410  16.208  18.082   2.886
50908W        W10411  11.629  37.966  10.925
50909W        W10412   4.906  44.429  14.290
50910W        W10413  25.644  12.802  10.446
50911W        W10414   7.385   6.325  12.542
50912W        W10415  34.988  31.475   3.386
50913W        W10416  33.917  28.970   3.313
50914W        W10417  12.340  11.373  12.012
50915W        W10418  29.480  11.148   1.241
50916W        W10419   6.416  15.214  14.288
50917W        W10420  34.104  19.258   1.819
50918W        W10421  40.824  34.062  11.895
50919W        W10422  34.501  26.165   4.701
50920W        W10423   4.800  38.821   1.255
50921W        W10424  38.047   9.365  11.570
50922W        W10425  38.989  12.250   1.265
50923W        W10426  42.429  26.981   4.205
50924W        W10427  41.344   2.951  12.064
50925W        W10428   3.332  11.828  11.473
50926W        W10429  26.698  23.736  11.479
50927W        W10430  11.317  37.398  10.596
50928W        W10431  34.467  23.615   3.790
50929W        W10432  39.037  19.089   3.221
50930W        W10433  32.615  32.084   4.723
50931W        W10434  14.268  17.117  13.359
50932W        W10435  22.210   2.400   3.848
50933W        W10436  19.659  17.106  14.447
50934W        W10437  39.009  24.997  14.323
50935W        W10438  13.331  29.067  12.890
50936W        W10439  16.590  42.781   0.442
50937W        W10440  38.501   2.462   2.844
50938W        W10441  25.493  39.021   1.728
50939W        W10442  19.079  33.966  14.324
50940W        W10443  11.774  10.695   0.310
50941W        W10444  26.011  19.659   2.248
50942W        W10445  18.699  12.772  13.032
50943W        W10446  26.153   6.258  10.594
50944W        W10447  37.433  16.593   4.142
50945W        W10448  44.868   9.250   4.776
50946W        W10449  25.108  23.565  14.433
50947W        W10450  40.519   1.943   3.644
50948W        W10451  29.029  38.960  11.412
50949W        W10452  42.310  10.808  11.449
50950W        W10453  10.835  17.680  13.499
50951W        W10454  28.156  31.154  11.118
50952W        W10455  39.463   2.381  13.400
50953W        W10456  39.539  41.875   0.274
50954W        W10457  24.110  11.653  12.403
50955W        W10458   7.855  39.362  14.903
50956W        W10459  24.001  41.998   4.663
50957W        W10460   2.818  36.089  12.487
50958W        W10461   4.365   4.841   2.856
50959W        W10462  27.184   2.418   3.830
50960W        W10463  31.897  17.080   4.686
50961W        W10464  22.060  25.682   2.740
50962W        W10465  27.109   1.813   5.093
50963W        W10466   1.796   5.340   1.403
50964W        W10467  43.334  22.148   9.505
50965W        W10468  16.136   3.256   3.192
50966W        W10469  42.872  30.529  12.970
50967W        W10470  10.732  23.571   1.397
50968W        W10471  37.341  37.384  14.340
50969W        W10472  44.859  31.459   0.415
50970W        W10473  36.988   6.371  14.852
50971W        W10474  24.566  25.628  11.937
50972W        W10475   9.874   4.269   1.929
50973W        W10476  14.626  44.275  13.846
50974W        W10477  30.486  24.486   1.829
50975W        W10478  11.295  43.293  14.439
50976W        W10479   8.256  36.535   1.848
50977W        W10480  41.968  23.551  14.493
50978W        W10481  12.196  11.269  13.481
50979W        W10482  27.672  41.943  12.958
50980W        W10483  38.915   7.891   4.638
50981W        W10484  23.571  31.039   1.926
50982W        W10485  35.061  10.180   3.254
50983W        W10486  11.219  28.611  10.433
50984W        W10487  32.622  28.949  12.421
50985W        W10488  11.351  22.148   4.801
50986W        W10489  43.322  39.936  10.636
50987W        W10490  30.566  11.337  12.887
50988W        W10491  30.414  11.683   5.142
50989W        W10492  22.712  18.157  14.797
50990W        W10493   2.383  34.401  10.936
50991W        W10494   4.708  43.341  13.793
50992W        W10495  32.891  36.392   1.800
50993W        W10496  36.577  43.945   4.351
50994W        W10497   4.288  11.749  13.461
50995W        W10498  22.707  33.616   1.375
50996W        W10499  38.965   9.307  14.430
50997W        W10500  41.412  20.043  12.921
50998W        W10501  24.130  15.790   5.154
50999W        W10502   6.291  23.661  13.810
51000W        W10503   8.258   1.300   0.918
51001W        W10504  19.281  22.124   1.751
51002W        W10505   7.320  12.145   2.291
51003W        W10506   1.747  30.164   3.708
51004W        W10507  31.554  42.379   0.868
51005W        W10508  21.169  30.045  12.357
51006W        W10509  14.785  42.947  11.123
51007W        W10510  26.533  36.471  13.546
51008W        W10511   5.833   6.837   1.266
51009W        W10512   2.280  40.481  11.491
51010W        W10513  36.098   3.867   4.813
51011W        W10514  43.838  34.083  14.412
51012W        W10515  16.758  17.678   1.300
51013W        W10516  23.074  21.598   0.869
51014W        W10517  23.992  26.590   4.201
51015W        W10518  15.656  41.852  14.801
51016W        W10519   4.228   2.761   0.401
51017W        W10520  15.684  12.825   3.207
51018W        W10521  23.680  15.319   1.276
51019W        W10522  24.561  26.664  10.569
51020W        W10523   9.285  39.920   3.809
51021W        W10524   1.461   7.258  12.918
51022W        W10525   7.176   0.979  12.835
51023W        W10526  17.693   3.425   5.245
51024W        W10527  41.792  15.271  11.127
51025W        W10528   1.352   4.784   4.265
51026W        W10529  35.385  29.948  10.990
51027W        W10530  44.800  40.039   0.949
51028W        W10531  44.370  22.680   3.384
51029W        W10532   7.841  10.256  14.865
51030W        W10533   7.850  16.683   1.281
51031W        W10534  27.533   2.300  10.995
51032W        W10535  33.592   9.733  12.941
51033W        W10536   5.856  37.013  11.568
51034W        W10537  18.790  18.684   2.271
51035W        W10538  20.060  13.619   0.905
51036W        W10539  13.128   1.264   4.283
51037W        W10540  44.332  37.482   3.685
51038W        W10541  40.927  25.520   3.763
51039W        W10542  14.320  37.997   1.795
51040W        W10543  35.894  37.996   1.273
51041W        W10544  12.773  19.635  13.968
51042W        W10545  15.581  15.613  10.471
51043W        W10546   9.831  30.592   0.249
51044W        W10547  29.111  23.630  14.447
51045W        W10548  34.030  23.694   2.870
51046W        W10549  42.417  36.354   4.240
51047W        W10550  31.011   5.244   3.842
51048W        W10551  20.532   5.744   2.327
51049W        W10552  29.021  41.349   4.352
51050W        W10553  36.444  27.106   1.219
51051W        W10554  25.556  19.182   2.668
51052W        W10555  23.187  40.319   2.785
51053W        W10556  33.086   5.879  14.851
51054W        W10557   6.385  42.993   0.316
51055W        W10558  25.537  22.059   4.175
51056W        W10559  44.323  21.140   1.275
51057W        W10560   7.262  41.852  13.513
51058W        W10561  14.630  25.605  13.860
51059W        W10562  13.728  40.934   2.346
51060W        W10563  36.985  32.559  13.861
51061W        W10564  20.112  11.666   4.692
51062W        W10565   3.281  16.764  11.866
51063W        W10566  18.131  10.360   4.673
51064W        W10567   6.685   4.798   4.679
51065W        W10568  12.643  27.568   2.379
51066W        W10569  22.644  35.930  14.009
51067W        W10570  25.137  35.494   2.705
51068W        W10571  40.504  20.563   2.711
51069W        W10572  25.672  39.962  14.868
51070W        W10573  20.723  10.738   4.652
51071W        W10574  12.814  23.610  10.957
51072W        W10575  30.957  25.064  13.927
51073W        W10576  42.491   6.840  13.330
51074W        W10577  34.410  35.006   2.832
51075W        W10578  23.543   1.930   2.411
51076W        W10579  27.083  32.025  12.845
51077W        W10580  15.082  34.937  14.937
51078W        W10581  21.705  17.703  12.951
51079W        W10582  28.491  14.783   5.215
51080W        W10583  44.827  15.597   0.873
51081W        W10584  21.162  24.678   0.801
51082W        W10585  36.538  13.680   1.783
51083W        W10586  40.385  40.987   2.716
51084W        W10587   5.334  27.963   2.738
51085W        W10588  42.802  42.893  12.460
51086W        W10589  20.674  27.506  13.469
51087W        W10590  32.129  36.081   4.691
51088W        W10591  30.488  35.503   0.454
51089W        W10592  29.467  37.848   1.334
51090W        W10593  22.040  30.007  14.939
51091W        W10594  30.487   6.349   1.819
51092W        W10595  17.123  43.834   2.216
51093W        W10596  44.447  44.788   2.825
51094W        W10597  11.355  41.529  11.572
51095W        W10598   4.237   9.710  14.839
51096W        W10599  12.119  32.509  10.593
51097W        W10600   7.301   8.323   3.173
51098W        W10601  28.497   3.275  13.832
51099W        W10602  11.623   4.900   4.325
51100W        W10603   7.346  12.673  14.990
51101W        W10604  17.774  39.828   1.841
51102W        W10605  29.051  27.983   3.792
51103W        W10606  44.358   3.891  12.906
51104W        W10607   5.726  39.313  10.566
51105W        W10608   1.780  20.642  12.830
51106W        W10609  38.433  38.343   4.113
51107W        W10610  30.047   9.862  14.886
51108W        W10611  16.566  38.862  14.352
51109W        W10612  28.039  43.494  11.007
51110W        W10613  35.558  15.663   3.710
51111W        W10614   4.775  14.827   4.291
51112W        W10615  23.123  17.185  14.910
51113W        W10616   8.899  19.748   1.299
51114W        W10617   2.907  11.633  14.911
51115W        W10618  31.903   8.802   2.221
51116W        W10619   4.375  19.597  12.562
51117W        W10620   7.279  43.503  11.481
51118W        W10621  44.382  40.939   2.368
51119W        W10622  37.030   5.723   5.297
51120W        W10623  18.568  37.509   3.768
51121W        W10624  12.715  26.200   1.213
51122W        W10625  30.056  11.182  13.501
51123W        W10626  22.588  14.620  11.080
51124W        W10627  41.386  23.060  13.471
51125W        W10628  10.212   5.322   0.830
51126W        W10629  11.827  44.445   2.823
51127W        W10630   9.183  28.992  12.417
51128W        W10631  10.639  36.003   2.668
51129W        W10632  43.305  33.937  11.550
51130W        W10633  27.145   9.376   2.350
51131W        W10634  11.141  42.776  10.954
51132W        W10635  42.999  10.799  12.341
51133W        W10636  16.102  33.920  12.370
51134W        W10637  31.994  21.675   1.811
51135W        W10638   0.752  29.459  12.858
51136W        W10639  11.309  30.550   3.169
51137W        W10640  39.916  19.725  12.001
51138W        W10641  41.477  15.309   2.237
51139W        W10642  16.253  34.985   2.400
51140W        W10643   6.391  18.281   1.736
51141W        W10644  23.551   3.265   2.806
51142W        W10645  17.659  43.958   3.650
51143W        W10646  40.492  30.087   3.242
51144W        W10647  31.944  31.932   3.864
51145W        W10648   5.708   5.284   1.282
51146W        W10649  11.774   6.405  13.337
51147W        W10650   1.913  41.824   3.800
51148W        W10651  18.739  39.885   3.679
51149W        W10652  33.422  17.084  11.998
51150W        W10653  24.592  31.999   4.809
51151W        W10654  11.715  12.211  14.350
51152W        W10655   4.734   7.784   1.876
51153W        W10656  14.202   6.678   2.237
51154W        W10657  23.146   8.687  12.379
51155W        W10658  22.172  25.219   0.376
51156W        W10659  27.186  19.104  12.535
51157W        W10660   6.904  32.037   1.305
51158W        W10661  40.948  20.235  14.373
51159W        W10662  21.244  25.046   0.831
51160W        W10663   1.411   4.301  13.370
51161W        W10664  42.992  20.725  14.297
51162W        W10665  18.096  25.022   2.398
51163W        W10666   1.301  12.212   3.737
51164W        W10667  21.142  13.799  11.031
51165W        W10668   7.815  14.236  11.072
51166W        W10669  30.432  26.493   4.280
51167W        W10670  32.937  16.731  14.422
51168W        W10671  28.478  42.809   0.266
51169W        W10672  37.944  14.238   2.191
51170W        W10673  20.212   3.349   2.758
51171W        W10674   4.824   3.796   0.411
51172W        W10675  21.258  31.013  11.093
51173W        W10676  30.975  35.404   1.824
51174W        W10677  21.023  40.390  12.501
51175W        W10678  39.375  19.231   4.268
51176W        W10679  19.717   1.924  12.437
51177W        W10680   2.798  22.063  10.597
51178W        W10681  38.998   1.875   2.264
51179W        W10682  29.066  39.390   0.745
51180W        W10683  11.812  21.040  10.130
51181W        W10684  44.833  20.160  10.575
51182W        W10685   0.956  10.175   3.722
51183W        W10686  42.396  23.205  12.536
51184W        W10687   2.770  36.533  12.917
51185W        W10688  42.989  25.533  10.510
51186W        W10689  37.562  22.568   2.740
51187W        W10690   0.848  31.138  10.989
51188W        W10691  21.535   0.428   1.812
51189W        W10692  39.944  22.187  13.422
51190W        W10693  26.127  32.628   0.363
51191W        W10694  22.535   4.799   1.431
51192W        W10695  10.218  25.582  12.456
51193W        W10696  33.932  11.214  10.947
51194W        W10697  20.048  37.906  13.950
51195W        W10698   7.336  18.115   2.388
51196W        W10699  36.841   9.674   3.847
51197W        W10700  15.640  23.688   3.232
51198W        W10701  23.065  35.387   1.448
51199W        W10702  40.005   3.928  10.643
51200W        W10703  27.010  37.893   4.825
51201W        W10704  26.052  11.764   2.233
51202W        W10705   2.262  12.345   0.825
51203W        W10706  34.100  32.400  10.420
51204W        W10707   9.793  28.011  11.908
51205W        W10708  25.137  22.668  10.609
51206W        W10709  26.630   3.906   0.768
51207W        W10710  23.648  29.666  11.568
51208W        W10711  11.338  15.253   0.757
51209W        W10712  44.432  19.623  11.538
51210W        W10713  34.372  11.158  14.911
51211W        W10714  16.762   7.316  12.954
51212W        W10715  28.147  21.197  10.982
51213W        W10716  25.068  41.036  11.595
51214W        W10717  29.652   2.404  11.877
51215W        W10718  37.507  19.588   3.666
51216W        W10719   5.843  10.361  11.011
51217W        W10720  35.572  15.629  11.408
51218W        W10721   0.857  43.878   5.777
51219W        W10722  38.543   7.719   2.795
51220W        W10723  19.601  39.816   0.366
51221W        W10724  37.503  26.102   2.263
51222W        W10725   9.801  19.775   2.337
51223W        W10726  21.086  36.509   2.826
51224W        W10727   8.401  40.350  11.405
51225W        W10728  14.685  31.416  14.500
51226W        W10729   6.831   2.775   2.685
51227W        W10730  43.820  34.986  14.847
51228W        W10731  28.641  21.223  11.858
51229W        W10732   5.721   5.751   1.890
51230W        W10733   5.879   2.315   0.862
51231W        W10734  31.564   0.857  11.371
51232W        W10735  17.110   1.475   3.301
51233W        W10736  34.603  27.574   3.220
51234W        W10737  15.610  42.285   1.360
51235W        W10738   9.316  44.773   2.754
51236W        W10739   6.328  21.573   3.248
51237W        W10740  29.600   4.921   2.717
51238W        W10741   6.412  39.065  11.400
51239W        W10742  20.535   8.677  13.986
51240W        W10743  35.052  29.620  10.012
51241W        W10744  27.175  10.330   0.388
51242W        W10745  15.795  43.022   0.961
51243W        W10746  32.138  15.321  12.872
51244W        W10747  10.323  28.610  14.769
51245W        W10748  22.194   4.364   0.855
51246W        W10749  33.410  15.302  11.111
51247W        W10750  24.089   6.767   4.699
51248W        W10751  20.112  17.207  10.006
51249W        W10752  14.162  35.073  14.906
51250W        W10753  35.034  18.180  10.917
51251W        W10754   2.351  29.119  11.443
51252W        W10755  17.148  39.435   2.236
51253W        W10756   6.193  20.173   2.828
51254W        W10757  37.506  22.012  14.998
51255W        W10758  23.731   2.366   1.323
51256W        W10759  28.469  21.610  12.004
51257W        W10760  40.049  17.755   3.383
51258W        W10761  39.823  38.885  13.052
51259W        W10762  37.024  34.947   3.177
51260W        W10763   5.267  43.432   2.196
51261W        W10764   2.948  43.941   0.852
51262W        W10765   6.240  37.416   4.713
51263W        W10766  16.760  26.161  14.001
51264W        W10767   6.388  37.465   4.335
51265W        W10768  43.318  19.545   3.325
51266W        W10769  18.781  17.719  14.513
51267W        W10770  43.945   2.341  10.435
51268W        W10771   5.357  30.486  10.924
51269W        W10772  15.700  15.796  11.432
51270W        W10773   3.250  27.479  13.850
51271W        W10774  33.566  41.891   1.309
51272W        W10775   8.169  14.657  10.087
51273W        W10776  28.079   1.298  13.344
51274W        W10777  42.811   8.268   0.417
51275W        W10778   6.704  42.433   2.821
51276W        W10779  10.803  12.824   3.369
51277W        W10780  25.664  28.011   3.790
51278W        W10781   2.452  23.199  11.870
51279W        W10782  24.203  17.119   4.796
51280W        W10783  31.569  34.923   5.720
51281W        W10784  38.931  23.503  13.343
51282W        W10785  43.329  27.949   2.715
51283W        W10786  22.709  37.452  13.988
51284W        W10787  33.907   0.321  12.524
51285W        W10788  13.170  35.463  12.897
51286W        W10789  26.161   3.373  13.539
51287W        W10790  16.093  39.324  13.939
51288W        W10791  25.154  11.237  12.406
51289W        W10792  31.611  38.053  13.334
51290W        W10793  37.571  31.034   1.716
51291W        W10794  14.123  21.728   3.324
51292W        W10795   7.890   7.681   0.908
51293W        W10796   4.364  28.624   2.681
51294W        W10797  12.740   9.249   2.379
51295W        W10798  21.236  16.698   4.647
51296W        W10799  42.349  25.045  11.111
51297W        W10800   2.426  42.433  10.424
51298W        W10801  33.558   3.893  12.570
51299W        W10802  22.540  16.686  14.324
51300W        W10803  22.110  29.480   4.810
51301W        W10804  36.944   8.811   4.838
51302W        W10805  29.985  38.849   3.858
51303W        W10806  31.909  34.907   0.413
51304W        W10807  37.889  13.681   4.602
51305W        W10808   8.238  24.705  11.429
51306W        W10809  42.473  31.042  13.333
51307W        W10810  11.233  32.056  13.517
51308W        W10811  39.014  36.511  14.852
51309W        W10812  16.759  19.197  14.436
51310W        W10813  37.008  37.038   3.216
51311W        W10814  12.143  17.225  13.895
51312W        W10815  35.889  21.594   1.906
51313W        W10816  22.038   7.275   3.245
51314W        W10817  10.143   1.864   2.402
51315W        W10818  33.406  23.102   4.717
51316W        W10819  35.895  23.050   3.653
51317W        W10820  13.752  11.822  13.399
51318W        W10821   3.233  31.976  14.969
51319W        W10822   2.824  14.706   4.695
51320W        W10823  20.570  34.116  11.015
51321W        W10824   7.249  30.988  12.560
51322W        W10825  38.330  28.453   3.281
51323W        W10826   7.294  33.612  12.384
51324W        W10827  21.026  18.149   2.283
51325W        W10828  12.202   3.229  13.400
51326W        W10829  43.447   4.743   0.920
51327W        W10830   7.244  10.682   1.695
51328W        W10831  20.759  21.538   4.349
51329W        W10832   0.479  22.062   2.798
51330W        W10833  14.303  34.084   1.881
51331W        W10834   8.347  17.138  13.327
51332W        W10835  35.525  42.872  12.028
51333W        W10836   3.396  24.629  14.795
51334W        W10837  16.120  21.198   1.326
51335W        W10838  42.374  31.992  10.983
51336W        W10839  12.150   8.661  13.964
51337W        W10840  36.848  26.970  11.867
51338W        W10841  17.638  23.060   4.332
51339W        W10842  39.545  37.837  14.997
51340W        W10843  12.301  12.198  12.580
51341W        W10844  15.663  34.993   2.374
51342W        W10845  14.606  26.098   1.889
51343W        W10846  23.102  42.448  11.556
51344W        W10847  35.923  30.147  10.935
51345W        W10848   9.333  27.146  13.864
51346W        W10849   1.447   6.242   2.379
51347W        W10850  14.763  27.030  11.119
51348W        W10851  41.873  13.140   3.281
51349W        W10852  32.415  14.766   1.774
51350W        W10853  35.068  36.579  13.816
51351W        W10854  26.529  13.804  11.890
51352W        W10855  14.334   8.762   3.732
51353W        W10856   4.279   0.828  13.905
51354W        W10857  40.510   5.346  13.345
51355W        W10858   3.233   2.301   2.258
51356W        W10859  19.587  24.077   4.676
51357W        W10860   7.766  42.989   4.165
51358W        W10861  21.704  18.201  13.310
51359W        W10862   4.809  22.201   4.689
51360W        W10863  14.645  21.108   3.669
51361W        W10864  28.075  15.600   1.822
51362W        W10865  32.110  10.216   4.141
51363W        W10866   4.283  26.532   0.794
51364W        W10867  11.821  23.598   4.835
51365W        W10868  26.081   9.793  11.453
51366W        W10869   4.275  27.574   1.777
51367W        W10870  44.315   2.415  12.946
51368W        W10871  13.698  38.449   2.715
51369W        W10872  28.115  33.420   0.953
51370W        W10873  35.466   2.885  10.594
51371W        W10874   9.743   7.833  12.871
51372W        W10875  13.277  16.716  11.437
51373W        W10876  29.465  43.962  11.391
51374W        W10877   9.364  17.258   1.210
51375W        W10878  43.377   9.782   3.674
51376W        W10879  25.659  13.288  12.837
51377W        W10880  11.772  21.019   1.403
51378W        W10881  27.476   2.797   0.797
51379W        W10882  31.598  12.726  13.981
51380W        W10883  10.714  25.057  12.951
51381W        W10884   6.913  22.168  11.547
51382W        W10885  22.517  22.171   0.251
51383W        W10886   3.390  16.119  10.926
51384W        W10887  19.053  16.705   4.113
51385W        W10888  13.667  12.760   2.255
51386W        W10889  33.614   8.323   4.816
51387W        W10890  13.284  13.682   4.607
51388W        W10891  44.470   3.266  12.474
51389W        W10892  18.715  43.331  10.972
51390W        W10893   8.347  22.237  10.953
51391W        W10894  27.530  36.470   1.750
51392W        W10895  10.840   4.929   2.419
51393W        W10896  29.446  12.831   2.881
51394W        W10897   7.907  36.471   0.309
51395W        W10898  37.062  34.912   2.230
51396W        W10899  41.842  19.700  14.027
51397W        W10900   3.803  44.394   5.159
51398W        W10901  29.581  34.441   0.820
51399W        W10902  16.285  41.994  12.913
51400W        W10903  34.446  33.084   3.634
51401W        W10904  37.512   0.248  11.908
51402W        W10905  32.931   8.329  13.831
51403W        W10906  37.460  10.153   0.962
51404W        W10907  33.601  11.208  11.375
51405W        W10908   5.318  11.332   1.740
51406W        W10909  26.063  19.124  13.889
51407W        W10910  18.188  28.514   4.114
51408W        W10911  37.965  12.705   5.179
51409W        W10912  10.867   3.350  13.851
51410W        W10913  21.145  39.552   4.783
51411W        W10914  18.210  36.030  13.968
51412W        W10915  20.625   0.349  12.426
51413W        W10916   9.839  18.589   3.312
51414W        W10917   0.936  31.418   4.305
51415W        W10918   8.796  15.087   0.426
51416W        W10919  29.541  22.033   4.657
51417W        W10920  28.126   3.452  12.483
51418W        W10921  37.466  33.024  12.876
51419W        W10922  43.418  34.925  14.946
51420W        W10923  33.508  30.649   0.347
51421W        W10924  42.905   5.254   4.119
51422W        W10925   5.397  24.045   0.891
51423W        W10926  18.227  13.711   1.787
51424W        W10927  20.164  44.323   2.284
51425W        W10928  42.792   6.831  14.799
51426W        W10929  27.084  35.457   0.380
51427W        W10930  31.543  27.163  13.000
51428W        W10931  25.502  40.536  11.379
51429W        W10932   9.196  33.624   4.349
51430W        W10933  21.613  22.079  14.785
51431W        W10934  18.097  40.431   1.270
51432W        W10935  26.011   3.385  13.027
51433W        W10936  12.665  20.094  13.424
51434W        W10937  13.728  37.011  14.396
51435W        W10938  42.922  15.293  12.825
51436W        W10939   1.948   1.269   3.385
51437W        W10940   4.378  37.978  10.421
51438W        W10941  37.883  20.218  11.996
51439W        W10942  36.438  11.212   2.819
51440W        W10943  42.807  38.461   3.802
51441W        W10944   1.244  15.649   3.829
51442W        W10945  40.815  24.482  14.825
51443W        W10946  33.879   0.339   1.919
51444W        W10947  35.026  19.764   3.210
51445W        W10948  21.628  18.660  12.989
51446W        W10949  13.312  22.678  11.942
51447W        W10950  39.857  17.123   3.203
51448W        W10951  10.171  39.891  11.403
51449W        W10952  22.621  40.407   2.678
51450W        W10953   6.909  28.576   2.675
51451W        W10954  14.637  20.219  11.396
51452W        W10955   6.249  10.352   0.883
51453W        W10956  44.002   8.229   0.428
51454W        W10957  15.721  35.445  11.891
51455W        W10958  31.465  24.223  12.533
51456W        W10959  19.111  16.776  13.003
51457W        W10960  33.387  15.772  14.935
51458W        W10961  10.787  36.898  14.820
51459W        W10962   5.828  15.759   1.859
51460W        W10963  12.808  15.731   0.410
51461W        W10964  22.585  15.760   1.365
51462W        W10965  11.780  36.459  12.899
51463W        W10966  29.175  16.656   2.389
51464W        W10967  32.954   3.906   1.775
51465W        W10968  16.623  40.513   3.836
51466W        W10969  38.439  36.026   3.312
51467W        W10970  44.367   2.881  12.383
51468W        W10971   6.891  37.928   1.932
51469W        W10972  20.257  14.780   2.414
51470W        W10973  17.766  30.050  11.004
51471W        W10974   9.709  41.035  10.454
51472W        W10975  19.764   3.713  14.445
51473W        W10976  42.869  28.064  12.533
51474W        W10977  29.535  42.510  11.445
51475W        W10978  19.098   0.815   4.831
51476W        W10979  25.022   2.842  12.340
51477W        W10980   4.745  13.118   2.698
51478W        W10981  12.742  20.219   3.373
51479W        W10982  21.096  10.358  13.868
51480W        W10983  18.679  22.024   1.272
51481W        W10984  34.897  32.123  13.462
51482W        W10985  18.207  30.478   2.689
51483W        W10986  15.118  26.971  13.493
51484W        W10987  19.666  38.388   1.303
51485W        W10988  32.076   7.405   3.175
51486W        W10989   4.449   3.937   1.714
51487W        W10990   0.949  42.445   0.945
51488W        W10991  25.047  34.980   1.270
51489W        W10992  20.705  36.843  12.075
51490W        W10993  39.355  16.765  11.855
51491W        W10994  28.498  27.573   1.716
51492W        W10995  10.236  17.688  11.556
51493W        W10996   0.949   2.877   4.149
51494W        W10997  27.029  43.471  11.971
51495W        W10998  43.906  43.862   1.438
51496W        W10999   9.662   9.714   3.850
51497W        W11000   1.450  24.720   0.873
51498W        W11001  35.041  34.558   3.688
51499W        W11002  38.821  17.218   1.337
51500W        W11003  31.590  44.394   0.281
51501W        W11004  13.238  11.702  13.333
51502W        W11005  32.478   3.398  10.559
51503W        W11006  40.900  18.236   4.729
51504W        W11007  12.242  39.978  10.955
51505W        W11008  10.164  31.084  13.314
51506W        W11009  23.132  34.007  13.017
51507W        W11010  15.645  40.809   4.306
51508W        W11011  26.104  22.727   1.354
51509W        W11012  25.179  16.072  11.392
51510W        W11013  23.994  38.938  10.119
51511W        W11014   9.199  19.725  13.940
51512W        W11015   2.795   5.717  13.914
51513W        W11016   2.904  13.345   1.858
51514W        W11017  33.414  44.351  10.069
51515W        W11018  19.565  11.232  10.953
51516W        W11019  25.553  27.652  14.404
51517W        W11020  21.672  22.683   1.731
51518W        W11021  15.308   7.287  12.950
51519W        W11022  21.048  12.229  11.611
51520W        W11023   6.415  16.649  12.536
51521W        W11024  38.435   5.262  14.805
51522W        W11025  30.567  13.751  12.449
51523W        W11026   9.327  23.577   0.765
51524W        W11027  38.861  11.710  13.316
51525W        W11028  12.744  34.071  14.004
51526W        W11029  28.165   4.723  10.919
51527W        W11030   7.376   1.933   4.290
51528W        W11031  10.305  42.912  13.317
51529W        W11032  43.405  27.964   4.271
51530W        W11033  37.852  44.781   0.366
51531W        W11034  17.234   5.241  12.408
51532W        W11035  38.513  34.541  13.032
51533W        W11036  40.409  24.531   4.819
51534W        W11037  44.958  22.637   2.891
51535W        W11038  21.592  30.106   2.770
51536W        W11039   7.246  37.552  10.606
51537W        W11040  21.549  34.039  10.413
51538W        W11041  10.171   2.776   4.655
51539W        W11042   3.919   8.743   0.770
51540W        W11043  26.610   2.349  11.116
51541W        W11044  11.340  17.216   4.835
51542W        W11045   1.405  21.217   1.860
51543W        W11046   5.272  39.483  12.002
51544W        W11047  10.720  14.182  14.470
51545W        W11048  35.440  35.033   4.821
51546W        W11049  19.080   4.397  10.572
51547W        W11050  21.256  30.634  10.038
51548W        W11051  15.795   9.692  11.433
51549W        W11052  37.493   6.365  13.817
51550W        W11053  31.955  32.394  10.476
51551W        W11054   5.424  14.669   0.743
51552W        W11055  21.143  23.102  11.868
51553W        W11056  33.398  21.129   1.811
51554W        W11057  19.164   4.778   1.305
51555W        W11058   8.366  43.778   1.773
51556W        W11059  11.803  11.761  13.504
51557W        W11060  17.212  24.044   2.229
51558W        W11061   1.437   3.290   4.730
51559W        W11062  10.773  39.408   2.293
51560W        W11063   8.896  23.067  13.458
51561W        W11064  38.979  14.122  12.018
51562W        W11065   1.920   6.863  11.043
51563W        W11066  42.926  32.526  10.465
51564W        W11067  41.018  43.309   1.451
51565W        W11068  17.283  41.018  12.039
51566W        W11069  43.918  44.833   0.946
51567W        W11070  42.298  19.717  13.954
51568W        W11071  38.511   8.871  13.520
51569W        W11072  37.046   7.201  14.387
51570W        W11073  14.199  14.212   0.298
51571W        W11074   7.812  18.185   4.233
51572W        W11075  24.139   2.307  12.954
51573W        W11076  14.199   7.735  13.508
51574W        W11077  41.893  37.568  13.526
51575W        W11078  42.444   0.270  14.450
51576W        W11079   8.270  42.394   3.242
51577W        W11080  25.023  10.749   3.354
51578W        W11081  18.147  24.524  14.007
51579W        W11082  29.635  14.311   5.124
51580W        W11083  37.365   8.901   0.460
51581W        W11084  10.345  23.493   9.981
51582W        W11085  35.100  38.076  11.512
51583W        W11086   6.340   7.735   4.270
51584W        W11087  12.321  16.588   3.200
51585W        W11088  34.601   3.357   4.175
51586W        W11089  23.637  16.315  10.944
51587W        W11090  24.222  16.197   0.411
51588W        W11091  10.302   7.713  13.821
51589W        W11092  31.574  33.608   1.420
51590W        W11093  24.679  37.582  11.869
51591W        W11094  23.563  30.575  11.479
51592W        W11095  21.650   6.403  11.418
51593W        W11096  23.654  39.962  12.013
51594W        W11097  40.495   8.353   0.363
51595W        W11098   0.931  38.384  14.809
51596W        W11099  26.051  40.008   4.835
51597W        W11100   1.974  25.216   4.135
51598W        W11101  13.223   0.462  12.887
51599W        W11102  23.026  12.316   4.745
51600W        W11103  10.360  31.471  12.993
51601W        W11104  36.467  23.098   0.374
51602W        W11105   9.308  24.080  11.589
51603W        W11106  25.476  17.571  12.548
51604W        W11107  33.030  14.636  13.342
51605W        W11108  24.636  30.610  13.929
51606W        W11109  40.887  24.098   4.191
51607W        W11110  37.876  37.523   3.859
51608W        W11111   8.728   0.297  12.524
51609W        W11112  43.794  25.534  12.034
51610W        W11113   1.408  43.844  11.375
51611W        W11114  38.967  10.318  13.520
51612W        W11115  31.507   3.804  11.983
51613W        W11116  28.150  12.854   4.262
51614W        W11117  20.154  28.978  11.021
51615W        W11118  32.609   9.180   0.746
51616W        W11119  36.394  26.649   0.261
51617W        W11120  15.791   4.780   1.858
51618W        W11121  29.115  40.851  12.505
51619W        W11122  41.486   4.752  11.487
51620W        W11123  20.711  26.673  14.468
51621W        W11124  28.472  26.133   4.197
51622W        W11125   8.802   1.423   1.255
51623W        W11126  25.707   3.829   0.958
51624W        W11127  29.938  34.591  10.460
51625W        W11128  16.295  27.582   2.729
51626W        W11129   1.885  19.249   5.156
51627W        W11130   4.422   0.456   0.466
51628W        W11131  12.186   1.335  12.417
51629W        W11132   9.377   2.953   2.876
51630W        W11133  10.796  42.488  12.955
51631W        W11134   8.889  42.855  10.567
51632W        W11135  39.404   4.837   1.415
51633W        W11136  11.160  41.533   0.882
51634W        W11137   0.825   7.809   4.826
51635W        W11138  23.190  17.274  12.066
51636W        W11139   8.798  17.123  12.090
51637W        W11140  42.337  42.883   4.242
51638W        W11141  13.165  36.364   0.888
51639W        W11142  37.453  26.017  10.992
51640W        W11143  28.577  13.157  14.408
51641W        W11144  36.351   2.745  13.039
51642W        W11145   4.703  20.715   9.995
51643W        W11146  27.498  28.933  14.880
51644W        W11147  14.305   8.229  12.054
51645W        W11148  43.401   7.731   0.876
51646W        W11149  40.841  17.670   3.256
51647W        W11150  29.620  21.592  12.576
51648W        W11151  37.351  21.517   4.829
51649W        W11152   1.932  14.284  12.901
51650W        W11153   1.257  34.534  11.517
51651W        W11154  39.958  24.095   1.378
51652W        W11155  21.527  31.619   4.752
51653W        W11156  18.582  13.339   0.884
51654W        W11157  27.687  13.706  13.366
51655W        W11158  29.930  31.940  11.884
51656W        W11159  34.896  33.425  10.567
51657W        W11160  21.708   1.398   9.480
51658W        W11161  44.873  26.593  12.843
51659W        W11162   4.408  16.616   5.088
51660W        W11163  41.494  29.110   3.645
51661W        W11164  35.539  38.448   4.690
51662W        W11165   3.915  40.923  11.372
51663W        W11166  11.216   0.416  10.943
51664W        W11167  16.635  43.277  11.612
51665W        W11168  19.181  39.377  14.024
51666W        W11169  20.155  33.457   4.779
51667W        W11170  14.294  40.965   0.743
51668W        W11171  34.468  30.629   2.346
51669W        W11172  24.588   3.317   5.163
51670W        W11173  14.672  12.840   2.350
51671W        W11174   0.298  22.071  13.419
51672W        W11175  33.439   4.283  11.521
51673W        W11176   4.769  38.836  11.933
51674W        W11177  19.041  30.554  13.339
51675W        W11178   7.417   8.278  12.897
51676W        W11179  11.226  18.056  13.500
51677W        W11180  17.119  28.067   0.931
51678W        W11181  15.172  19.710   0.948
51679W        W11182  43.863  37.457  10.998
51680W        W11183  21.615  30.020   0.958
51681W        W11184   9.247  39.963   1.404
51682W        W11185  30.548  16.800  13.911
51683W        W11186  28.958  35.920  14.023
51684W        W11187  33.998  22.527   2.332
51685W        W11188  44.280  18.737  10.517
51686W        W11189  22.579  34.613  12.862
51687W        W11190  13.105   1.819  11.976
51688W        W11191  42.823  26.037   0.437
51689W        W11192  23.668  34.413  13.820
51690W        W11193   6.825  27.631   2.736
51691W        W11194  34.078  32.632   2.725
51692W        W11195  27.077  19.745   0.469
51693W        W11196   8.352  17.296   3.268
51694W        W11197  43.782  40.005   3.216
51695W        W11198  31.408  10.732   2.793
51696W        W11199  24.021  18.598  12.430
51697W        W11200  26.951  12.808  11.056
51698W        W11201  44.862  19.761  12.360
51699W        W11202  21.622  19.774  12.042
51700W        W11203  37.956  39.388  12.354
51701W        W11204   1.298  31.563  10.622
51702W        W11205  12.724  40.824  14.820
51703W        W11206  33.572   7.266   3.194
51704W        W11207  27.492  18.567  12.008
51705W        W11208  28.493  41.384   1.254
51706W        W11209  27.080   0.325  11.019
51707W        W11210  39.367  33.878  14.009
51708W        W11211  22.118  18.157   1.316
51709W        W11212  11.750   7.341  12.470
51710W        W11213   4.375  41.932  12.522
51711W        W11214  15.699  26.182  14.348
51712W        W11215  34.065  27.470   0.301
51713W        W11216  37.949   5.198  14.447
51714W        W11217  23.061  38.467  11.886
51715W        W11218   5.290  24.015  11.400
51716W        W11219  17.793  29.631   2.851
51717W        W11220   8.727  17.220   3.769
51718W        W11221   6.738  14.789  12.862
51719W        W11222  34.411  41.035   4.319
51720W        W11223  28.581  22.201  11.508
51721W        W11224  11.359  14.609  11.425
51722W        W11225  13.129   7.824  12.034
51723W        W11226   8.828   6.344  11.566
51724W        W11227  35.372   1.321  13.413
51725W        W11228  37.421   7.241  14.368
51726W        W11229  40.464  22.660   3.861
51727W        W11230  35.083  18.762   3.172
51728W        W11231  16.650   3.852  13.548
51729W        W11232  42.919  34.940  13.316
51730W        W11233  15.679  27.626  10.998
51731W        W11234   3.865  36.406   4.243
51732W        W11235  13.276  35.047  14.974
51733W        W11236  40.445  11.639  13.826
51734W        W11237  27.689  36.857  11.470
51735W        W11238   1.433   1.810   0.464
51736W        W11239  21.733  21.682   2.409
51737W        W11240   0.449  44.395   2.308
51738W        W11241   0.404  36.088  11.448
51739W        W11242  40.945  21.179  13.970
51740W        W11243  34.533  21.157   3.682
51741W        W11244  14.639  14.613   2.758
51742W        W11245   3.897  24.640  12.938
51743W        W11246  14.217  21.661  14.001
51744W        W11247   1.476   0.769  14.402
51745W        W11248  32.586  34.904   4.141
51746W        W11249  37.059  42.024   1.214
51747W        W11250  35.469  23.708  12.932
51748W        W11251  40.867  38.539  11.997
51749W        W11252   7.700  24.227   2.805
51750W        W11253  30.054  23.630  14.941
51751W        W11254  40.983  12.665  11.120
51752W        W11255  29.463  28.558   3.245
51753W        W11256  35.070  16.196   4.813
51754W        W11257  38.495  32.059   3.730
51755W        W11258  11.179   1.862  11.955
51756W        W11259  14.607  32.065  10.420
51757W        W11260  22.074  11.173  14.891
51758W        W11261   5.844   8.894   4.668
51759W        W11262   7.400   9.802   1.935
51760W        W11263  21.756  11.187   3.309
51761W        W11264  12.353  43.461   3.195
51762W        W11265  41.317  42.455  11.608
51763W        W11266   4.733   8.276   1.905
51764W        W11267  19.216  39.349   2.752
51765W        W11268  17.766   3.940   3.238
51766W        W11269  22.016   8.191   3.173
51767W        W11270  27.588  14.627  11.972
51768W        W11271  33.042   5.278   1.859
51769W        W11272  26.675  36.505   1.438
51770W        W11273  12.253   8.798   4.301
51771W        W11274  35.027   6.288   1.389
51772W        W11275  34.417  35.457   3.758
51773W        W11276  20.116  19.707  11.959
51774W        W11277  11.287  21.696   4.280
51775W        W11278  32.637  24.066   4.683
51776W        W11279  44.308  16.699  12.041
51777W        W11280  39.525  37.521  12.056
51778W        W11281  35.438  14.724   1.310
51779W        W11282  24.690  22.169  11.458
51780W        W11283  10.879  32.997  14.809
51781W        W11284   9.250   5.382   1.844
51782W        W11285   4.434  40.046   1.277
51783W        W11286  30.135  29.496   1.414
51784W        W11287  16.569  36.377  13.889
51785W        W11288  21.612  19.247  11.919
51786W        W11289  17.281  17.164  14.300
51787W        W11290  26.963  43.455  11.401
51788W        W11291   1.405  44.278  14.980
51789W        W11292  37.050  10.662   2.212
51790W        W11293   2.421  36.480  11.429
51791W        W11294  41.503   2.803  12.444
51792W        W11295   6.304  40.994  11.053
51793W        W11296  32.454   8.166   1.724
51794W        W11297  11.714   0.797  12.024
51795W        W11298   9.856  19.560   3.797
51796W        W11299  30.438   8.696   4.655
51797W        W11300  23.720   8.315  11.543
51798W        W11301  26.638  25.006  12.988
51799W        W11302  23.150  42.442   3.374
51800W        W11303  39.513  23.229  14.468
51801W        W11304   0.426  36.097   4.749
51802W        W11305  22.504  25.006   1.269
51803W        W11306   3.832  12.687   1.322
51804W        W11307  35.416  13.775   1.404
51805W        W11308  15.650  26.064   3.178
51806W        W11309  39.377   8.681   4.244
51807W        W11310  11.855  19.197   2.694
51808W        W11311  10.252  24.708   1.845
51809W        W11312  19.063  35.978   1.428
51810W        W11313  40.953  35.921   2.879
51811W        W11314  13.614  27.552  14.759
51812W        W11315  38.954  30.457   9.951
51813W        W11316  27.538  43.878   3.328
51814W        W11317  22.224   6.267   1.845
51815W        W11318   1.834  29.603  13.856
51816W        W11319  40.312  39.012  11.105
51817W        W11320  12.295  27.593   0.964
51818W        W11321  31.428   6.839  10.997
51819W        W11322  29.448  20.622  10.948
51820W        W11323  15.708  20.145   0.787
51821W        W11324   5.307  22.111   2.878
51822W        W11325  15.219  22.128  12.077
51823W        W11326  12.263  22.067   3.349
51824W        W11327  18.214  18.249  14.769
51825W        W11328   8.828  34.993   1.316
51826W        W11329   0.969  37.016   4.771
51827W        W11330  24.109  32.972   0.839
51828W        W11331  22.084  28.182   0.731
51829W        W11332  40.882  27.684  13.978
51830W        W11333  26.473   0.288  12.497
51831W        W11334  44.400  40.882  12.924
51832W        W11335   2.374  29.981   5.110
51833W        W11336   5.690  14.653   3.766
51834W        W11337  26.477  44.383   2.742
51835W        W11338  12.680  10.181   2.212
51836W        W11339   9.301  41.320  13.436
51837W        W11340   0.437  27.536  14.798
51838W        W11341  26.028   5.693  11.396
51839W        W11342  15.773  16.216  10.593
51840W        W11343   3.829   9.315   4.675
51841W        W11344  10.817   5.431   0.927
51842W        W11345  31.115  25.678   5.158
51843W        W11346   6.395  44.838   1.848
51844W        W11347  37.410  40.514  13.855
51845W        W11348  39.532   4.278   2.727
51846W        W11349  18.198  11.710  10.888
51847W        W11350  35.533  39.844   2.390
51848W        W11351  19.189  13.153   2.824
51849W        W11352  38.501  15.313  11.560
51850W        W11353  17.276   6.790   3.236
51851W        W11354  12.127  35.013   5.190
51852W        W11355  43.830  36.994  12.896
51853W        W11356  36.855  25.604   4.239
51854W        W11357  26.658  17.195   0.766
51855W        W11358  31.623  43.376  10.956
51856W        W11359  35.017  19.636  11.413
51857W        W11360  11.369  41.013   1.840
51858W        W11361  10.711  21.132   2.257
51859W        W11362  27.099   3.330   1.363
51860W        W11363  35.419  38.990  12.831
51861W        W11364  39.528  32.428  10.492
51862W        W11365  13.183  31.478  12.866
51863W        W11366   7.726   3.344   1.361
51864W        W11367  32.919  18.597   1.725
51865W        W11368  41.420  30.080   2.182
51866W        W11369  37.861  14.785   3.271
51867W        W11370  34.103  30.419   4.225
51868W        W11371  28.577  15.594  13.860
51869W        W11372  24.570  25.480   2.375
51870W        W11373  17.611   0.777   4.180
51871W        W11374  31.588   9.675  13.841
51872W        W11375  37.082  14.660  11.413
51873W        W11376  19.243   0.486   4.649
51874W        W11377  27.612  11.641   1.705
51875W        W11378   2.903  41.901   3.242
51876W        W11379  12.612  14.154  11.429
51877W        W11380  30.985  28.947  12.412
51878W        W11381  32.539  15.692  12.849
51879W        W11382  37.399  28.647  10.990
51880W        W11383  11.326  17.090   4.206
51881W        W11384  15.298   6.191   3.262
51882W        W11385  37.547  31.003  12.846
51883W        W11386   4.314  16.696   3.163
51884W        W11387  33.884  13.341  10.134
51885W        W11388  32.482  23.706  10.996
51886W        W11389  13.200  43.772   0.288
51887W        W11390  22.218  15.186  13.514
51888W        W11391  22.615  35.489   3.327
51889W        W11392   2.935  42.474  12.074
51890W        W11393  24.719  22.096  13.363
51891W        W11394   0.942  12.256  13.889
51892W        W11395   0.765  24.676   0.892
51893W        W11396   0.303  40.534   2.418
51894W        W11397  22.689   9.799   4.183
51895W        W11398  11.172   8.294  14.932
51896W        W11399   7.679  32.999  13.410
51897W        W11400  41.870  13.336  12.381
51898W        W11401  13.141  26.979   2.882
51899W        W11402   0.352  39.505  10.598
51900W        W11403  25.698  37.992   2.358
51901W        W11404  27.007  16.129   3.756
51902W        W11405   9.175  16.682  12.381
51903W        W11406  15.652  16.670  10.050
51904W        W11407  10.297  27.951   3.729
51905W        W11408  38.485  38.332  11.863
51906W        W11409  22.716   5.708  13.829
51907W        W11410  28.611  31.114   0.794
51908W        W11411  37.444  17.608   3.851
51909W        W11412  13.614  36.401  12.436
51910W        W11413   8.209   0.304   1.393
51911W        W11414  38.998  11.327   1.907
51912W        W11415  37.444   9.246  10.579
51913W        W11416  13.260  12.813   2.331
51914W        W11417  21.135  13.629  12.958
51915W        W11418   8.186  37.020   3.652
51916W        W11419  24.497  17.693  12.994
51917W        W11420  15.128  21.090   2.759
51918W        W11421  35.544  15.308  10.524
51919W        W11422  42.307   4.371   2.249
51920W        W11423  10.789  19.680   4.648
51921W        W11424  30.486  38.020   2.815
51922W        W11425   3.895   2.815   3.857
51923W        W11426  23.241   5.271   3.870
51924W        W11427  41.363   3.443   1.380
51925W        W11428   1.378  23.179   4.684
51926W        W11429   4.911  34.889   0.450
51927W        W11430  12.208  36.369   0.876
51928W        W11431  22.126   6.878   2.736
51929W        W11432  20.523  40.030   2.723
51930W        W11433  26.196  38.544   2.841
51931W        W11434  29.982  10.834   0.812
51932W        W11435  19.053  36.967  12.009
51933W        W11436  14.746   7.291  13.351
51934W        W11437   4.251  35.964  10.926
51935W        W11438  38.455  21.227   0.930
51936W        W11439  23.597   7.384  10.972
51937W        W11440   4.241  10.368  12.951
51938W        W11441  14.775  13.314   1.799
51939W        W11442   8.757  29.145  14.903
51940W        W11443  17.224  16.813   0.752
51941W        W11444  34.412   2.291   2.673
51942W        W11445   3.361  33.103   2.210
51943W        W11446  22.240  41.529  14.364
51944W        W11447  36.939  25.124   4.305
51945W        W11448  39.058   9.825   2.826
51946W        W11449   3.315  19.689  12.830
51947W        W11450   6.329  18.575   4.765
51948W        W11451   8.756  42.847  12.481
51949W        W11452  28.054   5.875  12.073
51950W        W11453  31.446  14.187  10.408
51951W        W11454  29.987  32.002  13.541
51952W        W11455   7.891  17.645  13.367
51953W        W11456  39.378  41.396   2.304
51954W        W11457  36.564  29.528   4.810
51955W        W11458  27.504   7.780   1.743
51956W        W11459  16.078  42.941   0.759
51957W        W11460   1.861   0.856  11.880
51958W        W11461  31.101  18.199   0.451
51959W        W11462  20.234  36.384  14.772
51960W        W11463  42.337  42.318  11.066
51961W        W11464  15.194   8.897  10.444
51962W        W11465  42.521  24.488   1.702
51963W        W11466  41.979  24.660  12.071
51964W        W11467  25.607  28.668   1.905
51965W        W11468  10.764  28.112   4.326
51966W        W11469   3.751  22.175   1.395
51967W        W11470  11.199  36.541  13.536
51968W        W11471  13.108  19.594   2.410
51969W        W11472  10.327  16.712  14.297
51970W        W11473   6.319  30.431  14.004
51971W        W11474  41.843   9.803   0.897
51972W        W11475   1.841  20.587  12.001
51973W        W11476  34.442  10.223   1.747
51974W        W11477  39.997  43.770   4.223
51975W        W11478  41.042  24.593   4.675
51976W        W11479   5.775  42.935   0.851
51977W        W11480  18.148  30.593   0.373
51978W        W11481  22.006  13.299  14.308
51979W        W11482  12.619  10.226   0.477
51980W        W11483  40.036  27.597  10.976
51981W        W11484  43.931  34.069   2.681
51982W        W11485  32.139  42.426   3.278
51983W        W11486  25.561  27.633  14.995
51984W        W11487  30.076  32.062  11.081
51985W        W11488   1.937  17.586   1.231
51986W        W11489  35.478  17.077   4.692
51987W        W11490   7.314  18.720   0.832
51988W        W11491   4.742  17.664   3.347
51989W        W11492  16.171   1.759  12.438
51990W        W11493  41.356  13.285  11.556
51991W        W11494  30.470  30.920   2.774
51992W        W11495   9.256  33.487   2.338
51993W        W11496  25.062  42.512   0.763
51994W        W11497   8.390  43.998  11.931
51995W        W11498   3.443  25.577   2.682
51996W        W11499   5.363  10.740  13.332
51997W        W11500  44.501  44.930   0.853
51998W        W11501   3.416  17.619  11.959
51999W        W11502  41.984  44.315  11.593
52000W        W11503   2.871  43.882   4.755
52001W        W11504   9.151   9.770  14.509
52002W        W11505  17.744  16.690  12.435
52003W        W11506  41.876  40.486   0.798
52004W        W11507  29.569  40.414   4.163
52005W        W11508  18.122  32.476   3.342
52006W        W11509   4.821  31.899  11.913
52007W        W11510  18.710  22.071  12.479
52008W        W11511   8.833  18.063   2.729
52009W        W11512  41.504   4.419  12.937
52010W        W11513  32.617  12.123   2.333
52011W        W11514  42.366  32.539   1.321
52012W        W11515  24.560  33.488   4.610
52013W        W11516  12.267  16.256   1.358
52014W        W11517  20.575  32.046  11.110
52015W        W11518   8.395  38.961   3.369
52016W        W11519  25.024  43.976  12.456
52017W        W11520  35.989  26.137   3.171
52018W        W11521  35.068  34.050  10.631
52019W        W11522   6.314   7.342  11.065
52020W        W11523   1.953  37.409  10.510
52021W        W11524  31.132  39.958   5.188
52022W        W11525  15.101  44.423  10.022
52023W        W11526  35.939  23.233  12.384
52024W        W11527  17.775  36.859  11.873
52025W        W11528  25.494   9.836   1.233
52026W        W11529  13.773  31.935  14.826
52027W        W11530   1.302  26.533  12.916
52028W        W11531  20.130  23.107  11.462
52029W        W11532  39.863  13.838  14.479
52030W        W11533   1.977  22.157  13.938
52031W        W11534   4.443  42.877   2.405
52032W        W11535  25.103  43.980   0.338
52033W        W11536  16.806  30.542   2.719
52034W        W11537   1.941   1.266   3.750
52035W        W11538  17.290   8.335  11.482
52036W        W11539   9.223  38.023   4.352
52037W        W11540   1.330  10.651   1.919
52038W        W11541  37.506  40.954  11.452
52039W        W11542  34.929   2.952   4.708
52040W        W11543  29.028  38.950  11.934
52041W        W11544  15.663  23.237   2.670
52042W        W11545   7.834   6.335  13.520
52043W        W11546  25.179   7.301   4.781
52044W        W11547  36.886  15.173   0.885
52045W        W11548   0.941  15.806  11.898
52046W        W11549  33.494   6.217  14.420
52047W        W11550  16.674   5.337   3.858
52048W        W11551  23.512  41.336  10.509
52049W        W11552  39.343  15.112  13.983
52050W        W11553   9.317  18.687  12.429
52051W        W11554  27.584  41.875   0.956
52052W        W11555  26.511  22.072  12.007
52053W        W11556  14.736  15.810   9.934
52054W        W11557  35.057  29.998   1.910
52055W        W11558  40.509  16.311  11.965
52056W        W11559  26.465  39.028   1.263
52057W        W11560  26.520  12.838  11.886
52058W        W11561  42.775  33.513   5.286
52059W        W11562  33.083  10.367   1.826
52060W        W11563  31.629  28.650  13.314
52061W        W11564  19.543  33.087   4.761
52062W        W11565   0.255  14.271  11.542
52063W        W11566  36.952  34.513  10.422
52064W        W11567  43.420   5.407   2.668
52065W        W11568  30.992  16.651   1.806
52066W        W11569  15.735  40.868   1.447
52067W        W11570  33.485  39.813   0.382
52068W        W11571   4.711  14.818  14.400
52069W        W11572  13.162   5.363   1.932
52070W        W11573  41.468   2.831  14.426
52071W        W11574   8.658  37.076  12.406
52072W        W11575  18.183  16.266   1.262
52073W        W11576  25.609  11.788  14.368
52074W        W11577  20.067  25.634   2.252
52075W        W11578  18.758  25.068  10.486
52076W        W11579  42.379  27.636   0.765
52077W        W11580  25.624  43.425   2.398
52078W        W11581   5.347  11.129   4.708
52079W        W11582   5.794  22.578   2.228
52080W        W11583  20.719  29.439  10.406
52081W        W11584  11.654  20.686  13.921
52082W        W11585  13.336   4.364  14.384
52083W        W11586  20.573   3.417   4.197
52084W        W11587  40.964   7.859  13.363
52085W        W11588   3.760  26.695  13.024
52086W        W11589  35.920  21.164   4.306
52087W        W11590  13.321  34.921   4.742
52088W        W11591  40.051  37.461   1.405
52089W        W11592   7.380  44.863   2.886
52090W        W11593  15.761  33.110   3.640
52091W        W11594  34.978  20.706   3.746
52092W        W11595  12.315  29.068   3.848
52093W        W11596  41.310  18.650  11.461
52094W        W11597   2.411   2.748   3.807
52095W        W11598   8.679  16.801  14.026
52096W        W11599  44.853  28.146  12.911
52097W        W11600  43.303  31.121   4.608
52098W        W11601  28.094  12.285  13.830
52099W        W11602  43.764  34.607  12.939
52100W        W11603  29.017  14.832  11.444
52101W        W11604  44.866   4.309   4.638
52102W        W11605  10.212  37.497  10.046
52103W        W11606  42.027   1.396   1.743
52104W        W11607  29.157   5.745  14.405
52105W        W11608  27.445  20.057  13.986
52106W        W11609   6.258  38.899   4.155
52107W        W11610   7.192  33.382   0.446
52108W        W11611   8.681  42.003  14.027
52109W        W11612  32.131   6.711   0.333
52110W        W11613  14.124  37.433   1.321
52111W        W11614  37.987  18.196  13.923
52112W        W11615  24.610  32.404  10.618
52113W        W11616  24.102  22.565  10.904
52114W        W11617   7.677  33.908  13.341
52115W        W11618  10.252   2.417  14.886
52116W        W11619   2.464  20.608  10.993
52117W        W11620  33.921  35.920   3.201
52118W        W11621  31.984  12.846  13.489
52119W        W11622   7.337  27.635   1.796
52120W        W11623  14.277  17.760  13.489
52121W        W11624  22.996  21.544  13.028
52122W        W11625  14.672   2.738  13.334
52123W        W11626  29.079  20.619   0.954
52124W        W11627  10.748  37.834   2.844
52125W        W11628  21.201  39.451   0.263
52126W        W11629  40.928   0.468   4.785
52127W        W11630  12.782  20.719   3.799
52128W        W11631   3.715  29.615   2.811
52129W        W11632  27.500  16.285   0.771
52130W        W11633   9.758   4.317  12.061
52131W        W11634  20.160  14.672  14.484
52132W        W11635   3.431   3.233  10.910
52133W        W11636  28.954  34.578  13.795
52134W        W11637   9.262  11.131  13.341
52135W        W11638  36.943  15.178  13.323
52136W        W11639  25.489   0.400  12.984
52137W        W11640  31.556  23.717   3.320
52138W        W11641  35.919  26.116   4.624
52139W        W11642  20.655   7.789  13.927
52140W        W11643  40.803  30.153   3.385
52141W        W11644  25.161  14.137  13.367
52142W        W11645   3.302  13.218   4.614
52143W        W11646  35.856  16.670  11.605
52144W        W11647   3.859  31.025   2.879
52145W        W11648   6.411  38.882  10.454
52146W        W11649  33.031  37.345  12.551
52147W        W11650  11.326   4.788  12.577
52148W        W11651  12.287   2.401   2.300
52149W        W11652   1.315   3.750   1.386
52150W        W11653  29.476  29.155  13.387
52151W        W11654  11.211  12.339  14.011
52152W        W11655  27.627  26.642   9.994
52153W        W11656  18.630   5.228   0.414
52154W        W11657  40.809   9.245  12.033
52155W        W11658   2.250  30.443  11.429
52156W        W11659  30.539  36.540  14.015
52157W        W11660  15.129  16.796  12.059
52158W        W11661  23.053  19.180  14.328
52159W        W11662  12.119   2.331  14.339
52160W        W11663  27.061   1.290   0.890
52161W        W11664  11.854  32.472   3.198
52162W        W11665  36.470  18.681   3.787
52163W        W11666  29.944  37.344   2.857
52164W        W11667  26.014   7.809   3.774
52165W        W11668  11.242  40.941   3.379
52166W        W11669   5.320  25.673   0.793
52167W        W11670  22.074  17.174  13.322
52168W        W11671  25.577  12.683  10.999
52169W        W11672  36.484   5.205  13.477
52170W        W11673  43.330  30.924  12.027
52171W        W11674  36.015  27.590  13.509
52172W        W11675   3.237  16.682   3.835
52173W        W11676   8.305  17.642   2.746
52174W        W11677   0.835   2.299   3.324
52175W        W11678  36.967  21.589   0.776
52176W        W11679  28.512  22.151   3.705
52177W        W11680  31.614  40.454  11.521
52178W        W11681  16.164  32.463  12.393
52179W        W11682   2.771  44.339  13.433
52180W        W11683  27.480  22.600  11.093
52181W        W11684   9.833   0.979  14.862
52182W        W11685  24.568  15.594  10.477
52183W        W11686  26.964  44.365   0.336
52184W        W11687   8.745   0.265   3.758
52185W        W11688  18.738   4.448  13.496
52186W        W11689  18.227  24.594   4.834
52187W        W11690  41.830  10.202  10.103
52188W        W11691  27.641  21.570  13.384
52189W        W11692   6.865  19.188  11.514
52190W        W11693   0.939  42.933   0.952
52191W        W11694  28.636  10.180   3.787
52192W        W11695  20.670  35.415   1.258
52193W        W11696  18.710  38.349  13.790
52194W        W11697  25.524  43.393  12.527
52195W        W11698  38.544  34.614   2.837
52196W        W11699  14.290  27.140   4.751
52197W        W11700   8.233   0.300   0.472
52198W        W11701  35.928  18.666  12.451
52199W        W11702  27.133  40.842   0.329
52200W        W11703  35.970  25.116   1.443
52201W        W11704  38.566  23.191   4.288
52202W        W11705   4.699  11.173   4.715
52203W        W11706  28.549   2.225  10.449
52204W        W11707  18.200  26.190  11.108
52205W        W11708  28.460   9.675   3.349
52206W        W11709  35.599  31.081   2.851
52207W        W11710  12.848  38.902   0.792
52208W        W11711  31.012  40.529   0.417
52209W        W11712  10.830   9.816  12.097
52210W        W11713   3.840  12.752   0.334
52211W        W11714  10.816  21.027  10.434
52212W        W11715  43.338   4.383  10.411
52213W        W11716  25.155  12.618  13.950
52214W        W11717  27.624   0.287  12.031
52215W        W11718   6.750  14.199   3.320
52216W        W11719  43.501  28.024  11.400
52217W        W11720  25.095  38.943  13.977
52218W        W11721  25.125   0.340   3.228
52219W        W11722  24.119   7.848   1.851
52220W        W11723  27.667  17.085  10.553
52221W        W11724   1.883   7.188  14.013
52222W        W11725  12.184   4.208   1.700
52223W        W11726  23.547  37.478  13.893
52224W        W11727  42.308   9.305  13.949
52225W        W11728  14.296  25.067   1.269
52226W        W11729  19.566  10.802  14.385
52227W        W11730   9.793   4.433   4.141
52228W        W11731  15.182  22.582   0.324
52229W        W11732  43.796  10.357   3.248
52230W        W11733  27.114  36.986  14.817
52231W        W11734   7.907  41.393   3.234
52232W        W11735  39.954  22.597  14.909
52233W        W11736  37.576  34.914   0.769
52234W        W11737  28.469  35.098   2.765
52235W        W11738  18.747  39.560   3.270
52236W        W11739  18.076  35.435   3.722
52237W        W11740  43.430   5.753   2.200
52238W        W11741  30.161   8.160   1.741
52239W        W11742  12.791  10.739   0.384
52240W        W11743  28.173  35.537   1.846
52241W        W11744  29.646  22.228   3.245
52242W        W11745  19.585  23.660  10.597
52243W        W11746   4.376  18.097   3.815
52244W        W11747   2.471   3.886  12.461
52245W        W11748  18.613  11.741   9.972
52246W        W11749  38.567  13.130   4.196
52247W        W11750   9.794   3.937   3.186
52248W        W11751  16.576  27.039   3.288
52249W        W11752   4.353  37.441  11.972
52250W        W11753  42.955  23.189   0.398
52251W        W11754  33.566  43.962  12.941
52252W        W11755  32.553  14.221   3.260
52253W        W11756  27.052  19.740  13.827
52254W        W11757   6.837   4.799   2.746
52255W        W11758  14.286  32.140  10.045
52256W        W11759  32.108   8.363  12.878
52257W        W11760  15.758   6.311  14.006
52258W        W11761  19.552  30.024  11.497
52259W        W11762  32.954  24.547   2.235
52260W        W11763   0.425  28.003   0.815
52261W        W11764  15.194  30.093  13.795
52262W        W11765  39.338  23.568  12.039
52263W        W11766  44.959   7.375  14.000
52264W        W11767  14.815  22.652   4.769
52265W        W11768  37.424  14.800  11.994
52266W        W11769  32.437   5.389  12.456
52267W        W11770  31.549  36.902   3.380
52268W        W11771  36.431  41.953  12.039
52269W        W11772  18.564  43.285  12.423
52270W        W11773  38.074  19.215  13.894
52271W        W11774  10.375  32.939   5.600
52272W        W11775  11.141  38.415   2.676
52273W        W11776  11.301  23.582  12.573
52274W        W11777  26.613  37.520  10.042
52275W        W11778  30.052  21.124  14.281
52276W        W11779  36.461   8.715  10.921
52277W        W11780  28.018  12.693   3.787
52278W        W11781  21.603  17.067   4.149
52279W        W11782  35.012  27.999   1.752
52280W        W11783  44.263  10.379  11.980
52281W        W11784  31.951  15.616   5.110
52282W        W11785   7.747  16.618   0.256
52283W        W11786  24.020  39.942  12.365
52284W        W11787  34.456   5.924   4.743
52285W        W11788   9.234   3.456   4.825
52286W        W11789  29.094  30.487   1.930
52287W        W11790  16.168  11.230   3.743
52288W        W11791  16.789  44.477  14.996
52289W        W11792  31.088  40.826   1.398
52290W        W11793  16.777  31.446  11.493
52291W        W11794  23.548  17.787   1.284
52292W        W11795  19.654   8.292   4.209
52293W        W11796  12.170  34.545   3.817
52294W        W11797  31.508  10.311  10.541
52295W        W11798   6.357  29.100   0.450
52296W        W11799  21.182  18.275  13.316
52297W        W11800  36.491  21.681   4.203
52298W        W11801  24.539  32.112  14.840
52299W        W11802  23.696  37.432   3.305
52300W        W11803  13.825  43.349  14.915
52301W        W11804   9.738  13.638  14.804
52302W        W11805  17.638  12.320   0.827
52303W        W11806  18.263  34.058  11.869
52304W        W11807   6.298  33.553  13.319
52305W        W11808  18.202  40.937   4.713
52306W        W11809   0.467  26.034   1.738
52307W        W11810   1.269  21.681   0.949
52308W        W11811  42.835  30.128   4.282
52309W        W11812  44.398  17.664   4.185
52310W        W11813  31.552  26.676   0.262
52311W        W11814  21.139  19.214   1.907
52312W        W11815  28.979  36.352  14.493
52313W        W11816  20.107  29.066   1.852
52314W        W11817  18.738  43.355  14.471
52315W        W11818  13.178  10.363   4.266
52316W        W11819   1.357  23.225  11.412
52317W        W11820   4.871  27.604  13.860
52318W        W11821  19.093   0.835  11.511
52319W        W11822  44.366  11.712   1.294
52320W        W11823  42.333  38.473   1.833
52321W        W11824  38.980   4.755   4.161
52322W        W11825  23.702  28.175  12.980
52323W        W11826  43.305  18.688  13.495
52324W        W11827  29.560  31.930  12.921
52325W        W11828   8.267  38.980  10.593
52326W        W11829  17.674  21.695   3.787
52327W        W11830   8.175  28.624  12.975
52328W        W11831  10.743   8.754   3.356
52329W        W11832   2.746  40.852   4.642
52330W        W11833  22.742  43.394  13.965
52331W        W11834   5.709  10.271  12.029
52332W        W11835   8.691  15.783   0.817
52333W        W11836   8.706  20.610  14.029
52334W        W11837  43.781  18.781   2.787
52335W        W11838  39.917  37.398   0.294
52336W        W11839  42.843  26.572  14.364
52337W        W11840  10.218  35.593   2.888
52338W        W11841  35.481  30.567   1.423
52339W        W11842  24.506   0.948   1.785
52340W        W11843  25.650  35.916   2.288
52341W        W11844  36.558  42.440   4.148
52342W        W11845   9.868  23.196   2.728
52343W        W11846  38.345  12.777   0.924
52344W        W11847  14.192  34.025  10.132
52345W        W11848   4.842  29.999   0.364
52346W        W11849   2.950  43.317   0.267
52347W        W11850  19.576  29.091  10.138
52348W        W11851  31.968  12.671  14.007
52349W        W11852  27.116  15.281   0.315
52350W        W11853  29.966  13.218  14.430
52351W        W11854   5.829  11.232  14.982
52352W        W11855  26.673  33.922   0.481
52353W        W11856  22.681   5.859  13.485
52354W        W11857  23.001  44.337   9.609
52355W        W11858  41.040  17.136  13.909
52356W        W11859  32.101  30.978   4.809
52357W        W11860   1.843  29.006   0.344
52358W        W11861  18.114   2.341   1.430
52359W        W11862   1.434  22.721  12.526
52360W        W11863   1.919  28.078  13.483
52361W        W11864  14.098  14.318   1.334
52362W        W11865  36.446   1.309   2.701
52363W        W11866  22.667  25.199  14.455
52364W        W11867  23.092  13.308  12.839
52365W        W11868  15.259  31.971   0.870
52366W        W11869  17.307  31.071   0.298
52367W        W11870  22.133  11.779   0.399
52368W        W11871   7.847  20.673  13.809
52369W        W11872  43.478  24.030   4.319
52370W        W11873  22.687  13.719  11.554
52371W        W11874  24.185  36.457   0.387
52372W        W11875  17.610  28.617   3.761
52373W        W11876   1.737  22.165   3.254
52374W        W11877   7.791  42.453  10.515
52375W        W11878  33.593  15.144   3.685
52376W        W11879  19.134  19.775  13.871
52377W        W11880  13.752  26.619   0.799
52378W        W11881   4.887  33.540  14.473
52379W        W11882  37.035  17.557   0.372
52380W        W11883  40.970  14.177   1.800
52381W        W11884  17.635   2.774   1.365
52382W        W11885   2.248  24.156   4.632
52383W        W11886  39.359  31.947   4.289
52384W        W11887   3.429  23.532  11.021
52385W        W11888  11.290  19.676  11.990
52386W        W11889   7.288   9.150   3.344
52387W        W11890  35.596  18.096   3.644
52388W        W11891  39.831  10.302   2.346
52389W        W11892  12.294  42.293   1.388
52390W        W11893   9.372   9.234   1.306
52391W        W11894  31.554  10.260   3.682
52392W        W11895  19.684   0.374   0.355
52393W        W11896   0.862  25.104   3.233
52394W        W11897  22.161  16.742  10.634
52395W        W11898  37.469   2.257  10.949
52396W        W11899   3.350   8.292  11.120
52397W        W11900   2.797  42.887  13.047
52398W        W11901  37.343  18.195   1.227
52399W        W11902  10.639  24.704   2.888
52400W        W11903  16.235  15.203  14.957
52401W        W11904  40.472  18.280  11.438
52402W        W11905   7.870  14.638   3.783
52403W        W11906  41.866   9.227  14.950
52404W        W11907  19.696  39.998   4.174
52405W        W11908  20.535  43.422  10.931
52406W        W11909  17.222  44.408  12.418
52407W        W11910  16.710  23.569  12.906
52408W        W11911  12.295  10.308  13.038
52409W        W11912  44.865  37.891   0.443
52410W        W11913  14.273  36.035   2.262
52411W        W11914  37.074  29.564   4.298
52412W        W11915  34.867  40.824  12.439
52413W        W11916  10.749   2.761   4.781
52414W        W11917  30.605   3.380  14.766
52415W        W11918  23.192  21.019  12.577
52416W        W11919  32.979   7.696  10.532
52417W        W11920   5.382  25.113   5.278
52418W        W11921  43.427  27.003   9.492
52419W        W11922   1.287  30.922   0.297
52420W        W11923  15.210  15.585  12.922
52421W        W11924  30.622  14.305  12.967
52422W        W11925   7.884  18.759   0.268
52423W        W11926  11.282  29.976   1.331
52424W        W11927  10.324  41.928   4.699
52425W        W11928  14.781  33.536  13.935
52426W        W11929  33.102  19.735  14.410
52427W        W11930  37.968  32.402   3.346
52428W        W11931  39.555  34.971   9.958
52429W        W11932  43.304  25.168   1.832
52430W        W11933  29.453   0.758  14.395
52431W        W11934  29.636  23.717   2.896
52432W        W11935  42.484  34.413   4.303
52433W        W11936  17.762  40.432   1.794
52434W        W11937  30.565  20.195  12.948
52435W        W11938  18.627  10.730   1.278
52436W        W11939  18.078  25.035  12.482
52437W        W11940   9.788  16.295  10.566
52438W        W11941  21.153  27.146  13.008
52439W        W11942  36.017  12.290   2.234
52440W        W11943   5.807   7.747  13.474
52441W        W11944   2.397  41.924   1.255
52442W        W11945  41.362  31.505   3.674
52443W        W11946  12.234  20.625   2.355
52444W        W11947   0.874   6.901   0.932
52445W        W11948   7.259  38.351  14.764
52446W        W11949  15.683   2.269  12.512
52447W        W11950   6.327  10.236  12.489
52448W        W11951  38.548   4.370  11.895
52449W        W11952  42.361   1.252  10.904
52450W        W11953  32.480  18.073  13.331
52451W        W11954  34.947  31.109   2.810
52452W        W11955   6.731   8.687  11.990
52453W        W11956  19.280  42.334  12.843
52454W        W11957  13.671   5.290   3.321
52455W        W11958  17.732  13.620   2.691
52456W        W11959  10.246  41.295  11.483
52457W        W11960  20.537   5.230  12.835
52458W        W11961  35.412  26.679  12.054
52459W        W11962  13.617  38.422  10.950
52460W        W11963  29.669  10.307   0.963
52461W        W11964  21.632  16.584  13.909
52462W        W11965  38.564  42.019  13.845
52463W        W11966  37.008  32.971   4.627
52464W        W11967  11.310  20.617  13.363
52465W        W11968   6.827  14.787   2.873
52466W        W11969   1.382   0.827  11.043
52467W        W11970   6.327  27.528   4.720
52468W        W11971  17.783  22.144   1.792
52469W        W11972  17.275   5.702   2.808
52470W        W11973  23.092  42.323  12.896
52471W        W11974   5.362  12.625   2.404
52472W        W11975  23.512  22.227   4.314
52473W        W11976  37.987  28.040   0.919
52474W        W11977  14.213  33.108   3.259
52475W        W11978  17.234  43.438   3.771
52476W        W11979  37.891   5.249   0.288
52477W        W11980  18.636  37.049  10.950
52478W        W11981   7.708  26.202  12.856
52479W        W11982  42.504  28.114   0.390
52480W        W11983  15.164  14.244   0.768
52481W        W11984  32.894  32.952   3.224
52482W        W11985  22.568  37.002   2.713
52483W        W11986  35.388  32.601   2.237
52484W        W11987  32.408  31.518  12.903
52485W        W11988  44.389   9.229   3.257
52486W        W11989  31.615  16.762  12.836
52487W        W11990  23.074  34.063  10.612
52488W        W11991  15.618  15.237  11.510
52489W        W11992  35.496  28.996   3.775
52490W        W11993  30.954   0.874  12.081
52491W        W11994   2.945  43.011   4.825
52492W        W11995  12.227  27.075   1.286
52493W        W11996  12.660  21.622  11.079
52494W        W11997  36.400  34.592   0.912
52495W        W11998   9.676  24.196   2.348
52496W        W11999  22.516   3.950  11.990
52497W        W12000  25.991  19.220   2.770
52498W        W12001  11.631  42.917  12.431
52499W        W12002  42.358   6.370  12.455
52500W        W12003  43.448  16.598  10.961
52501W        W12004  38.483  13.710  13.313
52502W        W12005  44.889  41.947  12.921
52503W        W12006   5.804  44.897   3.250
52504W        W12007   6.348  20.555  10.924
52505W        W12008  27.002   8.282   3.812
52506W        W12009   0.966  39.857  11.083
52507W        W12010  12.352   7.728  12.454
52508W        W12011   7.804   6.875  12.532
52509W        W12012  42.920   6.788   5.228
52510W        W12013  27.177  26.175  13.526
52511W        W12014   1.444  35.880   1.240
52512W        W12015   1.798   5.731   2.688
52513W        W12016  19.060  16.231  14.332
52514W        W12017  41.997  44.440  13.352
52515W        W12018  36.958  25.526   0.352
52516W        W12019  24.081  31.038   2.842
52517W        W12020  34.611  37.883   3.821
52518W        W12021   8.852  17.167   5.082
52519W        W12022  31.478   2.743   0.734
52520W        W12023  25.473  16.774  13.434
52521W        W12024   1.863  27.690   9.515
52522W        W12025   7.727  32.580  10.605
52523W        W12026  38.852  15.266  12.938
52524W        W12027   1.302  29.448   0.283
52525W        W12028   2.398   8.276  12.375
52526W        W12029  41.884  20.642  14.312
52527W        W12030  19.676  25.688   3.342
52528W        W12031  10.220  11.718  12.936
52529W        W12032   5.788   2.890  14.812
52530W        W12033  36.922  37.458  13.800
52531W        W12034  39.553  44.377  13.310
52532W        W12035  13.338  44.764   1.847
52533W        W12036   9.288  22.243   4.748
52534W        W12037  37.038   6.335   9.942
52535W        W12038  27.573  18.613  10.458
52536W        W12039   7.215  10.861  10.446
52537W        W12040  21.610  18.101   1.226
52538W        W12041   9.158   5.286   3.738
52539W        W12042  37.041  21.636   2.182
52540W        W12043  11.211  41.354   2.199
52541W        W12044  15.780  32.475   3.372
52542W        W12045  25.019  40.506   4.349
52543W        W12046  42.854  16.756   2.778
52544W        W12047  27.139  16.206  12.080
52545W        W12048  40.415  18.598   3.801
52546W        W12049  30.044  10.715   5.297
52547W        W12050  36.930  34.379  12.352
52548W        W12051  44.334  40.880   3.684
52549W        W12052  43.947   6.427   0.917
52550W        W12053  42.410  25.525   4.777
52551W        W12054  34.042  32.567  13.825
52552W        W12055  30.990  11.841   4.725
52553W        W12056  36.958  36.383  10.604
52554W        W12057  36.090  11.656  10.988
52555W        W12058  29.105  34.369  11.043
52556W        W12059   0.397  28.535  11.887
52557W        W12060  36.447  40.422  12.368
52558W        W12061   7.176   2.250   4.211
52559W        W12062  33.070  22.056  12.391
52560W        W12063  30.447  18.556  10.993
52561W        W12064  16.604  16.716  12.014
52562W        W12065  44.006  34.952   1.326
52563W        W12066  33.046  44.390  12.825
52564W        W12067  28.546   1.943   4.330
52565W        W12068  38.047   2.809   0.758
52566W        W12069  43.863  18.081  10.582
52567W        W12070  15.624  18.659   1.708
52568W        W12071  17.066  43.769  14.860
52569W        W12072  29.471  27.081  12.964
52570W        W12073  31.432  16.711  11.600
52571W        W12074   3.241  43.440  13.927
52572W        W12075   5.330   7.893  14.391
52573W        W12076  38.048  38.955  13.856
52574W        W12077  20.110  33.939  12.066
52575W        W12078  30.505  28.605   4.677
52576W        W12079  10.334  14.116   0.955
52577W        W12080  32.627  42.830   2.272
52578W        W12081   6.770   9.378   4.142
52579W        W12082  18.788  43.974  11.880
52580W        W12083  35.108  13.794  14.450
52581W        W12084  33.460  23.236   3.720
52582W        W12085  40.025   7.668   0.467
52583W        W12086  34.481   9.160  14.802
52584W        W12087   6.252  19.641   0.920
52585W        W12088  34.513  25.191  11.986
52586W        W12089  27.484   7.709  14.807
52587W        W12090  27.043  44.902   3.761
52588W        W12091  29.627  15.140  14.323
52589W        W12092  42.787  12.822  10.084
52590W        W12093  23.145  42.832   0.918
52591W        W12094   7.789  26.116  13.311
52592W        W12095   1.774   1.967   0.399
52593W        W12096  23.107  40.811  13.434
52594W        W12097   5.289  36.567  11.374
52595W        W12098  10.223  17.183   3.690
52596W        W12099   7.902  14.797   1.842
52597W        W12100  25.205  14.157  14.483
52598W        W12101  21.705  17.109   1.226
52599W        W12102   1.881  10.647   4.670
52600W        W12103   5.407  39.379  13.030
52601W        W12104  42.786  40.396  10.935
52602W        W12105  43.312  30.446   0.937
52603W        W12106  19.071  10.710  10.468
52604W        W12107   9.880   4.838   2.360
52605W        W12108   0.295  19.723   1.310
52606W        W12109   6.728   2.883  10.607
52607W        W12110   0.333  30.573  14.382
52608W        W12111  37.474  20.103  14.468
52609W        W12112  29.145  11.755   0.799
52610W        W12113  32.564  35.483   0.348
52611W        W12114  37.007   0.958  10.439
52612W        W12115  24.051  17.768   1.427
52613W        W12116  33.915  22.184   4.831
52614W        W12117  29.145  26.673  11.074
52615W        W12118  34.990  19.155  14.026
52616W        W12119   2.828  17.255  10.939
52617W        W12120  31.927   6.244   3.271
52618W        W12121  16.722  12.157   2.814
52619W        W12122  24.628  32.995   1.392
52620W        W12123   2.839   4.789  12.923
52621W        W12124  24.065  14.271  14.432
52622W        W12125  23.228  34.486  14.290
52623W        W12126  28.132   1.388   2.702
52624W        W12127  12.185  28.011  14.918
52625W        W12128   4.817  14.744  12.383
52626W        W12129  34.015   4.799  11.092
52627W        W12130  34.967  27.124   3.695
52628W        W12131   0.951  22.163   3.161
52629W        W12132  25.099  24.152   4.774
52630W        W12133  16.252  30.450  13.426
52631W        W12134  28.492  26.488   4.187
52632W        W12135   6.196   6.722  11.069
52633W        W12136   3.944  29.939   3.652
52634W        W12137  42.975  41.939   3.702
52635W        W12138  22.568  10.697   0.942
52636W        W12139   6.422  32.085   1.781
52637W        W12140   8.720  16.297   0.868
52638W        W12141  18.271  19.688   1.757
52639W        W12142  34.035  19.045  10.443
52640W        W12143   7.218  28.609  11.967
52641W        W12144  41.302  20.272  13.318
52642W        W12145  34.520  33.611   1.786
52643W        W12146  12.612  23.698   3.260
52644W        W12147   0.426  41.993  13.889
52645W        W12148   1.861  15.800   1.246
52646W        W12149   2.765  15.228   1.880
52647W        W12150  25.534  27.104  14.447
52648W        W12151  31.428  26.013  12.440
52649W        W12152   5.343  20.667  13.948
52650W        W12153  37.539  37.898   3.816
52651W        W12154  33.571  24.122  13.991
52652W        W12155  22.692  17.734  13.486
52653W        W12156  19.754  43.331  14.833
52654W        W12157  23.606  15.191   4.259
52655W        W12158   4.925  24.697  13.844
52656W        W12159  13.812  44.888  10.506
52657W        W12160  40.527  28.452  11.858
52658W        W12161  40.430  38.005   0.745
52659W        W12162  43.274  24.628  11.973
52660W        W12163  27.656  19.238   1.427
52661W        W12164  17.590   1.783  12.420
52662W        W12165  39.405  24.197  12.084
52663W        W12166  30.138  27.989   9.959
52664W        W12167  29.099  34.467   0.314
52665W        W12168  31.940  21.216  10.548
52666W        W12169   0.345  30.917   1.923
52667W        W12170   3.892  17.141  10.038
52668W        W12171   5.223  26.153  10.100
52669W        W12172  10.820  42.358   1.296
52670W        W12173  13.678  16.634  13.379
52671W        W12174  21.260   3.393   3.343
52672W        W12175  18.588  23.503  11.499
52673W        W12176  13.125  24.593  12.892
52674W        W12177  41.420   6.389   1.841
52675W        W12178   2.452   1.885  14.417
52676W        W12179  33.089  10.643   4.622
52677W        W12180  14.746  38.045   0.363
52678W        W12181   2.926   4.432  14.493
52679W        W12182  23.546  40.377  11.995
52680W        W12183  29.612  36.479   3.687
52681W        W12184  21.045  37.354   2.791
52682W        W12185   9.347  43.508  11.916
52683W        W12186  30.981  15.199  13.892
52684W        W12187  20.072  27.532  13.044
52685W        W12188  42.788   5.817  10.445
52686W        W12189  43.423  27.536   0.442
52687W        W12190   0.845  34.943   5.091
52688W        W12191  37.833  19.557   2.878
52689W        W12192   0.282  42.853   2.341
52690W        W12193  13.823  39.931   4.136
52691W        W12194  12.242  19.264  13.520
52692W        W12195  23.132  36.919   2.826
52693W        W12196  35.481  35.055  14.360
52694W        W12197  35.387  13.629  11.080
52695W        W12198  43.906  40.373  12.931
52696W        W12199  24.998  39.468   4.828
52697W        W12200  18.787   0.357   1.257
52698W        W12201  15.737  26.568   4.745
52699W        W12202  11.666  17.577   3.308
52700W        W12203  30.620  20.547  13.504
52701W        W12204   4.294  14.767  10.963
52702W        W12205  44.959  42.282   1.811
52703W        W12206  35.595  26.481   4.772
52704W        W12207  10.264  39.460   1.764
52705W        W12208   5.371  41.041  11.420
52706W        W12209   1.880  17.663  13.382
52707W        W12210  20.757  16.587   3.784
52708W        W12211  37.055  16.739   1.300
52709W        W12212  28.641  32.546  10.486
52710W        W12213   3.737  19.240  12.429
52711W        W12214  23.514  25.984  10.938
52712W        W12215  21.674  36.934   0.906
52713W        W12216   4.807  27.594   0.761
52714W        W12217   5.307  11.350   2.876
52715W        W12218  40.443  14.830   0.300
52716W        W12219  28.996  14.248   5.768
52717W        W12220   6.691  27.180  11.375
52718W        W12221  15.318  13.682   0.932
52719W        W12222  25.684  22.178   1.741
52720W        W12223  26.134  39.841   0.432
52721W        W12224  12.699  26.137   3.248
52722W        W12225  26.082  39.530  11.913
52723W        W12226  15.592  13.683  11.478
52724W        W12227  44.331  13.697   1.816
52725W        W12228  26.092  32.427  13.030
52726W        W12229  41.919  12.844  10.943
52727W        W12230   9.310  10.307  14.761
52728W        W12231  41.471   4.287  13.861
52729W        W12232   9.285   3.262   1.292
52730W        W12233  35.525  20.239   3.172
52731W        W12234   5.289  15.151  11.878
52732W        W12235  21.237  22.635   2.701
52733W        W12236  22.641  26.623  11.582
52734W        W12237  25.967  14.109  13.793
52735W        W12238  21.047  11.289  12.093
52736W        W12239  38.928   7.204  10.462
52737W        W12240   8.776   2.404  11.402
52738W        W12241  19.761   5.794  11.565
52739W        W12242  41.322   5.350  10.518
52740W        W12243  13.765  26.123  13.802
52741W        W12244  35.010  24.163  10.891
52742W        W12245  23.033  25.121   1.816
52743W        W12246  29.609  33.435  10.103
52744W        W12247  42.800  37.992  13.832
52745W        W12248  15.627  21.179   9.973
52746W        W12249  15.129  24.086   4.641
52747W        W12250  37.456  21.022  12.000
52748W        W12251  12.713  20.708   2.683
52749W        W12252   4.421  32.055  12.957
52750W        W12253  22.138   7.692   3.719
52751W        W12254  31.543  37.976  11.445
52752W        W12255  15.615   2.789  14.809
52753W        W12256  14.339   2.305   4.312
52754W        W12257  20.573  15.183  12.350
52755W        W12258  36.879  11.203   2.281
52756W        W12259  26.204  31.427   2.818
52757W        W12260  15.624  44.345  13.451
52758W        W12261  37.065  14.183  12.989
52759W        W12262  20.611   5.710   0.385
52760W        W12263  10.731   4.744   3.848
52761W        W12264  32.029  37.864   1.225
52762W        W12265  20.730  41.348  12.088
52763W        W12266  37.347  21.549   2.251
52764W        W12267  36.891  26.098   4.802
52765W        W12268  36.096  41.375   4.706
52766W        W12269  39.848   2.960   1.320
52767W        W12270  29.021  44.910   0.324
52768W        W12271  42.812  27.622  13.314
52769W        W12272  12.663   4.436  12.019
52770W        W12273  21.250   8.265  12.030
52771W        W12274  35.083  14.304  12.536
52772W        W12275   4.358  21.137   0.748
52773W        W12276  29.123  36.997  13.348
52774W        W12277  44.910   2.292   3.367
52775W        W12278  38.522  28.642  12.826
52776W        W12279  44.956  33.969   3.225
52777W        W12280  39.320  12.143  14.834
52778W        W12281  25.616  12.779   0.840
52779W        W12282   9.179  32.438   0.410
52780W        W12283  36.066  31.106  12.386
52781W        W12284  16.185  21.549   4.300
52782W        W12285  34.428  20.065   4.240
52783W        W12286  10.144  26.598   2.397
52784W        W12287  12.631  35.934   0.287
52785W        W12288  43.512  21.138   2.840
52786W        W12289  32.034  28.535  12.339
52787W        W12290  16.639  43.982   3.330
52788W        W12291   7.728   2.239   2.728
52789W        W12292   7.689  30.032  14.868
52790W        W12293  16.746  43.894  12.531
52791W        W12294  39.449  27.495  14.350
52792W        W12295  43.771  17.735   0.801
52793W        W12296  22.505  11.248   4.619
52794W        W12297  30.025  31.428   2.809
52795W        W12298  10.672  26.010   3.713
52796W        W12299   1.264  39.885  11.983
52797W        W12300   2.407  36.089   0.277
52798W        W12301  30.161  34.489  12.825
52799W        W12302   8.732  34.071   3.684
52800W        W12303  31.502  12.135   4.293
52801W        W12304  33.610  40.870  11.460
52802W        W12305   1.295   1.759   3.722
52803W        W12306  19.682  20.152   2.196
52804W        W12307  39.919  27.017   4.264
52805W        W12308  37.400  18.681   4.294
52806W        W12309  31.615  18.190   1.406
52807W        W12310  27.143  29.572   1.389
52808W        W12311  26.964  12.249  14.764
52809W        W12312  22.198  37.034  11.868
52810W        W12313   3.953  20.116  11.965
52811W        W12314  25.517   8.727   2.846
52812W        W12315  26.112  20.058  12.959
52813W        W12316  12.847  29.588   5.289
52814W        W12317  34.595   6.857   2.729
52815W        W12318  20.763  40.826  12.947
52816W        W12319  32.940  16.772  13.328
52817W        W12320  33.473  26.032  12.485
52818W        W12321  16.636  34.571  14.824
52819W        W12322  25.469   3.261   0.745
52820W        W12323   0.805  22.679  11.539
52821W        W12324  16.121  25.100  11.868
52822W        W12325   4.942  33.079   1.339
52823W        W12326  10.344  38.425   4.667
52824W        W12327  38.883   7.775  13.982
52825W        W12328   5.702  37.020  12.460
52826W        W12329  34.966  10.317  12.935
52827W        W12330   1.835  27.065  12.422
52828W        W12331   4.844  34.870   5.251
52829W        W12332  12.626  15.220   2.852
52830W        W12333   9.744  34.891  14.955
52831W        W12334  16.627  17.263  13.336
52832W        W12335  12.791  28.572   3.158
52833W        W12336  30.125   8.852   4.180
52834W        W12337  38.387   2.809  12.075
52835W        W12338  33.113  28.186  10.120
52836W        W12339  23.583   4.399   2.737
52837W        W12340  18.183  21.147   3.768
52838W        W12341   5.788   0.890  12.052
52839W        W12342   9.702  39.902   4.674
52840W        W12343   1.739  27.548   2.749
52841W        W12344   1.978  11.859   1.764
52842W        W12345   3.830  24.997  14.360
52843W        W12346  22.617   9.856  13.336
52844W        W12347   7.717   4.917  11.423
52845W        W12348  24.635  19.195  14.466
52846W        W12349  11.637  41.486  14.894
52847W        W12350  26.627  40.835  14.408
52848W        W12351  24.591   2.951   5.111
52849W        W12352  32.013  36.979   1.323
52850W        W12353   0.274  42.914  10.540
52851W        W12354  41.410  13.191  13.506
52852W        W12355  11.156  23.688   3.235
52853W        W12356  22.249  15.811  14.767
52854W        W12357  20.044  16.214   0.957
52855W        W12358   4.221  38.869  11.403
52856W        W12359  24.005  20.576  14.906
52857W        W12360  24.033   1.362  14.981
52858W        W12361  10.797   1.306  11.511
52859W        W12362  35.504  36.941   1.426
52860W        W12363  42.292  29.160  11.554
52861W        W12364  31.629  39.969  14.825
52862W        W12365   2.472  29.450   5.174
52863W        W12366  43.489  37.469  10.952
52864W        W12367  31.601  12.203  11.596
52865W        W12368   9.658  10.219  14.337
52866W        W12369  37.372  43.285  14.311
52867W        W12370  41.420  20.548   3.787
52868W        W12371  17.690  16.307  12.002
52869W        W12372  13.692  22.574   0.963
52870W        W12373  30.960   2.891  14.853
52871W        W12374   5.786   4.409  11.573
52872W        W12375  34.916  29.112  10.474
52873W        W12376   9.650   9.812   3.146
52874W        W12377  25.560  17.733   1.332
52875W        W12378  17.620  14.822   2.308
52876W        W12379  11.625  27.646  12.931
52877W        W12380  12.821  37.495  13.930
52878W        W12381  42.463  23.065  12.020
52879W        W12382  36.520  12.746   3.262
52880W        W12383   1.825  39.351   1.379
52881W        W12384  44.304  25.151  10.991
52882W        W12385  26.019  15.811  13.023
52883W        W12386   8.822  40.871  12.875
52884W        W12387  17.221   3.758   2.901
52885W        W12388  26.685  42.450  13.021
52886W        W12389  24.527   2.876   1.409
52887W        W12390  36.961  13.645   0.780
52888W        W12391  44.863  28.518   2.179
52889W        W12392  23.125  39.952   2.198
52890W        W12393  43.273  40.432  14.286
52891W        W12394   0.436  24.540   0.856
52892W        W12395  26.473  25.020   4.305
52893W        W12396   7.300  44.983  12.364
52894W        W12397  21.162   0.318  12.494
52895W        W12398   7.216  39.502   0.325
52896W        W12399   5.222   5.735  11.584
52897W        W12400  28.636  13.648  11.123
52898W        W12401   9.700  32.064  14.962
52899W        W12402   7.237  42.020   2.237
52900W        W12403  37.395  34.994   2.895
52901W        W12404  41.874  10.363   3.749
52902W        W12405  20.659  18.678   3.272
52903W        W12406   5.305  43.386   1.892
52904W        W12407  29.520  44.848   4.340
52905W        W12408  36.864  35.962   1.903
52906W        W12409  20.680  29.076  12.079
52907W        W12410  28.481  25.655   2.366
52908W        W12411  39.381  26.992  13.306
52909W        W12412   4.327  36.376  13.540
52910W        W12413  32.959   9.826  12.015
52911W        W12414  39.056  25.098  14.987
52912W        W12415  14.831  18.228   4.202
52913W        W12416  41.313  37.532  11.899
52914W        W12417   7.271  20.103  13.941
52915W        W12418  14.691  12.679  11.519
52916W        W12419   6.784  38.849  11.898
52917W        W12420  19.612   4.900  10.970
52918W        W12421  18.098  20.536  12.895
52919W        W12422   5.719  22.722   3.293
52920W        W12423  18.176  15.710  11.124
52921W        W12424  29.996   8.735   2.880
52922W        W12425  35.400  11.279   3.837
52923W        W12426  23.675  19.647   4.347
52924W        W12427  14.217  11.630   4.232
52925W        W12428  27.078  17.181  11.944
52926W        W12429  26.160  34.013  14.777
52927W        W12430  25.008  44.485  13.056
52928W        W12431  15.799   9.284   3.679
52929W        W12432  32.915   5.765  13.453
52930W        W12433   6.706   7.795   2.331
52931W        W12434  28.086   7.845   4.185
52932W        W12435   1.955   0.350  10.931
52933W        W12436  36.059  33.074   1.840
52934W        W12437  36.561  30.032   2.284
52935W        W12438   5.293   0.831  13.340
52936W        W12439   9.194  17.286  11.462
52937W        W12440   5.368  34.426   2.892
52938W        W12441  42.323   5.200   1.868
52939W        W12442  28.572  15.086  10.976
52940W        W12443  21.243   5.371  11.887
52941W        W12444  30.511   0.297   3.342
52942W        W12445   7.727   9.781   3.797
52943W        W12446  34.478  11.134   0.364
52944W        W12447   7.382  11.170  14.284
52945W        W12448  38.354  29.921   0.463
52946W        W12449  10.342  27.583   4.788
52947W        W12450  21.188  14.179  13.911
52948W        W12451   3.347  37.847   4.661
52949W        W12452  13.331  25.212  10.599
52950W        W12453  17.678  39.511  12.830
52951W        W12454  14.630  12.125   1.364
52952W        W12455   1.287  34.540   1.248
52953W        W12456  12.278  35.061   1.924
52954W        W12457   1.784  26.579   0.461
52955W        W12458  40.955  19.067  10.581
52956W        W12459  13.124  15.172  12.050
52957W        W12460  27.600  34.600  13.925
52958W        W12461  38.418  34.575   4.113
52959W        W12462  13.650  40.986  12.569
52960W        W12463   1.952  26.965   3.791
52961W        W12464  20.152  24.545  10.962
52962W        W12465   9.309  32.120  13.799
52963W        W12466  42.900  17.717   1.778
52964W        W12467   5.916  15.294  10.511
52965W        W12468   4.417  16.587   1.369
52966W        W12469  32.972   7.739   2.314
52967W        W12470  32.081   6.813  10.506
52968W        W12471  13.788  24.562   2.859
52969W        W12472   7.731  24.100   0.390
52970W        W12473  10.735  40.470  13.952
52971W        W12474  44.917   2.739  14.418
52972W        W12475  42.321  43.005  13.420
52973W        W12476  31.556  38.028   3.704
52974W        W12477   2.303  36.436  11.016
52975W        W12478  44.984  11.364  11.373
52976W        W12479  31.491  26.599  14.502
52977W        W12480   6.283  30.966   1.217
52978W        W12481  23.646  32.914  11.601
52979W        W12482  14.713  24.147   1.838
52980W        W12483   5.842  39.456   2.207
52981W        W12484   8.301   6.701   1.806
52982W        W12485  39.894  33.434  12.486
52983W        W12486  35.109  24.502  13.017
52984W        W12487   5.405  12.240  12.952
52985W        W12488   2.783  18.196   2.724
52986W        W12489  26.168   3.752   0.249
52987W        W12490  31.034  23.687   2.812
52988W        W12491   8.897  37.543   2.280
52989W        W12492  43.938  40.358  10.918
52990W        W12493  17.799  40.920  13.500
52991W        W12494  17.668   6.325  11.025
52992W        W12495  16.229  20.216   1.880
52993W        W12496  30.919   5.758  12.837
52994W        W12497  10.170  44.404  14.761
52995W        W12498  42.427  29.961   0.804
52996W        W12499  27.565   0.422   4.166
52997W        W12500  44.278  35.359  10.572
52998W        W12501  30.604  24.688   5.231
52999W        W12502  36.460  44.331  10.026
53000W        W12503  30.538  16.305   3.845
53001W        W12504  26.607  39.379   3.312
53002W        W12505  15.321  33.396   2.856
53003W        W12506  40.425  38.438  13.059
53004W        W12507  31.023   2.751  10.604
53005W        W12508  11.636  37.883  14.020
53006W        W12509  14.645   8.387   3.225
53007W        W12510  12.149  21.634  11.998
53008W        W12511   0.911  43.397  12.476
53009W        W12512   5.218   5.809  14.346
53010W        W12513  27.655   8.398  11.407
53011W        W12514  43.303   6.907   1.826
53012W        W12515   6.917   0.268   5.309
53013W        W12516  27.113   6.226   0.392
53014W        W12517  14.125  41.021  14.451
53015W        W12518  18.626  36.044   3.324
53016W        W12519  17.205   0.930  13.012
53017W        W12520  37.968  19.090  10.521
53018W        W12521  25.708  26.634  13.467
53019W        W12522  38.004  30.536   1.778
53020W        W12523  32.121  13.712   0.371
53021W        W12524  35.393   8.767   4.315
53022W        W12525  21.256   3.318   1.352
53023W        W12526  25.213  21.259  14.923
53024W        W12527   9.211   8.263  12.848
53025W        W12528   5.719   2.255   0.461
53026W        W12529  25.181  20.708   4.281
53027W        W12530  44.419  39.391  13.797
53028W        W12531  23.135  19.638   0.437
53029W        W12532  17.274   6.281   4.302
53030W        W12533  12.798  16.252   3.828
53031W        W12534  16.784   9.208   1.324
53032W        W12535  15.214   3.718   1.296
53033W        W12536  36.083  23.228   4.191
53034W        W12537  28.613  31.610  14.491
53035W        W12538   6.222  21.226   3.168
53036W        W12539  42.794  18.097  12.943
53037W        W12540  43.363  41.322   3.655
53038W        W12541  28.954   5.770   2.727
53039W        W12542  15.743  36.567   4.648
53040W        W12543   4.737  16.591  11.115
53041W        W12544  27.119  43.851   1.333
53042W        W12545  22.589  23.637  12.558
53043W        W12546   3.241  21.209  14.400
53044W        W12547  25.219  17.230   4.637
53045W        W12548  27.676   5.367   0.450
53046W        W12549   4.395  34.565   0.892
53047W        W12550   9.311  10.813  14.927
53048W        W12551  35.407   8.187   4.305
53049W        W12552   0.251  16.120   9.551
53050W        W12553  30.448  28.535  13.041
53051W        W12554  16.612  15.773   4.671
53052W        W12555  13.772   3.919   2.201
53053W        W12556  40.957  22.143   1.409
53054W        W12557  33.939   6.301   3.349
53055W        W12558  38.359  40.365  14.896
53056W        W12559   9.268  35.538   1.417
53057W        W12560  14.246  10.818   4.124
53058W        W12561   6.413   9.833   4.343
53059W        W12562  13.810  34.489   3.735
53060W        W12563  32.962  38.571   2.859
53061W        W12564  23.181  19.114   4.258
53062W        W12565  17.667  15.117   0.299
53063W        W12566  24.085  29.107  12.520
53064W        W12567   8.772   5.328  14.439
53065W        W12568  12.849  19.116   3.280
53066W        W12569  31.574  16.153   2.241
53067W        W12570  42.471  31.926  13.036
53068W        W12571  13.187  32.449  14.939
53069W        W12572  37.343   3.339   4.225
53070W        W12573   1.349  44.755   1.845
53071W        W12574  14.309  15.581  10.006
53072W        W12575  16.240  19.280   2.903
53073W        W12576  36.493  36.494  11.978
53074W        W12577  29.503  20.221   1.821
53075W        W12578   8.816  28.997  14.309
53076W        W12579  34.421  34.461  11.521
53077W        W12580  19.128  40.926  13.997
53078W        W12581   2.400   0.914   2.694
53079W        W12582  30.568  15.289   0.391
53080W        W12583  11.332  15.775   0.361
53081W        W12584  14.667  17.613   1.932
53082W        W12585  17.605  32.425   1.706
53083W        W12586  22.735  14.766  12.527
53084W        W12587  10.325  14.659   2.242
53085W        W12588  43.468  34.502  10.942
53086W        W12589   0.790  22.688   9.620
53087W        W12590   5.751  20.270   0.923
53088W        W12591  36.368  39.870  13.334
53089W        W12592  14.292  28.597   0.849
53090W        W12593  21.634  44.410  11.989
53091W        W12594  13.184  15.686  14.435
53092W        W12595  17.716  10.176  10.597
53093W        W12596  18.603  21.057   1.379
53094W        W12597  31.012   6.394  11.498
53095W        W12598  23.050  44.371  10.975
53096W        W12599  16.622  14.144   3.242
53097W        W12600  42.976  41.875  11.590
53098W        W12601  24.190  11.260  12.346
53099W        W12602   5.202  11.354  10.967
53100W        W12603   0.376   9.767   3.724
53101W        W12604  35.939  15.733  14.030
53102W        W12605  36.467  44.815   0.836
53103W        W12606   0.494  12.752   2.335
53104W        W12607  24.188  29.049  13.358
53105W        W12608   7.904  28.002   1.342
53106W        W12609   3.285  44.774   2.410
53107W        W12610  13.203  43.484   3.723
53108W        W12611  18.556  11.365   3.657
53109W        W12612  42.840   3.236   1.795
53110W        W12613  18.601  32.041  12.366
53111W        W12614  10.647   4.886  14.854
53112W        W12615  21.172  25.486   1.372
53113W        W12616  30.003  41.788   0.896
53114W        W12617  33.016   5.378  14.345
53115W        W12618  27.459  12.173   3.756
53116W        W12619   4.711   9.334   1.893
53117W        W12620   7.771  16.298   2.223
53118W        W12621  32.475   1.421   0.798
53119W        W12622  24.208   5.911  13.872
53120W        W12623  33.108  37.001   3.382
53121W        W12624   6.250  23.577  11.002
53122W        W12625  15.659  11.232  11.393
53123W        W12626  26.604  25.137   0.759
53124W        W12627  26.029  41.328  13.892
53125W        W12628  26.090   0.447  13.827
53126W        W12629  15.173  10.853  11.038
53127W        W12630  26.676  41.876   1.308
53128W        W12631   5.219  43.799   0.335
53129W        W12632  21.210  22.038  12.967
53130W        W12633  29.966  28.017  14.888
53131W        W12634   7.393  23.119   4.124
53132W        W12635  20.585  40.921   4.337
53133W        W12636   7.716  21.072   4.282
53134W        W12637  18.649   7.328  14.847
53135W        W12638  16.679   7.271   0.439
53136W        W12639   7.338  20.765  10.960
53137W        W12640  39.387  22.609   4.718
53138W        W12641  17.115  36.494   3.775
53139W        W12642  22.683  28.065  13.443
53140W        W12643  44.334  42.953  13.359
53141W        W12644  35.391  25.589  13.832
53142W        W12645  10.217  39.374   4.152
53143W        W12646  40.924  22.142  12.856
53144W        W12647   7.770  41.328   5.159
53145W        W12648  33.489  39.529   1.819
53146W        W12649   6.332   4.708   3.722
53147W        W12650   9.843   0.459  13.000
53148W        W12651  13.749  42.318   1.759
53149W        W12652  25.632  43.295  12.924
53150W        W12653  35.394  17.276  14.380
53151W        W12654   9.761  36.064   1.782
53152W        W12655  34.382  30.647  11.948
53153W        W12656  11.334  41.347   4.228
53154W        W12657   9.280   0.265   3.274
53155W        W12658  11.638  18.246   2.845
53156W        W12659  30.046  31.971  14.953
53157W        W12660  24.085  16.138   3.749
53158W        W12661   9.670  33.526  13.911
53159W        W12662   9.182  16.227  10.032
53160W        W12663   8.772  13.714   0.824
53161W        W12664  36.558  25.973  11.007
53162W        W12665  27.657   4.849  14.468
53163W        W12666  35.858  18.264  13.434
53164W        W12667  42.021  32.497  14.498
53165W        W12668   3.755   6.852   1.754
53166W        W12669  12.156  16.091   4.124
53167W        W12670  23.519  15.287  11.921
53168W        W12671   7.200  28.998   4.769
53169W        W12672  28.664  30.119   0.459
53170W        W12673  25.151  38.825  12.031
53171W        W12674  37.862  39.994  14.328
53172W        W12675   6.215  14.257   9.980
53173W        W12676  31.561  40.451  13.328
53174W        W12677  26.515  32.529  10.985
53175W        W12678  31.018  15.766   3.797
53176W        W12679   4.774  26.527   3.345
53177W        W12680  21.140  40.442  11.484
53178W        W12681   4.895  22.096  10.417
53179W        W12682   2.944   9.242  10.632
53180W        W12683  25.037  11.811   1.385
53181W        W12684  18.094  16.135  10.627
53182W        W12685  44.353  43.783  14.842
53183W        W12686  39.047  35.906   5.268
53184W        W12687  11.338  22.634  12.352
53185W        W12688  23.629   8.797  11.599
53186W        W12689   6.208  31.502  14.510
53187W        W12690  29.150  36.906   1.328
53188W        W12691  34.931   7.852  14.498
53189W        W12692  13.702  29.126   3.732
53190W        W12693  39.348  13.189  13.432
53191W        W12694  35.051  14.604   3.252
53192W        W12695  21.673  23.037  12.563
53193W        W12696  11.237   9.290  11.924
53194W        W12697  22.999  26.548  13.989
53195W        W12698  18.782  15.705   9.946
53196W        W12699   3.732   3.307  11.406
53197W        W12700  41.516   3.954  14.007
53198W        W12701  28.058   4.263   4.667
53199W        W12702  15.604   8.681   4.674
53200W        W12703  12.330  30.969   2.762
53201W        W12704  17.606  20.124   0.959
53202W        W12705  21.707  13.207  14.925
53203W        W12706  20.596  31.465  13.796
53204W        W12707  42.469  33.095   4.114
53205W        W12708  22.107  30.476   0.375
53206W        W12709  35.472  25.968  12.468
53207W        W12710  32.100  39.053   5.177
53208W        W12711  12.211   0.813  13.907
53209W        W12712  18.085  30.035  13.381
53210W        W12713  31.984  16.113   0.458
53211W        W12714  11.219  19.540   4.661
53212W        W12715  27.577  23.577  13.325
53213W        W12716  35.412  36.434   1.393
53214W        W12717  39.862  35.016   1.731
53215W        W12718   9.325  43.386  12.511
53216W        W12719   5.228  24.160  13.905
53217W        W12720  40.984  21.716  13.318
53218W        W12721  16.249  23.144   0.752
53219W        W12722  34.986  11.789   3.723
53220W        W12723   5.318  43.811  10.618
53221W        W12724  19.053  37.580  14.824
53222W        W12725  12.247  35.498  10.033
53223W        W12726  44.351  10.712  12.054
53224W        W12727  12.731  34.476  14.932
53225W        W12728  13.825  25.079  10.587
53226W        W12729  27.571  30.057  11.080
53227W        W12730  34.437  17.667   0.406
53228W        W12731  44.843  44.808  12.052
53229W        W12732   3.955   4.894  11.591
53230W        W12733  24.071  44.378  11.859
53231W        W12734  38.424  44.450   0.386
53232W        W12735  27.112  31.111  11.901
53233W        W12736  13.243  35.481   3.816
53234W        W12737  42.775   8.748  13.474
53235W        W12738   4.274  31.054   1.712
53236W        W12739  18.114   6.356   3.655
53237W        W12740  27.055   9.742  14.848
53238W        W12741  29.166  10.646  12.365
53239W        W12742  27.621   7.284   3.175
53240W        W12743  34.400  22.610   3.710
53241W        W12744  42.307  38.336   0.252
53242W        W12745  31.559  20.109   3.255
53243W        W12746  17.708  13.285  13.954
53244W        W12747  28.602  13.204  13.059
53245W        W12748  22.122  38.992  10.067
53246W        W12749  23.620  31.943  11.027
53247W        W12750  35.421  35.531  13.431
53248W        W12751   3.894   2.913  13.323
53249W        W12752   3.870  17.299  13.467
53250W        W12753  36.846  42.807   0.762
53251W        W12754  36.852  31.908  10.582
53252W        W12755   4.418   1.395  12.464
53253W        W12756   4.718   4.898  11.517
53254W        W12757  13.826  21.093   4.320
53255W        W12758  27.023  31.985   0.808
53256W        W12759   5.338   8.369   2.194
53257W        W12760  34.063   2.378   3.856
53258W        W12761  15.111  29.610   1.724
53259W        W12762  36.529  12.840   2.768
53260W        W12763  28.606  13.674   3.711
53261W        W12764  17.678   7.674   3.701
53262W        W12765   9.732  29.501   3.158
53263W        W12766   2.934  13.698  14.461
53264W        W12767  28.956  21.753  13.524
53265W        W12768  27.116  28.106   4.694
53266W        W12769  38.554  22.216  10.500
53267W        W12770  43.811  39.839   0.928
53268W        W12771   4.287  38.024   0.742
53269W        W12772  41.893  17.628  14.798
53270W        W12773   9.232  29.968  10.545
53271W        W12774  23.531  31.130  14.374
53272W        W12775  20.588  43.349  14.469
53273W        W12776  25.038   2.790   2.854
53274W        W12777  27.598  21.114   0.467
53275W        W12778  25.175   3.384   1.322
53276W        W12779   5.759   9.847   0.829
53277W        W12780  37.553  11.281  10.132
53278W        W12781  10.280  14.644  12.459
53279W        W12782  14.641  11.247  14.450
53280W        W12783  37.558  12.720  10.567
53281W        W12784  20.568  13.161   3.374
53282W        W12785  26.986   2.285   1.327
53283W        W12786  41.873   1.384  13.883
53284W        W12787  33.390  30.033   4.769
53285W        W12788  17.188  23.092   3.260
53286W        W12789   0.378   2.801  13.436
53287W        W12790  29.609   3.288  14.009
53288W        W12791  17.697  14.172   0.246
53289W        W12792  42.454  20.586   2.366
53290W        W12793  27.193  29.642  13.391
53291W        W12794   3.249  23.023   3.209
53292W        W12795  40.318  17.187  12.845
53293W        W12796  17.138  21.692  14.829
53294W        W12797  29.168   7.249  14.278
53295W        W12798   1.376   2.285   3.344
53296W        W12799  36.985  36.491   0.809
53297W        W12800  10.325  16.633  11.858
53298W        W12801   1.908  26.057   9.552
53299W        W12802  28.605  26.022  12.840
53300W        W12803  38.479   3.334   4.127
53301W        W12804  39.552  14.705  11.990
53302W        W12805  13.265  25.202   9.972
53303W        W12806  29.475   3.394   4.686
53304W        W12807   6.275   6.724   1.262
53305W        W12808   6.791  41.833  13.388
53306W        W12809  10.258  36.083  14.807
53307W        W12810  12.208  19.097   4.716
53308W        W12811   4.830   1.237  12.845
53309W        W12812  21.696  21.247  14.968
53310W        W12813   4.943   6.267   0.372
53311W        W12814   6.303  34.014  10.480
53312W        W12815  18.694  23.709   4.619
53313W        W12816  18.131  39.015   1.346
53314W        W12817  18.202  15.101  14.980
53315W        W12818  19.738  13.308  14.770
53316W        W12819   3.425  34.438   2.361
53317W        W12820  21.046   9.780  12.418
53318W        W12821  12.704  34.551   1.793
53319W        W12822  32.517   2.747  12.352
53320W        W12823  29.632   6.727   4.797
53321W        W12824  27.049  29.075  12.544
53322W        W12825   9.779  22.038   2.818
53323W        W12826   5.802   1.901   2.333
53324W        W12827  30.968  34.964   1.849
53325W        W12828  34.381  22.057  14.305
53326W        W12829  12.778  31.424  13.373
53327W        W12830  41.416  32.017  13.893
53328W        W12831  30.016  11.342  14.997
53329W        W12832  23.062  39.373  14.465
53330W        W12833  26.034  34.593  11.486
53331W        W12834  34.417  31.489  12.445
53332W        W12835   5.230  14.247   1.338
53333W        W12836  43.324   6.707   5.210
53334W        W12837   7.186  30.084   4.809
53335W        W12838  30.483  25.535   4.218
53336W        W12839  22.130   6.414  11.476
53337W        W12840  44.876  24.685   4.650
53338W        W12841  25.076  14.209   4.771
53339W        W12842  40.459  26.958   3.146
53340W        W12843  33.903  18.593  11.022
53341W        W12844   7.876   8.873  13.046
53342W        W12845  13.259  10.658  10.973
53343W        W12846  35.496  33.983   4.644
53344W        W12847  16.749   0.774  11.862
53345W        W12848  23.230  42.402   0.909
53346W        W12849  41.838   9.740  10.422
53347W        W12850  30.974   0.307   2.821
53348W        W12851  27.958  13.656  11.496
53349W        W12852   2.242  43.315   4.271
53350W        W12853  13.723  13.192  12.526
53351W        W12854  35.029  15.252   2.901
53352W        W12855  44.406   3.809  11.435
53353W        W12856  25.589  36.440  14.956
53354W        W12857  13.721  32.930  12.560
53355W        W12858  42.495  15.677  14.816
53356W        W12859  34.379  26.495   5.101
53357W        W12860  26.007  32.633   3.199
53358W        W12861  26.079  41.485   0.795
53359W        W12862  31.504   5.222  13.008
53360W        W12863   9.689   2.256   3.172
53361W        W12864  11.798  39.857   3.753
53362W        W12865  14.224  21.586   0.832
53363W        W12866   5.317   6.896   0.787
53364W        W12867   2.355   0.467   1.269
53365W        W12868  14.823   8.378   1.855
53366W        W12869  35.961  44.925   3.283
53367W        W12870  23.129   1.904   2.895
53368W        W12871   3.313  34.561  13.913
53369W        W12872  35.598  33.623   3.753
53370W        W12873  37.394   5.260   3.311
53371W        W12874  43.499  13.204  13.959
53372W        W12875   9.792   3.915  13.459
53373W        W12876   2.850  36.544   1.781
53374W        W12877  10.210  23.634   3.375
53375W        W12878  16.313  31.553   0.454
53376W        W12879   7.819  33.523  10.157
53377W        W12880  12.189   4.796  13.922
53378W        W12881  41.998   6.794  11.103
53379W        W12882   4.395  35.065   1.317
53380W        W12883  26.141   4.409   4.715
53381W        W12884  33.537   2.460   1.820
53382W        W12885   6.914  32.136  10.614
53383W        W12886  33.059  20.587  14.291
53384W        W12887  37.481   0.876   4.156
53385W        W12888  12.716  25.040  13.882
53386W        W12889  34.589  20.628   1.706
53387W        W12890  34.887  12.218  13.028
53388W        W12891  37.460  32.957   0.744
53389W        W12892  25.095  38.923  12.876
53390W        W12893  34.929  43.883  13.968
53391W        W12894  35.473  32.925   0.432
53392W        W12895  44.501  29.627  12.430
53393W        W12896   0.327   6.766   0.793
53394W        W12897  14.109  27.613  12.375
53395W        W12898  12.815  26.186   1.867
53396W        W12899  41.800  30.046  11.531
53397W        W12900  20.121  30.621  12.075
53398W        W12901   2.352  21.089  14.471
53399W        W12902  34.488   7.267   0.431
53400W        W12903  35.862   4.809  10.157
53401W        W12904  15.203  12.751   3.295
53402W        W12905  38.991   0.448  12.038
53403W        W12906  26.617  12.131  14.956
53404W        W12907  35.033   6.898  12.062
53405W        W12908  44.840  17.585  14.997
53406W        W12909  31.040   4.362   2.710
53407W        W12910  29.113  20.148  12.967
53408W        W12911   5.922  31.600  11.947
53409W        W12912  11.741  25.012  14.396
53410W        W12913  44.301  24.691   2.840
53411W        W12914   3.765  41.907  14.929
53412W        W12915   2.946   5.327   0.950
53413W        W12916   3.233  13.633  13.397
53414W        W12917  42.454  38.980  14.879
53415W        W12918  29.589  30.586  10.968
53416W        W12919  26.586  17.780  14.899
53417W        W12920  23.511   3.225  12.952
53418W        W12921   5.400  44.415  11.127
53419W        W12922  18.712  17.071  10.153
53420W        W12923  43.874   2.727  12.957
53421W        W12924  41.880  23.678   3.361
53422W        W12925  36.437  18.703  11.610
53423W        W12926  17.714  11.238  11.867
53424W        W12927  35.389   8.296  11.857
53425W        W12928  24.544  37.877   3.733
53426W        W12929   1.868  40.470   3.732
53427W        W12930  40.983  20.579  14.841
53428W        W12931  43.944   1.267  11.500
53429W        W12932   7.757  18.281   9.948
53430W        W12933   1.380  27.584  13.433
53431W        W12934  20.724   6.299  14.361
53432W        W12935   2.940  42.432  12.382
53433W        W12936   4.860  36.580   1.813
53434W        W12937  39.975  28.444   1.306
53435W        W12938   2.730  38.072  11.912
53436W        W12939  20.260   4.433  12.536
53437W        W12940  12.183  25.034  13.392
53438W        W12941  13.660   0.463   1.907
53439W        W12942   4.704  38.865   4.349
53440W        W12943   2.835  14.140   4.210
53441W        W12944  17.801  15.700   4.127
53442W        W12945  30.028  38.036   0.774
53443W        W12946   4.207  35.038  13.385
53444W        W12947  44.873  20.645  12.516
53445W        W12948  27.550  11.244  12.511
53446W        W12949  43.302  16.629   1.862
53447W        W12950   0.419  12.752  11.943
53448W        W12951  24.985  20.756   4.646
53449W        W12952  30.121  37.566  11.946
53450W        W12953  29.612  26.643  13.796
53451W        W12954  43.427  28.543   5.262
53452W        W12955  22.084  28.539  10.631
53453W        W12956  20.093   5.755  14.502
53454W        W12957  40.987  16.804  14.886
53455W        W12958  15.597  12.362  11.537
53456W        W12959   7.256  10.853   1.227
53457W        W12960  30.143  25.090   9.614
53458W        W12961  28.996   3.218  14.471
53459W        W12962   1.774  19.177   0.250
53460W        W12963  37.493  25.532  14.489
53461W        W12964   7.823   5.873  12.910
53462W        W12965   3.785  38.865  14.767
53463W        W12966   5.249  21.584   4.710
53464W        W12967  29.068  14.805  13.537
53465W        W12968  13.285  21.128  12.061
53466W        W12969   2.746   0.354   5.640
53467W        W12970  30.056   8.667  14.921
53468W        W12971  28.488  10.707  13.815
53469W        W12972  44.946   6.360   2.869
53470W        W12973  44.505  34.416  14.470
53471W        W12974  31.078   8.330   2.678
53472W        W12975  44.310  31.571   0.870
53473W        W12976   3.332   2.422   1.919
53474W        W12977  13.315  31.945   9.512
53475W        W12978  18.252  30.527  12.878
53476W        W12979  26.083   0.340   3.801
53477W        W12980  17.586   2.354  12.056
53478W        W12981   6.312  17.096  10.514
53479W        W12982  13.339  21.594  14.482
53480W        W12983  40.452   0.880   1.317
53481W        W12984  27.063  15.090   1.696
53482W        W12985  41.004  33.993  12.571
53483W        W12986  20.735  29.051   2.781
53484W        W12987  35.879  29.982  11.934
53485W        W12988  41.794  26.662  12.058
53486W        W12989  44.397  33.501   4.292
53487W        W12990  35.922   3.339  12.403
53488W        W12991  42.339  17.184  11.467
53489W        W12992   9.740  33.936  14.822
53490W        W12993  37.440  17.759  14.976
53491W        W12994  38.555  38.325  12.513
53492W        W12995  36.071  24.138  12.052
53493W        W12996  40.517  12.846  12.375
53494W        W12997  32.924  26.024   4.734
53495W        W12998  34.919   0.251   4.699
53496W        W12999   6.341   9.246  11.887
53497W        W13000  12.199  39.938   0.446
53498W        W13001  34.570  26.662  11.978
53499W        W13002   6.206  16.705  13.314
53500W        W13003  20.240  27.957   4.819
53501W        W13004  12.281  44.428   4.348
53502W        W13005  28.011  25.547   3.350
53503W        W13006  36.390  13.610  11.988
53504W        W13007   0.802  36.385  13.840
53505W        W13008  21.169   2.790   3.165
53506W        W13009  21.060  21.186  13.033
53507W        W13010  43.811  15.232   4.183
53508W        W13011  28.993  24.076   1.251
53509W        W13012  41.868   0.347  13.529
53510W        W13013  44.759  26.652  11.871
53511W        W13014  31.928   1.284   0.408
53512W        W13015  34.603  28.930   2.401
53513W        W13016  27.974  20.726   3.850
53514W        W13017   2.233   4.832   3.855
53515W        W13018   8.848   2.231  12.964
53516W        W13019  35.957  38.519  12.426
53517W        W13020  28.090  41.807   0.804
53518W        W13021  20.035  24.688  11.406
53519W        W13022  19.267  37.046  10.909
53520W        W13023  25.973  42.843  14.895
53521W        W13024  13.751  43.332   0.791
53522W        W13025   9.862  34.104   2.682
53523W        W13026  11.364  21.525  11.418
53524W        W13027  41.809  34.959   2.310
53525W        W13028  17.269  42.288  14.029
53526W        W13029  30.987  44.463   2.262
53527W        W13030  28.473  27.973  12.534
53528W        W13031  32.586  27.961  11.089
53529W        W13032  39.389   7.244   0.368
53530W        W13033  26.143  24.690  13.396
53531W        W13034  43.402  21.247   1.286
53532W        W13035  10.332  36.055   0.904
53533W        W13036  42.445  14.234  12.839
53534W        W13037   3.348  38.936   4.185
53535W        W13038   9.346  14.239   0.841
53536W        W13039   2.383  41.479   4.807
53537W        W13040  28.509  29.553  13.025
53538W        W13041  34.605   9.790  13.443
53539W        W13042  30.126  35.975   4.299
53540W        W13043  31.148  31.117  14.419
53541W        W13044  10.376   7.776  13.428
53542W        W13045  33.091  22.505   1.408
53543W        W13046  36.050   2.423  12.447
53544W        W13047  17.221   8.164  13.831
53545W        W13048   6.350  30.083  10.474
53546W        W13049   0.264   8.766  13.469
53547W        W13050   3.342  15.648   0.419
53548W        W13051  41.489  25.503   1.435
53549W        W13052  16.243  20.117   3.236
53550W        W13053  37.469   1.732   0.269
53551W        W13054  30.572   6.231  14.004
53552W        W13055  31.125  23.706  10.014
53553W        W13056  30.916  23.691   0.432
53554W        W13057  26.050  11.669  10.620
53555W        W13058  12.299  22.995   1.840
53556W        W13059   9.735  27.106  14.764
53557W        W13060   7.396  17.731  14.344
53558W        W13061  29.937  17.622   3.367
53559W        W13062   5.383  16.605   0.919
53560W        W13063  10.358  37.428   1.704
53561W        W13064  42.392  15.162   3.843
53562W        W13065  34.612  27.988   1.915
53563W        W13066  24.627   4.346   1.915
53564W        W13067   4.300  13.193  13.476
53565W        W13068  27.537  18.265  12.833
53566W        W13069  33.496   4.814   4.209
53567W        W13070  10.845  42.915   3.357
53568W        W13071  26.460  22.582   0.453
53569W        W13072  43.498  32.478  12.559
53570W        W13073  15.125  15.149  11.082
53571W        W13074   6.706   0.294   4.254
53572W        W13075  37.533  18.704   3.679
53573W        W13076  16.262  25.105   2.417
53574W        W13077  37.525  11.194   0.784
53575W        W13078  26.032  17.717   3.290
53576W        W13079  11.828  14.237  11.517
53577W        W13080  44.911  13.252   2.247
53578W        W13081  34.424   6.389  14.411
53579W        W13082  13.717  13.340  14.408
53580W        W13083  31.053  25.467   0.901
53581W        W13084  29.458  23.184  13.895
53582W        W13085   9.376  21.171  10.526
53583W        W13086  40.799  13.185   4.680
53584W        W13087  23.583  19.730  14.844
53585W        W13088  40.543  43.807   4.671
53586W        W13089  29.457   6.402  13.924
53587W        W13090  26.614   6.237  11.562
53588W        W13091  29.958   2.261  11.404
53589W        W13092  40.371  16.571   4.288
53590W        W13093   0.463  43.319   0.795
53591W        W13094  42.352  37.570  14.439
53592W        W13095  30.012   9.264  10.419
53593W        W13096   1.955   2.318  10.433
53594W        W13097  39.999  22.665   3.824
53595W        W13098  40.371  16.683   1.755
53596W        W13099  44.289  39.396  11.912
53597W        W13100  24.705  29.571  14.951
53598W        W13101  44.926  15.807   2.676
53599W        W13102  12.235  37.938   3.709
53600W        W13103  13.168  42.420   0.283
53601W        W13104   0.814  37.050   3.319
53602W        W13105   2.401  41.022   4.335
53603W        W13106  21.147   0.326  13.955
53604W        W13107  41.850   3.934   5.282
53605W        W13108  43.949  31.436  14.413
53606W        W13109  25.213   1.750   1.261
53607W        W13110  43.949  39.457   4.311
53608W        W13111  29.642   8.256  14.404
53609W        W13112  24.705  16.799   0.950
53610W        W13113   8.662   3.386   4.644
53611W        W13114  18.562  16.678   3.755
53612W        W13115   8.703  36.075   2.256
53613W        W13116  44.404  36.847   2.346
53614W        W13117  37.441   2.392   4.816
53615W        W13118  34.520  13.229   0.252
53616W        W13119  15.690   1.415  13.815
53617W        W13120  16.722   5.747   1.216
53618W        W13121   2.732  16.242   3.696
53619W        W13122  15.695  16.148  14.004
53620W        W13123  35.451   4.783  14.003
53621W        W13124  31.622  16.800   1.741
53622W        W13125  18.548  26.988  13.864
53623W        W13126  15.658  18.730   2.731
53624W        W13127   5.422  30.577  10.524
53625W        W13128  10.709  12.222   0.478
53626W        W13129  11.753  26.514   0.780
53627W        W13130  40.908  30.458  12.038
53628W        W13131   4.820  43.822   2.222
53629W        W13132  12.723   9.285  14.292
53630W        W13133  21.021  26.692   0.767
53631W        W13134   1.424  19.091  11.510
53632W        W13135  42.998  41.422   2.767
53633W        W13136  35.578  13.643  10.506
53634W        W13137  11.246  34.040   0.296
53635W        W13138   1.871  17.628   4.197
53636W        W13139  22.529  21.184   4.329
53637W        W13140  36.846  39.475  12.915
53638W        W13141  17.197  16.275   0.243
53639W        W13142   3.371   7.381  10.948
53640W        W13143   9.669   4.752  11.995
53641W        W13144  23.086  26.059  14.312
53642W        W13145  30.105  36.421   1.835
53643W        W13146   8.663   2.808  10.641
53644W        W13147  42.508  19.104   3.739
53645W        W13148  28.578   9.887  13.547
53646W        W13149   1.764  27.967   3.648
53647W        W13150  43.899  30.533  12.071
53648W        W13151  42.478   6.319  10.485
53649W        W13152  26.121   7.396  13.447
53650W        W13153  44.886  34.034  11.473
53651W        W13154  33.572  14.621  13.944
53652W        W13155  39.384  40.836   4.157
53653W        W13156  41.877  33.892   0.854
53654W        W13157   6.239  30.518   5.148
53655W        W13158  33.122  16.671  12.992
53656W        W13159  20.705   1.401   2.811
53657W        W13160  39.500   9.154  14.469
53658W        W13161   9.180   7.881   2.242
53659W        W13162  12.660  44.502  15.000
53660W        W13163  20.602  10.295   4.262
53661W        W13164  33.921  39.371   3.832
53662W        W13165   0.353  35.450  13.807
53663W        W13166  39.512   9.219  12.534
53664W        W13167  18.771  39.937   2.836
53665W        W13168  44.773  13.800  10.603
53666W        W13169  38.005  32.949  13.007
53667W        W13170  33.033  41.013   2.703
53668W        W13171  28.091  19.603   3.154
53669W        W13172   1.869  20.556   2.180
53670W        W13173  15.152  24.571   2.803
53671W        W13174  16.576  39.452  11.895
53672W        W13175  13.122   1.292  14.815
53673W        W13176   2.962  23.692  13.314
53674W        W13177  16.141  39.509  10.992
53675W        W13178  36.847  39.000   1.403
53676W        W13179  23.491   4.378  11.486
53677W        W13180  29.963  20.059   0.900
53678W        W13181  13.715  10.788   2.205
53679W        W13182  41.840  14.647  14.946
53680W        W13183  23.008  44.780  10.521
53681W        W13184  29.139   0.948  12.082
53682W        W13185  36.985  14.605  14.858
53683W        W13186  17.233  26.050  13.448
53684W        W13187  26.686   5.433  14.504
53685W        W13188   0.446  22.660   1.310
53686W        W13189  21.579  24.627   4.298
53687W        W13190   1.837  43.351  11.939
53688W        W13191  33.077   6.247  14.477
53689W        W13192  22.512  11.803   1.878
53690W        W13193  20.606   0.780   2.713
53691W        W13194  33.565  40.018  13.419
53692W        W13195   3.347  17.665  12.388
53693W        W13196  37.422  43.982   2.785
53694W        W13197  15.162  42.351  14.995
53695W        W13198  17.302  22.051  11.080
53696W        W13199  26.545  11.825  12.446
53697W        W13200  31.576  44.409  14.504
53698W        W13201  41.443  16.647  12.947
53699W        W13202  12.639  31.114  11.434
53700W        W13203   3.792  26.690   2.809
53701W        W13204  35.414  16.220   0.906
53702W        W13205  24.190  44.920  13.974
53703W        W13206   9.189  44.455  12.342
53704W        W13207  36.090  21.180   3.829
53705W        W13208  44.786   1.775   0.413
53706W        W13209   7.842   1.926  14.944
53707W        W13210  14.327  32.574  14.937
53708W        W13211  31.557  32.459   3.760
53709W        W13212   4.847  29.125  13.363
53710W        W13213  25.192   1.788   3.328
53711W        W13214  24.542  36.061   4.240
53712W        W13215   8.744  23.601  14.514
53713W        W13216  43.826  22.588   0.398
53714W        W13217  12.746  11.645  11.378
53715W        W13218  25.024   6.914  13.955
53716W        W13219  18.291  42.310  10.449
53717W        W13220  25.217  19.631  11.488
53718W        W13221  12.763  18.172   2.382
53719W        W13222  25.192   7.677  14.319
53720W        W13223  25.642  43.998   2.886
53721W        W13224  25.538   6.751   2.699
53722W        W13225   1.830  32.440   0.966
53723W        W13226  14.711  11.243  10.951
53724W        W13227  23.996  41.391  13.970
53725W        W13228  35.558  29.033  14.011
53726W        W13229  35.075   2.301  14.498
53727W        W13230   8.210  15.236   4.628
53728W        W13231  23.188  17.167   2.693
53729W        W13232  31.954  44.473   3.301
53730W        W13233   9.272  17.608   3.832
53731W        W13234  18.211  24.120  12.834
53732W        W13235   7.845   4.274  14.501
53733W        W13236   3.437   2.793   3.835
53734W        W13237  26.979  15.609   1.226
53735W        W13238  24.987   5.801   2.288
53736W        W13239  14.752  11.780  13.940
53737W        W13240  17.705  11.342  10.615
53738W        W13241   6.823  35.099   0.734
53739W        W13242  29.657   7.417  14.834
53740W        W13243   5.392  15.248   5.100
53741W        W13244  39.830  24.520  11.986
53742W        W13245  28.000   7.788  11.594
53743W        W13246  28.111   2.250   0.903
53744W        W13247  28.066  41.453  11.114
53745W        W13248  38.966   6.215   3.757
53746W        W13249  43.947  28.579   5.147
53747W        W13250  37.380  40.449  12.573
53748W        W13251  15.721  28.605  13.927
53749W        W13252   2.900  37.038  11.080
53750W        W13253  44.260  39.323   2.863
53751W        W13254  35.482  30.984  11.525
53752W        W13255  15.178  11.674  13.377
53753W        W13256  36.585  41.373   3.695
53754W        W13257   9.720   2.378   3.711
53755W        W13258  36.864   8.264   0.478
53756W        W13259  26.208   8.319  13.483
53757W        W13260  28.456   7.790   3.165
53758W        W13261  17.160  29.537   3.796
53759W        W13262  41.294   0.936   2.238
53760W        W13263  20.532  14.758  11.976
53761W        W13264  37.491  34.550   0.370
53762W        W13265  43.826  13.691  12.910
53763W        W13266  37.985  40.386  11.061
53764W        W13267  14.114  22.576   4.127
53765W        W13268  21.704  20.651   4.665
53766W        W13269  37.456   5.702   1.287
53767W        W13270  23.553  33.028  12.365
53768W        W13271  19.166  38.488   3.759
53769W        W13272  26.196   3.926   2.723
53770W        W13273  32.548  42.883   0.943
53771W        W13274  38.545  16.232  10.415
53772W        W13275   3.932  44.976   0.927
53773W        W13276   9.710  27.655  14.933
53774W        W13277   9.740  27.047  12.000
53775W        W13278  17.236  36.560  14.381
53776W        W13279   1.953  21.189   4.251
53777W        W13280  23.008  16.265   1.265
53778W        W13281  16.095  26.135  13.810
53779W        W13282  25.121  35.882  10.462
53780W        W13283   1.969  26.175  11.095
53781W        W13284  23.082   0.788   1.426
53782W        W13285  36.460  24.095   0.933
53783W        W13286  16.087  36.908  14.473
53784W        W13287  27.608  20.710   0.761
53785W        W13288  35.585  37.002  13.520
53786W        W13289  43.274  37.070  12.084
53787W        W13290  23.150  19.099  12.944
53788W        W13291  29.111  35.005   5.231
53789W        W13292   9.819  33.977   4.616
53790W        W13293  34.087  40.404   4.694
53791W        W13294  33.090  17.734  12.087
53792W        W13295   3.922  14.703   2.701
53793W        W13296  20.152   2.877   2.326
53794W        W13297  18.719  27.941   5.111
53795W        W13298  33.888  35.548   4.321
53796W        W13299  20.737   7.229   2.306
53797W        W13300  15.221   9.666  11.863
53798W        W13301  30.577  11.704  12.947
53799W        W13302  13.187   2.871  10.569
53800W        W13303  43.875  29.012   0.961
53801W        W13304  31.527  25.090   2.353
53802W        W13305   9.708  13.667  11.446
53803W        W13306  36.347  16.694  13.871
53804W        W13307  26.519   5.293  12.928
53805W        W13308   2.230  19.636  12.943
53806W        W13309  18.655  32.433   2.326
53807W        W13310  33.529  18.686  10.627
53808W        W13311  33.119  38.957  11.983
53809W        W13312  31.487  18.692   3.199
53810W        W13313  23.505   8.196  12.411
53811W        W13314  30.564  34.864  11.118
53812W        W13315  33.493  38.045   3.214
53813W        W13316  27.989  27.980  14.797
53814W        W13317  37.858  12.675   1.733
53815W        W13318  22.190  38.380   4.787
53816W        W13319  35.047  29.499   3.219
53817W        W13320  38.986  16.289   4.224
53818W        W13321  30.427  31.114   3.770
53819W        W13322  26.526   6.378   2.207
53820W        W13323  17.304  24.061  10.451
53821W        W13324  14.662   8.163  11.090
53822W        W13325   1.832   7.279  12.932
53823W        W13326  14.690  21.628   0.297
53824W        W13327  41.918  30.645  11.124
53825W        W13328  38.939  42.808  11.865
53826W        W13329  42.471   0.469   4.682
53827W        W13330  43.877  12.829  10.561
53828W        W13331  23.072  13.600   0.891
53829W        W13332  32.010  12.293   3.360
53830W        W13333   8.839  40.400   1.787
53831W        W13334  33.531  21.758  12.467
53832W        W13335  22.105  28.060  13.439
53833W        W13336   9.257  18.640   9.538
53834W        W13337   0.768  35.073   3.290
53835W        W13338  15.139   6.802   4.194
53836W        W13339  26.569  15.692  12.522
53837W        W13340  28.064  32.104  11.990
53838W        W13341  15.184   3.448   4.708
53839W        W13342  24.640  18.119   1.310
53840W        W13343  43.414  12.311  13.937
53841W        W13344  28.964  37.938  14.962
53842W        W13345  44.851  28.955   2.674
53843W        W13346  35.946  26.084   0.875
53844W        W13347  11.718   2.416  10.510
53845W        W13348   3.829   2.934   4.208
53846W        W13349  31.457  40.894   4.280
53847W        W13350  39.942   0.327   1.714
53848W        W13351   3.710   1.825   5.231
53849W        W13352  40.821  27.940  13.971
53850W        W13353  34.538  27.070   2.818
53851W        W13354  18.170  36.532   4.313
53852W        W13355  42.334  19.652   0.880
53853W        W13356  23.988  21.077   4.599
53854W        W13357  18.619   6.234  10.593
53855W        W13358   2.776   1.790   2.195
53856W        W13359  27.164  22.134  14.762
53857W        W13360  14.713  39.811  11.424
53858W        W13361  34.419  15.809   4.715
53859W        W13362   6.779   9.375  10.522
53860W        W13363  18.220  40.447   1.796
53861W        W13364  38.035   1.930   0.855
53862W        W13365  32.105  43.783   1.324
53863W        W13366  19.106  43.451   4.715
53864W        W13367   6.291  10.823  12.058
53865W        W13368  31.557  32.602   2.349
53866W        W13369  16.311  19.254   2.333
53867W        W13370  16.743  28.111  13.526
53868W        W13371  10.806  29.525  11.079
53869W        W13372  16.621  29.505  10.975
53870W        W13373  31.507  15.721   0.244
53871W        W13374  36.378  28.674  14.514
53872W        W13375   6.868   5.383   0.941
53873W        W13376  25.991  20.269   2.236
53874W        W13377  38.511  41.962  14.779
53875W        W13378   9.764  17.721  11.505
53876W        W13379  21.021  41.467   0.907
53877W        W13380   8.887  43.468  11.965
53878W        W13381  30.596   8.253  13.951
53879W        W13382  33.906  36.849   0.477
53880W        W13383  12.706  37.467  13.514
53881W        W13384  11.683  39.868   4.156
53882W        W13385   0.462  37.442   0.739
53883W        W13386  33.581  39.052   0.388
53884W        W13387  27.573  36.384  11.947
53885W        W13388  23.571   8.660   3.656
53886W        W13389  20.066  19.131   2.890
53887W        W13390   7.837   8.312  10.987
53888W        W13391  26.488  29.059   2.727
53889W        W13392  14.809  26.564   4.119
53890W        W13393  42.501  22.234   0.384
53891W        W13394  23.491  35.403  12.526
53892W        W13395  36.850  36.503  13.865
53893W        W13396  24.511  30.463   2.254
53894W        W13397  20.209  12.829   4.328
53895W        W13398  31.545  22.164  10.495
53896W        W13399   5.868  28.033  11.471
53897W        W13400  23.160   1.454  14.031
53898W        W13401  41.394  22.139  14.280
53899W        W13402   7.329  42.794  12.423
53900W        W13403  41.042  11.763  11.996
53901W        W13404  12.851   9.355   2.757
53902W        W13405   5.895  10.250   3.661
53903W        W13406  22.056  39.325  13.950
53904W        W13407   6.239  24.704   0.284
53905W        W13408  29.939  40.474  10.987
53906W        W13409   1.922   3.323  11.040
53907W        W13410  33.551  25.064   3.661
53908W        W13411  40.845  37.968   3.228
53909W        W13412   1.759  33.903   1.839
53910W        W13413  13.317  39.371  14.383
53911W        W13414  42.962  33.972   3.858
53912W        W13415  15.294  28.075   3.355
53913W        W13416  12.263  22.714  11.482
53914W        W13417   8.172  31.945   4.661
53915W        W13418   1.887  33.122   0.425
53916W        W13419   7.846  43.865   4.745
53917W        W13420  28.576  12.274  11.070
53918W        W13421  42.793  33.624  11.099
53919W        W13422  38.071  39.472  11.096
53920W        W13423  43.398  42.878  12.087
53921W        W13424  20.134  30.948   0.363
53922W        W13425  32.918  23.235   2.866
53923W        W13426   6.739  34.059  13.494
53924W        W13427  42.475  42.324  13.338
53925W        W13428  29.525   4.706   4.828
53926W        W13429   1.974  31.644  14.384
53927W        W13430  22.699  12.819  12.086
53928W        W13431  20.126  26.105  14.944
53929W        W13432  31.601  30.914  13.791
53930W        W13433  31.108  35.394   5.242
53931W        W13434  16.583  21.055   3.238
53932W        W13435   1.295  28.986   5.095
53933W        W13436  44.372  36.519   0.375
53934W        W13437   2.741  39.412   2.342
53935W        W13438  30.607   6.782  11.103
53936W        W13439   6.777  13.775   1.292
53937W        W13440  25.619  34.591  14.402
53938W        W13441  30.035  20.628  13.375
53939W        W13442  34.530  15.211  14.454
53940W        W13443  15.327  20.031  12.063
53941W        W13444  44.384  30.968   4.620
53942W        W13445  43.321  29.537   1.873
53943W        W13446  23.144  13.186  13.485
53944W        W13447  13.348  40.882  12.846
53945W        W13448   1.750  28.170   0.744
53946W        W13449  38.957  39.844  11.508
53947W        W13450  40.009  32.540   0.312
53948W        W13451  33.394  17.279   3.850
53949W        W13452  37.433   3.449  13.471
53950W        W13453  27.492  32.416   4.168
53951W        W13454  31.047  22.641   1.925
53952W        W13455  22.125  15.309   2.893
53953W        W13456  39.842  17.650   1.296
53954W        W13457  16.671  41.337  11.882
53955W        W13458  30.496  11.736   4.697
53956W        W13459  43.287   3.952   0.482
53957W        W13460  14.695  19.149   0.461
53958W        W13461  34.545  14.276  14.464
53959W        W13462  33.613  16.805  12.996
53960W        W13463   2.287  15.686  14.023
53961W        W13464  12.353  34.393  14.420
53962W        W13465  41.519  32.394  13.439
53963W        W13466  37.965  10.304   4.138
53964W        W13467  19.623   9.191   2.364
53965W        W13468  12.234   5.749  13.869
53966W        W13469  32.105   2.733  11.938
53967W        W13470  29.466  43.771   3.680
53968W        W13471  33.948  38.859  12.552
53969W        W13472   2.460  23.660   4.798
53970W        W13473  35.448  28.973   1.857
53971W        W13474  17.266  10.694  12.447
53972W        W13475  38.545  37.372   2.738
53973W        W13476  11.655  21.027  12.532
53974W        W13477   7.765  32.584  14.352
53975W        W13478  11.638  19.104   1.217
53976W        W13479   4.810  39.448   4.728
53977W        W13480  36.397  38.542   4.173
53978W        W13481   6.778   1.733  13.507
53979W        W13482  13.324  12.245  14.403
53980W        W13483  21.025  42.880  10.131
53981W        W13484  23.524  18.708  11.477
53982W        W13485  27.609  42.445   1.265
53983W        W13486  32.588  44.365  10.008
53984W        W13487  10.273  26.659   3.707
53985W        W13488  13.218  41.441   0.920
53986W        W13489  13.826  22.995  14.494
53987W        W13490  44.272  21.610   1.328
53988W        W13491  15.757   8.357   3.691
53989W        W13492  34.084  44.469  13.387
53990W        W13493  36.017  44.801   0.879
53991W        W13494  41.870   5.832   1.391
53992W        W13495   2.312  43.873  14.996
53993W        W13496  25.573  26.020  12.946
53994W        W13497   6.854   8.862  13.502
53995W        W13498   4.835   9.196  13.878
53996W        W13499  37.356  32.141  11.893
53997W        W13500  38.341   7.412   4.717
53998W        W13501  34.510  12.154  12.890
53999W        W13502  13.717   2.233   2.814
54000W        W13503   2.228  38.369   2.338
54001W        W13504  16.100  35.445   1.863
54002W        W13505  39.391  27.658   2.339
54003W        W13506  30.922  20.577  11.891
54004W        W13507   2.469  20.197   3.653
54005W        W13508  16.094  17.173  12.034
54006W        W13509  21.723   2.425  11.431
54007W        W13510  38.360   9.363  12.399
54008W        W13511  11.701  43.809   1.265
54009W        W13512   4.227  42.904  11.944
54010W        W13513  31.437   1.245  12.517
54011W        W13514  38.428  43.388  11.093
54012W        W13515  26.607   2.347  12.992
54013W        W13516  38.326  15.262  14.917
54014W        W13517  37.893   5.386  14.853
54015W        W13518  37.984   5.847   2.683
54016W        W13519  31.626  24.621   1.255
54017W        W13520  14.686  30.096   3.319
54018W        W13521  19.137  42.500   3.747
54019W        W13522   9.315   6.300  13.976
54020W        W13523  31.144  28.167  12.076
54021W        W13524  25.101  35.375  10.582
54022W        W13525   0.319   1.941  11.476
54023W        W13526  28.981  10.286   2.683
54024W        W13527  15.623   7.235   0.477
54025W        W13528  38.463  36.500   0.761
54026W        W13529  30.584  20.240  13.539
54027W        W13530  18.639   9.721  14.459
54028W        W13531  18.192  43.406   1.365
54029W        W13532  37.468  32.601  14.512
54030W        W13533  35.901   3.753   4.260
54031W        W13534   1.307  27.658  13.919
54032W        W13535  39.927  11.330  14.904
54033W        W13536  15.594  26.514  13.981
54034W        W13537   1.940   3.766  13.481
54035W        W13538  40.398   8.702  14.024
54036W        W13539  20.609  22.122  12.377
54037W        W13540  32.560  37.883   1.848
54038W        W13541  40.471  30.910  10.411
54039W        W13542  27.598  41.505  14.018
54040W        W13543  21.144  16.598   1.828
54041W        W13544  41.992  36.485  11.592
54042W        W13545  31.075   5.746  10.086
54043W        W13546  32.074  27.943  11.886
54044W        W13547  30.639   8.659   3.683
54045W        W13548  31.961  26.584  14.418
54046W        W13549  39.969  44.354   2.815
54047W        W13550  10.141  36.530  10.438
54048W        W13551   5.763  32.930   0.831
54049W        W13552  17.798  18.776   4.319
54050W        W13553  15.159  19.210   1.446
54051W        W13554  25.586  41.441   3.177
54052W        W13555   0.841  24.616  11.507
54053W        W13556  42.777  16.281  13.914
54054W        W13557  32.101  41.318  13.458
54055W        W13558  13.177  25.172   4.739
54056W        W13559  24.177  33.565  14.016
54057W        W13560  19.651  26.201   4.680
54058W        W13561  31.536  31.926   3.828
54059W        W13562  10.633  38.964  14.873
54060W        W13563  31.129  19.119   2.766
54061W        W13564  14.702   4.716  11.092
54062W        W13565  15.656   1.804   0.895
54063W        W13566   0.887  28.945  13.910
54064W        W13567  43.881  31.938   0.477
54065W        W13568   0.779  17.574  11.395
54066W        W13569  43.306  23.991  13.927
54067W        W13570  30.446   1.841  13.833
54068W        W13571  31.581  39.849   3.374
54069W        W13572  23.197  16.121   4.216
54070W        W13573  28.020  19.151   0.783
54071W        W13574  13.286   1.927  10.014
54072W        W13575  15.290   7.699   4.211
54073W        W13576  42.500  10.786  10.533
54074W        W13577  33.414   7.848  11.474
54075W        W13578  31.569  43.811  14.464
54076W        W13579  29.145  14.096  12.391
54077W        W13580  25.508  16.299   2.767
54078W        W13581   4.912  26.128  10.572
54079W        W13582  27.014  42.284   2.319
54080W        W13583  21.581  42.493  10.457
54081W        W13584  31.017  18.058  10.484
54082W        W13585  44.454   7.797  12.006
54083W        W13586   2.348  31.133   0.438
54084W        W13587  32.615  33.461   1.214
54085W        W13588  10.143  32.618  12.964
54086W        W13589  15.211  12.170  13.532
54087W        W13590  24.571  24.136   4.651
54088W        W13591  29.529  14.132   2.796
54089W        W13592  21.606  20.722   4.332
54090W        W13593  19.079  32.398  12.864
54091W        W13594  40.011  21.601  11.965
54092W        W13595  26.473  26.577   4.659
54093W        W13596  23.733   1.806   1.906
54094W        W13597   3.374   8.331  14.308
54095W        W13598  41.832   0.809   0.876
54096W        W13599   7.318   2.372   2.212
54097W        W13600   0.859   8.239  10.494
54098W        W13601  35.052  40.968   4.113
54099W        W13602  44.420   5.338   3.671
54100W        W13603  35.436  16.702   4.275
54101W        W13604  11.741  22.053   3.679
54102W        W13605   3.847   4.727   2.244
54103W        W13606   9.710  25.173  10.424
54104W        W13607  43.276   4.800  14.903
54105W        W13608  34.903  18.611  11.495
54106W        W13609  31.988  17.707   4.660
54107W        W13610  11.740   2.915   2.369
54108W        W13611  41.948   9.357  13.379
54109W        W13612  16.082  43.408   2.886
54110W        W13613  42.349  24.555   4.748
54111W        W13614  22.745  18.726  11.401
54112W        W13615  38.073   6.811  12.533
54113W        W13616  15.592  40.327   0.823
54114W        W13617  15.622  14.724  14.884
54115W        W13618  32.635  17.263  10.607
54116W        W13619   2.841  14.696   0.293
54117W        W13620  19.092  39.395   2.249
54118W        W13621   1.397  21.634  11.869
54119W        W13622  32.457  17.766   0.779
54120W        W13623  19.227  40.378   1.882
54121W        W13624  35.947  44.850   2.241
54122W        W13625   8.855  23.164  12.977
54123W        W13626   2.963  16.229  14.808
54124W        W13627   1.466  21.147  12.978
54125W        W13628  43.402   7.190   4.740
54126W        W13629  11.866  38.049  12.829
54127W        W13630  24.142  37.379  11.473
54128W        W13631  11.772  44.383   5.228
54129W        W13632   4.365  42.411   4.633
54130W        W13633  18.597  13.288  13.946
54131W        W13634  17.213  12.325  10.032
54132W        W13635  43.443  36.862  11.422
54133W        W13636  23.718  41.527   1.224
54134W        W13637   3.754  10.358   0.757
54135W        W13638  44.901  14.783   1.371
54136W        W13639   2.879   8.751   2.200
54137W        W13640   4.750  15.205  13.947
54138W        W13641   3.294  19.171   3.331
54139W        W13642  32.409  15.256  11.502
54140W        W13643  43.953  41.899  12.900
54141W        W13644  18.684   7.805   1.897
54142W        W13645  14.763  27.084  13.352
54143W        W13646  27.940  16.255   4.677
54144W        W13647  19.656  37.050  11.088
54145W        W13648   1.411   4.803   2.210
54146W        W13649   0.301  12.334   0.298
54147W        W13650   8.733  40.901   0.803
54148W        W13651  17.276  15.680   0.382
54149W        W13652  43.483  19.620   1.876
54150W        W13653  17.758   6.920   4.662
54151W        W13654  42.857   3.824   1.392
54152W        W13655   6.777  36.056  12.546
54153W        W13656  32.500   1.238  14.905
54154W        W13657  27.076   5.740   0.917
54155W        W13658  18.055  11.144  14.791
54156W        W13659  16.301  42.966  11.473
54157W        W13660   2.800  15.590   4.729
54158W        W13661  16.704  26.956   1.746
54159W        W13662  19.225  22.238   3.716
54160W        W13663  28.991   2.412  10.485
54161W        W13664   4.365  17.565  10.552
54162W        W13665   6.846  32.472   3.787
54163W        W13666  23.045   7.225  14.367
54164W        W13667   0.794  42.968   2.870
54165W        W13668  28.985  22.041  10.592
54166W        W13669  23.192   9.318  12.053
54167W        W13670  44.300  10.643  10.522
54168W        W13671  39.398  26.125   0.946
54169W        W13672   0.903  21.099   0.407
54170W        W13673  28.039  18.057  14.478
54171W        W13674   0.325  22.526  14.337
54172W        W13675  16.720   3.929   3.158
54173W        W13676  12.360  17.195  11.082
54174W        W13677  27.684  38.963  12.482
54175W        W13678  13.762  12.695   3.657
54176W        W13679   7.672  26.690   3.815
54177W        W13680  13.319  35.944  12.548
54178W        W13681  34.569  35.476  11.953
54179W        W13682  18.286   4.899  11.085
54180W        W13683   0.764  34.016   2.781
54181W        W13684  27.143  41.862  12.978
54182W        W13685  22.580  12.270   4.775
54183W        W13686   9.833  39.835  14.385
54184W        W13687   8.849  32.056  12.971
54185W        W13688  18.732  13.183   4.324
54186W        W13689   3.449  29.151   1.855
54187W        W13690  10.803   2.898   3.286
54188W        W13691  39.469  39.811  10.632
54189W        W13692  31.456   1.287  11.097
54190W        W13693  33.436  21.087  14.959
54191W        W13694   1.965  14.595  14.449
54192W        W13695  14.669  35.864  12.033
54193W        W13696  27.551   1.747   0.853
54194W        W13697   2.246  29.065  12.464
54195W        W13698  16.755  19.551   1.403
54196W        W13699  37.959   3.942  11.477
54197W        W13700  39.890  22.646  12.072
54198W        W13701  29.018   9.721   0.253
54199W        W13702   6.716  10.691  10.602
54200W        W13703  40.473  11.373  13.904
54201W        W13704  24.219  22.036  12.497
54202W        W13705  26.962  28.539   3.754
54203W        W13706  37.406  14.271  14.477
54204W        W13707  36.485  31.057   2.860
54205W        W13708  27.185   5.193   2.712
54206W        W13709  40.935  35.378  12.442
54207W        W13710  34.078  15.668   2.803
54208W        W13711  38.424  16.746   2.197
54209W        W13712  12.330  40.016   1.425
54210W        W13713  44.806   7.903  14.762
54211W        W13714  26.526  34.402   0.820
54212W        W13715  18.147   0.369  12.350
54213W        W13716  37.847   8.880   4.223
54214W        W13717  22.153  35.493  11.023
54215W        W13718  29.594   5.840   0.428
54216W        W13719   2.749  39.056  12.058
54217W        W13720  11.661  32.510   1.261
54218W        W13721  21.723  19.246   4.229
54219W        W13722  27.041  12.178   0.332
54220W        W13723  38.848  13.340   1.866
54221W        W13724  34.042  31.526   4.136
54222W        W13725  13.756  16.198  13.336
54223W        W13726  40.851  15.701  11.602
54224W        W13727  22.252  40.907  10.440
54225W        W13728  15.665   1.952   2.391
54226W        W13729  20.054  19.728  14.818
54227W        W13730  25.544  35.888   0.300
54228W        W13731  35.891   6.759  14.911
54229W        W13732  42.499  14.271  14.013
54230W        W13733  37.403   2.788   4.202
54231W        W13734  40.977  20.651   3.169
54232W        W13735  28.440   9.319  12.003
54233W        W13736   2.413  23.069   2.219
54234W        W13737   8.249   2.810  13.495
54235W        W13738  28.467   0.341  10.449
54236W        W13739   1.273  29.175  13.534
54237W        W13740   5.280  44.499   3.219
54238W        W13741  34.557  16.288  12.538
54239W        W13742   6.781   3.864   4.717
54240W        W13743  16.624  43.473  13.856
54241W        W13744  10.866  25.064   2.692
54242W        W13745   5.888  18.106   0.310
54243W        W13746  17.155  26.035  11.961
54244W        W13747   3.831   7.841  13.315
54245W        W13748  15.581  28.444  12.472
54246W        W13749  23.010   2.288   1.860
54247W        W13750   5.703   7.802  11.514
54248W        W13751  34.916  18.286   3.274
54249W        W13752  12.623  21.655  11.575
54250W        W13753  42.780  14.661   3.319
54251W        W13754  10.664  40.968   4.618
54252W        W13755  32.548  31.525   3.214
54253W        W13756  40.306  38.915   1.242
54254W        W13757  43.298  27.481   3.360
54255W        W13758  24.032  19.746   0.805
54256W        W13759  13.143  18.110  11.070
54257W        W13760  16.769  14.217  11.067
54258W        W13761  16.660   3.750  10.920
54259W        W13762  25.213  18.176   1.215
54260W        W13763  17.201  33.539   4.825
54261W        W13764  29.134  22.013   2.808
54262W        W13765  14.145  37.951  12.940
54263W        W13766  20.199  38.857   4.781
54264W        W13767  36.080  16.284   2.222
54265W        W13768  22.619  41.949   3.808
54266W        W13769   6.364  40.330   1.832
54267W        W13770  28.613  19.695   2.858
54268W        W13771  20.608   6.776   1.919
54269W        W13772  17.668   0.336   0.377
54270W        W13773   5.326   3.357   4.836
54271W        W13774  27.040  11.690   1.905
54272W        W13775   6.878  42.402   0.927
54273W        W13776  22.151  40.487  12.386
54274W        W13777  40.801   3.453  12.054
54275W        W13778   9.358   5.242  13.940
54276W        W13779   9.157   5.742  10.428
54277W        W13780  27.585  15.824   2.389
54278W        W13781  36.425  40.535  13.887
54279W        W13782  43.412  18.715  11.517
54280W        W13783  27.002   2.384  10.933
54281W        W13784   8.861   0.436   2.401
54282W        W13785  27.659  26.553  12.930
54283W        W13786  44.433  12.843  14.767
54284W        W13787   1.329  20.273  12.942
54285W        W13788   4.406   8.836  13.890
54286W        W13789   0.408  22.612  12.550
54287W        W13790   2.437  28.635   1.751
54288W        W13791  13.639  36.940  13.361
54289W        W13792  20.725  18.243  10.549
54290W        W13793  24.060  18.114   2.845
54291W        W13794  31.401  21.551  14.950
54292W        W13795  25.202   1.382  10.593
54293W        W13796  39.833  13.150  11.384
54294W        W13797  27.977  37.028   2.831
54295W        W13798   8.320   5.785  12.497
54296W        W13799  37.529   6.385   1.855
54297W        W13800  43.956   4.391   1.713
54298W        W13801   9.773  42.442  12.381
54299W        W13802  42.861  34.383   1.329
54300W        W13803  34.988  26.115  14.846
54301W        W13804  27.603  30.066  10.587
54302W        W13805   2.329  28.125   1.926
54303W        W13806  33.443  15.085  14.762
54304W        W13807  30.943  28.930  10.039
54305W        W13808  10.768   7.884  10.949
54306W        W13809   7.408  28.507  14.284
54307W        W13810  17.688  27.951   1.883
54308W        W13811  40.334  37.001  11.492
54309W        W13812  32.116  12.279   3.813
54310W        W13813  27.130   8.817  12.378
54311W        W13814  11.806  44.919  10.425
54312W        W13815   9.157   0.964  11.504
54313W        W13816   4.336  39.971  13.814
54314W        W13817  29.606  15.584   2.870
54315W        W13818  21.535  39.411   0.784
54316W        W13819  19.184  24.491  12.981
54317W        W13820  34.511  10.774  10.429
54318W        W13821   1.763   6.319   1.735
54319W        W13822  25.571  25.095   2.812
54320W        W13823  13.298  13.275  13.982
54321W        W13824  17.064  22.170   1.365
54322W        W13825  16.245  27.633  14.500
54323W        W13826  24.574  21.570  14.972
54324W        W13827   9.861  32.926  14.323
54325W        W13828   2.303  41.902   5.623
54326W        W13829  13.679   1.377   4.833
54327W        W13830  30.540  22.059   4.762
54328W        W13831   7.696   0.774   2.730
54329W        W13832  41.296   3.893  11.591
54330W        W13833  35.016   3.307   1.851
54331W        W13834   5.856  35.591   1.296
54332W        W13835  24.990  18.555  13.946
54333W        W13836  43.924   6.314   1.770
54334W        W13837  25.181  35.448   4.627
54335W        W13838  43.797  12.664  11.974
54336W        W13839  38.437   6.689   2.806
54337W        W13840  32.589  36.074  10.151
54338W        W13841  10.157   1.932   4.235
54339W        W13842  37.893  31.920  13.828
54340W        W13843  23.499  22.556   1.811
54341W        W13844  40.007  43.894  14.477
54342W        W13845  42.381  32.495  13.363
54343W        W13846   2.725  35.430   1.435
54344W        W13847   1.776  32.021  11.522
54345W        W13848  24.496   2.254  12.940
54346W        W13849  12.144  22.676   4.720
54347W        W13850  39.898  44.958   3.188
54348W        W13851  12.300   7.892  11.510
54349W        W13852   1.806  27.661  14.901
54350W        W13853  41.490  19.670  12.403
54351W        W13854   9.345   9.685  14.856
54352W        W13855   5.253   3.871  10.929
54353W        W13856   0.871  16.612  13.019
54354W        W13857   1.298  34.931  13.047
54355W        W13858  17.198  24.186   5.318
54356W        W13859   7.715   8.852  14.869
54357W        W13860   9.368  10.344  13.350
54358W        W13861  36.904  42.339   1.751
54359W        W13862  39.970   9.234  12.342
54360W        W13863  42.968  34.509   0.792
54361W        W13864  40.418   7.180  11.964
54362W        W13865   2.767  34.518   4.720
54363W        W13866   0.804  17.086   3.822
54364W        W13867  24.069  22.210   3.825
54365W        W13868   8.313  14.688   0.448
54366W        W13869  22.080  11.642  10.952
54367W        W13870  24.625  20.240  11.444
54368W        W13871  12.244   3.782  14.764
54369W        W13872  42.797   8.399   3.850
54370W        W13873  27.073  20.143   2.295
54371W        W13874  21.663  11.812  11.096
54372W        W13875  37.535   0.405   0.861
54373W        W13876  27.006   7.810  14.928
54374W        W13877   5.870  30.535   1.233
54375W        W13878  40.494  21.123  10.570
54376W        W13879  28.441  14.233  10.938
54377W        W13880  28.996  31.963  10.441
54378W        W13881   4.900   4.844  13.418
54379W        W13882  25.509  43.934   3.632
54380W        W13883  20.098   6.730   2.864
54381W        W13884  38.936  24.061   1.806
54382W        W13885  33.547  44.384  11.500
54383W        W13886  30.533  35.439   2.199
54384W        W13887   3.794  13.231  14.488
54385W        W13888  26.090  24.992  10.620
54386W        W13889  31.084  41.839   3.178
54387W        W13890  11.189  14.244   4.701
54388W        W13891  28.647   1.372   0.870
54389W        W13892  13.282   3.882  10.941
54390W        W13893  32.511  17.742  14.386
54391W        W13894  20.665  33.081   1.908
54392W        W13895   8.794  12.727   3.669
54393W        W13896  13.255  31.586   0.297
54394W        W13897  21.113   6.337   1.283
54395W        W13898  22.656  15.582  10.595
54396W        W13899  23.493  16.236   2.316
54397W        W13900  33.119  30.032   1.844
54398W        W13901  36.454  41.424   1.286
54399W        W13902   0.359  21.631   1.857
54400W        W13903  11.149  26.009   0.945
54401W        W13904  34.376  10.348   3.331
54402W        W13905  43.766  26.960   2.712
54403W        W13906   4.725  12.743   3.219
54404W        W13907   7.263   4.281  11.025
54405W        W13908  15.121  23.013   0.875
54406W        W13909  44.804  27.056  14.943
54407W        W13910   2.847  26.966  12.998
54408W        W13911   7.175  23.503   3.325
54409W        W13912  36.059  33.991   0.809
54410W        W13913  22.209   2.279   3.270
54411W        W13914  23.552   8.269   2.824
54412W        W13915   7.701  22.705  10.956
54413W        W13916  30.616  42.305  11.122
54414W        W13917  38.405  14.237   0.783
54415W        W13918  19.274  19.209   0.369
54416W        W13919   6.844  39.374  11.962
54417W        W13920  23.123  13.114  10.474
54418W        W13921  12.346  20.264   3.687
54419W        W13922  10.698  43.950  11.112
54420W        W13923  24.108  43.334  11.495
54421W        W13924  32.408  11.151   4.287
54422W        W13925  35.482  10.784  13.330
54423W        W13926   2.452  13.287  11.069
54424W        W13927  11.134  22.656  11.014
54425W        W13928  20.129  43.425   3.759
54426W        W13929  43.006  14.782  14.465
54427W        W13930  29.430  32.908  12.416
54428W        W13931  24.529  28.050   1.332
54429W        W13932   4.218  14.302  10.464
54430W        W13933  41.361  22.567   1.342
54431W        W13934   8.820   9.778   4.661
54432W        W13935  24.038  10.878  11.377
54433W        W13936  24.704   6.890  10.945
54434W        W13937  22.228  22.567  14.827
54435W        W13938  12.289  25.672  13.833
54436W        W13939  10.812  37.050  11.949
54437W        W13940  38.470  15.688   0.428
54438W        W13941   7.242  37.956  12.871
54439W        W13942  31.642  39.999  12.373
54440W        W13943   5.841  10.229  11.391
54441W        W13944   9.305  38.966  14.306
54442W        W13945  11.817  28.472   2.279
54443W        W13946  33.435  43.009  14.443
54444W        W13947  30.001  43.466   2.271
54445W        W13948  34.953   4.818   5.309
54446W        W13949   0.777   3.309   1.397
54447W        W13950  13.339  33.414  13.396
54448W        W13951  36.964  31.499  13.057
54449W        W13952  19.133  30.929   2.664
54450W        W13953  30.446   4.715  13.907
54451W        W13954  23.175  19.587  12.504
54452W        W13955   7.674  15.102   0.296
54453W        W13956   4.744   1.819   5.168
54454W        W13957  39.057  22.047  10.621
54455W        W13958   5.854   9.212  14.483
54456W        W13959  34.993   5.894  11.534
54457W        W13960  18.116  24.666   4.335
54458W        W13961  15.762  20.568  10.632
54459W        W13962  10.341  40.826  14.018
54460W        W13963  39.514  14.116  14.410
54461W        W13964  44.943  22.142   4.722
54462W        W13965  35.882   4.785  14.915
54463W        W13966  16.078   1.267  11.509
54464W        W13967  38.544  32.395   3.741
54465W        W13968  39.560  37.973   0.287
54466W        W13969  39.334   8.694   4.811
54467W        W13970  35.008  34.954  14.959
54468W        W13971  27.462   0.796   0.289
54469W        W13972  18.712   3.820  10.611
54470W        W13973   5.740  14.107   3.170
54471W        W13974  17.633  20.128   0.394
54472W        W13975  26.142   1.960  11.400
54473W        W13976  23.120  32.895  12.020
54474W        W13977  30.480   0.432  13.524
54475W        W13978  37.848  25.971  14.005
54476W        W13979  29.507  22.708  10.026
54477W        W13980   3.376   2.929   0.483
54478W        W13981  42.449  34.425  11.428
54479W        W13982   4.407  22.098  11.974
54480W        W13983  30.968  35.103   4.704
54481W        W13984  10.174   4.911   4.795
54482W        W13985  41.947  44.495   0.383
54483W        W13986  10.763  38.905  11.953
54484W        W13987  28.508  11.857  12.016
54485W        W13988   5.698  18.116   3.813
54486W        W13989  11.705  11.797   3.296
54487W        W13990  28.571  34.460   1.737
54488W        W13991  30.576   7.231   1.237
54489W        W13992  24.645  44.842   0.286
54490W        W13993  36.439  10.797  14.334
54491W        W13994  37.947  44.896  13.495
54492W        W13995  41.309  19.174  11.451
54493W        W13996  28.941  37.009  13.821
54494W        W13997  36.498   2.273  13.883
54495W        W13998  33.600  22.601  10.977
54496W        W13999  41.874  29.582  11.470
54497W        W14000  24.614  13.282   1.221
54498W        W14001  10.753  37.882   4.608
54499W        W14002  29.014   5.752  13.421
54500W        W14003   4.906  30.978   1.333
54501W        W14004  14.833   5.871  14.329
54502W        W14005   0.325   3.903   4.622
54503W        W14006   9.284  37.489   1.891
54504W        W14007  26.692  30.969  13.315
54505W        W14008  25.690  25.200   3.864
54506W        W14009  34.511   4.912   4.148
54507W        W14010  42.016  19.043  13.951
54508W        W14011  39.396   5.817  11.122
54509W        W14012  43.922  36.507   1.404
54510W        W14013  24.984   2.799   0.790
54511W        W14014  22.247  14.643   2.717
54512W        W14015  18.545   2.741  14.934
54513W        W14016   6.701  14.278  11.939
54514W        W14017  12.779  10.663   4.179
54515W        W14018  12.287  40.974   2.242
54516W        W14019  44.387  17.218   4.336
54517W        W14020  42.330  42.786  12.967
54518W        W14021  22.048   5.921  11.432
54519W        W14022   3.874  33.385  10.447
54520W        W14023  36.950  18.293   4.772
54521W        W14024  24.192  26.604   1.874
54522W        W14025  31.007  20.055   2.832
54523W        W14026  23.660  43.393   3.674
54524W        W14027  42.423  24.169   1.884
54525W        W14028  28.545  39.990  12.030
54526W        W14029  24.222  16.169   4.655
54527W        W14030  13.753  16.576   3.766
54528W        W14031  15.297   3.801   2.362
54529W        W14032  17.677  39.950  11.459
54530W        W14033   8.278  17.121  12.992
54531W        W14034  15.691  32.509   1.413
54532W        W14035  10.314  31.490  14.782
54533W        W14036   1.434  22.032  13.487
54534W        W14037  15.235  22.192  12.950
54535W        W14038  25.156  11.652  11.923
54536W        W14039  24.655  40.330  11.998
54537W        W14040   0.794  11.635  14.837
54538W        W14041  29.167  17.164  11.424
54539W        W14042   0.431  26.205  10.619
54540W        W14043  39.053   3.892   2.743
54541W        W14044   2.927  20.536  12.518
54542W        W14045  30.057   0.469  12.378
54543W        W14046  19.263  25.529  11.963
54544W        W14047  17.105  25.639   0.459
54545W        W14048  21.168  17.773  13.040
54546W        W14049  30.587  19.611   0.381
54547W        W14050   2.771  23.179   2.338
54548W        W14051  14.770  15.699  12.848
54549W        W14052  44.356  12.673  10.605
54550W        W14053  30.091  25.089   5.757
54551W        W14054  28.090  44.483  10.142
54552W        W14055  34.475  27.041  13.946
54553W        W14056  35.875  26.493   2.387
54554W        W14057  29.098  20.051  13.434
54555W        W14058  36.078   4.385   1.332
54556W        W14059  37.364  36.472  13.813
54557W        W14060   8.272  27.568   3.654
54558W        W14061  21.252  43.812   5.199
54559W        W14062  35.993   8.712   4.191
54560W        W14063   2.404  15.665  12.923
54561W        W14064  38.346  38.003  12.973
54562W        W14065  19.686  15.147  13.513
54563W        W14066  21.103  23.025   1.749
54564W        W14067   1.916  14.282   2.808
54565W        W14068  21.153  12.283  13.000
54566W        W14069  25.553  19.620   2.829
54567W        W14070  15.796  37.870  14.449
54568W        W14071  24.006  22.541   2.789
54569W        W14072  28.084   5.824  14.929
54570W        W14073  17.569  31.050   3.771
54571W        W14074  34.066   1.330   2.271
54572W        W14075   1.815  26.151  14.368
54573W        W14076  11.718  40.320  14.778
54574W        W14077   0.810  31.992  10.433
54575W        W14078   8.835   2.886  12.413
54576W        W14079  40.806  12.724   2.293
54577W        W14080  27.111  16.581   3.340
54578W        W14081  19.584  23.639  13.517
54579W        W14082  17.636  16.096  11.384
54580W        W14083  21.518  23.510  14.410
54581W        W14084  29.045   6.184   2.698
54582W        W14085  12.615   4.357   1.924
54583W        W14086  36.588  41.440   4.690
54584W        W14087  40.841  25.199  13.950
54585W        W14088  29.010  33.547  14.448
54586W        W14089   1.331  31.506   4.197
54587W        W14090  14.740  40.448   4.723
54588W        W14091  23.649  33.892   3.698
54589W        W14092  28.514  25.050   2.745
54590W        W14093  19.167  27.971  12.414
54591W        W14094  27.956   3.407   2.418
54592W        W14095   3.714  15.321   3.195
54593W        W14096  36.525  42.433   0.406
54594W        W14097  28.577  32.014   4.781
54595W        W14098  40.406  25.184  12.453
54596W        W14099   5.282  23.997   4.701
54597W        W14100  24.088  36.996   4.701
54598W        W14101   5.785  32.890  10.972
54599W        W14102  14.597  37.492   4.334
54600W        W14103  29.497  37.846  14.503
54601W        W14104  25.691  40.963  11.091
54602W        W14105   7.264  23.634  11.889
54603W        W14106  36.947  21.575   0.375
54604W        W14107  24.484  33.058  10.919
54605W        W14108  35.438  20.118  13.400
54606W        W14109  19.205  13.700  12.378
54607W        W14110  12.780  12.841  13.381
54608W        W14111  33.624  31.470   0.748
54609W        W14112  24.989  20.124   4.337
54610W        W14113  24.059   5.250   9.671
54611W        W14114  20.737  10.633   3.780
54612W        W14115   9.890   8.383  14.319
54613W        W14116  30.018  19.773  11.534
54614W        W14117  29.459  20.736   4.174
54615W        W14118  34.044   0.784  10.629
54616W        W14119  28.028  27.471   2.747
54617W        W14120  37.414  24.209   1.423
54618W        W14121  33.610  37.907  12.863
54619W        W14122  30.020   5.250  14.394
54620W        W14123  25.139  43.769   1.835
54621W        W14124  25.574  10.383  10.086
54622W        W14125  20.046  34.495   0.774
54623W        W14126  26.065  42.940   2.221
54624W        W14127  32.021   0.363   1.263
54625W        W14128  12.286   4.725  10.938
54626W        W14129  20.551   6.750  12.474
54627W        W14130  22.556  44.993  14.789
54628W        W14131  28.980   2.410  14.837
54629W        W14132  44.939  15.652   2.261
54630W        W14133  35.578  11.361  10.944
54631W        W14134   5.204  21.638  14.790
54632W        W14135  14.647  28.527   2.690
54633W        W14136  24.172  27.966  11.020
54634W        W14137  32.974  18.267  11.869
54635W        W14138  24.114  11.231   2.415
54636W        W14139  34.407  13.167  10.467
54637W        W14140  24.230  44.464   3.751
54638W        W14141   3.371   0.898  11.550
54639W        W14142  36.915  29.453   4.718
54640W        W14143  13.199   0.924   0.908
54641W        W14144  25.068  18.182  11.982
54642W        W14145  13.334  41.003   0.482
54643W        W14146  39.478   5.792   2.262
54644W        W14147  36.936  20.044  12.562
54645W        W14148   9.754  26.102  10.544
54646W        W14149  29.120   6.765  14.990
54647W        W14150   4.779  21.213  13.011
54648W        W14151  25.576  29.953   0.266
54649W        W14152  22.671   6.761   4.292
54650W        W14153  19.107  16.154  12.362
54651W        W14154  43.406  38.336  11.980
54652W        W14155   9.344  12.655  12.038
54653W        W14156  37.482  44.801   0.752
54654W        W14157  16.780  43.923  11.114
54655W        W14158   4.898  35.365   1.923
54656W        W14159  30.526  28.621  10.609
54657W        W14160  34.989   7.173  10.435
54658W        W14161  17.720  28.985  10.569
54659W        W14162  11.821   2.891   4.720
54660W        W14163  16.590   1.311  13.382
54661W        W14164   1.872  39.482  11.484
54662W        W14165  28.511   8.334   4.319
54663W        W14166  14.322   8.184   0.903
54664W        W14167  23.646  17.777  12.895
54665W        W14168  39.456  41.480   0.831
54666W        W14169  29.989  35.976  12.032
54667W        W14170  39.394  31.623   1.763
54668W        W14171   4.306  42.441  10.442
54669W        W14172  35.925   6.791  10.611
54670W        W14173   7.295  38.493   3.864
54671W        W14174  24.513   9.877  13.467
54672W        W14175  38.448  14.804   4.674
54673W        W14176  38.367  39.980  11.420
54674W        W14177   4.767  25.614  13.992
54675W        W14178  20.099  28.121  14.777
54676W        W14179  16.755  31.006   1.839
54677W        W14180  41.345  35.919   1.927
54678W        W14181  25.154  27.481   2.278
54679W        W14182  42.849  22.511  10.059
54680W        W14183  13.117  20.554  13.795
54681W        W14184  44.971  14.811   2.348
54682W        W14185   9.816  41.894  14.901
54683W        W14186  11.224  30.954   1.388
54684W        W14187  25.585  20.045   3.325
54685W        W14188  18.754   0.853   3.675
54686W        W14189  37.838   1.465   1.301
54687W        W14190  33.036  13.766  14.877
54688W        W14191  36.386  30.621   1.331
54689W        W14192   9.871  21.113  12.405
54690W        W14193  28.034  26.622  11.090
54691W        W14194  26.976   2.441   2.767
54692W        W14195   4.241   3.403   0.271
54693W        W14196  42.474   6.778   2.724
54694W        W14197   0.847  42.022  14.900
54695W        W14198  10.822  44.811  14.796
54696W        W14199  10.355  39.856   1.797
54697W        W14200  12.720  31.145  14.879
54698W        W14201   7.797   4.927  12.914
54699W        W14202  37.026   9.193  13.014
54700W        W14203   0.326  33.056  10.535
54701W        W14204  40.376  26.601   0.934
54702W        W14205   0.420  36.029  12.850
54703W        W14206   0.385  23.140   0.916
54704W        W14207  15.698  29.118  12.910
54705W        W14208  35.003  34.925  12.889
54706W        W14209  37.495  30.154   0.470
54707W        W14210  16.172  20.062  13.545
54708W        W14211  11.145  13.695   2.699
54709W        W14212   6.916  26.672   2.888
54710W        W14213  21.619  42.879   0.324
54711W        W14214  28.479  35.946  11.594
54712W        W14215  30.589   3.358   0.796
54713W        W14216  35.051   7.219  12.486
54714W        W14217  20.064   6.871  14.913
54715W        W14218  26.626  18.569   1.699
54716W        W14219  31.429  22.180  12.539
54717W        W14220  19.053  28.633  14.386
54718W        W14221  13.117  15.086   4.673
54719W        W14222  13.241  31.534   3.301
54720W        W14223  27.129  36.373   3.154
54721W        W14224  30.999   6.769  14.512
54722W        W14225  44.425  29.969   0.842
54723W        W14226  44.865  21.683   5.312
54724W        W14227  12.654   2.376   1.862
54725W        W14228  44.368  32.553   0.314
54726W        W14229  42.784  34.425  14.449
54727W        W14230  13.318  24.682   0.924
54728W        W14231  22.666  18.085  12.896
54729W        W14232  31.457  39.402  14.926
54730W        W14233  35.372   8.238   3.785
54731W        W14234  19.217  26.571  12.533
54732W        W14235   1.946  13.182   1.224
54733W        W14236   7.776  35.400   4.766
54734W        W14237  22.677  23.987  11.412
54735W        W14238  41.362  13.609  12.434
54736W        W14239  11.831  25.003  12.046
54737W        W14240  44.444  30.510  11.520
54738W        W14241  29.597   3.759   1.324
54739W        W14242  13.224   5.758  12.551
54740W        W14243  23.036  43.337  14.782
54741W        W14244  34.911  35.023  12.446
54742W        W14245  41.965  25.599  13.811
54743W        W14246  36.013  19.180   2.751
54744W        W14247   1.265  15.750   3.243
54745W        W14248  43.000  42.903   2.678
54746W        W14249  14.716  22.544  13.865
54747W        W14250  18.748   0.307  11.589
54748W        W14251  16.583  15.244  13.936
54749W        W14252  42.999  42.928  13.013
54750W        W14253  23.506  14.824   1.715
54751W        W14254  16.275  12.268  14.368
54752W        W14255  32.126  41.838  13.467
54753W        W14256  35.073  31.486   1.216
54754W        W14257  29.504  19.594  10.999
54755W        W14258  21.655  21.087   3.240
54756W        W14259  17.697   1.386   2.862
54757W        W14260   7.899   1.739  11.102
54758W        W14261  27.036  37.905   0.411
54759W        W14262  21.636   3.914  10.124
54760W        W14263  34.610  36.422   1.234
54761W        W14264   1.891  15.100  12.038
54762W        W14265   4.943  24.150  13.448
54763W        W14266  42.356  20.736   1.446
54764W        W14267  35.575  42.853   1.917
54765W        W14268  29.073   8.693  13.418
54766W        W14269   3.291  44.836  11.973
54767W        W14270  43.912  13.640  14.759
54768W        W14271  19.158  34.417   1.812
54769W        W14272  24.000   5.272  14.943
54770W        W14273  11.631   0.880  14.477
54771W        W14274  40.962  23.032  14.818
54772W        W14275  38.511  36.899  10.961
54773W        W14276  25.631   2.318   3.360
54774W        W14277  31.122   2.231  11.466
54775W        W14278  33.126  31.958   0.478
54776W        W14279  30.520  19.638  14.919
54777W        W14280   0.475  37.985   3.199
54778W        W14281  33.453  16.289  12.091
54779W        W14282  16.209  43.934   3.274
54780W        W14283   7.202  24.152   3.217
54781W        W14284   1.368  13.786   1.243
54782W        W14285  40.485  15.730   4.642
54783W        W14286  30.919  23.106  13.929
54784W        W14287  42.897  12.196   1.243
54785W        W14288  29.573  28.680   3.766
54786W        W14289  18.590  31.641  11.007
54787W        W14290  22.574  18.548   2.285
54788W        W14291   7.887   5.890   4.245
54789W        W14292  18.243   7.704   1.431
54790W        W14293  22.572  19.539  12.469
54791W        W14294  34.870  16.138   2.898
54792W        W14295  43.515  43.343   1.711
54793W        W14296  11.823  12.286   2.361
54794W        W14297  14.267   4.852  13.464
54795W        W14298  42.867  23.160   1.450
54796W        W14299  41.537  24.084  12.011
54797W        W14300  22.705  11.326  11.868
54798W        W14301  41.797  23.647  11.397
54799W        W14302  10.283   2.888   1.368
54800W        W14303  30.087  40.889  12.482
54801W        W14304  24.156  32.445   1.827
54802W        W14305  13.346  40.423  12.041
54803W        W14306  28.967  20.146  11.036
54804W        W14307  20.629  28.082   1.286
54805W        W14308  19.245  30.077   0.472
54806W        W14309  25.123   1.865   2.837
54807W        W14310  24.651  27.141   1.246
54808W        W14311   5.386   3.795   3.787
54809W        W14312  12.855  22.724  12.843
54810W        W14313  31.938  22.663   4.733
54811W        W14314  17.725  18.219  12.398
54812W        W14315  23.227  17.658  13.999
54813W        W14316  19.234  13.716  12.934
54814W        W14317  36.867   6.255  10.424
54815W        W14318  15.135  27.587   0.882
54816W        W14319  24.481  30.581   1.700
54817W        W14320  26.553  24.501   3.198
54818W        W14321  43.458  25.585   2.349
54819W        W14322  12.147   3.920   2.302
54820W        W14323  10.725  31.513   4.654
54821W        W14324  38.368  19.616   3.153
54822W        W14325  28.619   4.392  12.076
54823W        W14326   6.428  42.329   9.946
54824W        W14327  27.052   1.829  11.444
54825W        W14328   1.278  42.423   0.433
54826W        W14329  37.029   5.390  13.479
54827W        W14330  33.463  32.115  10.585
54828W        W14331  44.336   6.259   1.261
54829W        W14332  44.879  25.021  11.106
54830W        W14333  16.773   7.885   4.228
54831W        W14334  11.366   8.711  12.887
54832W        W14335  36.526   2.728   0.338
54833W        W14336  21.674  11.196   0.846
54834W        W14337   0.950   5.222   0.913
54835W        W14338  24.038   9.890   1.730
54836W        W14339   8.272   8.324   1.791
54837W        W14340   2.444  10.651  13.316
54838W        W14341  10.687  13.336   1.343
54839W        W14342  20.077  14.134  11.939
54840W        W14343  26.095   9.326   1.242
54841W        W14344  25.122  30.538  12.554
54842W        W14345  36.073  37.426  11.037
54843W        W14346  38.987  39.373   2.773
54844W        W14347  19.202  27.964   3.262
54845W        W14348  22.097   0.866  14.823
54846W        W14349  11.287  16.085   5.195
54847W        W14350   6.276   7.818   3.323
54848W        W14351  33.539  32.132   2.350
54849W        W14352   3.279   0.484   1.726
54850W        W14353  22.506  26.639  13.525
54851W        W14354  40.965  17.069   2.324
54852W        W14355  19.207   2.916   2.299
54853W        W14356  42.891  14.631   1.300
54854W        W14357  34.099   8.234   1.700
54855W        W14358  44.280   6.199  10.641
54856W        W14359  25.998  15.582   2.364
54857W        W14360  25.680  40.480  12.899
54858W        W14361  24.010  16.750   4.278
54859W        W14362  24.124  20.754  11.595
54860W        W14363  40.355   7.868   1.398
54861W        W14364  32.499  23.990   3.662
54862W        W14365   1.280  33.039  11.572
54863W        W14366   5.901  30.421   5.279
54864W        W14367  43.509  39.980  13.381
54865W        W14368  36.373  39.377   4.806
54866W        W14369   1.957  15.135   2.768
54867W        W14370  30.427   3.839   3.282
54868W        W14371   4.907  26.014   2.819
54869W        W14372  44.300   3.292  13.962
54870W        W14373  37.072   4.814   3.720
54871W        W14374  10.645  38.559  14.295
54872W        W14375  14.779  42.481  13.877
54873W        W14376   6.774  12.644   3.779
54874W        W14377  23.992  15.174  14.781
54875W        W14378  11.637   3.866   1.831
54876W        W14379  33.087  21.262   3.644
54877W        W14380   2.234  23.037  14.439
54878W        W14381  16.303  40.378   1.877
54879W        W14382  12.346  16.622  12.045
54880W        W14383   6.831  15.119   2.666
54881W        W14384  36.995  31.933  10.983
54882W        W14385   2.404  43.499  11.553
54883W        W14386  32.965  17.276   4.837
54884W        W14387   1.767  40.869  14.873
54885W        W14388  36.378   0.880   3.155
54886W        W14389  12.306  35.071  11.057
54887W        W14390   3.811  21.146   4.313
54888W        W14391  28.593  24.649   1.872
54889W        W14392  21.616  37.394  12.914
54890W        W14393  39.527  38.845  11.861
54891W        W14394  14.685  34.582   3.261
54892W        W14395  39.884  38.492  13.433
54893W        W14396  36.909  40.997   1.751
54894W        W14397  41.042  22.666  10.998
54895W        W14398  24.030   0.484  13.804
54896W        W14399  26.178  20.076  10.954
54897W        W14400  38.027  41.028   0.417
54898W        W14401  14.768  24.203   1.410
54899W        W14402  18.197  42.800  14.299
54900W        W14403   8.196  44.793   0.456
54901W        W14404  25.104  29.633   5.165
54902W        W14405   0.457  22.224   9.637
54903W        W14406  43.011  44.982  10.519
54904W        W14407  37.529   1.481  13.405
54905W        W14408  34.960  44.422   2.188
54906W        W14409  40.819  36.009   1.912
54907W        W14410  20.028  24.021   3.242
54908W        W14411   9.859  40.027   1.234
54909W        W14412  13.240  28.538  10.914
54910W        W14413  12.197  37.559  12.386
54911W        W14414  23.648  24.712  13.893
54912W        W14415  33.981   8.319  10.451
54913W        W14416  43.473  16.227   2.774
54914W        W14417   9.665  30.959  13.472
54915W        W14418   3.313  19.194  13.329
54916W        W14419  16.652   4.890   4.766
54917W        W14420  13.625  23.026   4.818
54918W        W14421  14.756   6.348   0.279
54919W        W14422  33.980  13.251   3.330
54920W        W14423  33.585  25.149  13.884
54921W        W14424  36.462  32.098  10.979
54922W        W14425  27.035  37.986   0.762
54923W        W14426  27.103  35.532   4.667
54924W        W14427  38.356  44.356  13.818
54925W        W14428  38.961  35.912  10.458
54926W        W14429  15.202  28.158  12.076
54927W        W14430  11.788  39.811  14.417
54928W        W14431   1.467  28.571  14.023
54929W        W14432  36.502  17.753  10.618
54930W        W14433  21.149  32.398  10.450
54931W        W14434  41.838  44.784   2.339
54932W        W14435  34.594  14.108   4.672
54933W        W14436  12.809  35.381  14.810
54934W        W14437  26.981  36.979   2.881
54935W        W14438  32.933  37.895  10.642
54936W        W14439  18.759  31.422  11.950
54937W        W14440  42.829   7.877   2.662
54938W        W14441   8.220  23.687  11.398
54939W        W14442  35.599   8.311  10.968
54940W        W14443  17.082   8.342  11.098
54941W        W14444  41.036  39.384   3.180
54942W        W14445  28.083  19.131  11.552
54943W        W14446  42.457  37.904  14.948
54944W        W14447  29.456  40.404  14.295
54945W        W14448  19.670   8.294   0.755
54946W        W14449  31.447  23.490  10.521
54947W        W14450  26.554  33.026  13.369
54948W        W14451  26.691  12.718   2.767
54949W        W14452  13.738  34.557   1.250
54950W        W14453   6.346   8.856   4.827
54951W        W14454   6.760   6.229  13.437
54952W        W14455   3.272  14.649   2.348
54953W        W14456  12.764  11.655   1.872
54954W        W14457  15.776  31.536  13.382
54955W        W14458   5.914  43.399   2.289
54956W        W14459  11.197  38.004  13.063
54957W        W14460  17.679  25.685  13.539
54958W        W14461  34.527  12.665  14.430
54959W        W14462  10.634  33.932  13.832
54960W        W14463  41.923  10.324  14.963
54961W        W14464   4.876  25.977   5.716
54962W        W14465  28.665  21.217  10.437
54963W        W14466  17.134  22.669  11.381
54964W        W14467  14.095  43.360  13.436
54965W        W14468  44.428  27.073   1.787
54966W        W14469  25.079  26.072   3.805
54967W        W14470  23.490   9.783  10.552
54968W        W14471  43.996  35.996  14.879
54969W        W14472  15.628  30.429   3.221
54970W        W14473  17.643   0.951   4.678
54971W        W14474  32.573  16.125  13.483
54972W        W14475  36.975  16.230  13.898
54973W        W14476  20.130  25.139   3.238
54974W        W14477  10.877  37.064   3.372
54975W        W14478   8.373  33.470  11.009
54976W        W14479  41.850  33.043  13.374
54977W        W14480  23.193  31.027  12.345
54978W        W14481  21.064  34.414  12.864
54979W        W14482  39.521  27.988   1.805
54980W        W14483  17.281   0.299   0.452
54981W        W14484   9.378  28.447  10.622
54982W        W14485  24.050  19.039   1.285
54983W        W14486  36.367   1.417  14.835
54984W        W14487  18.236  43.389   2.841
54985W        W14488  24.122  23.501   2.822
54986W        W14489   6.212   0.412  11.375
54987W        W14490  34.430  16.589  12.536
54988W        W14491  40.503   2.416   1.732
54989W        W14492  19.657  22.094  12.974
54990W        W14493  29.635  26.079   1.328
54991W        W14494  22.660   8.866  13.841
54992W        W14495  11.752  15.700   1.367
54993W        W14496  15.804  36.575  10.935
54994W        W14497   1.859  39.931   4.215
54995W        W14498  21.659  28.092  13.830
54996W        W14499   3.261   4.363  10.565
54997W        W14500  10.227  40.858   1.371
54998W        W14501  24.509  36.581  12.472
54999W        W14502  40.387  23.160   1.436
55000W        W14503  36.933   2.316   2.705
55001W        W14504  37.487   9.180   1.761
55002W        W14505  23.561  12.821   4.758
55003W        W14506  39.816  14.247  10.595
55004W        W14507  18.566  25.059   0.963
55005W        W14508  32.592  10.306   3.820
55006W        W14509   0.359  35.928   0.398
55007W        W14510  44.271  40.406   1.696
55008W        W14511  26.544  12.361  14.350
55009W        W14512  33.417  12.757   2.337
55010W        W14513  17.267  11.161  13.475
55011W        W14514  44.927  10.333   4.681
55012W        W14515   5.933  32.433   0.246
55013W        W14516  26.490  44.945   1.915
55014W        W14517  39.045  20.059  12.084
55015W        W14518  15.690  32.501  11.052
55016W        W14519  12.835  20.066   4.719
55017W        W14520  23.075   2.792   1.696
55018W        W14521  43.284  33.594  13.904
55019W        W14522  38.488  34.567   3.252
55020W        W14523   7.279  18.252  11.086
55021W        W14524  40.334   4.842   2.355
55022W        W14525  34.106  36.510   5.301
55023W        W14526  40.371  42.818   3.164
55024W        W14527  23.174  13.638   3.850
55025W        W14528  14.596  12.178   0.277
55026W        W14529  36.062  42.907  14.973
55027W        W14530  13.208  10.749   3.153
55028W        W14531  27.571  34.508   1.775
55029W        W14532  25.181   7.178  10.465
55030W        W14533  33.889  29.164  12.009
55031W        W14534  29.083  20.706  12.944
55032W        W14535   5.689  44.460  11.890
55033W        W14536   9.167   4.733   2.317
55034W        W14537  44.353  18.691  13.419
55035W        W14538   7.794  35.383   1.934
55036W        W14539  21.552   5.903   1.868
55037W        W14540  42.920  37.876   4.613
55038W        W14541  17.162  14.212   1.408
55039W        W14542   4.750   0.820  11.967
55040W        W14543  12.827  31.063  10.076
55041W        W14544  11.227  11.679  14.448
55042W        W14545   3.340  34.584   4.245
55043W        W14546  13.258  40.958  13.339
55044W        W14547  37.439  18.204  13.959
55045W        W14548  14.285   9.203   2.677
55046W        W14549   3.813   5.858  12.954
55047W        W14550  15.690   1.865   3.734
55048W        W14551   9.365   3.838  11.373
55049W        W14552  30.936  21.676   2.858
55050W        W14553  24.187  33.993  12.070
55051W        W14554  10.317  10.778  13.307
55052W        W14555   3.383  35.981  13.352
55053W        W14556  43.983   9.173  12.959
55054W        W14557  40.915   0.794  13.405
55055W        W14558   7.415   4.324  13.374
55056W        W14559  38.503  39.855  14.430
55057W        W14560  20.207  18.716   0.248
55058W        W14561  17.597   1.738   3.693
55059W        W14562  42.930  31.138   3.711
55060W        W14563   0.482  29.943  14.458
55061W        W14564  34.524  31.544  14.014
55062W        W14565  31.105  14.717   4.762
55063W        W14566  41.829  38.953  14.901
55064W        W14567   9.394  15.658   1.266
55065W        W14568   5.900   1.919   0.780
55066W        W14569  31.431  26.516  13.404
55067W        W14570  34.866  44.986   3.340
55068W        W14571  30.088  43.271  13.806
55069W        W14572   9.312   7.193   1.342
55070W        W14573  10.330   4.395  13.810
55071W        W14574  22.186  30.921   0.367
55072W        W14575   6.762  27.006  12.041
55073W        W14576   0.876  30.065   3.688
55074W        W14577  28.678  43.339  11.442
55075W        W14578  10.276  34.910   1.931
55076W        W14579  31.961   3.797  10.912
55077W        W14580  22.220  42.368  10.994
55078W        W14581  17.733  19.154  10.636
55079W        W14582  11.314  37.461  14.423
55080W        W14583  31.595  10.658  14.362
55081W        W14584  18.133  14.213   2.886
55082W        W14585   8.726   4.722  14.020
55083W        W14586  12.325  32.503  12.523
55084W        W14587  30.423  26.992   2.802
55085W        W14588  40.831  37.977  11.857
55086W        W14589  43.865  30.082   3.377
55087W        W14590  26.103  39.388   2.701
55088W        W14591  27.994  24.222   0.344
55089W        W14592  28.002  36.078  12.392
55090W        W14593  39.856  11.655   1.291
55091W        W14594  43.323  10.284   2.209
55092W        W14595   7.884   4.715   1.879
55093W        W14596  44.392  16.258   0.930
55094W        W14597  31.634  14.305  14.888
55095W        W14598  10.721  13.246   1.828
55096W        W14599  38.449  16.655  11.910
55097W        W14600   3.221  23.585  11.544
55098W        W14601  26.106  28.591  11.390
55099W        W14602   9.763  36.389  14.864
55100W        W14603  20.240   5.382   2.857
55101W        W14604  14.211  30.419  14.782
55102W        W14605  31.043  37.055  11.965
55103W        W14606  12.725  21.199   2.346
55104W        W14607  24.511  18.163  14.490
55105W        W14608   5.784  17.607   3.678
55106W        W14609  18.722  43.000   0.926
55107W        W14610   8.178  30.473   2.763
55108W        W14611  15.623   0.972  12.029
55109W        W14612  32.009  38.919   2.669
55110W        W14613  41.336  24.030  13.499
55111W        W14614  13.721   9.193  14.928
55112W        W14615   3.808  34.003   0.871
55113W        W14616  11.867  21.705   4.184
55114W        W14617   3.725  29.593  12.340
55115W        W14618  43.892  24.579   1.222
55116W        W14619  41.524  40.409  14.371
55117W        W14620   7.194  26.200  14.351
55118W        W14621  33.012  21.558   2.318
55119W        W14622  37.901  30.573  10.517
55120W        W14623  28.956   2.935  12.994
55121W        W14624  10.694  12.620   1.906
55122W        W14625  44.405  12.795   1.224
55123W        W14626  27.992   9.696   1.244
55124W        W14627  35.457   7.292  14.962
55125W        W14628  12.752  22.204  11.985
55126W        W14629  30.126   1.975   4.153
55127W        W14630  20.522   1.951  10.550
55128W        W14631  22.611  22.032   2.849
55129W        W14632  17.721  13.678  10.505
55130W        W14633  37.831  13.691   3.769
55131W        W14634  26.079   2.930  10.939
55132W        W14635   6.351  43.952  14.330
55133W        W14636  38.990  14.334   4.707
55134W        W14637  24.994  40.499   3.260
55135W        W14638  37.384  41.973   1.292
55136W        W14639   2.427  13.811  13.441
55137W        W14640   6.417  19.065  12.990
55138W        W14641  37.835  16.188   0.428
55139W        W14642  20.696  13.825  12.364
55140W        W14643  42.523  17.286   1.887
55141W        W14644  29.460   1.483  11.929
55142W        W14645  27.997  26.010  13.528
55143W        W14646  37.487   3.782  11.549
55144W        W14647  35.479  26.199  14.507
55145W        W14648  34.477  43.387   1.419
55146W        W14649  24.988  41.467   9.954
55147W        W14650  35.383  34.459  12.848
55148W        W14651   5.779  42.324   4.721
55149W        W14652  12.632  41.945   4.838
55150W        W14653   1.374  21.187   4.304
55151W        W14654  11.656  13.697   2.839
55152W        W14655  14.717  44.759  14.823
55153W        W14656  34.060   9.827   4.824
55154W        W14657  31.411  19.261   0.744
55155W        W14658  17.572  40.538  10.944
55156W        W14659  15.301  12.623   0.792
55157W        W14660  21.235  11.242   9.975
55158W        W14661   8.721  44.778   2.705
55159W        W14662  44.271  15.676   1.859
55160W        W14663   8.750  27.158   0.399
55161W        W14664  41.917   6.194   0.849
55162W        W14665  33.566  20.144  13.519
55163W        W14666  30.572  18.204   2.270
55164W        W14667  42.375  26.641   5.105
55165W        W14668  44.761  38.475  12.956
55166W        W14669  18.290  26.477  12.453
55167W        W14670  12.645   3.437   3.290
55168W        W14671  34.067  23.611   4.755
55169W        W14672   5.872  18.116   4.212
55170W        W14673   8.385  39.878   2.409
55171W        W14674  22.567  39.331  14.941
55172W        W14675  26.146  31.454  13.530
55173W        W14676  42.307   0.988   3.785
55174W        W14677  17.681  39.008  13.371
55175W        W14678  25.167  16.708   4.205
55176W        W14679  36.872  27.069  12.956
55177W        W14680  12.124   0.346   4.817
55178W        W14681  11.364  26.689  14.993
55179W        W14682  21.682  31.432  11.005
55180W        W14683  42.318  40.987   4.205
55181W        W14684  23.599  13.218  14.972
55182W        W14685  20.750  29.996   2.849
55183W        W14686  36.033  17.802  10.499
55184W        W14687  42.028  13.611  12.443
55185W        W14688  23.989  36.566   1.245
55186W        W14689  10.339  40.472  13.849
55187W        W14690   4.304  27.948  11.859
55188W        W14691  28.990  18.236  10.632
55189W        W14692  32.930  18.144   3.316
55190W        W14693  17.304  26.502  13.891
55191W        W14694  14.733  18.117   3.829
55192W        W14695  32.937   3.824  14.364
55193W        W14696  33.032  26.573  10.943
55194W        W14697  25.535  24.080  14.392
55195W        W14698  11.697   6.267   2.807
55196W        W14699  37.080   0.952   3.229
55197W        W14700  22.251  24.566   1.696
55198W        W14701  17.131  24.044  11.083
55199W        W14702   0.359  16.786   1.883
55200W        W14703   9.166  27.597  10.988
55201W        W14704  33.450  43.282   2.305
55202W        W14705   4.214  18.636   0.798
55203W        W14706  26.568   3.334  12.457
55204W        W14707  43.440   0.475   4.790
55205W        W14708  38.393  18.102   2.381
55206W        W14709   4.376  27.537   5.261
55207W        W14710  39.849  44.990   0.827
55208W        W14711   2.893   8.849   3.147
55209W        W14712  17.239   6.822  11.398
55210W        W14713  19.736  21.111  10.565
55211W        W14714  33.923  41.492  11.968
55212W        W14715  44.761  23.531  13.355
55213W        W14716  37.525  16.156  14.447
55214W        W14717  26.999  42.934   3.348
55215W        W14718   9.354  18.594  13.309
55216W        W14719  37.353  20.255  13.435
55217W        W14720   9.710  40.812  13.959
55218W        W14721  20.033  32.972  11.949
55219W        W14722  27.987  18.737   3.636
55220W        W14723  23.499  13.168  11.094
55221W        W14724   4.287   4.794  12.852
55222W        W14725  43.944  34.004  12.051
55223W        W14726  25.570  31.923   3.650
55224W        W14727  35.891  27.572   4.738
55225W        W14728  25.601   5.839   1.225
55226W        W14729  14.099  44.853  13.993
55227W        W14730  22.653   5.290   3.366
55228W        W14731  10.789  32.973  12.489
55229W        W14732   2.720  35.524   2.665
55230W        W14733  25.995  13.702   4.281
55231W        W14734   1.800  44.909  12.445
55232W        W14735  38.342  17.280  10.601
55233W        W14736  22.641  39.351   3.823
55234W        W14737  11.221  36.454   2.671
55235W        W14738  18.181   9.816   1.229
55236W        W14739   5.901   8.404   4.350
55237W        W14740  20.245   4.775   2.691
55238W        W14741  40.400  20.127  14.889
55239W        W14742  40.814   0.425  10.911
55240W        W14743   3.913   0.351   4.126
55241W        W14744  33.947  38.537  14.401
55242W        W14745   5.361  22.629   2.328
55243W        W14746  29.971   7.189   0.256
55244W        W14747  14.157  41.904  10.894
55245W        W14748  32.895  44.451   3.223
55246W        W14749  21.571   8.246   3.836
55247W        W14750  42.390  13.230  12.548
55248W        W14751   6.303  29.072  10.909
55249W        W14752  25.641   8.779  12.452
55250W        W14753  15.760  33.560   5.278
55251W        W14754  38.951  42.353  11.004
55252W        W14755  24.724   6.257   2.802
55253W        W14756  25.667  38.477  13.409
55254W        W14757  37.923  13.169   4.769
55255W        W14758  38.831  12.746   5.211
55256W        W14759  44.797  15.822   5.216
55257W        W14760  20.088  28.969   0.373
55258W        W14761  12.209   7.686   4.239
55259W        W14762   6.268  14.276   4.693
55260W        W14763  14.790   4.257  11.003
55261W        W14764  30.063  12.215   3.335
55262W        W14765  13.821  10.179   2.279
55263W        W14766  36.366   9.777   3.814
55264W        W14767   3.330  20.684  13.997
55265W        W14768  34.582  14.721  10.511
55266W        W14769  26.148  44.808  11.964
55267W        W14770   0.257  23.728   1.329
55268W        W14771  38.002   0.452  13.865
55269W        W14772   8.244  37.934  14.360
55270W        W14773  35.371  11.746  11.111
55271W        W14774  39.504  16.211   3.728
55272W        W14775   0.275  32.089   2.794
55273W        W14776  29.154  36.463   4.791
55274W        W14777  17.801  36.931   2.834
55275W        W14778  25.598   1.963  11.488
55276W        W14779  39.430  30.121  13.484
55277W        W14780  35.403  28.554  11.402
55278W        W14781  13.621  18.134   3.865
55279W        W14782  19.058  38.372   2.695
55280W        W14783  35.923  41.980   1.838
55281W        W14784  36.585  30.575  10.971
55282W        W14785  42.029  32.554  12.052
55283W        W14786  38.052  42.441   1.410
55284W        W14787  39.317   5.912   1.704
55285W        W14788   6.222  43.319   3.673
55286W        W14789  42.504  37.410  13.993
55287W        W14790  43.833   0.345  14.985
55288W        W14791   4.859  10.754  12.847
55289W        W14792  18.734  16.779   0.465
55290W        W14793  44.481   1.328  13.038
55291W        W14794  22.149  41.034   2.845
55292W        W14795   3.439  29.157  11.111
55293W        W14796  36.515   0.284  11.060
55294W        W14797  10.141  33.089  14.026
55295W        W14798  39.853  21.680  10.908
55296W        W14799   9.657   0.944  10.447
55297W        W14800  43.374  20.253  14.980
55298W        W14801  39.524  42.318   1.771
55299W        W14802  16.204  24.157   2.290
55300W        W14803  17.669  15.267   3.815
55301W        W14804  14.806  22.677  10.541
55302W        W14805  43.467   1.935  11.424
55303W        W14806   9.163  23.732  13.514
55304W        W14807  31.074   0.458  13.799
55305W        W14808   0.951  29.532  12.567
55306W        W14809  42.821  29.547   2.839
55307W        W14810  44.893   8.197  14.497
55308W        W14811  20.619  27.151   2.394
55309W        W14812  31.542  40.423  11.110
55310W        W14813  43.365  14.833   3.700
55311W        W14814  13.228   2.953  11.929
55312W        W14815  25.688  34.110  14.344
55313W        W14816  35.079   0.463  13.366
55314W        W14817  41.432  27.577   3.676
55315W        W14818  26.031  12.773   3.228
55316W        W14819  19.072  33.928  10.973
55317W        W14820  19.124  39.904  14.771
55318W        W14821  12.234  29.967  12.974
55319W        W14822   7.344  38.953   4.201
55320W        W14823  25.996  14.591   2.672
55321W        W14824  43.804  42.976  12.869
55322W        W14825  43.960  27.014   4.174
55323W        W14826   2.863  10.204   1.252
55324W        W14827  18.651  28.048  13.373
55325W        W14828  29.167  22.229  11.950
55326W        W14829  42.412  21.656   2.833
55327W        W14830  18.711  14.663   0.897
55328W        W14831   3.303  30.529  14.029
55329W        W14832  13.807  41.466  12.341
55330W        W14833  42.881   0.250   2.380
55331W        W14834  25.962  33.596  11.023
55332W        W14835  28.997   4.751  11.934
55333W        W14836  19.738  29.157  11.097
55334W        W14837  40.388  11.237   4.181
55335W        W14838  12.254  36.892  13.345
55336W        W14839   1.264  35.363  12.009
55337W        W14840   8.780  38.453  13.023
55338W        W14841  22.596   3.838  13.999
55339W        W14842   8.715  23.085   3.236
55340W        W14843  27.986  14.589   4.752
55341W        W14844   2.255  43.403   3.366
55342W        W14845  42.882  27.090  14.971
55343W        W14846  18.222  11.645  14.797
55344W        W14847  36.556  32.422  11.473
55345W        W14848  34.454   1.916  12.862
55346W        W14849   8.258  15.748   4.758
55347W        W14850  26.963   8.751   0.394
55348W        W14851  40.939   9.876  10.484
55349W        W14852  39.372  13.689  13.540
55350W        W14853  40.924  19.235  14.774
55351W        W14854  29.119  26.593  12.051
55352W        W14855  10.793   1.256  14.449
55353W        W14856   0.485  41.906   2.868
55354W        W14857  31.506  38.995   4.825
55355W        W14858  24.083  42.510   4.706
55356W        W14859  27.669  41.874  11.961
55357W        W14860  11.737   5.228   4.832
55358W        W14861  39.372  19.283   0.313
55359W        W14862  14.602  35.534  10.512
55360W        W14863  12.652  27.481  14.810
55361W        W14864  25.217  36.574   3.838
55362W        W14865  36.537  22.056   3.791
55363W        W14866  31.065  24.166   3.712
55364W        W14867   3.436  41.384   2.877
55365W        W14868  29.993  17.190   4.743
55366W        W14869  29.037  41.030  13.885
55367W        W14870  42.855  18.200  13.887
55368W        W14871  24.720  44.793  12.515
55369W        W14872  35.923   0.967  14.998
55370W        W14873  27.603   4.819  12.059
55371W        W14874  35.496  35.545  10.952
55372W        W14875  18.239  41.510  13.442
55373W        W14876   7.891  24.139   5.191
55374W        W14877  29.450  14.761  14.945
55375W        W14878  31.438  44.996  10.913
55376W        W14879  15.164  37.901  12.011
55377W        W14880   9.377  31.910   4.132
55378W        W14881  27.108  44.334   3.385
55379W        W14882   5.310  10.666  12.989
55380W        W14883   4.789  37.885   2.326
55381W        W14884  23.537  24.019  11.059
55382W        W14885  10.684  16.105   4.656
55383W        W14886  20.040  13.674   0.371
55384W        W14887  25.202  32.423   3.375
55385W        W14888  17.623   1.476  11.562
55386W        W14889  14.722  14.684  11.965
55387W        W14890  12.799  41.328   4.306
55388W        W14891  38.884  25.651  14.908
55389W        W14892  40.854  12.690  10.609
55390W        W14893  17.627  24.010   0.406
55391W        W14894  17.695  30.640   1.778
55392W        W14895   3.852  23.107   3.788
55393W        W14896  24.630   2.752  12.553
55394W        W14897  44.315  43.341  13.940
55395W        W14898  15.624   2.460  10.906
55396W        W14899   5.790  20.759   1.878
55397W        W14900  34.495  38.867   0.939
55398W        W14901   6.701   2.309   0.921
55399W        W14902   6.341  23.068   4.831
55400W        W14903  13.121   0.283  14.932
55401W        W14904   9.809  34.875   3.805
55402W        W14905  16.247  30.914  11.587
55403W        W14906   4.759  30.501   3.172
55404W        W14907  34.013  21.081   2.231
55405W        W14908  10.747  29.533  13.403
55406W        W14909  24.549  40.410  10.565
55407W        W14910  44.470  17.307  11.537
55408W        W14911   7.391  10.875  13.521
55409W        W14912   3.885  14.224  14.963
55410W        W14913  10.637  36.490  14.299
55411W        W14914  26.563  36.959  13.952
55412W        W14915  18.107  20.728   4.761
55413W        W14916  34.567  12.780  13.494
55414W        W14917  12.707   0.979  10.543
55415W        W14918   5.827   9.812   1.379
55416W        W14919  44.304  32.001   4.700
55417W        W14920   1.414  28.051  14.458
55418W        W14921  21.075  24.093  12.853
55419W        W14922  31.599  40.446  10.467
55420W        W14923  40.462  36.022  12.881
55421W        W14924  40.416  12.793  14.409
55422W        W14925   4.298  24.044  12.915
55423W        W14926  28.464  16.621  14.368
55424W        W14927  20.757   8.162   2.205
55425W        W14928   4.346   6.719  12.522
55426W        W14929   5.355  16.589  14.405
55427W        W14930  25.970  26.155  14.346
55428W        W14931   4.353   7.857  13.475
55429W        W14932  11.215  20.039  10.598
55430W        W14933  32.607  12.658  12.909
55431W        W14934  33.085  17.135  14.439
55432W        W14935   7.761  26.642   4.684
55433W        W14936  25.168  31.621   4.785
55434W        W14937  39.958  43.447   0.831
55435W        W14938   7.235  26.029   0.738
55436W        W14939  23.666  38.565   4.347
55437W        W14940  31.030   7.203  11.004
55438W        W14941  20.270  35.021   4.263
55439W        W14942   2.820   3.265   9.926
55440W        W14943  17.109  11.700  14.412
55441W        W14944  33.088  38.830   0.308
55442W        W14945  29.966  41.523  14.807
55443W        W14946  30.923  22.691   3.636
55444W        W14947  28.049  33.614   2.845
55445W        W14948  38.438  10.309  13.420
55446W        W14949  11.259   3.920   2.851
55447W        W14950  28.437  38.935   4.830
55448W        W14951  11.190   9.655  11.575
55449W        W14952  11.661   9.327   4.761
55450W        W14953  10.349  25.089   1.294
55451W        W14954  41.005  21.236   4.339
55452W        W14955  43.444  30.528   2.338
55453W        W14956  11.245   9.647  14.371
55454W        W14957  24.003  37.943   4.282
55455W        W14958  16.790  10.256   3.158
55456W        W14959  15.731  25.163  14.294
55457W        W14960  21.722   3.243  11.559
55458W        W14961  28.646  21.229  13.828
55459W        W14962  19.059  32.886  14.361
55460W        W14963  21.249   8.892   0.439
55461W        W14964  38.907  13.177  14.339
55462W        W14965  23.538   1.754   1.210
55463W        W14966  13.160   5.262   4.160
55464W        W14967  44.376  29.436  11.103
55465W        W14968   7.338  23.520  14.388
55466W        W14969  39.368  18.651   3.751
55467W        W14970  11.797  43.852  12.418
55468W        W14971  44.806  35.992   1.346
55469W        W14972  17.795  44.764  14.489
55470W        W14973  28.563  34.898   0.431
55471W        W14974   1.371  11.671   4.601
55472W        W14975  36.540   7.677  13.820
55473W        W14976  31.979  43.402   2.375
55474W        W14977   9.393  37.004   1.729
55475W        W14978  41.801   9.803  13.028
55476W        W14979  24.687   8.244  13.462
55477W        W14980  15.585  19.717  14.368
55478W        W14981  41.477   9.649  13.325
55479W        W14982   7.734  14.125   1.852
55480W        W14983  21.685  39.960   3.803
55481W        W14984  38.050  33.390  13.934
55482W        W14985  20.268  13.147   1.785
55483W        W14986  31.510  23.496  11.471
55484W        W14987   6.342  39.465   4.820
55485W        W14988  17.067  37.086   1.860
55486W        W14989  16.203  22.169  11.386
55487W        W14990  13.826  10.342   0.899
55488W        W14991  33.041   7.710  11.469
55489W        W14992   5.268  26.140   2.388
55490W        W14993  25.631  21.190  11.986
55491W        W14994  24.519  14.821  13.537
55492W        W14995  24.073  10.174  11.937
55493W        W14996  27.982  30.534   4.122
55494W        W14997  19.772  41.454   2.733
55495W        W14998  25.663   2.341   4.163
55496W        W14999  31.453  43.406  14.300
55497W        W15000   1.805  30.475  13.472
55498W        W15001  35.398  39.491   3.768
55499W        W15002   2.465  42.821   0.796
55500W        W15003  40.355  27.675  10.608
55501W        W15004   6.319  21.231   9.991
55502W        W15005  27.647  19.737  13.004
55503W        W15006  24.668  21.133  14.857
55504W        W15007  44.768  14.698   1.864
55505W        W15008  21.513  26.085   4.291
55506W        W15009  10.207   7.823  10.430
55507W        W15010  20.736  20.192  14.815
55508W        W15011   7.296  14.128   4.260
55509W        W15012  44.882  43.476   2.796
55510W        W15013  12.120  17.776  14.319
55511W        W15014   8.201  18.578  14.429
55512W        W15015   7.733  24.116   4.772
55513W        W15016  33.460  36.898   0.898
55514W        W15017  24.621  39.045   0.470
55515W        W15018   6.837  34.388   3.247
55516W        W15019  41.454  42.910  10.618
55517W        W15020  21.725  39.901  12.002
55518W        W15021  13.722  41.831  14.968
55519W        W15022  44.848  33.970  12.872
55520W        W15023  21.691  44.421  14.440
55521W        W15024  20.206  40.473  14.779
55522W        W15025  44.464  35.929   1.728
55523W        W15026  12.703  41.319   1.413
55524W        W15027   0.390  10.830   0.813
55525W        W15028  34.397  13.636   4.661
55526W        W15029  33.572  20.617   4.663
55527W        W15030  26.680  19.104   1.327
55528W        W15031  39.424  13.677   0.482
55529W        W15032  38.495  26.525   1.214
55530W        W15033  35.092  25.989   2.741
55531W        W15034  19.165  43.277   2.858
55532W        W15035  29.920  36.059   4.705
55533W        W15036  15.278  11.323   1.417
55534W        W15037  28.169  27.106   0.459
55535W        W15038   5.781  37.834   2.242
55536W        W15039  20.139  30.105   4.238
55537W        W15040  30.036   7.272  11.466
55538W        W15041  36.363   1.815  14.832
55539W        W15042  13.652  10.769   0.818
55540W        W15043  37.999  36.842  12.350
55541W        W15044   9.707  39.854   0.941
55542W        W15045  35.858  40.816   1.729
55543W        W15046  21.150  12.201   0.853
55544W        W15047  41.425  14.591  13.953
55545W        W15048  38.513  42.917   2.711
55546W        W15049  30.950  22.134   2.379
55547W        W15050  19.711  41.023   0.329
55548W        W15051  28.128  41.468   2.296
55549W        W15052  16.146  36.080   2.720
55550W        W15053  24.629  15.221  12.040
55551W        W15054   6.785   5.923  12.849
55552W        W15055  25.530   7.724  12.069
55553W        W15056  13.184  28.438  12.397
55554W        W15057  35.064  41.909   4.206
55555W        W15058  42.497  14.793  13.455
55556W        W15059  16.316  28.631  11.574
55557W        W15060  35.515   2.472   1.213
55558W        W15061  34.597  41.527  13.995
55559W        W15062  11.237  13.140  12.935
55560W        W15063  35.004  18.243   1.917
55561W        W15064   7.211   5.302   0.392
55562W        W15065  42.293  26.501  10.641
55563W        W15066  16.128  17.087   1.774
55564W        W15067  26.163  43.350   3.799
55565W        W15068  34.001  17.719   3.795
55566W        W15069  35.948  37.023   1.718
55567W        W15070  32.496   7.761  11.574
55568W        W15071  33.517  39.453  12.474
55569W        W15072  40.333   6.897   5.705
55570W        W15073  35.985  30.032  12.514
55571W        W15074  22.075  27.076  11.992
55572W        W15075  10.311   1.909   0.461
55573W        W15076  37.433  44.911   3.735
55574W        W15077  10.831  36.548  13.527
55575W        W15078  12.742  39.440   0.911
55576W        W15079  22.575  42.334  10.557
55577W        W15080  19.251  12.778  10.642
55578W        W15081  31.051  19.689   3.636
55579W        W15082  28.170   9.722  10.137
55580W        W15083   5.429  12.151   0.271
55581W        W15084  20.524   3.344   2.282
55582W        W15085  41.353  21.104  14.314
55583W        W15086  36.974  12.650  11.001
55584W        W15087  12.843  12.294   1.762
55585W        W15088  10.699  16.148  11.917
55586W        W15089  25.656  28.145  13.950
55587W        W15090  12.258  33.014   4.167
55588W        W15091  19.134  43.466  12.921
55589W        W15092  10.695   0.859   2.785
55590W        W15093   7.773  16.243  11.942
55591W        W15094   1.387   7.877   3.304
55592W        W15095  15.698  30.069   0.800
55593W        W15096   8.247   6.342   0.761
55594W        W15097  37.440  36.408  13.433
55595W        W15098   4.847  32.109   1.399
55596W        W15099   5.407   5.791   2.337
55597W        W15100  34.112  22.665   0.249
55598W        W15101  17.715   1.830  11.009
55599W        W15102  14.296   2.752   1.825
55600W        W15103  15.182  13.820  14.328
55601W        W15104   6.398   3.884  11.516
55602W        W15105  25.214  34.457  12.833
55603W        W15106  32.089  19.663   2.221
55604W        W15107   3.849  19.643   3.286
55605W        W15108  10.331  11.358   1.273
55606W        W15109  17.163  32.002   1.761
55607W        W15110  36.454  11.258  13.986
55608W        W15111  35.856  38.523   4.692
55609W        W15112  39.950  35.910  14.951
55610W        W15113  41.980  19.576   0.952
55611W        W15114   4.805  41.911  14.331
55612W        W15115  30.598  30.099  10.632
55613W        W15116  24.114  39.427   3.237
55614W        W15117  42.998  32.903  12.971
55615W        W15118  35.495  43.967   2.375
55616W        W15119  29.957  44.323   2.413
55617W        W15120  37.972  25.568  13.915
55618W        W15121  11.228  40.543   1.712
55619W        W15122  10.760   8.335  13.806
55620W        W15123  25.035  30.503  13.917
55621W        W15124   4.838  11.850  13.031
55622W        W15125  41.467  16.787   1.345
55623W        W15126  18.571  14.829  11.048
55624W        W15127  32.483  31.132   4.770
55625W        W15128   5.255  27.195   2.326
55626W        W15129   1.292   5.722  14.336
55627W        W15130  13.795  13.785  13.498
55628W        W15131   1.936  41.956  14.864
55629W        W15132  27.098  43.271  10.526
55630W        W15133  22.733   4.290   4.684
55631W        W15134  36.915  40.009   0.967
55632W        W15135  40.478   9.205   0.921
55633W        W15136  16.703  13.337  11.472
55634W        W15137  11.367   4.387   2.776
55635W        W15138  30.575  19.598  12.086
55636W        W15139  37.354  15.631  11.866
55637W        W15140  37.862  13.204   4.272
55638W        W15141   3.432   8.783   4.784
55639W        W15142  19.562  14.834  10.455
55640W        W15143  30.913  43.781  13.492
55641W        W15144   8.223  25.569  12.023
55642W        W15145  22.740  26.104  10.604
55643W        W15146  30.993  30.136  12.577
55644W        W15147  24.040  16.710   2.336
55645W        W15148  34.497  35.422   1.830
55646W        W15149  14.312  23.659   1.450
55647W        W15150   5.881  37.420  12.055
55648W        W15151  38.485  39.369   3.245
55649W        W15152  36.355   5.785   3.258
55650W        W15153  16.752  41.888  14.285
55651W        W15154  37.062  35.876   3.374
55652W        W15155  27.073   2.459   0.290
55653W        W15156   5.240  43.294  10.496
55654W        W15157  39.860   4.354   9.958
55655W        W15158   5.325   9.879   0.334
55656W        W15159   7.859  22.680   0.424
55657W        W15160  42.874  35.456   2.408
55658W        W15161  33.394  40.387   0.380
55659W        W15162  17.565  18.568   3.273
55660W        W15163   4.811   7.678   2.354
55661W        W15164   3.830  42.437   3.736
55662W        W15165  17.572  40.870   3.190
55663W        W15166  34.470  39.329  11.576
55664W        W15167  17.246  27.501  11.538
55665W        W15168  24.157   5.840  14.912
55666W        W15169  14.154  43.354   2.196
55667W        W15170  11.761  40.455   0.251
55668W        W15171  25.710  31.414   3.195
55669W        W15172  10.829  35.546   2.253
55670W        W15173  35.984  31.469   4.312
55671W        W15174   3.368  21.168   0.730
55672W        W15175  24.227   0.759   2.244
55673W        W15176  21.738   6.742  11.873
55674W        W15177  27.016  42.792   2.210
55675W        W15178  31.029  27.138   2.417
55676W        W15179  21.082   0.279   0.819
55677W        W15180  39.901  37.042  14.852
55678W        W15181  16.699  27.614   0.282
55679W        W15182   4.311  36.968  10.562
55680W        W15183  21.144  39.972   3.832
55681W        W15184   4.270  36.984   0.931
55682W        W15185  13.607  28.964   2.776
55683W        W15186   3.311  35.526   1.245
55684W        W15187  36.063  19.081  14.477
55685W        W15188   6.293   6.866   1.846
55686W        W15189  17.072  14.589  13.035
55687W        W15190  43.467   0.390  14.507
55688W        W15191   1.268  19.243   3.286
55689W        W15192  15.815   5.397  10.644
55690W        W15193  28.070  43.479  14.978
55691W        W15194  38.536  29.533  13.321
55692W        W15195  12.715  29.612   4.268
55693W        W15196  22.535  33.570  14.346
55694W        W15197  14.177  12.351  12.885
55695W        W15198  23.139  25.490   3.686
55696W        W15199  23.047  18.547   1.414
55697W        W15200  44.372  21.700   5.782
55698W        W15201  12.722  26.070  12.552
55699W        W15202  33.401  24.078  14.949
55700W        W15203  37.372  14.657  12.883
55701W        W15204  24.671   2.940  11.430
55702W        W15205  31.406  44.495  10.952
55703W        W15206  20.526  11.743   1.913
55704W        W15207  22.083  39.968  12.039
55705W        W15208  38.034  39.019   0.829
55706W        W15209  10.155  23.048   1.903
55707W        W15210  15.088  44.405   0.440
55708W        W15211  26.501  27.594  10.535
55709W        W15212  39.986  18.551  14.322
55710W        W15213  23.579  15.190  12.903
55711W        W15214  27.179  38.973   1.744
55712W        W15215   8.273  17.655   3.748
55713W        W15216  37.396  29.929   1.313
55714W        W15217   0.415  35.590   1.274
55715W        W15218  24.989  24.069  14.899
55716W        W15219  36.895  35.557   4.625
55717W        W15220  31.041  35.079   3.630
55718W        W15221  31.046   8.867   2.252
55719W        W15222   2.835  30.005  10.903
55720W        W15223  38.826  40.881  12.536
55721W        W15224  12.760  25.969  11.927
55722W        W15225  20.038  43.359   3.348
55723W        W15226  39.039   8.735   2.806
55724W        W15227  12.626  17.644   4.666
55725W        W15228  40.990  17.262   1.345
55726W        W15229  39.519   3.220  10.520
55727W        W15230  30.125  16.733   3.854
55728W        W15231   9.816  38.556   0.435
55729W        W15232  29.606  32.137  12.447
55730W        W15233   1.243   0.783  11.567
55731W        W15234  33.458  37.423  12.459
55732W        W15235  28.947  16.223   1.697
55733W        W15236   1.917  36.541   3.216
55734W        W15237   0.754  42.800   1.755
55735W        W15238   9.263  43.766  14.003
55736W        W15239  41.862  42.831   3.325
55737W        W15240  15.128  31.423   1.771
55738W        W15241  41.988  24.056   4.229
55739W        W15242  17.183  44.466  11.058
55740W        W15243  29.093   1.908   4.342
55741W        W15244  35.375  10.788  12.447
55742W        W15245  16.800   8.751   4.759
55743W        W15246  13.648  43.496   4.653
55744W        W15247  31.054   5.376  14.019
55745W        W15248  35.400   5.790  13.941
55746W        W15249   8.236  18.781   3.826
55747W        W15250   1.326  38.027  11.556
55748W        W15251  28.041  17.764   0.246
55749W        W15252  32.411  30.551  14.401
55750W        W15253  17.642  26.484  11.105
55751W        W15254  20.079  10.331   0.791
55752W        W15255  10.777   8.770   2.408
55753W        W15256   9.227  11.848   0.339
55754W        W15257  42.865  38.872  13.908
55755W        W15258   7.174  30.503   4.191
55756W        W15259  19.100  36.355   3.818
55757W        W15260   9.199  23.562   1.930
55758W        W15261  22.539  39.986  14.492
55759W        W15262  15.638  38.849   5.148
55760W        W15263   1.881  42.783  14.368
55761W        W15264  27.669  19.538   0.874
55762W        W15265   1.468  40.489   2.280
55763W        W15266  16.273  33.401  12.419
55764W        W15267  30.969  22.528  13.329
55765W        W15268  18.602  41.857   1.309
55766W        W15269   0.348  30.655   4.231
55767W        W15270   1.781   9.211   3.339
55768W        W15271  42.870  14.667   4.746
55769W        W15272  33.110  27.487   3.807
55770W        W15273  12.227   4.710  10.413
55771W        W15274  19.110   4.237   2.663
55772W        W15275  28.146  14.271   4.212
55773W        W15276  41.375  36.509  13.876
55774W        W15277  32.499   8.731   2.386
55775W        W15278  38.888  24.625   4.629
55776W        W15279  16.607  24.087  11.948
55777W        W15280  13.702  36.550   1.916
55778W        W15281  10.175  21.756   0.314
55779W        W15282  10.274  17.274   2.227
55780W        W15283  25.075  11.857   2.214
55781W        W15284  35.549  35.093  10.586
55782W        W15285  43.421   7.751  10.503
55783W        W15286  22.085  40.379  14.285
55784W        W15287  39.821   1.460  10.981
55785W        W15288  44.312  30.911   3.220
55786W        W15289  17.660  32.455  10.890
55787W        W15290  36.850  27.526   0.478
55788W        W15291  15.771  14.301   4.149
55789W        W15292  40.011   8.748   3.277
55790W        W15293  30.908   2.424   0.951
55791W        W15294  36.371  36.537  11.506
55792W        W15295  28.022  20.077  11.397
55793W        W15296   4.847  13.314   1.731
55794W        W15297  39.492   3.869   5.108
55795W        W15298  25.985  44.478   0.319
55796W        W15299   0.806  16.223  14.783
55797W        W15300  40.954  44.754   0.260
55798W        W15301  12.150  35.929   3.846
55799W        W15302  18.113   4.932   2.747
55800W        W15303   6.814  20.099   1.894
55801W        W15304   9.283   1.933  12.377
55802W        W15305   6.282  16.605   3.866
55803W        W15306  24.555  25.563  11.396
55804W        W15307  35.565   2.792  13.889
55805W        W15308  13.260  26.535  11.922
55806W        W15309  37.984   8.355   0.870
55807W        W15310  31.974   7.810   3.155
55808W        W15311  12.361  13.242   3.235
55809W        W15312  41.411  35.871   4.265
55810W        W15313  32.935  17.685  11.522
55811W        W15314   9.819  15.117  14.274
55812W        W15315  10.676  36.435   0.341
55813W        W15316  22.613   4.926   2.763
55814W        W15317  33.011  33.038   2.181
55815W        W15318  16.767  16.784   0.337
55816W        W15319   6.390  34.595   1.349
55817W        W15320  23.646  26.189   3.345
55818W        W15321  40.927  31.934   3.677
55819W        W15322  20.128  35.006   0.961
55820W        W15323  36.490  10.847  13.996
55821W        W15324  41.801  35.074   1.733
55822W        W15325   0.936  36.080   4.265
55823W        W15326  27.195  38.965   9.991
55824W        W15327  37.998  42.782  13.816
55825W        W15328  40.538  14.330   9.954
55826W        W15329  28.099  13.668  14.867
55827W        W15330  31.935  42.524   3.820
55828W        W15331   9.770  24.595  10.900
55829W        W15332  28.572  11.659  10.422
55830W        W15333  44.858  32.458  11.986
55831W        W15334  27.114  36.347   4.133
55832W        W15335  18.066   9.670  12.944
55833W        W15336  13.618   3.347   1.228
55834W        W15337  35.891  33.031  12.415
55835W        W15338  12.240  43.899  13.056
55836W        W15339   8.670  21.181   4.804
55837W        W15340  40.947  20.227   1.229
55838W        W15341   1.404  12.161  11.857
55839W        W15342  36.058   4.405  13.917
55840W        W15343  11.677  26.085  14.497
55841W        W15344  24.702  41.295  11.428
55842W        W15345   5.431  22.999   4.678
55843W        W15346  37.876   3.388  11.011
55844W        W15347  38.849  31.428  12.054
55845W        W15348   2.835  39.386   0.732
55846W        W15349   3.346  34.876   3.708
55847W        W15350  15.153   0.848  14.404
55848W        W15351  18.080  25.002  14.967
55849W        W15352  19.160  44.287   2.740
55850W        W15353  28.117  22.151  13.864
55851W        W15354  11.337  14.806   1.328
55852W        W15355  14.253  12.133  11.410
55853W        W15356   7.873  30.948   4.332
55854W        W15357  12.148  31.611   1.253
55855W        W15358  28.455  41.931  13.879
55856W        W15359  44.875  43.786   2.877
55857W        W15360  32.589   7.841  12.574
55858W        W15361   5.861  36.471   4.650
55859W        W15362  16.166  18.254   4.635
55860W        W15363   6.799  30.015  13.381
55861W        W15364  20.535  33.127   3.348
55862W        W15365   8.261  32.111   2.690
55863W        W15366  33.118  14.280  11.606
55864W        W15367  16.199  30.537   0.756
55865W        W15368  20.239   4.221   2.665
55866W        W15369  18.055  29.961   1.449
55867W        W15370  30.011  37.529   0.963
55868W        W15371   0.914  35.422  11.129
55869W        W15372   2.869  31.436  10.528
55870W        W15373  12.847  31.966   3.287
55871W        W15374   0.756   1.916  12.444
55872W        W15375   8.830  24.530  11.521
55873W        W15376  15.774  27.116   1.211
55874W        W15377  11.692   9.714   4.636
55875W        W15378   7.767  17.103   3.326
55876W        W15379  32.586   9.875  13.024
55877W        W15380  33.609  43.433  12.892
55878W        W15381  37.960  19.258  13.335
55879W        W15382   8.770  29.495  13.495
55880W        W15383  22.995   7.785  11.392
55881W        W15384  23.193  33.447  13.816
55882W        W15385  21.166  40.853  12.347
55883W        W15386   4.265  19.139  13.929
55884W        W15387  35.549  18.147  14.972
55885W        W15388   6.204   2.748  13.962
55886W        W15389   0.987  17.270  13.497
55887W        W15390  11.227  29.160   1.926
55888W        W15391  25.117   6.332   0.374
55889W        W15392  29.457  29.017  11.113
55890W        W15393  40.807  14.824   0.927
55891W        W15394  15.132  24.637  10.493
55892W        W15395  14.812  22.244  14.514
55893W        W15396  25.105  15.810  12.476
55894W        W15397  15.790  41.013  11.497
55895W        W15398  22.528  20.717  11.088
55896W        W15399  17.208  27.042  13.402
55897W        W15400  16.164   6.853  14.362
55898W        W15401   7.777  34.571  12.063
55899W        W15402  19.172   5.696   2.380
55900W        W15403   3.772   4.298  12.534
55901W        W15404   7.745  11.369  11.029
55902W        W15405  22.194  14.221  12.407
55903W        W15406  24.563   7.864   2.366
55904W        W15407  42.515  15.330   4.798
55905W        W15408  33.921  42.022   3.859
55906W        W15409  38.863  30.080   4.163
55907W        W15410   2.400  35.854   5.312
55908W        W15411   0.394  10.849   2.823
55909W        W15412  19.101  36.419  13.030
55910W        W15413   5.753   7.175  14.008
55911W        W15414  10.260  33.031  11.870
55912W        W15415   4.768  10.211   5.204
55913W        W15416   9.303  37.032  14.351
55914W        W15417  33.880  42.911  13.445
55915W        W15418   0.877  23.995  14.387
55916W        W15419  40.308  25.712   4.674
55917W        W15420   7.781   8.188  14.918
55918W        W15421   8.278   9.880   2.280
55919W        W15422  31.631  22.595  13.335
55920W        W15423  18.772  38.038   2.212
55921W        W15424   8.671  36.985   4.324
55922W        W15425   9.153  22.616  14.472
55923W        W15426  43.477  41.818  12.009
55924W        W15427   8.677  27.605   3.726
55925W        W15428  43.827   2.427   3.765
55926W        W15429   4.790   0.400  12.966
55927W        W15430  15.824   7.318  13.013
55928W        W15431  28.164  37.443   5.140
55929W        W15432  35.432  30.999  10.497
55930W        W15433  12.764  33.947   4.143
55931W        W15434  17.731  11.290  13.443
55932W        W15435  42.906   3.803   2.849
55933W        W15436  29.504  44.411  14.434
55934W        W15437  16.122   5.300   0.766
55935W        W15438  41.304  23.221  12.028
55936W        W15439   8.666  33.074   2.710
55937W        W15440   3.307  20.133  14.866
55938W        W15441  17.232  21.554   1.715
55939W        W15442   5.431  18.707  10.995
55940W        W15443  10.341   8.390  11.127
55941W        W15444   4.330  42.422   9.985
55942W        W15445  21.621   9.382   3.330
55943W        W15446   8.239  36.932  10.580
55944W        W15447  37.886  42.449  12.978
55945W        W15448  13.292  18.546  10.479
55946W        W15449  10.814   7.718  11.377
55947W        W15450   0.280  29.507   2.824
55948W        W15451  27.586  10.777   3.740
55949W        W15452   3.863   9.832  11.596
55950W        W15453  11.267  27.525  14.904
55951W        W15454  17.762   4.341  10.429
55952W        W15455  18.148   0.926   4.789
55953W        W15456  33.997  11.862   2.333
55954W        W15457   2.769  28.603   5.142
55955W        W15458  18.776  27.187   4.688
55956W        W15459  27.635  16.293   1.908
55957W        W15460  27.982  38.516   4.630
55958W        W15461  32.084  44.406   0.303
55959W        W15462   8.853  11.775  10.595
55960W        W15463  11.185  11.786   3.645
55961W        W15464   4.830  28.440  10.576
55962W        W15465  31.076  30.487   1.722
55963W        W15466   9.832  33.042  13.399
55964W        W15467  26.093  23.609  14.428
55965W        W15468   5.258  19.723   2.670
55966W        W15469   0.944  39.993   0.787
55967W        W15470  28.592  11.307   3.797
55968W        W15471  17.066  22.679  10.965
55969W        W15472  22.562  24.644  10.495
55970W        W15473  12.270  20.179   4.146
55971W        W15474  33.054  28.064   1.925
55972W        W15475  23.517  17.586  13.308
55973W        W15476   4.259  14.246   4.310
55974W        W15477  27.057   7.668   2.381
55975W        W15478  38.859   1.805   2.670
55976W        W15479   1.414  42.864  12.472
55977W        W15480  18.129  40.892   4.294
55978W        W15481   8.298  24.999   2.270
55979W        W15482   6.232  11.655   9.947
55980W        W15483  22.562   7.311  12.985
55981W        W15484  13.187  27.046  11.567
55982W        W15485   9.791  16.586   1.360
55983W        W15486   5.415  21.191  11.053
55984W        W15487  11.208  36.012  10.571
55985W        W15488   6.422   0.399  13.928
55986W        W15489  38.047  42.781   2.269
55987W        W15490  13.769   5.741   1.268
55988W        W15491   5.278  17.299   0.819
55989W        W15492  17.218  27.522   0.364
55990W        W15493  33.382  40.425  13.477
55991W        W15494   1.830  26.659  13.336
55992W        W15495  20.234  10.347  14.836
55993W        W15496  26.188  14.174  12.380
55994W        W15497   8.667  16.114   5.100
55995W        W15498  22.197   6.810  11.478
55996W        W15499  37.856  26.166   2.233
55997W        W15500  19.606  15.723   4.162
55998W        W15501  15.808  21.593   4.332
55999W        W15502   4.774  12.734   5.187
56000W        W15503  26.954  37.409  14.397
56001W        W15504  37.508   0.403   2.209
56002W        W15505  21.537  20.170   4.152
56003W        W15506   7.224  14.655   2.198
56004W        W15507  21.545  25.967   0.318
56005W        W15508   6.372  24.035   2.335
56006W        W15509  29.649  24.043   3.687
56007W        W15510   1.977   4.923   2.877
56008W        W15511  27.102  14.715   2.325
56009W        W15512  40.916  33.054  11.488
56010W        W15513  36.532  19.135  11.555
56011W        W15514  42.846  29.164  12.490
56012W        W15515  39.065  18.623  10.898
56013W        W15516  35.993  27.022   1.420
56014W        W15517  44.489  24.013  13.822
56015W        W15518  37.041  19.063  12.509
56016W        W15519  11.669  11.288   0.266
56017W        W15520   6.216  31.558   4.831
56018W        W15521  20.622  38.043  11.972
56019W        W15522  36.018  11.630   4.622
56020W        W15523  26.615  44.480  13.909
56021W        W15524  24.610   8.683  14.330
56022W        W15525  15.277  33.601  12.470
56023W        W15526  13.667  26.520  14.994
56024W        W15527  19.594  32.417   0.871
56025W        W15528  34.055  15.757   3.240
56026W        W15529  29.515  42.817   0.370
56027W        W15530  41.987   5.366   3.770
56028W        W15531  16.667  39.876  11.102
56029W        W15532  24.693  39.345   0.804
56030W        W15533  16.092  30.504   4.205
56031W        W15534  37.414  30.040  13.061
56032W        W15535  30.524  38.395  11.960
56033W        W15536  29.022   3.391   3.231
56034W        W15537  31.057  16.132  12.059
56035W        W15538  31.514  37.032  14.291
56036W        W15539  40.343  31.413  12.087
56037W        W15540  41.831  30.597   1.231
56038W        W15541  17.791  22.144   4.303
56039W        W15542  15.802   5.822   4.680
56040W        W15543  27.517   8.197  14.276
56041W        W15544  30.459   9.363   1.885
56042W        W15545  11.201  39.899   1.315
56043W        W15546   5.928  13.184  14.785
56044W        W15547  10.644  24.540   1.807
56045W        W15548  19.112  28.045   3.871
56046W        W15549  15.278  16.076   2.894
56047W        W15550  36.893  13.153  14.018
56048W        W15551   6.737  17.247   3.250
56049W        W15552  33.409  20.537  13.824
56050W        W15553   9.259   5.376  14.454
56051W        W15554  20.201  11.132  12.055
56052W        W15555  24.075   3.867   2.778
56053W        W15556   9.820  38.857  11.872
56054W        W15557  34.917  35.930   4.693
56055W        W15558   8.319  23.563  10.987
56056W        W15559  44.817   9.335  11.855
56057W        W15560  22.564  42.793  14.020
56058W        W15561  35.530  12.155  10.582
56059W        W15562   9.778   4.872   0.445
56060W        W15563  25.175   5.843   0.844
56061W        W15564   1.897  42.511   3.379
56062W        W15565  40.471  44.355  14.967
56063W        W15566  36.079  25.218  11.903
56064W        W15567  32.075  41.306   2.717
56065W        W15568  16.151  38.919   1.871
56066W        W15569  29.599  43.848   1.259
56067W        W15570  31.105  38.907  13.949
56068W        W15571  17.109  44.819   1.933
56069W        W15572  33.391   0.479  14.964
56070W        W15573  42.354   7.908   1.340
56071W        W15574   4.874  36.080  11.059
56072W        W15575  31.500  15.660   4.743
56073W        W15576   8.761  22.569  13.530
56074W        W15577  11.215  38.539   1.439
56075W        W15578  29.952  42.821   1.271
56076W        W15579  17.130  35.524  10.481
56077W        W15580  35.408   6.731   0.918
56078W        W15581  37.869  29.479  12.413
56079W        W15582  42.510   6.810   4.285
56080W        W15583  35.101  23.552  13.813
56081W        W15584  23.013  21.092   3.712
56082W        W15585  32.495  22.035   0.944
56083W        W15586  40.894  13.173  12.416
56084W        W15587  23.705   2.897   0.796
56085W        W15588  38.848  20.165   4.291
56086W        W15589  22.104  32.997   0.749
56087W        W15590  12.802  42.482  13.315
56088W        W15591  18.705  10.234  12.488
56089W        W15592  33.502  41.401  10.513
56090W        W15593  25.050  28.930  12.022
56091W        W15594   3.220  17.645   0.851
56092W        W15595  27.036  11.349   2.808
56093W        W15596   7.864  25.076   1.326
56094W        W15597  36.514  14.123  12.540
56095W        W15598   6.273  17.797   2.413
56096W        W15599  17.164  19.561  12.395
56097W        W15600   0.289  12.206   0.822
56098W        W15601  31.025   1.301   3.303
56099W        W15602  27.691  35.971   0.345
56100W        W15603  42.462  10.695   4.215
56101W        W15604  37.534  23.722  14.870
56102W        W15605   1.295   0.467  12.442
56103W        W15606   2.842   7.323  11.522
56104W        W15607   3.318  18.549  14.880
56105W        W15608  15.317  27.990   1.859
56106W        W15609  20.135  37.086  12.518
56107W        W15610  42.958  32.113   3.374
56108W        W15611  24.067  24.682  12.833
56109W        W15612   6.900  34.052  11.866
56110W        W15613  19.574   7.339  12.853
56111W        W15614   1.813  37.571  11.578
56112W        W15615   0.373  28.068   2.241
56113W        W15616  11.364  37.496  11.521
56114W        W15617  41.297  19.267   1.744
56115W        W15618  12.349   7.249  10.561
56116W        W15619  27.633  10.671   4.753
56117W        W15620  11.843   2.804  13.527
56118W        W15621   9.291  44.406   1.440
56119W        W15622  43.918  25.052   0.283
56120W        W15623  14.650  28.522   0.357
56121W        W15624  26.204  31.421   1.440
56122W        W15625  37.877  14.210  13.898
56123W        W15626   8.849  16.231   1.232
56124W        W15627  25.219   9.150   4.639
56125W        W15628  42.937  34.044   0.390
56126W        W15629  29.995  16.567   2.344
56127W        W15630  38.937  10.299  12.537
56128W        W15631  40.915  10.251   4.604
56129W        W15632  27.579   1.236  13.397
56130W        W15633  23.667  32.585   4.651
56131W        W15634  10.692  36.855   4.127
56132W        W15635   9.793  22.667  13.886
56133W        W15636  25.965  30.114  14.930
56134W        W15637  39.823  33.920  13.960
56135W        W15638   3.376  43.510   2.726
56136W        W15639   0.960  14.659   3.766
56137W        W15640  34.523  40.919  12.913
56138W        W15641  25.583  41.999  14.889
56139W        W15642  20.636  25.625   1.371
56140W        W15643  39.849  15.193  10.555
56141W        W15644  43.485  22.705  12.553
56142W        W15645  37.035  21.522  11.004
56143W        W15646   0.460  26.621   9.649
56144W        W15647   6.201  34.376  14.413
56145W        W15648  40.922  21.018   2.866
56146W        W15649  29.514  28.185  11.872
56147W        W15650  32.560  13.841  11.388
56148W        W15651  24.652  15.621   4.639
56149W        W15652  18.653  43.878   0.859
56150W        W15653  35.571  36.367  13.499
56151W        W15654  11.305   9.153   4.739
56152W        W15655  16.185  41.449   0.740
56153W        W15656  26.571   0.299   3.676
56154W        W15657  13.744  17.146  11.891
56155W        W15658   3.330  31.980  12.831
56156W        W15659  24.532  34.435  10.456
56157W        W15660  30.440  14.695  13.967
56158W        W15661  17.211  16.767  12.437
56159W        W15662  24.198  22.651   1.762
56160W        W15663  30.148  41.948   3.718
56161W        W15664   4.936  25.011  14.470
56162W        W15665  16.599  16.297   4.830
56163W        W15666  11.785  36.555  13.435
56164W        W15667  25.649  17.759  13.979
56165W        W15668   3.259  42.914  14.761
56166W        W15669  26.504  37.013   0.912
56167W        W15670  29.956  40.853  13.986
56168W        W15671  25.563   7.365  12.419
56169W        W15672  12.215  40.389   0.385
56170W        W15673  12.164   1.814  12.084
56171W        W15674  20.084  18.195   2.774
56172W        W15675  12.361  10.755   2.706
56173W        W15676  17.702   5.814   1.362
56174W        W15677  10.291  37.876  13.429
56175W        W15678  13.316  31.147   2.283
56176W        W15679  26.110  40.805   1.404
56177W        W15680  11.659  36.523  14.958
56178W        W15681  13.349  40.933   3.805
56179W        W15682  38.001   4.278  10.993
56180W        W15683  28.935   1.338  12.423
56181W        W15684   5.379  38.524   1.320
56182W        W15685  31.016  33.966   2.742
56183W        W15686  24.198  18.644  13.456
56184W        W15687  10.725  14.117  11.475
56185W        W15688   4.294  33.490   3.365
56186W        W15689  40.452  44.929  14.331
56187W        W15690   3.259  13.276   0.758
56188W        W15691   8.698  16.638  14.968
56189W        W15692  18.627  30.910  13.955
56190W        W15693  40.808   0.872   3.852
56191W        W15694  32.554   2.881   1.869
56192W        W15695  32.895  23.075   2.271
56193W        W15696  44.281  20.562   3.187
56194W        W15697   2.938  15.194  12.837
56195W        W15698  39.842   9.667   2.358
56196W        W15699  36.499  25.971   0.365
56197W        W15700  30.653  37.979   1.857
56198W        W15701  15.687  18.151  13.430
56199W        W15702  41.806  12.134   1.361
56200W        W15703  12.751   3.440   1.428
56201W        W15704   9.848  16.196   4.603
56202W        W15705  16.623  10.214  11.898
56203W        W15706   4.701   1.906  14.896
56204W        W15707   5.928   8.660   2.855
56205W        W15708  25.663  41.835  11.385
56206W        W15709   1.238   8.289  14.924
56207W        W15710  15.310   8.884  13.014
56208W        W15711  27.569  17.666  12.911
56209W        W15712  16.243  42.384   0.397
56210W        W15713  13.123  21.207  13.956
56211W        W15714  20.723  15.813   1.213
56212W        W15715  37.378   9.706   4.180
56213W        W15716   6.838  39.407  10.929
56214W        W15717  19.736   4.830  13.012
56215W        W15718  33.501  36.422   1.324
56216W        W15719   2.875   9.244   4.683
56217W        W15720  37.977  16.279  13.341
56218W        W15721  35.461  32.575  12.458
56219W        W15722  39.516  11.802   3.760
56220W        W15723  44.967  42.458  12.943
56221W        W15724   9.814  30.948  13.043
56222W        W15725  30.626  43.436   0.823
56223W        W15726  28.647  38.959  12.459
56224W        W15727   7.172  42.775  11.537
56225W        W15728  35.047  36.536  12.577
56226W        W15729  26.658  26.530   5.206
56227W        W15730  30.103  27.679  13.478
56228W        W15731  43.887  16.231   3.736
56229W        W15732  12.220  18.292  11.911
56230W        W15733   4.866  20.240   1.872
56231W        W15734   3.369   9.732   2.723
56232W        W15735   4.814  36.987  11.473
56233W        W15736  31.052  23.732  12.043
56234W        W15737   4.349  36.916   1.409
56235W        W15738  37.991  10.225  10.112
56236W        W15739  15.631  23.528   1.877
56237W        W15740   2.871  28.125   5.230
56238W        W15741  24.035  23.182  13.814
56239W        W15742  37.941   0.837  12.912
56240W        W15743  42.908  30.649   0.358
56241W        W15744  38.942  14.295   2.734
56242W        W15745  11.845  18.138  12.574
56243W        W15746  41.395  43.429   1.261
56244W        W15747   4.835  43.406   3.870
56245W        W15748   3.236   1.328   4.642
56246W        W15749   8.198  18.050   4.795
56247W        W15750  21.109   5.844   4.809
56248W        W15751  43.831   5.322   3.180
56249W        W15752   5.763   6.297  12.375
56250W        W15753  15.243  27.152  12.466
56251W        W15754  13.211   8.859  12.954
56252W        W15755  21.028  38.433   4.245
56253W        W15756   8.394  30.079   1.863
56254W        W15757  44.778  21.185  14.337
56255W        W15758  29.944  23.604  13.866
56256W        W15759  31.497  24.645  12.076
56257W        W15760  20.242  33.997   4.165
56258W        W15761   7.735  32.429  13.349
56259W        W15762   4.219  24.537   0.846
56260W        W15763   2.762   8.293  14.924
56261W        W15764  34.014  29.485  10.521
56262W        W15765  25.159  42.485  10.574
56263W        W15766  18.214  22.683   3.699
56264W        W15767   4.288  13.255  10.581
56265W        W15768  14.103  42.423   9.989
56266W        W15769  24.118  44.759  12.026
56267W        W15770   9.830  36.927  10.558
56268W        W15771   2.331  35.969   2.749
56269W        W15772  17.258   1.796  14.842
56270W        W15773  14.260  10.637   4.714
56271W        W15774  14.640  15.791  11.862
56272W        W15775  36.906  22.998   2.844
56273W        W15776  32.509  21.616   2.891
56274W        W15777   1.881  17.180  12.478
56275W        W15778  12.626   6.396  13.803
56276W        W15779  25.192  20.192   2.770
56277W        W15780  12.628   7.684   2.756
56278W        W15781  32.979  29.528   2.253
56279W        W15782   9.869  12.772  14.935
56280W        W15783  10.687  33.948  12.478
56281W        W15784  35.503  43.876   3.698
56282W        W15785  36.980  20.132  11.401
56283W        W15786   0.283  24.524  11.995
56284W        W15787  30.953   5.202   2.734
56285W        W15788   4.702  39.889   1.922
56286W        W15789  12.126  21.635  14.475
56287W        W15790  44.321   6.363   0.905
56288W        W15791  42.416  37.992   1.845
56289W        W15792  30.542  19.262   4.209
56290W        W15793   3.911  28.040   4.722
56291W        W15794  43.931  30.074  14.373
56292W        W15795  32.128  30.645  14.473
56293W        W15796  13.165  19.267   0.323
56294W        W15797  34.060  24.999   1.810
56295W        W15798  28.441   6.225  12.404
56296W        W15799   8.815  30.137   3.291
56297W        W15800  44.849  25.003  13.861
56298W        W15801   7.269  24.612   4.721
56299W        W15802   4.318  22.019  13.427
56300W        W15803  40.524  31.013   2.687
56301W        W15804  37.473  34.968  14.514
56302W        W15805  13.237   8.210  14.346
56303W        W15806   7.759  22.103  11.606
56304W        W15807  35.531   4.408  14.416
56305W        W15808  11.724   1.761   0.434
56306W        W15809  13.839  34.865   2.835
56307W        W15810  11.803  14.137  14.784
56308W        W15811  15.754  42.929   1.426
56309W        W15812   8.377  27.675  14.458
56310W        W15813   4.316   3.894  10.607
56311W        W15814  16.682  14.624  12.966
56312W        W15815   8.667  18.279   4.282
56313W        W15816  21.567  10.326   3.698
56314W        W15817   5.877  28.147  14.893
56315W        W15818  40.833  39.019  13.926
56316W        W15819  17.766   7.801  13.418
56317W        W15820   8.243   9.805  14.513
56318W        W15821  43.804   3.887   4.191
56319W        W15822  17.714  21.191   2.297
56320W        W15823  39.519  20.559  11.394
56321W        W15824  22.134  42.288   3.679
56322W        W15825  19.603  42.436   4.150
56323W        W15826  20.204  43.906   4.289
56324W        W15827  32.923   2.827  11.021
56325W        W15828  19.722  37.041   0.477
56326W        W15829  32.947  28.613  10.567
56327W        W15830  26.077  44.847  11.482
56328W        W15831  12.626  20.552   4.626
56329W        W15832  35.459  28.607   4.648
56330W        W15833  42.380  30.924   0.737
56331W        W15834  41.924  21.606  13.803
56332W        W15835  15.718  21.111  13.840
56333W        W15836  42.933  12.245  11.986
56334W        W15837   1.403   5.436  10.606
56335W        W15838  16.756   0.414   3.309
56336W        W15839  22.098  28.663   2.897
56337W        W15840  37.391  29.500  13.950
56338W        W15841  40.861  27.186  13.341
56339W        W15842  44.905  16.719  11.104
56340W        W15843  23.076  32.000   5.190
56341W        W15844   6.201   4.785   3.355
56342W        W15845  37.363  41.318   1.731
56343W        W15846  10.231   4.744  14.021
56344W        W15847  11.226  44.459  11.524
56345W        W15848  24.567   8.281   0.315
56346W        W15849  12.237  25.037   4.769
56347W        W15850  35.448  11.660   3.762
56348W        W15851  30.549   9.837  10.536
56349W        W15852  20.721  13.244  10.628
56350W        W15853  26.088   1.269  14.992
56351W        W15854  26.560  21.195   9.998
56352W        W15855  30.490  14.724  12.067
56353W        W15856  32.006  44.331   4.144
56354W        W15857  20.634  19.158   2.700
56355W        W15858  12.135  12.737  10.455
56356W        W15859  42.863  39.898   2.753
56357W        W15860  30.036   6.708   0.877
56358W        W15861  39.959  31.496   3.339
56359W        W15862   1.427  43.304  12.908
56360W        W15863   5.312  30.437   2.373
56361W        W15864  29.644   3.792   2.322
56362W        W15865  15.206  12.208   4.345
56363W        W15866   1.437  26.198   9.580
56364W        W15867  20.199  35.023  10.530
56365W        W15868  43.283   6.216  11.452
56366W        W15869   2.464  43.345   0.248
56367W        W15870  10.680  38.374   1.824
56368W        W15871  42.987  16.673   1.874
56369W        W15872  20.102  34.375  14.329
56370W        W15873  44.981  13.180   4.268
56371W        W15874  44.783  41.298  14.780
56372W        W15875  28.021   7.362   4.734
56373W        W15876  25.496   5.323  14.335
56374W        W15877  38.560  31.153   1.400
56375W        W15878  10.779  28.507  11.455
56376W        W15879  37.935  37.525  11.378
56377W        W15880   8.160  10.193  14.332
56378W        W15881  40.533  24.980  12.855
56379W        W15882  32.075   7.848  12.979
56380W        W15883  19.709  25.088  13.436
56381W        W15884   8.798   9.759   0.474
56382W        W15885  26.586   0.788  12.914
56383W        W15886  30.524  25.010   2.851
56384W        W15887  44.459  40.820  13.944
56385W        W15888  40.502  16.764   2.219
56386W        W15889  15.165  20.207   2.675
56387W        W15890   9.281   4.789  11.425
56388W        W15891  12.359  28.541  14.371
56389W        W15892  17.701   8.899  13.406
56390W        W15893  10.225  10.868  12.390
56391W        W15894  13.182  23.586  12.484
56392W        W15895  32.447  40.935  10.636
56393W        W15896  15.791   9.202  12.509
56394W        W15897   8.749   1.416   4.648
56395W        W15898  10.347  26.002   0.865
56396W        W15899   6.382  28.157  14.922
56397W        W15900   3.916  15.594  10.458
56398W        W15901  41.293  33.471   5.238
56399W        W15902  26.570   2.451   3.767
56400W        W15903   8.890  17.224   4.647
56401W        W15904  44.833  13.641  10.974
56402W        W15905  24.086  18.708   1.814
56403W        W15906  25.521  36.433   0.899
56404W        W15907  14.117  36.390   0.757
56405W        W15908   1.908   3.242  10.561
56406W        W15909   8.178  18.268  12.403
56407W        W15910   5.881  25.005  14.403
56408W        W15911  22.181  10.270   1.858
56409W        W15912  33.489  24.553   1.774
56410W        W15913  42.985   6.732  12.566
56411W        W15914   3.270  23.990  14.923
56412W        W15915  36.842   1.903   3.186
56413W        W15916  34.039  34.948   3.774
56414W        W15917  34.397  23.601   0.272
56415W        W15918  39.022   5.828   0.938
56416W        W15919  20.070  19.545  10.543
56417W        W15920  26.526  29.945   1.778
56418W        W15921  15.108  42.838   1.322
56419W        W15922  32.573  31.105   4.122
56420W        W15923   9.239  10.651   1.335
56421W        W15924  15.672  36.473  11.877
56422W        W15925   6.687  36.524  11.921
56423W        W15926  31.473   4.388  13.053
56424W        W15927   6.850  41.299  14.885
56425W        W15928   3.370  13.754  10.556
56426W        W15929  33.958   0.946   2.315
56427W        W15930  38.389  33.508  12.085
56428W        W15931  30.953   2.293  11.050
56429W        W15932  30.112  39.880   1.323
56430W        W15933  44.431  39.000   0.824
56431W        W15934  33.474  10.351  10.504
56432W        W15935   5.907   5.907   4.648
56433W        W15936  43.454   7.259   5.170
56434W        W15937   8.765  10.712  14.929
56435W        W15938  37.859  35.383   2.768
56436W        W15939  42.343  24.509  14.459
56437W        W15940  26.183  26.529  12.352
56438W        W15941   0.282  29.551  11.033
56439W        W15942  12.667  13.788   3.753
56440W        W15943  20.044  34.476   2.208
56441W        W15944  15.314  16.171   1.855
56442W        W15945  33.544  22.180  11.434
56443W        W15946   9.840  17.788   0.766
56444W        W15947  29.658  19.075  12.882
56445W        W15948  39.014  38.533  13.360
56446W        W15949  36.381  12.128  11.041
56447W        W15950  12.842  12.840  13.903
56448W        W15951  24.598   1.300  10.518
56449W        W15952  21.663  17.755   3.160
56450W        W15953   8.759  20.537  13.455
56451W        W15954  41.375  32.450  10.916
56452W        W15955   4.424  10.827  11.390
56453W        W15956   8.265  24.155   2.286
56454W        W15957  17.222  12.312  10.906
56455W        W15958  32.889  11.261  10.998
56456W        W15959  18.741  41.864  12.527
56457W        W15960  30.422  26.555   3.727
56458W        W15961  31.032  14.748  10.462
56459W        W15962  22.203  35.897  11.014
56460W        W15963  39.889  23.673   0.409
56461W        W15964  18.110  16.618  14.026
56462W        W15965  16.111   3.221   1.817
56463W        W15966  42.826   9.159   3.782
56464W        W15967  11.751   7.388   0.474
56465W        W15968   5.261  31.502   4.707
56466W        W15969   4.737  31.983  10.052
56467W        W15970   8.672  36.438   3.769
56468W        W15971  37.482   3.848  13.012
56469W        W15972  31.005   1.335  14.380
56470W        W15973  10.757   1.933  12.922
56471W        W15974   4.399  43.498   0.876
56472W        W15975  33.041  43.808   4.138
56473W        W15976  39.822  26.017  13.373
56474W        W15977  26.592   6.867  13.817
56475W        W15978  16.117  40.524  14.999
56476W        W15979  23.171  16.801   1.252
56477W        W15980  30.584   8.753  14.911
56478W        W15981  17.565  34.385  13.354
56479W        W15982  18.183  31.470  12.412
56480W        W15983  43.437  43.807   2.395
56481W        W15984   1.797  23.996  13.896
56482W        W15985  36.586  10.322  10.067
56483W        W15986   3.408  31.959   4.299
56484W        W15987   4.826  25.962   4.293
56485W        W15988   4.927  37.359   1.253
56486W        W15989  33.626   3.269  10.037
56487W        W15990   9.307   0.868  12.031
56488W        W15991  10.184   4.421  10.547
56489W        W15992   6.187  11.745  14.941
56490W        W15993  36.549  14.100   1.282
56491W        W15994  24.186  43.354   3.342
56492W        W15995  20.606  21.682  10.496
56493W        W15996   4.869   0.327  12.051
56494W        W15997  40.414  13.774  11.108
56495W        W15998  42.441  36.531   1.931
56496W        W15999   9.281   7.261   3.679
56497W        W16000  26.072  20.626  11.046
56498W        W16001  34.959  40.809   2.255
56499W        W16002  37.079  19.671  11.573
56500W        W16003  36.427  39.987   1.785
56501W        W16004  43.937   2.858  10.562
56502W        W16005  40.909   4.901   3.149
56503W        W16006   8.882  12.203  14.409
56504W        W16007  24.597  28.117  10.479
56505W        W16008  25.667  11.131   1.836
56506W        W16009   6.305  12.311   4.774
56507W        W16010  44.368   0.873  10.500
56508W        W16011  44.929  43.794   9.645
56509W        W16012  34.868  34.105  14.324
56510W        W16013  41.918  40.506   4.211
56511W        W16014  11.826  33.113  14.487
56512W        W16015  34.537   6.707  14.894
56513W        W16016  23.699  14.834   0.875
56514W        W16017  23.130  22.725   0.765
56515W        W16018  18.212  23.616   1.407
56516W        W16019  23.612  27.643  12.901
56517W        W16020  20.211   9.247  14.787
56518W        W16021  32.143   3.308   3.754
56519W        W16022   9.302  29.608  12.519
56520W        W16023  21.645  28.641  10.430
56521W        W16024  28.107   3.260   2.785
56522W        W16025   0.928  19.239   0.439
56523W        W16026  18.575   2.469  13.542
56524W        W16027   7.880  38.966   2.179
56525W        W16028  29.107  34.397  10.619
56526W        W16029   1.905  16.255  10.485
56527W        W16030  37.337  41.846   2.711
56528W        W16031  20.756   2.876  12.977
56529W        W16032   7.796  28.147  10.506
56530W        W16033  41.392  16.731   0.482
56531W        W16034  13.163  44.817  11.560
56532W        W16035   5.326  18.212  10.488
56533W        W16036  44.761  24.091  13.000
56534W        W16037  40.034  15.236  11.902
56535W        W16038  16.268  19.565  13.444
56536W        W16039  41.987   3.743  12.522
56537W        W16040   3.915   0.414  13.980
56538W        W16041  34.578  32.398  12.411
56539W        W16042  16.294   8.817   4.826
56540W        W16043  30.532  16.735  13.430
56541W        W16044  17.755  29.447   4.180
56542W        W16045  44.459  32.015  13.836
56543W        W16046  42.348  23.593  12.081
56544W        W16047  34.873   1.412   4.700
56545W        W16048  28.034  34.966  10.955
56546W        W16049  35.504  28.553   0.773
56547W        W16050  33.933   4.345  13.979
56548W        W16051   7.681  30.988  10.449
56549W        W16052  36.429   1.402  10.525
56550W        W16053   6.199  39.462  11.855
56551W        W16054  44.768  43.784   4.158
56552W        W16055  21.706   9.370  11.128
56553W        W16056  34.021  36.507  12.538
56554W        W16057  10.275  28.078   4.682
56555W        W16058  44.966  32.097  10.581
56556W        W16059   7.338  29.165   1.445
56557W        W16060  35.037   7.674  13.333
56558W        W16061   3.405  37.960   3.847
56559W        W16062  19.136  35.548  11.405
56560W        W16063  42.453  12.210  14.830
56561W        W16064  43.486  28.003  14.390
56562W        W16065   6.726  44.342  13.441
56563W        W16066  28.970  11.281   2.847
56564W        W16067  35.543  15.723  13.940
56565W        W16068  22.505  43.296   3.266
56566W        W16069  15.734  43.285  10.945
56567W        W16070  19.549   8.373  10.512
56568W        W16071  22.574   9.788  14.511
56569W        W16072  22.031  32.609  13.456
56570W        W16073  13.274  11.259  11.011
56571W        W16074  18.084  16.644   1.722
56572W        W16075   3.853  24.187  10.488
56573W        W16076  38.888  18.231   0.779
56574W        W16077   4.800  22.103  12.345
56575W        W16078  20.524  28.639  14.855
56576W        W16079  44.439   3.348  14.305
56577W        W16080  25.084  23.061   0.348
56578W        W16081  11.859  21.155   4.287
56579W        W16082  40.429  25.623   3.339
56580W        W16083  24.491   6.736  10.501
56581W        W16084   6.835  27.512  12.462
56582W        W16085  26.486  39.392   1.451
56583W        W16086  36.063  37.409  11.566
56584W        W16087  26.498  40.547   4.212
56585W        W16088   7.701  29.001  10.629
56586W        W16089  16.291  25.055   3.772
56587W        W16090  18.147  22.199   0.322
56588W        W16091   8.385   9.217   1.779
56589W        W16092  38.557   8.726  12.433
56590W        W16093  42.821  21.700   0.788
56591W        W16094  10.185  42.295  11.974
56592W        W16095   7.352  14.336  14.410
56593W        W16096   3.334  40.319   2.300
56594W        W16097   5.859  40.849  13.932
56595W        W16098   4.906  29.925   5.195
56596W        W16099   9.827  29.644   1.727
56597W        W16100  14.101   1.908   0.876
56598W        W16101  18.067  44.843  13.884
56599W        W16102  18.749  19.216   2.279
56600W        W16103  19.101  41.941  11.526
56601W        W16104  28.185  26.633  13.517
56602W        W16105  40.497  35.078  14.492
56603W        W16106  28.459  14.281   0.244
56604W        W16107   0.364  18.189  10.446
56605W        W16108  44.438  23.127   4.161
56606W        W16109  27.993  29.107  13.374
56607W        W16110  24.210   4.775  14.343
56608W        W16111   9.160  15.266  12.529
56609W        W16112  11.725   9.822  13.505
56610W        W16113  32.028   8.195   0.369
56611W        W16114  39.860  31.956  10.568
56612W        W16115  15.184  44.478  11.515
56613W        W16116  21.734   8.330   4.295
56614W        W16117  19.052  23.727  12.914
56615W        W16118  42.430  17.766  14.960
56616W        W16119  20.615  30.053  12.497
56617W        W16120  32.481  16.589   0.897
56618W        W16121  40.433  16.232   1.411
56619W        W16122  10.800  18.658   3.169
56620W        W16123  37.500  10.142  14.400
56621W        W16124  11.311   9.345   1.893
56622W        W16125  10.263   7.832   2.343
56623W        W16126  36.465  27.184  12.367
56624W        W16127  25.146  21.039   3.670
56625W        W16128  19.598  25.019   3.246
56626W        W16129   8.182  36.901  12.092
56627W        W16130  21.070  31.577   1.398
56628W        W16131   0.460  11.785   4.253
56629W        W16132   4.295   2.426  12.356
56630W        W16133  12.646  14.141   4.132
56631W        W16134  33.001  38.477  12.428
56632W        W16135  43.838  20.045  10.928
56633W        W16136  40.406  11.799   2.210
56634W        W16137   8.794  32.992  12.970
56635W        W16138   5.400  36.036   1.314
56636W        W16139   5.905   7.336   1.838
56637W        W16140  43.332  33.464   0.896
56638W        W16141  25.089  35.439  12.085
56639W        W16142  31.052  42.362  12.347
56640W        W16143  33.028  12.185  12.544
56641W        W16144  17.234  35.535  13.918
56642W        W16145   4.877   7.325  12.545
56643W        W16146  29.514   3.372   2.860
56644W        W16147  33.899  21.579   0.779
56645W        W16148  32.627  34.100  10.415
56646W        W16149  44.986  16.635  11.495
56647W        W16150  25.991  29.625   4.224
56648W        W16151  41.496  44.350   3.269
56649W        W16152  10.777  20.137  13.377
56650W        W16153   0.296  41.994  11.076
56651W        W16154  38.493  18.669  13.527
56652W        W16155  43.883  37.432  14.455
56653W        W16156  42.292  17.629   3.297
56654W        W16157  43.415  14.103   3.776
56655W        W16158  18.065  17.064  11.058
56656W        W16159  20.270  38.390  13.973
56657W        W16160  42.970  39.990   2.289
56658W        W16161  13.798   8.393  12.972
56659W        W16162  39.048  14.715   1.854
56660W        W16163   3.782  12.792  12.869
56661W        W16164  19.747   4.869   3.205
56662W        W16165  15.619  17.607  14.952
56663W        W16166  27.141  42.417   2.849
56664W        W16167   7.680  23.183   0.818
56665W        W16168  15.273   4.298   2.745
56666W        W16169  35.603  37.952  14.416
56667W        W16170  32.973  14.245  12.006
56668W        W16171   0.466  34.875   2.854
56669W        W16172  43.296   9.889  11.054
56670W        W16173  40.831   6.920  13.326
56671W        W16174  33.526  19.073  13.916
56672W        W16175  34.045   4.326  13.336
56673W        W16176   9.188   0.829  14.815
56674W        W16177  33.056  44.786   3.308
56675W        W16178  38.546  39.988   3.353
56676W        W16179  31.422  15.692  12.555
56677W        W16180   1.384  27.022  12.393
56678W        W16181  42.992  31.486   2.417
56679W        W16182  21.555  42.958   3.784
56680W        W16183   8.821  44.275  10.528
56681W        W16184  42.414   5.382   0.840
56682W        W16185  29.099  14.209   5.085
56683W        W16186  35.359  20.029   3.713
56684W        W16187  13.691   6.846   2.868
56685W        W16188   8.674  11.723   3.658
56686W        W16189   4.284  30.459   0.279
56687W        W16190   3.807  16.245  11.090
56688W        W16191   5.810  23.183   1.896
56689W        W16192  26.596  21.616   3.286
56690W        W16193  19.281  17.080  12.359
56691W        W16194  44.819  27.006  13.322
56692W        W16195  11.237  15.194  12.999
56693W        W16196   8.790  26.482  14.338
56694W        W16197  11.820  15.657   3.796
56695W        W16198  26.033  40.890  11.570
56696W        W16199   9.762   3.770   4.818
56697W        W16200  11.820  15.310   2.758
56698W        W16201  19.753  21.672  11.860
56699W        W16202  43.892  32.121   4.295
56700W        W16203  39.928   2.324   4.137
56701W        W16204  10.641   5.747  14.000
56702W        W16205  18.131  12.682   1.738
56703W        W16206  39.896   4.269  14.972
56704W        W16207  13.124  26.153   4.835
56705W        W16208  12.680  41.511  12.937
56706W        W16209  16.763   7.376   4.120
56707W        W16210  41.484  35.518   0.462
56708W        W16211  28.988   1.886   1.910
56709W        W16212  19.565  36.842   3.854
56710W        W16213  16.260  43.380  11.964
56711W        W16214   7.382  41.516  10.618
56712W        W16215   0.868  31.091  14.002
56713W        W16216  36.560  22.238  13.399
56714W        W16217   6.345   1.731   1.226
56715W        W16218  35.880  33.615   5.230
56716W        W16219  25.036  38.929   4.680
56717W        W16220  15.716  31.413   1.351
56718W        W16221  16.635  20.669   0.829
56719W        W16222  30.482  35.428   3.385
56720W        W16223  32.942  24.150  12.033
56721W        W16224   4.768  36.553   0.744
56722W        W16225   7.672  33.984   1.708
56723W        W16226  40.388  19.251   4.732
56724W        W16227  28.185  14.805   2.686
56725W        W16228   6.820  36.927  12.512
56726W        W16229  13.749  37.504  12.075
56727W        W16230  25.707  32.600   2.863
56728W        W16231  38.477  29.173  10.559
56729W        W16232  40.049  26.524  10.919
56730W        W16233   3.229  39.947   0.320
56731W        W16234  38.912  42.943   0.937
56732W        W16235  23.220  11.768  11.526
56733W        W16236  40.896  31.953  10.540
56734W        W16237  30.068   0.795   4.209
56735W        W16238  36.069  27.185  12.426
56736W        W16239  42.992  30.022  10.930
56737W        W16240  27.589  41.875   4.180
56738W        W16241  28.460  21.198   1.851
56739W        W16242  27.076  23.001   0.951
56740W        W16243  42.803  15.112  10.124
56741W        W16244  39.442   9.175  13.897
56742W        W16245  29.918  37.067  13.031
56743W        W16246  34.383   5.356  11.512
56744W        W16247  16.779  30.920   1.292
56745W        W16248  43.931  27.656   1.809
56746W        W16249  15.112  16.767  13.342
56747W        W16250   7.358   8.344  11.534
56748W        W16251  42.457  13.172  11.430
56749W        W16252  26.612  40.513  13.524
56750W        W16253  13.346   0.871   2.184
56751W        W16254  27.586  23.218   2.239
56752W        W16255  27.991   1.812  10.033
56753W        W16256  11.779  31.499   2.331
56754W        W16257   9.350   9.853   3.367
56755W        W16258  22.036  38.960  12.383
56756W        W16259  16.723  32.915  14.882
56757W        W16260  15.805   6.246   2.891
56758W        W16261   0.819  27.578   1.774
56759W        W16262  31.050  44.337  12.859
56760W        W16263   0.489  40.004  11.419
56761W        W16264  26.670  22.178   3.340
56762W        W16265  23.537   4.280   3.174
56763W        W16266  25.165  35.971   4.186
56764W        W16267  33.626  29.607  12.841
56765W        W16268   9.797  28.446   3.745
56766W        W16269   4.408  44.877  10.889
56767W        W16270   8.178  10.871  13.894
56768W        W16271  28.607  19.216   1.736
56769W        W16272  23.166  41.437   4.340
56770W        W16273   4.303  33.993  10.484
56771W        W16274  28.993  14.273  11.385
56772W        W16275  33.943  42.497  11.566
56773W        W16276  15.640   4.782  12.069
56774W        W16277  18.770  37.965   0.805
56775W        W16278  35.046  34.058   1.277
56776W        W16279  33.984  25.489   4.130
56777W        W16280   8.385  13.165  11.497
56778W        W16281  36.882  20.633  14.788
56779W        W16282  12.807   3.316  12.058
56780W        W16283  36.898   2.867   1.847
56781W        W16284  13.139  41.515  10.429
56782W        W16285  16.716   7.673  12.527
56783W        W16286   6.680  12.636   3.164
56784W        W16287  11.292   0.764  10.449
56785W        W16288  27.534  39.983  12.914
56786W        W16289  10.153  10.836  14.404
56787W        W16290  23.509  10.219  10.514
56788W        W16291  39.414  43.482   0.806
56789W        W16292  39.852   1.941   1.323
56790W        W16293  23.644  10.862   4.213
56791W        W16294  38.989  39.958  14.342
56792W        W16295  30.070  17.755  12.429
56793W        W16296  11.843  40.884  10.949
56794W        W16297  44.498  15.618  14.473
56795W        W16298   7.900  32.586   0.312
56796W        W16299   0.249  36.877   0.276
56797W        W16300  44.830  22.121   0.886
56798W        W16301  23.073  30.046  13.013
56799W        W16302  20.745   0.792  12.899
56800W        W16303  25.605  32.018  11.551
56801W        W16304  30.433   4.928   0.334
56802W        W16305  16.783  24.045  10.600
56803W        W16306  32.608   6.327  10.468
56804W        W16307  39.412  37.440   5.291
56805W        W16308  11.312  43.999   3.240
56806W        W16309  18.200  41.836   1.824
56807W        W16310  11.724  20.601  11.597
56808W        W16311  42.503  19.673  13.388
56809W        W16312   8.186  21.729   0.966
56810W        W16313  21.576   0.788   3.218
56811W        W16314  19.095  28.078  14.494
56812W        W16315   6.366  20.748  14.856
56813W        W16316  42.935  14.597   0.936
56814W        W16317  22.067  44.430  12.059
56815W        W16318  41.533  42.289  13.505
56816W        W16319  39.530  36.392  13.490
56817W        W16320   7.172  16.692  13.368
56818W        W16321  42.447  29.117   3.322
56819W        W16322  21.164  42.814   4.222
56820W        W16323  41.036  35.108  14.923
56821W        W16324  36.897  26.698  10.417
56822W        W16325  24.665  11.718   0.811
56823W        W16326  42.307  25.004  13.440
56824W        W16327  43.281   3.296   2.383
56825W        W16328  32.503   7.401  13.893
56826W        W16329  17.573  15.278  13.390
56827W        W16330   4.711  39.000   2.784
56828W        W16331  11.862  10.251   5.282
56829W        W16332  10.667  11.786   2.855
56830W        W16333  20.708  28.174  11.942
56831W        W16334  38.851  42.815   2.793
56832W        W16335  19.250  34.561  11.565
56833W        W16336  17.304  13.351   1.450
56834W        W16337  18.712  31.071   0.777
56835W        W16338   2.768  11.858   3.659
56836W        W16339  10.836  16.621  11.409
56837W        W16340  42.400  23.690   2.355
56838W        W16341  27.555  22.098  10.639
56839W        W16342  21.226  10.852  12.415
56840W        W16343  23.985  24.556  13.343
56841W        W16344  28.156  28.552   1.919
56842W        W16345   1.749  30.657  10.478
56843W        W16346  11.251  20.087  14.833
56844W        W16347  43.896  39.039   2.331
56845W        W16348  24.142  37.487   3.373
56846W        W16349   5.348  14.157  13.524
56847W        W16350  13.750  10.381  10.581
56848W        W16351  41.349  31.920  12.564
56849W        W16352  40.847  38.533  10.929
56850W        W16353  44.293  16.629   2.321
56851W        W16354  11.710  43.372  10.426
56852W        W16355   2.391  34.371   1.765
56853W        W16356  25.613  16.312  13.329
56854W        W16357   6.771  11.850  13.966
56855W        W16358  35.044  42.855  13.501
56856W        W16359  12.293  14.227   3.868
56857W        W16360  41.885   0.848  13.843
56858W        W16361  42.310  36.868  14.320
56859W        W16362  16.676  26.659  13.414
56860W        W16363   3.357   5.901  10.451
56861W        W16364   9.314  19.213  10.965
56862W        W16365  14.665  36.354  11.964
56863W        W16366  16.600  40.876   3.644
56864W        W16367   4.309   2.444   3.859
56865W        W16368  14.641  41.295   4.298
56866W        W16369  23.181  39.858  12.363
56867W        W16370   2.758  19.608   4.640
56868W        W16371  32.002  18.132   1.257
56869W        W16372   0.391  29.078   0.964
56870W        W16373   9.300   0.956  12.483
56871W        W16374  40.338  37.435   2.210
56872W        W16375  18.089  14.745   2.299
56873W        W16376  33.393  36.043   5.271
56874W        W16377  28.129   8.343   1.219
56875W        W16378  35.420  21.688   1.437
56876W        W16379   5.784  38.368   1.694
56877W        W16380  19.575  17.740  14.806
56878W        W16381   5.784  26.001   3.184
56879W        W16382  42.924   5.748  13.023
56880W        W16383  24.094  12.670   3.675
56881W        W16384  41.309  20.155   3.778
56882W        W16385  33.108  25.628   3.215
56883W        W16386  43.313  22.544  11.025
56884W        W16387  25.132  43.942  10.894
56885W        W16388  21.154  18.073   0.913
56886W        W16389  35.063   3.344   4.255
56887W        W16390  29.946  39.982   3.295
56888W        W16391  16.618  44.784   1.356
56889W        W16392  25.517  15.589  12.922
56890W        W16393   6.356   5.298  14.467
56891W        W16394   4.343  11.663   1.390
56892W        W16395   5.697  24.009   4.817
56893W        W16396  43.924  41.378  12.908
56894W        W16397  44.948  31.153  13.468
56895W        W16398   7.912  22.660   1.414
56896W        W16399  27.448  35.071  11.612
56897W        W16400   6.771   1.310   0.329
56898W        W16401  16.125  21.555  11.553
56899W        W16402  25.556   7.243   0.755
56900W        W16403  14.235  37.473  14.997
56901W        W16404  42.861  23.174   4.619
56902W        W16405  40.416   0.877  12.368
56903W        W16406  22.238  42.009   0.436
56904W        W16407   6.760   0.402  10.993
56905W        W16408  15.691  22.706   2.296
56906W        W16409  30.035  32.531  12.961
56907W        W16410  32.097  26.196   5.142
56908W        W16411  12.258  18.067   3.770
56909W        W16412  22.714  36.094   2.334
56910W        W16413   5.854  35.931   2.738
56911W        W16414  11.858  36.925  14.897
56912W        W16415  10.298  15.799   3.804
56913W        W16416  14.098  43.765   2.396
56914W        W16417   1.465   4.929  13.470
56915W        W16418  39.335  19.576   5.254
56916W        W16419   1.348  34.564   2.729
56917W        W16420  21.105  35.431  12.978
56918W        W16421  33.564  42.334   1.703
56919W        W16422  16.126  35.577   2.684
56920W        W16423  22.546  10.370   5.165
56921W        W16424  21.136  13.261  14.416
56922W        W16425   1.300   8.385   4.744
56923W        W16426  38.903  16.142   0.478
56924W        W16427  11.180   9.674  12.499
56925W        W16428  12.319   1.434   0.480
56926W        W16429  21.049  41.839   5.176
56927W        W16430  21.753  26.546   2.392
56928W        W16431   1.328  33.586  10.980
56929W        W16432  10.365  28.947   3.366
56930W        W16433  40.036   1.464   1.845
56931W        W16434  10.182  21.524   0.895
56932W        W16435  43.401  19.212   2.872
56933W        W16436   8.290  17.087  14.994
56934W        W16437   7.304  36.414  10.436
56935W        W16438  28.550  43.988  13.429
56936W        W16439  25.492  31.125   2.340
56937W        W16440  27.027  37.398   2.750
56938W        W16441  21.622  28.065  12.873
56939W        W16442  38.908   4.741  14.987
56940W        W16443  15.198  16.721   2.245
56941W        W16444  32.536  14.834   2.366
56942W        W16445  18.054  39.417   2.663
56943W        W16446   7.674   6.406  12.909
56944W        W16447  25.985  31.542   0.478
56945W        W16448  31.935  10.735   1.320
56946W        W16449  28.179   3.736  13.387
56947W        W16450  24.047  26.502   2.409
56948W        W16451  21.631  44.811   1.215
56949W        W16452  31.946  27.544   3.213
56950W        W16453  34.539  44.918   0.359
56951W        W16454  37.933  31.132   1.889
56952W        W16455  19.243  33.913   4.257
56953W        W16456  19.089  33.524   3.377
56954W        W16457   9.696  20.209  12.346
56955W        W16458   1.971  10.763  10.409
56956W        W16459  40.535  14.248   2.230
56957W        W16460  38.888  27.584  14.884
56958W        W16461  23.640  23.687  13.925
56959W        W16462   1.840  38.507  13.981
56960W        W16463  40.860   9.276  10.955
56961W        W16464  26.571  31.595   0.389
56962W        W16465  29.151  27.062  13.944
56963W        W16466  20.721  32.070  11.435
56964W        W16467  42.945  25.023   1.921
56965W        W16468  23.987  42.799  12.088
56966W        W16469  33.402  24.692  11.452
56967W        W16470  15.215   8.818   1.873
56968W        W16471  34.516  22.025  11.509
56969W        W16472  28.181  36.051   5.207
56970W        W16473  39.434  13.203   3.363
56971W        W16474  44.853  25.052  13.342
56972W        W16475  28.980  14.670  13.013
56973W        W16476  43.359  18.628  11.895
56974W        W16477  26.189  25.188   0.934
56975W        W16478  23.687   5.854   2.903
56976W        W16479  40.032  23.224   1.334
56977W        W16480   3.782  25.212  11.940
56978W        W16481  44.841  38.061   3.366
56979W        W16482   1.863  44.286   2.268
56980W        W16483  22.118   0.375   2.780
56981W        W16484   0.951   5.803  10.630
56982W        W16485  43.782  31.502  13.491
56983W        W16486  42.784  30.119   2.365
56984W        W16487  18.569  28.072  14.345
56985W        W16488  19.232  37.908   4.171
56986W        W16489   6.715  38.048  14.407
56987W        W16490  28.112  24.030   4.758
56988W        W16491  39.012  13.715   4.651
56989W        W16492  10.698   5.797   1.372
56990W        W16493  18.091  17.726   3.155
56991W        W16494  11.138  30.629   1.722
56992W        W16495  30.625  29.494   3.752
56993W        W16496  41.473  13.271  13.874
56994W        W16497  18.128  32.076  14.516
56995W        W16498   2.332  29.598  11.037
56996W        W16499  42.785  18.565  10.625
56997W        W16500  24.041  17.556  10.561
56998W        W16501  24.601  13.341  11.567
56999W        W16502  18.102  43.987  10.625
57000W        W16503   9.877  11.320  14.494
57001W        W16504  43.395  34.501   3.840
57002W        W16505  36.500  23.120   2.843
57003W        W16506  25.638  40.495   1.218
57004W        W16507  22.114  26.027  11.957
57005W        W16508  13.743  24.000  12.343
57006W        W16509   0.445  30.109  14.885
57007W        W16510  29.652  32.424   4.136
57008W        W16511  30.476  19.257  14.501
57009W        W16512  27.118  41.368   4.700
57010W        W16513  22.512  15.254   2.750
57011W        W16514  29.513  26.180  10.043
57012W        W16515  23.598  44.985  11.385
57013W        W16516  12.211  13.703   3.190
57014W        W16517   8.390   7.289   2.415
57015W        W16518  14.140  42.373   1.346
57016W        W16519   4.823  25.565   1.243
57017W        W16520   4.852  38.043  11.080
57018W        W16521   8.205   4.263   0.346
57019W        W16522  13.145  18.651  11.379
57020W        W16523  17.657   9.745   0.902
57021W        W16524  22.660  18.153  10.501
57022W        W16525  42.470   0.773   1.236
57023W        W16526  15.614   6.772  13.470
57024W        W16527  33.616  14.235   1.905
57025W        W16528  44.966   7.291   0.790
57026W        W16529  29.010  27.634   5.121
57027W        W16530   9.204  38.012  13.944
57028W        W16531  21.039  38.046  10.470
57029W        W16532  18.787  38.535  14.769
57030W        W16533  14.693   5.216   4.653
57031W        W16534  32.538  31.977  12.030
57032W        W16535  30.549  30.116   0.380
57033W        W16536  17.107   5.695  14.994
57034W        W16537  23.240  33.128  10.620
57035W        W16538  21.127  36.429   1.776
57036W        W16539   6.182  24.563  11.451
57037W        W16540  27.675  24.678   3.205
57038W        W16541   6.283  12.288   1.930
57039W        W16542  31.471   7.200   1.705
57040W        W16543  14.290  19.100   0.925
57041W        W16544  23.118   8.671  12.979
57042W        W16545  38.005  17.760  13.967
57043W        W16546   2.438  24.699   4.347
57044W        W16547  30.626  34.383  14.793
57045W        W16548  44.299   2.445  12.451
57046W        W16549  27.066  43.484   1.795
57047W        W16550  14.833  18.092  12.409
57048W        W16551   9.177  16.276  11.873
57049W        W16552  27.038  20.636  10.896
57050W        W16553  20.165  32.617   2.769
57051W        W16554   9.673  27.169   0.817
57052W        W16555  44.408   1.464   2.667
57053W        W16556   3.240  11.832  13.376
57054W        W16557  10.802   8.233   1.865
57055W        W16558  34.977   2.950   2.762
57056W        W16559  25.966  34.523  14.501
57057W        W16560   8.228   2.947  14.890
57058W        W16561   0.920  13.154   3.350
57059W        W16562  43.407   7.279  10.606
57060W        W16563  20.034  34.948   0.269
57061W        W16564  21.620  31.508  11.562
57062W        W16565  41.856  23.029  12.385
57063W        W16566  33.036   9.185  14.275
57064W        W16567   9.650  19.676  14.815
57065W        W16568   8.322  44.377   2.791
57066W        W16569  44.387  37.557   0.400
57067W        W16570   5.821  19.641   2.407
57068W        W16571  28.669  42.448  10.545
57069W        W16572  19.164   0.259   4.211
57070W        W16573  12.340  20.623   4.180
57071W        W16574  30.097  18.144  11.923
57072W        W16575  18.583  14.654  13.498
57073W        W16576  10.259  30.556  10.906
57074W        W16577  23.986  31.591  10.640
57075W        W16578  30.155  39.816   2.829
57076W        W16579  12.819  34.015  12.577
57077W        W16580  41.467   7.345  12.848
57078W        W16581  30.463  40.375  12.377
57079W        W16582  34.614  41.932   2.303
57080W        W16583  40.341  28.069   3.747
57081W        W16584   3.313  34.092  13.537
57082W        W16585  13.606  33.958   5.217
57083W        W16586  17.154  30.581   0.908
57084W        W16587  26.976  36.989  13.402
57085W        W16588  37.038  25.535  11.884
57086W        W16589   9.808  44.447  13.039
57087W        W16590   9.860  17.738   4.290
57088W        W16591  19.192  27.577   1.292
57089W        W16592   3.891   2.827  13.044
57090W        W16593   0.746  20.038   2.219
57091W        W16594   6.343   1.827   2.752
57092W        W16595  21.106   0.322   3.192
57093W        W16596  37.987  24.034  13.825
57094W        W16597  16.080  21.687   4.784
57095W        W16598  25.999  32.479   2.341
57096W        W16599  35.586  31.444   4.279
57097W        W16600  37.357   1.759  12.849
57098W        W16601  37.935  33.012   3.701
57099W        W16602  20.032  27.970  11.109
57100W        W16603  27.540   7.307  11.574
57101W        W16604  11.772  17.796  13.953
57102W        W16605   2.462  26.491  13.499
57103W        W16606   2.468   2.271   2.411
57104W        W16607  16.749  29.657   2.206
57105W        W16608   3.411  10.781   2.670
57106W        W16609  37.049   8.291  12.056
57107W        W16610   3.911  34.041   2.202
57108W        W16611  43.002  16.756  14.959
57109W        W16612  40.956  42.479  13.012
57110W        W16613   4.913  34.997  11.439
57111W        W16614   7.362   0.379   1.435
57112W        W16615  39.334  23.655  12.859
57113W        W16616  38.031   2.371   0.964
57114W        W16617  12.725  39.889  11.070
57115W        W16618  27.089  27.501   4.167
57116W        W16619  31.150   2.784   0.925
57117W        W16620  43.402  14.267  13.356
57118W        W16621   8.211  14.227   0.351
57119W        W16622  27.447  37.865  10.507
57120W        W16623  39.357  41.521  11.474
57121W        W16624   9.384   5.877   1.261
57122W        W16625  41.441  20.599   4.173
57123W        W16626  38.919  25.170   3.156
57124W        W16627  17.217  16.311  11.434
57125W        W16628   7.278  16.213   1.911
57126W        W16629  31.083  40.328  13.526
57127W        W16630  44.792  38.474  11.398
57128W        W16631  30.006  22.136   0.421
57129W        W16632  34.553  23.524  13.972
57130W        W16633  36.067  14.110  11.566
57131W        W16634  22.157  22.171  10.949
57132W        W16635  25.576  22.246   0.888
57133W        W16636  25.480  17.179   1.695
57134W        W16637   6.681  39.851  12.926
57135W        W16638  34.001  35.434  13.053
57136W        W16639  34.413  39.368   0.480
57137W        W16640  19.179  30.135   1.369
57138W        W16641  24.144  29.143   1.354
57139W        W16642  22.093   3.441  12.067
57140W        W16643  37.991  18.742  11.481
57141W        W16644  13.173  18.211  14.967
57142W        W16645  39.058  40.536   1.932
57143W        W16646  12.810  36.442  13.032
57144W        W16647  30.486  32.917  14.459
57145W        W16648  28.138   1.776  14.375
57146W        W16649  34.390  37.873  13.500
57147W        W16650  35.366  16.307  12.389
57148W        W16651  13.216  29.034  10.460
57149W        W16652  25.506  15.730  10.020
57150W        W16653  19.040   0.820  11.027
57151W        W16654  44.437   5.799  13.480
57152W        W16655  19.084  43.872  13.027
57153W        W16656   5.863   4.218  12.523
57154W        W16657  44.993  44.277  11.448
57155W        W16658   8.680  28.486  14.275
57156W        W16659  23.510  16.297  11.960
57157W        W16660  28.074  12.736  14.504
57158W        W16661  24.124   4.796  13.908
57159W        W16662  10.252  19.150  11.050
57160W        W16663  44.870  12.621   4.263
57161W        W16664  40.871   1.453   4.142
57162W        W16665  31.064  29.050  13.466
57163W        W16666  19.674   7.261  11.394
57164W        W16667  31.948  21.078   0.409
57165W        W16668  17.135  18.710  12.010
57166W        W16669  15.594  29.023  10.478
57167W        W16670  43.974   4.767   2.419
57168W        W16671   1.261  13.108   0.851
57169W        W16672  43.787  32.396  14.923
57170W        W16673  33.951  32.927   2.708
57171W        W16674  35.563  30.642   3.226
57172W        W16675  35.458  32.561   4.225
57173W        W16676  23.645  32.395   3.155
57174W        W16677  31.935   6.839   1.883
57175W        W16678  23.093  30.633  11.390
57176W        W16679  14.717  32.618  14.374
57177W        W16680  40.915  30.425   0.962
57178W        W16681  32.051  32.043  14.924
57179W        W16682   9.757  18.212  11.052
57180W        W16683  18.732  22.677  11.884
57181W        W16684  37.382  33.112  13.886
57182W        W16685  39.519   4.747   2.221
57183W        W16686  39.040  13.636   2.850
57184W        W16687  11.637   1.891   3.220
57185W        W16688  32.134  33.908   0.864
57186W        W16689  43.333  25.687  13.938
57187W        W16690   4.766  32.634   2.818
57188W        W16691  26.631  10.844  11.107
57189W        W16692   4.762   9.288  10.105
57190W        W16693  29.497  34.044   3.645
57191W        W16694   7.329  12.695   0.928
57192W        W16695  34.014  40.040  12.345
57193W        W16696  29.170  27.982   2.687
57194W        W16697  12.631  42.408   0.467
57195W        W16698  30.416  35.901   0.455
57196W        W16699  14.602  31.581   1.407
57197W        W16700  31.445  34.043  11.391
57198W        W16701  26.109  12.285  11.086
57199W        W16702  37.086  24.482   4.255
57200W        W16703  41.936  16.682   4.802
57201W        W16704  44.795  31.035  12.998
57202W        W16705  10.380  25.070   4.683
57203W        W16706  15.190  20.645   0.293
57204W        W16707  38.039  11.280   3.727
57205W        W16708  31.491  33.595  12.448
57206W        W16709  18.734  44.451  13.873
57207W        W16710   9.864  41.918  12.546
57208W        W16711  40.477  24.155  13.383
57209W        W16712  43.936   9.251  13.334
57210W        W16713  23.022  28.983  14.980
57211W        W16714  42.814   0.829  11.068
57212W        W16715  13.660  21.520  12.873
57213W        W16716  10.359  26.009  11.383
57214W        W16717  43.014   8.899   3.804
57215W        W16718  32.540  15.117  14.848
57216W        W16719  32.607  24.524  11.419
57217W        W16720  10.663  16.761   4.282
57218W        W16721   6.687  29.665  13.811
57219W        W16722  32.105  22.562  11.505
57220W        W16723  30.077  22.148   2.672
57221W        W16724   1.253  20.091   1.909
57222W        W16725  42.288   0.380   4.319
57223W        W16726  37.953  42.852  13.064
57224W        W16727  34.538  27.169  10.988
57225W        W16728  25.573  26.126   1.740
57226W        W16729  36.492   3.754   3.674
57227W        W16730  44.326  41.916   5.083
57228W        W16731  21.627  23.214   4.751
57229W        W16732  39.541  44.973   4.230
57230W        W16733  42.797  25.189   0.398
57231W        W16734  27.006   8.365   4.288
57232W        W16735  44.777  34.916  10.496
57233W        W16736  13.679  32.103   0.477
57234W        W16737  41.534  20.145  14.478
57235W        W16738  19.280  28.504   3.814
57236W        W16739   5.400  18.072   3.328
57237W        W16740   5.296  31.116   0.403
57238W        W16741  26.658  23.536   1.430
57239W        W16742   6.709  17.594   1.406
57240W        W16743  37.474  44.373   0.454
57241W        W16744  11.264  40.540   3.324
57242W        W16745  16.236   7.862  13.978
57243W        W16746   5.356  14.332   3.768
57244W        W16747  33.492   9.218  11.973
57245W        W16748   3.785  25.680  13.030
57246W        W16749  10.757  40.820  12.411
57247W        W16750  36.360  13.724   3.312
57248W        W16751  35.011  34.012   2.272
57249W        W16752  41.477  29.484  14.510
57250W        W16753  25.539  38.452  14.021
57251W        W16754  11.213  38.351  10.513
57252W        W16755  41.329  34.955  12.894
57253W        W16756  36.961  35.866   1.216
57254W        W16757  30.473  32.104   0.790
57255W        W16758  36.089  40.050  11.088
57256W        W16759  43.973  29.929   1.871
57257W        W16760   8.183  29.519   1.438
57258W        W16761  12.235   4.741   3.265
57259W        W16762  35.033  25.636  13.987
57260W        W16763   4.244  31.944   4.270
57261W        W16764   1.735  28.182   1.416
57262W        W16765  15.274  27.090  13.856
57263W        W16766   1.481   1.780   1.337
57264W        W16767   0.838  11.696  13.017
57265W        W16768  10.171  17.787  12.441
57266W        W16769  11.365   6.721  13.804
57267W        W16770  24.223  30.630   3.805
57268W        W16771  39.363  16.136   4.814
57269W        W16772  11.700  30.557   3.642
57270W        W16773  42.422   1.830   2.212
57271W        W16774  40.018  28.170   3.655
57272W        W16775  43.296  34.538   4.835
57273W        W16776  24.036   3.419  13.340
57274W        W16777  43.450  12.611  14.861
57275W        W16778  27.958  14.196  11.426
57276W        W16779  32.524  17.583  12.090
57277W        W16780   1.873   6.336  14.488
57278W        W16781   3.255   6.726  13.049
57279W        W16782  24.082   9.776  12.894
57280W        W16783  34.921  41.984  14.881
57281W        W16784   1.970  20.221   1.326
57282W        W16785  40.397  28.506   3.768
57283W        W16786   9.683  43.454   3.742
57284W        W16787  35.020  35.074   3.836
57285W        W16788  39.903   2.862   1.906
57286W        W16789  41.807  23.680   1.924
57287W        W16790  39.932  13.809   3.159
57288W        W16791  10.738   0.831   1.273
57289W        W16792  17.662  25.685  14.511
57290W        W16793  32.014   4.926  13.928
57291W        W16794  16.101  36.421   0.276
57292W        W16795   8.888  14.672  12.863
57293W        W16796  24.573  24.120  13.010
57294W        W16797  24.497  16.752   3.680
57295W        W16798   9.849  11.160   0.820
57296W        W16799  17.608  16.662  11.558
57297W        W16800  28.485  29.968  10.578
57298W        W16801  32.957  11.850  12.400
57299W        W16802  14.787  26.154   2.859
57300W        W16803   5.760  41.803  10.567
57301W        W16804  35.463  38.982  12.358
57302W        W16805  34.863  14.603  13.997
57303W        W16806  18.294  27.636  14.458
57304W        W16807  23.013  20.061   3.195
57305W        W16808   6.882   2.366   3.678
57306W        W16809  16.779   2.892   0.390
57307W        W16810  37.877  21.065   2.891
57308W        W16811  29.611  16.109   2.688
57309W        W16812  26.132   1.456   3.846
57310W        W16813  34.941  21.751  13.343
57311W        W16814  28.953  24.140   0.273
57312W        W16815   3.820   7.354   2.825
57313W        W16816  43.783  32.038   2.320
57314W        W16817  13.719  33.925  12.855
57315W        W16818  13.640  14.612  13.491
57316W        W16819  39.342  39.497   0.390
57317W        W16820  37.413  30.148   1.827
57318W        W16821  18.647  20.628  11.081
57319W        W16822   4.347  39.495  11.036
57320W        W16823  30.572  10.793  14.862
57321W        W16824  15.253  40.850  11.016
57322W        W16825  27.502  32.990   1.844
57323W        W16826  20.237   8.834  13.969
57324W        W16827  26.042  36.455   0.746
57325W        W16828  23.691  20.085  11.859
57326W        W16829  15.587  26.619  14.442
57327W        W16830   3.735  41.851  12.902
57328W        W16831  22.144   5.742   1.431
57329W        W16832  44.488   4.423   1.719
57330W        W16833  14.274  23.532   4.334
57331W        W16834  10.786   7.910   0.804
57332W        W16835   7.196  37.054  13.336
57333W        W16836   3.425  35.908   2.859
57334W        W16837  31.995   4.258   3.713
57335W        W16838  27.142  44.502  13.830
57336W        W16839  13.661  10.266   4.266
57337W        W16840  34.007  27.978   0.862
57338W        W16841  43.506  17.699   9.637
57339W        W16842  22.629  11.297   3.324
57340W        W16843  13.331  25.478  13.346
57341W        W16844   4.424  32.076  10.476
57342W        W16845  23.552   4.830   1.895
57343W        W16846  10.381  17.684   1.278
57344W        W16847  21.559  19.192  10.491
57345W        W16848  38.076  13.253   2.883
57346W        W16849   5.689  35.561   3.864
57347W        W16850   4.205  15.313  11.438
57348W        W16851   9.308  16.615  11.956
57349W        W16852  39.371  36.023   1.310
57350W        W16853  21.691   6.319  14.305
57351W        W16854   1.388  26.180   0.434
57352W        W16855  33.412  28.606  14.918
57353W        W16856  35.498   4.234  13.326
57354W        W16857  30.022   9.374   2.418
57355W        W16858  28.932  30.921   4.622
57356W        W16859  36.969  23.643   0.744
57357W        W16860   7.305   6.287   1.438
57358W        W16861  18.653  33.097   0.828
57359W        W16862  32.442  25.158   3.642
57360W        W16863   9.765  34.371  14.781
57361W        W16864  21.093  23.991  12.439
57362W        W16865  19.072  39.918   3.760
57363W        W16866  43.282   0.792  11.524
57364W        W16867  37.855   5.858   3.315
57365W        W16868  29.974  11.860   3.853
57366W        W16869  21.228  22.513  14.371
57367W        W16870   8.187   5.431   2.876
57368W        W16871   2.360   5.348  13.885
57369W        W16872  43.288  31.991  14.960
57370W        W16873  19.133  11.866  11.991
57371W        W16874  43.476  27.682   2.387
57372W        W16875  34.976  23.195  12.009
57373W        W16876   8.164  29.623   3.278
57374W        W16877  11.754  13.775  11.570
57375W        W16878  41.990  22.687  12.446
57376W        W16879   8.174   0.785  14.365
57377W        W16880  13.297  41.949  11.946
57378W        W16881  24.196  31.114   4.263
57379W        W16882  42.365  32.501  10.485
57380W        W16883  24.494  29.009   2.298
57381W        W16884  39.967   9.337   0.793
57382W        W16885  27.989   0.278   0.344
57383W        W16886  23.116  43.859  11.997
57384W        W16887  27.555  16.298  10.595
57385W        W16888  37.574   3.346   3.218
57386W        W16889  11.861  11.740  13.886
57387W        W16890  33.421   5.283  14.423
57388W        W16891   5.345  38.033  11.981
57389W        W16892  16.793   6.891   3.280
57390W        W16893   0.335  15.191   1.858
57391W        W16894  37.029  12.339   4.600
57392W        W16895   0.777  28.528  12.553
57393W        W16896  37.878  10.794  10.604
57394W        W16897  12.664  28.993  12.060
57395W        W16898   4.847  32.467   3.291
57396W        W16899  33.100  34.046   0.886
57397W        W16900  32.960   2.939   3.264
57398W        W16901  15.091  15.240   4.724
57399W        W16902  33.406  21.692  14.483
57400W        W16903   0.841  23.178  14.885
57401W        W16904   8.216  10.297   2.248
57402W        W16905   9.316  20.082  14.861
57403W        W16906  18.678  15.659  13.987
57404W        W16907  44.936   2.353   2.313
57405W        W16908  33.440   3.907  12.980
57406W        W16909  21.658  27.561   2.772
57407W        W16910  41.312   1.242   1.299
57408W        W16911  44.854   1.886  12.856
57409W        W16912   4.700   4.439   2.299
57410W        W16913   4.325  32.474   3.232
57411W        W16914  41.882  37.581   2.888
57412W        W16915  38.022  30.970  11.490
57413W        W16916   0.779  13.705   2.760
57414W        W16917  33.938  29.659  12.083
57415W        W16918  28.660   1.945  14.295
57416W        W16919  29.093  33.970   2.249
57417W        W16920   8.787  22.638   4.728
57418W        W16921  34.069  22.088   1.827
57419W        W16922  18.654   9.863  14.931
57420W        W16923   8.772  27.058   3.672
57421W        W16924   4.740  11.263   0.249
57422W        W16925   9.849  34.011  10.590
57423W        W16926   1.369   6.807   2.882
57424W        W16927  39.030  26.094   3.330
57425W        W16928   4.764  44.402  11.426
57426W        W16929   2.749  33.588   1.721
57427W        W16930   7.857  12.779  12.517
57428W        W16931   4.889   9.342   1.304
57429W        W16932   7.681  41.395  11.896
57430W        W16933  10.256  38.964  10.605
57431W        W16934  40.843   4.917  14.955
57432W        W16935   4.888   1.960  11.429
57433W        W16936  38.990  12.675   0.915
57434W        W16937  31.580   2.945  11.397
57435W        W16938  34.020  40.439   0.960
57436W        W16939  17.180  21.565   3.712
57437W        W16940   1.348  20.077   5.685
57438W        W16941   7.174   7.806  13.520
57439W        W16942  14.769   9.697  11.038
57440W        W16943   2.730   0.406   4.598
57441W        W16944  27.484  20.077   2.407
57442W        W16945  34.463   4.234   1.866
57443W        W16946   4.940  32.898   0.290
57444W        W16947  11.359  40.546   4.276
57445W        W16948  35.017  23.184  12.523
57446W        W16949  18.110   0.329  11.026
57447W        W16950  34.971  15.690  12.531
57448W        W16951  28.586  33.561   4.790
57449W        W16952   0.489   4.301  12.920
57450W        W16953  37.876  39.845   3.387
57451W        W16954  35.956   8.729   2.764
57452W        W16955  21.592  24.518   4.781
57453W        W16956  12.626  29.998   2.826
57454W        W16957  22.185  28.138   4.640
57455W        W16958  33.962  25.674  14.999
57456W        W16959  17.680  12.694   4.679
57457W        W16960  19.209  40.425  10.412
57458W        W16961  18.762  24.571  10.540
57459W        W16962  35.394   3.759  12.405
57460W        W16963  39.367  24.656  10.640
57461W        W16964   6.294  42.474  13.935
57462W        W16965  36.991  37.018  13.333
57463W        W16966   8.261  36.561   0.248
57464W        W16967  31.050  10.210   1.759
57465W        W16968  26.622   2.951  11.423
57466W        W16969  11.850   9.751  11.524
57467W        W16970  32.890  11.729   0.291
57468W        W16971  36.032   2.253   2.682
57469W        W16972   3.431   6.785   4.330
57470W        W16973   8.820   7.265  10.975
57471W        W16974   2.470  20.742  12.824
57472W        W16975   9.162  36.436   2.335
57473W        W16976  39.024  26.953  14.837
57474W        W16977  35.915  17.268  12.441
57475W        W16978   3.774  11.210   1.766
57476W        W16979   2.782  13.689  12.055
57477W        W16980  29.598  33.056   3.327
57478W        W16981   0.948   1.298   2.877
57479W        W16982  11.347  29.967   3.267
57480W        W16983  29.081  31.417   2.778
57481W        W16984  15.758  36.534  12.425
57482W        W16985  10.662  25.975  10.472
57483W        W16986   0.838   5.358   1.329
57484W        W16987  29.570  23.236  10.964
57485W        W16988   5.706  39.458   0.271
57486W        W16989  44.485   3.275   0.465
57487W        W16990  28.027   3.725   2.356
57488W        W16991  28.461  35.035  11.451
57489W        W16992  20.074  44.969  13.469
57490W        W16993   0.415   8.400   4.805
57491W        W16994   6.760  11.204   1.279
57492W        W16995   1.304  29.945  10.469
57493W        W16996  16.280  30.041  11.881
57494W        W16997  11.323  29.921  12.445
57495W        W16998   3.219   9.281   3.362
57496W        W16999  33.483   1.743  12.436
57497W        W17000  28.094  13.301   5.165
57498W        W17001  20.166  43.956  13.949
57499W        W17002  22.699  28.000   1.734
57500W        W17003  42.797  27.998   0.464
57501W        W17004  24.101  12.795   4.351
57502W        W17005  31.448  43.384   1.875
57503W        W17006  20.074  20.133   4.269
57504W        W17007  36.931   9.167   5.094
57505W        W17008  18.224   0.783   3.211
57506W        W17009  12.339  31.512  10.146
57507W        W17010  18.764  27.557  13.378
57508W        W17011  27.454   2.461   4.150
57509W        W17012  19.564   5.792  12.024
57510W        W17013  41.307   2.293  12.929
57511W        W17014  32.056   0.298  12.568
57512W        W17015  44.816  21.034   2.793
57513W        W17016  23.106  38.824  11.421
57514W        W17017  42.329  30.437   0.921
57515W        W17018  26.022  37.530   2.412
57516W        W17019   9.348  30.977   1.694
57517W        W17020  38.864   2.359  11.420
57518W        W17021  43.498  40.905   0.434
57519W        W17022  23.023  44.792  10.052
57520W        W17023  36.466   7.332   1.447
57521W        W17024   0.346  30.996   2.233
57522W        W17025  10.275  42.976  10.118
57523W        W17026  16.631  15.234  11.019
57524W        W17027  33.577  20.595  14.356
57525W        W17028  15.328  20.202   3.772
57526W        W17029  10.273  25.604   4.771
57527W        W17030  27.152  25.662  12.546
57528W        W17031  31.574  37.339   1.850
57529W        W17032  44.437   5.257  11.992
57530W        W17033   8.669  21.665   2.260
57531W        W17034  41.827  21.125   4.174
57532W        W17035  35.461  33.435  10.952
57533W        W17036  34.070  39.847  11.552
57534W        W17037   4.345  21.019   4.643
57535W        W17038  29.580  40.975  13.817
57536W        W17039   8.171  44.345   3.707
57537W        W17040  38.560  40.492  11.592
57538W        W17041  16.099  26.516   1.828
57539W        W17042  35.372   7.770   0.813
57540W        W17043  10.763  43.912   0.397
57541W        W17044  23.672  14.103   2.729
57542W        W17045  40.956  16.685  14.377
57543W        W17046   5.433  15.228   1.272
57544W        W17047   0.829  36.090   2.804
57545W        W17048   4.735   8.817  13.970
57546W        W17049   9.227  39.340   4.181
57547W        W17050  38.445  16.710  13.951
57548W        W17051  37.392   2.298  12.011
57549W        W17052  28.068   3.952  14.476
57550W        W17053  23.095  34.932   1.254
57551W        W17054   8.811  39.476   0.789
57552W        W17055  14.699  15.649  10.957
57553W        W17056   0.749   4.316   4.121
57554W        W17057  41.506  25.682  10.461
57555W        W17058  31.019  26.189  14.342
57556W        W17059  28.084  15.692   4.629
57557W        W17060  36.875   3.856  11.075
57558W        W17061  18.718  32.438  11.885
57559W        W17062  10.212  42.874   2.903
57560W        W17063  25.173  17.280  11.551
57561W        W17064  26.525   4.710   3.774
57562W        W17065  41.848  15.661  11.390
57563W        W17066  37.376  21.721   4.217
57564W        W17067  18.661  17.590   1.905
57565W        W17068  16.314   3.433  13.330
57566W        W17069   8.269  14.332  13.947
57567W        W17070  19.248  32.390  10.620
57568W        W17071  38.461  35.363   2.840
57569W        W17072  37.864   2.432   3.737
57570W        W17073   9.287  13.307   1.329
57571W        W17074  35.412  38.947   5.283
57572W        W17075  17.305  31.931  13.055
57573W        W17076  24.584  14.317   2.881
57574W        W17077  40.007  34.576   4.350
57575W        W17078  18.275  43.994   2.684
57576W        W17079  19.239  18.213  14.960
57577W        W17080   4.889  12.794  10.001
57578W        W17081  25.594  19.094   1.341
57579W        W17082  44.441  23.613   0.414
57580W        W17083  33.505  18.185  12.943
57581W        W17084  41.985  44.504   5.163
57582W        W17085  25.177  10.330  10.601
57583W        W17086  27.188  18.191   1.366
57584W        W17087  25.681   8.352  14.489
57585W        W17088  43.892  11.861   3.332
57586W        W17089  42.900  23.237   2.869
57587W        W17090   4.288  30.040  10.560
57588W        W17091  30.986  19.050  11.019
57589W        W17092   2.413  13.600   3.380
57590W        W17093  16.114  36.438  11.463
57591W        W17094  19.266  16.185   2.725
57592W        W17095  38.391  37.582  11.404
57593W        W17096   8.715  23.568  13.422
57594W        W17097  20.217  26.088   0.473
57595W        W17098  18.133  26.181   3.679
57596W        W17099  18.070   3.846  14.803
57597W        W17100  39.536   3.932   0.265
57598W        W17101  44.961  10.291   3.843
57599W        W17102   7.849   0.425   0.932
57600W        W17103  35.376   4.792   3.792
57601W        W17104  15.165  15.213  12.415
57602W        W17105   0.812  34.006  10.645
57603W        W17106  13.156  34.610   0.880
57604W        W17107  29.954  20.710  14.761
57605W        W17108  40.937  36.013   3.349
57606W        W17109  19.264  30.569   3.151
57607W        W17110   6.368  17.631   1.360
57608W        W17111   2.468  19.615   0.933
57609W        W17112  36.384  10.200   4.149
57610W        W17113  44.874  33.009   0.848
57611W        W17114   5.773  40.025   3.259
57612W        W17115  26.603  44.415   0.947
57613W        W17116  34.477   2.878   4.148
57614W        W17117  30.147   5.889   4.146
57615W        W17118  31.916  37.486  13.854
57616W        W17119  31.064  12.234   2.735
57617W        W17120  37.992  19.649   1.428
57618W        W17121   2.727  34.980   0.251
57619W        W17122  23.152  28.459  12.366
57620W        W17123  36.394  19.605  10.436
57621W        W17124  35.964  29.927  10.529
57622W        W17125  43.279  38.346   0.297
57623W        W17126   5.892  26.197   2.220
57624W        W17127  44.474  24.030   3.745
57625W        W17128  18.253   5.420  12.568
57626W        W17129  32.911  13.312  12.341
57627W        W17130  13.184  28.162  11.920
57628W        W17131  31.570  32.129  13.913
57629W        W17132  40.981  16.225   1.804
57630W        W17133   1.311  11.300   4.629
57631W        W17134  41.420  14.177   2.805
57632W        W17135  28.079  42.022  14.888
57633W        W17136  19.278  35.944   4.120
57634W        W17137  40.378  15.613   0.871
57635W        W17138  40.982  37.856   1.766
57636W        W17139  28.016  38.035   4.765
57637W        W17140  36.369  17.285   3.283
57638W        W17141  29.539  38.533   3.292
57639W        W17142  24.056  28.475  10.585
57640W        W17143  22.207  36.929   4.345
57641W        W17144  19.192  19.640   2.745
57642W        W17145  22.243  30.959  12.087
57643W        W17146  14.137  23.060  10.921
57644W        W17147  12.808  18.701  12.890
57645W        W17148   3.262  40.019  12.369
57646W        W17149  12.784   5.316   3.806
57647W        W17150  18.124  11.776  13.342
57648W        W17151  41.835  29.426   0.453
57649W        W17152  23.542   7.687  13.361
57650W        W17153   6.828  33.015   0.895
57651W        W17154  31.136   5.288  11.393
57652W        W17155  34.497  34.110  13.407
57653W        W17156  21.743  11.682   3.780
57654W        W17157  28.142  36.842   1.751
57655W        W17158  20.103  40.499   4.668
57656W        W17159  28.082  33.615  11.498
57657W        W17160  35.360  20.552  11.593
57658W        W17161  15.279  30.026  12.477
57659W        W17162  31.098  33.555  10.507
57660W        W17163  24.072   2.960   3.854
57661W        W17164  17.742  42.415  13.325
57662W        W17165  11.138  22.696   3.777
57663W        W17166   0.781  24.023   1.927
57664W        W17167   1.427  38.962  11.044
57665W        W17168   6.274  11.370   1.400
57666W        W17169  28.564   8.822   5.200
57667W        W17170   9.870   7.200  14.844
57668W        W17171  10.819  19.106   2.897
57669W        W17172  33.583   4.428   3.314
57670W        W17173  29.425  20.189   4.665
57671W        W17174  32.562  22.593  12.850
57672W        W17175  30.154  10.337  13.461
57673W        W17176  37.015  25.163  13.496
57674W        W17177  20.561  34.006   4.232
57675W        W17178  34.993   4.926  11.484
57676W        W17179  42.492  15.649  13.423
57677W        W17180  38.350  26.116   1.302
57678W        W17181  36.569  21.100   0.907
57679W        W17182   4.263   3.295  13.548
57680W        W17183  35.990  29.059   0.383
57681W        W17184  40.487  16.284   0.465
57682W        W17185  23.512  22.160  10.951
57683W        W17186   6.325  33.882   4.325
57684W        W17187  24.170   7.825  11.014
57685W        W17188  18.714  18.545  14.377
57686W        W17189  28.181   0.931   2.867
57687W        W17190  18.591  38.419  12.963
57688W        W17191   4.833  27.067   4.660
57689W        W17192   0.889   6.791  13.425
57690W        W17193  23.620   7.694   1.879
57691W        W17194  15.667  18.748   2.401
57692W        W17195  39.829  16.232   0.750
57693W        W17196  44.837  14.652   2.806
57694W        W17197   4.926   6.833   1.890
57695W        W17198   4.267   3.384  12.378
57696W        W17199  41.532  23.160  14.896
57697W        W17200   1.410   7.281   4.246
57698W        W17201  11.312   2.873  12.969
57699W        W17202  13.126  24.168  14.308
57700W        W17203   8.383  12.254  12.384
57701W        W17204   5.872  29.959   2.284
57702W        W17205  24.110  29.534   1.346
57703W        W17206  31.638  27.063  12.402
57704W        W17207  23.218  38.326   4.346
57705W        W17208  28.522  27.614  13.990
57706W        W17209  34.086  42.330  13.458
57707W        W17210  22.149   5.389   1.375
57708W        W17211  36.027   9.839   1.260
57709W        W17212   4.779   3.430  11.374
57710W        W17213   8.197  25.023  13.359
57711W        W17214  31.013  31.456  11.565
57712W        W17215  39.518  15.214  12.076
57713W        W17216  10.786  21.521  14.002
57714W        W17217   4.307  33.521  13.917
57715W        W17218  24.486   5.249   3.666
57716W        W17219  36.004  19.628  14.437
57717W        W17220  35.911   7.416   4.303
57718W        W17221  22.511  23.507  11.435
57719W        W17222   6.906  13.751   3.354
57720W        W17223  30.601  23.504  14.495
57721W        W17224   2.824   0.439   5.212
57722W        W17225  34.573  14.666   5.284
57723W        W17226   8.314   3.710  12.370
57724W        W17227  22.149  13.131   3.367
57725W        W17228   7.840  24.514  11.024
57726W        W17229  39.318  28.509   4.810
57727W        W17230  28.048   4.744   2.852
57728W        W17231  35.036  26.169  11.127
57729W        W17232  23.521  16.158  13.380
57730W        W17233   2.721  14.726  14.329
57731W        W17234  15.585  40.436   1.774
57732W        W17235   4.845   7.746  10.432
57733W        W17236  31.970  16.216   5.276
57734W        W17237  36.892  13.113   1.830
57735W        W17238  14.645  23.499  13.531
57736W        W17239  24.061  31.063   2.219
57737W        W17240  43.402  10.204   4.185
57738W        W17241  24.660  17.296   3.816
57739W        W17242  13.258  12.214  11.436
57740W        W17243  36.880  37.886   1.288
57741W        W17244  14.660   2.841   4.644
57742W        W17245   5.894  12.751   5.190
57743W        W17246   8.725  30.611   0.407
57744W        W17247   0.969  15.112  10.977
57745W        W17248  10.636  13.623   4.784
57746W        W17249  13.823  27.506  12.476
57747W        W17250  30.967  42.318  12.071
57748W        W17251  18.158  40.829   3.847
57749W        W17252   9.250  26.191  12.486
57750W        W17253  31.149  42.894   2.234
57751W        W17254  10.373  32.536   0.359
57752W        W17255  40.870  29.068  10.488
57753W        W17256  37.963  42.424   4.173
57754W        W17257  34.863  21.687  10.980
57755W        W17258  20.585  23.736  11.479
57756W        W17259  12.296   0.893  14.992
57757W        W17260   2.926  12.717   4.656
57758W        W17261   3.920  32.563   3.681
57759W        W17262  43.875  14.681   1.253
57760W        W17263  19.238   8.340   0.927
57761W        W17264  41.876  21.511  10.960
57762W        W17265  35.524  17.670  11.493
57763W        W17266  35.564   8.807  14.945
57764W        W17267   6.248   5.852  13.025
57765W        W17268  30.613  43.821   1.424
57766W        W17269   9.728  43.460  11.909
57767W        W17270  40.445  11.372   1.719
57768W        W17271  14.183  42.525  11.021
57769W        W17272   8.777  29.503  11.544
57770W        W17273   1.309  16.170   0.790
57771W        W17274  11.250   6.254  12.969
57772W        W17275  41.815  37.081   2.291
57773W        W17276  23.599  35.031  11.100
57774W        W17277  23.116  19.750   2.323
57775W        W17278  30.569  12.665  14.384
57776W        W17279  39.477  44.896  11.862
57777W        W17280   5.273   6.842  14.450
57778W        W17281   1.478  21.137   1.241
57779W        W17282  37.863  20.638  14.890
57780W        W17283  35.543  22.071  14.453
57781W        W17284  39.956  28.645   3.855
57782W        W17285   6.754  41.358  11.936
57783W        W17286  23.126  11.246  11.451
57784W        W17287   8.876  29.125  12.345
57785W        W17288   0.360  16.116   3.194
57786W        W17289   2.733   1.926  11.902
57787W        W17290  44.484  41.795  12.874
57788W        W17291  23.673   5.268   0.474
57789W        W17292  36.480  11.255   2.183
57790W        W17293  22.674  43.434  13.469
57791W        W17294  28.625  10.362   3.212
57792W        W17295   2.426  14.661  10.440
57793W        W17296  44.773   0.359  14.967
57794W        W17297  12.666   6.389   0.432
57795W        W17298  14.341  41.403  11.480
57796W        W17299  37.868  14.615  14.413
57797W        W17300  33.030   7.720  13.434
57798W        W17301  12.279  38.343  11.507
57799W        W17302   1.773  30.009  14.782
57800W        W17303   7.905   3.298  13.357
57801W        W17304   0.407  18.227  13.966
57802W        W17305  36.376  31.488   0.324
57803W        W17306   9.383  41.488  12.990
57804W        W17307  30.626  42.784   3.781
57805W        W17308  31.411  39.441  12.566
57806W        W17309  20.526  36.475   4.339
57807W        W17310  17.102  28.450  13.992
57808W        W17311  34.544  18.192   0.743
57809W        W17312  27.997   4.397  12.525
57810W        W17313  28.486   0.841  11.125
57811W        W17314  30.044  34.121   4.184
57812W        W17315  16.809  22.693   0.359
57813W        W17316  22.113   9.246  11.973
57814W        W17317   0.298  23.550  13.351
57815W        W17318  42.412  35.972   2.768
57816W        W17319   9.174  24.040  12.432
57817W        W17320  38.344   8.381  13.475
57818W        W17321  42.525  21.522  11.444
57819W        W17322  39.494  15.105   2.195
57820W        W17323  41.858   3.894  14.307
57821W        W17324  36.991  27.191   3.173
57822W        W17325  21.043   8.387  14.806
57823W        W17326  44.804   6.267  10.639
57824W        W17327  17.181  36.865   2.303
57825W        W17328   1.466  37.480   2.691
57826W        W17329  40.834   6.754  10.093
57827W        W17330  15.302  30.508  14.490
57828W        W17331  11.764   7.252  13.498
57829W        W17332  38.470  34.374  10.917
57830W        W17333  34.511  25.492   4.722
57831W        W17334  27.970  11.763   0.857
57832W        W17335   6.393   6.901  14.317
57833W        W17336   2.285  26.041  12.997
57834W        W17337  17.557  14.762  13.850
57835W        W17338  10.180  43.860   4.774
57836W        W17339   6.401  40.308   1.365
57837W        W17340  40.511  35.053   1.830
57838W        W17341  38.897  12.330  10.989
57839W        W17342  36.852  29.464   0.378
57840W        W17343  28.039  22.605   3.300
57841W        W17344  15.580  37.442  12.861
57842W        W17345   4.727  22.151  13.906
57843W        W17346  25.685  24.021  10.925
57844W        W17347  38.043   3.242   4.638
57845W        W17348  10.140  42.017  14.939
57846W        W17349  28.980  36.500  14.853
57847W        W17350  24.050  24.611   0.334
57848W        W17351  16.250  18.160  13.327
57849W        W17352  20.048   8.328  13.940
57850W        W17353  24.129   0.430   4.679
57851W        W17354   1.436  40.939   3.638
57852W        W17355   7.838   8.225  12.580
57853W        W17356  24.201  43.393  14.014
57854W        W17357  41.881  26.539  12.461
57855W        W17358   0.869  39.537  12.346
57856W        W17359  35.091  40.864   0.962
57857W        W17360   1.303  37.496  12.349
57858W        W17361  23.061   6.393  14.354
57859W        W17362   1.806  29.925  10.077
57860W        W17363  18.208  37.962  10.454
57861W        W17364  40.800  34.057   0.326
57862W        W17365  22.062   5.824   4.209
57863W        W17366  15.084  40.532  12.480
57864W        W17367   8.281  24.170  12.858
57865W        W17368  20.048  24.641   3.839
57866W        W17369  24.708  35.874   1.797
57867W        W17370  42.514  19.742   3.205
57868W        W17371   0.904  21.051  10.591
57869W        W17372  11.328   7.674  14.344
57870W        W17373  42.800   4.357   2.404
57871W        W17374  35.401  32.982   3.385
57872W        W17375  11.241   5.371   4.182
57873W        W17376   5.406  43.939   0.930
57874W        W17377  17.580  15.711   4.751
57875W        W17378  36.578  19.612   9.969
57876W        W17379  20.557  21.171   0.329
57877W        W17380   9.299  15.616  10.151
57878W        W17381  37.896  35.986  12.019
57879W        W17382  13.720  33.472   0.948
57880W        W17383  41.334   0.433   2.209
57881W        W17384  36.907   5.343   4.120
57882W        W17385  10.757  19.759  10.474
57883W        W17386   1.264  15.619  14.322
57884W        W17387  18.108  40.376  10.569
57885W        W17388  23.499  42.005  13.030
57886W        W17389  15.678  43.914   9.999
57887W        W17390   8.225  30.575  13.839
57888W        W17391  24.520  38.891  14.968
57889W        W17392  36.860  32.015   3.659
57890W        W17393   1.868   3.873   0.836
57891W        W17394  26.520  20.741   2.760
57892W        W17395   6.248  41.498  13.794
57893W        W17396  41.529   4.436  14.889
57894W        W17397  14.162  30.165  11.003
57895W        W17398  38.024   9.197   0.454
57896W        W17399  13.626   0.446   3.708
57897W        W17400  33.453  14.220  13.540
57898W        W17401   6.401   5.332   4.346
57899W        W17402  36.436   7.386  13.470
57900W        W17403  40.312  28.657  11.452
57901W        W17404   3.301  37.490   4.603
57902W        W17405  18.285  35.980  12.017
57903W        W17406   5.818  17.294  11.893
57904W        W17407   2.287  23.026   4.747
57905W        W17408   0.459  22.055   5.655
57906W        W17409   5.757  36.905  14.866
57907W        W17410  42.887  11.242  10.491
57908W        W17411  35.993  13.794   2.211
57909W        W17412  26.699  41.805   3.320
57910W        W17413  30.909   7.348  10.009
57911W        W17414  22.069   9.854   2.827
57912W        W17415  12.726  15.823   2.284
57913W        W17416  13.333  39.511   3.258
57914W        W17417  10.719   9.384  11.881
57915W        W17418  33.046  31.559  12.556
57916W        W17419  33.527  17.562  10.010
57917W        W17420  20.078  36.561  12.949
57918W        W17421   6.417  18.092  12.465
57919W        W17422  27.952  31.986  14.448
57920W        W17423   9.878  30.907   2.861
57921W        W17424   6.427  37.842  12.548
57922W        W17425  21.600   4.833  10.536
57923W        W17426  15.678  10.633   3.831
57924W        W17427  18.615   8.719  13.033
57925W        W17428  39.439  24.197   1.896
57926W        W17429  23.573  35.480  13.364
57927W        W17430  42.522  17.131   0.353
57928W        W17431  14.208  32.606  12.031
57929W        W17432   1.431   7.173  13.447
57930W        W17433   5.347   8.375   1.719
57931W        W17434  35.949  39.992   2.687
57932W        W17435  36.438  25.079   3.681
57933W        W17436  16.275  26.127   3.839
57934W        W17437  43.964  18.133  11.493
57935W        W17438  33.113  33.415  10.621
57936W        W17439   7.907   1.238   2.727
57937W        W17440  40.478   1.311   4.305
57938W        W17441   5.197  35.942  14.508
57939W        W17442  24.635  35.466  11.488
57940W        W17443   1.757  37.978   0.789
57941W        W17444  35.400  35.106  11.962
57942W        W17445  44.769  18.732  13.818
57943W        W17446  24.101  30.979   3.818
57944W        W17447  22.651  18.199  10.934
57945W        W17448  19.063  44.493  14.357
57946W        W17449  25.182  29.538   3.751
57947W        W17450  32.466   6.678   3.839
57948W        W17451  16.697   4.789   2.281
57949W        W17452  30.921  40.007  13.487
57950W        W17453  27.970  32.397  10.516
57951W        W17454   6.726  34.394  14.288
57952W        W17455  17.188  26.055   1.447
57953W        W17456  14.261   8.335  13.524
57954W        W17457  34.948  25.544   2.818
57955W        W17458  10.643   3.828  13.985
57956W        W17459   2.870  21.129   1.782
57957W        W17460  10.638  36.357  12.502
57958W        W17461  26.162  29.473   0.924
57959W        W17462  30.528  10.800  10.625
57960W        W17463  42.822   7.906  10.559
57961W        W17464  17.065  25.117  13.487
57962W        W17465  10.139  34.940   4.353
57963W        W17466  19.244  34.987  12.371
57964W        W17467  18.574  25.485  12.420
57965W        W17468  35.109   8.832  12.834
57966W        W17469   1.262  25.200  10.411
57967W        W17470  36.952  33.617  14.391
57968W        W17471  43.491   0.885   3.163
57969W        W17472   9.355  31.626   4.611
57970W        W17473  38.068  30.127   3.764
57971W        W17474  39.343  37.493   4.258
57972W        W17475   6.280   1.802  10.076
57973W        W17476  21.109  23.108  12.909
57974W        W17477  40.863  14.144   0.838
57975W        W17478  44.862  43.373   3.660
57976W        W17479  11.690   0.348  11.450
57977W        W17480   7.289  19.744  14.985
57978W        W17481  28.607   2.365  14.307
57979W        W17482   9.334   9.653   1.223
57980W        W17483  28.091  16.189  13.307
57981W        W17484  16.714  43.494   3.170
57982W        W17485  40.396  39.456  11.002
57983W        W17486  15.214  16.691   3.807
57984W        W17487  34.604  20.759  14.296
57985W        W17488  43.885  20.643  13.982
57986W        W17489   9.298  24.525   2.667
57987W        W17490   4.252  16.216   1.252
57988W        W17491   1.867   6.194   2.238
57989W        W17492   9.740  33.522   5.319
57990W        W17493  44.411   7.225   5.311
57991W        W17494   8.210  27.042  12.096
57992W        W17495  24.009   7.849   1.225
57993W        W17496  25.646  13.769  10.614
57994W        W17497  44.840   9.189  10.641
57995W        W17498  15.251  28.969   4.118
57996W        W17499  43.957  30.509   3.694
57997W        W17500  34.564  28.962   4.693
57998W        W17501  40.391   2.264  11.584
57999W        W17502  42.468  33.469   3.265
58000W        W17503   5.257  42.828  10.066
58001W        W17504  12.822  43.778   2.417
58002W        W17505  18.717  24.001  14.792
58003W        W17506  19.076   8.375   3.183
58004W        W17507  41.025  12.171   2.185
58005W        W17508  10.222  31.406   1.723
58006W        W17509  37.465  27.145   3.296
58007W        W17510   6.767  39.918   1.444
58008W        W17511  10.706   0.260   3.351
58009W        W17512  10.761  41.337  14.818
58010W        W17513  13.753  44.010   0.753
58011W        W17514   3.261  22.507  14.374
58012W        W17515  21.714   4.419  14.901
58013W        W17516  17.081  33.442   9.957
58014W        W17517  41.896  44.972   2.784
58015W        W17518  14.107  30.118   0.328
58016W        W17519   0.887   5.290   1.741
58017W        W17520  12.151  44.927  12.549
58018W        W17521  37.388  42.854  14.429
58019W        W17522  38.872  35.574  12.459
58020W        W17523  30.525  31.610  10.129
58021W        W17524  28.590  20.199   3.296
58022W        W17525   5.816   2.324  11.890
58023W        W17526  30.156  38.418   0.260
58024W        W17527  39.328  24.500  12.557
58025W        W17528  13.753   8.344   1.362
58026W        W17529  16.733  10.258   0.266
58027W        W17530  25.538   1.376  13.354
58028W        W17531  38.374  30.453   2.350
58029W        W17532  37.412   8.313  11.386
58030W        W17533   9.228  19.710  11.543
58031W        W17534  30.580  44.835  13.360
58032W        W17535  31.636  43.006   0.316
58033W        W17536  33.919  26.105  12.017
58034W        W17537   4.329  44.319  10.934
58035W        W17538  14.833  43.888  10.404
58036W        W17539  13.707  34.060   0.846
58037W        W17540   6.397  27.570  13.942
58038W        W17541  20.233  24.998   3.657
58039W        W17542  17.614  15.120  14.443
58040W        W17543  42.362  15.809  11.117
58041W        W17544  10.352  27.519  14.434
58042W        W17545  29.072  21.039   0.332
58043W        W17546   5.371  11.353   1.349
58044W        W17547  34.381   9.281   0.425
58045W        W17548  44.948  38.507   3.345
58046W        W17549  42.912   1.354  10.970
58047W        W17550   6.797  24.009  10.969
58048W        W17551  26.499  41.373  12.355
58049W        W17552  17.779  24.519  13.816
58050W        W17553  17.126  36.973  10.544
58051W        W17554  16.142  43.844   2.797
58052W        W17555  30.628  21.019   4.141
58053W        W17556   1.842  37.072   4.281
58054W        W17557  12.252  42.896  14.815
58055W        W17558  26.108   9.794   3.219
58056W        W17559  35.014  27.170   2.783
58057W        W17560  24.525  32.394   4.191
58058W        W17561  22.629   2.254   4.651
58059W        W17562  21.259  41.314  13.308
58060W        W17563  44.262  37.067  14.776
58061W        W17564  41.864  24.224  13.985
58062W        W17565  18.734  11.770  13.920
58063W        W17566  41.899   2.746   3.649
58064W        W17567  39.426  26.549  13.001
58065W        W17568   9.644  21.168   3.742
58066W        W17569  19.702   3.854  10.971
58067W        W17570  23.696  38.941  12.389
58068W        W17571  17.560  14.245   1.746
58069W        W17572  11.780  33.458   3.182
58070W        W17573  42.962  34.978   5.297
58071W        W17574  37.079   0.387  13.493
58072W        W17575  26.618   0.978   0.321
58073W        W17576  33.076   4.448  14.399
58074W        W17577  16.247  14.779   4.244
58075W        W17578  17.162   4.833  14.853
58076W        W17579  17.213  37.576  11.446
58077W        W17580  30.135  15.278   3.705
58078W        W17581  33.421  33.016   3.194
58079W        W17582  40.391  42.413  14.012
58080W        W17583  12.181  24.648  13.922
58081W        W17584  22.643  11.808   0.255
58082W        W17585  19.274   8.313   2.717
58083W        W17586   5.250  15.288   1.866
58084W        W17587  26.545  35.586   3.844
58085W        W17588  20.633   2.767   2.223
58086W        W17589  41.832  15.662   0.465
58087W        W17590  25.006  35.894  14.411
58088W        W17591   6.188  20.245   4.617
58089W        W17592  21.115   8.890   4.733
58090W        W17593   7.366   4.416   2.235
58091W        W17594  19.102   6.302   4.686
58092W        W17595  28.586  13.188   1.877
58093W        W17596  42.459  14.301   2.268
58094W        W17597  15.137  26.165  13.836
58095W        W17598  43.481  10.833  11.465
58096W        W17599  16.577  20.274  13.464
58097W        W17600  12.179  38.852  12.823
58098W        W17601  40.507  13.772   0.452
58099W        W17602  13.786  37.931  12.493
58100W        W17603   7.855  22.181   4.293
58101W        W17604   5.431  20.090  14.411
58102W        W17605  24.159  16.230   2.902
58103W        W17606  39.335  35.854  14.023
58104W        W17607  29.071  32.561  12.462
58105W        W17608  20.068   6.341   0.785
58106W        W17609  18.179  10.773   1.401
58107W        W17610   4.305   2.340   4.784
58108W        W17611  13.191  16.697  12.568
58109W        W17612   8.664  20.621  12.447
58110W        W17613   0.968  18.550   1.704
58111W        W17614  24.614  22.210   4.211
58112W        W17615  40.540  13.210  12.554
58113W        W17616  10.218  10.365  11.948
58114W        W17617  40.382   8.898   3.733
58115W        W17618   1.844   9.735  13.887
58116W        W17619  16.586   4.331   3.167
58117W        W17620  32.485  16.629  12.831
58118W        W17621  17.611  15.730   3.273
58119W        W17622  22.536  31.926  13.951
58120W        W17623  33.522  39.000   2.833
58121W        W17624  33.913  19.673   1.864
58122W        W17625   8.665  12.253   4.744
58123W        W17626  38.408   9.349   0.912
58124W        W17627   0.899   9.682   1.423
58125W        W17628  41.029  12.190  12.476
58126W        W17629  17.631  14.734   0.917
58127W        W17630  42.936  17.677   3.184
58128W        W17631  26.592  28.081   1.934
58129W        W17632   6.758  33.462  14.498
58130W        W17633  15.586  19.224  11.047
58131W        W17634  16.219  41.351  12.990
58132W        W17635   4.280  15.820   2.886
58133W        W17636  25.606  15.128   1.741
58134W        W17637  34.455  32.932  13.882
58135W        W17638   2.367   9.270  14.458
58136W        W17639  14.196  18.618   2.300
58137W        W17640  38.459   9.204  13.367
58138W        W17641  32.626  19.611  13.817
58139W        W17642  11.754  36.063   2.728
58140W        W17643   0.757   6.780   4.813
58141W        W17644  44.795  43.802   4.791
58142W        W17645  12.197   4.260  13.048
58143W        W17646  43.346   9.749   0.471
58144W        W17647  38.052  32.404   4.667
58145W        W17648  20.578   9.824  11.899
58146W        W17649  25.670   4.259  11.100
58147W        W17650  32.092   2.312   2.400
58148W        W17651  10.245  14.674  11.393
58149W        W17652  14.174  16.298   0.785
58150W        W17653  18.575   5.428   1.788
58151W        W17654   1.961   1.872  14.297
58152W        W17655  32.050   6.687  14.966
58153W        W17656   0.484  27.184   2.764
58154W        W17657  29.951  10.812  12.838
58155W        W17658  14.737  34.047   2.250
58156W        W17659  33.923  42.437   2.400
58157W        W17660  11.166   3.796  11.966
58158W        W17661  10.325  21.555   1.274
58159W        W17662  43.851  13.280   4.698
58160W        W17663  35.558  38.060   0.437
58161W        W17664  38.850  36.040  11.027
58162W        W17665  19.206   4.391   0.953
58163W        W17666   6.199  32.472  10.499
58164W        W17667  26.571  15.098  13.843
58165W        W17668  39.439  16.695  14.805
58166W        W17669  36.955  12.231  11.472
58167W        W17670  11.363   8.215   1.783
58168W        W17671   9.215  36.583  11.927
58169W        W17672  35.406  13.329   1.922
58170W        W17673  31.561  17.157  11.512
58171W        W17674  28.520  12.733  10.451
58172W        W17675  39.360  23.030   3.233
58173W        W17676  40.808  39.912  12.359
58174W        W17677  26.498   0.926  14.452
58175W        W17678  27.450  27.450  13.929
58176W        W17679   1.446  20.563   1.715
58177W        W17680   3.437  28.607  12.896
58178W        W17681  31.625   8.357   3.386
58179W        W17682  27.978  30.973  10.151
58180W        W17683  18.689  12.814   1.235
58181W        W17684  41.447  39.963  12.926
58182W        W17685  10.700  38.494  11.055
58183W        W17686   9.314  15.621  13.378
58184W        W17687  42.350   0.448  14.962
58185W        W17688  14.135  43.019  14.978
58186W        W17689  15.765  18.291   1.830
58187W        W17690  13.776  23.241   2.301
58188W        W17691  11.130  29.022   3.846
58189W        W17692  37.914  12.162  13.055
58190W        W17693  37.045  29.963  14.275
58191W        W17694  41.969  37.558   3.842
58192W        W17695  27.080  42.302   3.263
58193W        W17696  42.525  41.847  10.494
58194W        W17697  30.492   7.174   3.323
58195W        W17698   9.355  40.838   4.671
58196W        W17699  40.839  28.668  12.538
58197W        W17700  36.062  41.982  12.351
58198W        W17701  43.904  19.595  13.426
58199W        W17702  26.035  42.481   2.782
58200W        W17703  31.922  28.545   3.737
58201W        W17704  27.490  25.607   3.721
58202W        W17705  30.126  20.728  10.537
58203W        W17706  41.026  43.986   0.764
58204W        W17707   5.433  19.589  12.907
58205W        W17708  36.973   7.261   4.188
58206W        W17709   8.306  12.333   3.257
58207W        W17710  11.789  22.163   0.959
58208W        W17711  13.639  43.461  11.525
58209W        W17712   2.750   4.837   2.308
58210W        W17713   7.222  13.756  14.026
58211W        W17714  25.008  30.907   1.263
58212W        W17715  23.614  23.238   0.315
58213W        W17716  41.438  43.413  14.466
58214W        W17717  43.908  13.228  14.505
58215W        W17718  11.789  28.580   0.756
58216W        W17719  17.799   0.981  12.540
58217W        W17720   8.283   9.871   2.720
58218W        W17721  29.961  12.665   0.442
58219W        W17722  27.674  13.132  13.391
58220W        W17723  22.114   1.946  11.543
58221W        W17724  42.829  33.501  14.801
58222W        W17725  22.712  37.396   2.199
58223W        W17726  15.702  19.647   2.791
58224W        W17727  12.667  28.673  10.422
58225W        W17728  11.850  34.905   1.330
58226W        W17729  42.346  22.737  14.355
58227W        W17730  39.008   5.397   1.928
58228W        W17731  11.635   5.819   3.813
58229W        W17732  25.630  12.309   1.228
58230W        W17733  17.078  12.122  11.855
58231W        W17734  32.611  29.098  11.057
58232W        W17735  34.056  35.960  10.450
58233W        W17736  32.066  17.183   3.828
58234W        W17737  32.946  36.478   1.336
58235W        W17738  33.445   3.883   1.864
58236W        W17739  32.629  12.704   9.471
58237W        W17740   4.338   3.956   2.777
58238W        W17741  13.756  17.755  14.505
58239W        W17742   1.269  33.422  14.474
58240W        W17743  11.244  12.792   0.288
58241W        W17744  28.996  44.308   2.269
58242W        W17745  34.461  33.918   3.746
58243W        W17746  37.917  26.614  14.842
58244W        W17747   1.388  18.576  14.290
58245W        W17748  42.487  41.837   3.660
58246W        W17749   2.729   1.927   0.304
58247W        W17750   1.741  30.921  12.059
58248W        W17751  11.175  30.159   2.383
58249W        W17752  37.558  35.030   1.832
58250W        W17753  12.327  17.708  11.119
58251W        W17754  23.078  31.442   4.657
58252W        W17755  15.100   5.760   2.734
58253W        W17756   0.802  15.234   1.875
58254W        W17757  10.368   5.429  11.440
58255W        W17758  40.849  26.635  14.284
58256W        W17759  12.209  26.060   0.785
58257W        W17760  44.912  34.012  13.995
58258W        W17761  27.148   9.266  14.950
58259W        W17762  25.607   8.275  11.394
58260W        W17763   8.272  33.571  12.369
58261W        W17764  38.430  15.770  11.481
58262W        W17765  30.583  42.362  11.372
58263W        W17766  13.154   7.732  14.286
58264W        W17767  33.571   8.691  14.436
58265W        W17768  27.615  19.765  14.378
58266W        W17769   7.259  39.467   0.843
58267W        W17770  39.423   5.360   4.182
58268W        W17771  17.762  14.612  13.445
58269W        W17772  44.004  35.939  13.842
58270W        W17773  39.470  36.366  12.922
58271W        W17774  25.115   9.816  11.522
58272W        W17775  10.661   9.697  12.846
58273W        W17776  22.230  37.915  11.564
58274W        W17777  37.973  21.746  12.461
58275W        W17778  30.964  23.228   3.801
58276W        W17779  28.974  33.430   4.243
58277W        W17780  37.886  23.142  11.524
58278W        W17781  19.060  16.145  14.003
58279W        W17782   9.786  25.657  12.961
58280W        W17783  12.210  44.007   3.305
58281W        W17784  29.113   0.949  13.911
58282W        W17785  20.575  28.006   2.865
58283W        W17786  23.103  38.393   4.639
58284W        W17787   2.731  25.484  11.958
58285W        W17788   0.944  36.381  10.516
58286W        W17789  31.536  35.890  10.051
58287W        W17790   8.772  21.183  14.024
58288W        W17791  18.179  42.907  12.840
58289W        W17792  29.120  36.374   1.760
58290W        W17793  27.588  10.245  14.367
58291W        W17794  37.079  21.619  14.485
58292W        W17795   1.855  17.150  10.575
58293W        W17796  26.006  25.064   4.266
58294W        W17797  31.040  42.779  10.911
58295W        W17798  38.946  27.120  11.991
58296W        W17799  10.207  37.027  10.614
58297W        W17800   8.814  33.969   1.898
58298W        W17801  15.734   5.383  10.921
58299W        W17802  44.419  11.703   4.271
58300W        W17803  31.637  33.880  13.450
58301W        W17804   3.285  31.464  12.065
58302W        W17805  29.525   1.371  12.929
58303W        W17806  25.629  38.900  10.921
58304W        W17807  10.163  33.391   1.737
58305W        W17808  28.611   2.920  13.497
58306W        W17809   8.675  38.376   4.204
58307W        W17810  11.684  29.108  14.298
58308W        W17811  44.811  35.926   2.875
58309W        W17812   9.722  22.700  12.494
58310W        W17813  44.781  33.020  11.067
58311W        W17814  27.664  19.539  13.315
58312W        W17815   6.361  32.915  11.503
58313W        W17816  43.421  13.685   1.270
58314W        W17817  43.443   8.197  13.326
58315W        W17818  11.642  44.459  13.045
58316W        W17819   3.253  36.501   5.163
58317W        W17820  32.058  31.424  11.015
58318W        W17821  38.838   2.811   2.395
58319W        W17822   1.912  28.571   1.345
58320W        W17823  42.968   7.839   0.292
58321W        W17824   2.461  24.168  14.801
58322W        W17825  33.587  42.863   1.280
58323W        W17826  16.117  12.154   0.895
58324W        W17827  10.199  24.496   4.120
58325W        W17828  33.077  41.960  10.538
58326W        W17829  26.602  23.589  14.371
58327W        W17830  11.372   7.270  14.855
58328W        W17831   3.791   2.285   4.739
58329W        W17832  22.659   0.266   1.787
58330W        W17833   5.342  42.409   0.757
58331W        W17834   4.813  19.758  13.807
58332W        W17835  39.876  21.667  13.518
58333W        W17836  23.029   8.232  12.389
58334W        W17837  40.933  26.475   4.626
58335W        W17838  26.524  31.116   0.732
58336W        W17839  14.221  20.576  10.405
58337W        W17840  34.902   2.781   2.360
58338W        W17841  38.471   2.835  12.420
58339W        W17842   5.324  26.612  11.897
58340W        W17843   0.393   7.881  11.937
58341W        W17844  20.154   0.438  12.565
58342W        W17845  19.265  33.031  12.482
58343W        W17846  24.072   7.849   2.217
58344W        W17847  13.846  10.357  11.516
58345W        W17848  21.019  28.037  11.969
58346W        W17849  37.482  16.284   2.669
58347W        W17850   0.293  29.132   0.383
58348W        W17851  18.248  42.418  12.876
58349W        W17852   9.884  24.515   4.722
58350W        W17853  33.434   3.730   2.220
58351W        W17854  15.113  24.595   0.348
58352W        W17855  32.046   5.854   4.638
58353W        W17856  35.373   1.357   4.647
58354W        W17857   9.326  37.577  10.924
58355W        W17858  25.510  23.492  11.091
58356W        W17859  33.616  14.213   3.658
58357W        W17860  43.489  18.094   2.787
58358W        W17861   2.827  35.946   1.404
58359W        W17862  28.141  40.504  12.882
58360W        W17863   3.923  32.506  11.913
58361W        W17864  14.717  13.603   0.934
58362W        W17865  10.351  21.080   5.257
58363W        W17866  41.003   9.303   2.277
58364W        W17867  35.477  18.572  13.393
58365W        W17868   1.790  12.170  14.376
58366W        W17869  19.213  15.154   4.341
58367W        W17870   6.249  38.071   1.283
58368W        W17871  17.153  41.016  14.999
58369W        W17872   3.763   1.772   4.699
58370W        W17873  41.805  43.354   0.731
58371W        W17874   6.183  14.779  11.999
58372W        W17875  38.874  42.825  14.339
58373W        W17876  34.069  33.108  11.592
58374W        W17877  21.160   6.826   1.367
58375W        W17878  34.391  29.011   2.718
58376W        W17879  31.405  36.844  12.083
58377W        W17880  26.049  38.841  12.007
58378W        W17881  24.547  37.936   2.812
58379W        W17882  23.519  21.665   4.156
58380W        W17883  32.532   7.201   3.209
58381W        W17884  18.604  20.638   0.409
58382W        W17885  28.045   1.249   4.630
58383W        W17886   2.238  29.920   4.141
58384W        W17887  37.452  16.252   0.864
58385W        W17888   5.843   2.845   0.450
58386W        W17889   2.424  31.090   2.780
58387W        W17890  42.455   1.480   0.880
58388W        W17891  20.275  35.412   1.822
58389W        W17892   2.442  39.328   1.312
58390W        W17893  14.655   7.909  14.773
58391W        W17894  19.619  16.761  10.457
58392W        W17895   7.342   2.363  13.909
58393W        W17896  20.753  33.538   1.836
58394W        W17897  29.437   1.758   2.406
58395W        W17898  34.504   2.319   3.689
58396W        W17899  36.906  13.695  14.868
58397W        W17900  43.406  38.911  14.284
58398W        W17901  18.670  13.696   2.310
58399W        W17902  31.559  12.326   2.738
58400W        W17903  18.284   7.906   4.281
58401W        W17904  25.160   5.827   0.409
58402W        W17905   6.865   9.274  12.018
58403W        W17906  26.610   4.382   3.753
58404W        W17907  12.786  32.605   2.336
58405W        W17908  19.114   8.369  12.041
58406W        W17909  26.084  28.170  11.978
58407W        W17910  34.435  21.651   4.649
58408W        W17911  19.583  33.448  11.970
58409W        W17912  43.469  36.974   2.823
58410W        W17913  38.889  32.886   1.724
58411W        W17914  26.572  27.178  12.856
58412W        W17915  27.520  11.645   0.289
58413W        W17916  21.596  15.299  11.094
58414W        W17917  17.623  26.170  13.815
58415W        W17918  44.298  20.599  12.347
58416W        W17919  38.516  17.270  14.385
58417W        W17920  15.201  32.951   1.216
58418W        W17921  26.594  33.966   1.749
58419W        W17922  11.832   8.823  14.870
58420W        W17923  11.843   8.726  14.450
58421W        W17924   3.214  14.658  12.076
58422W        W17925  25.185  37.538  13.360
58423W        W17926  43.391   9.293   4.165
58424W        W17927  17.626  17.758  10.945
58425W        W17928  31.508  31.488   9.947
58426W        W17929  44.958  37.935  14.426
58427W        W17930  25.638  26.501   2.665
58428W        W17931   6.392  23.645   4.120
58429W        W17932  39.454  26.049   1.329
58430W        W17933   9.210  43.904   3.377
58431W        W17934  11.238  31.051   2.721
58432W        W17935  35.877  43.386  14.984
58433W        W17936   1.965  16.192   3.227
58434W        W17937  41.338   5.765   2.815
58435W        W17938  26.697  19.766  14.365
58436W        W17939  42.009  25.113  10.427
58437W        W17940  43.432  24.022   0.397
58438W        W17941  21.611   2.887   0.964
58439W        W17942  10.858  39.903  12.832
58440W        W17943  34.468  37.853   1.872
58441W        W17944  12.123  34.990   3.180
58442W        W17945  22.043  25.606  10.948
58443W        W17946  44.476  25.710  13.809
58444W        W17947  17.717  14.318  10.917
58445W        W17948   6.187  23.644  14.833
58446W        W17949  12.749   9.791  14.416
58447W        W17950  22.052  11.748  11.532
58448W        W17951  42.776  40.362  13.866
58449W        W17952  38.496  24.208  10.982
58450W        W17953  34.403  16.621   1.746
58451W        W17954  25.093  21.176  14.025
58452W        W17955   6.764  28.111   0.742
58453W        W17956  36.528  38.473   4.793
58454W        W17957   4.807  30.910   3.333
58455W        W17958  17.652   3.798   1.700
58456W        W17959  39.377  32.947   4.299
58457W        W17960  29.007  34.081   0.809
58458W        W17961  43.783  10.341  14.448
58459W        W17962  29.507  20.251  12.412
58460W        W17963  23.542  18.292   4.329
58461W        W17964  17.788  27.552  13.545
58462W        W17965  27.001  41.335  10.982
58463W        W17966  24.090  17.098  12.887
58464W        W17967  30.088  22.042  10.553
58465W        W17968  43.991  13.164  10.433
58466W        W17969  17.678  26.681   0.860
58467W        W17970  23.050  36.400   4.280
58468W        W17971   4.908  15.104   2.871
58469W        W17972   3.853  14.186  10.516
58470W        W17973  25.067  38.391  14.922
58471W        W17974   4.860  42.947  12.036
58472W        W17975  37.547  38.922  10.897
58473W        W17976  41.956   2.801   1.927
58474W        W17977   5.289  22.234  14.338
58475W        W17978  26.159   5.839   4.762
58476W        W17979  39.499  43.410   4.682
58477W        W17980  27.137  10.877  14.799
58478W        W17981   9.391  27.524   3.157
58479W        W17982  19.656  42.867  12.866
58480W        W17983  22.022   5.925   3.839
58481W        W17984  31.020  24.623  12.066
58482W        W17985   7.829  40.983   1.252
58483W        W17986  27.140  32.955   4.196
58484W        W17987  32.408  23.005   2.324
58485W        W17988  16.210   6.866   1.827
58486W        W17989  44.836  19.702   2.868
58487W        W17990   0.482  29.481   1.395
58488W        W17991  33.918   6.873  13.491
58489W        W17992  30.524  42.005  11.923
58490W        W17993  43.458   2.466   3.213
58491W        W17994  26.165  13.113  12.062
58492W        W17995  43.489  40.386  10.416
58493W        W17996  41.825  31.069  11.481
58494W        W17997  39.372  44.464  10.484
58495W        W17998  21.074  30.145  14.911
58496W        W17999   8.667  33.505  13.536
58497W        W18000  33.432  43.511   1.761
58498W        W18001  18.080  33.381  12.573
58499W        W18002  34.982   1.293  12.062
58500W        W18003  29.481  14.180   3.732
58501W        W18004   3.285  21.074   2.860
58502W        W18005  38.888  29.573   0.478
58503W        W18006   4.215  37.446  10.477
58504W        W18007   9.796  29.110  13.996
58505W        W18008  12.814  16.283   0.835
58506W        W18009  23.518  34.987  13.953
58507W        W18010  30.159  28.480  14.802
58508W        W18011  12.211  26.524  12.367
58509W        W18012  30.602  37.480  13.516
58510W        W18013  18.668  43.425  13.927
58511W        W18014  21.534  26.173  10.549
58512W        W18015   7.357  39.536  14.428
58513W        W18016   5.373  30.090   4.780
58514W        W18017  31.510  37.045   4.164
58515W        W18018  41.472  33.030   1.838
58516W        W18019  20.736  15.671  11.887
58517W        W18020   1.417  43.981  14.435
58518W        W18021  21.637  21.536  12.423
58519W        W18022  37.963  37.023   0.801
58520W        W18023  25.704  21.242  10.468
58521W        W18024  43.446   9.221   3.264
58522W        W18025  25.524  11.818   4.830
58523W        W18026   8.171  43.494   2.749
58524W        W18027   9.290  20.692   1.923
58525W        W18028  28.577  41.863  12.085
58526W        W18029  30.054  26.091   0.862
58527W        W18030  27.149  39.438   4.165
58528W        W18031  19.702  43.958   0.402
58529W        W18032   8.698  30.914  12.014
58530W        W18033  43.387  21.092   4.323
58531W        W18034  19.735   8.817   4.151
58532W        W18035  44.777  38.039  13.045
58533W        W18036  10.316   8.255  12.388
58534W        W18037  19.125  44.924  13.376
58535W        W18038  24.026   0.277  11.909
58536W        W18039  39.411  38.901   4.781
58537W        W18040  22.193  14.155  14.810
58538W        W18041  14.812   2.818   0.869
58539W        W18042  19.659   8.862  13.504
58540W        W18043  21.112  25.525   3.637
58541W        W18044  30.968  25.669   4.624
58542W        W18045  16.659   6.225   0.754
58543W        W18046  15.678  31.990   1.422
58544W        W18047  19.087   4.419  14.277
58545W        W18048  39.948  24.646   0.805
58546W        W18049   1.943  25.147   4.660
58547W        W18050   2.423  12.663   2.872
58548W        W18051  38.518  29.100  13.900
58549W        W18052  30.958  31.616   4.287
58550W        W18053   0.880  44.868  12.056
58551W        W18054  10.751   1.892  10.923
58552W        W18055  26.964   3.868  10.553
58553W        W18056  32.407   4.781  10.527
58554W        W18057  30.589   6.917   2.765
58555W        W18058   4.445  39.519  12.865
58556W        W18059   5.328  38.907  11.927
58557W        W18060  43.472   3.237   4.338
58558W        W18061  18.678   5.755  14.436
58559W        W18062  41.882  41.526   9.997
58560W        W18063  44.879  12.686  13.514
58561W        W18064  44.466  24.627  11.473
58562W        W18065  20.660  22.249   0.863
58563W        W18066   8.171   2.429   1.870
58564W        W18067   2.391  34.029  11.085
58565W        W18068   4.261  33.540  11.050
58566W        W18069  42.874  24.537  14.895
58567W        W18070  22.689  15.086   0.965
58568W        W18071   5.363  41.429  11.425
58569W        W18072   7.277  31.630   0.352
58570W        W18073  23.132  22.095  11.460
58571W        W18074  36.558  16.808   1.370
58572W        W18075   2.345  37.002  11.055
58573W        W18076  21.043  31.934   3.658
58574W        W18077   5.351  13.272   3.265
58575W        W18078  17.091  31.599   3.290
58576W        W18079  43.284  44.336  13.792
58577W        W18080   9.834  39.970  11.056
58578W        W18081  18.112  42.373  14.950
58579W        W18082  33.916  15.235   1.873
58580W        W18083  11.218  36.936  12.367
58581W        W18084   1.734  21.147   2.827
58582W        W18085  32.139  35.042   1.389
58583W        W18086  40.894  39.323   0.444
58584W        W18087  42.782   1.383  10.615
58585W        W18088  16.665   4.919   3.686
58586W        W18089  39.500   0.401   0.870
58587W        W18090  44.898  38.343  14.279
58588W        W18091  38.920  11.735   4.211
58589W        W18092  28.487   6.856   3.732
58590W        W18093  33.057   1.964  13.544
58591W        W18094   4.834  36.911  11.003
58592W        W18095  41.463  24.548   4.239
58593W        W18096  17.168   7.729   4.143
58594W        W18097   0.783  43.511   9.487
58595W        W18098  35.452   8.219   0.916
58596W        W18099   2.264  11.266   2.234
58597W        W18100  15.751  15.589  11.031
58598W        W18101  41.976   4.254   2.251
58599W        W18102  41.986  43.512  11.987
58600W        W18103  12.150   8.250   3.387
58601W        W18104  13.148  15.105   1.839
58602W        W18105  19.630  32.456   2.303
58603W        W18106  39.352  31.101   2.840
58604W        W18107  40.430  19.206   3.177
58605W        W18108   6.219  10.345  11.576
58606W        W18109  44.400  27.608  14.854
58607W        W18110  44.379  22.528   1.913
58608W        W18111  38.335  28.665  12.561
58609W        W18112  40.528  23.082  12.362
58610W        W18113  16.093  18.548   1.323
58611W        W18114  30.622   7.805   2.288
58612W        W18115  27.129  27.006  12.367
58613W        W18116  41.423  21.078  11.897
58614W        W18117  24.562  34.507   4.736
58615W        W18118  42.404  42.516  14.436
58616W        W18119  28.012  18.727   4.320
58617W        W18120  40.945  39.063   1.874
58618W        W18121   0.758  40.828   2.227
58619W        W18122  16.236  11.765  12.073
58620W        W18123  32.531  19.268   0.967
58621W        W18124  26.547  38.506   3.153
58622W        W18125  42.895  23.731   2.878
58623W        W18126  33.880  24.131  13.056
58624W        W18127   8.274  41.524   4.279
58625W        W18128  16.572  44.988   1.701
58626W        W18129  34.503  13.145  14.941
58627W        W18130  37.389  34.091  13.352
58628W        W18131  16.697  29.918   3.678
58629W        W18132  18.273  36.389   3.313
58630W        W18133   0.832  12.206  14.299
58631W        W18134  29.615  18.174  14.509
58632W        W18135  32.422   8.765   5.193
58633W        W18136  19.081  37.380   1.918
58634W        W18137  11.721  22.201   1.252
58635W        W18138  44.841  30.473   4.124
58636W        W18139   7.794   8.766   2.260
58637W        W18140  12.187  16.616  13.878
58638W        W18141  34.484  37.926   4.741
58639W        W18142  39.525   9.821  14.282
58640W        W18143  19.741  21.640   4.764
58641W        W18144  32.969  22.158   3.661
58642W        W18145  19.729  24.549   2.707
58643W        W18146  34.870  22.010   3.343
58644W        W18147  40.504  21.119   3.268
58645W        W18148   8.376  42.912   4.153
58646W        W18149   9.785   8.753  14.766
58647W        W18150  22.673  10.647  10.495
58648W        W18151  31.628  38.996   3.754
58649W        W18152  27.501  34.069  14.388
58650W        W18153  33.530  41.470   4.606
58651W        W18154  16.682   3.289  11.025
58652W        W18155  21.109  25.156  13.922
58653W        W18156  21.173  25.664   2.700
58654W        W18157   1.422   0.908   2.362
58655W        W18158  16.144  16.130  13.816
58656W        W18159  28.007  15.229   2.891
58657W        W18160  19.236  37.921   3.765
58658W        W18161  22.745   0.392  11.972
58659W        W18162  10.151  36.414  13.024
58660W        W18163  16.287   3.826   2.714
58661W        W18164   3.879  27.603   9.474
58662W        W18165  34.908  38.398   1.404
58663W        W18166   9.735  35.366   9.999
58664W        W18167  28.938   8.173   2.354
58665W        W18168  30.031  11.292  14.331
58666W        W18169  23.605  35.955  10.408
58667W        W18170  11.744  36.462   3.759
58668W        W18171  41.995  37.836  14.793
58669W        W18172  37.525  34.399  11.500
58670W        W18173   0.400  12.175   2.798
58671W        W18174  19.239  15.753   2.319
58672W        W18175   5.724  35.551  11.481
58673W        W18176  21.665  30.472  11.057
58674W        W18177  40.916  37.030  13.798
58675W        W18178  11.273  16.610  12.530
58676W        W18179  24.201  24.111   1.362
58677W        W18180   7.792   2.892   0.389
58678W        W18181  28.643   1.401  14.835
58679W        W18182  40.842  18.209   1.700
58680W        W18183   1.483  38.462  14.882
58681W        W18184  10.284  30.103   5.316
58682W        W18185  20.728  28.638  11.860
58683W        W18186   9.769  10.214   1.850
58684W        W18187   8.310  20.634  14.408
58685W        W18188  11.240  25.075  14.968
58686W        W18189   0.885  31.428   0.467
58687W        W18190  27.504  13.763   0.389
58688W        W18191  13.812  14.664   2.729
58689W        W18192  33.053  40.908  14.424
58690W        W18193  34.075  25.054   4.804
58691W        W18194  40.398  33.038   3.855
58692W        W18195  28.437  13.811  11.456
58693W        W18196  33.554  24.583  13.498
58694W        W18197   6.801  24.691   4.695
58695W        W18198   4.348  41.482   1.810
58696W        W18199   7.232   0.254   3.765
58697W        W18200  10.685  38.925  13.835
58698W        W18201  38.392  18.272  10.550
58699W        W18202  35.535   8.809   0.883
58700W        W18203  40.806  26.588   1.751
58701W        W18204  23.603   8.856   4.689
58702W        W18205  40.314  26.518   5.209
58703W        W18206  29.440  39.023  10.464
58704W        W18207  34.046   5.789   0.279
58705W        W18208  27.629  19.122   3.633
58706W        W18209  27.684  37.572   1.259
58707W        W18210  21.736  37.064  10.973
58708W        W18211  36.393   5.766  12.505
58709W        W18212  44.941  23.113   2.763
58710W        W18213   0.977  37.940  13.860
58711W        W18214  28.063  16.214   0.836
58712W        W18215   3.249  44.438   5.299
58713W        W18216  30.541   2.400   0.244
58714W        W18217  21.662  43.504   3.219
58715W        W18218   8.369   5.399   2.199
58716W        W18219   2.806   6.378   0.866
58717W        W18220  22.522  36.088   5.098
58718W        W18221  34.425  23.087  12.999
58719W        W18222   6.372  36.903   4.699
58720W        W18223  30.917  35.991   3.337
58721W        W18224  10.673  11.660   0.366
58722W        W18225  15.328  25.170  10.460
58723W        W18226  34.491  33.953   3.302
58724W        W18227  10.275  42.833   5.221
58725W        W18228  10.384   9.198  10.412
58726W        W18229  38.365  15.099  14.286
58727W        W18230  43.945  37.053   2.414
58728W        W18231  43.944  12.655   0.726
58729W        W18232  23.500  24.104  12.368
58730W        W18233   1.738   0.427   2.902
58731W        W18234   9.310   2.953   0.904
58732W        W18235   8.294  20.161   0.788
58733W        W18236  24.168  31.631   4.271
58734W        W18237  10.668  26.170   4.732
58735W        W18238  11.211   6.809  12.528
58736W        W18239  16.274   9.294   1.890
58737W        W18240  23.015  31.143  11.530
58738W        W18241   1.450  38.073   2.248
58739W        W18242  40.532   7.683   2.794
58740W        W18243  20.734  16.693  10.566
58741W        W18244  36.536   7.300  10.540
58742W        W18245  26.058  43.318  12.850
58743W        W18246   1.852  36.083  14.031
58744W        W18247   3.720  33.046   3.243
58745W        W18248  16.745  13.664   0.919
58746W        W18249  29.527  22.250  10.561
58747W        W18250   0.760  41.793  13.441
58748W        W18251   5.719  41.470  13.859
58749W        W18252  18.554  43.381   3.793
58750W        W18253  29.971  44.793  13.031
58751W        W18254  36.409  32.599   2.730
58752W        W18255  16.617  33.036  14.488
58753W        W18256   8.296   3.407  12.506
58754W        W18257  28.044  34.524   0.959
58755W        W18258  32.624  18.685   1.230
58756W        W18259  24.567  14.783   4.820
58757W        W18260  29.943  16.145   3.324
58758W        W18261   7.362   5.242  12.443
58759W        W18262  34.120  23.174   0.776
58760W        W18263  33.995   0.940  11.033
58761W        W18264   4.785  24.016  14.977
58762W        W18265  17.271  28.937   2.357
58763W        W18266   8.716  19.277  11.529
58764W        W18267  28.553  23.126   0.301
58765W        W18268  36.425  35.383   0.283
58766W        W18269  31.144  26.035   3.316
58767W        W18270  24.554  39.490   1.240
58768W        W18271   4.719  42.336   0.762
58769W        W18272   9.758  31.554   3.793
58770W        W18273  42.933   6.779   4.345
58771W        W18274  11.692  24.054   5.212
58772W        W18275   5.411  23.652   2.402
58773W        W18276  30.054  41.300  13.907
58774W        W18277  15.245  15.123   3.774
58775W        W18278   2.824  32.973  11.962
58776W        W18279  31.094  21.738  14.501
58777W        W18280   6.339  10.362  14.805
58778W        W18281  40.922   6.365  13.993
58779W        W18282  42.994  23.094   0.891
58780W        W18283  17.066  24.645   3.719
58781W        W18284  40.548  40.981  10.478
58782W        W18285  13.803  34.521  14.805
58783W        W18286   0.832  35.526  12.552
58784W        W18287  25.179  18.613  11.865
58785W        W18288  36.059   4.837   5.177
58786W        W18289  35.883  37.959  10.586
58787W        W18290   0.925  15.308   0.352
58788W        W18291   6.190  34.977  11.021
58789W        W18292  38.954  19.582  11.120
58790W        W18293   0.444   4.389  11.863
58791W        W18294   4.723  26.650   0.936
58792W        W18295  14.144  15.233  14.827
58793W        W18296  12.326  22.242   0.754
58794W        W18297  11.152  21.724   2.845
58795W        W18298  22.228  29.160  14.395
58796W        W18299  11.850   2.232  14.340
58797W        W18300  35.398  36.915   0.939
58798W        W18301  35.422  26.568   1.239
58799W        W18302  32.094   8.166  14.402
58800W        W18303  13.765  30.090  11.055
58801W        W18304   4.424  41.536  14.768
58802W        W18305  40.462  23.501  14.960
58803W        W18306  42.010   8.835  13.821
58804W        W18307   0.465  27.192   2.396
58805W        W18308  29.942   9.300  13.389
58806W        W18309  10.151  10.651  13.806
58807W        W18310  19.236  22.176   4.722
58808W        W18311  27.123  13.298  12.823
58809W        W18312  18.259   5.689  11.540
58810W        W18313   8.694   4.819   5.206
58811W        W18314  20.576  34.384  11.405
58812W        W18315  43.001  16.108  11.973
58813W        W18316  16.219  43.797   1.449
58814W        W18317  38.371   9.176  11.041
58815W        W18318  35.585   3.426  14.410
58816W        W18319  34.866   1.346   2.202
58817W        W18320   1.470   7.843  10.563
58818W        W18321  33.571  16.140   4.207
58819W        W18322  41.920  43.367   3.374
58820W        W18323   3.335   2.966  12.386
58821W        W18324   8.258  22.543  14.947
58822W        W18325  38.063  11.225  11.028
58823W        W18326   6.795  39.499  13.974
58824W        W18327  14.159  32.576   9.436
58825W        W18328  42.803  22.559   1.406
58826W        W18329  20.263  41.031  12.919
58827W        W18330  35.361  30.074  14.403
58828W        W18331  41.467  43.437  14.009
58829W        W18332   4.222   9.816   3.632
58830W        W18333  23.990  42.946  10.645
58831W        W18334  13.348  15.120  12.367
58832W        W18335  11.669  38.040  13.398
58833W        W18336   2.911  29.154   2.759
58834W        W18337  14.146   9.289  11.415
58835W        W18338  23.145  25.964  12.361
58836W        W18339  12.318   6.819  10.989
58837W        W18340  17.113   2.747  12.876
58838W        W18341  40.002  20.230   4.279
58839W        W18342   1.829  10.200   4.713
58840W        W18343  32.483   0.403   3.664
58841W        W18344  22.634  29.175   1.268
58842W        W18345   7.377  33.569  12.933
58843W        W18346  27.584  29.646  11.029
58844W        W18347  29.962  12.658   2.858
58845W        W18348  14.324  24.711  13.499
58846W        W18349  28.528  19.246   0.868
58847W        W18350  25.637  39.016  13.950
58848W        W18351  35.537  37.888  10.077
58849W        W18352  35.983  38.418  10.604
58850W        W18353  11.208  31.992   2.375
58851W        W18354  22.101   5.411  14.348
58852W        W18355  19.549  44.399   3.277
58853W        W18356  13.828  42.859  12.488
58854W        W18357  35.424  10.847   1.356
58855W        W18358  40.342   7.745  12.961
58856W        W18359  29.435  33.616  12.504
58857W        W18360  23.653   8.807  10.564
58858W        W18361  28.558  23.581  11.934
58859W        W18362  37.086  23.622  12.082
58860W        W18363  43.416   8.735  10.048
58861W        W18364  38.896  37.515   9.933
58862W        W18365   0.939  42.934   1.288
58863W        W18366  17.098  40.526  10.567
58864W        W18367   2.839   8.185   4.775
58865W        W18368  35.080  31.121   1.310
58866W        W18369  39.560  18.105   0.909
58867W        W18370  27.604   5.407   0.855
58868W        W18371   9.162  13.247  14.334
58869W        W18372  23.053  32.093  14.856
58870W        W18373  34.054  44.815   4.673
58871W        W18374  35.865  21.706   0.426
58872W        W18375  44.412  34.518   1.389
58873W        W18376   7.797  14.159   4.613
58874W        W18377  32.048  22.604   3.648
58875W        W18378  14.335   1.314  11.039
58876W        W18379   7.749   7.803  10.618
58877W        W18380  38.055  11.131  13.371
58878W        W18381  38.428   0.866   2.846
58879W        W18382  21.031   7.881  13.834
58880W        W18383  23.640  11.767   4.826
58881W        W18384  36.984  41.411  13.431
58882W        W18385  39.042   4.806  10.023
58883W        W18386  43.434  29.648   4.637
58884W        W18387  19.718  29.930  12.373
58885W        W18388  26.641   9.751   4.254
58886W        W18389   6.392  42.972  14.899
58887W        W18390  23.497  15.579  11.087
58888W        W18391  26.604  21.176  12.041
58889W        W18392  21.634  15.319  11.420
58890W        W18393  38.567  17.760  14.343
58891W        W18394   8.170  27.639  12.361
58892W        W18395  21.733  40.902   3.163
58893W        W18396  41.969  25.709   1.284
58894W        W18397  16.293  30.919   4.297
58895W        W18398  31.960  40.388   3.357
58896W        W18399   5.769  39.461   0.901
58897W        W18400  26.526  44.786   0.861
58898W        W18401  17.634  20.097  11.905
58899W        W18402   7.189  23.090   0.779
58900W        W18403  11.137  23.575   2.718
58901W        W18404  28.539  40.415   2.718
58902W        W18405   2.415   0.455  10.892
58903W        W18406  40.313   1.763   4.824
58904W        W18407   9.284  35.562  13.543
58905W        W18408  19.613  26.090  11.008
58906W        W18409  32.987   3.785   2.185
58907W        W18410  20.630  12.644  11.894
58908W        W18411  39.966   5.350   1.739
58909W        W18412   5.869  33.564  11.954
58910W        W18413  12.686  14.299  13.969
58911W        W18414   4.918  40.319   2.394
58912W        W18415  27.645   1.331  10.569
58913W        W18416  15.722  20.039   2.354
58914W        W18417  21.624  38.519  14.021
58915W        W18418  35.546  18.281  12.042
58916W        W18419  19.677  20.526  13.904
58917W        W18420  14.258   4.436  13.464
58918W        W18421  17.066  40.473   0.812
58919W        W18422  35.927  28.663  11.505
58920W        W18423   3.839   2.333   5.135
58921W        W18424  39.356   4.311   5.258
58922W        W18425  23.210  19.645  13.455
58923W        W18426   4.901  38.338  14.008
58924W        W18427   7.201  44.462   2.860
58925W        W18428   5.217  14.235  10.471
58926W        W18429   3.915  21.114  13.342
58927W        W18430  32.984  24.159  12.422
58928W        W18431  42.317  21.682   1.866
58929W        W18432  27.488  32.490   0.817
58930W        W18433  34.089   2.466  11.588
58931W        W18434  21.717   7.222   3.307
58932W        W18435  20.750  23.605   3.842
58933W        W18436   1.252   8.199  14.002
58934W        W18437   2.749  36.890   1.338
58935W        W18438  44.838  42.448   2.250
58936W        W18439  43.497  31.037   0.954
58937W        W18440  37.024  26.608   4.791
58938W        W18441   8.326  34.393   5.629
58939W        W18442  30.029  21.735   4.196
58940W        W18443   1.253  42.350  10.955
58941W        W18444  29.987  27.498  11.987
58942W        W18445  41.532  35.920   0.743
58943W        W18446  42.869   1.871   1.246
58944W        W18447   8.723  16.286   0.284
58945W        W18448  28.167  36.926  13.806
58946W        W18449   1.970  14.207  12.069
58947W        W18450  22.529  22.516   3.378
58948W        W18451  31.116  19.633   0.861
58949W        W18452   9.217   8.744   3.309
58950W        W18453  44.859   1.975   1.410
58951W        W18454  26.066  31.537   2.339
58952W        W18455  21.743   7.827  12.016
58953W        W18456   1.239  18.758  13.433
58954W        W18457  16.696  35.402   3.165
58955W        W18458   2.429  41.363  14.499
58956W        W18459   2.284  23.537   9.967
58957W        W18460  38.988  21.124   0.887
58958W        W18461   2.869  22.654  13.034
58959W        W18462  30.572  11.278  13.457
58960W        W18463  14.272  44.406   4.339
58961W        W18464  33.501   6.417   5.131
58962W        W18465  31.463   8.761   4.175
58963W        W18466  14.699  41.421   1.803
58964W        W18467  13.210  44.357  11.564
58965W        W18468  25.077  21.074  10.623
58966W        W18469  20.552  38.995  11.879
58967W        W18470  23.542  18.588   4.648
58968W        W18471   3.228   3.873   3.696
58969W        W18472   3.299  15.151   4.114
58970W        W18473   0.973  14.618  11.519
58971W        W18474  13.209  31.999   1.416
58972W        W18475  17.749  38.414   0.338
58973W        W18476  23.664  28.528  11.904
58974W        W18477  14.278  40.817  11.544
58975W        W18478  30.907  40.031   3.235
58976W        W18479  30.657  43.007  12.865
58977W        W18480   6.233  22.646   4.325
58978W        W18481  26.009  38.445   1.867
58979W        W18482  29.094  35.069  10.501
58980W        W18483  18.745  24.667   0.320
58981W        W18484  19.588  15.796   5.272
58982W        W18485  35.359  18.566  13.828
58983W        W18486   1.807   4.802  11.029
58984W        W18487  31.010  34.549   4.777
58985W        W18488   1.374   5.232   4.670
58986W        W18489  12.333  32.030  13.307
58987W        W18490  39.824  28.035  11.372
58988W        W18491  29.520  22.516  14.446
58989W        W18492  35.597  42.322   2.344
58990W        W18493  14.325  17.698   1.434
58991W        W18494   4.874  29.047   2.869
58992W        W18495  28.070  40.494  10.148
58993W        W18496  11.623  24.135  12.933
58994W        W18497  33.918  25.985   9.572
58995W        W18498  27.572   7.800   2.735
58996W        W18499   4.237   8.821  12.381
58997W        W18500   8.695  22.632   3.358
58998W        W18501  35.872  23.719  10.891
58999W        W18502  13.663  16.613  13.955
59000W        W18503  14.638   4.435  13.440
59001W        W18504  38.830  10.261   4.794
59002W        W18505   9.700  23.000   0.380
59003W        W18506  17.306   5.364  14.799
59004W        W18507  37.418  23.638   3.372
59005W        W18508  17.622   3.891  13.025
59006W        W18509  15.748  43.277  10.600
59007W        W18510   4.338  22.098   4.660
59008W        W18511  27.578  26.519   4.163
59009W        W18512   2.811  24.650  12.022
59010W        W18513  12.206  17.260   4.803
59011W        W18514   3.868   3.774   0.851
59012W        W18515  10.720  28.092  10.111
59013W        W18516  15.257  33.382   1.754
59014W        W18517  40.902  28.135  12.044
59015W        W18518  35.489  26.991   4.810
59016W        W18519  17.782  16.809   3.312
59017W        W18520   0.447  42.958   1.740
59018W        W18521  16.135  35.565   0.937
59019W        W18522  23.001   1.276   3.315
59020W        W18523  18.273   7.220  11.099
59021W        W18524   4.289   0.878  12.479
59022W        W18525  21.517  35.393  13.375
59023W        W18526  34.983  39.485  11.431
59024W        W18527   2.831   1.280  10.525
59025W        W18528  13.692   0.461  10.904
59026W        W18529   9.214  39.539   1.851
59027W        W18530  38.351  13.685   0.796
59028W        W18531  12.126  22.042   4.171
59029W        W18532   0.844  28.476  12.035
59030W        W18533   7.254  12.117  10.896
59031W        W18534  22.724  37.978   1.813
59032W        W18535  22.153  16.744   2.341
59033W        W18536  36.858   0.308   3.344
59034W        W18537  19.708  31.570   3.791
59035W        W18538  34.946   6.269  12.019
59036W        W18539  23.224  16.098  11.040
59037W        W18540  26.060  31.606  14.904
59038W        W18541  41.944  44.791   4.831
59039W        W18542  34.476  43.965  12.010
59040W        W18543   0.753  17.762   3.358
59041W        W18544  18.145  32.561  14.500
59042W        W18545  25.502  14.257  10.906
59043W        W18546  36.495  16.173   0.792
59044W        W18547  35.539  20.715   0.789
59045W        W18548  35.580  39.495   1.738
59046W        W18549  20.710  14.649  12.372
59047W        W18550  23.041  33.026  13.410
59048W        W18551  39.045  17.670   2.256
59049W        W18552  21.658  36.908   3.843
59050W        W18553   5.235   2.296  14.437
59051W        W18554  29.468  23.119  13.309
59052W        W18555  12.206   6.743   0.839
59053W        W18556  18.106  36.468   1.310
59054W        W18557  39.013   9.808   4.811
59055W        W18558  32.945  24.189  14.883
59056W        W18559  36.543  15.244  11.912
59057W        W18560   9.187  17.262  13.825
59058W        W18561   0.299  37.425  11.870
59059W        W18562  32.451  32.142   2.815
59060W        W18563  25.525  26.490  12.496
59061W        W18564   2.228  42.979  12.391
59062W        W18565  30.591   8.683  11.013
59063W        W18566   8.310  25.600  14.289
59064W        W18567  28.653  43.943   4.662
59065W        W18568  35.952  26.564   0.468
59066W        W18569  28.153   4.775  14.759
59067W        W18570  26.594  41.840  14.290
59068W        W18571  16.163  15.111   3.810
59069W        W18572  24.621  28.084  12.421
59070W        W18573  37.426  37.578  12.568
59071W        W18574  12.669  25.700   0.753
59072W        W18575   4.707   9.170  14.379
59073W        W18576  33.509  39.331  14.029
59074W        W18577  15.822  17.091   5.297
59075W        W18578   5.210  14.780  14.507
59076W        W18579  25.136   3.337   3.780
59077W        W18580  22.050   3.357   4.207
59078W        W18581  40.492  26.601  12.418
59079W        W18582   3.944  33.976  10.493
59080W        W18583  38.950  32.475  11.559
59081W        W18584  38.052  40.991  13.924
59082W        W18585  33.504  38.432  13.481
59083W        W18586   4.278   1.770   2.694
59084W        W18587  18.716  33.462   4.772
59085W        W18588  15.745   0.754  14.766
59086W        W18589   6.906  40.832   3.165
59087W        W18590  24.995  30.438   3.354
59088W        W18591   7.853  40.826  10.906
59089W        W18592  33.047  28.059  13.991
59090W        W18593  23.697  13.823  11.096
59091W        W18594  36.842  31.610   2.662
59092W        W18595  26.080  41.893   3.335
59093W        W18596  20.551  42.501   3.173
59094W        W18597  42.996  34.021  13.486
59095W        W18598  32.539  33.448  14.507
59096W        W18599  31.113  30.119   0.429
59097W        W18600   9.321  38.868  11.105
59098W        W18601   5.320  35.379  11.991
59099W        W18602  29.468  41.321   1.699
59100W        W18603  16.280  42.316  11.959
59101W        W18604   9.852  10.357  12.556
59102W        W18605   2.794  43.511   4.813
59103W        W18606  19.628   8.194  12.899
59104W        W18607  13.196  40.052   2.378
59105W        W18608  10.638  18.286  14.508
59106W        W18609   9.719   5.349   1.774
59107W        W18610  20.096   4.268  11.120
59108W        W18611  44.844  10.368   2.343
59109W        W18612   5.851  31.078  13.429
59110W        W18613  35.918  35.863   1.314
59111W        W18614  24.221  10.208  14.925
59112W        W18615  30.525   3.381  11.082
59113W        W18616  15.100  43.984   0.821
59114W        W18617   1.456  37.514   3.345
59115W        W18618  24.225  10.826  14.874
59116W        W18619   5.299  44.321  11.978
59117W        W18620  35.039  34.575   4.183
59118W        W18621  20.120  11.712  13.953
59119W        W18622  20.685  23.149   1.400
59120W        W18623  32.496   9.712   3.372
59121W        W18624  31.051   5.744   3.757
59122W        W18625  35.059  10.663   0.328
59123W        W18626  27.147  36.999   3.636
59124W        W18627  31.998  21.574  12.945
59125W        W18628  25.038  41.355   2.318
59126W        W18629  14.698   1.865  12.877
59127W        W18630  33.912   5.884   4.647
59128W        W18631  14.788   6.909  12.572
59129W        W18632  26.521  32.989   0.758
59130W        W18633  25.612  44.405   1.273
59131W        W18634  29.920  40.512  10.522
59132W        W18635  10.143  14.726  14.879
59133W        W18636  28.616  34.095  14.429
59134W        W18637  11.851   9.739   2.728
59135W        W18638   9.858  44.999  12.967
59136W        W18639  30.584  11.174   1.802
59137W        W18640  13.647  42.953   2.818
59138W        W18641   7.185  38.050   1.353
59139W        W18642  42.998  19.256   2.255
59140W        W18643   3.277  33.037  11.868
59141W        W18644  42.858  23.221  11.447
59142W        W18645   3.894  29.064   3.224
59143W        W18646  28.481  42.784   4.301
59144W        W18647  33.547   7.832   3.845
59145W        W18648   9.348   2.264  12.015
59146W        W18649  16.085  34.493  14.788
59147W        W18650   4.768  10.346  10.983
59148W        W18651   8.764  36.922   3.691
59149W        W18652  13.111  38.367  12.448
59150W        W18653  41.030  10.319  14.280
59151W        W18654  33.588  14.275  13.052
59152W        W18655  43.984   3.454  10.442
59153W        W18656   9.152   5.365   0.757
59154W        W18657  36.449   2.294   0.849
59155W        W18658  33.609  28.967   4.683
59156W        W18659  40.307   3.343  14.912
59157W        W18660   0.768  11.703  11.505
59158W        W18661   3.814  39.548   4.261
59159W        W18662  42.984  32.392   0.765
59160W        W18663   2.839   6.221   1.446
59161W        W18664  42.421   1.922   3.328
59162W        W18665  36.917  26.498  13.310
59163W        W18666  41.875  21.514  14.905
59164W        W18667  44.976  18.106   1.361
59165W        W18668  34.386  24.049  12.370
59166W        W18669  33.060  32.945  10.977
59167W        W18670  28.158  21.662  14.905
59168W        W18671  37.544  24.716   4.756
59169W        W18672  37.936  24.674  10.491
59170W        W18673  28.490  25.109   0.336
59171W        W18674   0.315  25.077   0.450
59172W        W18675  20.712  41.377   3.367
59173W        W18676  27.075   9.222   0.936
59174W        W18677   8.322   5.233   3.281
59175W        W18678  44.814  44.939   0.388
59176W        W18679  42.419  39.532   2.734
59177W        W18680  24.632   6.223  13.829
59178W        W18681  32.424  20.717  13.959
59179W        W18682  33.526   9.373  11.542
59180W        W18683  23.205  24.226   1.385
59181W        W18684  23.171  24.680  13.890
59182W        W18685  42.808   0.927  14.438
59183W        W18686  33.092   1.844   4.732
59184W        W18687   3.868  36.450  11.958
59185W        W18688  38.558  12.745   1.748
59186W        W18689  32.051   0.773   2.864
59187W        W18690  38.411  15.171   3.823
59188W        W18691   4.290  27.035   0.872
59189W        W18692  28.478  41.885   4.155
59190W        W18693  18.673  14.158  11.542
59191W        W18694   4.410  39.043   1.275
59192W        W18695  43.396   7.189  11.921
59193W        W18696  30.060  42.495  14.383
59194W        W18697  22.239  36.396  12.389
59195W        W18698  36.586  34.600  12.356
59196W        W18699   8.866   5.231  11.953
59197W        W18700  17.624  35.561   1.725
59198W        W18701   8.762  22.176  14.489
59199W        W18702  41.809  41.901  14.910
59200W        W18703  27.593  23.728  14.506
59201W        W18704  13.334  18.280   2.787
59202W        W18705   8.846  22.096  13.962
59203W        W18706   6.425  41.339  12.491
59204W        W18707  27.082  31.481  12.444
59205W        W18708   4.871  34.082  11.928
59206W        W18709  44.377   8.668  12.061
59207W        W18710  24.594  40.348   0.436
59208W        W18711  31.004  13.632   3.849
59209W        W18712  20.204  39.413  13.882
59210W        W18713  12.704  43.998  11.389
59211W        W18714  39.912  22.566   1.352
59212W        W18715  10.213  35.044   0.263
59213W        W18716  10.190  21.262  13.027
59214W        W18717   6.720  16.679  13.374
59215W        W18718   8.862  27.186  14.403
59216W        W18719  34.890  41.415  13.943
59217W        W18720   7.302  36.486  14.995
59218W        W18721  17.637  17.168  13.523
59219W        W18722  44.953  26.164  14.349
59220W        W18723   4.388  42.491  14.956
59221W        W18724  21.022  29.125   3.805
59222W        W18725  26.554  16.216  12.993
59223W        W18726   1.850  21.067  14.798
59224W        W18727   8.795  34.411   1.321
59225W        W18728  32.591  44.980  12.904
59226W        W18729  41.905  42.285  12.850
59227W        W18730  15.639   3.401  13.998
59228W        W18731  43.956   5.423   0.767
59229W        W18732   8.745  24.628  14.945
59230W        W18733  25.060  22.248  13.309
59231W        W18734   9.745  10.275   4.262
59232W        W18735  41.839  19.161  14.496
59233W        W18736  17.645  37.032  12.978
59234W        W18737  21.134   9.650  12.843
59235W        W18738  19.737   8.312  14.858
59236W        W18739   9.392  24.072   3.350
59237W        W18740  12.839  13.332  10.467
59238W        W18741  29.932  11.287   3.699
59239W        W18742  37.836  21.070   9.961
59240W        W18743  31.983   6.811  12.364
59241W        W18744  18.219  20.246   4.696
59242W        W18745   7.370  26.067  13.535
59243W        W18746  39.372   1.846  13.362
59244W        W18747  43.822  41.521   3.242
59245W        W18748  20.592  42.994   0.329
59246W        W18749   3.379  39.499   2.737
59247W        W18750   3.858  24.586   2.241
59248W        W18751  38.030  17.671   1.927
59249W        W18752  27.945  23.153   0.927
59250W        W18753  15.276  11.169  14.979
59251W        W18754   9.241   6.710   0.412
59252W        W18755   9.862  41.989   4.761
59253W        W18756   2.793  12.322  13.519
59254W        W18757  21.206  12.811   0.927
59255W        W18758  39.817  17.747   3.764
59256W        W18759  33.613  42.502  10.618
59257W        W18760   2.425  12.737  10.912
59258W        W18761  12.850  27.194  13.846
59259W        W18762  22.535  20.144  10.426
59260W        W18763  28.110  25.968  14.975
59261W        W18764   0.347  16.263  14.342
59262W        W18765   5.313  21.632   2.795
59263W        W18766   5.774  16.584  12.390
59264W        W18767  16.077  18.064  10.964
59265W        W18768   5.304  36.539   2.332
59266W        W18769  24.081   9.876  13.887
59267W        W18770  26.171  34.392  12.847
59268W        W18771  44.467  33.590  12.062
59269W        W18772  42.506  42.494   4.783
59270W        W18773  26.105  22.080   4.128
59271W        W18774  19.092  41.841  13.813
59272W        W18775  33.479  10.864  14.810
59273W        W18776   2.846   9.648  11.564
59274W        W18777  12.674   1.478  10.967
59275W        W18778  29.043   0.794  11.598
59276W        W18779  23.558  20.168   2.880
59277W        W18780   0.791  36.519   0.480
59278W        W18781   4.878   7.711  12.898
59279W        W18782  19.211  31.417  13.901
59280W        W18783  16.286   7.829  14.926
59281W        W18784  21.129  24.099  13.792
59282W        W18785  29.560   5.255  12.876
59283W        W18786   5.239  20.171   1.233
59284W        W18787  11.369  44.831  12.491
59285W        W18788  24.062   9.742   3.777
59286W        W18789  16.615   5.305   1.903
59287W        W18790  37.484  16.738   1.281
59288W        W18791  22.052  32.612  12.023
59289W        W18792  31.135  20.584  10.942
59290W        W18793  30.439  21.609  13.953
59291W        W18794   4.856  18.184   4.230
59292W        W18795  29.069   4.285   0.271
59293W        W18796  23.146  29.521   4.730
59294W        W18797  20.544  38.896  13.335
59295W        W18798  17.066   0.784   4.621
59296W        W18799  20.267   2.443  14.301
59297W        W18800  24.529   4.297   2.323
59298W        W18801  27.990  35.574  13.889
59299W        W18802   8.331   1.266   1.732
59300W        W18803  37.480  30.983   4.233
59301W        W18804   2.407  20.626   1.818
59302W        W18805  30.629  20.223   4.158
59303W        W18806  23.575  11.162  13.468
59304W        W18807   4.700  31.096  10.438
59305W        W18808  25.670  31.958   4.624
59306W        W18809   3.235  30.072   2.860
59307W        W18810  18.570  23.128  12.004
59308W        W18811  11.326  33.903   9.931
59309W        W18812  12.787  30.025  10.406
59310W        W18813  39.003   1.977  13.947
59311W        W18814  13.845  39.882   0.436
59312W        W18815  11.673  39.029   5.106
59313W        W18816  22.651  17.137  14.911
59314W        W18817  41.492   9.793  13.016
59315W        W18818  35.570  25.050  13.446
59316W        W18819  12.759  29.099   4.273
59317W        W18820  16.745  19.621   0.306
59318W        W18821  33.930   4.439  12.422
59319W        W18822  30.580  13.715   2.254
59320W        W18823  18.700  19.163  13.470
59321W        W18824  13.713  43.897  11.594
59322W        W18825  43.397   3.938   1.786
59323W        W18826   9.181   3.221   2.820
59324W        W18827  16.207  41.908  10.439
59325W        W18828  24.630  28.523  10.437
59326W        W18829   9.240   0.284   3.649
59327W        W18830  15.653   4.361   4.827
59328W        W18831  14.601  29.453  11.065
59329W        W18832  37.496  39.885  11.018
59330W        W18833  23.152  26.598   1.336
59331W        W18834  19.064  14.094  14.798
59332W        W18835   5.321  32.514   2.719
59333W        W18836  10.341  16.099  11.558
59334W        W18837  43.803  26.632   1.743
59335W        W18838  26.173  10.745  14.486
59336W        W18839  41.439  30.506   1.794
59337W        W18840   1.742  36.925   2.360
59338W        W18841  39.438  37.979  11.394
59339W        W18842  29.472  29.489  11.578
59340W        W18843  18.595  16.617  10.474
59341W        W18844  38.546  22.621  13.006
59342W        W18845  15.130   9.771  11.530
59343W        W18846  43.957  36.864  10.979
59344W        W18847  36.378   9.691  11.936
59345W        W18848  43.424  31.055  12.406
59346W        W18849  10.286  16.130   2.197
59347W        W18850  27.528  30.600  14.838
59348W        W18851  22.571   4.813   5.244
59349W        W18852   2.889   0.322   2.850
59350W        W18853   3.432   3.423  10.419
59351W        W18854  33.426  14.192   0.307
59352W        W18855   0.419  39.945   0.363
59353W        W18856   5.288  44.913   4.325
59354W        W18857   5.779  27.076   0.937
59355W        W18858  32.496  16.612   4.115
59356W        W18859  17.153   4.278   2.284
59357W        W18860  23.532  10.672   1.758
59358W        W18861  36.954  28.449   3.776
59359W        W18862  14.098  27.049   4.192
59360W        W18863  24.041  10.314  14.364
59361W        W18864  28.028  30.021   0.868
59362W        W18865  41.521  42.342   1.267
59363W        W18866  21.125   7.194   3.257
59364W        W18867  34.411  44.453   0.781
59365W        W18868   0.329  11.685  13.905
59366W        W18869  39.319  24.676  13.912
59367W        W18870   2.795  15.649   1.266
59368W        W18871  29.483  19.622   5.212
59369W        W18872  44.002  43.344   4.310
59370W        W18873  39.969  39.861   1.239
59371W        W18874  30.108   8.803   2.190
59372W        W18875  22.222  42.824  12.580
59373W        W18876  28.640  29.961  12.576
59374W        W18877  18.129  12.122   2.382
59375W        W18878  38.496  34.469  11.457
59376W        W18879  14.307  33.073  13.475
59377W        W18880  15.134  29.114  11.551
59378W        W18881  25.026  42.385   1.248
59379W        W18882   7.245   5.762  13.017
59380W        W18883   0.344   5.225   2.691
59381W        W18884  26.005  31.464   3.629
59382W        W18885  10.670  13.227   3.865
59383W        W18886  13.644   6.771  12.094
59384W        W18887  35.414   9.873  12.887
59385W        W18888  18.664  24.164  13.956
59386W        W18889  43.404   3.865  13.480
59387W        W18890  31.554  23.109   1.893
59388W        W18891  22.013   1.381   0.732
59389W        W18892   7.193  34.462  12.076
59390W        W18893  34.958  41.304  12.980
59391W        W18894  31.966  32.890  10.563
59392W        W18895  42.961  39.816  14.375
59393W        W18896  14.319   4.859   0.796
59394W        W18897  25.161   9.668  10.131
59395W        W18898  26.491  15.770   3.182
59396W        W18899  31.521  29.595  10.465
59397W        W18900   5.377  34.057  12.505
59398W        W18901  20.123  17.162  14.868
59399W        W18902  10.281  23.211   3.174
59400W        W18903   5.392  40.312  12.410
59401W        W18904   9.292  32.911   0.415
59402W        W18905  24.111  29.466   1.816
59403W        W18906  31.931  14.279  12.370
59404W        W18907  32.939  35.879   4.734
59405W        W18908  39.912  28.477  14.299
59406W        W18909  42.801  44.933   4.167
59407W        W18910   7.210   9.355   4.699
59408W        W18911  14.305  22.552   0.829
59409W        W18912  21.654  40.451  10.927
59410W        W18913  20.574  32.630   4.291
59411W        W18914  15.204  39.977  10.900
59412W        W18915  13.254  40.548  13.009
59413W        W18916  40.327  39.919   1.352
59414W        W18917   4.744   8.228  13.972
59415W        W18918  27.024  13.134   2.820
59416W        W18919  18.107   0.474   2.337
59417W        W18920  23.538  17.672   2.263
59418W        W18921  19.162   8.864  12.442
59419W        W18922  29.531   4.344  10.484
59420W        W18923   9.306  34.549  12.940
59421W        W18924  12.135  20.590  14.498
59422W        W18925  15.118   6.714  14.448
59423W        W18926   5.416  28.580  13.350
59424W        W18927  42.928  44.951  14.363
59425W        W18928  41.518  11.646  12.846
59426W        W18929  12.267  13.679  13.383
59427W        W18930   0.386  33.545   2.722
59428W        W18931  41.464  10.769  14.911
59429W        W18932   3.458  14.294   3.184
59430W        W18933  18.191  14.791   0.902
59431W        W18934  10.302  22.630  14.819
59432W        W18935   5.715  43.435  13.935
59433W        W18936   4.753   3.934  13.442
59434W        W18937  35.472  15.670   0.303
59435W        W18938  32.593  17.623   5.726
59436W        W18939  21.531  34.598  11.999
59437W        W18940  41.816   2.243  10.561
59438W        W18941  12.169   8.380   1.261
59439W        W18942   6.345   7.349  12.512
59440W        W18943   8.696   8.252   1.413
59441W        W18944  15.216   3.731   1.796
59442W        W18945  33.094  11.800   1.733
59443W        W18946  21.097   9.202  13.330
59444W        W18947  10.837  33.460   1.894
59445W        W18948  29.996  30.971   0.385
59446W        W18949  13.754  31.585  11.022
59447W        W18950  30.113  21.085   5.129
59448W        W18951  20.686  11.816   4.746
59449W        W18952  35.060  36.036   3.801
59450W        W18953  40.435  29.587  14.822
59451W        W18954  29.510  22.205  11.594
59452W        W18955  33.399   5.236   2.695
59453W        W18956  23.575  17.140  12.402
59454W        W18957  32.549  29.620   0.747
59455W        W18958  24.638  27.533   1.275
59456W        W18959   0.248  36.366  11.603
59457W        W18960  40.799  29.966   1.354
59458W        W18961  21.059   2.389  13.390
59459W        W18962  40.470  37.956  14.289
59460W        W18963  20.057  43.870  11.542
59461W        W18964  40.407   0.902   1.792
59462W        W18965  22.584  19.205  14.489
59463W        W18966   3.307  16.639   0.386
59464W        W18967  20.684  35.483  10.575
59465W        W18968   4.238  10.260   1.316
59466W        W18969  42.971  11.692   0.276
59467W        W18970  24.010  37.563   4.207
59468W        W18971  12.154  28.436  10.960
59469W        W18972  38.967   1.829   0.419
59470W        W18973  12.637  35.969   4.173
59471W        W18974  42.782  29.971   9.970
59472W        W18975  28.502  28.436  12.836
59473W        W18976  18.670  19.618  11.609
59474W        W18977  35.906  19.683  13.315
59475W        W18978   5.880  26.569   2.392
59476W        W18979  23.087  28.609  13.485
59477W        W18980   7.726  36.582  10.449
59478W        W18981  35.575  30.073   4.609
59479W        W18982  22.581  38.350  14.937
59480W        W18983  19.574   4.338   2.717
59481W        W18984  21.662   3.880  14.816
59482W        W18985  34.576  16.245  12.975
59483W        W18986   6.863  33.598   2.280
59484W        W18987  42.933   3.261  11.489
59485W        W18988   1.863  41.040  10.090
59486W        W18989  25.187  29.106  13.037
59487W        W18990  12.225  31.545   4.300
59488W        W18991   5.421  18.551   0.936
59489W        W18992   2.869  44.435   0.336
59490W        W18993  34.869  16.196   2.333
59491W        W18994  25.095  41.450   4.805
59492W        W18995  28.143  32.400   4.234
59493W        W18996   6.395  25.583  10.492
59494W        W18997   2.940   5.694  12.881
59495W        W18998  26.017   6.309   1.286
59496W        W18999  39.431  11.654  13.366
59497W        W19000  35.962  40.041   1.923
59498W        W19001  24.158  31.963  10.506
59499W        W19002  43.513   1.875   1.904
59500W        W19003  16.768  36.437   0.965
59501W        W19004  22.053   0.438  14.396
59502W        W19005  42.475  38.939   1.737
59503W        W19006  13.651  38.399  10.549
59504W        W19007  17.143  35.872   4.156
59505W        W19008  12.752   5.395   4.347
59506W        W19009  44.920  35.044  11.492
59507W        W19010   7.291  35.418  12.355
59508W        W19011  41.799   4.804  10.580
59509W        W19012  14.792  42.380   2.705
59510W        W19013   0.376  14.304  13.932
59511W        W19014  28.588   3.394  12.379
59512W        W19015  40.383  36.592   1.891
59513W        W19016   7.712  19.086   5.112
59514W        W19017  39.434  31.630  14.350
59515W        W19018  23.645  17.167  12.993
59516W        W19019  22.246  35.520  13.469
59517W        W19020  41.364  37.492   3.691
59518W        W19021  27.654  32.006   3.248
59519W        W19022  21.107  22.630   4.198
59520W        W19023   4.817  14.252   4.833
59521W        W19024  35.533   4.855  11.556
59522W        W19025  33.414   5.856  14.460
59523W        W19026  21.188  28.648  11.890
59524W        W19027   6.260  11.777  13.015
59525W        W19028  43.438  10.268  11.484
59526W        W19029  23.028  42.328   5.295
59527W        W19030  40.379   9.151   1.859
59528W        W19031  11.803  14.728  10.608
59529W        W19032  30.590   4.333  10.954
59530W        W19033  32.615  38.422  12.883
59531W        W19034  42.809  33.569   2.298
59532W        W19035  30.622   7.800   3.156
59533W        W19036   0.466   8.270  14.857
59534W        W19037  32.970  25.103   4.758
59535W        W19038  24.479   2.836   2.419
59536W        W19039   5.923  17.692   4.235
59537W        W19040  11.758  10.216   4.343
59538W        W19041  41.347   1.259  11.041
59539W        W19042  12.350  17.176   0.896
59540W        W19043   5.725   3.276  10.893
59541W        W19044  14.632   1.320  14.324
59542W        W19045   5.705   5.771   2.831
59543W        W19046  34.095  37.062  11.893
59544W        W19047  27.122  23.559  10.975
59545W        W19048   4.206  20.724  10.633
59546W        W19049  28.149   5.320   1.256
59547W        W19050   9.656  26.513   4.161
59548W        W19051  23.219  18.569   4.789
59549W        W19052  28.462  29.525  12.461
59550W        W19053   0.319  20.640  13.884
59551W        W19054  16.255  34.503   2.691
59552W        W19055  28.483  27.147   3.152
59553W        W19056  17.742  35.413   2.692
59554W        W19057  39.986  13.696   2.389
59555W        W19058   6.680  16.704   2.398
59556W        W19059  20.694  11.632  13.457
59557W        W19060  34.904  10.200   2.764
59558W        W19061  10.830  33.387   2.862
59559W        W19062  38.476   0.938  12.071
59560W        W19063  40.489  33.500   0.448
59561W        W19064  25.576  30.543   3.305
59562W        W19065  20.096   0.445  14.007
59563W        W19066  13.822  14.811   1.874
59564W        W19067  26.472  31.418  10.428
59565W        W19068  41.808  24.588   3.743
59566W        W19069  43.300  19.596  14.869
59567W        W19070  33.395  29.996   1.393
59568W        W19071  42.942  24.541   1.878
59569W        W19072  30.648   7.893  10.443
59570W        W19073  25.107  28.454   0.751
59571W        W19074  35.904  14.104   2.377
59572W        W19075   7.715   3.941  12.431
59573W        W19076  43.798  29.424  14.766
59574W        W19077  11.782  13.830   2.376
59575W        W19078  35.514  14.339  14.984
59576W        W19079  18.741   0.792  12.068
59577W        W19080  18.789  22.207   0.728
59578W        W19081  12.706  24.180   1.883
59579W        W19082   3.236  41.536  14.461
59580W        W19083  41.444  23.113   4.237
59581W        W19084  17.095   7.721  13.372
59582W        W19085  41.865  27.604   4.680
59583W        W19086  10.632  20.139   0.816
59584W        W19087  16.635  37.505   0.930
59585W        W19088  37.532  16.645   2.865
59586W        W19089  37.514   7.198   3.792
59587W        W19090  15.256  12.258  10.534
59588W        W19091   7.808  30.123   0.933
59589W        W19092  37.477  28.179   4.163
59590W        W19093  37.361   9.686   0.319
59591W        W19094  37.409  21.548  11.078
59592W        W19095  33.610   8.302  11.515
59593W        W19096  17.298   4.737  12.884
59594W        W19097  22.041   6.810  14.871
59595W        W19098  36.917  11.653  12.378
59596W        W19099  13.321  37.434   0.935
59597W        W19100   2.266  33.940   3.660
59598W        W19101   8.871   9.152   3.301
59599W        W19102   1.768  21.059   1.732
59600W        W19103   9.318   0.343   0.803
59601W        W19104  42.921  36.944   3.854
59602W        W19105  13.267  13.106   1.261
59603W        W19106  19.612  35.461   1.927
59604W        W19107  36.347  41.786   3.346
59605W        W19108  28.676  19.281   2.309
59606W        W19109   6.805  35.426   2.727
59607W        W19110  24.672  19.580  11.473
59608W        W19111  36.581  44.979   0.464
59609W        W19112  27.124  40.957  11.563
59610W        W19113  15.706  33.514  10.499
59611W        W19114  23.179   0.483   2.260
59612W        W19115  36.592  37.964   3.240
59613W        W19116   8.824  22.687   0.381
59614W        W19117  29.598  42.860   1.233
59615W        W19118  24.135  27.456   0.299
59616W        W19119  15.164  11.814  11.978
59617W        W19120  12.298  40.329  10.471
59618W        W19121  30.136  22.102  13.021
59619W        W19122   6.356  44.830  13.970
59620W        W19123   8.844  12.726  13.417
59621W        W19124   4.205  42.973  13.400
59622W        W19125   9.677  10.245  13.811
59623W        W19126  42.384  27.990  14.438
59624W        W19127   3.319  28.457  14.807
59625W        W19128  32.628  28.958   1.211
59626W        W19129  43.396   5.901   1.332
59627W        W19130  24.710  34.954  13.985
59628W        W19131  42.514  44.321  11.516
59629W        W19132   5.439  17.290   4.315
59630W        W19133   1.776   4.782  13.506
59631W        W19134  35.554  12.196  11.091
59632W        W19135  28.094  43.851   4.697
59633W        W19136  41.799  16.647   1.400
59634W        W19137   9.810  17.572  13.317
59635W        W19138  34.375  32.408   1.824
59636W        W19139  33.575  17.633  12.831
59637W        W19140  41.910   7.331   1.238
59638W        W19141   9.886  42.894  12.434
59639W        W19142  17.246   3.365  13.463
59640W        W19143  36.480  42.936  10.487
59641W        W19144  26.992  23.019  14.937
59642W        W19145  20.189   9.646  11.414
59643W        W19146  26.600  16.807   0.949
59644W        W19147  38.851  31.114  12.525
59645W        W19148  29.590  42.778   2.824
59646W        W19149  37.539  41.465   3.859
59647W        W19150  15.798   7.880   2.893
59648W        W19151  30.477  17.192   2.382
59649W        W19152  16.591  43.879   1.704
59650W        W19153  35.471  16.617  13.927
59651W        W19154   5.845  15.627  10.134
59652W        W19155   7.356  15.648  14.928
59653W        W19156  38.430  23.043   3.214
59654W        W19157  11.192  19.574  10.982
59655W        W19158  37.918  18.684  12.570
59656W        W19159  10.769   1.298  13.042
59657W        W19160   5.322  33.896  12.889
59658W        W19161  29.999  23.677  11.099
59659W        W19162  21.197  34.025  11.471
59660W        W19163  38.839   8.170   3.354
59661W        W19164  23.233  38.966  10.410
59662W        W19165   2.946  34.005  10.891
59663W        W19166  13.228   6.339   3.249
59664W        W19167  38.938  39.522   0.728
59665W        W19168   2.460   2.793  12.578
59666W        W19169  35.443  26.069  13.427
59667W        W19170   7.331  36.572   2.335
59668W        W19171  28.484  30.568   0.821
59669W        W19172   9.200  42.993   0.844
59670W        W19173  42.899  43.404  10.571
59671W        W19174  16.300  41.938   4.349
59672W        W19175   9.660  41.412   1.903
59673W        W19176   3.303  36.503  10.981
59674W        W19177  14.605  41.384  13.456
59675W        W19178  40.961  19.737  13.888
59676W        W19179  33.943   7.388   3.341
59677W        W19180  25.520  33.987   2.225
59678W        W19181  38.849  19.162  11.085
59679W        W19182  25.003  19.687   0.380
59680W        W19183  26.042  16.681  14.999
59681W        W19184   9.667   8.298  11.431
59682W        W19185  20.736  36.885  12.432
59683W        W19186  20.629  13.154   3.754
59684W        W19187  33.882  16.638  13.484
59685W        W19188   0.304  22.999  13.926
59686W        W19189  17.225  43.793   3.700
59687W        W19190  19.098  17.111   2.716
59688W        W19191  23.093  39.432   4.656
59689W        W19192   3.873  10.240  14.890
59690W        W19193   3.251  19.725  10.625
59691W        W19194  40.902  34.088  14.983
59692W        W19195  20.633   1.426  13.451
59693W        W19196  24.718   4.911  10.894
59694W        W19197  25.604   9.673  12.480
59695W        W19198  17.157  19.195  11.532
59696W        W19199  23.995  27.166   3.196
59697W        W19200  19.141  30.626  11.855
59698W        W19201  12.259  23.116   0.836
59699W        W19202   1.837  31.922   0.776
59700W        W19203  38.055   7.834  12.409
59701W        W19204   3.849  43.913  14.359
59702W        W19205  13.349  22.241   1.300
59703W        W19206   2.868   7.857  13.313
59704W        W19207  32.098   1.334   5.254
59705W        W19208  15.779  43.008  12.899
59706W        W19209  35.049  30.597   1.712
59707W        W19210   9.173  30.467  14.452
59708W        W19211  21.577  24.617   0.743
59709W        W19212  10.381   1.359   0.913
59710W        W19213   7.854  37.070   1.296
59711W        W19214  15.211  26.490   2.304
59712W        W19215  28.640  39.376  13.939
59713W        W19216  20.579  20.176  13.458
59714W        W19217  26.700   0.415  11.111
59715W        W19218  16.148  35.047  12.562
59716W        W19219  24.157  13.157   4.133
59717W        W19220  29.982  19.763   0.845
59718W        W19221  39.029  14.141   5.252
59719W        W19222  14.223  18.129   4.322
59720W        W19223  43.964  28.519  12.841
59721W        W19224  22.506  33.885   4.189
59722W        W19225  20.223  19.536   1.861
59723W        W19226   6.880  27.677   3.729
59724W        W19227   7.238  30.076  11.128
59725W        W19228  10.827   6.753   0.388
59726W        W19229  22.697   7.249  14.477
59727W        W19230  36.996   2.919  13.421
59728W        W19231  22.128  23.567  12.088
59729W        W19232  29.028   9.661  10.495
59730W        W19233  42.976   1.430   1.266
59731W        W19234  24.184   2.801   3.171
59732W        W19235  15.690  42.500  11.952
59733W        W19236  28.595  36.935  11.863
59734W        W19237   4.860  36.524  13.318
59735W        W19238   6.281   5.343   4.824
59736W        W19239  31.096  43.406  11.029
59737W        W19240  36.939  13.138   1.232
59738W        W19241   1.441  31.011  13.446
59739W        W19242  27.512  41.314   1.720
59740W        W19243  27.604  19.070  14.882
59741W        W19244  36.894   3.306   2.417
59742W        W19245   0.470  25.521   3.694
59743W        W19246  22.127  28.048  14.357
59744W        W19247   4.766  28.534   2.885
59745W        W19248  13.795   4.715  10.027
59746W        W19249  11.341  40.527  11.126
59747W        W19250  22.012  20.055  13.974
59748W        W19251   6.743  15.720   0.474
59749W        W19252   2.899  40.506   4.684
59750W        W19253  37.940   0.772  11.030
59751W        W19254   2.913   3.728  13.054
59752W        W19255  40.942  35.584  14.955
59753W        W19256  26.562  20.708   0.851
59754W        W19257  34.390  13.832   3.241
59755W        W19258  12.658  33.924   0.311
59756W        W19259  43.011   5.198  14.297
59757W        W19260  11.630  20.585   0.960
59758W        W19261  44.427  10.354   9.948
59759W        W19262  32.136   2.919   1.351
59760W        W19263  21.612  28.040   1.345
59761W        W19264  29.979  25.998  12.883
59762W        W19265  43.003  44.492   0.428
59763W        W19266  32.499  28.460   4.139
59764W        W19267  32.468  11.862   2.318
59765W        W19268  21.258  25.676   0.381
59766W        W19269  12.148   6.730   3.838
59767W        W19270   2.792  41.306  14.360
59768W        W19271   4.342  21.099   0.383
59769W        W19272  28.445  32.419   4.764
59770W        W19273  26.529  39.034  13.431
59771W        W19274  16.762   4.322  14.454
59772W        W19275   3.847   0.872   9.547
59773W        W19276  26.165  16.230   4.647
59774W        W19277  34.563  39.439  10.943
59775W        W19278  40.051  43.313  14.815
59776W        W19279  31.612  41.473  10.942
59777W        W19280  40.500  15.610  11.031
59778W        W19281   5.389  32.410   2.300
59779W        W19282  17.598  28.451   4.248
59780W        W19283  26.508  14.827  10.887
59781W        W19284   7.797   5.699   1.227
59782W        W19285  39.379  24.484   4.257
59783W        W19286  11.722  31.507   4.605
59784W        W19287  33.481   8.879   2.335
59785W        W19288   6.741  43.961  12.826
59786W        W19289  19.692  24.580  14.472
59787W        W19290  35.904  23.180  13.478
59788W        W19291  20.740  18.187  13.918
59789W        W19292  41.502  42.497   2.722
59790W        W19293  36.582  17.657   2.399
59791W        W19294   6.313   8.820   2.358
59792W        W19295  18.763   6.698   1.736
59793W        W19296  28.939  20.648  11.448
59794W        W19297  14.276  39.869  14.859
59795W        W19298   2.254  19.557  12.370
59796W        W19299   5.826   4.824  12.387
59797W        W19300  29.576  44.991  14.342
59798W        W19301  38.531  24.150   4.233
59799W        W19302  22.706  35.008  13.921
59800W        W19303  33.600   0.290   0.837
59801W        W19304   1.901  34.514  12.456
59802W        W19305  10.167  17.631   1.777
59803W        W19306  10.719   6.299   0.251
59804W        W19307  15.594  10.826  13.386
59805W        W19308   3.362   1.389  10.989
59806W        W19309   6.339  20.253   0.331
59807W        W19310   1.798  36.552  12.548
59808W        W19311  19.041  22.666  10.586
59809W        W19312  35.887   4.765  10.975
59810W        W19313  34.878  33.086   1.336
59811W        W19314  40.981  34.498   2.767
59812W        W19315  21.750  14.294   0.300
59813W        W19316  20.146   9.872  14.465
59814W        W19317   2.818  11.275   0.319
59815W        W19318  37.973  20.655   2.698
59816W        W19319  38.380   6.317   1.805
59817W        W19320  34.010  18.132  11.572
59818W        W19321  10.648  40.532   1.735
59819W        W19322   6.839   3.756  14.294
59820W        W19323   4.381  36.483   1.381
59821W        W19324  30.128  34.026   3.209
59822W        W19325  30.060  30.060   3.830
59823W        W19326  13.293   5.769  13.837
59824W        W19327   6.903  21.636  13.419
59825W        W19328   2.822  41.987   5.659
59826W        W19329  43.479   3.392   2.838
59827W        W19330   3.847  30.529   1.239
59828W        W19331  16.133  42.306   2.813
59829W        W19332  14.675  40.492  13.932
59830W        W19333  36.847  31.148   1.309
59831W        W19334  20.566  13.625  13.957
59832W        W19335   6.189   6.296   0.473
59833W        W19336   0.447  28.457  14.816
59834W        W19337  17.684   5.408  11.458
59835W        W19338   5.725  43.852   2.306
59836W        W19339  13.295   7.751   1.253
59837W        W19340  26.159   2.928  10.564
59838W        W19341  22.667  16.195   2.899
59839W        W19342  15.284  23.500   1.717
59840W        W19343  31.420  33.078  10.617
59841W        W19344  12.801  25.093   0.841
59842W        W19345  38.893  26.468  13.502
59843W        W19346  37.946  18.205   2.835
59844W        W19347  17.560  33.581   2.379
59845W        W19348  43.315  38.460  12.437
59846W        W19349  42.490  18.085  14.954
59847W        W19350  22.038   4.419  10.594
59848W        W19351  39.810  28.554   4.769
59849W        W19352  41.959  14.107   4.745
59850W        W19353  22.544  23.707   3.216
59851W        W19354  43.379  30.415   4.176
59852W        W19355  33.457  22.145  13.927
59853W        W19356  37.414  32.969  14.869
59854W        W19357  31.911  31.481  13.928
59855W        W19358   1.831  43.793   0.333
59856W        W19359  17.652  32.956   3.731
59857W        W19360  44.452  18.655   9.483
59858W        W19361  22.019  29.539   2.284
59859W        W19362  38.821  36.986   0.762
59860W        W19363   3.829  36.361  10.938
59861W        W19364  12.288  33.977  12.987
59862W        W19365   7.833  36.416   4.229
59863W        W19366  32.614  20.151  14.432
59864W        W19367  28.443  36.028  11.055
59865W        W19368  17.751  39.934   0.868
59866W        W19369  36.473  40.993   3.168
59867W        W19370   9.736  30.542   1.395
59868W        W19371   0.950  27.941   0.437
59869W        W19372  37.855  32.905   2.823
59870W        W19373  39.527   9.852   0.967
59871W        W19374  14.621  44.876  10.999
59872W        W19375  19.621  44.828   1.896
59873W        W19376  18.771  15.705   3.695
59874W        W19377  23.572  25.528   0.413
59875W        W19378  38.000  12.720   0.295
59876W        W19379  25.578  11.279  13.432
59877W        W19380  42.821  24.149   3.769
59878W        W19381  41.345  18.231  11.987
59879W        W19382  36.967  43.911   2.783
59880W        W19383   4.773   1.972   3.699
59881W        W19384  21.524  30.008  10.976
59882W        W19385  32.888   9.371   2.218
59883W        W19386  20.119  38.073  12.435
59884W        W19387  28.127  32.091  13.480
59885W        W19388   4.916  21.748  14.781
59886W        W19389  26.006  36.040   2.322
59887W        W19390  44.306  20.542  11.947
59888W        W19391  10.736  21.511   1.281
59889W        W19392  20.599   0.774  10.000
59890W        W19393  41.317  39.968   3.726
59891W        W19394  28.009  23.190  14.443
59892W        W19395  26.053  28.132   3.832
59893W        W19396  10.653  31.474  12.043
59894W        W19397  18.724  23.077   0.902
59895W        W19398  25.191  44.773   0.319
59896W        W19399   5.217  20.246  12.085
59897W        W19400  27.148  39.455   2.725
59898W        W19401  39.375  11.274   3.384
59899W        W19402  41.317  42.382  10.913
59900W        W19403  20.594  33.960  10.448
59901W        W19404   2.808   1.446  14.821
59902W        W19405   1.321  11.213  13.512
59903W        W19406  26.516  38.398  14.935
59904W        W19407  31.471  34.402   4.303
59905W        W19408  23.642  10.776  11.885
59906W        W19409  36.930  22.997  10.485
59907W        W19410  21.665   1.258   9.979
59908W        W19411  17.562   0.914  12.860
59909W        W19412  11.203  38.358  11.039
59910W        W19413  10.308  25.963   2.878
59911W        W19414   1.791  40.818   4.727
59912W        W19415  13.824  26.131  11.888
59913W        W19416  25.563  18.191   0.885
59914W        W19417  43.386  30.163  11.416
59915W        W19418  19.164  18.253  11.402
59916W        W19419  10.770  28.556  14.811
59917W        W19420  41.460  12.688   4.628
59918W        W19421  29.445  27.604   3.204
59919W        W19422  41.403  41.004   3.814
59920W        W19423  20.632  11.219   3.355
59921W        W19424  23.195  20.218  13.399
59922W        W19425  20.119  33.020  10.444
59923W        W19426   7.725  14.189   1.395
59924W        W19427  41.842   5.707   3.176
59925W        W19428  27.511  33.875   3.855
59926W        W19429  26.088  27.140  14.927
59927W        W19430   7.381  18.722   2.822
59928W        W19431  22.557  13.609   2.827
59929W        W19432  44.394  32.573  11.859
59930W        W19433  40.881  13.299  12.850
59931W        W19434  43.931  44.302  12.971
59932W        W19435   9.665  34.897   1.718
59933W        W19436  36.909  29.501  13.397
59934W        W19437   3.306   9.385  12.831
59935W        W19438  41.389  37.905  14.306
59936W        W19439   8.756  42.941   1.238
59937W        W19440   8.299  10.233  12.061
59938W        W19441  28.575  23.231   0.750
59939W        W19442  15.159   9.671   4.153
59940W        W19443  44.390   6.337  12.978
59941W        W19444   0.973  10.838  12.046
59942W        W19445   1.381  21.229   4.802
59943W        W19446  30.911   6.297   3.368
59944W        W19447   6.190  38.427   4.655
59945W        W19448   3.724  34.002   3.692
59946W        W19449  37.959   3.292   2.296
59947W        W19450  20.256  14.279  12.445
59948W        W19451  24.693  26.571   1.334
59949W        W19452  42.903  13.760  14.499
59950W        W19453  11.722  41.904   2.295
59951W        W19454  28.634   4.320  13.046
59952W        W19455  26.147  18.168   0.327
59953W        W19456   9.205   8.860  14.436
59954W        W19457  44.467  16.078  13.878
59955W        W19458  29.596   6.257  12.983
59956W        W19459  27.108   6.731  11.522
59957W        W19460  43.822  16.213   1.320
59958W        W19461   6.784  27.147  13.476
59959W        W19462  18.554  39.437   2.238
59960W        W19463   6.421  14.807   1.714
59961W        W19464  34.486  23.193   3.716
59962W        W19465  30.456  15.207   2.328
59963W        W19466  36.078  27.962   4.801
59964W        W19467  41.934  38.877   4.214
59965W        W19468  15.603  34.612   5.162
59966W        W19469  32.887  23.663   3.858
59967W        W19470   8.837  17.125  11.018
59968W        W19471  31.082   0.876   0.923
59969W        W19472  26.187  22.157  12.558
59970W        W19473  23.709  10.202  12.366
59971W        W19474  32.067  33.995  14.511
59972W        W19475   6.740   7.672  12.932
59973W        W19476   3.361  23.664  13.877
59974W        W19477   8.248   6.776   4.322
59975W        W19478  21.138   5.328   1.844
59976W        W19479  15.600  32.906   2.229
59977W        W19480  18.182  19.657  11.604
59978W        W19481  36.038  18.292  12.580
59979W        W19482  18.571   6.867   3.699
59980W        W19483  28.147   8.694   1.357
59981W        W19484   5.251  41.429  12.413
59982W        W19485   5.342  44.901  10.591
59983W        W19486   2.411  38.853   2.828
59984W        W19487  32.989  37.841  13.329
59985W        W19488  30.036  28.039   1.295
59986W        W19489  44.825  21.736   2.231
59987W        W19490  36.476  16.292   1.807
59988W        W19491  17.793  29.497   0.847
59989W        W19492  13.286  42.286  12.949
59990W        W19493   6.710   8.328  11.470
59991W        W19494  14.720   3.824   1.733
59992W        W19495  33.881  44.316  14.367
59993W        W19496  20.617  13.690   3.720
59994W        W19497  10.838   2.889   0.431
59995W        W19498  41.822  25.994  14.950
59996W        W19499   8.398  11.365   3.273
59997W        W19500  18.564  36.074   4.605
59998W        W19501  40.398  14.205   2.763
59999W        W19502  44.375  11.238   4.339
60000W        W19503  22.703  23.000  14.821
60001W        W19504  33.480  39.035   4.264
60002W        W19505  23.228  34.584  12.442
60003W        W19506  43.391  20.734  12.384
60004W        W19507  30.627  34.460   4.820
60005W        W19508  33.492  36.842  12.060
60006W        W19509  13.218  28.171  14.383
60007W        W19510  11.265  16.683   0.472
60008W        W19511   0.921   8.753  14.973
60009W        W19512  11.313  24.505   1.330
60010W        W19513  29.973  22.560  11.515
60011W        W19514   3.934  42.423  10.091
60012W        W19515  41.985  38.004  10.904
60013W        W19516   9.374  23.178  14.772
60014W        W19517  30.072  16.127   0.444
60015W        W19518  19.049  23.157   2.856
60016W        W19519  20.563  22.024  11.595
60017W        W19520   7.400   3.720   3.777
60018W        W19521   4.935  28.434   0.362
60019W        W19522  14.144  18.284  14.382
60020W        W19523  22.049  21.655  13.345
60021W        W19524  25.684  31.593  12.875
60022W        W19525  17.153  22.600   3.157
60023W        W19526  38.362  44.289  10.571
60024W        W19527  37.059  33.905  10.920
60025W        W19528  20.699   0.793   0.345
60026W        W19529  32.592  27.139   2.301
60027W        W19530  35.422   7.814   4.638
60028W        W19531  25.143  34.088   3.384
60029W        W19532  21.124  24.974  10.594
60030W        W19533  25.968  42.455   1.309
60031W        W19534  34.428  31.563  14.973
60032W        W19535  40.875  40.421   2.708
60033W        W19536  17.114  24.715   2.727
60034W        W19537   6.341  42.492   1.872
60035W        W19538  35.437  28.531   3.252
60036W        W19539  13.119  15.632  11.376
60037W        W19540  31.090   9.208   4.348
60038W        W19541  43.301  35.381   3.277
60039W        W19542  13.281  26.599  10.979
60040W        W19543  35.409   4.908   0.832
60041W        W19544  20.702  20.269   2.805
60042W        W19545   6.207  32.939   2.865
60043W        W19546  24.997  15.161   0.961
60044W        W19547  23.193   3.841   2.304
60045W        W19548   3.761  32.995  14.767
60046W        W19549  36.579  40.323   3.263
60047W        W19550   5.230  10.867  14.029
60048W        W19551  16.663  35.465  10.941
60049W        W19552   6.369  31.455   0.314
60050W        W19553   5.395  31.440  13.017
60051W        W19554  41.335  17.696   0.408
60052W        W19555  27.691  23.987   3.351
60053W        W19556  21.617  38.030   4.245
60054W        W19557  34.449  27.978  12.823
60055W        W19558  24.126  11.236  13.909
60056W        W19559  41.857  41.364   1.847
60057W        W19560  11.146  40.312  11.533
60058W        W19561  41.354   3.337  12.979
60059W        W19562  18.726  35.076   3.171
60060W        W19563  38.443  11.729   0.952
60061W        W19564   2.317  33.403  10.005
60062W        W19565  13.125  13.341  11.461
60063W        W19566  11.319  22.185  12.461
60064W        W19567  27.524  15.283   2.779
60065W        W19568  17.083  23.167   1.423
60066W        W19569  16.218   5.314   2.880
60067W        W19570  29.654   5.225  11.069
60068W        W19571   4.404  16.301   2.720
60069W        W19572  44.001  27.463  14.834
60070W        W19573  15.129  18.158   1.733
60071W        W19574   7.773  29.441   0.450
60072W        W19575  37.518  34.576  12.072
60073W        W19576  29.657  20.028   4.251
60074W        W19577  10.643  21.034  10.157
60075W        W19578   0.963  42.330   1.219
60076W        W19579  24.487  25.539  14.464
60077W        W19580  27.518   8.828   3.650
60078W        W19581  24.162  18.173  12.543
60079W        W19582  27.112  33.464  14.018
60080W        W19583   9.271  27.460   1.903
60081W        W19584  43.296   1.423  14.832
60082W        W19585  34.423  44.963   3.330
60083W        W19586  35.855   7.337  10.045
60084W        W19587  36.528  20.248  10.971
60085W        W19588  21.165   6.876   1.734
60086W        W19589  39.813  32.041   0.297
60087W        W19590   2.933  23.608   1.233
60088W        W19591   6.411  43.844   4.264
60089W        W19592  24.628  32.514   0.909
60090W        W19593  35.588  43.972   1.818
60091W        W19594  24.715  34.032   1.311
60092W        W19595  42.427   8.893   4.640
60093W        W19596  18.736  41.409   4.635
60094W        W19597  37.479   0.472  14.874
60095W        W19598   4.834  25.119  12.979
60096W        W19599  14.634  40.853   4.716
60097W        W19600  38.451   4.230   1.910
60098W        W19601  31.938  11.809  13.790
60099W        W19602  11.341  10.163   2.829
60100W        W19603  39.848  30.950  12.001
60101W        W19604  35.387   5.695  12.443
60102W        W19605  37.915  29.577  13.864
60103W        W19606  21.140  37.488  13.883
60104W        W19607  11.685  39.833  14.765
60105W        W19608  26.065  15.244   4.729
60106W        W19609  23.241  24.995   4.234
60107W        W19610  25.186  25.049   1.327
60108W        W19611   5.302  42.334   2.843
60109W        W19612  32.441  29.158   0.329
60110W        W19613  29.927   6.714   2.743
60111W        W19614  29.063  19.099   1.449
60112W        W19615  17.634  24.621   1.226
60113W        W19616  22.134  35.478  14.958
60114W        W19617  44.445  42.981   1.770
60115W        W19618  12.196  37.400   0.288
60116W        W19619  18.157  39.350  11.429
60117W        W19620  40.934  41.938  14.831
60118W        W19621  17.753  17.716  14.886
60119W        W19622  36.077   6.228   3.258
60120W        W19623  40.524  41.335  12.352
60121W        W19624  35.525  38.996  11.391
60122W        W19625   2.938  43.798   1.261
60123W        W19626  24.054  40.400   3.777
60124W        W19627  13.642  14.284   1.700
60125W        W19628  12.682   7.223   0.471
60126W        W19629   7.680  21.560   2.393
60127W        W19630  30.658  21.052   4.696
60128W        W19631  23.047   2.873   4.196
60129W        W19632  39.432  28.678  11.976
60130W        W19633  28.966  35.371   2.866
60131W        W19634  34.902  23.065   3.711
60132W        W19635   1.284  24.003   4.728
60133W        W19636  20.723  12.259  11.876
60134W        W19637  18.285  39.038  11.406
60135W        W19638  34.500  31.632   2.677
60136W        W19639   2.944  28.944  12.831
60137W        W19640  38.393  11.642   4.838
60138W        W19641  13.310   8.776   2.413
60139W        W19642   8.294  40.037  14.276
60140W        W19643   0.331  41.395   2.247
60141W        W19644   3.283  36.395   0.780
60142W        W19645   8.759  32.996  12.085
60143W        W19646  16.578  28.022   1.935
60144W        W19647  37.407  39.338   4.352
60145W        W19648  35.385  39.415   1.342
60146W        W19649  16.582  41.995   3.351
60147W        W19650  28.503  23.598   4.659
60148W        W19651  42.809  17.240  14.788
60149W        W19652  31.502  21.581  12.031
60150W        W19653  29.461  32.061   2.823
60151W        W19654  21.238  37.447   0.804
60152W        W19655  13.277   9.668  10.906
60153W        W19656  29.113  40.475  12.348
60154W        W19657   2.722  20.523  11.534
60155W        W19658   5.224  36.593  10.976
60156W        W19659   2.828   1.424  13.890
60157W        W19660  38.554   4.413  14.432
60158W        W19661  44.819  33.881   1.888
60159W        W19662  23.072  37.357  12.918
60160W        W19663   0.248  16.707   4.715
60161W        W19664  43.898  35.565   3.787
60162W        W19665  36.463  26.030   1.834
60163W        W19666  16.160  31.922  11.925
60164W        W19667  43.481  13.603  14.844
60165W        W19668  32.895   4.316  13.941
60166W        W19669  31.966   5.384  14.289
60167W        W19670  33.574  15.218  12.404
60168W        W19671   5.924  35.854  12.939
60169W        W19672  32.004  11.856   1.312
60170W        W19673  33.493   7.740  14.332
60171W        W19674  20.526  32.498  11.002
60172W        W19675  12.314  15.700   3.167
60173W        W19676  42.410  44.942  10.597
60174W        W19677  44.834  31.064   1.746
60175W        W19678  24.599  20.129  13.877
60176W        W19679   4.702  36.015   5.112
60177W        W19680  28.445  11.202  10.538
60178W        W19681  19.600  32.032  10.975
60179W        W19682  27.572   5.395   4.716
60180W        W19683  41.804  43.326   0.444
60181W        W19684  29.617  33.895   0.779
60182W        W19685  30.515  19.111  13.495
60183W        W19686  41.487  31.498  11.937
60184W        W19687  15.265   7.803  13.454
60185W        W19688   4.226   3.350  10.637
60186W        W19689  40.430   6.725   2.851
60187W        W19690   2.848  31.572   2.783
60188W        W19691  25.531  31.614  13.332
60189W        W19692  33.408   2.950  13.492
60190W        W19693  26.012  33.493  10.541
60191W        W19694  33.006  41.304  14.805
60192W        W19695  31.927  21.136   5.102
60193W        W19696   4.713  34.604  14.945
60194W        W19697  31.593  29.553   0.306
60195W        W19698  28.516   6.223  12.922
60196W        W19699  39.065  36.490   5.286
60197W        W19700  30.105  18.081  11.508
60198W        W19701  42.846   1.910   1.864
60199W        W19702  17.072  33.394   1.451
60200W        W19703   5.313  23.005  13.506
60201W        W19704  31.569  33.535   4.253
60202W        W19705  42.787   2.322  12.481
60203W        W19706  29.624  24.507  11.959
60204W        W19707   0.987  30.970   3.227
60205W        W19708  41.349  27.131   4.719
60206W        W19709  22.625   1.935  10.153
60207W        W19710  21.113  17.108  14.468
60208W        W19711  22.746  39.503  13.927
60209W        W19712  17.198  22.121  13.956
60210W        W19713  28.673  28.097  10.427
60211W        W19714  10.729  21.199  14.299
60212W        W19715  23.115  18.707   3.202
60213W        W19716  26.192  26.603  11.085
60214W        W19717  23.504  22.181  12.511
60215W        W19718   5.241  11.755   4.177
60216W        W19719   7.736  12.210  10.556
60217W        W19720  44.858  16.318  13.399
60218W        W19721  34.455   4.272   4.793
60219W        W19722  44.282  20.073  11.856
60220W        W19723  25.480  25.546   1.440
60221W        W19724  10.206  12.622  10.588
60222W        W19725   7.697  42.423   1.396
60223W        W19726  29.633  36.887  14.342
60224W        W19727  22.144   7.390   0.734
60225W        W19728  18.760  18.633  10.988
60226W        W19729   4.933   4.807  14.376
60227W        W19730  39.975  25.098  10.963
60228W        W19731  11.630  32.093  12.438
60229W        W19732  24.676   1.350  14.829
60230W        W19733  25.126  25.002  10.603
60231W        W19734  13.140  37.071   3.311
60232W        W19735  10.212  21.558  12.975
60233W        W19736  22.631  25.506  12.542
60234W        W19737  11.244  26.566  10.998
60235W        W19738   3.220  24.667  12.525
60236W        W19739   1.245  15.793  12.095
60237W        W19740   9.393  27.955  10.542
60238W        W19741  18.054  18.695   0.392
60239W        W19742   5.374  19.577  12.435
60240W        W19743  31.620  10.339  13.792
60241W        W19744  28.144  42.872  13.372
60242W        W19745  40.428  30.605  12.958
60243W        W19746  25.613   2.406   1.223
60244W        W19747  44.463  31.908   5.305
60245W        W19748   6.353  26.694   4.655
60246W        W19749  31.416   6.222  11.605
60247W        W19750  44.914   6.216   4.754
60248W        W19751  25.061  33.930   4.631
60249W        W19752  16.587  44.979  12.996
60250W        W19753  29.149  28.612   0.733
60251W        W19754  40.006  17.267  13.523
60252W        W19755  37.835  20.752   1.438
60253W        W19756  44.947   7.234  12.553
60254W        W19757  32.919  19.713  13.012
60255W        W19758  29.513  21.069   0.867
60256W        W19759  11.341   5.820   2.703
60257W        W19760   1.251  40.340  11.928
60258W        W19761  36.897  40.321   4.238
60259W        W19762  12.845  44.259  14.302
60260W        W19763  20.583  14.304  14.831
60261W        W19764  20.765  19.234  10.935
60262W        W19765  36.373  39.955   0.293
60263W        W19766   7.692  21.711  12.411
60264W        W19767  12.343  38.996  11.495
60265W        W19768  17.700  14.710   0.388
60266W        W19769   7.224  38.377   1.243
60267W        W19770   3.915  19.182  11.934
60268W        W19771  43.350  19.561  13.922
60269W        W19772  39.894  31.648   4.253
60270W        W19773   1.290  29.939  11.386
60271W        W19774  20.132  24.664  14.503
60272W        W19775  37.360  20.732   0.344
60273W        W19776  34.008   2.812   2.804
60274W        W19777  36.531  35.883   0.418
60275W        W19778  10.254   9.856  12.362
60276W        W19779  10.771   8.754  10.988
60277W        W19780  14.606   1.842   1.353
60278W        W19781  37.027  22.172   1.854
60279W        W19782  15.238  11.788   2.689
60280W        W19783  19.058  38.429   1.418
60281W        W19784  37.839  14.735  12.489
60282W        W19785   4.395  36.083  14.961
60283W        W19786  41.852  11.798   1.441
60284W        W19787  21.091  33.932   4.774
60285W        W19788  22.541  19.203  14.791
60286W        W19789  43.926  21.623  14.949
60287W        W19790  27.685  40.897  13.926
60288W        W19791  36.921  23.009   3.787
60289W        W19792  22.220  23.082   2.269
60290W        W19793  15.758  18.273  10.419
60291W        W19794  12.268   0.875  13.378
60292W        W19795  37.512  28.534  13.986
60293W        W19796  27.609  12.765  14.495
60294W        W19797  38.374  37.393  12.433
60295W        W19798  40.853   4.234  12.439
60296W        W19799   4.854  17.669   1.407
60297W        W19800  22.244  30.550   1.238
60298W        W19801  13.754  18.629   3.325
60299W        W19802   3.231  24.060   5.300
60300W        W19803  27.656  11.756  11.121
60301W        W19804  21.574  14.793   0.952
60302W        W19805  33.505  35.383   0.734
60303W        W19806  12.643  17.293   3.837
60304W        W19807  15.684   8.881  14.996
60305W        W19808  13.768  31.016  11.485
60306W        W19809   1.971  25.643  14.346
60307W        W19810  39.403  32.570   1.296
60308W        W19811  39.493  38.028   3.343
60309W        W19812  13.837  21.104   4.782
60310W        W19813  15.088  11.832   4.641
60311W        W19814   6.757  23.100  11.901
60312W        W19815  22.034  39.342  14.945
60313W        W19816  41.989   9.777   2.264
60314W        W19817  14.333   2.392  12.476
60315W        W19818  41.455  28.435  14.477
60316W        W19819   5.222  29.067  14.827
60317W        W19820   1.375  14.140   0.343
60318W        W19821  37.577  43.009   4.647
60319W        W19822  31.582  29.151   0.459
60320W        W19823  34.865  22.709  12.971
60321W        W19824  28.093  36.483  12.077
60322W        W19825  25.210  13.602   3.813
60323W        W19826  42.962  22.547   3.293
60324W        W19827   0.306  10.363  14.890
60325W        W19828  28.991  20.719  14.409
60326W        W19829  18.772  19.070   1.324
60327W        W19830  23.099  44.987  13.541
60328W        W19831  29.163  18.631   1.893
60329W        W19832  44.789  18.104  11.404
60330W        W19833  13.204  28.439  13.948
60331W        W19834  20.222  19.230   1.248
60332W        W19835   5.910  41.369   3.857
60333W        W19836  24.170  25.636  10.415
60334W        W19837  10.827  40.405  11.052
60335W        W19838  33.088  42.833   1.824
60336W        W19839  40.995  40.972  12.918
60337W        W19840  22.744   8.323  13.332
60338W        W19841  16.781  12.164  11.947
60339W        W19842  26.470  12.204   3.236
60340W        W19843  37.524  22.174   3.381
60341W        W19844  18.161  17.103   1.347
60342W        W19845  26.596  15.671  11.523
60343W        W19846  40.839  24.227  13.919
60344W        W19847  27.147  23.540  11.547
60345W        W19848  11.698  31.919   0.807
60346W        W19849  31.921  35.954  12.922
60347W        W19850  27.626  17.247  14.358
60348W        W19851  39.399  30.511  12.972
60349W        W19852  35.929  31.020  10.949
60350W        W19853  21.570  22.689   2.889
60351W        W19854   8.299  19.167  13.376
60352W        W19855   5.229  21.045  11.450
60353W        W19856   8.322  29.447  14.878
60354W        W19857  36.583  12.619  10.494
60355W        W19858  13.635  38.528   4.194
60356W        W19859  18.559  26.118   1.773
60357W        W19860  10.823  29.096   4.747
60358W        W19861  18.695   6.794   4.135
60359W        W19862  15.300  19.548  14.284
60360W        W19863   3.325  35.109   0.267
60361W        W19864  28.940   9.678   1.270
60362W        W19865  29.477   6.850   2.224
60363W        W19866  25.660  21.080   0.893
60364W        W19867  33.055  36.584  11.984
60365W        W19868  13.329  12.284   4.253
60366W        W19869   5.298  29.005   4.337
60367W        W19870  13.326  18.737   0.895
60368W        W19871   2.724   3.787  10.627
60369W        W19872   9.654  19.207  13.935
60370W        W19873  15.646  25.552  11.940
60371W        W19874  18.611   9.758  13.540
60372W        W19875  17.174  25.118   0.387
60373W        W19876  42.881   5.787   1.425
60374W        W19877  24.135   4.319  13.014
60375W        W19878  14.196   5.292   1.755
60376W        W19879  20.579  25.108  13.062
60377W        W19880   2.464   6.836  14.304
60378W        W19881  22.245  10.366   0.286
60379W        W19882  16.084  37.533  10.940
60380W        W19883   8.692  17.134   0.806
60381W        W19884  23.623  22.667   4.789
60382W        W19885   7.320  35.085   2.255
60383W        W19886   1.358  30.071   4.227
60384W        W19887  26.049  15.146  13.338
60385W        W19888  18.549  33.532  14.796
60386W        W19889  30.426  43.356   1.415
60387W        W19890  15.731   4.236   2.725
60388W        W19891  24.153  44.793  14.370
60389W        W19892  16.695  38.957  10.614
60390W        W19893  38.953  42.968   4.765
60391W        W19894  21.556  22.574   0.923
60392W        W19895  27.643  24.705  14.297
60393W        W19896  33.527  37.405  13.014
60394W        W19897  38.386  13.621   3.176
60395W        W19898  44.975  26.170  13.999
60396W        W19899  31.465   7.389  12.569
60397W        W19900  24.716  37.025   2.328
60398W        W19901  23.010  36.444  14.307
60399W        W19902  19.752  41.829  14.298
60400W        W19903  12.785  12.770  14.305
60401W        W19904   5.932  35.374  14.850
60402W        W19905  11.132  39.548   1.796
60403W        W19906  36.074  12.738   2.307
60404W        W19907  17.647   5.316  14.296
60405W        W19908  25.971  23.018  14.371
60406W        W19909   3.371  31.952  13.824
60407W        W19910  34.464  31.501   0.949
60408W        W19911  22.160   8.857  13.907
60409W        W19912  23.566  26.561   0.898
60410W        W19913  32.482  20.658  12.863
60411W        W19914   1.831  22.077   2.749
60412W        W19915   3.892  21.659  11.042
60413W        W19916   1.754  42.906  14.877
60414W        W19917  30.633  40.490  10.629
60415W        W19918   9.746  25.647  13.488
60416W        W19919  37.435  10.277   1.300
60417W        W19920  18.059  36.952   1.271
60418W        W19921   6.204  33.403  10.051
60419W        W19922  35.426   5.206  14.356
60420W        W19923   5.893   4.745   4.289
60421W        W19924   9.723  32.633  10.594
60422W        W19925   0.784  11.735   5.205
60423W        W19926  16.761   3.440   1.797
60424W        W19927  11.210   5.703  10.898
60425W        W19928   9.225   5.722   4.113
60426W        W19929  16.254  44.809  10.969
60427W        W19930  25.177  11.342   4.599
60428W        W19931  12.726  29.662   2.898
60429W        W19932  34.964  13.205  14.305
60430W        W19933  31.948  14.772   1.300
60431W        W19934  33.071  12.714  13.361
60432W        W19935  40.880  24.086   1.926
60433W        W19936  43.309  17.095   0.942
60434W        W19937  12.183   5.329  12.990
60435W        W19938  34.950  10.812  11.909
60436W        W19939   2.850  17.221  11.896
60437W        W19940  18.070  20.570  11.090
60438W        W19941  25.151  43.492  10.471
60439W        W19942  23.731  32.974   4.809
60440W        W19943  40.326  31.625  12.429
60441W        W19944   2.875  41.358   5.711
60442W        W19945   7.779  17.184  11.396
60443W        W19946  32.912   8.798  11.578
60444W        W19947  32.973   4.829   0.888
60445W        W19948   9.303   9.186  11.518
60446W        W19949   8.261   1.950  14.821
60447W        W19950  29.637  30.654   0.819
60448W        W19951  27.605  29.169   0.727
60449W        W19952   0.867  25.971   1.882
60450W        W19953  35.862  28.014  11.456
60451W        W19954  14.679   5.697  12.088
60452W        W19955  10.742  26.550   9.970
60453W        W19956  14.620  30.163   4.838
60454W        W19957  24.002  14.337  14.949
60455W        W19958  29.579  36.897  13.057
60456W        W19959  22.064  12.837  10.539
60457W        W19960  25.030  30.093  11.502
60458W        W19961  29.436   2.423  11.564
60459W        W19962  11.339  44.953   0.456
60460W        W19963  14.791  36.460  13.480
60461W        W19964  32.114  25.968  14.835
60462W        W19965  20.657  29.499  13.839
60463W        W19966   6.920  31.613   0.342
60464W        W19967  23.050  15.222   3.725
60465W        W19968  11.637   2.405  11.452
60466W        W19969  22.734  14.140   0.800
60467W        W19970  35.029  37.549  12.376
60468W        W19971  44.831  39.539   0.733
60469W        W19972  32.034  32.100   1.801
60470W        W19973  14.321  17.069  12.027
60471W        W19974   0.886  12.834   1.450
60472W        W19975  15.235  35.394  10.644
60473W        W19976  25.472  26.088   3.283
60474W        W19977  37.987  35.866  11.445
60475W        W19978  11.191  20.580  10.615
60476W        W19979  20.741  21.669  14.927
60477W        W19980   5.316  41.006  13.348
60478W        W19981  41.447  23.049   0.754
60479W        W19982  35.359  25.041  11.383
60480W        W19983  11.218   6.422  13.831
60481W        W19984   6.884  41.463   1.307
60482W        W19985   5.919  40.459   0.926
60483W        W19986   0.907  41.523  13.330
60484W        W19987  20.662   5.216  14.006
60485W        W19988  34.411  15.113   1.274
60486W        W19989  36.951   1.403   0.815
60487W        W19990   7.673  28.619   3.291
60488W        W19991  17.307  17.680   0.867
60489W        W19992  23.075  39.381   2.397
60490W        W19993  25.709   9.662  14.867
60491W        W19994  18.223  15.766   4.206
60492W        W19995  30.923  11.831  10.979
60493W        W19996   9.246  37.387   3.316
60494W        W19997  42.339   5.343  11.466
60495W        W19998  17.215   9.709   4.288
60496W        W19999  20.062  17.073   0.273
60497W        W20000  10.751  13.169   5.212
60498W        W20001  30.491  33.876  13.406
60499W        W20002  11.302  19.654  14.413
60500W        W20003  38.350  24.557  12.840
60501W        W20004  16.570  18.260   3.656
60502W        W20005  40.546   9.213  10.921
60503W        W20006  17.285  14.202   2.771
60504W        W20007  24.618  34.504   0.291
60505W        W20008  31.142  26.467   4.671
60506W        W20009   7.785  43.010  11.380
60507W        W20010   4.825  39.349  11.439
60508W        W20011  43.994  11.741  13.539
60509W        W20012   6.333  17.734   2.694
60510W        W20013  22.133  29.969  12.531
60511W        W20014  29.064  35.077  14.906
60512W        W20015   0.761  27.601   1.334
60513W        W20016  20.165  31.128  14.416
60514W        W20017  24.025   4.314   4.613
60515W        W20018  10.865  42.423   0.363
60516W        W20019   8.173   6.919  12.484
60517W        W20020  15.277  15.175  13.014
60518W        W20021  25.641  14.304  13.859
60519W        W20022  15.172  26.602   1.910
60520W        W20023  38.366  15.138   3.218
60521W        W20024  41.807  38.433   0.399
60522W        W20025  43.489  20.101  12.386
60523W        W20026   1.256  14.181  11.979
60524W        W20027   4.369  11.690   3.697
60525W        W20028  33.588  31.958   4.685
60526W        W20029  20.605  38.332   2.379
60527W        W20030  14.797   6.337  13.476
60528W        W20031  32.998  27.171   1.291
60529W        W20032  30.097  40.493   1.805
60530W        W20033  11.309  25.133  12.980
60531W        W20034  18.253  42.387  12.411
60532W        W20035  23.552  24.678   0.888
60533W        W20036  24.212  36.375  10.424
60534W        W20037  21.586  27.012   1.921
60535W        W20038  28.628  37.902  13.542
60536W        W20039  25.652  27.128   1.829
60537W        W20040  33.085  18.074  10.568
60538W        W20041  31.499  36.589  12.492
60539W        W20042   0.450  41.904   0.298
60540W        W20043   8.661  26.547   2.816
60541W        W20044   5.711   4.768  11.548
60542W        W20045   8.164   2.780  13.818
60543W        W20046  24.691  10.310  10.984
60544W        W20047  28.446  44.795   4.739
60545W        W20048  41.945   3.828  10.148
60546W        W20049  42.447  10.350   1.806
60547W        W20050  21.025  20.549  13.911
60548W        W20051  26.086   6.912   3.223
60549W        W20052  17.108  25.645  14.952
60550W        W20053  27.170  30.422  13.868
60551W        W20054   8.735  28.165  14.901
60552W        W20055  30.102  15.754   3.330
60553W        W20056   3.884  21.244   2.786
60554W        W20057  37.833  31.631  14.417
60555W        W20058  11.193  34.466  12.976
60556W        W20059  12.654  14.721  13.385
60557W        W20060  20.727  44.820   1.237
60558W        W20061  12.243   9.190   4.793
60559W        W20062  44.958  18.129  12.959
60560W        W20063   5.805  23.498  12.488
60561W        W20064  32.606  40.942   2.868
60562W        W20065  11.232   2.780  10.425
60563W        W20066  35.062  39.340  14.408
60564W        W20067   7.674  38.005  12.466
60565W        W20068  29.152  24.628  13.361
60566W        W20069  10.716   5.826   4.661
60567W        W20070  13.614  33.477   0.452
60568W        W20071  38.042   2.752  13.521
60569W        W20072  42.001  41.354  14.338
60570W        W20073  38.483  11.146   0.457
60571W        W20074  37.055   6.367   5.196
60572W        W20075  35.405  32.026   4.234
60573W        W20076  15.220  19.099   2.764
60574W        W20077  17.692  37.557   0.896
60575W        W20078   2.815  12.181   1.253
60576W        W20079  29.921  13.115  14.953
60577W        W20080   4.243  18.175  12.095
60578W        W20081   6.238  38.867  14.963
60579W        W20082  15.222  25.573   2.218
60580W        W20083   4.927  41.311  13.534
60581W        W20084  12.129  19.678  13.978
60582W        W20085   3.259  26.079  11.548
60583W        W20086   9.770  30.415   2.804
60584W        W20087  17.201  39.493   9.953
60585W        W20088  40.840  24.619  10.642
60586W        W20089   6.331  41.437   1.424
60587W        W20090  30.436   1.339   0.351
60588W        W20091  34.105   1.888   0.801
60589W        W20092  27.561  34.415   4.645
60590W        W20093  36.369  25.577  11.560
60591W        W20094  38.909   7.211  11.109
60592W        W20095  35.523  42.379  11.979
60593W        W20096   2.308   4.870   2.719
60594W        W20097  29.948   5.332  10.600
60595W        W20098  22.618  17.665   1.428
60596W        W20099  21.190  22.553  13.471
60597W        W20100   0.265  38.424  10.482
60598W        W20101  24.679  10.345  12.558
60599W        W20102  15.158   8.855  11.597
60600W        W20103  27.997  40.538  11.586
60601W        W20104   3.255  20.136   5.129
60602W        W20105  11.354  34.491  13.920
60603W        W20106   7.360   4.865  12.979
60604W        W20107  44.758  25.152  14.843
60605W        W20108   8.270  36.899  11.449
60606W        W20109  31.557  30.011   5.320
60607W        W20110  12.256  24.493  11.927
60608W        W20111  30.486  39.445   3.209
60609W        W20112  36.385   5.253  11.122
60610W        W20113   7.706  39.995  14.763
60611W        W20114  12.644  33.941  12.911
60612W        W20115  35.365  35.864   4.701
60613W        W20116   0.871   8.752   2.898
60614W        W20117  22.612  23.180  11.528
60615W        W20118  27.974  13.310  11.480
60616W        W20119  43.948  25.140   3.815
60617W        W20120  43.013  31.404  12.449
60618W        W20121  37.023  33.384   0.261
60619W        W20122   2.781  33.449  11.113
60620W        W20123  36.487  34.546  14.794
60621W        W20124  24.014   3.221   3.686
60622W        W20125  31.926  42.879   3.236
60623W        W20126   9.367  10.350  10.067
60624W        W20127  20.146  31.639   4.151
60625W        W20128  16.107  35.398   0.285
60626W        W20129  42.933  13.704   2.262
60627W        W20130  25.003  44.350   3.804
60628W        W20131  11.175  21.601  10.636
60629W        W20132  23.194  10.310  10.924
60630W        W20133   9.750   1.415   4.695
60631W        W20134  20.124  37.976  13.541
60632W        W20135  44.332  19.161  10.941
60633W        W20136  32.565   0.930  11.501
60634W        W20137  13.246  27.167   0.483
60635W        W20138  42.480  10.156   3.195
60636W        W20139  11.165  19.761   0.806
60637W        W20140  16.182  38.868   3.207
60638W        W20141  16.679  41.932   0.468
60639W        W20142  15.612  27.067  12.066
60640W        W20143  44.464  12.158   3.320
60641W        W20144  10.228  33.566  11.566
60642W        W20145  39.937  27.049  10.540
60643W        W20146  18.128   5.264  12.943
60644W        W20147  23.687  11.693  11.560
60645W        W20148   9.384  36.527   1.355
60646W        W20149   9.322  34.888  11.453
60647W        W20150  23.712  11.834   3.698
60648W        W20151   7.196  23.121  13.051
60649W        W20152   4.212  20.576   1.738
60650W        W20153  15.742  35.964  14.780
60651W        W20154   7.255   6.843   2.818
60652W        W20155  21.101  10.338   2.231
60653W        W20156  40.351  11.337   0.899
60654W        W20157  29.123  35.922   0.458
60655W        W20158  22.193  15.143   1.757
60656W        W20159  27.653   4.374  14.903
60657W        W20160  42.977   5.432  14.777
60658W        W20161  18.156  13.721  13.399
60659W        W20162  16.223  30.534   5.230
60660W        W20163  10.853  18.065   3.762
60661W        W20164  33.063   6.691  12.067
60662W        W20165  43.504  21.606   0.296
60663W        W20166  34.909  33.499   5.223
60664W        W20167   7.346  11.868   3.661
60665W        W20168  37.397  25.030   4.274
60666W        W20169  21.224  39.541   1.860
60667W        W20170  24.171  12.854   2.827
60668W        W20171   6.788   9.859  13.964
60669W        W20172  18.223  40.505  14.353
60670W        W20173  10.677  26.538   1.770
60671W        W20174   0.345  21.048  12.560
60672W        W20175  42.282  22.076   1.771
60673W        W20176  17.610  37.527   1.355
60674W        W20177  43.786  42.398   4.627
60675W        W20178   9.183  12.190   5.580
60676W        W20179  39.991  39.018   4.699
60677W        W20180  33.572   1.284   4.748
60678W        W20181  30.057  37.001  13.397
60679W        W20182  16.724  37.956   1.406
60680W        W20183  16.576  38.460   1.306
60681W        W20184   4.212  42.957   4.294
60682W        W20185   5.276   3.454  10.578
60683W        W20186  23.070  36.086  13.319
60684W        W20187  40.811  42.783  12.367
60685W        W20188   7.305  12.783  12.421
60686W        W20189  39.531  39.926   2.811
60687W        W20190  11.846  26.577  14.979
60688W        W20191  27.626   2.286   0.371
60689W        W20192  36.867   8.901  13.875
60690W        W20193  26.506   9.696   2.791
60691W        W20194  37.084  15.774  12.478
60692W        W20195  38.956  13.694  14.399
60693W        W20196  42.972  27.484   2.902
60694W        W20197  33.428  15.089   3.211
60695W        W20198  34.381  28.501  14.924
60696W        W20199  29.568  36.064   2.260
60697W        W20200  22.565   8.356   0.837
60698W        W20201  14.640  21.524   3.715
60699W        W20202  14.326  35.995   2.882
60700W        W20203  29.104  26.152   9.447
60701W        W20204  31.573  30.045  11.017
60702W        W20205  10.189  10.326   4.799
60703W        W20206   7.331  11.683   1.776
60704W        W20207  22.635  25.201   2.274
60705W        W20208  35.388  21.150   2.694
60706W        W20209  24.030   1.316   2.386
60707W        W20210  11.187  15.742   1.831
60708W        W20211  44.303  23.535  13.876
60709W        W20212  37.391   3.803  14.299
60710W        W20213  29.568  36.408   1.772
60711W        W20214  35.068  43.458   2.855
60712W        W20215  16.200  16.803  11.401
60713W        W20216  13.789  27.459  11.584
60714W        W20217   5.880  40.855  11.000
60715W        W20218  28.586   1.260   2.750
60716W        W20219  22.125   4.226   3.288
60717W        W20220  31.608  12.316  12.364
60718W        W20221  38.445  20.550   0.869
60719W        W20222  41.994  17.156  11.943
60720W        W20223   2.926  28.630   1.779
60721W        W20224  23.199  29.598   2.776
60722W        W20225  42.884  23.731   0.274
60723W        W20226  42.359  25.502   0.888
60724W        W20227   0.886   4.704   1.831
60725W        W20228  37.843   0.864  10.423
60726W        W20229  32.397  14.192  10.145
60727W        W20230   9.819  40.433  14.871
60728W        W20231  42.915  44.263  12.019
60729W        W20232  24.537  15.703  13.361
60730W        W20233  27.479  19.283   1.711
60731W        W20234  18.662  35.027   3.748
60732W        W20235  21.087  30.162   2.773
60733W        W20236   1.796  34.890   0.409
60734W        W20237  38.037  41.384  11.382
60735W        W20238  40.416  29.542  10.091
60736W        W20239  21.258  27.962  12.873
60737W        W20240  41.008  19.096   5.202
60738W        W20241   0.305  37.351   1.230
60739W        W20242  27.559   9.678   0.862
60740W        W20243  36.883  21.237   2.835
60741W        W20244  35.018   9.289  14.319
60742W        W20245  37.501   5.384   1.743
60743W        W20246  10.223  19.286   1.870
60744W        W20247  44.864  34.920  12.962
60745W        W20248  21.149  38.423  10.976
60746W        W20249  39.877  15.296   3.163
60747W        W20250  42.917  41.424   1.823
60748W        W20251  18.134  24.187   4.348
60749W        W20252  30.514  44.414   2.674
60750W        W20253  38.070   3.862  13.504
60751W        W20254  12.795  22.616  10.905
60752W        W20255  40.798  31.939  12.844
60753W        W20256  20.661   8.732   0.353
60754W        W20257  40.939   9.259   0.339
60755W        W20258  26.577  26.045  12.052
60756W        W20259  27.479  21.133   0.839
60757W        W20260  10.249  44.465  12.894
60758W        W20261   6.299  30.654   3.293
60759W        W20262  37.336  19.070  11.965
60760W        W20263  26.164  42.919   1.367
60761W        W20264  30.126  10.158   5.105
60762W        W20265  11.185   7.245   0.892
60763W        W20266   8.676  34.469  14.363
60764W        W20267   0.850   5.816  14.360
60765W        W20268  12.217  39.548   4.636
60766W        W20269  11.134  27.645   4.602
60767W        W20270   5.390   0.985  13.811
60768W        W20271  38.075  44.010  11.468
60769W        W20272  35.929   8.248  14.774
60770W        W20273  38.377  14.640   2.872
60771W        W20274  12.834  23.093   2.757
60772W        W20275  29.468  27.172  11.912
60773W        W20276   0.327  44.334  10.532
60774W        W20277   9.861   6.375  13.435
60775W        W20278   1.280   0.359   3.749
60776W        W20279  19.165  32.464  11.433
60777W        W20280   2.388  18.634  11.000
60778W        W20281  42.927  30.072   3.336
60779W        W20282  43.897   9.208   4.822
60780W        W20283  16.142   0.853   1.447
60781W        W20284  31.957   6.333   0.425
60782W        W20285  25.574  13.239  14.329
60783W        W20286  23.237   6.189   2.256
60784W        W20287  41.428  29.571   1.933
60785W        W20288  12.223   6.421  13.918
60786W        W20289   2.722  23.605  10.935
60787W        W20290   9.328   9.182   4.136
60788W        W20291  40.485  21.226  12.350
60789W        W20292  15.765  41.826   3.756
60790W        W20293  20.636  26.951   3.821
60791W        W20294   4.440  31.016  12.865
60792W        W20295  24.577  16.809  11.405
60793W        W20296  17.260  11.750   1.383
60794W        W20297   3.327   3.397   3.687
60795W        W20298   4.288  25.481   4.134
60796W        W20299  29.066  17.163  14.923
60797W        W20300  18.183  22.153   4.787
60798W        W20301  20.203  27.080   2.749
60799W        W20302   5.387  23.148  12.990
60800W        W20303   2.913  25.095   1.787
60801W        W20304   7.748  17.592   1.723
60802W        W20305  26.979  15.729   2.401
60803W        W20306   5.875  20.060  13.998
60804W        W20307  33.485   9.317  11.089
60805W        W20308   0.343   6.255   4.667
60806W        W20309   8.281   9.796  14.851
60807W        W20310  10.201   1.919   0.743
60808W        W20311  42.939  32.940  14.317
60809W        W20312  26.678  32.926  12.580
60810W        W20313  33.450  22.521   2.410
60811W        W20314  37.865   7.888   2.877
60812W        W20315  29.463  40.349  12.838
60813W        W20316  37.483  41.845  13.997
60814W        W20317  28.537   1.798   2.737
60815W        W20318  30.134   7.398   4.317
60816W        W20319  21.181  32.609  14.841
60817W        W20320  37.084   2.965   4.728
60818W        W20321  40.489  35.966  14.978
60819W        W20322   3.330  28.059  14.842
60820W        W20323  38.544  42.967   1.433
60821W        W20324  34.482   8.312  10.510
60822W        W20325  22.658  31.533   2.757
60823W        W20326  41.920   8.870  11.514
60824W        W20327  23.558   4.744  14.030
60825W        W20328  35.470  11.777  11.531
60826W        W20329  15.649  43.271  13.522
60827W        W20330  36.899  15.236  14.799
60828W        W20331  18.295  16.304   0.892
60829W        W20332  37.450  20.040   5.202
60830W        W20333  13.837  36.459   1.341
60831W        W20334  44.433  33.070  14.506
60832W        W20335  21.017  39.837  13.814
60833W        W20336   0.856   6.419  11.881
60834W        W20337  43.977  35.855   1.351
60835W        W20338  18.742   2.817  11.501
60836W        W20339  44.270  17.260  13.790
60837W        W20340   0.284  24.224   1.876
60838W        W20341   1.893  41.923   5.224
60839W        W20342  28.037  30.038   9.647
60840W        W20343  41.900  10.634  14.011
60841W        W20344   8.276  23.718   2.396
60842W        W20345  28.991  44.276   3.805
60843W        W20346  35.071  32.101   1.443
60844W        W20347  39.371  24.036   4.836
60845W        W20348   5.731  16.679   3.826
60846W        W20349  11.839   6.805   2.683
60847W        W20350   8.366  18.593  10.950
60848W        W20351  25.504   4.814  11.900
60849W        W20352  25.030  10.686   2.783
60850W        W20353  42.929  29.613   3.213
60851W        W20354  29.011  23.569   4.297
60852W        W20355  22.719  41.375  11.574
60853W        W20356  41.025   4.335  11.592
60854W        W20357  14.704  16.199  13.949
60855W        W20358   3.890  18.214  14.916
60856W        W20359  41.368  29.155   1.914
60857W        W20360  14.120  21.052   3.847
60858W        W20361  11.233  23.714   0.324
60859W        W20362  31.556  30.418   4.832
60860W        W20363  33.120   4.418   4.793
60861W        W20364  22.675  10.732  11.991
60862W        W20365  16.795  24.707   4.292
60863W        W20366  11.820   4.399   0.411
60864W        W20367  42.963   9.356   4.602
60865W        W20368  38.851   5.730  12.398
60866W        W20369  43.514  36.561  11.935
60867W        W20370  34.495   5.358  12.546
60868W        W20371   5.382   2.347   3.353
60869W        W20372  10.159   1.334  11.539
60870W        W20373  16.655   3.735  14.505
60871W        W20374  23.074  40.900  14.292
60872W        W20375  27.098  19.079   0.856
60873W        W20376  38.025  31.019   2.766
60874W        W20377  43.411   7.726  13.404
60875W        W20378  16.812  18.142   1.753
60876W        W20379  36.399  33.477  14.026
60877W        W20380  24.659  12.267  13.517
60878W        W20381  19.254   6.882  11.560
60879W        W20382   3.809  34.085  12.998
60880W        W20383  43.496  24.517  13.972
60881W        W20384  14.614  13.255  11.477
60882W        W20385  39.344   5.702   0.777
60883W        W20386  28.049  37.527  13.883
60884W        W20387  12.770   6.344  12.451
60885W        W20388   9.841  32.142  12.024
60886W        W20389  42.029  22.138   0.876
60887W        W20390  28.155  14.330   4.764
60888W        W20391  34.106   2.755  13.935
60889W        W20392  31.122   1.787  13.941
60890W        W20393  28.016  33.561   2.217
60891W        W20394  41.988   1.421   0.412
60892W        W20395  12.278   0.777  11.414
60893W        W20396  35.508  26.600   1.841
60894W        W20397  37.504  35.430  11.567
60895W        W20398  44.923  37.916  11.931
60896W        W20399   6.375  17.247  11.957
60897W        W20400  25.620  19.063   1.736
60898W        W20401  17.080  29.466  12.375
60899W        W20402   3.810  22.614   2.372
60900W        W20403   8.792  28.061  11.969
60901W        W20404  32.485   9.788  12.546
60902W        W20405   5.749  31.420   0.914
60903W        W20406  19.656   0.760  14.287
60904W        W20407  23.713   4.261  13.923
60905W        W20408   0.970   4.715  10.137
60906W        W20409  24.212  13.799   3.253
60907W        W20410  37.576  10.860  14.858
60908W        W20411  36.907   2.355  14.971
60909W        W20412  40.967   7.184  14.826
60910W        W20413   4.792  20.590   0.408
60911W        W20414  37.000  28.508  13.476
60912W        W20415  24.067  15.801  10.529
60913W        W20416  28.186  34.072  12.490
60914W        W20417  37.937  23.690   0.419
60915W        W20418  31.573   7.176   0.246
60916W        W20419  17.124   4.911   0.286
60917W        W20420  21.713  29.939   4.130
60918W        W20421  20.732  16.134  14.882
60919W        W20422  22.513   3.859   2.416
60920W        W20423  37.019  26.955   2.779
60921W        W20424  21.612  41.993  12.578
60922W        W20425  14.114   2.798   3.702
60923W        W20426  41.839   1.270  14.818
60924W        W20427   3.229   2.929  11.944
60925W        W20428  38.050  27.536   0.826
60926W        W20429  15.176   4.425  12.382
60927W        W20430  24.110  27.999   3.355
60928W        W20431   7.764  26.193  12.355
60929W        W20432  33.542  19.064   3.341
60930W        W20433  41.461  10.818  10.559
60931W        W20434  37.360   7.307  13.903
60932W        W20435  39.964  27.193   0.402
60933W        W20436  37.427  38.908  12.971
60934W        W20437  14.818  34.942   1.362
60935W        W20438  20.070   0.938   3.175
60936W        W20439  39.838  18.116  12.487
60937W        W20440  39.851  17.674  13.494
60938W        W20441  17.292  23.663   2.755
60939W        W20442  29.515  14.628   3.339
60940W        W20443  23.153  14.217   3.638
60941W        W20444  26.625  12.235   3.724
60942W        W20445  39.382   0.436   4.732
60943W        W20446  44.408   9.875   2.836
60944W        W20447  34.985  28.525  14.298
60945W        W20448  41.887  15.603  10.148
60946W        W20449  35.506   7.862   1.337
60947W        W20450  31.536  44.901  11.593
60948W        W20451  27.594  15.664   3.308
60949W        W20452   1.340  41.002  11.098
60950W        W20453  28.177  44.843   1.710
60951W        W20454   7.886  37.920  12.069
60952W        W20455   6.799  21.600  12.393
60953W        W20456  41.362  13.237  14.780
60954W        W20457   4.312   7.741  14.856
60955W        W20458   5.819  22.583  12.061
60956W        W20459   6.322   2.265   4.130
60957W        W20460  16.261   7.259  11.381
60958W        W20461  10.224  43.479  11.465
60959W        W20462  44.312  40.534  14.845
60960W        W20463  32.119  16.672  11.546
60961W        W20464  28.033  16.733  12.850
60962W        W20465  22.171  16.180  12.565
60963W        W20466  44.868  29.139   4.148
60964W        W20467  34.897  40.849   2.831
60965W        W20468  44.304  16.311   2.674
60966W        W20469  19.141  12.264  12.988
60967W        W20470   8.313  43.916   2.402
60968W        W20471  31.967  11.762   3.343
60969W        W20472  19.277  37.346   0.332
60970W        W20473  35.423  18.216  10.404
60971W        W20474   7.227  25.018  12.958
60972W        W20475   2.763  26.085  11.599
60973W        W20476  35.369  21.053   0.748
60974W        W20477  25.997  21.051  10.595
60975W        W20478  15.224   8.348  10.464
60976W        W20479  13.171  22.735   1.782
60977W        W20480  13.731  38.934   3.245
60978W        W20481  32.624  31.103   3.812
60979W        W20482  27.109   3.734   1.269
60980W        W20483  40.846  23.214  13.975
60981W        W20484   9.855  12.796   2.364
60982W        W20485  41.433  35.109   0.788
60983W        W20486  44.476  30.913  14.305
60984W        W20487  14.124   9.198  13.018
60985W        W20488  29.561   7.350   0.360
60986W        W20489  29.027  29.662  13.916
60987W        W20490  44.493  10.143   3.846
60988W        W20491  44.816  28.475  11.586
60989W        W20492  25.475  39.978   4.115
60990W        W20493  22.503  27.976  12.439
60991W        W20494  34.927  25.469  12.448
60992W        W20495  24.673   2.329   4.711
60993W        W20496  38.504   8.192  14.915
60994W        W20497   3.754  31.898   3.751
60995W        W20498   4.796  41.814  12.420
60996W        W20499  27.985  15.579   1.305
60997W        W20500  12.283  42.427   2.413
60998W        W20501  33.382  22.125   4.125
60999W        W20502  19.602   3.427  14.901
61000W        W20503  32.028  37.545   2.247
61001W        W20504   8.258  17.204   5.624
61002W        W20505  37.402  18.158  12.441
61003W        W20506  30.019  37.517   2.191
61004W        W20507  41.973   3.766   3.748
61005W        W20508  40.548  24.108  12.055
61006W        W20509   9.813  40.825   2.806
61007W        W20510  12.773  38.429  13.852
61008W        W20511   3.379   1.476   3.701
61009W        W20512  12.830  24.120   3.731
61010W        W20513  22.024  38.921   4.116
61011W        W20514  34.088   4.867   4.176
61012W        W20515  44.389   6.194  11.008
61013W        W20516  39.842  20.049   2.319
61014W        W20517  40.805  13.244   1.848
61015W        W20518  17.158  10.306  12.897
61016W        W20519  44.483   2.890  14.940
61017W        W20520  26.154  26.093   2.821
61018W        W20521  18.606   2.915  14.360
61019W        W20522  41.865  42.812  11.038
61020W        W20523   6.190  32.460   0.871
61021W        W20524  42.503  42.396   3.355
61022W        W20525  11.712   3.333  11.512
61023W        W20526  38.016  24.977   3.376
61024W        W20527  34.459   9.173  11.501
61025W        W20528   4.426   7.272  13.373
61026W        W20529   5.912  25.006   0.823
61027W        W20530  40.996  26.474  10.468
61028W        W20531  24.179  12.303  10.534
61029W        W20532  27.034  18.146   0.322
61030W        W20533  37.528  37.491  12.829
61031W        W20534  23.143  43.931  14.793
61032W        W20535   9.875  16.720  10.633
61033W        W20536  34.606  22.041  10.960
61034W        W20537  17.752   2.740  11.098
61035W        W20538   1.931  26.200   1.790
61036W        W20539  41.813   5.775  12.898
61037W        W20540  32.122  39.359   3.863
61038W        W20541  36.899  26.205  11.531
61039W        W20542  10.794  29.653  13.816
61040W        W20543  40.929  18.196  10.926
61041W        W20544  11.643  16.625  10.120
61042W        W20545  18.570  17.694  13.454
61043W        W20546  31.609  13.265  14.437
61044W        W20547  32.032  43.015  10.091
61045W        W20548  24.493  42.844   0.374
61046W        W20549  34.940  33.520  11.062
61047W        W20550   1.287   5.892   3.631
61048W        W20551   7.373  23.025  12.554
61049W        W20552  17.164  40.871  13.409
61050W        W20553   4.834  19.237   3.723
61051W        W20554  34.607   9.762   3.866
61052W        W20555  32.535  30.949   3.313
61053W        W20556  17.077  32.898   2.873
61054W        W20557   7.281  25.023  11.999
61055W        W20558   8.347  43.827   1.248
61056W        W20559   1.263   4.841   2.662
61057W        W20560  22.172  31.055   1.908
61058W        W20561  32.111  36.077   4.251
61059W        W20562  25.537  28.502  11.927
61060W        W20563  32.488  27.687   1.867
61061W        W20564  24.573  42.887  13.822
61062W        W20565  14.593  30.973   0.294
61063W        W20566  42.901   4.704  13.897
61064W        W20567   6.400  14.183  11.606
61065W        W20568  27.952  12.324  13.059
61066W        W20569   9.845  29.504  10.624
61067W        W20570  31.431   5.770  13.375
61068W        W20571   0.402  24.174  11.533
61069W        W20572  11.782  20.683   2.315
61070W        W20573  29.534  30.013   4.205
61071W        W20574  28.503   8.672   1.262
61072W        W20575  30.496  43.872   4.802
61073W        W20576   8.271  38.888   2.182
61074W        W20577  33.561  22.502   1.720
61075W        W20578  11.643  30.949   1.266
61076W        W20579  32.897  18.234  12.494
61077W        W20580  24.180   8.718   4.656
61078W        W20581  41.899   9.256  13.792
61079W        W20582  31.116  30.644  12.392
61080W        W20583  33.534   7.757  12.385
61081W        W20584  10.338  28.644  14.304
61082W        W20585  38.827   1.840   1.289
61083W        W20586  14.647  40.386   2.701
61084W        W20587  43.295  15.115   4.169
61085W        W20588  28.634  26.153  14.333
61086W        W20589  24.552  39.065  11.500
61087W        W20590  11.167   5.806  11.454
61088W        W20591  37.047  22.731  13.409
61089W        W20592   0.814  29.538  14.913
61090W        W20593  42.376  41.028  14.926
61091W        W20594   0.788  14.618   2.855
61092W        W20595  40.341   8.749   1.695
61093W        W20596  43.991   3.894  14.879
61094W        W20597  23.548  41.801  11.395
61095W        W20598   0.955  42.954  11.089
61096W        W20599   1.818  36.012  13.501
61097W        W20600   7.898   0.348  10.549
61098W        W20601  19.577  24.096  10.970
61099W        W20602  34.026  35.858   2.828
61100W        W20603   4.709  14.206  12.465
61101W        W20604  21.041  30.514  12.081
61102W        W20605  41.469  27.485   2.380
61103W        W20606  44.963  29.030  13.792
61104W        W20607  40.941  34.990   3.679
61105W        W20608  38.924  23.614   4.334
61106W        W20609  29.557   4.355   1.737
61107W        W20610  21.071  34.026  13.894
61108W        W20611  28.505  20.628  13.317
61109W        W20612  17.689  33.007  13.981
61110W        W20613  35.896  38.893  13.857
61111W        W20614  26.061  21.212   2.337
61112W        W20615   4.320  11.286  10.981
61113W        W20616   1.263   4.265  14.487
61114W        W20617  23.693  40.423  11.029
61115W        W20618  42.516   3.727   1.253
61116W        W20619  33.574   3.767   0.393
61117W        W20620  38.537   6.420  11.931
61118W        W20621  22.503   7.727   3.209
61119W        W20622  41.960  27.510   0.757
61120W        W20623  35.523   5.197   2.666
61121W        W20624  10.283  30.429  13.810
61122W        W20625  24.163  33.040  12.998
61123W        W20626  10.357  37.023   1.735
61124W        W20627  37.909  27.048  10.478
61125W        W20628  37.006  23.556   3.170
61126W        W20629  40.549   6.872  13.054
61127W        W20630   5.779  28.453   1.339
61128W        W20631  19.176  32.931  10.962
61129W        W20632  23.186  40.811   1.880
61130W        W20633  13.615   5.690  12.945
61131W        W20634  32.140  41.805  10.542
61132W        W20635  40.507  16.222   0.889
61133W        W20636  15.310   0.853   4.755
61134W        W20637   5.212  15.193   2.882
61135W        W20638  19.275  17.591  12.449
61136W        W20639  43.372  44.485  12.002
61137W        W20640   8.674  17.084  13.899
61138W        W20641  29.510   4.209  13.946
61139W        W20642  28.475   2.849  14.951
61140W        W20643   7.776  31.984  12.513
61141W        W20644  43.330   4.241  12.984
61142W        W20645   4.900   6.867  12.927
61143W        W20646   0.408   8.374  12.431
61144W        W20647  42.357  34.030   0.826
61145W        W20648   1.328   1.411  12.881
61146W        W20649  36.536  14.829   0.470
61147W        W20650   7.368   0.781   1.759
61148W        W20651  36.493  21.635   4.747
61149W        W20652  22.189  33.030  13.000
61150W        W20653   5.718  10.641   0.871
61151W        W20654  28.007  38.513   5.263
61152W        W20655  41.950  33.499  11.890
61153W        W20656   6.275  19.596  11.477
61154W        W20657   1.357   7.723  14.499
61155W        W20658  27.083  28.614   0.466
61156W        W20659  12.232  27.193   3.283
61157W        W20660  21.215  43.472   2.325
61158W        W20661  42.382  24.145   1.277
61159W        W20662  11.819  16.767   3.236
61160W        W20663  30.618  11.294   2.801
61161W        W20664   6.400   0.435   9.629
61162W        W20665  28.083  20.619   4.783
61163W        W20666   8.773  20.187  12.569
61164W        W20667  12.327  15.094   2.314
61165W        W20668  18.235  23.525   3.650
61166W        W20669  30.592   5.222   1.896
61167W        W20670  16.266   2.924   4.676
61168W        W20671  34.396  28.589   3.255
61169W        W20672  14.309  22.192   3.842
61170W        W20673  14.754   8.270  12.999
61171W        W20674  34.044   9.801   0.380
61172W        W20675  19.740  18.287  12.390
61173W        W20676  11.296  30.547   2.723
61174W        W20677  25.527   5.823   4.641
61175W        W20678  44.852  32.548  11.468
61176W        W20679  23.527  11.778   3.175
61177W        W20680  14.279  10.815   1.750
61178W        W20681  35.853  39.339  11.466
61179W        W20682  20.667  42.518   4.624
61180W        W20683  13.201  28.133  12.900
61181W        W20684  15.754  37.841   2.867
61182W        W20685  10.734  42.904   1.247
61183W        W20686  33.622  23.024   0.348
61184W        W20687  26.665  36.006  12.563
61185W        W20688  12.647  38.930   3.289
61186W        W20689   7.270  16.610   0.752
61187W        W20690  14.266  37.020  12.517
61188W        W20691  19.760   9.333  14.423
61189W        W20692  37.873   6.800   1.807
61190W        W20693  11.766  23.239   0.746
61191W        W20694  36.397   3.833  11.464
61192W        W20695  26.457  28.045  11.967
61193W        W20696  38.446  41.332   4.262
61194W        W20697   9.302  42.953  12.892
61195W        W20698  43.992  13.272  11.987
61196W        W20699  10.297  38.428  14.447
61197W        W20700   1.461  22.205   1.866
61198W        W20701   0.358  11.331  12.931
61199W        W20702  27.984  29.021  13.941
61200W        W20703  11.842   1.243  14.789
61201W        W20704  39.512  16.268   0.369
61202W        W20705   8.228  41.880  11.452
61203W        W20706   9.326  26.564  13.040
61204W        W20707  44.871  39.848   1.817
61205W        W20708  42.520  38.961  11.598
61206W        W20709   5.729  23.677  11.123
61207W        W20710  22.703  40.043  12.541
61208W        W20711   0.976  41.402  14.016
61209W        W20712   8.780  23.546   3.311
61210W        W20713   4.910   0.260   3.631
61211W        W20714  10.808  17.220  14.345
61212W        W20715   9.304  40.534   2.717
61213W        W20716  31.946   1.285  12.491
61214W        W20717  12.624  12.129  10.632
61215W        W20718  41.000  15.291   0.897
61216W        W20719  20.702   7.715  14.883
61217W        W20720  29.153  31.048   1.315
61218W        W20721  19.596  20.059   0.934
61219W        W20722   7.392  22.225   3.820
61220W        W20723  30.423  42.523  14.294
61221W        W20724  32.061  21.610   0.310
61222W        W20725  25.993   2.250   5.303
61223W        W20726  25.978  42.946   0.346
61224W        W20727  16.102  41.977  14.338
61225W        W20728  13.654  37.041   0.292
61226W        W20729   5.928   3.762   1.805
61227W        W20730  13.811  11.146   3.683
61228W        W20731  21.090  37.494  14.798
61229W        W20732  30.015  39.408   2.250
61230W        W20733  18.612  21.604   3.268
61231W        W20734  34.492  10.847   3.207
61232W        W20735  18.563  40.447   5.320
61233W        W20736  36.584   8.857  14.908
61234W        W20737  33.017  41.344   4.200
61235W        W20738   7.171  33.502  10.526
61236W        W20739   1.371  19.251  12.349
61237W        W20740   2.805  19.095  12.437
61238W        W20741   7.226  13.343   1.893
61239W        W20742  30.632   1.819  11.094
61240W        W20743  35.455   1.748  12.929
61241W        W20744  22.997  31.418   3.367
61242W        W20745   7.726  12.259   0.330
61243W        W20746   2.849   2.805   1.415
61244W        W20747   5.386   6.908  14.945
61245W        W20748  21.646  41.911   2.740
61246W        W20749  27.497   7.803  11.513
61247W        W20750  30.035  36.554  12.040
61248W        W20751  23.082  41.957  11.081
61249W        W20752  18.079  28.126   4.118
61250W        W20753  19.575  24.181  13.966
61251W        W20754  23.138  14.189  12.474
61252W        W20755  40.524  33.098   2.727
61253W        W20756  25.060  20.182   3.345
61254W        W20757  41.322  40.831  11.559
61255W        W20758  18.188  11.311   3.170
61256W        W20759  21.582  10.815  13.928
61257W        W20760   7.261  27.078  12.959
61258W        W20761  12.795  28.665  10.897
61259W        W20762  37.017  42.520   3.346
61260W        W20763  29.457  18.705   1.714
61261W        W20764  36.982  36.921  10.608
61262W        W20765  43.816  29.152   4.194
61263W        W20766  23.492  27.461  11.564
61264W        W20767   9.158  30.033   4.119
61265W        W20768  28.508  44.973   0.833
61266W        W20769  44.409  24.008   4.182
61267W        W20770   2.232  24.079  11.868
61268W        W20771   4.274  13.219   4.729
61269W        W20772  37.483  39.870  11.597
61270W        W20773  30.658  32.101  13.872
61271W        W20774  20.558   5.240   4.190
61272W        W20775   5.788   8.749   0.870
61273W        W20776  28.545   9.682   0.810
61274W        W20777  44.461  14.156   0.754
61275W        W20778  25.065  25.469  12.421
61276W        W20779   4.448  39.980   1.697
61277W        W20780  26.000   8.364  11.893
61278W        W20781  41.526  31.907   4.140
61279W        W20782  21.639   9.645  12.529
61280W        W20783  43.982  19.584   3.718
61281W        W20784   1.353   5.830   3.149
61282W        W20785  13.716  37.972   0.956
61283W        W20786  19.666  21.728  11.605
61284W        W20787  29.601  25.475  10.436
61285W        W20788  18.107  43.975   4.118
61286W        W20789  25.533  27.493   2.715
61287W        W20790  43.936  39.352   3.644
61288W        W20791  24.986  14.697  10.615
61289W        W20792  12.142  16.674   2.840
61290W        W20793  38.883   1.410   1.271
61291W        W20794  23.008  30.561   4.611
61292W        W20795  26.540  32.492  10.544
61293W        W20796  35.961  33.889   3.708
61294W        W20797  36.520  14.768   1.706
61295W        W20798  19.779  25.160  11.062
61296W        W20799   7.769  30.480   1.900
61297W        W20800   2.852  11.199  10.941
61298W        W20801   0.324  14.672  13.361
61299W        W20802  35.411  29.648   0.834
61300W        W20803  19.170  15.816  10.512
61301W        W20804   5.252  41.479   5.192
61302W        W20805  26.982  19.636  10.641
61303W        W20806  32.126   4.910   1.836
61304W        W20807  37.480  14.118   2.863
61305W        W20808  14.704  26.630   0.314
61306W        W20809  13.794  30.446   1.326
61307W        W20810  19.138  25.527   2.690
61308W        W20811  34.481  11.811  11.032
61309W        W20812  42.419   9.758  11.027
61310W        W20813  34.603  23.039   1.806
61311W        W20814  28.163   9.774  12.867
61312W        W20815  27.196  35.947   4.653
61313W        W20816  10.642   8.347  10.963
61314W        W20817  27.969  34.977  13.521
61315W        W20818  31.535   0.973  14.876
61316W        W20819  19.613  24.702   0.310
61317W        W20820   9.158  39.853  11.576
61318W        W20821  18.278   3.394  12.904
61319W        W20822  38.372  41.482   2.288
61320W        W20823  24.171  34.536  10.931
61321W        W20824  10.857  36.507  11.385
61322W        W20825  12.244  36.532  11.940
61323W        W20826  22.109  38.391   1.292
61324W        W20827  24.669  14.127   0.473
61325W        W20828  41.864  18.258  10.564
61326W        W20829   9.326  38.461   2.403
61327W        W20830  31.028  14.716   4.273
61328W        W20831   8.239  43.766  12.395
61329W        W20832  23.550   7.892   2.257
61330W        W20833   4.290  24.113  11.102
61331W        W20834   2.354  29.526  11.952
61332W        W20835   2.438   1.899  10.476
61333W        W20836  15.714   3.416  10.564
61334W        W20837  20.691  32.908  13.007
61335W        W20838   2.887  30.060  14.368
61336W        W20839  29.097   6.393  12.549
61337W        W20840  26.178  10.633   4.734
61338W        W20841  37.077  24.159  12.871
61339W        W20842   7.764  18.736  10.949
61340W        W20843  32.129   3.339   9.929
61341W        W20844  28.584   2.724   2.846
61342W        W20845  25.542   4.886   9.956
61343W        W20846   9.759  17.271  12.850
61344W        W20847  24.111  22.672   5.230
61345W        W20848   9.386   5.270  10.895
61346W        W20849  35.906  37.867  11.110
61347W        W20850  10.785  36.011  13.930
61348W        W20851  24.599  24.498  13.523
61349W        W20852  25.677  11.715   0.930
61350W        W20853  24.588   2.388   5.757
61351W        W20854  35.569  20.540  13.478
61352W        W20855  38.837   8.787  12.450
61353W        W20856  13.680  44.967  12.091
61354W        W20857  30.511  31.913   4.347
61355W        W20858  39.873  38.423  11.561
61356W        W20859  13.351   8.681  12.474
61357W        W20860  19.745  30.034   2.758
61358W        W20861  22.549  10.181  14.442
61359W        W20862  24.621  11.169  13.873
61360W        W20863   7.190  29.144  10.558
61361W        W20864  18.626   1.963   1.233
61362W        W20865  32.488  19.174   4.115
61363W        W20866  28.574  27.154  13.027
61364W        W20867   8.183  36.052   3.146
61365W        W20868  16.167   4.733  11.970
61366W        W20869  21.060  40.003  12.578
61367W        W20870  23.636  43.972  12.854
61368W        W20871  40.319  22.600  12.374
61369W        W20872  13.676  33.958   2.814
61370W        W20873   5.873  27.163   3.676
61371W        W20874  37.000  37.457   3.286
61372W        W20875  24.656   3.323   4.794
61373W        W20876  18.094  41.880   0.907
61374W        W20877  20.553   7.665  13.411
61375W        W20878   8.182   4.308   3.779
61376W        W20879  21.715  22.608   2.398
61377W        W20880  32.028   2.817  12.568
61378W        W20881  15.135   9.368   0.265
61379W        W20882  42.886   0.262   3.223
61380W        W20883   5.258  11.709   3.811
61381W        W20884  23.136  35.097  12.486
61382W        W20885  35.075   9.840   4.746
61383W        W20886  25.532   5.395   0.386
61384W        W20887  30.630  32.634  14.503
61385W        W20888   6.902  11.850   2.885
61386W        W20889  17.599  22.142  10.898
61387W        W20890   0.357  18.556  14.852
61388W        W20891  17.643  37.858   0.739
61389W        W20892  30.014  23.708   0.310
61390W        W20893  22.053   4.217   4.768
61391W        W20894   0.887  27.491   2.363
61392W        W20895   1.240  41.483  12.035
61393W        W20896  40.840  11.343  11.936
61394W        W20897  42.025  37.490   3.193
61395W        W20898   4.703  21.047  10.493
61396W        W20899   7.807   7.871  14.458
61397W        W20900  38.936  28.452  11.517
61398W        W20901  12.664  43.887  11.872
61399W        W20902  19.132   8.180  12.531
61400W        W20903   1.330  28.634  10.911
61401W        W20904  32.989  44.953   2.210
61402W        W20905  35.558  43.780   3.381
61403W        W20906   4.892  26.119  11.900
61404W        W20907   7.668  21.529   0.914
61405W        W20908  31.577   8.886   4.783
61406W        W20909   5.873  39.413   3.385
61407W        W20910  34.879  40.460  13.357
61408W        W20911  29.151  41.907  11.012
61409W        W20912  26.051   5.696  12.499
61410W        W20913  43.977  34.998  13.504
61411W        W20914  15.680   6.833  11.538
61412W        W20915  36.579  33.943   2.319
61413W        W20916  29.606  25.658  13.849
61414W        W20917   8.329  13.228   3.383
61415W        W20918  11.641  10.211  12.847
61416W        W20919   6.711  25.484  13.540
61417W        W20920  34.922  13.258   2.842
61418W        W20921  26.114  41.366   1.730
61419W        W20922   2.817   1.829   1.220
61420W        W20923   0.407  34.966   0.946
61421W        W20924   1.367  42.402  12.080
61422W        W20925  30.578   9.263  14.358
61423W        W20926  18.620  34.387  14.918
61424W        W20927   5.277  19.771  11.458
61425W        W20928   0.757  35.552  14.026
61426W        W20929  22.151  19.743  12.557
61427W        W20930  42.868  28.668   2.389
61428W        W20931  27.165  32.544  10.591
61429W        W20932  30.111  21.141   2.792
61430W        W20933  16.654   9.662  13.494
61431W        W20934   3.320  30.073  12.398
61432W        W20935  22.104  22.689   3.646
61433W        W20936  44.956  32.393   4.254
61434W        W20937  16.090  33.066  13.954
61435W        W20938  26.073  10.231  14.937
61436W        W20939   3.389  32.481   1.319
61437W        W20940  20.641   3.803  11.056
61438W        W20941  16.762  43.366  14.879
61439W        W20942  25.558   1.252   0.801
61440W        W20943  33.535  10.784   2.213
61441W        W20944  41.956  31.072   3.360
61442W        W20945  15.137  37.447   2.214
61443W        W20946   7.735  43.843   0.397
61444W        W20947  40.393  38.381   1.814
61445W        W20948  32.533  36.081   3.312
61446W        W20949  25.587  33.521  12.851
61447W        W20950  36.526   7.298   2.798
61448W        W20951  33.502   3.235  12.395
61449W        W20952  20.228  36.073   5.305
61450W        W20953  31.116  19.253  13.506
61451W        W20954  27.611  18.605  13.419
61452W        W20955  39.011  26.702   0.948
61453W        W20956  29.951  42.316   0.933
61454W        W20957  20.535  41.829  14.445
61455W        W20958   7.719  22.147  10.986
61456W        W20959   5.901  16.170  10.611
61457W        W20960  28.441  27.095  12.557
61458W        W20961  38.435  37.570  12.900
61459W        W20962  29.602  35.084   3.689
61460W        W20963  12.666  44.848  11.857
61461W        W20964  33.039  13.601  14.314
61462W        W20965   6.334   3.919   1.404
61463W        W20966  27.686  31.085   0.914
61464W        W20967  17.658  27.945   3.170
61465W        W20968   7.191   6.301   2.879
61466W        W20969  19.140  28.130   2.213
61467W        W20970  15.090  18.623   0.456
61468W        W20971  16.228   8.171   3.850
61469W        W20972   2.735  10.855  10.898
61470W        W20973  14.322   0.490   3.317
61471W        W20974  14.831   8.272  13.833
61472W        W20975  13.646   4.757   0.305
61473W        W20976  34.574   8.817  11.581
61474W        W20977  29.107   7.298  10.502
61475W        W20978  28.522  33.099  14.482
61476W        W20979  36.036  12.324   3.214
61477W        W20980  27.112   3.449  12.420
61478W        W20981  31.619  23.197   3.741
61479W        W20982  35.099  17.242   3.738
61480W        W20983  35.362   3.940   4.647
61481W        W20984  28.671   0.904   2.775
61482W        W20985  42.366  23.100   2.763
61483W        W20986  30.644  25.144   1.397
61484W        W20987  14.315  36.872   2.349
61485W        W20988  36.352  36.391  11.037
61486W        W20989  24.579  11.739  13.850
61487W        W20990   6.808   2.858   2.335
61488W        W20991  31.120   1.441   2.789
61489W        W20992  27.508   0.468   2.314
61490W        W20993  22.587  21.219   2.274
61491W        W20994   6.898   7.822   0.281
61492W        W20995   6.687  43.959   0.843
61493W        W20996  28.149  29.963   2.253
61494W        W20997  27.084  38.005  10.575
61495W        W20998  34.556  22.660  14.840
61496W        W20999  18.705   9.337   1.890
61497W        W21000  22.196  21.124   4.333
61498W        W21001  43.390  33.575   2.325
61499W        W21002   5.719  32.011  10.949
61500W        W21003  43.453  39.335  12.009
61501W        W21004  38.050  13.262  11.443
61502W        W21005  21.637  14.316  13.913
61503W        W21006  19.653  23.626   0.341
61504W        W21007  15.788  11.261  13.806
61505W        W21008  16.190  25.562   2.279
61506W        W21009  44.761   9.647   1.254
61507W        W21010  34.412  20.101  11.092
61508W        W21011  44.904  21.560  10.510
61509W        W21012  41.983  43.474  13.359
61510W        W21013  40.853  23.610  10.951
61511W        W21014  19.270  13.729   1.852
61512W        W21015  19.172  37.901   0.470
61513W        W21016   1.833  33.552  14.351
61514W        W21017  33.980  21.062   0.399
61515W        W21018   2.258  29.485   2.858
61516W        W21019  14.105  15.805  14.810
61517W        W21020  22.590  16.299  10.438
61518W        W21021  19.644  27.134   1.697
61519W        W21022  27.137  33.089  11.055
61520W        W21023  37.021   4.211   4.296
61521W        W21024  22.724  40.308   1.832
61522W        W21025   1.819   8.349   4.128
61523W        W21026  39.405  24.082   4.313
61524W        W21027   1.740  38.824   1.236
61525W        W21028  29.953   9.728  10.891
61526W        W21029  35.366  29.481   2.381
61527W        W21030  12.353  36.970   2.901
61528W        W21031  27.634  38.526  11.930
61529W        W21032   2.261   5.410   0.424
61530W        W21033  14.295  13.122   4.743
61531W        W21034  38.021  28.089   4.188
61532W        W21035   3.943  37.377   0.820
61533W        W21036  41.936  36.500  10.496
61534W        W21037  37.906  28.501  13.429
61535W        W21038  29.659  11.356   3.371
61536W        W21039   3.393   9.278   4.343
61537W        W21040  37.505  43.005  13.925
61538W        W21041  27.457  18.149   1.857
61539W        W21042  26.128  17.219  11.572
61540W        W21043  17.229  18.195   2.729
61541W        W21044  30.444  17.589  11.555
61542W        W21045  16.757  29.468   3.177
61543W        W21046  33.581   9.783  13.367
61544W        W21047  14.322  35.480   1.764
61545W        W21048  23.031  12.646  14.451
61546W        W21049  43.459   5.340  14.448
61547W        W21050  26.151  36.885   1.310
61548W        W21051  27.133  35.870  13.883
61549W        W21052   7.250   5.269  14.307
61550W        W21053  19.081   5.411   1.861
61551W        W21054   1.358   7.817   4.652
61552W        W21055  16.719  17.065  10.971
61553W        W21056  25.544  39.326  14.424
61554W        W21057  35.894  44.850   4.790
61555W        W21058  35.868  34.394   2.731
61556W        W21059  25.200  29.493  12.498
61557W        W21060  12.298  19.178   0.836
61558W        W21061  19.681   4.225  10.576
61559W        W21062  42.470  41.487  14.024
61560W        W21063  17.170  32.498   4.214
61561W        W21064  13.722  22.651   3.748
61562W        W21065  24.504  30.468   1.296
61563W        W21066  36.480  14.794  10.595
61564W        W21067  32.970  38.988   1.325
61565W        W21068  17.670  18.063   4.799
61566W        W21069  33.968  16.633  11.382
61567W        W21070  43.466  40.393  11.571
61568W        W21071   4.384  12.160   4.717
61569W        W21072  40.415   3.317   2.879
61570W        W21073  31.136   6.866   3.380
61571W        W21074  41.944   4.846  12.386
61572W        W21075   8.289  14.165   3.859
61573W        W21076  41.960  25.215   0.899
61574W        W21077  29.614  30.463   3.838
61575W        W21078  18.624  41.454   9.929
61576W        W21079  32.581  11.791   3.231
61577W        W21080  41.347   6.285  11.983
61578W        W21081   2.936   1.945  14.022
61579W        W21082   9.309  43.932  11.893
61580W        W21083   3.768  34.454   1.320
61581W        W21084  43.484  18.237  10.975
61582W        W21085  21.671  29.088  13.971
61583W        W21086  31.910  31.146  12.542
61584W        W21087  36.932  37.391   1.933
61585W        W21088  28.952  36.067  11.610
61586W        W21089  34.875  31.950   5.239
61587W        W21090  27.143  40.987  10.475
61588W        W21091   3.856  31.020  10.585
61589W        W21092  11.655  23.685  12.955
61590W        W21093  10.326   9.210   0.379
61591W        W21094  17.748   0.925  14.405
61592W        W21095  36.939  10.861   0.895
61593W        W21096  27.161  44.300   1.810
61594W        W21097  11.340  42.324   3.795
61595W        W21098  37.369  19.727  14.281
61596W        W21099  13.675  30.103   0.296
61597W        W21100  11.310  24.192   1.284
61598W        W21101  36.456  36.081   0.779
61599W        W21102   8.719  30.030   0.384
61600W        W21103   4.447   6.400   0.293
61601W        W21104  34.450  33.001  11.881
61602W        W21105  25.626  24.706   2.207
61603W        W21106   4.326   8.313  14.376
61604W        W21107   0.474  40.517   0.391
61605W        W21108  27.655  41.390  12.944
61606W        W21109  26.546  30.601  10.956
61607W        W21110  32.570  22.563   2.418
61608W        W21111  24.172  40.031   0.832
61609W        W21112  33.567  21.097  12.532
61610W        W21113  33.464  15.260   1.790
61611W        W21114  34.407   0.414  14.457
61612W        W21115  12.857  14.791  14.923
61613W        W21116   2.393  20.734  10.495
61614W        W21117   1.413  16.093   1.866
61615W        W21118  25.682  18.604   0.370
61616W        W21119  36.347  33.908   2.814
61617W        W21120  41.380  38.464   2.278
61618W        W21121  17.171  15.305   4.603
61619W        W21122   3.270  32.976  11.523
61620W        W21123  15.793   0.250   2.719
61621W        W21124  21.582  44.009  11.097
61622W        W21125  30.630  24.717   0.409
61623W        W21126  34.494   0.292  13.035
61624W        W21127  19.653  12.669  13.368
61625W        W21128  40.479  39.540  11.947
61626W        W21129   3.835  27.152  11.907
61627W        W21130  43.881  20.598  12.038
61628W        W21131  41.494   5.373  11.561
61629W        W21132  36.996  24.620   4.760
61630W        W21133  15.742  14.155   4.788
61631W        W21134  16.141   9.263   0.267
61632W        W21135   4.704  13.780  12.968
61633W        W21136  11.860   7.377   2.223
61634W        W21137  33.025  16.236   0.777
61635W        W21138   5.307  37.076  10.456
61636W        W21139  29.998  20.547   2.803
61637W        W21140  28.959   3.826  12.855
61638W        W21141  44.996  11.127   3.785
61639W        W21142  42.807  35.527   3.172
61640W        W21143  11.343  33.426   0.732
61641W        W21144   0.742  10.694   2.245
61642W        W21145  31.561   9.199   2.676
61643W        W21146  20.646  29.437   0.836
61644W        W21147  41.378   0.792  10.461
61645W        W21148   9.298   1.360  14.446
61646W        W21149   3.331  39.928  14.838
61647W        W21150   3.416  41.826   5.134
61648W        W21151   5.767  30.127   0.361
61649W        W21152  44.933  29.011   0.321
61650W        W21153   0.450  44.341  11.459
61651W        W21154  35.558   6.189  13.441
61652W        W21155  18.650  34.879  14.830
61653W        W21156  29.057   7.851   2.320
61654W        W21157  37.435  24.651   0.247
61655W        W21158  32.533  18.237   3.654
61656W        W21159  33.970  13.202   0.804
61657W        W21160  41.534  17.701  10.935
61658W        W21161  15.135  36.934  11.436
61659W        W21162   5.897  24.585   2.832
61660W        W21163  25.188   3.856   4.652
61661W        W21164  26.165   8.310   2.182
61662W        W21165  42.908  14.325  14.290
61663W        W21166  28.971  21.695  11.956
61664W        W21167  27.496  33.497  10.621
61665W        W21168   3.404  17.203   4.706
61666W        W21169  14.331   6.371   2.235
61667W        W21170  29.508   0.878   4.177
61668W        W21171  30.116  21.053   0.327
61669W        W21172  44.934  37.496  13.951
61670W        W21173  28.981  33.047  10.893
61671W        W21174   2.872  38.434  12.474
61672W        W21175  30.625  35.082  14.802
61673W        W21176  14.798  40.527  11.438
61674W        W21177   1.340  20.072   9.654
61675W        W21178  17.557  33.109   4.598
61676W        W21179  29.957  43.835   4.267
61677W        W21180  41.496  24.695  11.435
61678W        W21181  17.062   2.932   1.391
61679W        W21182  23.721  33.494  11.060
61680W        W21183  17.241  27.014   2.261
61681W        W21184  36.566  40.956   3.646
61682W        W21185  42.318  13.789   1.848
61683W        W21186  13.604  33.554  13.941
61684W        W21187  29.635  32.915  14.031
61685W        W21188  16.654  33.994  13.495
61686W        W21189  19.565  15.661   3.762
61687W        W21190  10.779  17.761   1.803
61688W        W21191  40.972   7.336  10.462
61689W        W21192   4.778   5.223   0.838
61690W        W21193   0.905  37.487   5.299
61691W        W21194   4.811  31.093   4.285
61692W        W21195  42.985  36.977  13.868
61693W        W21196   3.794  25.690   1.776
61694W        W21197  18.185   8.771  10.922
61695W        W21198  28.002  35.505   0.831
61696W        W21199  44.009  18.136   5.612
61697W        W21200   6.371  28.558  10.532
61698W        W21201  16.130  31.537  12.573
61699W        W21202   1.398  19.245   5.790
61700W        W21203  30.923   2.447  14.919
61701W        W21204  40.015  19.767   4.626
61702W        W21205  15.164  17.157   0.323
61703W        W21206  28.485   5.694  11.442
61704W        W21207   2.459   3.772  10.912
61705W        W21208   8.824  14.306  12.833
61706W        W21209  39.494  18.111  13.828
61707W        W21210   4.800  40.390   2.792
61708W        W21211  33.439  33.116  12.844
61709W        W21212   4.733  39.519  11.104
61710W        W21213  22.020   2.855  14.926
61711W        W21214  25.569  20.255   3.835
61712W        W21215  10.825  29.603  12.828
61713W        W21216   6.234  18.649  10.023
61714W        W21217  15.639  25.055   2.233
61715W        W21218  11.339  25.473  10.473
61716W        W21219   7.698  34.502  12.977
61717W        W21220  28.018  20.257   1.217
61718W        W21221  31.496  22.130   4.703
61719W        W21222  21.656  11.277  13.954
61720W        W21223  36.450  22.247  12.521
61721W        W21224  33.019   9.672  12.483
61722W        W21225  10.743  39.395  12.047
61723W        W21226  40.922  29.046   0.964
61724W        W21227  36.973  28.538   2.823
61725W        W21228  23.126  35.914  12.989
61726W        W21229  42.877  24.531  11.482
61727W        W21230   3.775  30.948  14.408
61728W        W21231   1.897   3.318   3.284
61729W        W21232  21.747  15.693  10.552
61730W        W21233  33.990  44.419  12.846
61731W        W21234   8.853  26.140  11.083
61732W        W21235  36.564  40.542   9.983
61733W        W21236   0.744   8.382   2.745
61734W        W21237   0.981  37.396  12.037
61735W        W21238   8.689   3.922   4.198
61736W        W21239  40.513  20.217   4.692
61737W        W21240  37.959   6.236   2.743
61738W        W21241  21.226  31.137   4.322
61739W        W21242  22.052   0.464  13.970
61740W        W21243  27.057  18.733  14.354
61741W        W21244  11.823  37.060   0.288
61742W        W21245   2.889  34.097  11.431
61743W        W21246   9.689  29.138   0.840
61744W        W21247  24.063  11.342  11.576
61745W        W21248  25.205  17.167  13.457
61746W        W21249  24.508   2.383   2.274
61747W        W21250   3.893  14.810   1.760
61748W        W21251  35.498  14.191  10.466
61749W        W21252  14.599  43.009   3.309
61750W        W21253  26.545  30.063   4.620
61751W        W21254  23.087   7.197  12.538
61752W        W21255  17.063  28.060  13.359
61753W        W21256  34.974  18.599  12.838
61754W        W21257  26.988  25.611   4.642
61755W        W21258  20.615  18.201  10.945
61756W        W21259  21.255  28.093  12.434
61757W        W21260   5.782   8.307  13.429
61758W        W21261   6.853   7.272   3.201
61759W        W21262  19.266  28.632  11.062
61760W        W21263  31.640  36.901   2.717
61761W        W21264  13.621  23.224  12.511
61762W        W21265  21.048  34.371   9.961
61763W        W21266  29.035  15.282  14.321
61764W        W21267  35.966  35.002   1.404
61765W        W21268  33.895  18.209  10.519
61766W        W21269  10.335  24.568  11.507
61767W        W21270  30.528  30.947  14.893
61768W        W21271  44.276  39.477  12.852
61769W        W21272  15.102   5.842   1.255
61770W        W21273  13.638  24.024   3.861
61771W        W21274  33.086  33.107   0.906
61772W        W21275  34.022  16.566   3.190
61773W        W21276  27.668  30.528   1.903
61774W        W21277  23.634  17.776  14.429
61775W        W21278  12.843  26.056   0.956
61776W        W21279  16.130  43.823  13.916
61777W        W21280  17.149  12.338   2.406
61778W        W21281  43.422  10.805   2.692
61779W        W21282  32.631  16.682   1.243
61780W        W21283  17.068  25.611   2.762
61781W        W21284  28.599   0.758   3.835
61782W        W21285  29.038   3.896   2.213
61783W        W21286  36.513   3.777   4.182
61784W        W21287  26.131   3.421   2.739
61785W        W21288  25.490  44.809   5.123
61786W        W21289  11.175  13.673  12.560
61787W        W21290  19.220  11.816   3.385
61788W        W21291  14.249   5.831   4.272
61789W        W21292  18.617  39.480  12.976
61790W        W21293  16.616  40.842  10.999
61791W        W21294   7.769  42.030   1.705
61792W        W21295   2.892  28.949   3.759
61793W        W21296  28.441  15.221   3.194
61794W        W21297  19.644  33.971   0.482
61795W        W21298  42.386  39.403  14.966
61796W        W21299   5.363  34.041  14.485
61797W        W21300  24.584  10.224   3.232
61798W        W21301  28.552   1.428   0.389
61799W        W21302   4.265  12.822   1.763
61800W        W21303  43.446  41.822   4.698
61801W        W21304   8.823  26.460   0.396
61802W        W21305  20.122  19.216  12.074
61803W        W21306  30.083  40.827  11.454
61804W        W21307  37.482  43.902   0.394
61805W        W21308  12.302   3.286  13.966
61806W        W21309  18.574  36.514   1.881
61807W        W21310  38.829  25.543   0.881
61808W        W21311  30.946  10.287  13.444
61809W        W21312  10.733   3.711   4.204
61810W        W21313  36.388  40.951   0.886
61811W        W21314  16.209  19.111   0.372
61812W        W21315   7.311  22.225   2.247
61813W        W21316  27.128   6.243  13.037
61814W        W21317  21.673  17.779   4.765
61815W        W21318  32.102  23.498  10.930
61816W        W21319  29.549  39.957   2.743
61817W        W21320   1.244  26.113  14.917
61818W        W21321   4.305  17.790   4.758
61819W        W21322  10.764   6.825   0.937
61820W        W21323  27.127   0.472   0.352
61821W        W21324  10.311  10.764   2.220
61822W        W21325  19.249  26.160  11.061
61823W        W21326  28.124  15.324  10.549
61824W        W21327  22.176  32.111  11.065
61825W        W21328  20.612   5.361  11.045
61826W        W21329  24.683   3.752  14.411
61827W        W21330  11.819   0.861  11.587
61828W        W21331  41.996   3.322   3.745
61829W        W21332  35.916  34.916  11.066
61830W        W21333   9.180   5.908  13.868
61831W        W21334  19.568  37.921   2.777
61832W        W21335  14.702  44.946   2.684
61833W        W21336  32.099  11.367  14.303
61834W        W21337   9.743   3.367  12.055
61835W        W21338  42.024   6.920  11.587
61836W        W21339  17.654  18.789   0.889
61837W        W21340  16.097   6.867   0.426
61838W        W21341  29.468  37.378   0.945
61839W        W21342  33.392  12.845  14.413
61840W        W21343   3.338  33.004   2.823
61841W        W21344  23.054  43.402  13.041
61842W        W21345  10.823  41.958   3.706
61843W        W21346  24.489  27.520   0.431
61844W        W21347  41.873  10.632  11.495
61845W        W21348  17.191   1.884   4.304
61846W        W21349   5.707  39.859   1.845
61847W        W21350  19.753  38.990   3.191
61848W        W21351  41.301   3.224   4.836
61849W        W21352  14.237  29.021  10.956
61850W        W21353  42.415  15.674   4.286
61851W        W21354  22.079   0.879  12.424
61852W        W21355   5.896  38.880  13.459
61853W        W21356   8.304  25.053  12.961
61854W        W21357   3.715  32.088   3.245
61855W        W21358  40.520  40.470  11.070
61856W        W21359   1.763  10.191  10.899
61857W        W21360  13.767  39.428  13.490
61858W        W21361  31.912  38.824   1.406
61859W        W21362   0.322  12.185  14.984
61860W        W21363  35.583  39.903   4.131
61861W        W21364   8.840  18.769  14.812
61862W        W21365  19.721  13.221   1.815
61863W        W21366   2.955  22.243   9.449
61864W        W21367  27.134   7.741   1.221
61865W        W21368  16.581  18.765  11.047
61866W        W21369  42.503  23.201   0.279
61867W        W21370  36.457   8.665  12.474
61868W        W21371  25.207   2.820  14.279
61869W        W21372  32.051  41.855  11.025
61870W        W21373   9.680  33.599   3.767
61871W        W21374   8.349  30.606   1.362
61872W        W21375  37.432  23.511   4.618
61873W        W21376   3.345   6.195  12.371
61874W        W21377  33.990   9.370  13.979
61875W        W21378  35.570  28.013   3.329
61876W        W21379   7.853  11.867   1.824
61877W        W21380  16.160   2.785  12.556
61878W        W21381  29.987  33.605   3.784
61879W        W21382  39.835  27.047   1.889
61880W        W21383  22.744   1.369   0.374
61881W        W21384  23.675  16.812   2.189
61882W        W21385  26.953  21.180  12.967
61883W        W21386  39.925  24.111   4.717
61884W        W21387  38.065  11.711   3.643
61885W        W21388  19.173   1.404  13.878
61886W        W21389   5.252   2.281  14.799
61887W        W21390  28.573   8.830  14.802
61888W        W21391  21.565  10.756  14.903
61889W        W21392  36.876   4.381  13.990
61890W        W21393   7.229   6.739   0.326
61891W        W21394  38.565  16.721   1.852
61892W        W21395  26.693  40.451   0.889
61893W        W21396  14.256  31.048   0.877
61894W        W21397  28.941   8.356  11.495
61895W        W21398  41.503  40.995   1.843
61896W        W21399  18.082  37.976  12.838
61897W        W21400  37.352   4.428  11.073
61898W        W21401  15.169  18.643  13.408
61899W        W21402  14.795  41.808  14.996
61900W        W21403  18.775  14.299   0.477
61901W        W21404  36.021  13.727  13.899
61902W        W21405  22.185  19.757   5.137
61903W        W21406  35.594  13.642   3.353
61904W        W21407  37.366   6.755   0.824
61905W        W21408   8.395  34.092  12.441
61906W        W21409  11.144  38.901   4.767
61907W        W21410   1.776   7.359   4.628
61908W        W21411   6.355  21.104   5.149
61909W        W21412  24.202   4.881  14.985
61910W        W21413   0.413  17.296  11.055
61911W        W21414  14.304  19.673  13.959
61912W        W21415  40.429  38.374  12.444
61913W        W21416  43.446   4.253   4.180
61914W        W21417  38.413   5.302   0.474
61915W        W21418  41.004  32.096  11.858
61916W        W21419  32.016  28.655  13.401
61917W        W21420  26.048   3.241   2.225
61918W        W21421  19.772  37.907  13.309
61919W        W21422  14.253  30.601  12.381
61920W        W21423  20.196   1.932  14.835
61921W        W21424  19.072  12.192   0.461
61922W        W21425  39.054  32.918  13.797
61923W        W21426  17.723  14.213   4.155
61924W        W21427  39.017   4.426   1.327
61925W        W21428  15.707   9.361   1.854
61926W        W21429  24.170   2.773  13.949
61927W        W21430  11.691   0.841  10.148
61928W        W21431  39.359  41.310   0.322
61929W        W21432  36.046  15.209   3.858
61930W        W21433  34.083   1.426  10.468
61931W        W21434  14.667  42.384  14.384
61932W        W21435  38.966  22.195  13.815
61933W        W21436  21.705  37.939   0.892
61934W        W21437  18.715  18.159  14.478
61935W        W21438  19.709   2.861   3.295
61936W        W21439  14.099  20.580  11.401
61937W        W21440  26.019   8.899  13.439
61938W        W21441  36.042   8.302  13.826
61939W        W21442  32.396  40.993   9.605
61940W        W21443  36.850  36.538   2.749
61941W        W21444  41.486  41.843   4.674
61942W        W21445  14.822  15.763  11.553
61943W        W21446  23.659  41.803  14.438
61944W        W21447   9.887   7.847   0.295
61945W        W21448  40.894   8.786   4.267
61946W        W21449  18.658   4.830  10.128
61947W        W21450  16.679  16.291  12.545
61948W        W21451  16.656   3.781  12.933
61949W        W21452  37.975  14.796  13.887
61950W        W21453  32.426   0.327  12.365
61951W        W21454  33.129  36.983   0.828
61952W        W21455  13.164   8.285   4.196
61953W        W21456   3.756   6.234   0.363
61954W        W21457  25.694  29.578   0.258
61955W        W21458  32.077   1.787   2.196
61956W        W21459  15.720  43.849   4.317
61957W        W21460  42.370  20.639  12.399
61958W        W21461   6.273  13.710   2.298
61959W        W21462  29.509   4.775  13.819
61960W        W21463  23.568  10.384  14.871
61961W        W21464  36.585   8.169  13.847
61962W        W21465  41.826   8.397  10.616
61963W        W21466  20.205   7.400  11.440
61964W        W21467   4.214  36.491   3.208
61965W        W21468  18.092  17.578   2.887
61966W        W21469  31.558  39.851   0.847
61967W        W21470  21.705  31.586  12.999
61968W        W21471  37.053  39.379  14.924
61969W        W21472  33.070  27.105  12.991
61970W        W21473  36.588  31.455  14.406
61971W        W21474  11.139  36.423   3.693
61972W        W21475  35.966  24.487   3.344
61973W        W21476   2.361  40.955  13.926
61974W        W21477  20.240   9.150   1.304
61975W        W21478  22.172  32.125   3.726
61976W        W21479  33.458  10.167  12.047
61977W        W21480  18.777  25.665   0.802
61978W        W21481  34.039  31.110   2.770
61979W        W21482  34.546  20.579   4.657
61980W        W21483   4.282  43.276  12.420
61981W        W21484  39.024  25.640   2.882
61982W        W21485  29.634  17.116   0.785
61983W        W21486   2.373  19.657  11.573
61984W        W21487  31.968  10.304   0.293
61985W        W21488  19.710  27.126   4.206
61986W        W21489  17.170   0.430  13.876
61987W        W21490  22.011   7.214   2.762
61988W        W21491  12.835   6.302  14.997
61989W        W21492  16.253  11.725  11.462
61990W        W21493  36.350  36.868  12.046
61991W        W21494  15.170  14.647  13.544
61992W        W21495   0.763  21.676   4.239
61993W        W21496   5.761  33.038  11.584
61994W        W21497   9.676  34.420  13.874
61995W        W21498  21.082   1.421  11.437
61996W        W21499   2.374  35.441   0.466
61997W        W21500  16.591  12.855   4.619
61998W        W21501   6.352  41.338   4.342
61999W        W21502  32.016  28.019   2.251
62000W        W21503  36.051  31.567  10.918
62001W        W21504  11.367   3.286   4.776
62002W        W21505  12.118  19.559  13.432
62003W        W21506  21.090  21.540  14.800
62004W        W21507  30.590   2.456   0.940
62005W        W21508  32.058  17.785   9.946
62006W        W21509   1.954  32.512  13.334
62007W        W21510  16.085  10.846   2.391
62008W        W21511  27.131  18.790   4.157
62009W        W21512  22.218   0.490   1.829
62010W        W21513  27.580  31.541   0.432
62011W        W21514  29.055  19.159   4.157
62012W        W21515  34.112  25.142   3.257
62013W        W21516  31.491  10.304   1.819
62014W        W21517  16.730  44.848   2.864
62015W        W21518   9.378  34.879  12.436
62016W        W21519   5.296  28.455  10.112
62017W        W21520  39.842  24.029   2.882
62018W        W21521  17.240  24.494   0.774
62019W        W21522  43.022   2.424  13.914
62020W        W21523  40.432  23.610  13.522
62021W        W21524  10.291  21.154   0.958
62022W        W21525  29.974  39.811   0.317
62023W        W21526   9.151  18.096   2.316
62024W        W21527  23.142  33.129   1.376
62025W        W21528  17.247  36.008  12.070
62026W        W21529  37.519  33.617   0.962
62027W        W21530  23.057  25.065   2.365
62028W        W21531   4.819  26.584  10.888
62029W        W21532  27.529   0.420   0.257
62030W        W21533  31.026  30.513  13.046
62031W        W21534   1.278  16.228  11.859
62032W        W21535   3.372   1.381   4.140
62033W        W21536  14.273  41.881   0.387
62034W        W21537  22.229   1.413   5.735
62035W        W21538   6.739   8.665   0.802
62036W        W21539  35.533  44.944   1.271
62037W        W21540  20.065  10.837  12.087
62038W        W21541   2.875   9.835  12.033
62039W        W21542  10.353  16.732  13.826
62040W        W21543  36.500  38.509  14.443
62041W        W21544  18.684  17.645   4.607
62042W        W21545  38.379  44.370   1.865
62043W        W21546  43.346  16.608   1.303
62044W        W21547  42.990  42.836   1.275
62045W        W21548  28.467  24.079   2.265
62046W        W21549   0.909   0.811  12.948
62047W        W21550  12.832  23.175  10.608
62048W        W21551  37.538  18.226  14.887
62049W        W21552  31.436  14.152   3.635
62050W        W21553  42.841  22.534   5.208
62051W        W21554  19.179  21.102   2.371
62052W        W21555   7.259   0.904   2.223
62053W        W21556  20.265   3.240  12.056
62054W        W21557  35.464   3.242  13.028
62055W        W21558  21.551  29.048  12.344
62056W        W21559  24.639  23.036   3.174
62057W        W21560  28.548  32.960  11.114
62058W        W21561  42.799  26.178  10.524
62059W        W21562  27.968   3.740  11.897
62060W        W21563  30.538  19.055  11.068
62061W        W21564  25.689  13.769   1.263
62062W        W21565   1.390  11.846   2.397
62063W        W21566  36.935  19.086   2.667
62064W        W21567   8.657  10.359   5.255
62065W        W21568  21.744  21.182   4.611
62066W        W21569  24.100  19.607   4.784
62067W        W21570  25.517  37.904   2.872
62068W        W21571   0.334  24.693  10.954
62069W        W21572  28.661  19.775   0.242
62070W        W21573   2.894   1.298  13.534
62071W        W21574  22.176  38.869  10.942
62072W        W21575  23.545  41.938  10.624
62073W        W21576   9.786  12.235  11.892
62074W        W21577  22.191  38.857  14.510
62075W        W21578  30.583   1.846  11.927
62076W        W21579  19.251   0.412   0.874
62077W        W21580   1.394  20.204   0.733
62078W        W21581  18.064   2.957   0.365
62079W        W21582   5.433  11.822   3.163
62080W        W21583  19.576  26.982  14.872
62081W        W21584   6.331  38.524  12.954
62082W        W21585   5.196  29.524  12.438
62083W        W21586  14.738  18.626  10.503
62084W        W21587  12.833   3.941  14.299
62085W        W21588  14.115  21.132  14.976
62086W        W21589  11.327  32.620   0.438
62087W        W21590  24.599   5.230  11.557
62088W        W21591  28.009   9.165   1.712
62089W        W21592  17.683  16.761  13.990
62090W        W21593  25.173   5.244   3.727
62091W        W21594   0.964  39.536  11.076
62092W        W21595   3.294   4.287  14.390
62093W        W21596  33.045  30.944   2.716
62094W        W21597  23.718  15.163  11.488
62095W        W21598  36.917   2.324  12.433
62096W        W21599  31.642   1.953   0.283
62097W        W21600  31.970  24.696   2.706
62098W        W21601   4.342   9.768   3.175
62099W        W21602  19.766  41.384   4.688
62100W        W21603  39.974  14.654  14.925
62101W        W21604   8.658  43.919  14.395
62102W        W21605  22.138  43.967  14.942
62103W        W21606  24.096  35.558  11.881
62104W        W21607  21.753  34.879  14.826
62105W        W21608  40.940  26.018  12.908
62106W        W21609  40.531  38.528   4.630
62107W        W21610   0.334   7.789  14.032
62108W        W21611   7.208  37.918   1.863
62109W        W21612  44.978  41.397  14.331
62110W        W21613  29.962  43.435  12.076
62111W        W21614  32.635  16.112   0.462
62112W        W21615  13.111  19.745   0.749
62113W        W21616  30.439   8.165   3.329
62114W        W21617  16.107  33.946   2.328
62115W        W21618   1.329  32.013   4.828
62116W        W21619  11.755  36.432  11.897
62117W        W21620   0.872   7.837   2.676
62118W        W21621  43.787  22.570   0.761
62119W        W21622  40.828  36.544  13.322
62120W        W21623   5.818  30.082   2.780
62121W        W21624  14.308  37.889   2.757
62122W        W21625  21.236  24.586   1.448
62123W        W21626  22.713  18.599  11.084
62124W        W21627  28.978   3.786  12.500
62125W        W21628  13.304   7.777  13.836
62126W        W21629  37.082   6.916  11.072
62127W        W21630  43.932  29.956   2.731
62128W        W21631  20.660  22.019  11.055
62129W        W21632  21.112  12.621   3.206
62130W        W21633  19.189  42.016  10.890
62131W        W21634  24.154  22.019   4.616
62132W        W21635  15.102  17.226  14.509
62133W        W21636  39.020  33.442  14.785
62134W        W21637  32.987   4.354  13.453
62135W        W21638   1.463   6.375  14.415
62136W        W21639  15.820  21.219  13.378
62137W        W21640  33.031  23.528  13.310
62138W        W21641  10.350  28.973  13.060
62139W        W21642  15.595  24.132   2.832
62140W        W21643  24.208   6.781  12.080
62141W        W21644  13.755  28.511  12.414
62142W        W21645   6.884   6.302  12.526
62143W        W21646  34.400  40.415   2.225
62144W        W21647  11.849   4.431   4.792
62145W        W21648  40.994  21.729  14.893
62146W        W21649   4.353  12.699   1.306
62147W        W21650  42.373  31.498   2.194
62148W        W21651   9.723  41.871   3.276
62149W        W21652   9.768  24.605  11.578
62150W        W21653  42.893   1.475  13.800
62151W        W21654  28.508  27.994   0.804
62152W        W21655  24.994  42.988   1.368
62153W        W21656   6.189   6.428  14.429
62154W        W21657  39.906  38.045   1.292
62155W        W21658  22.012  37.494   3.187
62156W        W21659  27.994  13.771  13.499
62157W        W21660  41.398  18.077  13.979
62158W        W21661  12.771  42.004   0.868
62159W        W21662   6.921  42.424  11.926
62160W        W21663  35.026  29.175  12.403
62161W        W21664  36.002  36.036  12.960
62162W        W21665  10.720  25.020  14.839
62163W        W21666   7.720  41.920  14.952
62164W        W21667   9.334  16.695  12.867
62165W        W21668  31.481   4.864   4.613
62166W        W21669  18.217   0.773  10.480
62167W        W21670   6.789  16.598   0.794
62168W        W21671   1.275  27.135   3.693
62169W        W21672   0.916  30.565   1.841
62170W        W21673  28.085  23.240   4.226
62171W        W21674  21.512  23.208   2.348
62172W        W21675  43.451  30.571   1.444
62173W        W21676   9.271   7.336  12.927
62174W        W21677   7.898  14.629   3.345
62175W        W21678  11.225  12.833   2.399
62176W        W21679  16.112  28.141   1.287
62177W        W21680  31.551  31.952  10.576
62178W        W21681  35.418   1.873   1.260
62179W        W21682  26.609  24.631  11.105
62180W        W21683  20.240   2.292   1.368
62181W        W21684   2.869  41.897   4.735
62182W        W21685   2.446  31.411   3.239
62183W        W21686  34.087  34.443  12.480
62184W        W21687  11.743  42.031   1.366
62185W        W21688  39.049  34.459   4.296
62186W        W21689  18.245  38.461   4.626
62187W        W21690   2.280  24.999   1.330
62188W        W21691  15.254  30.009   0.434
62189W        W21692  15.777  38.898  14.993
62190W        W21693  21.671  27.191   4.144
62191W        W21694  32.130  39.456   2.899
62192W        W21695   1.357  10.235   1.914
62193W        W21696  20.060  41.981  12.967
62194W        W21697  20.080  35.985   0.785
62195W        W21698  37.372  39.844  13.904
62196W        W21699  40.015  25.704   4.832
62197W        W21700  27.980  42.311   3.712
62198W        W21701  39.356  15.584  12.066
62199W        W21702  25.677  30.940   3.195
62200W        W21703  34.035  23.586  11.062
62201W        W21704  30.603  30.065   1.835
62202W        W21705  17.676   6.758   0.922
62203W        W21706  44.896  23.658   0.398
62204W        W21707  30.008   2.406   0.471
62205W        W21708  40.030  34.955  11.469
62206W        W21709   7.193   1.887   4.655
62207W        W21710   7.718  10.297  13.837
62208W        W21711   3.786  20.189   1.444
62209W        W21712  39.550   3.830   2.712
62210W        W21713  25.712  37.503   2.686
62211W        W21714  37.529  12.744   1.430
62212W        W21715  26.680  34.031  11.956
62213W        W21716  38.847  16.144   1.851
62214W        W21717  36.553   3.894   0.459
62215W        W21718  34.550  13.156   1.919
62216W        W21719   8.288  12.247   2.415
62217W        W21720  41.531  14.695   1.375
62218W        W21721  44.824   4.353   4.254
62219W        W21722  15.672  11.831  11.412
62220W        W21723  11.131  35.027  13.491
62221W        W21724  13.642  31.101  14.877
62222W        W21725   6.375  44.773   3.350
62223W        W21726   4.914  37.417   4.141
62224W        W21727   8.690  43.786   0.875
62225W        W21728  25.202   7.256   1.765
62226W        W21729  34.373   2.907   0.915
62227W        W21730  31.571  34.490  13.898
62228W        W21731  16.666   8.242   1.815
62229W        W21732  29.158  44.463   1.401
62230W        W21733  12.191  44.908   4.616
62231W        W21734  33.112   7.788  14.403
62232W        W21735   5.737   0.375   2.840
62233W        W21736  14.235  27.543   2.864
62234W        W21737  39.410   0.273  13.429
62235W        W21738  20.204  37.374   4.673
62236W        W21739  11.763  32.888   1.814
62237W        W21740   5.211  40.897   3.361
62238W        W21741  33.401  30.997   4.129
62239W        W21742   5.388  34.451   4.759
62240W        W21743  24.218  39.339  11.872
62241W        W21744  15.178  16.669  14.377
62242W        W21745  13.138   4.777   4.698
62243W        W21746  28.046   0.863  13.962
62244W        W21747  43.381  40.407  13.476
62245W        W21748   4.708  34.007  12.368
62246W        W21749  30.485  29.500  10.546
62247W        W21750  24.566   0.965   2.322
62248W        W21751   4.723   0.293   2.414
62249W        W21752  23.587  19.755   2.662
62250W        W21753   1.877  24.656  12.985
62251W        W21754  30.654   8.327   3.644
62252W        W21755  21.199  35.436   0.264
62253W        W21756   7.806  13.109  13.977
62254W        W21757  17.255  22.071   0.755
62255W        W21758   5.906  37.904   1.361
62256W        W21759  32.413  22.681   4.337
62257W        W21760   6.346  17.094   1.886
62258W        W21761  42.507  14.669   1.850
62259W        W21762  38.877  26.610   1.372
62260W        W21763  38.048  20.574   1.790
62261W        W21764  31.499  10.768  11.574
62262W        W21765  14.278  34.931   0.803
62263W        W21766  16.626  12.658  14.942
62264W        W21767  19.171  13.319   0.263
62265W        W21768  32.523  35.561   3.661
62266W        W21769  25.604  27.651   1.847
62267W        W21770  15.267  32.478  13.052
62268W        W21771   0.791  41.916   2.742
62269W        W21772  43.376  23.068   3.733
62270W        W21773  16.091  13.620   0.419
62271W        W21774  15.801   1.978  14.822
62272W        W21775   3.290   4.763   4.241
62273W        W21776  40.851  11.832   1.374
62274W        W21777   0.468  43.436   2.793
62275W        W21778  33.942   4.824  12.373
62276W        W21779   6.210  31.066  11.567
62277W        W21780   9.361   4.430  13.535
62278W        W21781  17.204   7.407  11.481
62279W        W21782  27.602  39.353  14.799
62280W        W21783  22.678  42.937   3.310
62281W        W21784  34.399  27.530  13.004
62282W        W21785  36.576   3.330   4.605
62283W        W21786  42.026  41.904   2.777
62284W        W21787  37.526  28.157   2.721
62285W        W21788  19.185  40.917   4.293
62286W        W21789  38.002  20.115   4.620
62287W        W21790  24.151   9.277  13.376
62288W        W21791  42.311  29.467   0.279
62289W        W21792  37.983  22.527   2.765
62290W        W21793  30.485  28.165   1.230
62291W        W21794  10.764   4.226   2.874
62292W        W21795  12.339  31.457  14.976
62293W        W21796   0.301  10.784  13.018
62294W        W21797   3.452  43.852  12.070
62295W        W21798  30.571   8.720   2.394
62296W        W21799  18.155  20.105   1.364
62297W        W21800   1.403  19.633   0.959
62298W        W21801   6.299   3.769  14.303
62299W        W21802   6.680  21.580   4.275
62300W        W21803  26.080  15.328   3.730
62301W        W21804  13.679  23.609   3.669
62302W        W21805  44.486  10.208   1.901
62303W        W21806   2.768  36.041   3.736
62304W        W21807  29.518  26.076  13.459
62305W        W21808  14.637  36.449   3.347
62306W        W21809  12.195  28.993  11.540
62307W        W21810   4.857  28.502   9.485
62308W        W21811  10.279  31.517   2.735
62309W        W21812  32.093  19.635  12.530
62310W        W21813  23.051  11.350   4.189
62311W        W21814  36.481  39.879   1.414
62312W        W21815  31.075  25.189  14.992
62313W        W21816  27.962  33.042   0.964
62314W        W21817  36.467  15.221  12.982
62315W        W21818   7.902  16.769   4.604
62316W        W21819   9.169  43.001   4.174
62317W        W21820   2.774   6.832   2.700
62318W        W21821  20.596  16.658  14.984
62319W        W21822  20.725   4.887  13.795
62320W        W21823  32.016  11.693   1.891
62321W        W21824  23.706  38.548   1.933
62322W        W21825  29.154  37.582  13.900
62323W        W21826  12.203  28.501  11.918
62324W        W21827  34.405  18.563   3.278
62325W        W21828  10.312   7.211  13.962
62326W        W21829  34.954  44.320   5.104
62327W        W21830   1.871  35.598  14.501
62328W        W21831  16.773   7.263   4.741
62329W        W21832  41.000   1.242   0.912
62330W        W21833  39.043  36.073   9.999
62331W        W21834   7.769  15.113  11.562
62332W        W21835   9.680  29.989   2.770
62333W        W21836  29.569  44.866  12.566
62334W        W21837   3.419  34.879   3.347
62335W        W21838  30.423  13.755   2.770
62336W        W21839   9.736  39.013   3.301
62337W        W21840   6.407  30.913   4.237
62338W        W21841  44.500  11.686  12.092
62339W        W21842  41.018  31.526   3.835
62340W        W21843  21.035   2.769   0.808
62341W        W21844  40.798  36.537   0.421
62342W        W21845   9.832  15.300   2.802
62343W        W21846  40.449  30.450  14.763
62344W        W21847  19.265  40.492  14.460
62345W        W21848   0.836  29.499  14.014
62346W        W21849  33.410  18.174   3.827
62347W        W21850  22.125   5.841  14.458
62348W        W21851  11.146  37.054   5.583
62349W        W21852  26.177  33.569  11.976
62350W        W21853  23.077  20.677  11.382
62351W        W21854  31.403  29.084   1.849
62352W        W21855  13.644  35.900  12.440
62353W        W21856   2.744   2.753   3.273
62354W        W21857  35.486  39.537   0.829
62355W        W21858  21.665  18.074  12.823
62356W        W21859  31.116  35.873   0.428
62357W        W21860  28.563  18.126  11.506
62358W        W21861  21.685  27.071  14.814
62359W        W21862  29.655  44.941   3.298
62360W        W21863   9.205  20.136   1.280
62361W        W21864   7.290  33.543   2.715
62362W        W21865  28.642   9.662  14.774
62363W        W21866   5.288  27.550  14.853
62364W        W21867  39.317  14.232  11.969
62365W        W21868  23.724  16.587  14.352
62366W        W21869  18.104  41.790   4.350
62367W        W21870  19.676   8.346  11.594
62368W        W21871   9.159  18.584   0.762
62369W        W21872  24.649  38.962   2.846
62370W        W21873   7.829   7.791   3.869
62371W        W21874  25.481  26.672   2.337
62372W        W21875  15.704  25.625   4.116
62373W        W21876  23.525  18.756   2.707
62374W        W21877   4.699  14.590   9.677
62375W        W21878  32.483  17.082  11.025
62376W        W21879  20.629  17.650  14.013
62377W        W21880  19.643  23.134  10.617
62378W        W21881   8.201  39.400   1.282
62379W        W21882   7.905  38.448  11.975
62380W        W21883  28.954  13.717   1.438
62381W        W21884  32.622  29.482   0.407
62382W        W21885   3.274  32.890  12.845
62383W        W21886  40.488  16.152  13.380
62384W        W21887  28.977  26.140   3.229
62385W        W21888   8.179  12.797   3.732
62386W        W21889   0.784  38.071   4.676
62387W        W21890   8.392   7.185   0.899
62388W        W21891  40.853   4.904   3.718
62389W        W21892  30.636  22.737  11.580
62390W        W21893  29.539  35.428   1.786
62391W        W21894  21.030  27.626  14.506
62392W        W21895   0.940  30.038   5.117
62393W        W21896   3.888  30.053   2.267
62394W        W21897  40.975  16.795   0.901
62395W        W21898  14.321  37.431   4.617
62396W        W21899  42.823   8.714   4.759
62397W        W21900  19.693  31.623   0.409
62398W        W21901  42.920  12.243   4.679
62399W        W21902  40.965  33.506   4.125
62400W        W21903  18.737   4.700  11.950
62401W        W21904  31.008  27.094   4.732
62402W        W21905  28.940  44.290  13.488
62403W        W21906  30.455  10.323  12.454
62404W        W21907   1.828   8.298  13.873
62405W        W21908  20.144  31.600   3.731
62406W        W21909   4.822  28.477   2.270
62407W        W21910   3.805  15.695  14.876
62408W        W21911   4.926  16.792  13.521
62409W        W21912  18.776  33.476   3.214
62410W        W21913  29.525  35.602  11.890
62411W        W21914  20.148  13.343   0.455
62412W        W21915  38.453  34.908  10.937
62413W        W21916  41.837  24.054   3.293
62414W        W21917   1.483  35.419   0.354
62415W        W21918  25.063  26.044  10.553
62416W        W21919  41.829  40.918  12.560
62417W        W21920   9.191  18.170  14.918
62418W        W21921   1.258   6.731  12.929
62419W        W21922  38.928  39.407   0.374
62420W        W21923  43.404  36.049   3.777
62421W        W21924   8.170  39.919   0.954
62422W        W21925   5.308  31.066   1.291
62423W        W21926  39.549  11.317   2.399
62424W        W21927  29.605  39.861   3.712
62425W        W21928  16.623  14.329  12.423
62426W        W21929  39.049  38.526  12.888
62427W        W21930  15.131  12.793   4.764
62428W        W21931  29.553   0.326  12.032
62429W        W21932  22.631  13.269  14.814
62430W        W21933  32.418  31.994  14.841
62431W        W21934  14.194  29.049   0.940
62432W        W21935  21.533  26.632  13.830
62433W        W21936   2.363  27.634  14.400
62434W        W21937   3.410  30.484  14.857
62435W        W21938  34.054   1.476   3.739
62436W        W21939  17.220  23.621   1.695
62437W        W21940  37.977  40.826   2.386
62438W        W21941  37.883  36.075   0.271
62439W        W21942  39.560   7.840   2.328
62440W        W21943   9.887  10.321  12.933
62441W        W21944  19.124  43.847  12.439
62442W        W21945   9.699  44.338   4.724
62443W        W21946  16.151   0.323  11.416
62444W        W21947   5.883  31.586  14.789
62445W        W21948  22.187  13.646  10.498
62446W        W21949  38.966  33.429   3.252
62447W        W21950  11.822   6.292   2.224
62448W        W21951  32.938  20.095  14.359
62449W        W21952  36.088  33.398  13.859
62450W        W21953  35.100   6.876   1.925
62451W        W21954   2.325  20.580   5.650
62452W        W21955  27.096   6.357  10.112
62453W        W21956  19.703  25.146  13.905
62454W        W21957  23.663  10.144   1.360
62455W        W21958  30.085   0.274  13.893
62456W        W21959  40.481  22.123   2.306
62457W        W21960  21.514   8.789  11.377
62458W        W21961   9.156  20.687   2.289
62459W        W21962  21.589  26.554  11.032
62460W        W21963  20.626   4.333   2.342
62461W        W21964  15.803   5.324  11.484
62462W        W21965  34.558  14.107   2.403
62463W        W21966  23.042  43.864   3.220
62464W        W21967  44.423  41.459  10.615
62465W        W21968  14.162  26.554   2.290
62466W        W21969  31.525   2.833  12.376
62467W        W21970   8.259  17.089   3.784
62468W        W21971  33.072  10.340  13.806
62469W        W21972  26.660   9.292   2.206
62470W        W21973  15.615  28.975   3.834
62471W        W21974  26.084  33.464   3.758
62472W        W21975  43.950  40.009  11.038
62473W        W21976   7.723  25.557  10.517
62474W        W21977   6.392  19.541   3.815
62475W        W21978  38.886  11.739   1.349
62476W        W21979   5.346  33.999  14.004
62477W        W21980  40.982  21.115  14.454
62478W        W21981  34.108   7.329  12.551
62479W        W21982   1.936  14.814  14.879
62480W        W21983  31.569  22.099  13.469
62481W        W21984  33.613  25.213  11.601
62482W        W21985  18.226  21.630   4.659
62483W        W21986  39.819  11.269  12.903
62484W        W21987   4.825  20.052   3.264
62485W        W21988  11.157  13.616  13.915
62486W        W21989  37.026   4.398  12.369
62487W        W21990  38.949  18.605  11.611
62488W        W21991  22.741  27.042  13.056
62489W        W21992  34.380  35.003  11.375
62490W        W21993  23.192  44.891   4.216
62491W        W21994  29.528  23.598   2.293
62492W        W21995  31.015  18.239  11.054
62493W        W21996   8.305  25.129  11.451
62494W        W21997  38.823  35.449   4.117
62495W        W21998   9.770  21.233   0.280
62496W        W21999  11.658   8.867  13.400
62497W        W22000  19.129  20.060   2.301
62498W        W22001  41.829  38.829  14.473
62499W        W22002  14.659   0.877   0.826
62500W        W22003  38.973  10.365  10.614
62501W        W22004  29.108  40.394   4.617
62502W        W22005  43.348  34.601  14.956
62503W        W22006   2.809  43.370  10.485
62504W        W22007  13.775  30.159   4.324
62505W        W22008  41.921  17.164   3.796
62506W        W22009  11.656  44.773   2.370
62507W        W22010  11.287  21.024   5.241
62508W        W22011  40.050  24.056  14.835
62509W        W22012  17.098  20.584  14.967
62510W        W22013  43.905  34.557   2.314
62511W        W22014  32.094  30.629   0.810
62512W        W22015  32.048  13.746   3.643
62513W        W22016  35.085  42.472   1.866
62514W        W22017  21.219  10.197   0.806
62515W        W22018  34.001  41.954  10.500
62516W        W22019  38.075  41.341   2.392
62517W        W22020  38.060  21.160   1.399
62518W        W22021  21.235  12.323  13.413
62519W        W22022  14.797   5.748   2.686
62520W        W22023  35.046  29.027   4.188
62521W        W22024  34.005  41.333  10.939
62522W        W22025  38.913   7.316   2.883
62523W        W22026   4.441  40.416   4.140
62524W        W22027  26.958   7.211  14.461
62525W        W22028   8.879  18.176  14.892
62526W        W22029  15.673  36.968  10.604
62527W        W22030  28.465   1.865   5.171
62528W        W22031  27.525  13.801  10.534
62529W        W22032  17.557  37.568   3.695
62530W        W22033   4.352  28.622  14.913
62531W        W22034  25.477   8.257   3.691
62532W        W22035  20.664  25.474  10.951
62533W        W22036  23.056  17.758  10.941
62534W        W22037  30.061  40.802  14.288
62535W        W22038  40.004  33.002   2.717
62536W        W22039  15.244  31.597   0.962
62537W        W22040  43.992  28.048  13.829
62538W        W22041  30.455  30.925  12.497
62539W        W22042   6.761  21.239  14.364
62540W        W22043  33.998  14.673   1.295
62541W        W22044  28.503  27.559   1.289
62542W        W22045  36.576  29.999  11.931
62543W        W22046   9.773  38.410  12.006
62544W        W22047  37.952  30.098   0.443
62545W        W22048  37.955  11.300   0.296
62546W        W22049  13.618   6.894  12.564
62547W        W22050  40.487  20.763   3.380
62548W        W22051  43.898   2.431  11.530
62549W        W22052   7.757  41.872  14.363
62550W        W22053  27.659  33.479   3.346
62551W        W22054   2.922  30.501   1.414
62552W        W22055  32.410  42.376  14.023
62553W        W22056  26.171  38.001   4.758
62554W        W22057  20.127   3.764   3.294
62555W        W22058   6.314  36.386   3.192
62556W        W22059   5.801  13.159   2.693
62557W        W22060  18.224  29.144   1.756
62558W        W22061  39.502   6.806   2.754
62559W        W22062   7.868  29.602   4.820
62560W        W22063  31.469   9.853   9.989
62561W        W22064  39.523  26.999   4.768
62562W        W22065  13.819  17.691   1.833
62563W        W22066  40.936  36.955   2.811
62564W        W22067  40.385  18.649   2.744
62565W        W22068  10.808   1.846   4.331
62566W        W22069   6.324   7.302  11.882
62567W        W22070  20.164  14.633  12.536
62568W        W22071   3.802   5.851  14.393
62569W        W22072  15.100   2.800  12.088
62570W        W22073  38.522  12.676  14.016
62571W        W22074  11.666   3.956  13.492
62572W        W22075  33.402  44.852  12.974
62573W        W22076  11.276  44.259  10.044
62574W        W22077  39.851  23.584   1.383
62575W        W22078  24.138  22.043   0.456
62576W        W22079  41.424  18.589  14.925
62577W        W22080  31.946  42.449  10.637
62578W        W22081  14.276  30.474   3.337
62579W        W22082  41.864  29.486   1.311
62580W        W22083   9.325  43.370   0.781
62581W        W22084  20.193  44.942   0.906
62582W        W22085  38.360  40.380   1.288
62583W        W22086  19.628   6.270   1.748
62584W        W22087  36.883  10.728  14.989
62585W        W22088  40.032  17.770  13.911
62586W        W22089  25.988  25.069   0.458
62587W        W22090   3.899  44.498   0.259
62588W        W22091  17.072  39.995  10.481
62589W        W22092  18.655   5.353   3.318
62590W        W22093  32.956  24.032  13.311
62591W        W22094  42.032   7.413   3.642
62592W        W22095  11.365   0.324   2.406
62593W        W22096  16.142  23.638  13.479
62594W        W22097  26.068  36.480   1.215
62595W        W22098  26.122   9.768  12.461
62596W        W22099  10.288  24.669   1.214
62597W        W22100  38.820  14.323  13.063
62598W        W22101  43.406  21.111  12.093
62599W        W22102  27.608  17.185  13.540
62600W        W22103   3.774  35.068   3.681
62601W        W22104  17.238  32.503   3.301
62602W        W22105  32.905  19.141   1.897
62603W        W22106  44.957  38.474   4.200
62604W        W22107  40.479  42.525   1.755
62605W        W22108  22.590  35.374   2.667
62606W        W22109   7.274  35.024   3.829
62607W        W22110  26.600  30.004  12.471
62608W        W22111  23.123  21.063  11.593
62609W        W22112   6.289  24.072  12.430
62610W        W22113   8.803  43.932   2.836
62611W        W22114  39.550  23.207  13.961
62612W        W22115  20.582  19.590  11.961
62613W        W22116   2.234  27.060   2.398
62614W        W22117  37.464  31.970   3.762
62615W        W22118  28.556  31.409   0.815
62616W        W22119  10.819  29.507  14.509
62617W        W22120   7.732  10.221  13.461
62618W        W22121  34.431  13.814   3.726
62619W        W22122  22.179  20.629  10.543
62620W        W22123  18.170  34.451   1.437
62621W        W22124  10.724  13.671  13.953
62622W        W22125  43.987  38.066  14.390
62623W        W22126  29.608  32.897   3.757
62624W        W22127   5.420  13.306  13.911
62625W        W22128  24.634  26.621   4.822
62626W        W22129  32.481  20.571  11.938
62627W        W22130  44.263  19.587   4.735
62628W        W22131  15.316  42.431   0.483
62629W        W22132  26.006   2.277   2.746
62630W        W22133  21.127   0.942   3.214
62631W        W22134  11.846  13.258   5.318
62632W        W22135  37.573  43.451   2.189
62633W        W22136  17.273  10.211  10.629
62634W        W22137  37.414  21.133   2.277
62635W        W22138  25.485  15.306  14.365
62636W        W22139  19.048  12.777   0.775
62637W        W22140  14.623  18.657  11.890
62638W        W22141   7.873   8.272  10.524
62639W        W22142  30.104  43.411   2.882
62640W        W22143  44.491  17.800   0.247
62641W        W22144  35.505  22.106  12.847
62642W        W22145  33.544  39.499   2.814
62643W        W22146  18.737   3.239   5.143
62644W        W22147   5.400  23.114   3.164
62645W        W22148  28.017  26.618   2.898
62646W        W22149  27.569  33.600   0.859
62647W        W22150  17.621  25.498   1.385
62648W        W22151  29.078  38.552  13.341
62649W        W22152   8.898  30.531  10.446
62650W        W22153   7.760  36.557   1.905
62651W        W22154   4.903  14.755   1.726
62652W        W22155  17.128  26.956  10.442
62653W        W22156  42.957  13.268  13.473
62654W        W22157  16.211  40.356   0.938
62655W        W22158  41.883   5.304  10.981
62656W        W22159   0.870  40.890   1.451
62657W        W22160   3.255  39.932   2.351
62658W        W22161  39.995  30.537   1.275
62659W        W22162  40.979  36.564  10.959
62660W        W22163   2.264   4.352   4.604
62661W        W22164  29.535  12.209  13.959
62662W        W22165  31.452  27.498   9.563
62663W        W22166  16.652   6.338  12.531
62664W        W22167  35.933  29.602  14.376
62665W        W22168  30.628  14.702  14.944
62666W        W22169  17.195  23.056   4.128
62667W        W22170  20.559  22.047  13.981
62668W        W22171  39.450  17.244  11.064
62669W        W22172   7.726  27.660   2.206
62670W        W22173  29.942  39.543   0.376
62671W        W22174  41.508  30.969  13.519
62672W        W22175  42.511  28.528  14.971
62673W        W22176  40.358  32.080   4.337
62674W        W22177  15.181  24.623  11.426
62675W        W22178  44.893   6.354  14.341
62676W        W22179   6.240  22.123  14.288
62677W        W22180  22.703  13.186  12.420
62678W        W22181  27.987  17.085   4.342
62679W        W22182  42.790   8.886  12.558
62680W        W22183   6.303  43.415   3.239
62681W        W22184   4.881  31.976   4.152
62682W        W22185  18.590  26.066   1.272
62683W        W22186   7.892  30.938  11.077
62684W        W22187  15.112  20.620  11.014
62685W        W22188  35.950  35.485  13.521
62686W        W22189  23.594  41.342  12.472
62687W        W22190   4.354  30.639  14.471
62688W        W22191  16.311   7.876  12.082
62689W        W22192  34.547  28.585  11.029
62690W        W22193   2.435  23.220   3.783
62691W        W22194   5.381  11.763  10.534
62692W        W22195  41.317  11.156  12.383
62693W        W22196   2.936  31.529  14.010
62694W        W22197  28.125  16.615  14.790
62695W        W22198  41.447  32.923  10.543
62696W        W22199  40.002   6.887   1.910
62697W        W22200  42.357  27.140  11.446
62698W        W22201  41.514  43.813  14.803
62699W        W22202  22.719  41.501  13.883
62700W        W22203  29.661  37.073   9.596
62701W        W22204  34.517   5.801   2.681
62702W        W22205  11.755  34.004   3.657
62703W        W22206  42.785   8.746   4.256
62704W        W22207  25.052  11.796   4.731
62705W        W22208  16.280  12.281   1.861
62706W        W22209  31.485  31.421  13.482
62707W        W22210  42.404  16.072  14.841
62708W        W22211   0.411  13.700  12.569
62709W        W22212  26.166  33.940  10.562
62710W        W22213  36.498   7.692   2.255
62711W        W22214  43.422  25.064  14.975
62712W        W22215  39.964  43.482   3.287
62713W        W22216  27.467  33.088  11.065
62714W        W22217  34.873  21.044   3.767
62715W        W22218  34.882   7.361   3.834
62716W        W22219   5.268  32.950   3.635
62717W        W22220  29.626  19.689  14.427
62718W        W22221  29.520  26.159  14.355
62719W        W22222  43.818   9.349   0.478
62720W        W22223   4.407  27.046   2.316
62721W        W22224   2.910  44.793  10.425
62722W        W22225  43.515  10.817   3.805
62723W        W22226  40.444  24.106   4.627
62724W        W22227  34.004  27.476  12.523
62725W        W22228  34.962  36.519   9.989
62726W        W22229   2.362  40.006  12.000
62727W        W22230  25.480  39.440  11.097
62728W        W22231  13.602   5.385  14.978
62729W        W22232  18.180  18.201   1.329
62730W        W22233  37.403  17.767  12.405
62731W        W22234  10.826  10.254  10.481
62732W        W22235  22.120  28.505  11.409
62733W        W22236  34.462  14.706   4.772
62734W        W22237  39.983   3.785   2.862
62735W        W22238  33.580  16.141   0.341
62736W        W22239  17.635  30.118  10.624
62737W        W22240  10.347  29.168   1.421
62738W        W22241  27.173  14.803  10.951
62739W        W22242  36.023  23.204  11.995
62740W        W22243  10.656  15.684  10.444
62741W        W22244  21.577   6.801   0.439
62742W        W22245  11.345  31.460   1.912
62743W        W22246  16.695  35.049  14.311
62744W        W22247   1.977  10.243   3.828
62745W        W22248   6.281  37.464   5.179
62746W        W22249  14.150  32.441   1.827
62747W        W22250  36.068  41.041   3.691
62748W        W22251  37.413  36.516  14.764
62749W        W22252  22.098  34.399   4.321
62750W        W22253   5.884  19.234  14.767
62751W        W22254  24.001  16.586  11.940
62752W        W22255  15.186  18.225  13.366
62753W        W22256  24.701  25.549   1.276
62754W        W22257  11.301  23.144  12.340
62755W        W22258  42.501   1.252  13.944
62756W        W22259  42.976  25.656  13.827
62757W        W22260  17.801  43.273   3.175
62758W        W22261   9.278  44.475   1.918
62759W        W22262  15.168   3.901  10.639
62760W        W22263  18.669  35.411   3.367
62761W        W22264  12.222   9.169   4.308
62762W        W22265  23.645  22.691  12.062
62763W        W22266  15.674   4.432   3.779
62764W        W22267   3.870  12.820   4.667
62765W        W22268  21.171   3.780   9.603
62766W        W22269  27.614  30.478  13.409
62767W        W22270   8.336  24.191   1.725
62768W        W22271  37.857   6.298  12.363
62769W        W22272  40.034   3.318  12.341
62770W        W22273  20.090   5.713   4.613
62771W        W22274  15.796   8.873  12.079
62772W        W22275  26.202  41.887  11.002
62773W        W22276  33.503  29.125   1.828
62774W        W22277   4.876  31.916   3.272
62775W        W22278   5.915  12.137   2.856
62776W        W22279   3.278   8.821  10.925
62777W        W22280  15.597  32.032  14.365
62778W        W22281  23.128  39.030  14.278
62779W        W22282   7.412  26.534   4.116
62780W        W22283  20.210  34.409   1.305
62781W        W22284  34.597   7.748  13.494
62782W        W22285   7.236  30.954   2.812
62783W        W22286   1.459   7.827  11.913
62784W        W22287  23.025  14.186  14.953
62785W        W22288   4.880  34.391   0.900
62786W        W22289  28.456  14.721  11.525
62787W        W22290  22.557  13.109   1.272
62788W        W22291  22.133  31.571   4.326
62789W        W22292  34.049  30.948   3.370
62790W        W22293  42.525  42.797   0.365
62791W        W22294   2.278  15.593  14.881
62792W        W22295  14.208   8.300  14.472
62793W        W22296   3.378  39.033  13.378
62794W        W22297   9.775   7.767  14.313
62795W        W22298   7.788  39.980  12.377
62796W        W22299  20.629   4.252  14.332
62797W        W22300  32.070   6.707   4.671
62798W        W22301   4.278  20.737   2.195
62799W        W22302  15.230   7.713  10.524
62800W        W22303   6.858  44.783   3.696
62801W        W22304   7.229  36.844   1.879
62802W        W22305  10.799  43.282  10.531
62803W        W22306  30.659   3.925  13.966
62804W        W22307  23.663  24.524  14.381
62805W        W22308  19.128  15.142   1.845
62806W        W22309   6.825  29.426  14.298
62807W        W22310   2.443  39.024   4.306
62808W        W22311   0.458   8.841   4.162
62809W        W22312  23.690   3.734   5.216
62810W        W22313   1.318  10.713   4.621
62811W        W22314  42.465  33.025  14.839
62812W        W22315  20.135  35.402  13.890
62813W        W22316  42.352   6.249  13.012
62814W        W22317  41.473  21.232   0.371
62815W        W22318  38.444  24.127   3.747
62816W        W22319  30.043  33.950   3.664
62817W        W22320   5.852  21.732  13.413
62818W        W22321  16.736  19.654  11.006
62819W        W22322  31.427   3.327   2.204
62820W        W22323  27.561  20.150   4.644
62821W        W22324  31.574  35.889   5.224
62822W        W22325  41.327  28.148   4.221
62823W        W22326  17.556  29.036   2.666
62824W        W22327  43.357  15.593  12.365
62825W        W22328   2.260  13.842  14.875
62826W        W22329   4.302   8.895   3.294
62827W        W22330   3.822  38.984   3.298
62828W        W22331  17.612   2.261  10.991
62829W        W22332  29.097  11.809   1.356
62830W        W22333  32.097  34.939   4.619
62831W        W22334  37.878  25.976   2.761
62832W        W22335  19.282  15.662   1.362
62833W        W22336  29.641  14.747  11.470
62834W        W22337  10.853   2.835  12.509
62835W        W22338   2.270   3.432  14.396
62836W        W22339  30.014  20.699  11.425
62837W        W22340  21.747  19.730  13.006
62838W        W22341  35.875   4.792  13.052
62839W        W22342   2.818  18.269  13.465
62840W        W22343  16.578   2.253  13.839
62841W        W22344   8.671  23.644   4.750
62842W        W22345   7.770   0.362  11.095
62843W        W22346   6.252  33.448   4.735
62844W        W22347  29.450   2.298   1.818
62845W        W22348  23.618  18.585   3.189
62846W        W22349  22.190  26.135   4.266
62847W        W22350  27.542  38.864   2.857
62848W        W22351  12.293   3.438   3.178
62849W        W22352  13.284  15.607  11.040
62850W        W22353   2.770  29.059  13.993
62851W        W22354  34.554  11.296   4.317
62852W        W22355  23.221  36.517  12.985
62853W        W22356  26.524  30.473  10.083
62854W        W22357  11.830  43.415   2.354
62855W        W22358   1.892  34.368  14.998
62856W        W22359  29.073  43.856  13.546
62857W        W22360  16.072  44.312  14.915
62858W        W22361   4.878  19.658  10.093
62859W        W22362  27.081  26.631  10.972
62860W        W22363  41.495  27.522   0.335
62861W        W22364  34.380  44.386  14.879
62862W        W22365  23.156  40.481   0.351
62863W        W22366  43.454  39.009   1.849
62864W        W22367  40.441  20.743  14.440
62865W        W22368  17.246  13.797  12.985
62866W        W22369  15.814  19.175  12.378
62867W        W22370  36.513  37.561   5.167
62868W        W22371  21.220  31.900   3.382
62869W        W22372   4.389  41.789   3.197
62870W        W22373  32.987  23.237  10.513
62871W        W22374  19.672  10.371  12.948
62872W        W22375  23.987  14.196  11.859
62873W        W22376   5.904  31.533  13.019
62874W        W22377  37.944  27.577  14.994
62875W        W22378  32.572   1.899  11.879
62876W        W22379  24.553  41.428  12.909
62877W        W22380  27.468  12.761  12.419
62878W        W22381  12.178  11.208   3.230
62879W        W22382  42.972  26.492   4.754
62880W        W22383   7.851  44.966  11.127
62881W        W22384  18.719  30.112   3.290
62882W        W22385  26.528  36.584   0.475
62883W        W22386   3.929  16.165  10.536
62884W        W22387  13.800  39.413   3.684
62885W        W22388  28.471  12.775  14.369
62886W        W22389  10.276  19.609   2.378
62887W        W22390  40.329  35.890   0.953
62888W        W22391  11.314  37.909   0.885
62889W        W22392   2.321  25.523  12.532
62890W        W22393  30.562   0.969  10.581
62891W        W22394  28.128  41.296   1.374
62892W        W22395  16.302  30.032   2.347
62893W        W22396  23.623  29.571  12.052
62894W        W22397   5.328  25.507  12.863
62895W        W22398  10.289  22.576   5.137
62896W        W22399  36.444   3.343   1.759
62897W        W22400  19.688  14.665  14.923
62898W        W22401  17.694   5.761  10.612
62899W        W22402  39.958  39.897   0.810
62900W        W22403  12.129  10.204  13.918
62901W        W22404  31.920   3.306  12.506
62902W        W22405  40.383  26.977  13.052
62903W        W22406  23.699  31.561   0.360
62904W        W22407  35.011  13.141   4.146
62905W        W22408  15.224  28.957   1.903
62906W        W22409   6.728  39.042  10.991
62907W        W22410  18.167  39.422   4.127
62908W        W22411  11.139  16.785  14.960
62909W        W22412  31.053   1.397  10.928
62910W        W22413  23.694  32.125  11.997
62911W        W22414  10.803  34.532  13.790
62912W        W22415  37.386   3.383  10.012
62913W        W22416  38.925   4.927   3.192
62914W        W22417  29.481  39.361  13.908
62915W        W22418  21.606  44.283   2.344
62916W        W22419  26.172  33.999  12.451
62917W        W22420  31.135  16.259   2.234
62918W        W22421  11.185   6.916   2.202
62919W        W22422  23.237  12.649  12.474
62920W        W22423   7.721  36.588   1.388
62921W        W22424  32.061  17.782   2.810
62922W        W22425  42.886  10.877  10.560
62923W        W22426  18.704   6.260   0.422
62924W        W22427   1.798   2.345   4.669
62925W        W22428   4.321   7.835   4.785
62926W        W22429  24.210  42.472   4.120
62927W        W22430  28.148  10.261   1.700
62928W        W22431  24.986  19.552  13.036
62929W        W22432  38.442  43.457   3.288
62930W        W22433  37.478   8.339  13.904
62931W        W22434  18.223  42.431  13.837
62932W        W22435  11.258  25.517   1.422
62933W        W22436  18.266  16.602   2.896
62934W        W22437   5.690  37.488  14.021
62935W        W22438  17.067  24.219  13.826
62936W        W22439  18.777  28.162  10.903
62937W        W22440   2.855   7.806   1.899
62938W        W22441  16.612  31.438  11.941
62939W        W22442  38.921  43.421   4.598
62940W        W22443   4.217  43.957  14.021
62941W        W22444   1.380  10.811  13.326
62942W        W22445   6.725  41.478   4.216
62943W        W22446  40.819   8.253  11.897
62944W        W22447  25.029  29.101   2.695
62945W        W22448   7.254  35.097  13.540
62946W        W22449  28.973   1.401  14.849
62947W        W22450  44.335   0.931  11.604
62948W        W22451  43.279  37.084   3.198
62949W        W22452  23.048  14.762  14.965
62950W        W22453  40.938  32.046  11.532
62951W        W22454  26.595  43.841   0.890
62952W        W22455  20.629  14.292   3.344
62953W        W22456  32.537  24.205  12.478
62954W        W22457  33.603  10.317  13.996
62955W        W22458   2.774  25.584  13.937
62956W        W22459  43.856  16.161   2.280
62957W        W22460  23.988   2.956   9.497
62958W        W22461  20.677   6.856   4.625
62959W        W22462  33.011  18.626  11.947
62960W        W22463  31.079   4.365  14.980
62961W        W22464  13.635  19.131   0.812
62962W        W22465  41.927   1.237   2.255
62963W        W22466   6.356  17.800  14.298
62964W        W22467   1.391  10.315   2.336
62965W        W22468  18.589  39.016   9.982
62966W        W22469  38.888  16.726  14.448
62967W        W22470  18.111   3.242  14.367
62968W        W22471  37.006  18.618  12.516
62969W        W22472  15.280   3.853  14.935
62970W        W22473   2.307  38.839  12.875
62971W        W22474  32.412  11.221  13.815
62972W        W22475  42.392  35.410   4.168
62973W        W22476   4.894  44.783  10.930
62974W        W22477   4.754  35.478  13.330
62975W        W22478  20.040   3.924   4.270
62976W        W22479  38.537  19.096  10.477
62977W        W22480  24.047  40.528  12.529
62978W        W22481  41.836  34.961   3.263
62979W        W22482  18.174  22.124   0.948
62980W        W22483  26.103   3.257  13.896
62981W        W22484  42.506  27.645  12.572
62982W        W22485  22.251  29.579  11.927
62983W        W22486  24.163   8.731   3.240
62984W        W22487  24.714  31.477  13.821
62985W        W22488   6.385  42.952   4.305
62986W        W22489  19.628  37.521   4.186
62987W        W22490   0.871  11.133  14.319
62988W        W22491  43.990  23.090   0.483
62989W        W22492  32.075  24.203  13.802
62990W        W22493   8.363  11.320   4.602
62991W        W22494  24.630  19.167   2.314
62992W        W22495   9.337  29.447  10.454
62993W        W22496   1.953  29.155  11.930
62994W        W22497  33.939  13.271   9.486
62995W        W22498  36.408  44.781   2.710
62996W        W22499  11.135  26.588  13.860
62997W        W22500  16.176  21.057   3.191
62998W        W22501  39.402  19.285   1.842
62999W        W22502  11.314   4.222  11.394
63000W        W22503  43.810  13.207  11.463
63001W        W22504   2.233  31.534   2.333
63002W        W22505  39.317  21.624  13.033
63003W        W22506  20.159   5.264  11.910
63004W        W22507  30.447   0.368   2.265
63005W        W22508   6.212  10.345   1.215
63006W        W22509  36.435   8.376  12.837
63007W        W22510  25.973  24.526  12.412
63008W        W22511  37.982  10.335  10.566
63009W        W22512  38.888  18.556   1.398
63010W        W22513  36.979  43.919  10.582
63011W        W22514  14.801  36.924   4.608
63012W        W22515   8.199  35.931  11.462
63013W        W22516  18.078  30.071  12.003
63014W        W22517  37.869  38.860  14.317
63015W        W22518  10.865  12.270  11.543
63016W        W22519  27.108  24.625   1.251
63017W        W22520  39.447  19.725  11.451
63018W        W22521  11.296  23.023  11.124
63019W        W22522  24.489   8.163  14.010
63020W        W22523  13.108  14.646  11.867
63021W        W22524   4.775   7.687  11.892
63022W        W22525  39.931  40.525  11.412
63023W        W22526   3.368  33.621  13.922
63024W        W22527   3.747  22.206  12.089
63025W        W22528  30.546   6.416   4.607
63026W        W22529  43.881  35.548   2.317
63027W        W22530   0.468  25.056  11.473
63028W        W22531  44.294  12.167   3.824
63029W        W22532  36.392  23.235  12.458
63030W        W22533   0.398   3.794  11.469
63031W        W22534  21.663   7.811  14.491
63032W        W22535  36.565  40.799   2.802
63033W        W22536  22.137  16.698  12.378
63034W        W22537   8.752  19.693  13.489
63035W        W22538  41.947  10.301  12.955
63036W        W22539  32.623  18.663  13.866
63037W        W22540  30.111  44.880   0.962
63038W        W22541  25.681  13.141   2.783
63039W        W22542   5.725  30.035   1.755
63040W        W22543   9.343  12.252   4.192
63041W        W22544  13.777  43.836  11.917
63042W        W22545   0.406  15.175   4.610
63043W        W22546  26.484  21.221   5.165
63044W        W22547  27.038  42.476   4.624
63045W        W22548  25.538  32.115  14.406
63046W        W22549  16.159  27.471   3.229
63047W        W22550  35.040  32.935   4.273
63048W        W22551   0.868  40.330   3.235
63049W        W22552  28.588  17.140  12.076
63050W        W22553  33.583  21.106   4.354
63051W        W22554   7.674  34.948  14.386
63052W        W22555  38.388  23.231   2.214
63053W        W22556   6.778   2.290   2.736
63054W        W22557   2.471   3.892   2.334
63055W        W22558  43.323  39.988   3.222
63056W        W22559  43.791  31.947   1.814
63057W        W22560  40.460  25.108   1.878
63058W        W22561   5.705   7.861   4.779
63059W        W22562  17.146  42.497  14.834
63060W        W22563  18.070   7.310   3.724
63061W        W22564   0.465  25.470   2.796
63062W        W22565   1.888  19.200  14.936
63063W        W22566  22.677  16.651  11.866
63064W        W22567  42.364  27.014   4.665
63065W        W22568  18.713  30.077   4.161
63066W        W22569  14.658   2.898  11.530
63067W        W22570  14.241  34.593   0.428
63068W        W22571   8.404   8.812   3.732
63069W        W22572  31.435   8.658   1.382
63070W        W22573  30.451  37.011  12.830
63071W        W22574   3.839  28.023  10.144
63072W        W22575   3.384   3.820  13.458
63073W        W22576  14.329  21.245  12.984
63074W        W22577  31.898  23.195   0.826
63075W        W22578  15.681  14.134   0.963
63076W        W22579  21.029  44.297  13.961
63077W        W22580  23.192  35.409   4.312
63078W        W22581   9.750  14.161   0.739
63079W        W22582  10.151   3.815  13.309
63080W        W22583   6.775  42.843   3.799
63081W        W22584  15.762   1.306   4.185
63082W        W22585  24.578  27.167   0.726
63083W        W22586  11.708  38.860   2.819
63084W        W22587  34.582  21.654   4.340
63085W        W22588  27.178  43.857  12.485
63086W        W22589  33.957  15.653  13.971
63087W        W22590  44.363  16.593  11.086
63088W        W22591  23.598  22.120   4.663
63089W        W22592   8.217   8.229   3.828
63090W        W22593  28.980  14.234  14.015
63091W        W22594  38.076  35.476   3.842
63092W        W22595  20.648   6.766  12.921
63093W        W22596  30.447  43.921  14.965
63094W        W22597  44.809  19.598   1.366
63095W        W22598  20.765   6.222   2.699
63096W        W22599  40.546  28.507   1.336
63097W        W22600  27.632  37.087  10.994
63098W        W22601  43.421  28.158  13.975
63099W        W22602  13.706   3.811  11.425
63100W        W22603  40.303   6.760  13.380
63101W        W22604  27.191  25.968   1.756
63102W        W22605  13.142  29.621   4.231
63103W        W22606  21.152  28.679   2.823
63104W        W22607  10.336  24.194  11.564
63105W        W22608  25.662  33.930   1.239
63106W        W22609   0.949  10.666   1.248
63107W        W22610  38.937  34.571  14.504
63108W        W22611  30.489  44.784  13.922
63109W        W22612  17.785  42.465  11.575
63110W        W22613  14.787  20.203  13.338
63111W        W22614  34.539  27.557  14.908
63112W        W22615  34.052  17.133   5.286
63113W        W22616   7.231   9.368  11.893
63114W        W22617  24.604   6.229  10.614
63115W        W22618   0.372  20.765   2.712
63116W        W22619  42.903  26.605   5.161
63117W        W22620  44.382   1.422   2.349
63118W        W22621  35.881  12.839  11.508
63119W        W22622  24.069  26.986  13.952
63120W        W22623  37.875  34.003   4.256
63121W        W22624  44.764  15.235   2.729
63122W        W22625  10.814  10.384   4.777
63123W        W22626  34.970  44.336  10.045
63124W        W22627  32.476  23.725  13.370
63125W        W22628  13.225  39.392  11.966
63126W        W22629  40.818   7.882   1.297
63127W        W22630   3.924  43.985  13.347
63128W        W22631   2.455  11.792   2.240
63129W        W22632  10.748  17.675  10.952
63130W        W22633  35.465  38.046  11.480
63131W        W22634  43.791  25.045  12.466
63132W        W22635  11.153  29.959   4.620
63133W        W22636  35.063  15.159   0.730
63134W        W22637  31.553  29.425  12.392
63135W        W22638   7.300  44.866   3.321
63136W        W22639  36.931  33.968   3.781
63137W        W22640  23.174  34.483   1.368
63138W        W22641  19.231   5.371   2.211
63139W        W22642  27.967  17.071   5.129
63140W        W22643  42.828  35.871  14.771
63141W        W22644  19.215  10.771  14.428
63142W        W22645  25.526  28.148  10.564
63143W        W22646  34.898  14.662   4.125
63144W        W22647  22.135  34.063   0.453
63145W        W22648  12.682  18.599  10.525
63146W        W22649  28.066   2.829   4.153
63147W        W22650  17.081  14.779   3.364
63148W        W22651  18.165  24.530   0.940
63149W        W22652  12.778  10.196  11.120
63150W        W22653  33.088  27.153   1.796
63151W        W22654   7.406  32.590   0.874
63152W        W22655  30.432  33.970  11.557
63153W        W22656  25.676  25.584   1.786
63154W        W22657   5.821  19.120  11.546
63155W        W22658   8.314  40.037   1.230
63156W        W22659  41.876  33.970   2.324
63157W        W22660  11.796  23.128  14.342
63158W        W22661  18.052  10.641   3.687
63159W        W22662  30.534  37.485   0.863
63160W        W22663   2.754   4.727   4.780
63161W        W22664  12.635  11.731  13.427
63162W        W22665  20.077  38.435  11.044
63163W        W22666  12.361   4.806   2.878
63164W        W22667  40.514   4.402   4.263
63165W        W22668  41.800  34.523  14.497
63166W        W22669  10.291  37.485  14.899
63167W        W22670   4.784  35.953  12.447
63168W        W22671  35.858  33.405   2.383
63169W        W22672  30.077  36.438  10.912
63170W        W22673  14.244  19.648  14.482
63171W        W22674  11.640  28.576  10.449
63172W        W22675  10.340  43.998   1.793
63173W        W22676  34.386  19.138  11.991
63174W        W22677  22.236  12.117  10.465
63175W        W22678  39.418  36.409  11.113
63176W        W22679  40.032   1.806   2.833
63177W        W22680  41.470  39.455  11.859
63178W        W22681  25.678  16.634  10.636
63179W        W22682  13.777  29.970  12.358
63180W        W22683  16.723  30.512   0.362
63181W        W22684  28.632  20.526  12.517
63182W        W22685  27.674  36.489  11.453
63183W        W22686  16.142  25.160  12.458
63184W        W22687  25.128  31.412   4.123
63185W        W22688  25.012  39.444  12.462
63186W        W22689  19.245   9.352   3.709
63187W        W22690   6.847  14.154  10.075
63188W        W22691  24.487  14.118  10.920
63189W        W22692   5.794  19.681   3.378
63190W        W22693   1.792  29.479   3.815
63191W        W22694  39.505  43.780   4.647
63192W        W22695   1.382   8.312   0.904
63193W        W22696   9.289  12.842  11.108
63194W        W22697  42.942  24.612  12.402
63195W        W22698  44.500  39.006  10.481
63196W        W22699   4.303  42.954  10.993
63197W        W22700  40.368   4.445  10.561
63198W        W22701  17.137  42.794   2.322
63199W        W22702  12.293  33.414   5.143
63200W        W22703  29.139  27.052  11.563
63201W        W22704  20.103  36.053   4.205
63202W        W22705  20.534  23.132   2.874
63203W        W22706  31.576   8.218  14.942
63204W        W22707  43.771   1.384   3.658
63205W        W22708  32.411  26.956  11.412
63206W        W22709   1.270  37.528   4.725
63207W        W22710  31.109   6.756   0.894
63208W        W22711  35.082   6.844   4.307
63209W        W22712  38.452  29.943  12.540
63210W        W22713  25.553  41.895  12.054
63211W        W22714  32.470  29.508  11.588
63212W        W22715  30.655  38.459   2.777
63213W        W22716  37.380  19.211  13.927
63214W        W22717   6.697   6.876   2.376
63215W        W22718   2.967  36.942   3.256
63216W        W22719  13.693  44.922  14.817
63217W        W22720  34.567  33.912   1.835
63218W        W22721  16.255   1.852   2.381
63219W        W22722  18.231  39.879  11.523
63220W        W22723   4.227   9.300  12.054
63221W        W22724   8.351  22.153  14.838
63222W        W22725  25.559   5.845  12.059
63223W        W22726  36.453  35.922  13.485
63224W        W22727  14.826  29.506  12.993
63225W        W22728  25.549  21.751   0.901
63226W        W22729  24.217  34.600  12.027
63227W        W22730  42.875  33.037  11.089
63228W        W22731  36.055  39.809   4.281
63229W        W22732  26.191  24.034   2.205
63230W        W22733  17.276  21.048   0.443
63231W        W22734  24.614  30.483  11.938
63232W        W22735  39.512   5.316   2.677
63233W        W22736  18.573   3.859   4.669
63234W        W22737  13.231  38.828  11.094
63235W        W22738  29.630  18.222   1.794
63236W        W22739  36.029  37.409  13.838
63237W        W22740  39.533  28.164   3.301
63238W        W22741   1.355   0.881   3.368
63239W        W22742   2.843  13.750   0.871
63240W        W22743  19.090  39.517  12.375
63241W        W22744   9.780  25.500   3.734
63242W        W22745   8.355  10.247  14.798
63243W        W22746  11.854  40.813  10.458
63244W        W22747  23.995  31.022   0.466
63245W        W22748  13.303  37.461  12.384
63246W        W22749  19.685   0.919  10.493
63247W        W22750  28.076  22.504   2.781
63248W        W22751  30.079   1.474   3.810
63249W        W22752   8.240  13.150  12.945
63250W        W22753  32.031  32.941   3.165
63251W        W22754  35.441  24.112   0.386
63252W        W22755  41.506  25.593  13.423
63253W        W22756   6.834  12.674   1.814
63254W        W22757  36.910  39.051  10.992
63255W        W22758  31.967  21.041   1.731
63256W        W22759  37.857   6.856  13.022
63257W        W22760  10.655  26.491   3.774
63258W        W22761  14.325  15.707   4.132
63259W        W22762  11.373  17.121  13.448
63260W        W22763   6.224  27.984  11.986
63261W        W22764   0.896  25.217   1.888
63262W        W22765  23.537   1.453   2.405
63263W        W22766  35.578   2.425  13.797
63264W        W22767  15.129  13.739   1.291
63265W        W22768  42.903  10.337   0.835
63266W        W22769  42.424   7.350   1.920
63267W        W22770  13.307  13.802   0.936
63268W        W22771  24.570  12.250   1.326
63269W        W22772  14.118   8.689   1.785
63270W        W22773  19.598   2.912   1.437
63271W        W22774  28.970  18.727   2.673
63272W        W22775  11.148  30.529   1.408
63273W        W22776  37.007  28.587  13.857
63274W        W22777  16.148  20.040  14.488
63275W        W22778  16.276  36.463   4.274
63276W        W22779  16.643  34.425   3.318
63277W        W22780  40.448  19.116   1.275
63278W        W22781  14.108  32.012   0.802
63279W        W22782  36.424  13.341  11.514
63280W        W22783  12.351  41.424   3.226
63281W        W22784  35.929   1.931   3.764
63282W        W22785  15.634  11.773   0.777
63283W        W22786  25.699  36.472   1.264
63284W        W22787  43.012  25.549   1.758
63285W        W22788  23.583  26.971   1.700
63286W        W22789   4.755  15.668   0.253
63287W        W22790  31.042  31.450   3.181
63288W        W22791  20.231  37.580  12.467
63289W        W22792  20.238  40.394  13.316
63290W        W22793  27.955   1.831   3.234
63291W        W22794   0.799   7.316  13.408
63292W        W22795  17.265  25.123   1.324
63293W        W22796   6.356  24.613  12.969
63294W        W22797  12.615  37.907  13.507
63295W        W22798  36.063  17.800  13.472
63296W        W22799  34.054   8.685  11.423
63297W        W22800  18.580  14.593  14.988
63298W        W22801  12.653  26.998  14.925
63299W        W22802  22.597  39.844   0.401
63300W        W22803   7.907  27.691   4.600
63301W        W22804  27.132  40.026  13.381
63302W        W22805   3.275  11.861  14.760
63303W        W22806  11.707  44.323   9.998
63304W        W22807  29.998  25.979   2.263
63305W        W22808  11.641  22.738  11.977
63306W        W22809  31.902  38.075   3.751
63307W        W22810  26.185  41.808   3.763
63308W        W22811  40.357   2.854   1.753
63309W        W22812  25.491  37.952  14.411
63310W        W22813  41.973  29.054  13.895
63311W        W22814   8.769  32.418  12.459
63312W        W22815  15.581  38.512  11.062
63313W        W22816   0.964  12.211   2.818
63314W        W22817  21.547  11.750  14.962
63315W        W22818  38.967  22.996   4.754
63316W        W22819  17.302  23.031  10.153
63317W        W22820  16.106  17.162   3.381
63318W        W22821  27.008   9.175  13.397
63319W        W22822  43.379  27.492   1.710
63320W        W22823  35.381  41.322   0.244
63321W        W22824  28.536   5.379   1.717
63322W        W22825  25.989   1.369   0.854
63323W        W22826   4.276  36.843   1.703
63324W        W22827  32.614  20.576   0.254
63325W        W22828  42.886  33.954   3.236
63326W        W22829  10.692  16.577   1.708
63327W        W22830  43.930  31.537  14.766
63328W        W22831  29.521  40.405   4.816
63329W        W22832  23.147  18.740  12.089
63330W        W22833  34.583   9.817  12.091
63331W        W22834   7.716  33.470   4.648
63332W        W22835  29.960  33.488  12.837
63333W        W22836   1.972  24.721  14.976
63334W        W22837  10.727  28.167  14.852
63335W        W22838  12.690  15.131   3.257
63336W        W22839  27.515  35.000   1.314
63337W        W22840  25.622  30.152   2.274
63338W        W22841  19.085   6.892   2.857
63339W        W22842  21.146  24.129  14.481
63340W        W22843  14.317  39.399  14.015
63341W        W22844  24.667  33.590  14.440
63342W        W22845  42.834  30.551   1.716
63343W        W22846  21.101   6.774   2.858
63344W        W22847  29.062  38.002  12.831
63345W        W22848  18.644  24.700   2.724
63346W        W22849  44.400  14.812  12.556
63347W        W22850  36.054  35.099   3.701
63348W        W22851  27.035  20.249  13.428
63349W        W22852   0.947  15.626  14.504
63350W        W22853  28.503  21.543  12.499
63351W        W22854  15.107   4.315   1.777
63352W        W22855   6.358  20.676   4.331
63353W        W22856   3.904  33.477  12.993
63354W        W22857  32.928  43.792   0.785
63355W        W22858  32.979   5.717   4.697
63356W        W22859  32.064   0.290   0.312
63357W        W22860  42.820  40.915  13.920
63358W        W22861  40.337  28.521   0.745
63359W        W22862   5.829  17.610  10.463
63360W        W22863  29.492   6.184  10.062
63361W        W22864  34.001  37.969   5.208
63362W        W22865  23.027  16.747   0.851
63363W        W22866   8.385  26.650  12.986
63364W        W22867  38.540  36.468   0.357
63365W        W22868  15.735  18.267  10.034
63366W        W22869  12.672  40.007  14.997
63367W        W22870  38.016  18.626  14.809
63368W        W22871  31.472  22.709   4.630
63369W        W22872  17.278  29.599  11.929
63370W        W22873  22.529   1.474  14.381
63371W        W22874   4.364   9.708  14.032
63372W        W22875  31.069   7.783   0.343
63373W        W22876  42.456  12.745   0.391
63374W        W22877  22.734  26.553   3.286
63375W        W22878  41.454   9.760   4.709
63376W        W22879  38.852  29.663  14.455
63377W        W22880  39.971  34.870  10.644
63378W        W22881  11.231  34.607   4.126
63379W        W22882  39.323   2.958  13.061
63380W        W22883  44.904   4.745   4.743
63381W        W22884  15.298   0.911   1.334
63382W        W22885  35.495  40.961   2.213
63383W        W22886  23.119   0.952  13.344
63384W        W22887  25.145  28.038  10.917
63385W        W22888  25.131  28.529  13.901
63386W        W22889   4.377  28.443   4.798
63387W        W22890   5.825  28.541   4.218
63388W        W22891   7.852  42.993  13.514
63389W        W22892  18.215  21.640  14.281
63390W        W22893  14.253   9.348   3.729
63391W        W22894  14.144  28.150   4.835
63392W        W22895  29.014   4.777   4.767
63393W        W22896  35.088   1.957  13.852
63394W        W22897  32.553  29.168   2.744
63395W        W22898  33.999  37.411  13.528
63396W        W22899   7.844  21.628   3.693
63397W        W22900   7.213  41.381  14.424
63398W        W22901  17.670  40.309  13.436
63399W        W22902   9.788  20.028  10.938
63400W        W22903  14.185   3.898   4.737
63401W        W22904   0.743   1.395  13.812
63402W        W22905  10.824   9.300   4.828
63403W        W22906  33.465  29.471  11.092
63404W        W22907   2.232  24.628   2.853
63405W        W22908  38.555  22.241   2.330
63406W        W22909  32.557  33.022  11.089
63407W        W22910  39.916  13.666   4.325
63408W        W22911  14.246  18.729  14.966
63409W        W22912  33.583  41.346   0.254
63410W        W22913  44.777  23.628   1.810
63411W        W22914  22.034  16.145   3.673
63412W        W22915  25.655  32.582   3.260
63413W        W22916  35.510  39.544  11.011
63414W        W22917  11.778  24.117   4.260
63415W        W22918   5.820   8.815  12.003
63416W        W22919  32.628  26.588   9.568
63417W        W22920  44.760  32.442   0.784
63418W        W22921  26.683   3.831   3.156
63419W        W22922  25.047  37.340   0.942
63420W        W22923  15.123  44.907   3.802
63421W        W22924   7.281  42.322  10.523
63422W        W22925  38.905  32.887  12.457
63423W        W22926  18.725   2.776  13.345
63424W        W22927   3.340   5.692  11.574
63425W        W22928  20.143  39.359   3.200
63426W        W22929  24.150   6.357  10.065
63427W        W22930  22.739  32.967   0.939
63428W        W22931  19.142  34.873   1.368
63429W        W22932   5.251   8.860   4.283
63430W        W22933  23.240  17.571  12.515
63431W        W22934   3.717  13.180   0.836
63432W        W22935  34.085  29.162   1.418
63433W        W22936   4.353  18.599  10.987
63434W        W22937  19.088  42.421   4.121
63435W        W22938  26.016  21.145   1.851
63436W        W22939  24.144  43.906   9.999
63437W        W22940  41.018  43.821  10.584
63438W        W22941  12.306  37.570  12.061
63439W        W22942  33.015   8.866   3.629
63440W        W22943  29.127  35.589  12.439
63441W        W22944  11.360   6.204   4.748
63442W        W22945  19.568  40.845   1.737
63443W        W22946  43.944  18.074  14.384
63444W        W22947  21.742   6.738   3.659
63445W        W22948  13.836  11.791  12.930
63446W        W22949   9.784  34.060  13.518
63447W        W22950  39.421  19.759   3.862
63448W        W22951  23.214   0.745   1.764
63449W        W22952   8.349   5.433   0.441
63450W        W22953   5.198  10.273  13.850
63451W        W22954  35.038  19.175   4.712
63452W        W22955  31.639  16.267  11.951
63453W        W22956  33.041  22.695  13.907
63454W        W22957  16.132  20.764   2.214
63455W        W22958  13.160  30.078  11.484
63456W        W22959  19.268  11.172   3.308
63457W        W22960   0.877  29.577  11.888
63458W        W22961   5.232  16.607  12.836
63459W        W22962  22.587  17.077   3.857
63460W        W22963   0.472  13.346   2.872
63461W        W22964  19.187  31.146  10.540
63462W        W22965  15.270  18.591  14.346
63463W        W22966  13.291  18.291   2.328
63464W        W22967   8.311  39.410   3.676
63465W        W22968  40.409   1.333   3.253
63466W        W22969  34.572  16.251  11.041
63467W        W22970  14.822  19.229  13.318
63468W        W22971  38.820  11.740  10.940
63469W        W22972  40.985  19.090   0.734
63470W        W22973  10.664  10.773   4.116
63471W        W22974  30.495   0.770   0.386
63472W        W22975  24.024  26.198   0.259
63473W        W22976  43.823   5.262   3.632
63474W        W22977   3.238  42.290   3.763
63475W        W22978  27.984  44.477  12.088
63476W        W22979  20.732  30.151   4.331
63477W        W22980  30.471  39.884  11.074
63478W        W22981  26.003   9.874  14.760
63479W        W22982   8.694  20.219   4.195
63480W        W22983  25.562   9.738   2.332
63481W        W22984  23.985  17.289   4.177
63482W        W22985  35.896  15.220  14.776
63483W        W22986   5.276  24.702  13.054
63484W        W22987  11.766   4.780   9.968
63485W        W22988  34.609  35.874  12.080
63486W        W22989   2.738   8.689   2.792
63487W        W22990   6.367  11.156   3.869
63488W        W22991  25.124  20.127   0.891
63489W        W22992   4.408  30.632   0.896
63490W        W22993  41.799  12.744   4.629
63491W        W22994   3.844  10.835   2.796
63492W        W22995  17.564  31.071  14.950
63493W        W22996  10.278   4.926  14.858
63494W        W22997   4.244  29.443   3.814
63495W        W22998  44.876   5.845  10.969
63496W        W22999  18.204  31.097   2.744
63497W        W23000  10.685  40.934  14.946
63498W        W23001  32.979  42.325  11.953
63499W        W23002  39.965   4.887  10.135
63500W        W23003  16.754  30.125   2.381
63501W        W23004  31.611  44.493  13.828
63502W        W23005  43.821   8.800   3.823
63503W        W23006  41.432  41.379   4.808
63504W        W23007   4.242  42.929  14.984
63505W        W23008   4.318  15.161   2.257
63506W        W23009  19.155   7.288  13.871
63507W        W23010  10.347  39.375   0.780
63508W        W23011   8.231  24.056   1.258
63509W        W23012   7.297  17.155  11.023
63510W        W23013   8.886  20.206   2.195
63511W        W23014   7.306  18.125  10.405
63512W        W23015   4.868  43.430   1.802
63513W        W23016  16.579  44.469   1.364
63514W        W23017  43.874  19.551  10.966
63515W        W23018  17.692  11.724  14.481
63516W        W23019   6.367  23.215  10.920
63517W        W23020   8.717  33.592  13.792
63518W        W23021  37.046   7.892  12.950
63519W        W23022  39.823  41.383   0.289
63520W        W23023  16.252  24.127  13.451
63521W        W23024   3.372  16.110   4.177
63522W        W23025  30.115  23.555   4.328
63523W        W23026  26.632  17.628  10.483
63524W        W23027  19.150   5.746  13.345
63525W        W23028   9.812  12.748   0.960
63526W        W23029  33.615  31.994  13.479
63527W        W23030   0.346  12.805   4.612
63528W        W23031  26.035  21.645  14.852
63529W        W23032   9.663  29.566   2.295
63530W        W23033  32.966  43.382  14.025
63531W        W23034   3.812  10.145  13.388
63532W        W23035  38.966  12.166   5.266
63533W        W23036  25.562  44.482   3.191
63534W        W23037  41.400  18.192  12.881
63535W        W23038  39.887  11.808   2.212
63536W        W23039  19.202  10.273  11.593
63537W        W23040  18.670   1.935  14.955
63538W        W23041  10.301   6.271   4.601
63539W        W23042  11.243  28.442  12.363
63540W        W23043  41.867  35.893  13.020
63541W        W23044   0.340  10.850  11.999
63542W        W23045  23.178  18.720  14.289
63543W        W23046  12.143  41.394   0.769
63544W        W23047   3.924  11.257  12.474
63545W        W23048   0.957   4.317  14.906
63546W        W23049  44.954  13.733   3.250
63547W        W23050   5.812  29.640   3.182
63548W        W23051  13.656  39.377   1.282
63549W        W23052  15.237  23.579  11.459
63550W        W23053   0.336  24.184  11.983
63551W        W23054  35.602  36.866   0.367
63552W        W23055  17.096  43.513  12.364
63553W        W23056  36.095  24.719  12.422
63554W        W23057  42.513   7.784   0.949
63555W        W23058   8.845   6.186   4.711
63556W        W23059  32.543   0.923   2.872
63557W        W23060   3.769  18.117  10.441
63558W        W23061   0.336  17.705  11.501
63559W        W23062   9.671   0.370   4.619
63560W        W23063  37.073  25.063   0.417
63561W        W23064  21.628  11.813  14.458
63562W        W23065  10.209   2.394  13.830
63563W        W23066  34.008  16.575   1.796
63564W        W23067  23.534  44.438  13.432
63565W        W23068  38.441  43.815  13.538
63566W        W23069  35.371   5.848   4.232
63567W        W23070  14.285  17.585  12.535
63568W        W23071   7.738   2.870  14.398
63569W        W23072  42.946   8.298  13.517
63570W        W23073  34.071  38.490  13.502
63571W        W23074  35.456   0.383  13.450
63572W        W23075  23.104   4.746   4.224
63573W        W23076  27.077  14.248  11.383
63574W        W23077  30.467  24.072  13.815
63575W        W23078  34.381  18.100  13.519
63576W        W23079  23.731  30.448   3.695
63577W        W23080  11.672  32.555  14.801
63578W        W23081  31.602  43.804   4.145
63579W        W23082   0.324  39.400   3.798
63580W        W23083  26.544  43.945  13.797
63581W        W23084   2.784  30.659   3.218
63582W        W23085  10.762  40.529   1.406
63583W        W23086  19.158  12.778   2.876
63584W        W23087  34.871  35.434   5.251
63585W        W23088  41.312   7.328  10.898
63586W        W23089  21.160   9.666   2.878
63587W        W23090  19.280  32.117   2.405
63588W        W23091   4.418  35.899  14.003
63589W        W23092  37.422  36.902   4.144
63590W        W23093  36.916  14.636   2.268
63591W        W23094  14.235  39.882   0.358
63592W        W23095  15.247   6.685  13.433
63593W        W23096  42.348  22.161   2.883
63594W        W23097   6.774   3.899   0.245
63595W        W23098  36.009  26.580   1.389
63596W        W23099  29.484  41.438   4.828
63597W        W23100  10.841  40.051   4.148
63598W        W23101  29.980  37.899   2.214
63599W        W23102  40.973  20.098  12.043
63600W        W23103  29.088  20.618   4.133
63601W        W23104  13.170  19.123   2.218
63602W        W23105  39.815  11.837  10.611
63603W        W23106  16.075   2.287  11.029
63604W        W23107  25.002  30.995  14.927
63605W        W23108  44.770  24.977   1.376
63606W        W23109  40.967   1.906   0.953
63607W        W23110   9.326  22.043   2.400
63608W        W23111   7.278  26.048  12.357
63609W        W23112  28.100  12.636  14.921
63610W        W23113  15.227  10.294  12.494
63611W        W23114  15.089  22.578  13.038
63612W        W23115  30.920  13.111  11.050
63613W        W23116  21.553  40.544   2.344
63614W        W23117  14.169   5.291   0.921
63615W        W23118  14.169   5.198   2.377
63616W        W23119  18.748  32.060   0.957
63617W        W23120   2.785  37.485   1.701
63618W        W23121  11.692   0.982   4.240
63619W        W23122  15.086   7.351  10.910
63620W        W23123  33.920  42.355  12.075
63621W        W23124   2.328  15.093  11.524
63622W        W23125   5.808   3.802   2.713
63623W        W23126  31.406   3.903  13.483
63624W        W23127   5.703  20.539   2.408
63625W        W23128   4.824  14.734   5.127
63626W        W23129  19.093  32.489   4.209
63627W        W23130  33.555   6.693  10.448
63628W        W23131  29.430  40.014  13.923
63629W        W23132  18.296   1.394  12.445
63630W        W23133  27.170  40.548   3.815
63631W        W23134  34.610  36.948   3.359
63632W        W23135  24.009  13.607  12.415
63633W        W23136  41.844  19.762  14.444
63634W        W23137   9.762  10.236   3.747
63635W        W23138  28.067   8.378   1.793
63636W        W23139  32.901  28.084   4.707
63637W        W23140   3.950  33.007  13.038
63638W        W23141  20.044   1.977   3.353
63639W        W23142   0.421   9.195   4.629
63640W        W23143  18.073  26.046  12.394
63641W        W23144  20.188  41.998   4.325
63642W        W23145  34.604   4.858  12.056
63643W        W23146  27.577  18.210  10.613
63644W        W23147  41.857  34.097  14.422
63645W        W23148  18.614  16.758  14.281
63646W        W23149  34.446  30.627   4.289
63647W        W23150   0.280  10.240  14.288
63648W        W23151  40.920  33.430   1.724
63649W        W23152  23.041  21.053   1.289
63650W        W23153   6.387   2.874  11.891
63651W        W23154   9.752  13.693   0.392
63652W        W23155   6.736  24.682  14.447
63653W        W23156  12.270   7.813  14.297
63654W        W23157  34.986  18.221   0.430
63655W        W23158  29.549   4.859  14.960
63656W        W23159  12.640   1.459  14.815
63657W        W23160  42.852  41.789  14.921
63658W        W23161  24.162  26.196   4.761
63659W        W23162   8.718   0.872  11.922
63660W        W23163  37.497  28.929   0.407
63661W        W23164  26.023  44.420   0.769
63662W        W23165  40.851   2.322  10.425
63663W        W23166  44.439  37.520   1.339
63664W        W23167  15.095  39.950  12.355
63665W        W23168  21.124  29.555   1.326
63666W        W23169  30.610   7.411  13.444
63667W        W23170  14.594  14.817   3.281
63668W        W23171  38.944  32.547   9.954
63669W        W23172   3.350   3.233  12.538
63670W        W23173  16.727  12.645   1.919
63671W        W23174  40.834  44.906   1.918
63672W        W23175  11.751  43.377  12.922
63673W        W23176  31.937   5.720   3.844
63674W        W23177  26.458  10.231  13.522
63675W        W23178  23.639  34.873  14.479
63676W        W23179   6.273  34.401  13.818
63677W        W23180  36.008  17.800  14.950
63678W        W23181   8.281  29.431  11.457
63679W        W23182  38.844  25.064  13.390
63680W        W23183  35.545  38.531  10.130
63681W        W23184  10.171  12.807  13.879
63682W        W23185  26.593  30.119   5.243
63683W        W23186   4.343  17.260  12.057
63684W        W23187  20.042  12.845   1.735
63685W        W23188  23.710   5.922   4.226
63686W        W23189  39.955   7.728   0.772
63687W        W23190  35.386  17.561   0.455
63688W        W23191  24.699  34.447   2.207
63689W        W23192  34.944  15.104   1.307
63690W        W23193  30.127   8.672   3.812
63691W        W23194  18.193  31.053   4.250
63692W        W23195   0.266  27.453  11.924
63693W        W23196  37.427  23.984  10.587
63694W        W23197  13.686  32.537   2.710
63695W        W23198  14.616  33.621   0.418
63696W        W23199  35.982  12.838   3.805
63697W        W23200   7.825  32.918   1.920
63698W        W23201  34.542  39.011   1.923
63699W        W23202   3.749  15.303  10.426
63700W        W23203  34.576  14.731  14.022
63701W        W23204   8.884  35.600  14.370
63702W        W23205  32.961  19.109  13.357
63703W        W23206  35.436  38.527  11.860
63704W        W23207  26.697  11.147   4.292
63705W        W23208  32.034   6.194  12.499
63706W        W23209   8.886  43.281   4.687
63707W        W23210  17.184  10.350   3.690
63708W        W23211  42.936  31.517   0.947
63709W        W23212   4.802  35.462  10.910
63710W        W23213  19.197   5.921   1.399
63711W        W23214  14.126  21.671   3.637
63712W        W23215   0.954  28.529  14.855
63713W        W23216  30.982  12.750   9.597
63714W        W23217  18.272   5.785   4.330
63715W        W23218  27.029   3.252  13.929
63716W        W23219  35.052  19.557  11.102
63717W        W23220  37.000  10.226  12.453
63718W        W23221  22.025  22.701  14.368
63719W        W23222  19.127   1.968   3.193
63720W        W23223  20.144   3.940  10.582
63721W        W23224  25.995  24.055   1.370
63722W        W23225  43.993   8.201  13.022
63723W        W23226   8.681  22.057  12.377
63724W        W23227  19.566  11.815  11.957
63725W        W23228   3.842  24.519  12.402
63726W        W23229  24.575  40.958  13.364
63727W        W23230  15.690  10.282  14.470
63728W        W23231  29.001  25.995   2.775
63729W        W23232  34.601  29.438  11.475
63730W        W23233  43.271  27.523  11.388
63731W        W23234   2.365   4.406  12.831
63732W        W23235  15.636  34.934   3.717
63733W        W23236  15.289  39.006   1.828
63734W        W23237  44.505  34.051  13.392
63735W        W23238  44.266  37.555  12.351
63736W        W23239  15.170  27.446   0.290
63737W        W23240  14.741  35.915  10.410
63738W        W23241  44.325   7.183  11.031
63739W        W23242   8.699  31.621   1.301
63740W        W23243  25.634  42.872  10.974
63741W        W23244  19.077  14.700   2.809
63742W        W23245  12.765  16.263   1.754
63743W        W23246   4.317  20.612  11.911
63744W        W23247  12.670  27.151   1.343
63745W        W23248  38.557  30.923   4.657
63746W        W23249  35.889  37.017  10.923
63747W        W23250   2.463   3.349   1.435
63748W        W23251  24.193   1.939  14.807
63749W        W23252  10.748  32.423  13.381
63750W        W23253  11.675  30.147  13.902
63751W        W23254  27.118  38.467   2.386
63752W        W23255  22.724  30.430   3.671
63753W        W23256  38.558  35.947  14.937
63754W        W23257  10.314   1.328  14.331
63755W        W23258  27.579  33.954  12.005
63756W        W23259  44.489  25.014   2.411
63757W        W23260  32.967   3.322   0.251
63758W        W23261  12.275  31.629  14.413
63759W        W23262  32.571  16.217  14.374
63760W        W23263  20.066  36.370  12.349
63761W        W23264   3.797  12.852   1.849
63762W        W23265  40.369  21.223  13.040
63763W        W23266   8.853   6.840   0.358
63764W        W23267  13.288   8.868   3.336
63765W        W23268  34.986   6.424  11.423
63766W        W23269  27.023   4.943   2.180
63767W        W23270  15.265  31.954  11.058
63768W        W23271  37.428  19.196   4.283
63769W        W23272  18.734  14.319   3.690
63770W        W23273  32.007  23.523  10.417
63771W        W23274  42.962  14.608  14.965
63772W        W23275  37.080  13.215   2.682
63773W        W23276  41.293  40.957   0.351
63774W        W23277  17.072  43.000  11.516
63775W        W23278  24.033   0.882   3.372
63776W        W23279  24.221  24.132  11.495
63777W        W23280  23.729   9.728  14.423
63778W        W23281  29.558  15.751  12.402
63779W        W23282  17.129  18.599   0.814
63780W        W23283  24.163  42.335  11.402
63781W        W23284  43.841   0.435   3.370
63782W        W23285  28.065   4.376   3.168
63783W        W23286  19.624  28.445  14.870
63784W        W23287  16.089   3.216  13.881
63785W        W23288  21.223  23.228  13.972
63786W        W23289  16.724  20.728   3.840
63787W        W23290   2.227  23.692   0.288
63788W        W23291  19.216  29.115  14.887
63789W        W23292  44.923  25.154   2.822
63790W        W23293   8.865  14.330  12.093
63791W        W23294  18.552  34.456  11.888
63792W        W23295  34.521  40.458   0.964
63793W        W23296  37.338  30.022   4.762
63794W        W23297  29.142  39.944   0.318
63795W        W23298   1.292   9.386  12.392
63796W        W23299  33.613  32.036   4.219
63797W        W23300  43.848  14.230  11.521
63798W        W23301  28.085  33.954  12.968
63799W        W23302  12.132  36.890   1.399
63800W        W23303  29.505  16.723  12.067
63801W        W23304  34.525   3.875   1.856
63802W        W23305  33.589  28.552   0.279
63803W        W23306  19.068  20.577   1.808
63804W        W23307   8.680  34.938   5.679
63805W        W23308   9.318   7.283  10.569
63806W        W23309  40.363  33.478  13.471
63807W        W23310  22.599  19.717   2.676
63808W        W23311  36.849  35.574   2.880
63809W        W23312  38.392  25.043  12.398
63810W        W23313  17.566  18.665  11.509
63811W        W23314  11.740  44.486   4.229
63812W        W23315  16.809  27.985  13.852
63813W        W23316  22.689  44.841   2.316
63814W        W23317  25.554  10.193   0.925
63815W        W23318  10.642  33.623  12.886
63816W        W23319  13.130   5.331   2.337
63817W        W23320   1.737  37.497  13.342
63818W        W23321  42.449  42.925   2.208
63819W        W23322  32.472  11.153  11.030
63820W        W23323   7.254  12.777   1.738
63821W        W23324  32.600   0.482   0.734
63822W        W23325  11.220  18.771  12.909
63823W        W23326  27.161   3.756  12.434
63824W        W23327  35.922   6.854  13.435
63825W        W23328  26.536  12.685  11.116
63826W        W23329  27.984  10.257   0.317
63827W        W23330  38.536  19.612   4.190
63828W        W23331  12.297  20.568  14.010
63829W        W23332  20.642  10.657  11.098
63830W        W23333  15.195  38.827  12.500
63831W        W23334  44.860  31.054  14.478
63832W        W23335  13.211  28.606   2.254
63833W        W23336   1.462  25.159  14.996
63834W        W23337  10.666  25.159  12.471
63835W        W23338  24.606  33.100   3.165
63836W        W23339  19.082  18.763  12.459
63837W        W23340  15.821  26.980   3.669
63838W        W23341   1.866  34.051  11.888
63839W        W23342  24.141  16.597  14.514
63840W        W23343   6.744  23.047   3.775
63841W        W23344  31.083   2.395   1.445
63842W        W23345  37.014  15.759  13.814
63843W        W23346  16.305  30.652   0.395
63844W        W23347  42.382  26.158   0.292
63845W        W23348  23.148  14.115  13.988
63846W        W23349  27.964  28.080   3.836
63847W        W23350   8.882  14.753   2.757
63848W        W23351   2.903  30.466  13.504
63849W        W23352  10.706  15.202  11.966
63850W        W23353   7.903  26.042  13.833
63851W        W23354   5.905   2.951   2.207
63852W        W23355  16.200  23.506   4.674
63853W        W23356  14.687  42.482   4.633
63854W        W23357  13.843  21.705  10.549
63855W        W23358  44.298  34.470   3.851
63856W        W23359   2.936   6.814   3.264
63857W        W23360  41.324  14.296  11.108
63858W        W23361  17.677  10.870   0.261
63859W        W23362  33.089  36.510  12.460
63860W        W23363  30.619  39.061  12.004
63861W        W23364  31.468  32.988  13.020
63862W        W23365  35.377  16.753  12.040
63863W        W23366  41.411  21.157   1.796
63864W        W23367  42.836   6.250   2.240
63865W        W23368  28.046  28.618  14.451
63866W        W23369  40.030  28.137   3.358
63867W        W23370   7.172   7.374   3.350
63868W        W23371  15.636  38.560  10.639
63869W        W23372  35.925  21.235  12.065
63870W        W23373   8.381  22.525   0.350
63871W        W23374  42.946   8.694   3.282
63872W        W23375   2.337  41.992   1.895
63873W        W23376  28.492   5.901  12.051
63874W        W23377  12.282  43.391   4.805
63875W        W23378   6.351  21.105   0.296
63876W        W23379  11.139  11.250   0.891
63877W        W23380  34.524  19.171   3.173
63878W        W23381   2.848   6.426   2.663
63879W        W23382  38.828  42.907  10.500
63880W        W23383  22.639  33.049  13.352
63881W        W23384  20.584  26.166   4.653
63882W        W23385  38.010  44.378   1.765
63883W        W23386   4.403  38.338  10.410
63884W        W23387  34.108  10.778   1.371
63885W        W23388  22.726  37.579  11.409
63886W        W23389   3.325  26.202   3.632
63887W        W23390  39.338  33.884  10.435
63888W        W23391  11.667  36.985   1.889
63889W        W23392  44.958  11.857   1.388
63890W        W23393  38.822  34.037   4.276
63891W        W23394  43.510  26.696  12.545
63892W        W23395  15.747  14.167   2.276
63893W        W23396   5.292  26.022  13.980
63894W        W23397   7.706  12.705  11.372
63895W        W23398  28.679  25.585  14.857
63896W        W23399  44.464   5.390   2.263
63897W        W23400   7.293  22.199   1.317
63898W        W23401  26.085  30.129   4.832
63899W        W23402  24.564   3.937   0.777
63900W        W23403  35.853  15.280  13.502
63901W        W23404  21.629  28.476  13.353
63902W        W23405  26.563  39.886  13.375
63903W        W23406  31.981  40.983  11.467
63904W        W23407  31.516   5.346   4.616
63905W        W23408   9.808   5.295   2.740
63906W        W23409   3.224   7.212  13.884
63907W        W23410  18.139  39.031   0.793
63908W        W23411  40.452  34.063   2.291
63909W        W23412  27.680  39.507   0.253
63910W        W23413  37.539  18.276   2.406
63911W        W23414  29.438   5.228   0.256
63912W        W23415   6.323   9.838   3.153
63913W        W23416  36.036   7.408  14.346
63914W        W23417  23.068   3.709   1.267
63915W        W23418  38.386  17.088  11.999
63916W        W23419  41.926   2.902   0.433
63917W        W23420  17.272  42.838  13.946
63918W        W23421  22.709  15.641  11.467
63919W        W23422  36.025  35.425  13.027
63920W        W23423  41.329  39.945  11.500
63921W        W23424  34.960   5.908  12.540
63922W        W23425  16.664  41.404   4.202
63923W        W23426  42.335  39.536   1.405
63924W        W23427  28.468   6.889   2.797
63925W        W23428  12.757  19.768  14.956
63926W        W23429  34.371  18.190  14.847
63927W        W23430  43.277   4.911  10.511
63928W        W23431   5.891  25.070   4.267
63929W        W23432   2.402  20.189  12.567
63930W        W23433  43.900   4.922  11.022
63931W        W23434  18.559  36.854  10.595
63932W        W23435  16.788  29.137  12.916
63933W        W23436   0.963  16.648  11.957
63934W        W23437  31.098  20.225  13.900
63935W        W23438  27.133  42.891   4.750
63936W        W23439   2.731  26.072  11.959
63937W        W23440  42.917  42.342  11.391
63938W        W23441  43.938  37.505   2.758
63939W        W23442  43.430  41.850  10.413
63940W        W23443  24.163  23.202  14.443
63941W        W23444  42.795  44.455   3.785
63942W        W23445   4.395  13.750   2.761
63943W        W23446  40.033   9.293  14.014
63944W        W23447  44.825   5.932   3.237
63945W        W23448  26.024  42.382   1.752
63946W        W23449  30.136  35.858   5.274
63947W        W23450  36.005  40.041   3.248
63948W        W23451  11.263  16.216   2.883
63949W        W23452  13.127  18.735  10.897
63950W        W23453  19.134  35.465  14.867
63951W        W23454  26.988   7.196  13.873
63952W        W23455  12.339  13.205  14.852
63953W        W23456  23.605   6.214   2.296
63954W        W23457   2.827  34.495  10.603
63955W        W23458  27.968  29.055  14.960
63956W        W23459  34.386  18.179   1.755
63957W        W23460  10.826   7.283  12.470
63958W        W23461  27.024  43.274   0.818
63959W        W23462  34.948   0.818  14.887
63960W        W23463  27.586  19.040  11.499
63961W        W23464  20.587   4.372  13.467
63962W        W23465  29.978   4.396   2.189
63963W        W23466  26.963  40.962  12.895
63964W        W23467  11.631   3.936  10.412
63965W        W23468  11.365  16.655  13.499
63966W        W23469  33.913  18.769   3.153
63967W        W23470  26.995   4.289   1.385
63968W        W23471  41.909  43.856   0.861
63969W        W23472   0.283   1.406   2.743
63970W        W23473  41.811  24.585  12.910
63971W        W23474  21.196   4.282  14.318
63972W        W23475  34.447  11.282   1.695
63973W        W23476  34.964  17.627  11.431
63974W        W23477  28.571  12.629   2.406
63975W        W23478   9.158  41.379   3.165
63976W        W23479  14.774  12.645   5.307
63977W        W23480  26.970  34.414   3.187
63978W        W23481  39.885  43.460  11.514
63979W        W23482  27.111  10.175   4.226
63980W        W23483   5.818  40.498   3.315
63981W        W23484  10.295  33.065   0.795
63982W        W23485   2.869   8.742  13.467
63983W        W23486   5.875  11.367  11.039
63984W        W23487  44.833  40.485   0.933
63985W        W23488  19.277   0.876   3.677
63986W        W23489  11.299  30.935   3.709
63987W        W23490   7.335  11.315  14.979
63988W        W23491  36.077  27.669  10.896
63989W        W23492  43.982  12.662  14.829
63990W        W23493  44.949  22.627   0.317
63991W        W23494  30.156   2.445  12.417
63992W        W23495  11.300  32.495   0.797
63993W        W23496  37.568   6.382   5.205
63994W        W23497  37.453  16.760  12.473
63995W        W23498  13.150   4.803  13.962
63996W        W23499  41.890   0.250   0.830
63997W        W23500  20.648  41.864  11.541
63998W        W23501  19.632  42.408   1.816
63999W        W23502  33.622  25.201   2.358
64000W        W23503   1.791  23.600   0.435
64001W        W23504  25.989  28.589   2.669
64002W        W23505  17.683  23.554  11.418
64003W        W23506  22.043  24.533  12.090
64004W        W23507   1.971   4.283  13.867
64005W        W23508   7.671  31.601   2.300
64006W        W23509  33.540   9.316   2.238
64007W        W23510   5.303  31.591  13.319
64008W        W23511  40.917   7.908   2.775
64009W        W23512  42.001  13.326  10.516
64010W        W23513  42.016   7.379  12.940
64011W        W23514   6.322  10.706  10.925
64012W        W23515  28.520  13.154   4.665
64013W        W23516  27.565  39.032   0.760
64014W        W23517   1.775  37.434   0.764
64015W        W23518  31.939  39.378  13.334
64016W        W23519   4.383  18.731  10.405
64017W        W23520  26.609  41.423   0.803
64018W        W23521   5.843  15.242   2.696
64019W        W23522   3.925  36.423  12.920
64020W        W23523  44.776   6.299  11.870
64021W        W23524  43.933   7.670  12.892
64022W        W23525  37.381  27.560  14.912
64023W        W23526  15.746   7.910   5.241
64024W        W23527  16.274   8.850  11.032
64025W        W23528  29.023   6.228   4.713
64026W        W23529  19.587   8.896   0.790
64027W        W23530  33.427  13.683   0.846
64028W        W23531  44.294  15.083  12.449
64029W        W23532  35.453  41.884  10.596
64030W        W23533  28.051  17.178   2.185
64031W        W23534  36.580  21.215   3.178
64032W        W23535  34.568  41.881  10.540
64033W        W23536  34.515  17.268   0.411
64034W        W23537  30.551  21.614  14.487
64035W        W23538  14.753  12.216  13.358
64036W        W23539  41.332  41.850  14.026
64037W        W23540  31.410  11.667   4.226
64038W        W23541  22.129  37.851   4.741
64039W        W23542  10.745  18.738  10.130
64040W        W23543  39.405  26.531   3.344
64041W        W23544   2.726   8.315   4.293
64042W        W23545   7.236  38.413   4.757
64043W        W23546  43.419   4.845  11.404
64044W        W23547   2.383  39.969   3.162
64045W        W23548   2.338  12.352   1.262
64046W        W23549   7.332  31.072  13.798
64047W        W23550  44.815  44.778  13.518
64048W        W23551  21.725   5.700   1.433
64049W        W23552  24.479   3.336   1.425
64050W        W23553  38.976  12.296  13.408
64051W        W23554  31.642  11.261   4.334
64052W        W23555  19.169  12.670   4.613
64053W        W23556  19.193  21.684  14.782
64054W        W23557  23.617  10.228  14.405
64055W        W23558  34.926  40.439  12.982
64056W        W23559  34.067  14.704   4.302
64057W        W23560  43.281  23.658  13.506
64058W        W23561  40.044  29.623  13.831
64059W        W23562  34.072  30.126   4.686
64060W        W23563  28.167  30.145   4.118
64061W        W23564  20.068  35.578   1.320
64062W        W23565  31.641  15.153   2.737
64063W        W23566  26.180   0.385   1.253
64064W        W23567  29.525  15.253  10.456
64065W        W23568  23.188   2.236   4.347
64066W        W23569  37.931   8.661   3.363
64067W        W23570  13.845  28.630  13.966
64068W        W23571  12.699   9.842  14.928
64069W        W23572  24.148  14.200  13.361
64070W        W23573   6.873   2.470   1.700
64071W        W23574  35.384  39.914   0.791
64072W        W23575  37.359  11.747   0.249
64073W        W23576   6.745  42.411  10.920
64074W        W23577  27.062  11.804   2.665
64075W        W23578   1.900  14.783  13.851
64076W        W23579  18.705   6.424  10.892
64077W        W23580  36.857  43.431   1.427
64078W        W23581  18.083   6.806  12.969
64079W        W23582  32.045  34.105   2.663
64080W        W23583  11.309  22.037   2.389
64081W        W23584  43.870  38.472  10.538
64082W        W23585   6.691  13.788  13.052
64083W        W23586  29.599  33.618  11.125
64084W        W23587   2.812  36.949  13.989
64085W        W23588  35.065   3.774   3.338
64086W        W23589  23.145  26.572   3.870
64087W        W23590  20.736  27.614   4.756
64088W        W23591  12.666  15.138  13.486
64089W        W23592  15.133   0.473  11.942
64090W        W23593  38.445  40.003  11.932
64091W        W23594  43.473  44.905   0.268
64092W        W23595  18.697  29.513  14.789
64093W        W23596   3.886   4.845   0.871
64094W        W23597  10.721  26.136  12.976
64095W        W23598  15.798   0.259  13.365
64096W        W23599  17.663  21.544   2.789
64097W        W23600  28.509  29.059   0.355
64098W        W23601  44.892   7.205   3.347
64099W        W23602  22.031  21.733  12.481
64100W        W23603  14.682   3.781   2.735
64101W        W23604   7.289  42.839   4.751
64102W        W23605  28.066  12.328  13.500
64103W        W23606  31.972   7.350   1.260
64104W        W23607  20.160  38.015   1.317
64105W        W23608  33.980  32.561  14.925
64106W        W23609   7.171  44.353   4.626
64107W        W23610   3.954  35.874   5.121
64108W        W23611   8.267  29.169  11.981
64109W        W23612  17.565  36.890   1.225
64110W        W23613  16.667  23.709   2.875
64111W        W23614  40.362  36.504  12.433
64112W        W23615  14.750  12.771   3.688
64113W        W23616  27.572  14.318  10.580
64114W        W23617  12.803   5.764   0.376
64115W        W23618  31.076   2.303  13.832
64116W        W23619   0.492  15.678  13.540
64117W        W23620  42.974  19.103   0.478
64118W        W23621  34.978   3.799   2.832
64119W        W23622  30.972  12.857   3.647
64120W        W23623  20.591  30.533  13.319
64121W        W23624  11.810  15.098  10.404
64122W        W23625  11.208  40.799   0.831
64123W        W23626  20.646  30.648   2.735
64124W        W23627  20.181  44.788  14.353
64125W        W23628  11.230  40.963  11.418
64126W        W23629  42.801   2.387   5.312
64127W        W23630  11.714  19.596   1.795
64128W        W23631  36.920  37.400  14.332
64129W        W23632  23.159  37.993   0.798
64130W        W23633  34.612   1.731   0.770
64131W        W23634  20.047  30.084  14.938
64132W        W23635  13.675  32.142  14.376
64133W        W23636   0.869  43.397  11.865
64134W        W23637  41.416   7.332  11.909
64135W        W23638  30.460  38.496  12.400
64136W        W23639   0.327  40.821   1.785
64137W        W23640  13.347  11.180   0.824
64138W        W23641  23.169   9.668   2.350
64139W        W23642  12.784  31.128  12.934
64140W        W23643  16.616  22.564   2.308
64141W        W23644   4.725  42.361   3.306
64142W        W23645   0.483   0.763   1.264
64143W        W23646  13.284  17.103  12.354
64144W        W23647   7.321   8.280  13.524
64145W        W23648  37.059  12.796   1.249
64146W        W23649  29.084  18.609   0.865
64147W        W23650   3.801  15.136   2.263
64148W        W23651   7.312  41.967  11.557
64149W        W23652  25.501  11.296  12.035
64150W        W23653  25.079  22.096  13.960
64151W        W23654  40.842  40.359  12.006
64152W        W23655   6.206  29.521   3.850
64153W        W23656  31.040  10.252   4.304
64154W        W23657   5.433  39.046   1.864
64155W        W23658  33.415  26.097   2.797
64156W        W23659   4.919  18.108  10.955
64157W        W23660  17.614  18.276  14.995
64158W        W23661  17.095  24.498   3.372
64159W        W23662  20.647  12.347   3.749
64160W        W23663   3.375  21.729  13.496
64161W        W23664  28.680  27.537  14.815
64162W        W23665   7.324  23.187  14.355
64163W        W23666  40.895  28.104  14.897
64164W        W23667   5.772  37.955   2.838
64165W        W23668  14.739   9.206   0.915
64166W        W23669   1.316  16.287  11.500
64167W        W23670  21.546   6.215   0.727
64168W        W23671  31.456   5.339   2.699
64169W        W23672  22.173  12.136  12.045
64170W        W23673  22.129  24.012   1.904
64171W        W23674  33.412  27.511   4.169
64172W        W23675  32.408  32.096  13.933
64173W        W23676  29.488  34.996  13.460
64174W        W23677   7.890  37.504   0.439
64175W        W23678   6.716  37.339  11.928
64176W        W23679  16.597  40.312  13.362
64177W        W23680   9.219   9.246  14.858
64178W        W23681  28.959  42.028  13.836
64179W        W23682   7.406   2.411   3.272
64180W        W23683  34.093  11.792  12.905
64181W        W23684  38.961  28.136  14.027
64182W        W23685   6.312  44.816   2.722
64183W        W23686  10.644  30.078  10.994
64184W        W23687  32.905   2.308   4.258
64185W        W23688  13.146  19.771  13.040
64186W        W23689  33.092  13.825   2.260
64187W        W23690  28.680  27.625  13.383
64188W        W23691  26.064  17.304   1.697
64189W        W23692   1.414  39.992  14.410
64190W        W23693   9.760  26.006   0.783
64191W        W23694  21.634  32.114   1.799
64192W        W23695  29.174  44.827  12.460
64193W        W23696  28.020  44.973  14.429
64194W        W23697  43.905  43.922   0.422
64195W        W23698  11.822   1.457   3.727
64196W        W23699  20.766  25.577  10.547
64197W        W23700  21.243  30.993  11.965
64198W        W23701  40.877  19.251   2.394
64199W        W23702  18.711  29.503   3.678
64200W        W23703   5.695  40.967   0.934
64201W        W23704  13.171   5.357  13.913
64202W        W23705  43.894  18.729  13.857
64203W        W23706  42.487  41.000  11.458
64204W        W23707   3.424   1.264  12.395
64205W        W23708   4.876  40.999  13.545
64206W        W23709  24.057   9.334  14.824
64207W        W23710  28.484  15.266  14.909
64208W        W23711  41.039  13.304  13.507
64209W        W23712   5.906   0.259  14.399
64210W        W23713  34.442  16.074   1.244
64211W        W23714  42.518   2.885   1.740
64212W        W23715   6.373  26.538   0.792
64213W        W23716  26.015   3.902   3.754
64214W        W23717   7.800  20.570  14.863
64215W        W23718  42.011  39.908  13.059
64216W        W23719   1.391   0.843  12.018
64217W        W23720  14.175  10.771  11.577
64218W        W23721  44.339  33.112   4.795
64219W        W23722  18.593  20.669   1.710
64220W        W23723  23.237  34.948  14.979
64221W        W23724  29.498  40.882   0.477
64222W        W23725  36.890  19.585   4.316
64223W        W23726   9.300  30.975   4.255
64224W        W23727  42.886  39.966  11.020
64225W        W23728  10.705  32.138  14.508
64226W        W23729  43.818  22.712  10.945
64227W        W23730  32.974  20.650   3.747
64228W        W23731   0.419  18.770  10.998
64229W        W23732  31.914  35.572  13.344
64230W        W23733  42.287  20.170  13.503
64231W        W23734  29.457  17.569   1.404
64232W        W23735  15.679  29.019   0.482
64233W        W23736  26.615  34.371  10.566
64234W        W23737   2.882   8.742  14.933
64235W        W23738  39.018  17.205  11.071
64236W        W23739   2.423  30.937  11.435
64237W        W23740  28.972  41.336  12.384
64238W        W23741  16.595  29.955  11.450
64239W        W23742   0.401  24.641   3.357
64240W        W23743   8.229  43.825  12.884
64241W        W23744  39.544  15.111   2.825
64242W        W23745  13.677   6.278   0.852
64243W        W23746  44.282   3.376   2.235
64244W        W23747  35.942  12.247   4.133
64245W        W23748  12.661  39.454   4.674
64246W        W23749  42.840  21.172  12.447
64247W        W23750  29.636  33.540  14.417
64248W        W23751  34.099  17.619   0.325
64249W        W23752  43.793  15.275  13.450
64250W        W23753  41.916  35.024  11.484
64251W        W23754  43.420  15.697  14.954
64252W        W23755  38.015  39.403  14.503
64253W        W23756  15.235  27.576   1.721
64254W        W23757  23.499  41.983  13.873
64255W        W23758  28.007  29.088  13.054
64256W        W23759   2.737  40.809  11.994
64257W        W23760   2.384  35.547  12.515
64258W        W23761  30.970  31.455   2.380
64259W        W23762  41.816  28.502  12.421
64260W        W23763  30.064  40.529  14.424
64261W        W23764  28.621  32.001   2.377
64262W        W23765  20.755   4.877  14.445
64263W        W23766  29.945  24.522   2.406
64264W        W23767  11.171  33.971   1.755
64265W        W23768  21.204   0.903   0.466
64266W        W23769  28.578  16.572   2.208
64267W        W23770  11.138  15.138  12.008
64268W        W23771  42.446  18.773   2.805
64269W        W23772   1.428   4.886   1.413
64270W        W23773  18.658  18.703   2.852
64271W        W23774   6.736  13.701   0.961
64272W        W23775  37.867  30.563  13.384
64273W        W23776  11.751   5.741  11.969
64274W        W23777  37.550  13.294   4.665
64275W        W23778  34.583  25.984   1.245
64276W        W23779  42.017  21.645  14.295
64277W        W23780   5.372  16.772  12.404
64278W        W23781  34.913  32.541   4.138
64279W        W23782  27.146  28.031  12.898
64280W        W23783  23.505  41.923  12.003
64281W        W23784  40.807  13.670  13.952
64282W        W23785   9.869   1.376   4.133
64283W        W23786  17.654   3.802   1.348
64284W        W23787  24.579  13.759  13.798
64285W        W23788  39.830  42.996  12.490
64286W        W23789   7.896  28.656   4.725
64287W        W23790  39.336  31.002   1.212
64288W        W23791  13.730  26.561   4.602
64289W        W23792  10.294  22.056  13.423
64290W        W23793  11.841  29.131   2.758
64291W        W23794  41.536  42.370   4.784
64292W        W23795  20.236  28.616   2.250
64293W        W23796  10.681  30.161  11.986
64294W        W23797   2.760  31.142  13.429
64295W        W23798  40.389  25.483   0.378
64296W        W23799  25.167  16.622  10.963
64297W        W23800  40.036  21.085  12.355
64298W        W23801  27.473  25.471  13.910
64299W        W23802   7.796  24.707   1.912
64300W        W23803  36.858  15.276   2.717
64301W        W23804  22.108  15.808   3.219
64302W        W23805  33.395   6.408   4.180
64303W        W23806  33.388   5.907   0.864
64304W        W23807  37.900  17.268   1.861
64305W        W23808   8.308   6.813   1.401
64306W        W23809   9.722  39.455  13.971
64307W        W23810  21.136  24.152   5.119
64308W        W23811  42.787  40.368   0.804
64309W        W23812  36.891  41.403   3.337
64310W        W23813  15.210  20.038   3.248
64311W        W23814  25.530  22.183  13.490
64312W        W23815  26.557  33.952  13.927
64313W        W23816  11.827  20.666  12.538
64314W        W23817  26.987  29.040   4.325
64315W        W23818  32.419   0.368   4.330
64316W        W23819  11.338  35.499   4.277
64317W        W23820  18.192  12.258   0.358
64318W        W23821  27.554  14.764  10.607
64319W        W23822  27.995   7.755  11.086
64320W        W23823   2.302  23.523   5.240
64321W        W23824   1.931  21.248  12.371
64322W        W23825  15.224  10.833  13.419
64323W        W23826  38.344  37.948   1.404
64324W        W23827   1.334  34.605   0.872
64325W        W23828  42.319  40.808   4.719
64326W        W23829  29.644   5.420   4.229
64327W        W23830   2.946  17.781   2.855
64328W        W23831  27.059   9.256  12.565
64329W        W23832  32.977  33.115  13.016
64330W        W23833  33.384  24.153  13.014
64331W        W23834  13.316  26.491   0.372
64332W        W23835  35.592  44.473   3.160
64333W        W23836  34.935  41.318   3.338
64334W        W23837  31.533  24.999  10.056
64335W        W23838  10.661  11.166  13.891
64336W        W23839   4.239  35.043   2.760
64337W        W23840   9.735  34.494   1.315
64338W        W23841  26.989  27.120  13.495
64339W        W23842  25.027  16.646  14.356
64340W        W23843  15.226  28.625   1.382
64341W        W23844  36.396  42.880   1.327
64342W        W23845  14.769  16.319   4.113
64343W        W23846  31.537   4.250   3.171
64344W        W23847  40.050  17.568  11.456
64345W        W23848  12.746  24.188  10.932
64346W        W23849  34.991  11.348  13.456
64347W        W23850  23.549  16.092   1.763
64348W        W23851  20.138  31.141  10.541
64349W        W23852   7.176   4.258  13.913
64350W        W23853   2.728  12.159   0.355
64351W        W23854   6.221   5.205   0.897
64352W        W23855  17.676  13.729   2.273
64353W        W23856   8.360  38.990  11.568
64354W        W23857  23.701  24.225   1.255
64355W        W23858   4.842   8.791  11.994
64356W        W23859  34.084  21.131  14.345
64357W        W23860  42.294  30.151  12.028
64358W        W23861  41.929  18.738  11.532
64359W        W23862  41.398  13.698  12.831
64360W        W23863  13.833  21.617  14.375
64361W        W23864  26.595   2.455  14.942
64362W        W23865  15.220  10.690  14.888
64363W        W23866  16.111  10.798   2.872
64364W        W23867  44.420  24.671   3.289
64365W        W23868  31.086  35.398  12.842
64366W        W23869   5.719  40.955   3.249
64367W        W23870  18.661  39.514  13.448
64368W        W23871  30.007   5.389   3.289
64369W        W23872  13.319   1.763  13.354
64370W        W23873   9.353  16.598  14.368
64371W        W23874  20.028  24.065   2.288
64372W        W23875   5.841  31.150  12.471
64373W        W23876  11.156   3.366  13.904
64374W        W23877  34.486  36.920   1.786
64375W        W23878   3.351  11.680  12.961
64376W        W23879  34.017   2.264  13.995
64377W        W23880   3.428   3.288   4.289
64378W        W23881   2.781   4.290   3.384
64379W        W23882  32.598  31.520   1.428
64380W        W23883   6.226   1.787   0.312
64381W        W23884  33.424  21.696   3.838
64382W        W23885  19.074  22.028  14.478
64383W        W23886  10.382  16.745   3.306
64384W        W23887   4.421  12.316  12.081
64385W        W23888  28.167  36.931   1.251
64386W        W23889  43.314   0.374  11.969
64387W        W23890  41.517  18.284   3.745
64388W        W23891   1.839   9.254   2.714
64389W        W23892  41.525   1.452   2.232
64390W        W23893  26.201   7.897  13.054
64391W        W23894   3.335  29.063   2.714
64392W        W23895  13.105  14.262   9.996
64393W        W23896  44.844  35.026  13.427
64394W        W23897  20.548  10.794   4.175
64395W        W23898   5.731  29.981  14.317
64396W        W23899  30.003  32.131   3.749
64397W        W23900  41.963  40.537  10.051
64398W        W23901  37.903  40.337  12.508
64399W        W23902  22.522   1.859  14.002
64400W        W23903  14.757  28.462   1.360
64401W        W23904  20.219  39.926   0.437
64402W        W23905  44.262  13.741   0.806
64403W        W23906  22.524  22.614  14.946
64404W        W23907   2.341   1.777  13.405
64405W        W23908  16.703  10.852  10.635
64406W        W23909  38.057  33.988   2.224
64407W        W23910   6.919  11.304   1.880
64408W        W23911  44.972  41.940   2.268
64409W        W23912  39.429   6.842   3.165
64410W        W23913  35.564  41.039  13.311
64411W        W23914  31.550  20.223  12.382
64412W        W23915  33.928  21.135   3.755
64413W        W23916  23.529  28.014  13.846
64414W        W23917  42.916  25.172   2.740
64415W        W23918  14.766  39.378   2.820
64416W        W23919   9.185  44.945   1.358
64417W        W23920  40.391   3.302   2.335
64418W        W23921  13.839   6.264   2.221
64419W        W23922  29.137  14.151  13.422
64420W        W23923  14.633  15.739   1.871
64421W        W23924  17.644   4.297  12.987
64422W        W23925  33.421   7.337   9.963
64423W        W23926  40.903  37.350   3.193
64424W        W23927  18.566  17.583   3.207
64425W        W23928  25.679  20.165   2.328
64426W        W23929  34.921  26.653   5.172
64427W        W23930  30.113  28.103  14.010
64428W        W23931  41.918  20.749  12.929
64429W        W23932  22.628  26.163  11.082
64430W        W23933   9.656  42.427  10.601
64431W        W23934  23.066   3.294   1.345
64432W        W23935   8.264  38.882   2.737
64433W        W23936  40.041   2.268   0.298
64434W        W23937  44.456  28.039   4.799
64435W        W23938  29.491  20.532  14.351
64436W        W23939  21.523  16.090   3.201
64437W        W23940   7.912  40.979   4.808
64438W        W23941   6.192  13.657   1.246
64439W        W23942   0.946  27.611   0.446
64440W        W23943  38.412   2.964   1.882
64441W        W23944   1.292  32.095   2.698
64442W        W23945   9.679   7.412  14.332
64443W        W23946  21.565  35.536   3.699
64444W        W23947  20.059  22.212   4.133
64445W        W23948  43.434  13.259  13.458
64446W        W23949  13.205  42.431  10.913
64447W        W23950  35.400   5.711  10.516
64448W        W23951  41.437   5.724   0.445
64449W        W23952  25.564   2.303  10.441
64450W        W23953   4.265  42.285  13.961
64451W        W23954  37.458  27.139   0.863
64452W        W23955  18.182   8.894   3.756
64453W        W23956   7.679   3.232  13.984
64454W        W23957  34.874   6.192  12.844
64455W        W23958  20.754   9.765   0.351
64456W        W23959   5.345  39.032  14.772
64457W        W23960  15.192  41.527   4.260
64458W        W23961  12.347   0.275  11.897
64459W        W23962  11.165   7.807  12.470
64460W        W23963  23.571  11.632   1.269
64461W        W23964  17.209   1.883  12.003
64462W        W23965   5.422  33.910   3.646
64463W        W23966  43.838  15.612   2.316
64464W        W23967  11.277  39.010   3.282
64465W        W23968  35.975  11.297   2.216
64466W        W23969  17.304  15.213  14.888
64467W        W23970   6.793   2.732  13.842
64468W        W23971  11.228  44.441   0.956
64469W        W23972  36.370  40.856   1.850
64470W        W23973  13.316  25.991  12.419
64471W        W23974   3.775   9.667   3.835
64472W        W23975   9.263   5.821  11.552
64473W        W23976  32.062  14.123  14.312
64474W        W23977   6.352  18.558   3.241
64475W        W23978  14.603  10.692   3.828
64476W        W23979  44.951  12.235   0.304
64477W        W23980   1.452  18.669  14.860
64478W        W23981  32.976   3.387   4.645
64479W        W23982  42.357  33.501   3.760
64480W        W23983  22.736  39.844   1.380
64481W        W23984  15.299  32.921   3.651
64482W        W23985  44.264  22.598  12.076
64483W        W23986  36.551  37.498   3.375
64484W        W23987  43.328  12.307  12.940
64485W        W23988  26.071   9.801   0.392
64486W        W23989  36.964  12.193  13.992
64487W        W23990  28.967  38.863   3.175
64488W        W23991  33.939  25.641  11.110
64489W        W23992  22.101  12.283   0.331
64490W        W23993  25.965   0.822  12.033
64491W        W23994  25.082   9.260   1.925
64492W        W23995   7.238  40.364  14.302
64493W        W23996  31.980  32.015   4.783
64494W        W23997  20.088  43.283  12.858
64495W        W23998  26.518  29.170   3.163
64496W        W23999  16.182  11.138   0.393
64497W        W24000  13.319  34.895  13.826
64498W        W24001   6.808  42.316   1.871
64499W        W24002  44.787  33.392   3.367
64500W        W24003  29.571  40.048   5.095
64501W        W24004  28.492  44.823  11.529
64502W        W24005  16.748  11.187   2.300
64503W        W24006   3.232   4.419   0.418
64504W        W24007  21.117  43.488  14.894
64505W        W24008  24.520  40.439  14.399
64506W        W24009  12.234  16.698   0.248
64507W        W24010  24.190  25.007   5.214
64508W        W24011  40.802  20.124  11.075
64509W        W24012  31.517  14.775   0.257
64510W        W24013  34.408  21.194  10.049
64511W        W24014  30.154  10.677   9.649
64512W        W24015   4.804  11.808  12.030
64513W        W24016  12.835  37.543   3.250
64514W        W24017   6.288  43.884   0.857
64515W        W24018   8.886  11.350  10.519
64516W        W24019   9.646  23.199   3.678
64517W        W24020   2.340  35.980  12.546
64518W        W24021  13.250  34.593  12.397
64519W        W24022  40.023   3.874   2.195
64520W        W24023   0.465  31.932  14.896
64521W        W24024  18.683  30.043  12.436
64522W        W24025  27.155  31.512   4.747
64523W        W24026   0.274  39.872   1.742
64524W        W24027  24.108   7.275   2.807
64525W        W24028   0.774  39.392  11.861
64526W        W24029  26.551  33.968   1.405
64527W        W24030   3.351  23.733  10.477
64528W        W24031   1.732  10.666   2.726
64529W        W24032   1.399  36.499  12.406
64530W        W24033   6.242   2.768  14.357
64531W        W24034  30.461  32.999   4.314
64532W        W24035  32.063   2.879   2.242
64533W        W24036  38.002  25.640   0.940
64534W        W24037  37.856   6.705   2.395
64535W        W24038  35.371  17.279   4.187
64536W        W24039  27.094  19.737  12.939
64537W        W24040  24.219   7.359  10.531
64538W        W24041  12.288  41.409  14.788
64539W        W24042  13.323  15.268  12.849
64540W        W24043   0.359  24.055  14.441
64541W        W24044   7.261  27.488  12.574
64542W        W24045   0.431  44.353  10.093
64543W        W24046  27.156   7.377   4.700
64544W        W24047  32.630   8.336   3.298
64545W        W24048   5.325  24.614  13.975
64546W        W24049  16.277  23.657  13.864
64547W        W24050  32.059  39.349  11.377
64548W        W24051   8.810  26.534   4.143
64549W        W24052  10.752  22.570  12.392
64550W        W24053  27.466  26.652   4.621
64551W        W24054  28.493  13.643  11.883
64552W        W24055  42.010   7.276  11.065
64553W        W24056  35.030  14.759   0.434
64554W        W24057   9.176   8.188  13.946
64555W        W24058  13.681  34.385   2.731
64556W        W24059  23.570  40.386   4.173
64557W        W24060  34.378  17.710  13.928
64558W        W24061  42.353  43.783   1.733
64559W        W24062  42.022  16.608  13.792
64560W        W24063  36.493  30.479   4.824
64561W        W24064  16.621  34.080  12.010
64562W        W24065  12.291   4.395  11.450
64563W        W24066   6.345  31.148   4.800
64564W        W24067  40.498  30.532  13.379
64565W        W24068   8.386  16.234  13.350
64566W        W24069  32.543  18.293  14.413
64567W        W24070  12.261  19.088   1.730
64568W        W24071   9.346  11.180  14.406
64569W        W24072  38.837  42.291  11.541
64570W        W24073  19.124  44.441  10.068
64571W        W24074  38.984  33.003  14.767
64572W        W24075   5.921  38.028   3.744
64573W        W24076  23.665  37.904  14.506
64574W        W24077  12.646   4.723  14.306
64575W        W24078  27.135  11.349  14.323
64576W        W24079  10.258  41.793  10.557
64577W        W24080   0.355  12.675  13.328
64578W        W24081  15.321  10.746   2.272
64579W        W24082  25.668  22.640  14.379
64580W        W24083  24.620  28.456  12.433
64581W        W24084  31.606   5.437   0.436
64582W        W24085  31.558  20.191  10.518
64583W        W24086  32.099  35.510   5.082
64584W        W24087  11.641  27.468   1.935
64585W        W24088  26.090  40.519  13.986
64586W        W24089  34.047  10.748   4.201
64587W        W24090  11.132  12.783  11.477
64588W        W24091   2.254   4.354   1.935
64589W        W24092  23.089  39.814  13.043
64590W        W24093   5.320  43.922   3.243
64591W        W24094  42.965  25.044  11.467
64592W        W24095  24.176  26.672   3.643
64593W        W24096  30.108  20.660   1.325
64594W        W24097  19.603   8.186  10.955
64595W        W24098  17.244  35.964   4.608
64596W        W24099  18.769  31.423  10.582
64597W        W24100   3.785  28.026  14.362
64598W        W24101  42.342  35.900  11.954
64599W        W24102  24.517  40.032  14.457
64600W        W24103  24.177  19.138   4.310
64601W        W24104  41.499  37.450   1.236
64602W        W24105  16.113  26.013  11.960
64603W        W24106  40.998  39.883  11.549
64604W        W24107  11.294   0.263  14.486
64605W        W24108  26.052  41.963   0.839
64606W        W24109  33.481   0.492   3.759
64607W        W24110  23.611  42.960   4.325
64608W        W24111  13.767  19.601   1.925
64609W        W24112  16.627  43.420   2.702
64610W        W24113  21.128   2.393  13.059
64611W        W24114   0.762   5.700   4.175
64612W        W24115  33.532  25.969   4.222
64613W        W24116   1.338  28.611   3.252
64614W        W24117  43.331  11.804  13.458
64615W        W24118  22.112   1.357   9.455
64616W        W24119  25.665  34.902  14.787
64617W        W24120  11.170   9.734   3.814
64618W        W24121  19.714  31.984  11.568
64619W        W24122  14.619  20.581   3.654
64620W        W24123  38.880   1.310  10.468
64621W        W24124  21.123  34.110   4.136
64622W        W24125  22.161   8.367   2.209
64623W        W24126  43.507  31.472   4.731
64624W        W24127  13.787  29.443   0.289
64625W        W24128  22.628  43.847   0.468
64626W        W24129   4.846  16.670   3.743
64627W        W24130  32.595  20.705  11.078
64628W        W24131  19.645  25.634   0.341
64629W        W24132  18.685   0.917   2.819
64630W        W24133  28.956   2.888   0.394
64631W        W24134  32.534  17.620  13.973
64632W        W24135  41.478  38.006   2.810
64633W        W24136   2.738  19.127   3.203
64634W        W24137  22.085  38.054   0.398
64635W        W24138  16.312  38.422  13.838
64636W        W24139  29.096  13.144  14.287
64637W        W24140  20.114   2.723   5.320
64638W        W24141   3.826   0.485   0.390
64639W        W24142   2.842  15.750   0.373
64640W        W24143  28.544  31.417  12.070
64641W        W24144   6.274  34.929   1.783
64642W        W24145   9.805  43.827   1.394
64643W        W24146  13.269  22.613   1.293
64644W        W24147   7.860   3.715  11.898
64645W        W24148  23.050  22.013  12.004
64646W        W24149  12.790  37.831  12.521
64647W        W24150   8.725  11.134   0.844
64648W        W24151  30.081  10.298  10.537
64649W        W24152  27.556   6.303   1.428
64650W        W24153  19.709  22.196   1.256
64651W        W24154  31.149  17.104   4.752
64652W        W24155  39.959  11.350   1.422
64653W        W24156  16.254   8.724  10.540
64654W        W24157  44.787   9.282   1.411
64655W        W24158  39.540  30.576   4.736
64656W        W24159  44.756  39.022  14.887
64657W        W24160  37.836  14.107   2.766
64658W        W24161  36.381  43.930   1.844
64659W        W24162   0.255  21.099  14.830
64660W        W24163  40.802   2.807  11.549
64661W        W24164  39.037  32.121   1.762
64662W        W24165  36.972  31.562  11.477
64663W        W24166  22.079   9.277   2.682
64664W        W24167  39.367  27.135   2.382
64665W        W24168  14.209   1.351   4.119
64666W        W24169  24.038  35.487   1.736
64667W        W24170  11.306  29.087  14.814
64668W        W24171  14.288  14.771   4.279
64669W        W24172   3.456  38.364  12.904
64670W        W24173  25.171  18.593   3.356
64671W        W24174  32.563   6.275   4.724
64672W        W24175  17.255  10.677   2.383
64673W        W24176  36.893  18.112  13.354
64674W        W24177  43.488   5.281  12.419
64675W        W24178  27.127   4.867   1.762
64676W        W24179   0.480  18.694   1.214
64677W        W24180  33.895  26.189   4.265
64678W        W24181  17.578  25.199  11.011
64679W        W24182  40.833  20.553  14.300
64680W        W24183  26.659  36.894   4.276
64681W        W24184   6.270  29.583  10.006
64682W        W24185   1.791  38.468  12.532
64683W        W24186  34.612   3.828  11.425
64684W        W24187  28.645  13.735   3.353
64685W        W24188  31.545  16.294   4.667
64686W        W24189   1.801  39.384  12.457
64687W        W24190  22.575  29.569  10.011
64688W        W24191  22.692  24.015  14.777
64689W        W24192   2.346  22.575  13.962
64690W        W24193  19.153  12.767   3.226
64691W        W24194  22.047   9.315  11.094
64692W        W24195  39.340  20.586  12.549
64693W        W24196  27.987  17.090   4.821
64694W        W24197  37.924  18.073  12.424
64695W        W24198  37.838   9.688   4.728
64696W        W24199  34.437  43.358   0.872
64697W        W24200  25.118  43.510   3.180
64698W        W24201  26.176  17.699   1.372
64699W        W24202  19.778  37.539  13.973
64700W        W24203   7.251   5.828  14.330
64701W        W24204  36.011  31.932   2.785
64702W        W24205  38.383  32.485   1.764
64703W        W24206  18.725  29.940  11.385
64704W        W24207  43.003  38.869   0.402
64705W        W24208  30.643  25.610  12.466
64706W        W24209  39.367  40.343  11.942
64707W        W24210  22.653  29.668  13.939
64708W        W24211  26.607  11.848  14.995
64709W        W24212  11.716  23.662  14.874
64710W        W24213  19.672  39.855   4.638
64711W        W24214  22.162  10.348  11.051
64712W        W24215  34.512  20.684   2.309
64713W        W24216  22.648   0.884  12.826
64714W        W24217  27.183   0.796  14.776
64715W        W24218   5.313  39.005  12.953
64716W        W24219  11.807  10.202   4.736
64717W        W24220  26.202  25.134   2.673
64718W        W24221   7.298   6.718  11.396
64719W        W24222   9.351  21.063  13.872
64720W        W24223  15.202  11.141  11.065
64721W        W24224  30.165  42.847  14.429
64722W        W24225  23.587   9.801   2.684
64723W        W24226   4.404   0.268   1.296
64724W        W24227  26.693   8.810  10.947
64725W        W24228  20.596  20.554  14.779
64726W        W24229  22.150  31.142  14.398
64727W        W24230  14.815   5.835  12.344
64728W        W24231  33.417  27.546   1.908
64729W        W24232   9.320  27.681   2.317
64730W        W24233  39.343  15.605  14.814
64731W        W24234  32.521   6.393   3.792
64732W        W24235  27.946  27.668  10.628
64733W        W24236  43.935  35.995  11.584
64734W        W24237  37.563   6.757  10.423
64735W        W24238  15.705  24.517  13.369
64736W        W24239  39.870   8.798   2.257
64737W        W24240   4.422  10.771   2.670
64738W        W24241   7.837  32.636   0.772
64739W        W24242  20.114   9.810  12.528
64740W        W24243  15.782  19.708  11.516
64741W        W24244   6.755  36.081   2.769
64742W        W24245  44.457  28.935   1.738
64743W        W24246   6.767  15.158  14.934
64744W        W24247   5.826   2.276  10.475
64745W        W24248  31.592  28.093  13.404
64746W        W24249  28.120  30.554  13.896
64747W        W24250  44.331   1.872  10.029
64748W        W24251  10.824  30.125   1.925
64749W        W24252  34.601  22.133   1.346
64750W        W24253  42.387  43.291   3.296
64751W        W24254   4.706   3.293   2.290
64752W        W24255  18.241   5.359  14.010
64753W        W24256  18.098  44.500  12.453
64754W        W24257  33.068  40.530   4.135
64755W        W24258  10.219  44.925   2.760
64756W        W24259  30.492  42.302  12.537
64757W        W24260   0.264  34.529   2.661
64758W        W24261  34.970  33.887   3.724
64759W        W24262  19.260  29.425   4.304
64760W        W24263  17.271  30.504  11.509
64761W        W24264   7.406  30.908  13.346
64762W        W24265  33.560   4.235   1.326
64763W        W24266  35.545  34.611  13.310
64764W        W24267  14.780   0.832   1.896
64765W        W24268  16.665  38.431  14.949
64766W        W24269   4.882  36.971   4.237
64767W        W24270  30.627  34.576  13.022
64768W        W24271  32.034  37.549  14.892
64769W        W24272  18.064   0.326   0.249
64770W        W24273  20.030  32.629   4.644
64771W        W24274   6.748  10.286  14.895
64772W        W24275   0.952  35.515   4.787
64773W        W24276  16.270  35.956   0.319
64774W        W24277   8.229  15.595   1.815
64775W        W24278   1.733   8.276   3.285
64776W        W24279  29.928  38.876   2.831
64777W        W24280  28.470   4.762  13.367
64778W        W24281   8.194   3.293   3.284
64779W        W24282  30.432  29.466  13.054
64780W        W24283  39.039  26.555   4.262
64781W        W24284   6.344  14.653   9.467
64782W        W24285  18.606  31.621  14.371
64783W        W24286  28.676   5.325   4.637
64784W        W24287  27.555  31.647   1.257
64785W        W24288  18.177  19.630  10.948
64786W        W24289  25.561  35.408  11.471
64787W        W24290  43.941  27.020   2.394
64788W        W24291   5.914  26.462  11.867
64789W        W24292   6.843  13.758  14.495
64790W        W24293  25.634  15.591  10.939
64791W        W24294  35.447  32.588  13.464
64792W        W24295  30.602  31.632   4.725
64793W        W24296  44.921  17.214  13.487
64794W        W24297  18.619   4.439   0.923
64795W        W24298   5.424  44.363  13.400
64796W        W24299  17.065  25.975   0.378
64797W        W24300  10.347  43.278   3.217
64798W        W24301  11.274  17.674  14.309
64799W        W24302   0.302  13.804   0.274
64800W        W24303   3.781  44.333   5.625
64801W        W24304  16.269  21.180  13.425
64802W        W24305  20.082  28.147   5.081
64803W        W24306  44.359   0.750   5.277
64804W        W24307  27.679  30.519  11.861
64805W        W24308  37.346  41.970  11.588
64806W        W24309  24.997  37.956  10.888
64807W        W24310  20.680  34.562  13.993
64808W        W24311  43.330  21.592  11.971
64809W        W24312  23.137  42.514   3.632
64810W        W24313  32.025  37.562  10.120
64811W        W24314   6.335  42.820   1.853
64812W        W24315  44.422  43.950   2.188
64813W        W24316  32.449   6.898   2.900
64814W        W24317   3.308  12.649  10.018
64815W        W24318  34.454  30.526   3.172
64816W        W24319  38.486  38.529  11.374
64817W        W24320  40.331  14.318   5.264
64818W        W24321  18.638  43.308  10.554
64819W        W24322  33.540  38.470  11.560
64820W        W24323  27.083  20.541   1.854
64821W        W24324  13.773  16.656   2.853
64822W        W24325  18.633   1.328   0.936
64823W        W24326  11.195  40.898  12.406
64824W        W24327  15.139  24.205   3.738
64825W        W24328  20.604  19.188  13.344
64826W        W24329  17.108  25.210   2.254
64827W        W24330  37.353  43.465   1.400
64828W        W24331  43.987   7.362   1.698
64829W        W24332  22.694  23.991  10.425
64830W        W24333  42.884  17.082   0.893
64831W        W24334  44.419  25.522   1.336
64832W        W24335   0.395  42.828   9.953
64833W        W24336  36.949  39.396  13.444
64834W        W24337  42.906   8.781   0.858
64835W        W24338   4.341  14.255  13.528
64836W        W24339  38.427  18.673  11.455
64837W        W24340  12.846  10.769   1.401
64838W        W24341  20.678  15.593   1.738
64839W        W24342  31.585  36.570  11.433
64840W        W24343  35.058   2.925   4.249
64841W        W24344  26.070   2.946  11.457
64842W        W24345   5.878   2.458  14.466
64843W        W24346  24.092  37.524  10.057
64844W        W24347  21.686  35.588  11.459
64845W        W24348  35.361  21.744  12.480
64846W        W24349   3.372  11.230  14.359
64847W        W24350  11.166  40.432  14.830
64848W        W24351  38.480  24.568  11.858
64849W        W24352  41.428  40.513   2.818
64850W        W24353  10.646  35.879  12.470
64851W        W24354  27.492  23.236  10.510
64852W        W24355   2.250  19.592  14.871
64853W        W24356  37.897  20.172  11.430
64854W        W24357  31.531  11.671  11.580
64855W        W24358   4.326  17.105   3.640
64856W        W24359  28.153   5.413   9.995
64857W        W24360  42.281   5.804   1.405
64858W        W24361  19.650  18.676   2.302
64859W        W24362   9.832  27.583  12.372
64860W        W24363  15.711  44.903  14.431
64861W        W24364  34.374  33.433   4.240
64862W        W24365  21.626  39.946  13.431
64863W        W24366  13.614  38.842  14.779
64864W        W24367  35.070  13.697   0.813
64865W        W24368  26.582  28.015   4.685
64866W        W24369  12.174   7.805   2.695
64867W        W24370  12.612  23.576   3.866
64868W        W24371  30.463   8.854  13.541
64869W        W24372  25.591  41.456  13.001
64870W        W24373   4.268   3.294  14.405
64871W        W24374  41.484  14.326  13.844
64872W        W24375  31.101  18.111   1.901
64873W        W24376  37.548   5.359   1.451
64874W        W24377  28.070  41.490  13.004
64875W        W24378  42.410   7.735  14.323
64876W        W24379  23.541  12.181   3.336
64877W        W24380  13.706  32.102  12.853
64878W        W24381  19.205  42.379   1.762
64879W        W24382  32.592  43.898  13.391
64880W        W24383   0.399  26.960   0.761
64881W        W24384  19.284   1.392  10.555
64882W        W24385   7.411  44.821   0.475
64883W        W24386  10.855  14.771  12.540
64884W        W24387  39.842  19.063  10.623
64885W        W24388  22.234  25.651  13.493
64886W        W24389   1.855  19.229  10.085
64887W        W24390  41.887  35.524   1.426
64888W        W24391  25.683  23.007   0.278
64889W        W24392  36.487  43.473   3.679
64890W        W24393  27.584  39.393  14.403
64891W        W24394  33.526   9.165  13.999
64892W        W24395   6.867  18.651   0.445
64893W        W24396   1.318  44.885  11.566
64894W        W24397  31.101   7.403   4.601
64895W        W24398  44.497  20.769   5.748
64896W        W24399  25.499   1.847  10.435
64897W        W24400  18.607  11.639   0.253
64898W        W24401   2.314   6.841   1.816
64899W        W24402  22.055   2.300   4.127
64900W        W24403  27.637  38.830   4.667
64901W        W24404  22.510   7.906   1.340
64902W        W24405  16.746  23.035  11.051
64903W        W24406  30.055  38.852   0.281
64904W        W24407  33.414   3.860   3.850
64905W        W24408   2.417  31.458   2.718
64906W        W24409  37.040  11.337  11.560
64907W        W24410  25.625   3.887   4.157
64908W        W24411  22.562   6.222   2.279
64909W        W24412  30.466  43.286  12.827
64910W        W24413  31.513  33.547  13.455
64911W        W24414  13.602  20.603  14.801
64912W        W24415  23.578  35.028  12.446
64913W        W24416  29.142  29.491   1.847
64914W        W24417  22.021  44.893   2.743
64915W        W24418  37.558  40.828   4.239
64916W        W24419   9.300  38.991   1.842
64917W        W24420  30.457  24.184  11.900
64918W        W24421  16.743  16.295   0.865
64919W        W24422   8.372  44.801   1.314
64920W        W24423   9.269  23.084   3.732
64921W        W24424  41.987   2.265   1.223
64922W        W24425   6.895  44.770   1.740
64923W        W24426   8.709  28.934   4.129
64924W        W24427   1.881  10.334  12.367
64925W        W24428  43.011  14.337   0.747
64926W        W24429  36.870  31.928  11.946
64927W        W24430  44.356  41.999  10.590
64928W        W24431   5.382  13.260  12.454
64929W        W24432  11.136  25.494   4.678
64930W        W24433  37.068  21.092  11.858
64931W        W24434  44.295  23.086   2.398
64932W        W24435   9.285   1.746  10.483
64933W        W24436  44.984  42.974  12.858
64934W        W24437  42.428  13.621  11.585
64935W        W24438  20.688  32.950   0.946
64936W        W24439  20.126   3.850   4.668
64937W        W24440  35.574  20.028  10.975
64938W        W24441  22.728  15.618  10.896
64939W        W24442  17.589  10.701  14.359
64940W        W24443  33.949  12.314   4.625
64941W        W24444   9.311  29.649   4.766
64942W        W24445  17.194  29.577   1.372
64943W        W24446  29.163  17.616   4.244
64944W        W24447  26.633  16.178  11.601
64945W        W24448   2.859   7.671  12.491
64946W        W24449  25.145  19.662   2.712
64947W        W24450  39.432  30.547  14.910
64948W        W24451  17.235  35.921   1.860
64949W        W24452  23.541  28.960   1.849
64950W        W24453  34.059   3.399   1.707
64951W        W24454  17.141   0.783  10.633
64952W        W24455  12.847  37.392   5.240
64953W        W24456  22.058  30.426  11.062
64954W        W24457  20.590  14.255  13.512
64955W        W24458  35.595  24.668  12.970
64956W        W24459  20.148  27.167  10.998
64957W        W24460  17.110  43.792   0.478
64958W        W24461  14.161  43.915   0.792
64959W        W24462  33.066  36.377   0.465
64960W        W24463  23.694  10.209   5.205
64961W        W24464  42.460  24.672   0.871
64962W        W24465  26.165  33.566  10.084
64963W        W24466  16.657  15.664  13.430
64964W        W24467  44.437  39.870   1.790
64965W        W24468  43.897  24.212  12.572
64966W        W24469  14.607  30.950  11.917
64967W        W24470  38.956   6.716  13.991
64968W        W24471  32.405  13.797   2.196
64969W        W24472  40.051  41.937   1.795
64970W        W24473   8.803  14.281   2.789
64971W        W24474  35.063  18.572  10.566
64972W        W24475  39.981  21.239   3.638
64973W        W24476   7.272  10.141   3.376
64974W        W24477   8.353  23.041   0.948
64975W        W24478  29.994  26.683  11.882
64976W        W24479  30.969  20.224   4.344
64977W        W24480  20.758  31.501  13.328
64978W        W24481  34.450   8.400   1.390
64979W        W24482  20.051  12.283   3.153
64980W        W24483  37.939  29.600  14.909
64981W        W24484  15.298   0.756   1.713
64982W        W24485  15.774  19.728  14.803
64983W        W24486   6.409  39.912  11.959
64984W        W24487  13.657  11.281  12.515
64985W        W24488  21.151  16.238   3.232
64986W        W24489  13.802  24.544  10.555
64987W        W24490  20.757  34.924   1.812
64988W        W24491  25.520  22.079  12.829
64989W        W24492  36.977  17.730   1.364
64990W        W24493  21.557  42.505  14.422
64991W        W24494   5.193  32.583   1.710
64992W        W24495  25.581  43.348   3.674
64993W        W24496  10.203  27.086  11.430
64994W        W24497  11.197  19.724  14.985
64995W        W24498  23.560  42.896  11.440
64996W        W24499   5.847  35.031  13.970
64997W        W24500  16.654  35.359   3.656
64998W        W24501  13.188  19.768  10.486
64999W        W24502  43.903  39.978  11.589
65000W        W24503  22.060  23.527  11.603
65001W        W24504   2.337   0.789   0.388
65002W        W24505  13.697  12.613  11.575
65003W        W24506   1.336  34.546   4.754
65004W        W24507  15.287  10.822   1.367
65005W        W24508  10.752  25.616   0.448
65006W        W24509  13.780  38.524   2.234
65007W        W24510  30.935   4.744  14.790
65008W        W24511  11.638  11.307  13.042
65009W        W24512   3.833  16.205  12.479
65010W        W24513  25.210   8.232   1.323
65011W        W24514  13.719  34.555   0.297
65012W        W24515  10.140  26.680  14.901
65013W        W24516  40.508  14.136  13.354
65014W        W24517   5.365  11.315  14.401
65015W        W24518  14.317  18.160  10.064
65016W        W24519  10.264  22.183  12.049
65017W        W24520  22.117  16.160  11.102
65018W        W24521  21.245  40.406  10.601
65019W        W24522  21.588  41.958   4.810
65020W        W24523  21.188  31.545   1.751
65021W        W24524  11.168  28.166  11.947
65022W        W24525  43.808  31.645   2.188
65023W        W24526  21.580   1.953   4.282
65024W        W24527  41.938   8.706  11.954
65025W        W24528   8.790   5.434   2.242
65026W        W24529  34.978  42.782  12.524
65027W        W24530  16.102  33.909  11.611
65028W        W24531  23.072  33.894   2.843
65029W        W24532   8.756  13.153  12.552
65030W        W24533  26.489  40.449  10.542
65031W        W24534  30.925  41.356  11.510
65032W        W24535   2.895  16.231   1.270
65033W        W24536  22.183  36.909  14.470
65034W        W24537  31.072   2.448   4.635
65035W        W24538  38.911  28.515  14.297
65036W        W24539  28.944  18.684   1.321
65037W        W24540  42.316   6.337   0.957
65038W        W24541  30.075  28.099   0.395
65039W        W24542  34.917  19.550   3.699
65040W        W24543  37.411  42.819  11.870
65041W        W24544  12.695   3.417   4.159
65042W        W24545  43.329  40.987  10.440
65043W        W24546   1.391  22.508  13.869
65044W        W24547  33.406  10.317   4.722
65045W        W24548   2.938  30.546  14.870
65046W        W24549  28.988  24.107  13.377
65047W        W24550  13.818   6.804   0.483
65048W        W24551  32.517  34.888  11.458
65049W        W24552  41.897  10.841   1.738
65050W        W24553  24.137  43.406  10.472
65051W        W24554   4.898   2.446   1.933
65052W        W24555  13.156  24.617  13.315
65053W        W24556  30.054  42.890   2.195
65054W        W24557  16.191  43.387  10.562
65055W        W24558  19.559  17.775   3.732
65056W        W24559  12.819  35.050   1.370
65057W        W24560  29.174  15.643   1.443
65058W        W24561   1.925  29.501   2.796
65059W        W24562  10.879  12.288  10.546
65060W        W24563  13.304  20.039   2.367
65061W        W24564  35.435  26.058  11.471
65062W        W24565   3.912  25.024   2.214
65063W        W24566  15.226  21.652  11.475
65064W        W24567  22.592   3.308  14.358
65065W        W24568  38.996  36.371   3.850
65066W        W24569  33.893  10.286   1.228
65067W        W24570   8.200  32.553   1.217
65068W        W24571  37.424  26.979  10.473
65069W        W24572  37.406  15.261  12.436
65070W        W24573  32.467   2.290   1.879
65071W        W24574   5.325   3.241  10.025
65072W        W24575  41.039  16.240  13.897
65073W        W24576  35.398   8.883  13.024
65074W        W24577  39.811   3.729   0.338
65075W        W24578  32.014  28.577  14.898
65076W        W24579  19.242  33.124  12.059
65077W        W24580   8.821  39.816  14.358
65078W        W24581  43.909  44.854   2.734
65079W        W24582  13.625  13.691  10.570
65080W        W24583  13.132  22.042  12.437
65081W        W24584   3.743  18.611   3.358
65082W        W24585  43.514  44.499   2.867
65083W        W24586   2.817  34.009  12.364
65084W        W24587  37.031   8.397   3.856
65085W        W24588  30.583  19.246   3.787
65086W        W24589  38.894   3.215   4.652
65087W        W24590  23.589   9.782  11.907
65088W        W24591   8.733  18.056  12.375
65089W        W24592  36.530  34.082  14.777
65090W        W24593  41.409  28.662   4.748
65091W        W24594  15.235   9.651  10.487
65092W        W24595   1.888   4.211  11.407
65093W        W24596  10.341  31.967   4.735
65094W        W24597  17.681  21.690  14.360
65095W        W24598  16.264  20.647   0.946
65096W        W24599  27.532   1.252   2.318
65097W        W24600  13.834  40.302  10.476
65098W        W24601   0.779  34.586  14.870
65099W        W24602   8.269  13.113   4.278
65100W        W24603   7.243  10.156   1.220
65101W        W24604  11.693  42.788   1.745
65102W        W24605  37.971  41.952  13.849
65103W        W24606  15.794   5.734  10.036
65104W        W24607  25.534  34.877   1.753
65105W        W24608   0.360  25.163  11.938
65106W        W24609  22.638  38.342   4.786
65107W        W24610  15.116   8.844   2.412
65108W        W24611   7.877   3.887   3.346
65109W        W24612  35.556  40.444   3.797
65110W        W24613  30.600  20.555  13.852
65111W        W24614  35.461  36.011  10.476
65112W        W24615  36.894  44.401   3.231
65113W        W24616  19.050  14.119   2.250
65114W        W24617  37.445  23.142   0.793
65115W        W24618  35.365  18.628  10.407
65116W        W24619   8.266  24.616   4.330
65117W        W24620   1.905  17.558  13.804
65118W        W24621  25.209  13.126   2.257
65119W        W24622  32.017  33.923  12.444
65120W        W24623  20.650  31.425   3.801
65121W        W24624  30.596  39.424   0.966
65122W        W24625  44.929   0.317  11.884
65123W        W24626  28.483  13.689   9.627
65124W        W24627  11.628  39.064  14.501
65125W        W24628  15.698  43.333   1.260
65126W        W24629  16.734  29.469  13.005
65127W        W24630  29.933   3.914   1.242
65128W        W24631  18.114  15.307   2.178
65129W        W24632   4.748  32.045   5.266
65130W        W24633  26.102  40.908  14.357
65131W        W24634   4.725  37.475  10.588
65132W        W24635   6.705  41.883   0.932
65133W        W24636   3.910  36.038   2.670
65134W        W24637  10.633  32.962  13.388
65135W        W24638  20.689  14.249   4.123
65136W        W24639   8.701  43.929   0.301
65137W        W24640  23.065  32.046  13.944
65138W        W24641   2.752   1.888   4.836
65139W        W24642  42.462  36.991  11.512
65140W        W24643   1.318  25.974   2.311
65141W        W24644  34.083  13.686   1.259
65142W        W24645   2.952   0.820   5.155
65143W        W24646  39.362  27.599   3.841
65144W        W24647   0.271   1.782  14.872
65145W        W24648   6.812  41.537  14.326
65146W        W24649  33.599  31.053   4.834
65147W        W24650  27.163  42.776   0.350
65148W        W24651  42.287  18.288   4.300
65149W        W24652   4.934   8.726   4.318
65150W        W24653  25.203  33.382   2.771
65151W        W24654  31.991   8.703  13.325
65152W        W24655   1.879  43.435   2.860
65153W        W24656  25.518  32.018  11.047
65154W        W24657  15.216   9.652  12.849
65155W        W24658  14.696  40.052   1.364
65156W        W24659  13.141  20.728  10.987
65157W        W24660   0.972  41.352  12.035
65158W        W24661  28.645  24.100  11.992
65159W        W24662  25.691   5.287  14.767
65160W        W24663  44.763  33.120   4.327
65161W        W24664   0.748  27.057  12.923
65162W        W24665   2.451  43.767  14.438
65163W        W24666  19.777  30.059  11.067
65164W        W24667  43.794  35.370  10.504
65165W        W24668  18.159  15.251   1.789
65166W        W24669   5.883  35.948  13.404
65167W        W24670  18.666   9.384  14.290
65168W        W24671  44.403  40.413  13.994
65169W        W24672  18.053  15.306   3.290
65170W        W24673  22.213  27.181   4.283
65171W        W24674  14.287  19.157  14.861
65172W        W24675  16.269  35.854  12.996
65173W        W24676  27.556  26.958   0.818
65174W        W24677   9.821   1.831  14.483
65175W        W24678  31.436  29.115   5.211
65176W        W24679  10.216  36.437  11.001
65177W        W24680  33.945  17.286  10.110
65178W        W24681  19.761  27.574   3.211
65179W        W24682  28.476  37.375  13.405
65180W        W24683   6.905   0.400  10.418
65181W        W24684  11.852  31.417   1.302
65182W        W24685  41.988   8.268  13.829
65183W        W24686  32.908  39.395   3.301
65184W        W24687  43.769  34.995  10.590
65185W        W24688  38.003  14.314   3.745
65186W        W24689  35.602  38.885   0.437
65187W        W24690  33.449   0.314   4.803
65188W        W24691  31.121  40.009   3.703
65189W        W24692  36.398  14.772   4.249
65190W        W24693   7.282  13.295   2.694
65191W        W24694  23.110  32.636  10.449
65192W        W24695  44.823  10.684  13.978
65193W        W24696   1.776   2.850   4.239
65194W        W24697   4.706  30.957   2.232
65195W        W24698  22.686   3.724   4.170
65196W        W24699   1.281  44.359   1.262
65197W        W24700  36.898   0.815  14.879
65198W        W24701   9.213  11.856   4.288
65199W        W24702  24.597  12.677  14.988
65200W        W24703  32.984  13.746   3.220
65201W        W24704  13.616   8.338  11.111
65202W        W24705  43.322  26.467   1.291
65203W        W24706  10.701  39.992   3.747
65204W        W24707  38.530  39.884   2.783
65205W        W24708  11.854   6.392  14.487
65206W        W24709  31.474  16.255  11.447
65207W        W24710   8.216  11.734   1.742
65208W        W24711  42.359   3.908  14.289
65209W        W24712  31.469  30.104   0.734
65210W        W24713   9.795  41.903   1.929
65211W        W24714  41.852  14.673   4.681
65212W        W24715  23.703  38.413  13.326
65213W        W24716   3.839  43.852   0.946
65214W        W24717  36.061  32.025   1.300
65215W        W24718  28.447  39.937  14.442
65216W        W24719  42.519  43.960  14.783
65217W        W24720  30.584  38.892   3.686
65218W        W24721  17.593  12.734  14.477
65219W        W24722  17.621  27.093   2.191
65220W        W24723  29.495  28.983   3.700
65221W        W24724  40.547  40.325  10.505
65222W        W24725  22.694  25.081  10.008
65223W        W24726  20.612  21.189  13.975
65224W        W24727  33.433  41.029  10.633
65225W        W24728  20.736  23.610   2.695
65226W        W24729  37.349   0.351   1.895
65227W        W24730   8.272  31.084  13.844
65228W        W24731  26.186  20.052   2.767
65229W        W24732  10.749  32.073  13.834
65230W        W24733  43.778  44.922   2.311
65231W        W24734   9.794  41.976  11.580
65232W        W24735   9.660  44.303  13.815
65233W        W24736  11.192  21.085  12.997
65234W        W24737  30.936   9.308   4.831
65235W        W24738  38.439   0.862  14.275
65236W        W24739  12.769  21.724   3.742
65237W        W24740  38.463  41.337  13.522
65238W        W24741  16.798  27.555   2.407
65239W        W24742   4.926  25.518   1.756
65240W        W24743  13.224  34.492   3.687
65241W        W24744   1.247  18.664   1.795
65242W        W24745   0.322   5.865  10.610
65243W        W24746  21.181  27.559   1.908
65244W        W24747  20.557   7.724   1.379
65245W        W24748  37.423  15.320   4.691
65246W        W24749  41.353  16.772  11.091
65247W        W24750  32.527  22.023   1.352
65248W        W24751   8.708  19.227   0.336
65249W        W24752   1.821  11.699   1.217
65250W        W24753  16.590   6.738  12.530
65251W        W24754   7.701  36.004   3.176
65252W        W24755  33.042  28.603   2.734
65253W        W24756  20.072  38.023   3.366
65254W        W24757  44.369   9.837  13.842
65255W        W24758  10.857   6.847  14.436
65256W        W24759  27.445  26.675   0.389
65257W        W24760  17.702  28.490  12.999
65258W        W24761  41.978  35.979  11.935
65259W        W24762  33.951  25.087   3.700
65260W        W24763  43.296  32.422  14.824
65261W        W24764  30.545  16.584   3.224
65262W        W24765  27.542  29.059   2.306
65263W        W24766  27.195   2.950  11.919
65264W        W24767  31.508  30.623  11.943
65265W        W24768  11.832  31.575  10.597
65266W        W24769  29.924  30.593   1.305
65267W        W24770  15.235  27.079   0.329
65268W        W24771  35.373  42.288  12.547
65269W        W24772   3.409  43.286  12.954
65270W        W24773  17.116  43.783  13.019
65271W        W24774  37.451  17.181   4.169
65272W        W24775  44.909  11.806   3.229
65273W        W24776   0.447  24.992  14.877
65274W        W24777  23.548  28.000   2.780
65275W        W24778  24.495  44.855  11.475
65276W        W24779  35.048  44.964  14.903
65277W        W24780  43.809  10.240   4.634
65278W        W24781  20.164  28.514  12.524
65279W        W24782  38.905  14.833   3.729
65280W        W24783  30.090   8.808  13.442
65281W        W24784  20.643  17.116  11.482
65282W        W24785  36.401  16.755  14.445
65283W        W24786  14.207  26.671   3.387
65284W        W24787   2.296  38.070  10.924
65285W        W24788  13.688   3.910  10.904
65286W        W24789  33.982   1.392   4.222
65287W        W24790  34.371  21.163  11.878
65288W        W24791   9.203  22.027   1.407
65289W        W24792   8.717  35.357  12.012
65290W        W24793  37.491  27.557   4.655
65291W        W24794  37.984  34.044   1.350
65292W        W24795  20.568  35.966  13.956
65293W        W24796  42.980  34.890   1.386
65294W        W24797  27.449  19.203  11.894
65295W        W24798  13.122   7.731   4.140
65296W        W24799  18.556  36.991  13.524
65297W        W24800  22.735   8.160  12.546
65298W        W24801  24.207  38.470   0.831
65299W        W24802  34.864  11.720   4.806
65300W        W24803   4.268  17.776   4.320
65301W        W24804  28.618  11.270  11.029
65302W        W24805  27.563   9.735  12.576
65303W        W24806  13.302  28.527   3.858
65304W        W24807  14.265   7.377  12.053
65305W        W24808   7.313  32.064   1.316
65306W        W24809  39.023  29.523   1.219
65307W        W24810  10.272  44.841   4.648
65308W        W24811  39.377  11.181  10.433
65309W        W24812  36.593  18.550  11.949
65310W        W24813  17.736  10.349   4.663
65311W        W24814  43.389  41.306  13.518
65312W        W24815  30.039   7.839   0.798
65313W        W24816  19.596  43.495   2.728
65314W        W24817  35.003  30.162   2.259
65315W        W24818   4.373  44.304  13.948
65316W        W24819  43.817   4.286  12.527
65317W        W24820  35.392  14.201   3.676
65318W        W24821   5.285  18.770   3.854
65319W        W24822   9.675  39.821   2.323
65320W        W24823  25.978  23.211   1.289
65321W        W24824   8.299  11.347  12.408
65322W        W24825  27.118  13.264   1.745
65323W        W24826   6.218  14.753  14.813
65324W        W24827   5.779   7.201   4.787
65325W        W24828   6.788  44.469  12.930
65326W        W24829  13.267  16.573   1.844
65327W        W24830  17.063  30.516  12.427
65328W        W24831  24.132  16.769   0.934
65329W        W24832   5.784  12.243   1.735
65330W        W24833  24.133  19.555   1.424
65331W        W24834  27.100  15.762  13.954
65332W        W24835  12.850  13.614  10.622
65333W        W24836  35.534  33.615   2.413
65334W        W24837  25.520  19.172   0.865
65335W        W24838   1.286  28.956   2.411
65336W        W24839   8.766  35.041   2.733
65337W        W24840   6.684  34.078  11.388
65338W        W24841  26.677  28.076   3.755
65339W        W24842  35.939   4.352  11.978
65340W        W24843  32.424  40.459   1.779
65341W        W24844   3.386   4.811  14.933
65342W        W24845  35.546   9.808  14.823
65343W        W24846  41.401  39.407   2.303
65344W        W24847  32.454  43.283   1.259
65345W        W24848  37.346   7.703   0.957
65346W        W24849  11.173   6.207  14.279
65347W        W24850  22.508  27.594   0.276
65348W        W24851  11.803  35.906  13.422
65349W        W24852  28.105  21.545  11.118
65350W        W24853  20.674  29.067   4.695
65351W        W24854  21.729  36.359   2.337
65352W        W24855  32.428  25.143  13.880
65353W        W24856  20.527   3.899   3.254
65354W        W24857   1.325  35.983  13.793
65355W        W24858  11.366  41.026   2.398
65356W        W24859   5.247  16.615   4.643
65357W        W24860  36.032  34.372   4.247
65358W        W24861  22.025  41.417  12.011
65359W        W24862  17.559  23.058   0.431
65360W        W24863   4.735  11.737  14.951
65361W        W24864   9.736  41.311   2.820
65362W        W24865  28.941  32.481  10.477
65363W        W24866   1.936  25.116  11.494
65364W        W24867   4.241  33.003   2.208
65365W        W24868  40.330  16.163  10.933
65366W        W24869   8.215  38.431  12.025
65367W        W24870  10.802  15.105  11.518
65368W        W24871   8.217   7.358   2.825
65369W        W24872   1.837  23.105  11.468
65370W        W24873  29.927  43.906   2.403
65371W        W24874  41.845  16.212  10.977
65372W        W24875  39.557  33.579   0.420
65373W        W24876  25.517   7.355  11.457
65374W        W24877  13.131  36.066   4.151
65375W        W24878  36.489  20.259  12.474
65376W        W24879  39.393  23.138  13.402
65377W        W24880  34.074  38.066   1.822
65378W        W24881  11.315   7.725  11.382
65379W        W24882  33.126  10.850   1.236
65380W        W24883  32.628  41.900   0.401
65381W        W24884  16.763  36.014   2.406
65382W        W24885  10.366  35.367  11.877
65383W        W24886  14.267  39.849   4.622
65384W        W24887  22.556  30.498  11.042
65385W        W24888   6.196  29.018   2.332
65386W        W24889  24.707   8.781   2.819
65387W        W24890  13.623  41.357  14.511
65388W        W24891   6.386  22.691   1.293
65389W        W24892  25.051  31.618   2.897
65390W        W24893  38.950  33.546   1.309
65391W        W24894  18.766  15.282  11.029
65392W        W24895   0.940  39.422   0.447
65393W        W24896  10.696  27.615  14.006
65394W        W24897  42.818  12.185   0.833
65395W        W24898  28.578  36.940  12.391
65396W        W24899  14.721  17.306   0.733
65397W        W24900  27.655  29.440   4.317
65398W        W24901  43.990   4.849  12.945
65399W        W24902  22.208  20.182  13.468
65400W        W24903  36.019  25.170  14.843
65401W        W24904  35.031  28.644   1.437
65402W        W24905  27.994  40.040  12.443
65403W        W24906  24.018  21.070   3.233
65404W        W24907  24.505  22.086   3.349
65405W        W24908  38.000   6.415  12.034
65406W        W24909   9.330  13.348  11.940
65407W        W24910  40.498  25.511  13.411
65408W        W24911  43.828  24.068   2.253
65409W        W24912  26.100  27.612  13.377
65410W        W24913  16.699  40.479  14.810
65411W        W24914  24.157   7.671  14.840
65412W        W24915  26.651   2.443  12.055
65413W        W24916  31.983  19.117   4.702
65414W        W24917  38.374  41.933   3.378
65415W        W24918  42.348  44.829  11.007
65416W        W24919   0.446  40.929   3.222
65417W        W24920  18.104  32.889   3.290
65418W        W24921  14.802  23.562   1.235
65419W        W24922  32.608  32.636   0.245
65420W        W24923  28.027  33.020   1.733
65421W        W24924  22.217  12.718   4.691
65422W        W24925   3.308  33.054   0.844
65423W        W24926   2.397  23.515   2.224
65424W        W24927  26.051  40.379  11.952
65425W        W24928  17.182  17.092  12.878
65426W        W24929  42.988  13.158   2.849
65427W        W24930   7.198   1.280  11.526
65428W        W24931   7.183  18.222  14.407
65429W        W24932  36.908  37.367  11.375
65430W        W24933  41.425  19.048  10.462
65431W        W24934  17.740  19.223  11.949
65432W        W24935  42.886  32.635   1.790
65433W        W24936  33.090  15.742  12.962
65434W        W24937  10.701  17.607  14.342
65435W        W24938  32.005   5.797   3.179
65436W        W24939  36.026  18.214   3.829
65437W        W24940  20.735  30.429   4.649
65438W        W24941  28.024  44.878   2.207
65439W        W24942   4.214   3.835  12.403
65440W        W24943  25.215   1.763   0.418
65441W        W24944  18.687  18.737  12.871
65442W        W24945  10.326  18.142   3.727
65443W        W24946  44.833  40.956   1.380
65444W        W24947  10.303  22.580  10.509
65445W        W24948   6.753  28.600  11.048
65446W        W24949  21.650  40.911  10.607
65447W        W24950  30.000  35.594  13.830
65448W        W24951  38.855  15.245  13.964
65449W        W24952  38.879   4.819  10.530
65450W        W24953  26.459  41.354   3.781
65451W        W24954  16.801  20.720  10.899
65452W        W24955  43.838  38.050  13.883
65453W        W24956   3.940  31.968   2.311
65454W        W24957   6.781   4.204   0.881
65455W        W24958  27.163  12.238  11.498
65456W        W24959  41.461  12.731  11.982
65457W        W24960   7.824   1.302   3.348
65458W        W24961  14.676  10.171   4.132
65459W        W24962  39.479  20.167   0.292
65460W        W24963  44.391  40.937  11.004
65461W        W24964  28.600  21.615  10.526
65462W        W24965   5.758   1.254   2.877
65463W        W24966  24.014  26.047  13.536
65464W        W24967  44.349  25.118  13.478
65465W        W24968  40.829  28.168  12.974
65466W        W24969  11.771   9.745  10.431
65467W        W24970   6.831  10.746  14.981
65468W        W24971  28.604  22.058   1.902
65469W        W24972  42.014  30.130  14.329
65470W        W24973  30.990  43.344   3.326
65471W        W24974  38.505  32.521   0.300
65472W        W24975  28.600  37.053   3.198
65473W        W24976  18.755  16.768   3.366
65474W        W24977  41.534  14.181   0.894
65475W        W24978  30.609  25.630   0.811
65476W        W24979   2.437  29.115  13.955
65477W        W24980   0.337   0.349  12.020
65478W        W24981   0.836  12.736  13.332
65479W        W24982  26.517   7.222   3.824
65480W        W24983  22.620  33.037   2.675
65481W        W24984  21.167  18.222  11.874
65482W        W24985  38.552  37.460  11.987
65483W        W24986  39.537  28.483   2.287
65484W        W24987  15.762  37.385  10.424
65485W        W24988  32.949   7.668   2.800
65486W        W24989  20.190  40.886  14.343
65487W        W24990  13.239  12.310  13.386
65488W        W24991   3.244   9.763   1.244
65489W        W24992   5.848  22.070   3.243
65490W        W24993  41.881  16.580   1.801
65491W        W24994   5.413   0.919  11.889
65492W        W24995  24.230  13.628   0.437
65493W        W24996   2.812  20.150  12.913
65494W        W24997   1.319  34.006   2.411
65495W        W24998   9.815   7.869   4.291
65496W        W24999  41.496  42.906   3.175
65497W        W25000   5.200   7.308  10.888
65498W        W25001  29.436   3.444   3.384
65499W        W25002   1.473   3.315  11.995
65500W        W25003   5.817  41.992  13.468
65501W        W25004   3.775  22.241  12.378
65502W        W25005  25.030  41.903  11.982
65503W        W25006  16.691  35.858  12.843
65504W        W25007   6.266   6.208  10.024
65505W        W25008   5.334  19.639   1.357
65506W        W25009  21.203  35.540   4.801
65507W        W25010  32.098   3.788  13.363
65508W        W25011   1.453   1.765  11.029
65509W        W25012  43.872  39.330   4.670
65510W        W25013  15.736  44.319   2.859
65511W        W25014  27.957   7.347  11.124
65512W        W25015  35.522  15.132  13.879
65513W        W25016  41.492  10.849  11.017
65514W        W25017   6.919   3.952  12.505
65515W        W25018  44.774  38.929   1.212
65516W        W25019   5.790  21.090  11.080
65517W        W25020  33.453  30.967   2.201
65518W        W25021   9.343  18.105  13.028
65519W        W25022  10.731  15.251   2.380
65520W        W25023  13.140  28.150   4.825
65521W        W25024  40.005   7.688  14.011
65522W        W25025  13.221  24.697  14.955
65523W        W25026  33.122  15.113   0.930
65524W        W25027  19.705  25.176  12.924
65525W        W25028  19.624   7.308  10.991
65526W        W25029   5.230  29.047  13.418
65527W        W25030   6.354  33.970  13.797
65528W        W25031  11.304  38.436  14.446
65529W        W25032  13.229   3.826  12.568
65530W        W25033  28.010   0.332  10.987
65531W        W25034  28.539  10.723  13.523
65532W        W25035  26.692   0.258   3.161
65533W        W25036  30.489  38.948   4.352
65534W        W25037  43.943  12.738  11.070
65535W        W25038  13.233   9.273  11.421
65536W        W25039  34.873   2.913   0.449
65537W        W25040  27.661  10.874  11.858
65538W        W25041   9.647   9.190   3.860
65539W        W25042  38.405  16.694  14.297
65540W        W25043  19.768   2.450  10.974
65541W        W25044  29.121  44.351   4.235
65542W        W25045  41.807  18.619   2.228
65543W        W25046  10.827  23.722   4.624
65544W        W25047  28.056  41.968   2.737
65545W        W25048  18.227  33.025  13.988
65546W        W25049  23.601  16.729   3.775
65547W        W25050  10.637  25.114   4.196
65548W        W25051  34.998   1.405   4.239
65549W        W25052  39.862   1.799  13.409
65550W        W25053   9.790  23.556  13.014
65551W        W25054   1.841  25.083   2.764
65552W        W25055  27.549  21.598  13.854
65553W        W25056   0.366  16.653   3.694
65554W        W25057  40.539   9.174   2.350
65555W        W25058  27.995  15.317   1.282
65556W        W25059  22.181  42.433  13.849
65557W        W25060  30.908  22.037  14.514
65558W        W25061  41.415  37.039  10.636
65559W        W25062   7.820  36.576   0.781
65560W        W25063  34.962  10.146   4.770
65561W        W25064   3.454  28.645   3.812
65562W        W25065   9.797  28.443  12.924
65563W        W25066   9.737  26.599   1.283
65564W        W25067  32.448   5.874  11.072
65565W        W25068  25.963  35.546  11.583
65566W        W25069  12.169   0.486  12.887
65567W        W25070  35.491  18.660   4.321
65568W        W25071  23.110  36.881  11.001
65569W        W25072  40.546  14.204   4.307
65570W        W25073  18.579   8.355  11.059
65571W        W25074   0.743  37.349  14.899
65572W        W25075  24.651  20.099  10.622
65573W        W25076  16.572  24.200   4.660
65574W        W25077  11.627   6.714  14.851
65575W        W25078  40.814  42.799  14.767
65576W        W25079  24.153   4.793  11.941
65577W        W25080  43.365  29.992   9.637
65578W        W25081  20.623  28.443   0.756
65579W        W25082  42.826  30.589  13.308
65580W        W25083  39.434  17.623  14.948
65581W        W25084  23.100  37.448   0.943
65582W        W25085   7.859  43.872   3.304
65583W        W25086   3.443  22.703   3.851
65584W        W25087   5.743  42.443  10.452
65585W        W25088  22.044  23.110   4.280
65586W        W25089  14.650  37.563  14.320
65587W        W25090   8.728  20.559   0.953
65588W        W25091   1.935  39.946  12.850
65589W        W25092  36.909  25.500   2.413
65590W        W25093   1.873  26.980   0.252
65591W        W25094  34.380  16.278   9.934
65592W        W25095  22.147  12.132   1.826
65593W        W25096  32.603   5.327   2.278
65594W        W25097   5.699  10.751   3.188
65595W        W25098   6.283  34.576  13.327
65596W        W25099   0.988  40.842  11.547
65597W        W25100  17.679  12.220   1.845
65598W        W25101  35.085  21.126  12.862
65599W        W25102  29.497   2.321  13.897
65600W        W25103   1.774  39.898  14.319
65601W        W25104  33.044  24.221   2.747
65602W        W25105  35.409  21.096   3.718
65603W        W25106  28.545   8.376   3.383
65604W        W25107  24.088  36.054  10.626
65605W        W25108  30.094   8.834  10.983
65606W        W25109  24.572  42.948   4.347
65607W        W25110  40.877  43.296   1.838
65608W        W25111  30.129  18.141   3.387
65609W        W25112   4.818  40.894  11.985
65610W        W25113  32.914  17.600   3.337
65611W        W25114   6.244  14.157   5.171
65612W        W25115  24.039  28.464  12.988
65613W        W25116   3.386  10.803  11.944
65614W        W25117  24.128  20.764   2.815
65615W        W25118  17.144  42.847   3.375
65616W        W25119  30.089  17.607  14.996
65617W        W25120   7.285  36.430   0.948
65618W        W25121  12.120   8.696  10.990
65619W        W25122  28.511  26.652   3.856
65620W        W25123  31.946   7.792   1.314
65621W        W25124  29.612  24.671   3.259
65622W        W25125  12.614  19.224   2.744
65623W        W25126  29.035  20.203   0.264
65624W        W25127  17.772  43.489  11.466
65625W        W25128  15.774   5.267  11.896
65626W        W25129  17.687  35.576  14.898
65627W        W25130   2.727  17.770   4.139
65628W        W25131  31.908  10.240   5.085
65629W        W25132  15.774  16.240  12.031
65630W        W25133  18.273   0.783  10.936
65631W        W25134  26.539  26.967  10.018
65632W        W25135  19.739  10.861   1.224
65633W        W25136   8.343  35.595  12.459
65634W        W25137  19.182  11.336  13.023
65635W        W25138   9.381  38.937  13.881
65636W        W25139  10.666  40.930   1.930
65637W        W25140  28.066  22.167  10.489
65638W        W25141  43.470   4.890   9.997
65639W        W25142  13.222   7.371  13.451
65640W        W25143  10.379  33.464   9.518
65641W        W25144   8.237  31.647  11.982
65642W        W25145  21.609  38.554  13.335
65643W        W25146   1.393  31.561   4.769
65644W        W25147   1.902  21.741   3.819
65645W        W25148  17.192  11.697   4.304
65646W        W25149   6.877  29.944   2.265
65647W        W25150  24.666  12.171  12.890
65648W        W25151  39.447  42.959  14.805
65649W        W25152  33.443  16.679   0.389
65650W        W25153  12.843  21.051   2.710
65651W        W25154  32.985  32.123  11.374
65652W        W25155   7.899  13.642  11.949
65653W        W25156  23.718  37.999   2.307
65654W        W25157   4.893  10.170  10.000
65655W        W25158  28.596  16.797   1.407
65656W        W25159  16.301  18.651  12.359
65657W        W25160  33.038   3.395   3.381
65658W        W25161  41.022  13.617  11.592
65659W        W25162   3.786  38.015   3.766
65660W        W25163   9.197  30.959   3.341
65661W        W25164  21.696  27.470   0.965
65662W        W25165   8.756  44.389  11.884
65663W        W25166  22.597  15.284   3.367
65664W        W25167   5.778  16.174   4.747
65665W        W25168  14.673  33.580   4.710
65666W        W25169  31.059  31.429  10.094
65667W        W25170  38.878   9.858   4.323
65668W        W25171  33.113  38.931   2.825
65669W        W25172  14.716  17.624   3.658
65670W        W25173  36.421  11.191  11.402
65671W        W25174   4.386   2.838  14.814
65672W        W25175  37.894  11.187  10.483
65673W        W25176  16.206  23.992  14.475
65674W        W25177  21.117  29.560   5.147
65675W        W25178  15.086  36.546  12.902
65676W        W25179  10.831   9.777   4.174
65677W        W25180  17.664  40.012   2.884
65678W        W25181  14.219   9.768   0.416
65679W        W25182  18.631  16.722  14.766
65680W        W25183  36.357  12.782  12.013
65681W        W25184  36.492  24.224  13.833
65682W        W25185   9.678  12.218  14.774
65683W        W25186  31.466  44.980   3.155
65684W        W25187  18.713  27.481   4.766
65685W        W25188   0.407  43.899  13.443
65686W        W25189  36.370  35.954   5.267
65687W        W25190  24.225  24.516   1.430
65688W        W25191  20.688   9.246   3.206
65689W        W25192  12.308   4.808   1.889
65690W        W25193  35.860  20.034  13.927
65691W        W25194  34.915  13.795   2.288
65692W        W25195  39.965  23.563   1.735
65693W        W25196  15.083   1.474   4.273
65694W        W25197  15.643  38.018   0.448
65695W        W25198  31.544  34.946  14.431
65696W        W25199  28.967  11.708  12.064
65697W        W25200  21.086  21.619   0.330
65698W        W25201  16.094   2.365   3.326
65699W        W25202  23.555  25.690   2.274
65700W        W25203  10.869  16.676   0.808
65701W        W25204  38.941   4.211   2.225
65702W        W25205  15.822   5.369   2.749
65703W        W25206  43.364   3.949   2.369
65704W        W25207  16.178   1.448  12.989
65705W        W25208  38.478  25.687  12.377
65706W        W25209  41.909  31.910   4.304
65707W        W25210   1.865  40.937  13.004
65708W        W25211  11.775  35.527  13.867
65709W        W25212   1.771  26.140   1.325
65710W        W25213  23.527  26.563   1.754
65711W        W25214  43.870  31.992  12.978
65712W        W25215  23.138  34.893   0.759
65713W        W25216  10.705  27.634  11.889
65714W        W25217  28.122  18.696  12.955
65715W        W25218  32.576   9.277  12.491
65716W        W25219  27.026  39.014  12.551
65717W        W25220   7.239  37.410  13.519
65718W        W25221  11.247   1.474   0.786
65719W        W25222  42.785  16.716  10.556
65720W        W25223  39.891  30.554  10.943
65721W        W25224  30.467   2.831   3.339
65722W        W25225  43.021  22.549   0.365
65723W        W25226  22.056  40.803  11.389
65724W        W25227  37.394   1.452  10.410
65725W        W25228  42.504  10.741  12.521
65726W        W25229  12.132  21.656   1.368
65727W        W25230   6.690   4.787  12.515
65728W        W25231  36.405  34.993  14.375
65729W        W25232  37.528  22.199   4.782
65730W        W25233  41.852  14.112   3.151
65731W        W25234   7.334  24.720   2.729
65732W        W25235  29.093  25.691  12.893
65733W        W25236  44.301  26.598  12.824
65734W        W25237  26.033  23.209  13.377
65735W        W25238  25.611   0.885   2.333
65736W        W25239  26.992   3.328   2.716
65737W        W25240   1.856   6.350  11.129
65738W        W25241   5.696  24.574   4.288
65739W        W25242  23.106  21.713   2.840
65740W        W25243  23.549  34.087  10.943
65741W        W25244  23.661   6.879  10.976
65742W        W25245  39.990  42.980  12.900
65743W        W25246   1.765  32.003   4.760
65744W        W25247  17.685  13.287   0.456
65745W        W25248  26.514  11.755   1.809
65746W        W25249  26.185  12.120   2.730
65747W        W25250  13.768  24.126   0.404
65748W        W25251  36.478  32.550   4.151
65749W        W25252  27.015  35.055  13.344
65750W        W25253  14.320  21.126   0.423
65751W        W25254  26.498  10.142   0.363
65752W        W25255  28.162  24.591   2.689
65753W        W25256  43.996  44.863  11.099
65754W        W25257  37.874   2.419   0.341
65755W        W25258  23.991   6.220  12.873
65756W        W25259   1.748  18.653   2.343
65757W        W25260  35.082  32.626  13.472
65758W        W25261  40.011  19.142   0.950
65759W        W25262  20.726  25.615  13.995
65760W        W25263  19.711  40.437   3.661
65761W        W25264  35.002  18.641   1.793
65762W        W25265  13.634  43.902  13.946
65763W        W25266  33.598   1.344  11.030
65764W        W25267   2.324  38.953   3.266
65765W        W25268  44.335  41.936   1.870
65766W        W25269   8.365  39.557   0.874
65767W        W25270  40.394   2.870  13.474
65768W        W25271   2.781  33.002   0.244
65769W        W25272  20.555  12.347   3.319
65770W        W25273   5.751  29.645   2.417
65771W        W25274  34.876   2.304   1.381
65772W        W25275  14.107  29.981  13.462
65773W        W25276  36.491  40.945  13.001
65774W        W25277  22.528  26.518   4.743
65775W        W25278  17.271  22.619  12.823
65776W        W25279  40.344   6.282  13.372
65777W        W25280  21.036  27.995   2.756
65778W        W25281   1.734  41.397  13.945
65779W        W25282  26.668   4.293  12.417
65780W        W25283  44.776  30.466   1.444
65781W        W25284   5.809  17.785  13.374
65782W        W25285  41.018  41.362  10.444
65783W        W25286   4.834  16.813   0.757
65784W        W25287  42.032  25.073   5.307
65785W        W25288  16.232  31.460  14.942
65786W        W25289  26.671  12.832   3.814
65787W        W25290  22.646  41.313   2.186
65788W        W25291   2.942  42.986  13.942
65789W        W25292  11.273  35.937   3.860
65790W        W25293   7.714  12.144   4.322
65791W        W25294   3.720  40.332  12.370
65792W        W25295  20.574  27.513   2.229
65793W        W25296   5.226  28.542   0.431
65794W        W25297   2.818  13.682   2.699
65795W        W25298  36.972  35.498  13.840
65796W        W25299   6.300   7.838  10.589
65797W        W25300  38.836  23.213  14.394
65798W        W25301  29.622  44.986   1.749
65799W        W25302  26.621  13.259  10.526
65800W        W25303  30.647  18.094  11.062
65801W        W25304   1.877  32.108   0.419
65802W        W25305  23.068  11.669   2.871
65803W        W25306  33.981  34.067   4.305
65804W        W25307  44.954  26.194  13.503
65805W        W25308   9.188  19.210   1.775
65806W        W25309  28.176   9.170   3.283
65807W        W25310  33.938  10.255   0.264
65808W        W25311   3.797  40.354  12.950
65809W        W25312   8.334  30.108   4.606
65810W        W25313   4.756  37.997   3.652
65811W        W25314  21.166  15.121   4.160
65812W        W25315  10.853   8.180   0.797
65813W        W25316  23.662  23.670   0.372
65814W        W25317  44.889   9.698  12.429
65815W        W25318  34.874  29.145   0.365
65816W        W25319  30.657  35.463  13.317
65817W        W25320   0.264  44.361   0.275
65818W        W25321  39.327   6.686  14.794
65819W        W25322  18.231  27.081  12.041
65820W        W25323  29.956  44.373   3.207
65821W        W25324  18.182  33.445  14.500
65822W        W25325  10.776  20.724  13.989
65823W        W25326  26.200  31.952   0.762
65824W        W25327   0.805  18.765   3.367
65825W        W25328   6.280  26.531   2.852
65826W        W25329  36.419  38.965   3.230
65827W        W25330  17.149  42.402   1.915
65828W        W25331  20.559  42.298  12.949
65829W        W25332  31.913  37.993   4.212
65830W        W25333  20.600  39.903   4.268
65831W        W25334  24.989  43.962  12.007
65832W        W25335  32.938  39.850   4.347
65833W        W25336  38.021  31.999   2.887
65834W        W25337   4.937   9.728   3.260
65835W        W25338   6.739  36.593   1.904
65836W        W25339   7.709  22.621  11.568
65837W        W25340  23.639  10.864   0.912
65838W        W25341  17.705  25.210  12.385
65839W        W25342  13.808  27.664   4.742
65840W        W25343   5.245   8.816  11.439
65841W        W25344  24.131  41.465   1.303
65842W        W25345  34.394  28.045  10.538
65843W        W25346  31.088  39.353   0.789
65844W        W25347  17.578  38.977  10.587
65845W        W25348  43.371  15.753   3.310
65846W        W25349   7.882  22.104  14.899
65847W        W25350  24.095  15.581  13.796
65848W        W25351  27.580  15.154  11.039
65849W        W25352  26.074   9.367  12.831
65850W        W25353  41.528  36.492   2.333
65851W        W25354  40.843   4.698   1.264
65852W        W25355  28.969  13.712  14.914
65853W        W25356  26.121  20.643  12.544
65854W        W25357  31.063   6.877  10.924
65855W        W25358  14.781  31.588  13.983
65856W        W25359  14.712  25.980   4.688
65857W        W25360  28.946  29.045  14.868
65858W        W25361  26.482   0.408  11.606
65859W        W25362  43.312   0.333   2.356
65860W        W25363  42.419  33.513  13.870
65861W        W25364  22.136  39.369  11.374
65862W        W25365   2.926  39.852  12.991
65863W        W25366   5.232  31.431   0.304
65864W        W25367  18.720   3.714  12.441
65865W        W25368  38.470  33.922  11.405
65866W        W25369  35.006  43.346   0.869
65867W        W25370  10.759  22.652  11.888
65868W        W25371   6.676  41.039   1.256
65869W        W25372  41.379   5.335   2.861
65870W        W25373  25.592  36.945  11.482
65871W        W25374  13.125  35.454  11.890
65872W        W25375   8.392  23.070  10.516
65873W        W25376   5.223  30.576  11.954
65874W        W25377  35.080   3.309  12.369
65875W        W25378  16.096  31.982  12.858
65876W        W25379   9.762   9.347   0.914
65877W        W25380  11.735   1.759   3.765
65878W        W25381  34.592  27.155  12.360
65879W        W25382   7.261  38.336   1.801
65880W        W25383  22.049  41.789  14.501
65881W        W25384  20.593  43.379   4.771
65882W        W25385  13.646  25.076  14.917
65883W        W25386  29.113  23.707   0.360
65884W        W25387  24.504  27.504   3.748
65885W        W25388  11.708  13.198  10.636
65886W        W25389  28.454  15.810  13.383
65887W        W25390  24.581  21.082   2.742
65888W        W25391  36.508  11.302  10.161
65889W        W25392  23.577  33.480   4.688
65890W        W25393  17.172  27.534  13.890
65891W        W25394  11.773   5.768   0.836
65892W        W25395  35.601  40.968  14.844
65893W        W25396   9.355  12.337   3.288
65894W        W25397   3.392  43.481  14.761
65895W        W25398  42.509  35.863   2.407
65896W        W25399  13.214  41.333   4.813
65897W        W25400  12.620  12.845  11.953
65898W        W25401   4.759  40.940  11.450
65899W        W25402  11.151   7.721   0.248
65900W        W25403  41.423  44.497   2.290
65901W        W25404   3.351   3.756  11.979
65902W        W25405  22.588  26.557   1.896
65903W        W25406  15.744   0.400   3.697
65904W        W25407  32.455  39.548  11.371
65905W        W25408  10.310  32.039   9.448
65906W        W25409  18.684  40.872   1.368
65907W        W25410  36.562  29.544  11.591
65908W        W25411   8.320  43.494   1.743
65909W        W25412   1.431   3.863   3.158
65910W        W25413  41.454  35.855   1.261
65911W        W25414  29.461  15.174  12.043
65912W        W25415  20.254  19.672  11.607
65913W        W25416   2.294  12.257  14.782
65914W        W25417  35.054  15.712  14.820
65915W        W25418  24.668   0.322   1.842
65916W        W25419   8.810  27.451  13.976
65917W        W25420  29.978  13.274   2.878
65918W        W25421  36.854  32.048  11.458
65919W        W25422  36.081  39.514   3.816
65920W        W25423  44.904  25.054   0.435
65921W        W25424  21.572   6.862   2.693
65922W        W25425  39.560  12.618   3.256
65923W        W25426  21.263   5.877  13.538
65924W        W25427  37.007  42.962   2.186
65925W        W25428  13.282  27.047  11.928
65926W        W25429   0.865  27.115   1.212
65927W        W25430  35.389  31.505  13.991
65928W        W25431   7.182  24.001  13.031
65929W        W25432  20.271  17.670   4.338
65930W        W25433  42.344   0.310   3.768
65931W        W25434  14.614  17.247  10.921
65932W        W25435  12.318  24.064  12.350
65933W        W25436  17.661  12.245  13.421
65934W        W25437  27.637  23.221  13.477
65935W        W25438  20.185   2.253  12.073
65936W        W25439  37.865  12.274   1.804
65937W        W25440  30.099  24.559  11.006
65938W        W25441  35.453  13.605  13.468
65939W        W25442  19.706  16.650  11.960
65940W        W25443  12.274  38.074   3.279
65941W        W25444  26.507  24.684   2.235
65942W        W25445  14.649  29.652  14.477
65943W        W25446  11.664  25.177   4.688
65944W        W25447  40.050  18.171   4.157
65945W        W25448   3.313  26.176  14.469
65946W        W25449   0.773  14.323  14.358
65947W        W25450  11.647  13.706  13.027
65948W        W25451   9.804  30.951   9.934
65949W        W25452  21.640  24.602   2.803
65950W        W25453  29.176  27.474  12.378
65951W        W25454   0.847  36.469   2.197
65952W        W25455   6.255   6.272  12.580
65953W        W25456   1.965  11.217  11.025
65954W        W25457  26.510  14.781  12.047
65955W        W25458  25.645  27.188   2.414
65956W        W25459  27.154  33.427  12.055
65957W        W25460  13.149  14.599   4.790
65958W        W25461  15.118  16.811  14.977
65959W        W25462  36.910   9.861   2.302
65960W        W25463   3.247   6.291   3.251
65961W        W25464  19.543   4.819   1.786
65962W        W25465  33.932  35.396  11.539
65963W        W25466  39.911  43.315   1.762
65964W        W25467  33.908   0.335  11.543
65965W        W25468   2.449   6.918  10.956
65966W        W25469   5.857  18.241   2.869
65967W        W25470  33.927  20.094  14.390
65968W        W25471  27.030  43.411  13.518
65969W        W25472  42.449  36.534  11.924
65970W        W25473  20.168   6.736  10.473
65971W        W25474  36.533  26.638   3.305
65972W        W25475  14.633  10.636   2.763
65973W        W25476  43.972  30.636   4.707
65974W        W25477  38.044  23.995   2.855
65975W        W25478   0.792  20.684   0.834
65976W        W25479  22.677  23.988   2.813
65977W        W25480  43.367   8.345  12.857
65978W        W25481  14.640  38.921   9.981
65979W        W25482  33.929  13.781  12.904
65980W        W25483  23.606  27.486   1.748
65981W        W25484  25.506  27.536  12.387
65982W        W25485  34.496  15.769   1.775
65983W        W25486  32.619  33.388   0.390
65984W        W25487   1.388  44.905  12.562
65985W        W25488  41.462  42.878   1.259
65986W        W25489   6.393   8.245  13.978
65987W        W25490  31.132   8.799   9.968
65988W        W25491  43.467   1.361  13.403
65989W        W25492  24.220  34.887  11.984
65990W        W25493  14.728  40.315   5.236
65991W        W25494  28.929  42.823  14.358
65992W        W25495  38.411  10.315   2.364
65993W        W25496   6.276  31.086   0.266
65994W        W25497  17.132  17.572   2.706
65995W        W25498  39.852  19.600   4.348
65996W        W25499  26.084  38.392  12.569
65997W        W25500  13.686  22.603   1.265
65998W        W25501   1.796  28.517  13.813
65999W        W25502   7.211  13.105  13.948
66000W        W25503   8.343  28.970   2.335
66001W        W25504   8.772   0.906   0.956
66002W        W25505  25.116   2.908  12.024
66003W        W25506  38.341  27.523   4.685
66004W        W25507  29.452   1.483   1.886
66005W        W25508  33.004  27.610   9.980
66006W        W25509  29.166   6.289  14.368
66007W        W25510  13.164  35.972  11.502
66008W        W25511  40.852  36.529   3.701
66009W        W25512   7.825  23.566  12.038
66010W        W25513  24.103  33.911  12.454
66011W        W25514  22.723   7.869   3.765
66012W        W25515   1.301  10.253   3.206
66013W        W25516  43.499   8.314   2.817
66014W        W25517   9.707   4.303  13.022
66015W        W25518  28.562  21.559   3.775
66016W        W25519   2.277  10.265  14.398
66017W        W25520   5.706  30.930   2.764
66018W        W25521  17.296  24.047   4.184
66019W        W25522  16.600  12.299  12.984
66020W        W25523   3.266   4.902   5.129
66021W        W25524  28.953   1.321  13.317
66022W        W25525  23.653   4.831   1.328
66023W        W25526  42.943   2.904   0.791
66024W        W25527  34.990  43.464  13.420
66025W        W25528  25.184  31.017   0.841
66026W        W25529  15.194   0.374   4.758
66027W        W25530  24.008  27.976   0.760
66028W        W25531  40.376   9.771  12.910
66029W        W25532  25.471  13.331  13.392
66030W        W25533  41.437  28.141  12.887
66031W        W25534  40.929   0.775   4.347
66032W        W25535  22.036   3.273   0.875
66033W        W25536   5.816   0.824  12.926
66034W        W25537  28.640  13.692  14.012
66035W        W25538  41.797  27.976   3.751
66036W        W25539  13.310  17.215   2.814
66037W        W25540  37.007  27.572   4.745
66038W        W25541  27.641  20.091   3.199
66039W        W25542   5.740  41.998  11.949
66040W        W25543   0.977  32.010  13.394
66041W        W25544  24.536  36.560  11.091
66042W        W25545   0.807  38.996  11.383
66043W        W25546   3.913  21.258  14.995
66044W        W25547  20.667  31.949  10.422
66045W        W25548  14.589   0.886   4.157
66046W        W25549  26.195  20.719  11.499
66047W        W25550  27.076  17.654   3.321
66048W        W25551  38.356  25.534  14.017
66049W        W25552  10.206  37.022   3.234
66050W        W25553  16.616  37.967  11.070
66051W        W25554   0.953  15.215  11.510
66052W        W25555  18.289  26.484  10.932
66053W        W25556  28.621   1.966  12.939
66054W        W25557   6.830  41.978  11.875
66055W        W25558  25.629   2.303  13.939
66056W        W25559  31.069  24.023   0.916
66057W        W25560  25.994  10.291   3.386
66058W        W25561   4.850   7.707   5.112
66059W        W25562  26.201  44.299   2.288
66060W        W25563  30.116  35.032  14.879
66061W        W25564  39.470   3.845  10.111
66062W        W25565   9.742  36.951   4.627
66063W        W25566   3.866   2.241  12.452
66064W        W25567  11.633  42.397  11.945
66065W        W25568  33.408  17.738   0.780
66066W        W25569  12.293  35.535   3.715
66067W        W25570  18.755  11.824   3.328
66068W        W25571   9.864  37.958  13.857
66069W        W25572  24.070  19.055   0.894
66070W        W25573   6.811  31.485   3.749
66071W        W25574  34.392  14.275   0.344
66072W        W25575  23.720   8.286  11.120
66073W        W25576  34.592  38.381  12.034
66074W        W25577  43.911  23.059   3.722
66075W        W25578   2.724  41.524   0.444
66076W        W25579  24.029  40.508  10.431
66077W        W25580  14.827   8.254   4.217
66078W        W25581  32.605   8.271  13.450
66079W        W25582  35.030   2.458  12.967
66080W        W25583  40.911   0.743  12.500
66081W        W25584  41.455  27.050   1.375
66082W        W25585  29.018  19.607   3.769
66083W        W25586  10.303  11.196   1.830
66084W        W25587  36.450  13.114   1.275
66085W        W25588  16.194  40.016   4.688
66086W        W25589  44.756   8.259   1.365
66087W        W25590  20.076   4.900   1.787
66088W        W25591  36.522  11.645   0.263
66089W        W25592   2.346   7.805  12.947
66090W        W25593  22.150   8.332   1.839
66091W        W25594   0.439   9.161  11.608
66092W        W25595  23.029   8.165   0.341
66093W        W25596  28.543  38.331   4.806
66094W        W25597   1.251  29.017  11.047
66095W        W25598  26.980  27.591   1.269
66096W        W25599  22.644  23.053  13.864
66097W        W25600  14.745  20.234   1.219
66098W        W25601   2.959  29.502   9.473
66099W        W25602   2.905  24.695  10.599
66100W        W25603  15.763  27.664  14.285
66101W        W25604  27.600  35.504  13.847
66102W        W25605  42.385   6.741  11.077
66103W        W25606  44.453  33.480  14.356
66104W        W25607   1.412  16.807  11.419
66105W        W25608  39.894   4.854   5.111
66106W        W25609  27.157  17.761  11.479
66107W        W25610  10.237  32.043  13.888
66108W        W25611  28.562   2.433  14.992
66109W        W25612   6.228  29.559   1.447
66110W        W25613  38.432  12.173  11.090
66111W        W25614  36.007  18.731  11.975
66112W        W25615  25.118   0.394   0.752
66113W        W25616  23.601  29.639   2.820
66114W        W25617  37.969  31.986   3.232
66115W        W25618  36.924  26.590   2.210
66116W        W25619  19.154  35.914  13.417
66117W        W25620  20.596  27.570  14.311
66118W        W25621   4.810   3.933  12.435
66119W        W25622  26.607  14.789   1.329
66120W        W25623  12.118  28.992   2.336
66121W        W25624  30.426  30.974  10.948
66122W        W25625  42.813  25.174  14.374
66123W        W25626  44.997  31.475   0.799
66124W        W25627  16.115  34.942  10.610
66125W        W25628  31.499   0.794   4.158
66126W        W25629  27.057  43.391   2.870
66127W        W25630  20.111  42.354  11.563
66128W        W25631  44.784   2.318   2.901
66129W        W25632  22.230  30.136   4.285
66130W        W25633  19.207  44.398  12.856
66131W        W25634  41.446  26.145   1.867
66132W        W25635  37.472  17.165  11.380
66133W        W25636  40.546  13.626   0.765
66134W        W25637   7.685  25.630  11.528
66135W        W25638   3.879  35.888   4.605
66136W        W25639  19.717  32.995   4.130
66137W        W25640  28.931  27.680  13.366
66138W        W25641  29.967   8.302  14.394
66139W        W25642  27.018  36.866   1.823
66140W        W25643  29.486  30.519   0.259
66141W        W25644  25.010  16.077  14.395
66142W        W25645  30.961  33.584   3.869
66143W        W25646  44.453  27.584   9.497
66144W        W25647  28.551  15.181   0.738
66145W        W25648  35.490  44.399  10.632
66146W        W25649  23.001   6.186   0.313
66147W        W25650  17.142   7.682  11.585
66148W        W25651  15.212  15.263  13.496
66149W        W25652   2.329   2.376  13.433
66150W        W25653  20.028  28.601  11.410
66151W        W25654  16.204   0.326   1.406
66152W        W25655   8.801  20.053   3.651
66153W        W25656  35.466   8.723   2.387
66154W        W25657  16.234  25.044   2.759
66155W        W25658  11.652  42.444  13.953
66156W        W25659  21.222   9.773   3.314
66157W        W25660   4.238   5.816  14.768
66158W        W25661  39.880  16.782   3.368
66159W        W25662   8.657  37.868   4.721
66160W        W25663  23.656   5.369  14.801
66161W        W25664  42.902  11.297   4.305
66162W        W25665  30.566  36.040   3.212
66163W        W25666  13.341  32.945   1.854
66164W        W25667  21.256  38.009  14.008
66165W        W25668  10.224  32.596   3.340
66166W        W25669   0.902  18.761  13.426
66167W        W25670  29.469   8.779   9.972
66168W        W25671  16.709   8.202  11.603
66169W        W25672  36.592   3.348  10.500
66170W        W25673  22.712   2.253  14.371
66171W        W25674  27.570  35.549  13.400
66172W        W25675  27.554  43.840  11.056
66173W        W25676  30.643  21.022  14.395
66174W        W25677  16.766  40.953  13.509
66175W        W25678   6.382  44.862   1.279
66176W        W25679   5.854  41.911  12.826
66177W        W25680   3.933  14.209  12.489
66178W        W25681  42.360  27.691   1.266
66179W        W25682  30.992  27.023   3.229
66180W        W25683  15.308  12.626   3.772
66181W        W25684   1.976  43.998   1.834
66182W        W25685  29.626  15.579   4.202
66183W        W25686   6.228  40.956   1.891
66184W        W25687  41.984  38.469  13.996
66185W        W25688   4.774   4.250   3.306
66186W        W25689  30.488  22.071  12.551
66187W        W25690  15.182  20.763   4.135
66188W        W25691  15.260   0.301  12.917
66189W        W25692   5.403  20.666  14.467
66190W        W25693  14.731  41.950  13.466
66191W        W25694  20.198  44.969   4.736
66192W        W25695  39.437  24.653   3.241
66193W        W25696  21.144   4.824   4.730
66194W        W25697  44.890   5.743   0.930
66195W        W25698  22.539   4.885  14.758
66196W        W25699  20.186  40.872   0.847
66197W        W25700   9.848  31.124  12.052
66198W        W25701  15.284   3.453   1.280
66199W        W25702   6.401  26.176  11.965
66200W        W25703  28.111  35.484  12.531
66201W        W25704   0.383  22.134   3.207
66202W        W25705   3.332  21.025  12.058
66203W        W25706  21.251  23.595   3.287
66204W        W25707   8.837  32.033   4.344
66205W        W25708  43.781  14.116  13.500
66206W        W25709  30.015  25.026  13.523
66207W        W25710  22.178  18.296  12.375
66208W        W25711  11.301  29.173  10.505
66209W        W25712  11.130  36.852  10.477
66210W        W25713  24.224   8.205   3.228
66211W        W25714   6.691   4.373   3.820
66212W        W25715  35.408  16.647   1.449
66213W        W25716  40.471  26.973   2.779
66214W        W25717  18.571  16.081  12.491
66215W        W25718  20.112   1.843  11.094
66216W        W25719   1.900  10.811  13.997
66217W        W25720  22.044   4.223   2.355
66218W        W25721  38.430   0.889  10.941
66219W        W25722  19.668  16.274  12.472
66220W        W25723  22.244  13.801  14.487
66221W        W25724   3.874  42.497   5.657
66222W        W25725  25.584  30.147  14.982
66223W        W25726  26.509   2.332  14.480
66224W        W25727  25.600   7.709  13.025
66225W        W25728   9.291  44.003   0.467
66226W        W25729  29.504  14.326   4.808
66227W        W25730   0.473  36.026   2.322
66228W        W25731  36.064  22.583   2.387
66229W        W25732  22.576  35.069   0.858
66230W        W25733  41.512  18.613   3.797
66231W        W25734  24.156  23.222   0.880
66232W        W25735  19.733  21.026   0.739
66233W        W25736  38.835  27.068  10.918
66234W        W25737  38.459  29.168  11.479
66235W        W25738  19.045  32.603  11.983
66236W        W25739  33.952   6.721   1.331
66237W        W25740   0.958  23.130   4.799
66238W        W25741   6.781   5.889  13.533
66239W        W25742  28.440  21.049   4.243
66240W        W25743  25.209   6.889   3.386
66241W        W25744   9.278   6.219  12.026
66242W        W25745  27.562  23.730  12.981
66243W        W25746  20.710   5.920   4.645
66244W        W25747   7.786  27.091  13.964
66245W        W25748  33.992  24.688  12.829
66246W        W25749  13.665   1.468   3.685
66247W        W25750  18.646   7.870   1.328
66248W        W25751   2.237  11.281  11.553
66249W        W25752  26.540  41.916   2.707
66250W        W25753  10.222  40.350  11.388
66251W        W25754  21.690  18.721   0.855
66252W        W25755  28.953  29.965   0.761
66253W        W25756  20.676  18.287   0.848
66254W        W25757  42.343  23.002   1.238
66255W        W25758   3.885   1.861  13.012
66256W        W25759  38.476  20.618   2.232
66257W        W25760  34.939  14.301  10.037
66258W        W25761   7.187  43.810   2.863
66259W        W25762  14.589  21.676   3.243
66260W        W25763  25.559  39.480  12.011
66261W        W25764  26.159   4.751  13.835
66262W        W25765  18.630   8.659   3.308
66263W        W25766  30.630  42.447   0.263
66264W        W25767   8.733  26.541   3.238
66265W        W25768   0.365  26.176   0.736
66266W        W25769   1.751  31.111   0.463
66267W        W25770  37.952  21.120   1.783
66268W        W25771  20.157  13.657   2.222
66269W        W25772  30.641  26.074  12.997
66270W        W25773  21.601  29.495   1.718
66271W        W25774   9.354  26.011  14.515
66272W        W25775  10.675  21.128   4.168
66273W        W25776  15.673  14.728  13.388
66274W        W25777   6.882  42.475  13.815
66275W        W25778  41.453  24.218  14.466
66276W        W25779  22.007   5.740  12.875
66277W        W25780  12.173  12.700  11.082
66278W        W25781  32.908  12.326  12.858
66279W        W25782   3.400  10.144   1.425
66280W        W25783  44.847  25.476   2.298
66281W        W25784  27.084  19.209   1.439
66282W        W25785  22.642  17.168  11.107
66283W        W25786  39.530  31.046  14.867
66284W        W25787  20.710  27.526   2.728
66285W        W25788  44.367   2.918  10.985
66286W        W25789   6.303  37.062   0.764
66287W        W25790  42.001  12.249  13.797
66288W        W25791   6.920  11.350   4.737
66289W        W25792  20.647   4.373  14.946
66290W        W25793  11.183  42.905  10.429
66291W        W25794   4.313  15.116   3.387
66292W        W25795  11.819  22.540   4.725
66293W        W25796   4.747  15.761   3.714
66294W        W25797  38.430  11.640  14.999
66295W        W25798  27.487  16.708  11.991
66296W        W25799  20.100  35.371  14.954
66297W        W25800  17.566  32.428   2.861
66298W        W25801  10.834  42.429   3.329
66299W        W25802  15.176  35.990  10.435
66300W        W25803  33.623  35.865  13.885
66301W        W25804  18.052  21.567  10.986
66302W        W25805  12.315   0.401  11.605
66303W        W25806  26.457  41.385   9.985
66304W        W25807  15.733  17.665  12.925
66305W        W25808  15.655  20.585   4.768
66306W        W25809  29.511  13.676   0.774
66307W        W25810  30.454  39.998   0.399
66308W        W25811  29.615  41.979  11.038
66309W        W25812  21.021  44.010   1.238
66310W        W25813  22.178  13.218  11.434
66311W        W25814  29.977  36.898  13.955
66312W        W25815  14.812   9.363   3.802
66313W        W25816  18.728  20.163   2.847
66314W        W25817  14.804   0.960  12.537
66315W        W25818   1.427  40.315   4.348
66316W        W25819  27.139  13.779   3.709
66317W        W25820  42.312  28.035  11.540
66318W        W25821   3.344  34.585   2.710
66319W        W25822  34.014  11.268  10.407
66320W        W25823  26.977   0.916   2.264
66321W        W25824  20.748  42.354   2.367
66322W        W25825   3.285  44.409  14.469
66323W        W25826  29.923  24.508  13.791
66324W        W25827  30.439   1.420  11.957
66325W        W25828  16.566  35.998  13.424
66326W        W25829  34.399   7.795  10.421
66327W        W25830   6.725  30.005  11.384
66328W        W25831  25.077  14.785   3.639
66329W        W25832  24.702  22.224  13.802
66330W        W25833  20.184  15.656   3.171
66331W        W25834  34.464  23.712  13.029
66332W        W25835  32.082   5.715  10.636
66333W        W25836  29.458  18.709   5.222
66334W        W25837   8.672  32.027  14.350
66335W        W25838  41.860  19.145  12.339
66336W        W25839  10.706  31.098   0.896
66337W        W25840  37.383  26.577  10.889
66338W        W25841  31.093  42.368   4.152
66339W        W25842  20.140  20.259  13.819
66340W        W25843   9.378  36.988   0.268
66341W        W25844  10.326  12.182   1.769
66342W        W25845  34.416   3.937   0.362
66343W        W25846   3.373   8.371   2.745
66344W        W25847   7.732   3.714  13.999
66345W        W25848  30.415  20.539   1.435
66346W        W25849   0.964  35.487   1.821
66347W        W25850  12.633  43.815   0.849
66348W        W25851   3.829   7.718   0.334
66349W        W25852   9.768   3.303   0.389
66350W        W25853   5.833   0.362   0.924
66351W        W25854  10.665  26.188   2.738
66352W        W25855   2.727  44.801  13.836
66353W        W25856   3.922  17.730  12.546
66354W        W25857  16.676  33.482   1.346
66355W        W25858  11.701  17.685  11.432
66356W        W25859  30.008  31.578   0.744
66357W        W25860  28.584  25.657  13.970
66358W        W25861  26.629  27.620   0.403
66359W        W25862  10.361  25.219  13.529
66360W        W25863  10.237   4.870   4.172
66361W        W25864  14.655   2.421  13.889
66362W        W25865  12.765   2.932  13.475
66363W        W25866  22.179  39.477   0.251
66364W        W25867  33.457  30.535  13.483
66365W        W25868   0.837  36.936   2.678
66366W        W25869  14.636  43.440   0.337
66367W        W25870  42.900  28.155  11.048
66368W        W25871  25.146  16.770   2.278
66369W        W25872   4.286  10.235  11.415
66370W        W25873   5.340  42.803   3.732
66371W        W25874  19.758   2.734  10.935
66372W        W25875   7.351  29.553   4.803
66373W        W25876  29.112  33.906   3.229
66374W        W25877  19.178  14.661   0.422
66375W        W25878  44.283   6.698   1.811
66376W        W25879  21.111   0.446   5.194
66377W        W25880  15.810  12.224  11.977
66378W        W25881   1.324  11.752  10.923
66379W        W25882  41.837  35.074   4.695
66380W        W25883   5.861  41.042  11.976
66381W        W25884  30.551  39.994  14.468
66382W        W25885  10.748  38.958   0.914
66383W        W25886  26.523   9.207   1.258
66384W        W25887  36.461  17.151   0.861
66385W        W25888   1.357   6.249   1.727
66386W        W25889  35.555  19.243  13.461
66387W        W25890   4.927   9.384  10.598
66388W        W25891  28.548  43.320   3.820
66389W        W25892   7.684  36.362  11.967
66390W        W25893   0.461  37.342  12.516
66391W        W25894  24.683  24.035  14.406
66392W        W25895  38.936  20.533   2.830
66393W        W25896  41.855  35.473   1.860
66394W        W25897   1.462  15.167  12.940
66395W        W25898   2.749  30.443   9.922
66396W        W25899  17.175   5.701  12.918
66397W        W25900  15.330  43.415   0.346
66398W        W25901  44.799   9.885   3.207
66399W        W25902  38.472   2.866   2.216
66400W        W25903  14.280   8.401  10.500
66401W        W25904  21.705  10.661   0.464
66402W        W25905  15.741  24.502  10.645
66403W        W25906  37.420  29.601   3.252
66404W        W25907  34.892  23.113   1.844
66405W        W25908  26.569  40.846   1.935
66406W        W25909  28.567  14.622   2.196
66407W        W25910  33.979   0.925  14.870
66408W        W25911  33.097  10.283   5.291
66409W        W25912   5.902  11.240   2.413
66410W        W25913  19.230  31.960  12.901
66411W        W25914  41.485  11.816  12.026
66412W        W25915  34.516  41.795  11.993
66413W        W25916  10.869  22.511   0.805
66414W        W25917  24.998  37.551   4.835
66415W        W25918   4.931  17.736  11.080
66416W        W25919   5.400  30.149  14.843
66417W        W25920  16.210  21.678  10.977
66418W        W25921   5.705  16.591  13.846
66419W        W25922  36.499  26.189  14.298
66420W        W25923   6.346  42.479   4.633
66421W        W25924  19.124  32.114   3.865
66422W        W25925  29.458   6.729   3.244
66423W        W25926  24.157   4.256   0.272
66424W        W25927   6.425  31.027  14.439
66425W        W25928  19.057   2.902  13.455
66426W        W25929  30.922  29.569  12.066
66427W        W25930  33.077  35.494   1.270
66428W        W25931   2.422  25.138  12.571
66429W        W25932  32.563  27.979  11.488
66430W        W25933   0.769  41.845  13.879
66431W        W25934  43.951  16.573  11.488
66432W        W25935  28.617  12.350   4.325
66433W        W25936  12.681   3.831   3.714
66434W        W25937   5.724  32.486   3.854
66435W        W25938   4.361  25.068   0.262
66436W        W25939   4.904  40.808  14.408
66437W        W25940   0.308  43.907   0.797
66438W        W25941  22.165  16.757  12.849
66439W        W25942  43.912  35.368  12.005
66440W        W25943  16.708  41.440   2.313
66441W        W25944  27.584  21.648  12.874
66442W        W25945  35.470  41.998   4.125
66443W        W25946   8.389  31.930  11.396
66444W        W25947  11.321  14.337  10.418
66445W        W25948  18.626   6.776  13.834
66446W        W25949  41.805  32.923  12.087
66447W        W25950   2.431  28.138   3.145
66448W        W25951   5.295   3.844   4.681
66449W        W25952  15.780  21.597   1.404
66450W        W25953  42.840  18.283   0.293
66451W        W25954  44.322   0.467   1.769
66452W        W25955  14.205  15.098   1.935
66453W        W25956   9.798  10.866   1.432
66454W        W25957  38.054  16.216  14.940
66455W        W25958  39.347  28.482   0.380
66456W        W25959  32.625  32.565  11.941
66457W        W25960  22.514  26.096   2.724
66458W        W25961  42.005  26.535   3.358
66459W        W25962  14.163  11.357  11.953
66460W        W25963  42.988  33.922   4.727
66461W        W25964   6.276   7.354   3.146
66462W        W25965  38.893  18.145   3.308
66463W        W25966   1.960  34.103   2.745
66464W        W25967  38.483  15.736  13.469
66465W        W25968   6.269  12.257  14.805
66466W        W25969   7.770  15.172  12.345
66467W        W25970  15.624  13.691  13.988
66468W        W25971  27.979  19.534  13.942
66469W        W25972  16.296  44.351   2.315
66470W        W25973  26.548  25.626   4.810
66471W        W25974  39.319  29.609  13.834
66472W        W25975   7.857  36.401  12.502
66473W        W25976   9.756  39.329   0.293
66474W        W25977   2.795  25.171   0.950
66475W        W25978  12.330  10.327   1.353
66476W        W25979   4.842   2.839   2.806
66477W        W25980  25.159  31.559   3.857
66478W        W25981  41.508  35.088   4.676
66479W        W25982  34.033  33.502   0.934
66480W        W25983   0.414  35.061  14.974
66481W        W25984  35.084   2.240   2.712
66482W        W25985   0.886  28.938  14.888
66483W        W25986  21.019  12.616   2.206
66484W        W25987   4.787   2.874   4.201
66485W        W25988  29.003  23.098  12.021
66486W        W25989  34.486  37.355   0.809
66487W        W25990  19.714  20.196  10.602
66488W        W25991  23.734  24.986   1.757
66489W        W25992  41.429  10.645   3.645
66490W        W25993  15.606  34.073   5.241
66491W        W25994  26.125  32.411   2.844
66492W        W25995  34.537  12.700  11.397
66493W        W25996  15.622   5.285   9.981
66494W        W25997  19.220  20.702  10.453
66495W        W25998   4.369  27.497  12.556
66496W        W25999  20.126  18.282  13.836
66497W        W26000  43.472  42.328   2.336
66498W        W26001  20.542   4.448  11.099
66499W        W26002  42.840   4.707   3.310
66500W        W26003  14.653  16.572   0.933
66501W        W26004   1.877  32.568  10.513
66502W        W26005  32.969  12.819   2.306
66503W        W26006  16.647  31.473  12.549
66504W        W26007  41.353  29.476   2.764
66505W        W26008   8.661  44.900  13.517
66506W        W26009  25.571  11.622  14.854
66507W        W26010  39.014   9.389  12.952
66508W        W26011  17.698  43.485  13.419
66509W        W26012  31.555  31.051  10.143
66510W        W26013  43.353   9.152  13.908
66511W        W26014   6.378   1.330  10.930
66512W        W26015  24.024  36.924  13.353
66513W        W26016  27.561  30.578  10.968
66514W        W26017  11.797   9.693   0.270
66515W        W26018   2.226  35.928   3.672
66516W        W26019  31.898  37.491  12.369
66517W        W26020   3.287  37.417  11.388
66518W        W26021  37.996   8.306  13.899
66519W        W26022  39.435  43.993  14.427
66520W        W26023   1.731  14.797  10.481
66521W        W26024  19.123  22.183   0.359
66522W        W26025  23.575  41.937   4.666
66523W        W26026  22.506  26.497   5.174
66524W        W26027  43.787  16.227   4.611
66525W        W26028   0.402  10.663  11.428
66526W        W26029  12.121  29.491   1.707
66527W        W26030  32.129  34.016   0.285
66528W        W26031  41.446  31.121   0.323
66529W        W26032  41.040  43.002  12.998
66530W        W26033  43.436   3.821  11.023
66531W        W26034  44.986  38.910  12.964
66532W        W26035  22.712  13.292   4.598
66533W        W26036  17.569  34.102  10.501
66534W        W26037  38.971  42.371  12.079
66535W        W26038  24.031  43.415  11.115
66536W        W26039   4.782   1.915   0.318
66537W        W26040  25.667  35.876   4.618
66538W        W26041  11.137  11.801  11.973
66539W        W26042  30.968  12.734   3.174
66540W        W26043   2.723   0.988   4.281
66541W        W26044  11.772  40.317  13.924
66542W        W26045   1.264  44.996   4.695
66543W        W26046   0.430  33.608  12.480
66544W        W26047   7.399  30.089   0.461
66545W        W26048  44.977  38.877  10.608
66546W        W26049  22.727   3.314   3.363
66547W        W26050  41.395  23.143  12.408
66548W        W26051   4.410  39.936  10.642
66549W        W26052   6.768  27.469  11.870
66550W        W26053  26.967  28.595  14.398
66551W        W26054  44.423  32.574  14.806
66552W        W26055  18.139  21.065   3.231
66553W        W26056   9.714  27.985   1.397
66554W        W26057  35.110  37.450   0.466
66555W        W26058   0.377   1.789   1.870
66556W        W26059  34.086  28.988  10.901
66557W        W26060   1.733  41.033  11.934
66558W        W26061  10.282  19.653   2.819
66559W        W26062  28.170   9.206  12.495
66560W        W26063  22.628  24.666   2.833
66561W        W26064  26.024   4.375  14.431
66562W        W26065  27.065  43.909  12.900
66563W        W26066  43.419  16.703  10.604
66564W        W26067  17.273  40.824  14.432
66565W        W26068  19.592  40.479  14.438
66566W        W26069  44.935  17.602   4.716
66567W        W26070  25.489   1.315  12.468
66568W        W26071   9.266  19.640   3.315
66569W        W26072  39.382  18.238   4.598
66570W        W26073  24.048  41.414  14.992
66571W        W26074  33.384  37.908  13.513
66572W        W26075  19.764  28.477  13.002
66573W        W26076  43.962  44.258   4.713
66574W        W26077  15.219  34.101   9.669
66575W        W26078  44.860  39.476  12.513
66576W        W26079  20.653  33.019   0.347
66577W        W26080  25.690  25.536   4.149
66578W        W26081  15.136  13.787   0.298
66579W        W26082  10.727  30.979  11.383
66580W        W26083  42.868   0.791   0.831
66581W        W26084  16.177  27.680   1.738
66582W        W26085  26.096  25.471  14.763
66583W        W26086   8.747   4.822   2.672
66584W        W26087  31.011  16.267   3.229
66585W        W26088  14.316   4.242   3.152
66586W        W26089   0.825   8.217  13.449
66587W        W26090   9.306   2.231   2.340
66588W        W26091  19.601  33.970  14.289
66589W        W26092  31.987   5.881   0.284
66590W        W26093  25.590  15.271  14.903
66591W        W26094  10.329  44.986  13.034
66592W        W26095  11.336  18.561   3.183
66593W        W26096   5.435  28.525   3.385
66594W        W26097  37.873  12.798   4.218
66595W        W26098  39.941  29.003   2.382
66596W        W26099  42.847  41.041  11.567
66597W        W26100  38.960  38.974   3.322
66598W        W26101  39.347  22.680  13.406
66599W        W26102   4.223  40.338  10.995
66600W        W26103  32.988  40.845   1.798
66601W        W26104  31.602  23.055   4.235
66602W        W26105  24.224  25.665  11.917
66603W        W26106  19.741  34.100  13.423
66604W        W26107  19.150   8.781  12.988
66605W        W26108   4.211  24.162  13.330
66606W        W26109   4.734  10.672   1.752
66607W        W26110  11.733   5.709   0.458
66608W        W26111  24.168   4.719   3.632
66609W        W26112  15.182  13.267   1.359
66610W        W26113  19.643  29.960  10.525
66611W        W26114  43.006  34.395  14.898
66612W        W26115  32.612   0.967   2.226
66613W        W26116  35.515  43.346   0.931
66614W        W26117  19.225   7.273  10.521
66615W        W26118   0.796  40.539   5.154
66616W        W26119   3.403   8.866  13.906
66617W        W26120   5.851  29.572  14.831
66618W        W26121  23.067  21.235  14.940
66619W        W26122   6.306  22.513  13.842
66620W        W26123  18.571  40.302   2.775
66621W        W26124   2.874   7.678   3.210
66622W        W26125   1.428  24.011  11.061
66623W        W26126  30.035  15.775   1.358
66624W        W26127   4.809  19.685  14.789
66625W        W26128   6.417  43.891  13.805
66626W        W26129  39.969  42.885  11.580
66627W        W26130  28.992   6.300   3.155
66628W        W26131  36.364  31.087  12.358
66629W        W26132  36.559  38.996  11.997
66630W        W26133   9.155  30.037  12.936
66631W        W26134  10.241  13.815   0.305
66632W        W26135   8.845  15.141   2.834
66633W        W26136  14.113  15.279   3.264
66634W        W26137  11.639  35.538  13.320
66635W        W26138  40.932  33.582  13.482
66636W        W26139  32.452   1.303  12.553
66637W        W26140  24.665  13.648  14.453
66638W        W26141  18.229  29.476  12.452
66639W        W26142   8.335  24.155  10.426
66640W        W26143  44.932  26.070   4.646
66641W        W26144  13.226  43.329  10.546
66642W        W26145  21.189  25.682  12.905
66643W        W26146  15.738  22.651  14.779
66644W        W26147  24.508   3.347  13.362
66645W        W26148  22.180  15.105  11.884
66646W        W26149  12.842  28.630  13.928
66647W        W26150  17.277  11.297   1.372
66648W        W26151  22.649   3.774   2.879
66649W        W26152   6.823  38.906   3.798
66650W        W26153  23.186  40.926  11.093
66651W        W26154  20.626  26.608   3.653
66652W        W26155  18.640   2.316   4.157
66653W        W26156  26.605  23.648  12.878
66654W        W26157  12.309   6.709  12.084
66655W        W26158   4.429  18.789  13.542
66656W        W26159  29.664  42.522   1.760
66657W        W26160  29.433  17.256  14.908
66658W        W26161  40.992  44.471  12.895
66659W        W26162  26.164  27.972  13.505
66660W        W26163   3.808  13.210   3.216
66661W        W26164  15.695  43.354   1.767
66662W        W26165  27.688   9.668   0.328
66663W        W26166  22.059  10.766   1.307
66664W        W26167  12.637  11.731  13.925
66665W        W26168  28.675  38.517   9.510
66666W        W26169  34.868  22.622   5.235
66667W        W26170  12.316  17.292  11.964
66668W        W26171  16.682  16.581   2.839
66669W        W26172   5.864  11.702   3.225
66670W        W26173  33.449   3.290   3.695
66671W        W26174  42.009  12.808  11.505
66672W        W26175  18.699   3.911   4.136
66673W        W26176  29.041  16.072   0.387
66674W        W26177  11.788   5.705  13.884
66675W        W26178   1.481  12.252   1.828
66676W        W26179  37.420  24.171   3.714
66677W        W26180  29.125  21.066   3.264
66678W        W26181  23.024  25.192   3.836
66679W        W26182  24.009  29.013   2.880
66680W        W26183  23.014  32.455   3.355
66681W        W26184  13.289   1.734  11.591
66682W        W26185  39.387  38.070   1.793
66683W        W26186  29.918  19.590  12.081
66684W        W26187   2.896  12.690  12.352
66685W        W26188  42.797   0.943   1.319
66686W        W26189  15.309  36.891  13.539
66687W        W26190  10.181   9.382   2.829
66688W        W26191   7.346  42.460  14.827
66689W        W26192  36.063   2.856  13.923
66690W        W26193  32.477  22.179  14.328
66691W        W26194  21.160  38.338  12.980
66692W        W26195  22.548  11.207   3.706
66693W        W26196  38.459  33.535   2.810
66694W        W26197  26.459  32.494   3.680
66695W        W26198  28.527  24.053   2.903
66696W        W26199  27.156  31.972   4.153
66697W        W26200  33.113  34.097  13.847
66698W        W26201  27.567  13.243   5.189
66699W        W26202   9.696  22.198   2.384
66700W        W26203  17.201  33.904  14.867
66701W        W26204  31.073  37.926   1.318
66702W        W26205  35.902  42.519  13.406
66703W        W26206   8.316  25.686   3.687
66704W        W26207  39.519  15.636  12.906
66705W        W26208  44.411  44.413   0.343
66706W        W26209  38.358  35.031  14.994
66707W        W26210  30.570   7.402  12.015
66708W        W26211  24.486  23.600  11.572
66709W        W26212  27.681   0.936   2.218
66710W        W26213  16.141  19.672  13.920
66711W        W26214  15.622  10.689   4.183
66712W        W26215   7.889  26.108   4.687
66713W        W26216  31.094  44.443   3.177
66714W        W26217  29.476   9.219  12.527
66715W        W26218  44.449  39.964   4.197
66716W        W26219  10.328   2.339  12.036
66717W        W26220  39.554  30.121   2.411
66718W        W26221  32.586   1.421   3.719
66719W        W26222  13.671  41.477  13.969
66720W        W26223  25.057  14.801   4.686
66721W        W26224   1.440   8.879  11.015
66722W        W26225  23.708  18.727  10.549
66723W        W26226  44.291  43.510   1.737
66724W        W26227   2.946   7.182   0.942
66725W        W26228  15.660  35.464   3.680
66726W        W26229  14.790  22.517  12.934
66727W        W26230   2.828  12.235  12.924
66728W        W26231  41.950  13.744   0.404
66729W        W26232  25.990  36.537   3.847
66730W        W26233  12.184  44.993  10.433
66731W        W26234  35.564  17.744   2.677
66732W        W26235  19.254  31.553   2.253
66733W        W26236  39.891  12.678  12.994
66734W        W26237  30.942   3.377  14.761
66735W        W26238  16.217  32.096  11.063
66736W        W26239  32.896  37.889  11.906
66737W        W26240  35.044  32.961   0.938
66738W        W26241   9.376  19.751  14.904
66739W        W26242  41.843   5.311   4.332
66740W        W26243   4.277  41.931  14.771
66741W        W26244  43.894  12.798  12.941
66742W        W26245  35.031  26.124   0.478
66743W        W26246   3.289  14.654  11.058
66744W        W26247  10.708   5.383  13.908
66745W        W26248  29.927  31.516  12.872
66746W        W26249  33.434   7.385  10.432
66747W        W26250   6.792   4.290  14.370
66748W        W26251   9.694  12.193  10.529
66749W        W26252  22.120  28.438   0.325
66750W        W26253   2.434  12.191   3.265
66751W        W26254  29.973  20.696   3.187
66752W        W26255  24.622   9.852   3.726
66753W        W26256  15.311   7.203   0.473
66754W        W26257  15.756  15.725   0.462
66755W        W26258  12.356  31.424  12.434
66756W        W26259   3.436  30.996  10.946
66757W        W26260  11.221  20.101   2.738
66758W        W26261  41.003   6.330   3.252
66759W        W26262  24.705  39.406   4.324
66760W        W26263  30.431  30.969   2.296
66761W        W26264  14.638  17.648   1.366
66762W        W26265  21.728  21.537  14.829
66763W        W26266  36.050   3.730  14.312
66764W        W26267  29.472  11.658   1.801
66765W        W26268  23.190   9.805   2.861
66766W        W26269  24.104  28.645   1.447
66767W        W26270  14.707   0.796   4.597
66768W        W26271   0.794  37.925   2.299
66769W        W26272   4.924   6.347  11.552
66770W        W26273  31.126  34.973   9.986
66771W        W26274  39.404  12.763  11.476
66772W        W26275   3.897  34.959   2.894
66773W        W26276  12.640  14.141  13.373
66774W        W26277  35.933  25.021  13.814
66775W        W26278  18.787  32.991   2.863
66776W        W26279  23.076  36.935   4.649
66777W        W26280  14.174   8.710   4.608
66778W        W26281   2.401  19.644   9.960
66779W        W26282  35.576  28.155   0.271
66780W        W26283  23.733   0.871   3.685
66781W        W26284  43.773  12.171  10.442
66782W        W26285  31.128  18.267   5.206
66783W        W26286   8.790  13.689  10.524
66784W        W26287  44.370  24.621  14.981
66785W        W26288  14.605  10.328  13.415
66786W        W26289  17.226   2.417   4.660
66787W        W26290  30.086   6.281  12.070
66788W        W26291  32.491  35.051   3.768
66789W        W26292  27.196   5.735  13.944
66790W        W26293  12.309  41.790  12.357
66791W        W26294  10.711  21.660  10.448
66792W        W26295  23.008  30.974  10.530
66793W        W26296   2.801   5.900  12.446
66794W        W26297  25.612  21.632  14.939
66795W        W26298  34.608   2.803   1.770
66796W        W26299  11.654   5.361  11.938
66797W        W26300  19.637  16.647   3.794
66798W        W26301  24.713   7.677  12.991
66799W        W26302   9.243   5.749   4.759
66800W        W26303   2.821   3.259   2.729
66801W        W26304  18.064  39.841   3.829
66802W        W26305   5.820  21.164   0.443
66803W        W26306  25.679  39.823  14.498
66804W        W26307  43.915   8.184  12.454
66805W        W26308   9.370  17.274  13.386
66806W        W26309  35.971   9.722  14.939
66807W        W26310  12.246  30.121  13.837
66808W        W26311  23.582   6.778   1.765
66809W        W26312  28.633  38.867   4.187
66810W        W26313   0.797  37.500   1.862
66811W        W26314  33.461  10.377  13.435
66812W        W26315  14.126   8.828  14.398
66813W        W26316   5.914   9.306  14.851
66814W        W26317   7.226   8.254  10.511
66815W        W26318  13.632   0.895   0.943
66816W        W26319   1.862  30.032  11.951
66817W        W26320  10.316  41.851  14.454
66818W        W26321   4.718  15.692  13.375
66819W        W26322  15.083  22.635  10.982
66820W        W26323  24.980  22.670   0.375
66821W        W26324  17.173  21.749  13.889
66822W        W26325  13.253   2.342   4.198
66823W        W26326  10.191  15.794   0.378
66824W        W26327   2.853   0.295   3.735
66825W        W26328  42.495   0.781  14.928
66826W        W26329  27.981  22.227  14.991
66827W        W26330  21.654  20.545  14.503
66828W        W26331  38.484  11.301  13.919
66829W        W26332  13.325  32.036   5.645
66830W        W26333  29.517  25.500  11.555
66831W        W26334   0.916  11.848   2.788
66832W        W26335  40.366  42.030   0.950
66833W        W26336  22.188  38.913  13.880
66834W        W26337  27.015  33.095  14.015
66835W        W26338   5.332   4.734  13.308
66836W        W26339  24.207   0.439  12.469
66837W        W26340  10.345  24.217  10.984
66838W        W26341  44.477  41.314  12.057
66839W        W26342  40.330  39.319   0.243
66840W        W26343  36.052  33.436   4.625
66841W        W26344   0.842  12.753   0.736
66842W        W26345   4.750  18.733  14.885
66843W        W26346  27.527  10.167   3.369
66844W        W26347  40.833  17.747  10.410
66845W        W26348   8.363  28.100   0.258
66846W        W26349  25.554  36.484  11.579
66847W        W26350  40.542  26.514  13.315
66848W        W26351  26.178  24.691  13.937
66849W        W26352  31.587  33.053  11.536
66850W        W26353   9.772   3.416   1.739
66851W        W26354   3.231  38.507   3.244
66852W        W26355  41.506  27.943   0.376
66853W        W26356  15.662  29.103  13.390
66854W        W26357  32.992  18.073   0.851
66855W        W26358  25.655  38.463   1.247
66856W        W26359  13.138  21.646   3.158
66857W        W26360  29.534  21.703   1.745
66858W        W26361  28.994  31.045  11.050
66859W        W26362  43.996  14.274   4.630
66860W        W26363   5.382  17.634  13.513
66861W        W26364  12.260  12.780   4.698
66862W        W26365  31.591  32.461   3.229
66863W        W26366  30.163  30.652  13.539
66864W        W26367   4.943   2.816   1.915
66865W        W26368  16.597  23.037   0.961
66866W        W26369  17.733  21.055  12.065
66867W        W26370  32.433   5.853  14.938
66868W        W26371  42.424  32.417   3.658
66869W        W26372  44.364  14.223  14.792
66870W        W26373  10.779   3.404  11.891
66871W        W26374  39.436   5.408  11.041
66872W        W26375   7.755   4.771   0.848
66873W        W26376   0.477  10.760   3.726
66874W        W26377  42.927  35.076  12.386
66875W        W26378  28.462  35.928  11.903
66876W        W26379  39.053  35.928  14.388
66877W        W26380  22.587  10.831  13.803
66878W        W26381   6.681  38.544  14.915
66879W        W26382   4.746   5.394  11.874
66880W        W26383  41.401  25.179  12.363
66881W        W26384   3.934  18.196   1.235
66882W        W26385  24.173   3.808  13.027
66883W        W26386  15.151  17.128   2.716
66884W        W26387   2.357  42.015   3.251
66885W        W26388   8.774  26.050   2.814
66886W        W26389  42.399   5.403   1.330
66887W        W26390  19.040  12.282   3.261
66888W        W26391  42.806  32.021   1.320
66889W        W26392   9.334  39.370   2.667
66890W        W26393  24.659  36.551   4.647
66891W        W26394  34.559  42.347  12.999
66892W        W26395  29.126  10.350  12.541
66893W        W26396  41.796  38.444  11.123
66894W        W26397  10.176  42.986   3.708
66895W        W26398  28.053  35.448   3.170
66896W        W26399  36.940   8.255  13.505
66897W        W26400   2.228  33.050  14.984
66898W        W26401   2.237  43.437  11.063
66899W        W26402  16.644   4.264   4.276
66900W        W26403  43.935   0.873   1.782
66901W        W26404   3.344  44.891   4.346
66902W        W26405  25.188  23.497  11.063
66903W        W26406  25.568  32.960   0.260
66904W        W26407  20.588   9.277  12.087
66905W        W26408  20.036  27.622  13.540
66906W        W26409   5.316  25.188  10.527
66907W        W26410  39.023  21.078  11.043
66908W        W26411  27.680  18.555   0.480
66909W        W26412  25.066  28.932   3.304
66910W        W26413  11.127  22.190  10.475
66911W        W26414  18.273  42.915  12.005
66912W        W26415  17.103  44.416   0.923
66913W        W26416  18.060   7.381  13.450
66914W        W26417  38.558   9.657   2.696
66915W        W26418  12.126   5.205  11.044
66916W        W26419  43.833   8.860   1.430
66917W        W26420   3.450  26.691  14.924
66918W        W26421   8.738  20.628  11.376
66919W        W26422   5.403   4.382   2.385
66920W        W26423  31.003  15.615   5.218
66921W        W26424  41.917  31.635   0.454
66922W        W26425  34.445  35.903   4.336
66923W        W26426  22.051   7.417   4.695
66924W        W26427  26.693  43.981   2.237
66925W        W26428  21.146  26.064  12.066
66926W        W26429  24.501  30.923   1.235
66927W        W26430  40.479   9.234  13.371
66928W        W26431   5.721  13.320  10.997
66929W        W26432  12.799  27.576  11.395
66930W        W26433  30.103   4.933   0.759
66931W        W26434  30.626   2.826  11.024
66932W        W26435  21.246  23.995  11.976
66933W        W26436  36.995  24.502  12.087
66934W        W26437  43.481   4.790  11.057
66935W        W26438  36.454  25.091  12.431
66936W        W26439  39.046  25.162   4.644
66937W        W26440  10.834  29.648   2.318
66938W        W26441   6.221  44.755   5.151
66939W        W26442   2.747  20.183  14.013
66940W        W26443   0.423  40.392   3.350
66941W        W26444  40.402  41.485   3.305
66942W        W26445  42.915  36.992  12.479
66943W        W26446   5.705  23.028  11.428
66944W        W26447   7.894  43.905  10.480
66945W        W26448  32.409  33.914   3.274
66946W        W26449  32.395  33.024  12.835
66947W        W26450  14.646   6.793   0.274
66948W        W26451   0.891  33.124   4.324
66949W        W26452  23.608   0.957   0.966
66950W        W26453   3.730  28.125  12.541
66951W        W26454   3.934   9.183  13.895
66952W        W26455  28.073  22.618  13.938
66953W        W26456  35.014  13.635   2.897
66954W        W26457  13.742  31.986  13.349
66955W        W26458  15.658  44.862  13.965
66956W        W26459   2.439   5.718   0.811
66957W        W26460  16.125   0.271  11.005
66958W        W26461  11.157   3.948  12.945
66959W        W26462  20.189   0.761   4.209
66960W        W26463  44.307   1.896   3.162
66961W        W26464   7.204  44.825  13.383
66962W        W26465  13.232  36.008   0.268
66963W        W26466  20.679  29.479   3.689
66964W        W26467  19.768  22.124  10.424
66965W        W26468  12.152  41.967   4.247
66966W        W26469   3.837  21.124   2.187
66967W        W26470  23.220  16.803   0.307
66968W        W26471  43.490  38.902   2.226
66969W        W26472  24.546  26.114   0.806
66970W        W26473  36.584  44.958  12.366
66971W        W26474  37.437  18.579  11.078
66972W        W26475  44.259  30.014  13.355
66973W        W26476  42.901   9.722  13.545
66974W        W26477   8.879  31.573   4.245
66975W        W26478  32.015  16.299   4.781
66976W        W26479  24.723  28.612   4.280
66977W        W26480   9.236  18.090   4.266
66978W        W26481   7.241  38.388  11.911
66979W        W26482  39.055  14.708   4.720
66980W        W26483  12.157  35.001   0.843
66981W        W26484  17.174  16.791  10.420
66982W        W26485  35.925   8.392  10.014
66983W        W26486  27.197  21.642   4.342
66984W        W26487  38.840  15.594   2.849
66985W        W26488  41.907  35.583   3.148
66986W        W26489  34.425  26.060   9.953
66987W        W26490  17.256  23.645   0.376
66988W        W26491  35.470  21.599  10.634
66989W        W26492   3.746  43.829  10.594
66990W        W26493   1.244  17.768  10.112
66991W        W26494  16.306  32.086  10.575
66992W        W26495  23.213  10.357  13.959
66993W        W26496  13.264  23.654  10.634
66994W        W26497  10.876   0.771  14.462
66995W        W26498  11.753  24.191  13.447
66996W        W26499  41.979  41.417   4.151
66997W        W26500  12.243  43.417  13.425
66998W        W26501  15.596   4.307   3.374
66999W        W26502  22.643  20.532   3.347
67000W        W26503  24.054  23.085   4.173
67001W        W26504  24.483  21.052   4.619
67002W        W26505  34.396  31.963   0.452
67003W        W26506  19.281  40.344  13.854
67004W        W26507   7.409  35.473   0.819
67005W        W26508  40.401  31.567   4.805
67006W        W26509  25.537   5.912  10.437
67007W        W26510  43.897  13.253   2.716
67008W        W26511  17.065  22.607   0.438
67009W        W26512  28.963  35.523  10.958
67010W        W26513  40.461  27.589  12.890
67011W        W26514  37.880   8.278   4.117
67012W        W26515  11.794   7.789  13.815
67013W        W26516  35.922  19.224  11.012
67014W        W26517  15.741  12.678  10.455
67015W        W26518   3.790  40.356  11.047
67016W        W26519  15.583  21.676  12.486
67017W        W26520   2.300  41.490  11.086
67018W        W26521  28.140   9.279  12.842
67019W        W26522  25.487  20.723  12.424
67020W        W26523  16.288   1.334  14.307
67021W        W26524  29.922  19.603  11.108
67022W        W26525  13.295   0.877  10.565
67023W        W26526  16.626  35.565  12.463
67024W        W26527  13.831  43.481   2.385
67025W        W26528   0.900  26.126  10.009
67026W        W26529  25.672  28.090  11.419
67027W        W26530   9.154  26.952   0.428
67028W        W26531  42.379  34.374   2.736
67029W        W26532  36.506  44.444  11.060
67030W        W26533  41.304   5.437  14.876
67031W        W26534  22.739  32.398   3.158
67032W        W26535   9.669  30.947   4.151
67033W        W26536   8.206  18.227  11.008
67034W        W26537  37.526  26.952   2.279
67035W        W26538  33.431  42.893  13.342
67036W        W26539  22.122  30.018   3.810
67037W        W26540   2.761  12.803   2.216
67038W        W26541  44.427  33.512   3.187
67039W        W26542   8.885  26.597   2.211
67040W        W26543  19.691  38.404   3.649
67041W        W26544   7.699   9.675  13.404
67042W        W26545   9.289  35.977   1.698
67043W        W26546  12.637   4.791  12.977
67044W        W26547  21.142  43.397   1.934
67045W        W26548   6.243  39.017   3.815
67046W        W26549   4.415  38.375  13.032
67047W        W26550  38.425  38.858   2.888
67048W        W26551  18.575  19.208  13.912
67049W        W26552  22.006   7.689  11.555
67050W        W26553   2.454  12.310   0.301
67051W        W26554  43.015   4.296  13.947
67052W        W26555   2.369  13.222  11.556
67053W        W26556  31.407  32.566  14.759
67054W        W26557  28.117   3.401  10.934
67055W        W26558  37.858   1.764  11.905
67056W        W26559  41.952  19.141  11.462
67057W        W26560  11.361  38.535   3.815
67058W        W26561  15.326  31.615   1.451
67059W        W26562  11.299  35.022   0.808
67060W        W26563  40.006  13.771  12.926
67061W        W26564  19.710   8.181   0.471
67062W        W26565   8.669  14.780   1.272
67063W        W26566  20.044  41.508   4.832
67064W        W26567  29.490   9.323   3.699
67065W        W26568  33.059   8.882  13.456
67066W        W26569  34.015  16.185   3.228
67067W        W26570  37.536  41.946   4.645
67068W        W26571  39.510  37.567  12.929
67069W        W26572  15.140   4.798   1.792
67070W        W26573  21.737  25.140  10.914
67071W        W26574  25.117  21.196  11.916
67072W        W26575  22.607  31.919  14.279
67073W        W26576  19.167  39.044   4.143
67074W        W26577  13.293  26.541  14.478
67075W        W26578  16.263  36.589  12.025
67076W        W26579  13.752   3.717   0.409
67077W        W26580  22.545  15.087   2.291
67078W        W26581  24.137  38.993  11.535
67079W        W26582  35.929  21.066  14.454
67080W        W26583  12.713  18.191   0.457
67081W        W26584  25.086   5.885   3.867
67082W        W26585  30.568  23.051  13.827
67083W        W26586   6.778  35.915   3.153
67084W        W26587  21.212  18.558   2.267
67085W        W26588  27.097  14.778   4.248
67086W        W26589  28.593  42.349  13.447
67087W        W26590  11.173  44.395  14.511
67088W        W26591  38.033  35.042  12.084
67089W        W26592  28.533  19.741  13.338
67090W        W26593  20.235   3.324  12.395
67091W        W26594  39.348   6.302   1.227
67092W        W26595  44.276  18.667   2.782
67093W        W26596  14.237  20.142   0.919
67094W        W26597   4.891  39.044   0.732
67095W        W26598  26.029  18.284  14.839
67096W        W26599  23.704  13.811   3.170
67097W        W26600  25.177   6.347   3.735
67098W        W26601  23.085  44.923   2.235
67099W        W26602   9.266   1.810   0.790
67100W        W26603  19.182  26.104   4.686
67101W        W26604  32.973  26.663  13.792
67102W        W26605  21.681   0.970   1.317
67103W        W26606  38.828  13.189   2.364
67104W        W26607  30.103  25.578  12.357
67105W        W26608  10.281   0.387   0.957
67106W        W26609  18.172  22.590  10.491
67107W        W26610  11.852   2.306  14.844
67108W        W26611  29.043  27.601  12.908
67109W        W26612  43.833  44.406   2.356
67110W        W26613   3.924  30.959  12.919
67111W        W26614   3.868   2.301   4.246
67112W        W26615   5.730  13.336  13.958
67113W        W26616   4.312  38.467   3.214
67114W        W26617  11.785   7.666   3.759
67115W        W26618   2.272  31.570   0.347
67116W        W26619   1.868   5.734   3.779
67117W        W26620  25.191   8.300  14.801
67118W        W26621  43.482   0.390   0.325
67119W        W26622   2.317   4.401   4.263
67120W        W26623  41.833  29.065  12.976
67121W        W26624  24.038  42.477  12.562
67122W        W26625  39.829  33.113  10.509
67123W        W26626  29.942  36.500   2.307
67124W        W26627  14.764  13.819  11.883
67125W        W26628   3.802  26.646   4.658
67126W        W26629  23.088  41.965  14.359
67127W        W26630  14.795   5.914   3.759
67128W        W26631  19.643  39.417  11.857
67129W        W26632  38.894  37.083   4.280
67130W        W26633  42.868  41.314  14.910
67131W        W26634   2.875  43.458  13.023
67132W        W26635  43.403  24.054  11.021
67133W        W26636  36.519  27.947   1.815
67134W        W26637  41.899  10.251   5.143
67135W        W26638  12.686  41.364   4.789
67136W        W26639  10.780  38.990  13.331
67137W        W26640  17.262  30.937  12.067
67138W        W26641  24.699  14.628  13.834
67139W        W26642  38.946   9.204  11.906
67140W        W26643  15.175  13.247   3.814
67141W        W26644  19.163  43.905  14.501
67142W        W26645  25.022  27.664  13.378
67143W        W26646  44.445  22.183   2.291
67144W        W26647   9.771  23.008  12.834
67145W        W26648  44.890  30.996   3.267
67146W        W26649  27.110  14.136  11.024
67147W        W26650  39.502  21.602   3.264
67148W        W26651  13.751  24.532  14.906
67149W        W26652   4.242  16.309  14.797
67150W        W26653  34.416   8.169   3.187
67151W        W26654  22.144  35.456   1.339
67152W        W26655   8.725  19.569   4.256
67153W        W26656   9.719  30.642  10.461
67154W        W26657   3.371  14.622  11.397
67155W        W26658   9.740   9.309  14.363
67156W        W26659  31.944  38.432   4.664
67157W        W26660  34.974  24.058  11.905
67158W        W26661  44.383  13.658  14.889
67159W        W26662  32.027  44.876  12.952
67160W        W26663   9.158   2.961  12.870
67161W        W26664  43.375  13.233  11.900
67162W        W26665   4.434  25.971   0.775
67163W        W26666  36.008  30.493   4.729
67164W        W26667  28.596  36.508   0.321
67165W        W26668  30.007  21.567   4.682
67166W        W26669   4.773  39.014  14.412
67167W        W26670   7.392  18.104   0.286
67168W        W26671  28.004  41.339  14.937
67169W        W26672  32.554  34.462   0.290
67170W        W26673  20.233  31.943  10.638
67171W        W26674  32.517  26.041   0.952
67172W        W26675  42.983   8.385   9.598
67173W        W26676  29.015  39.025   0.742
67174W        W26677  14.340  19.578   2.320
67175W        W26678   8.295  13.302  14.513
67176W        W26679   4.291  17.643  12.349
67177W        W26680  33.991   4.878   0.833
67178W        W26681  12.747  38.432  12.414
67179W        W26682  43.463  30.116   0.886
67180W        W26683  39.409   7.902  14.397
67181W        W26684  44.878   8.202  13.988
67182W        W26685  35.397  15.311  12.375
67183W        W26686  26.150  37.984   2.773
67184W        W26687  11.763  11.626   0.290
67185W        W26688  24.068   9.816  12.044
67186W        W26689  24.616  35.544   1.822
67187W        W26690   9.254  16.274   0.401
67188W        W26691   3.423  29.962   3.219
67189W        W26692  36.843  42.483  10.601
67190W        W26693  10.294   1.314   4.741
67191W        W26694  36.586  24.700   4.649
67192W        W26695  19.277   6.702  13.983
67193W        W26696  12.681  30.124   1.363
67194W        W26697  44.926   5.326   0.942
67195W        W26698  25.083  35.435  11.069
67196W        W26699   9.254   7.828  14.330
67197W        W26700  11.135  43.925   0.298
67198W        W26701   5.712  43.457  14.841
67199W        W26702  32.944   0.929  13.410
67200W        W26703   6.802  30.935   4.676
67201W        W26704  13.279   1.960   3.783
67202W        W26705  28.518  33.502   4.186
67203W        W26706  38.975  38.072   3.702
67204W        W26707  32.907  14.609  12.520
67205W        W26708  36.529  21.039  14.285
67206W        W26709   2.399   8.393  10.489
67207W        W26710  13.342  14.619  11.025
67208W        W26711  36.918  11.701  12.880
67209W        W26712  14.758  21.057   2.809
67210W        W26713  39.382  19.722   2.791
67211W        W26714  39.048  42.889  12.857
67212W        W26715  33.087  19.279  12.484
67213W        W26716  24.030   5.341   3.289
67214W        W26717   4.915  32.012  11.414
67215W        W26718  29.144  36.902  12.871
67216W        W26719  22.246  27.963  10.975
67217W        W26720   7.818  19.144  14.998
67218W        W26721  42.482   0.889  12.562
67219W        W26722  14.204  22.139   2.784
67220W        W26723  29.038   7.365   3.836
67221W        W26724  17.153  16.733   1.230
67222W        W26725  35.507  35.465   2.721
67223W        W26726  11.735  11.136   0.801
67224W        W26727  20.180  24.676   3.167
67225W        W26728  29.610  37.835   0.254
67226W        W26729  39.826  29.021  12.489
67227W        W26730  25.974  34.961   0.839
67228W        W26731  21.187  18.184   4.791
67229W        W26732  26.624   7.850   1.840
67230W        W26733   4.836  27.642   2.231
67231W        W26734  29.631  37.403  10.017
67232W        W26735  30.530   9.804   0.297
67233W        W26736   3.934  22.087   0.245
67234W        W26737  18.756  15.761   4.198
67235W        W26738  13.635  27.104  12.353
67236W        W26739  38.988  33.115   2.718
67237W        W26740  27.548  43.364  14.780
67238W        W26741   0.776  21.757  12.830
67239W        W26742   9.843  16.651  14.372
67240W        W26743   6.297  40.887  10.479
67241W        W26744  39.849   3.324   0.840
67242W        W26745   7.312   6.696  14.877
67243W        W26746  10.270  18.065  11.879
67244W        W26747  13.815   3.308  13.016
67245W        W26748  39.930  38.832   2.240
67246W        W26749  38.966  19.039   0.805
67247W        W26750  35.915   9.287  14.759
67248W        W26751   0.397  16.693  11.063
67249W        W26752  28.496  42.390  14.774
67250W        W26753  34.010  41.412  13.332
67251W        W26754  16.104   1.869   1.772
67252W        W26755  39.527   8.208  14.777
67253W        W26756  34.574   7.412   3.363
67254W        W26757   5.438   8.160  12.019
67255W        W26758   6.781  11.266   2.375
67256W        W26759  41.999  14.229  11.083
67257W        W26760   9.190  27.022  13.537
67258W        W26761  20.752  12.268  13.491
67259W        W26762  28.063  19.779   4.297
67260W        W26763   0.430  35.069   4.253
67261W        W26764  19.682  25.482  14.392
67262W        W26765   3.272   9.685  12.384
67263W        W26766  32.140  12.846   1.374
67264W        W26767  20.725  17.187  11.922
67265W        W26768  24.658  30.006  11.073
67266W        W26769   4.235  39.820   0.481
67267W        W26770  35.977  12.147   0.418
67268W        W26771  34.028  33.017   3.746
67269W        W26772  35.955   9.159   2.711
67270W        W26773  15.259  16.574   0.305
67271W        W26774  28.041  32.132  13.872
67272W        W26775  10.192  25.528   2.378
67273W        W26776  33.118  33.406   4.787
67274W        W26777  29.603  39.885  12.411
67275W        W26778  32.992  38.527  14.010
67276W        W26779   3.720   1.338   3.329
67277W        W26780  14.293  31.403  11.497
67278W        W26781  19.676   5.805  10.573
67279W        W26782  36.952   8.406   3.271
67280W        W26783  15.799  14.222  10.135
67281W        W26784   3.397  41.944   2.730
67282W        W26785  17.638  33.408   3.218
67283W        W26786   2.437  24.671  11.064
67284W        W26787  34.542  27.497   1.729
67285W        W26788  44.271   3.317  11.503
67286W        W26789  27.483  10.235  14.022
67287W        W26790  22.135  20.052   1.711
67288W        W26791   2.913  11.860  10.928
67289W        W26792  44.796  33.553   0.752
67290W        W26793  13.267  27.058   4.237
67291W        W26794  31.064  13.243   4.757
67292W        W26795  23.551  10.243   2.793
67293W        W26796  18.218  30.510  14.399
67294W        W26797   3.296   3.933  13.978
67295W        W26798  37.888  26.643  14.348
67296W        W26799  24.602  38.370  14.439
67297W        W26800  17.217   0.492   3.840
67298W        W26801  28.172  30.056  12.393
67299W        W26802  14.255  42.827  10.604
67300W        W26803  28.053  12.741   1.924
67301W        W26804  37.379   9.772   2.302
67302W        W26805  41.432   7.308   3.247
67303W        W26806  14.096  35.569  14.475
67304W        W26807   6.183   7.876  13.853
67305W        W26808  13.771   0.989  10.911
67306W        W26809  42.788  36.530  10.582
67307W        W26810   5.772  31.518   3.850
67308W        W26811   6.369  20.561   0.411
67309W        W26812  18.549  42.949  14.285
67310W        W26813  15.727  39.465  14.022
67311W        W26814  16.749  15.795  12.571
67312W        W26815   0.294  19.133  12.551
67313W        W26816   1.264  17.737   0.891
67314W        W26817  28.004  40.968  12.078
67315W        W26818  33.948  43.948   0.770
67316W        W26819   0.946  37.578  11.534
67317W        W26820  28.118  18.117  10.505
67318W        W26821  12.670  41.917  12.919
67319W        W26822  40.343  28.985  11.029
67320W        W26823  40.859  24.001  12.867
67321W        W26824  19.068  41.890   4.779
67322W        W26825  18.713   5.821   0.831
67323W        W26826  33.553  14.224   2.303
67324W        W26827  34.921  30.150   2.785
67325W        W26828  11.193   5.800   4.246
67326W        W26829  10.768  42.431   0.766
67327W        W26830  28.671   9.690  10.888
67328W        W26831  24.035  25.672  13.818
67329W        W26832   6.903  44.308   3.246
67330W        W26833  11.289  36.942   3.283
67331W        W26834   9.352  14.681  14.028
67332W        W26835  29.498  19.098  11.057
67333W        W26836  40.797  12.200   1.818
67334W        W26837   9.651  16.192   3.166
67335W        W26838   0.251  16.610  12.542
67336W        W26839   0.493  36.070   3.349
67337W        W26840  41.528  17.703  11.520
67338W        W26841  27.028  44.455  12.015
67339W        W26842  41.982  26.629   3.732
67340W        W26843  34.394   7.745   2.733
67341W        W26844  43.978  17.184   1.829
67342W        W26845   9.328  34.512   1.781
67343W        W26846  12.154  33.583   0.931
67344W        W26847  24.177  32.567   3.185
67345W        W26848   6.374  21.709  10.598
67346W        W26849  38.039   4.283  11.523
67347W        W26850  32.550  39.398  14.410
67348W        W26851  42.784  24.552  11.039
67349W        W26852  34.437  44.470   1.402
67350W        W26853  16.276  19.169  14.814
67351W        W26854  36.037  43.791  11.937
67352W        W26855  27.464  43.883  13.825
67353W        W26856  42.281  19.235  12.535
67354W        W26857  24.704  35.009  11.607
67355W        W26858  18.126  13.324  13.503
67356W        W26859  27.093  10.379  12.944
67357W        W26860  13.712  21.528   3.783
67358W        W26861   8.772   0.867  12.529
67359W        W26862  33.542   9.867  11.125
67360W        W26863  36.042  41.850   0.762
67361W        W26864  23.558  23.096   4.253
67362W        W26865   0.368  12.306  13.497
67363W        W26866  20.053   9.681   1.246
67364W        W26867  18.624  22.626   2.280
67365W        W26868  39.438  30.554  14.374
67366W        W26869  27.535  38.056  12.963
67367W        W26870  16.687  20.615  11.863
67368W        W26871  39.419  35.602  11.612
67369W        W26872  25.011  32.024  11.529
67370W        W26873  37.560  17.301  10.581
67371W        W26874  10.713  32.636   0.400
67372W        W26875  14.675  18.243  12.946
67373W        W26876  17.281  15.206   3.844
67374W        W26877  29.544  29.046  11.498
67375W        W26878  10.291   1.767  12.833
67376W        W26879  34.536  40.321  14.416
67377W        W26880  11.830   9.690   3.199
67378W        W26881   0.922  27.128  14.864
67379W        W26882  40.869   5.797  14.324
67380W        W26883  13.136  18.684   1.824
67381W        W26884  23.006   3.324   2.348
67382W        W26885   7.756  34.490   1.271
67383W        W26886  40.819  18.573   2.312
67384W        W26887  23.661  30.030   4.743
67385W        W26888  32.070  33.984   2.415
67386W        W26889  22.561  21.192   0.262
67387W        W26890   6.677  16.796  10.567
67388W        W26891  30.011  43.407  14.801
67389W        W26892  23.505  23.543   0.901
67390W        W26893  25.682   7.680   4.715
67391W        W26894  31.612  36.017  12.932
67392W        W26895  17.281   9.644  13.794
67393W        W26896   8.165   4.717  12.341
67394W        W26897  39.990   9.680   2.742
67395W        W26898  30.519  28.655  11.097
67396W        W26899  35.860  40.011  12.084
67397W        W26900  39.422   2.312  13.031
67398W        W26901  14.295  19.735  14.933
67399W        W26902  44.797  22.246   3.234
67400W        W26903  20.206  31.942   0.249
67401W        W26904  19.777  29.037  10.574
67402W        W26905   3.844  21.033  13.819
67403W        W26906  35.583   6.365  14.480
67404W        W26907  20.132   1.415   2.828
67405W        W26908  12.634  14.807   2.686
67406W        W26909  37.374  40.482   0.950
67407W        W26910  40.010  35.925  14.465
67408W        W26911   2.749  41.041  10.120
67409W        W26912  40.488  16.629   3.823
67410W        W26913  38.349   2.260  10.493
67411W        W26914   1.431  29.059   4.139
67412W        W26915  28.140  14.292  11.097
67413W        W26916   4.425  14.730  12.457
67414W        W26917  35.862  36.929  13.883
67415W        W26918  34.863  19.132   2.664
67416W        W26919  30.075  23.496   2.242
67417W        W26920   4.370  24.717   4.834
67418W        W26921  10.789  18.207  12.833
67419W        W26922  40.045   9.298   4.610
67420W        W26923  25.135  42.525   0.384
67421W        W26924  26.663   8.302   1.440
67422W        W26925  39.398  30.076   1.244
67423W        W26926  26.114   0.926  14.019
67424W        W26927  25.005  11.237   0.819
67425W        W26928   7.900  10.733   0.967
67426W        W26929  12.742  38.335   3.308
67427W        W26930  12.843  20.764  10.497
67428W        W26931  20.753  18.765  12.346
67429W        W26932  22.238  19.753  14.302
67430W        W26933   2.376  44.792   2.738
67431W        W26934   1.241  24.684   4.748
67432W        W26935  28.965  35.497   2.324
67433W        W26936   7.396  14.249   4.641
67434W        W26937  25.467  40.365   1.800
67435W        W26938  19.692  40.981   4.237
67436W        W26939  15.765  34.524   1.787
67437W        W26940  13.256  12.745   2.869
67438W        W26941  39.467  17.715  12.426
67439W        W26942  28.155  20.605  11.584
67440W        W26943   1.926  41.474   4.234
67441W        W26944   8.872  44.325  11.409
67442W        W26945   4.715  30.551   3.759
67443W        W26946  13.707  20.169  14.029
67444W        W26947   6.914  32.499  12.480
67445W        W26948  15.749  44.427   0.842
67446W        W26949  32.952  31.948   1.261
67447W        W26950  38.992  44.279  13.394
67448W        W26951  17.713  21.640  11.577
67449W        W26952   9.729  37.922  13.047
67450W        W26953  37.016  40.879  10.645
67451W        W26954  38.957   7.670   3.371
67452W        W26955   5.241  31.098  14.978
67453W        W26956  29.597  34.504   1.740
67454W        W26957  12.711  22.607   2.731
67455W        W26958  10.690  40.447   4.612
67456W        W26959  12.152  15.788  10.053
67457W        W26960  30.602   5.806   0.750
67458W        W26961   2.920  36.027   4.833
67459W        W26962  33.037   4.717  11.567
67460W        W26963   7.703  38.548   1.323
67461W        W26964  26.114  37.356   0.395
67462W        W26965  40.443  36.526   0.450
67463W        W26966  40.354  26.584  11.560
67464W        W26967   3.753  38.371   4.193
67465W        W26968  42.465  43.780   4.219
67466W        W26969  18.256  40.906  14.399
67467W        W26970  19.662   8.691  11.429
67468W        W26971  35.962  24.575  14.884
67469W        W26972  18.551  22.672  10.505
67470W        W26973  12.653  38.877  14.880
67471W        W26974  18.228  44.981  11.381
67472W        W26975  21.693  36.861   1.809
67473W        W26976  31.613  35.874  12.467
67474W        W26977   0.461  14.187   2.409
67475W        W26978  21.708  12.267   3.308
67476W        W26979  35.073  43.986   1.378
67477W        W26980  12.729  39.488   3.863
67478W        W26981  19.664  42.980  10.460
67479W        W26982  38.969  12.296  11.909
67480W        W26983  30.636  35.511   5.242
67481W        W26984   5.724  13.617   4.198
67482W        W26985  22.555  31.496   1.358
67483W        W26986  41.000   8.872   3.351
67484W        W26987  36.982  37.524  10.470
67485W        W26988   3.437   2.354  14.393
67486W        W26989   7.238  18.105  13.370
67487W        W26990  18.136  20.593   2.663
67488W        W26991   5.251  41.422  12.058
67489W        W26992  36.950  39.538   4.684
67490W        W26993   2.860  34.490   0.726
67491W        W26994  35.575  13.225  14.453
67492W        W26995   3.455  17.679   4.261
67493W        W26996  42.503  10.348   3.828
67494W        W26997  10.852  12.185  14.980
67495W        W26998  16.100  14.675  12.841
67496W        W26999  29.560  28.067  10.014
67497W        W27000  26.571  39.017   4.751
67498W        W27001  21.240  40.306  12.903
67499W        W27002  35.033  15.102   2.318
67500W        W27003  30.109  41.324  13.479
67501W        W27004  37.919  21.127   3.679
67502W        W27005   8.704  32.587  13.524
67503W        W27006  42.412  29.432  14.442
67504W        W27007  12.836   0.322   1.290
67505W        W27008  42.375   7.801   1.878
67506W        W27009  43.911   9.353  14.276
67507W        W27010  30.024  35.577   2.418
67508W        W27011  15.582  41.316  10.429
67509W        W27012  26.982  38.869   4.829
67510W        W27013  16.133  13.700  14.818
67511W        W27014  17.196  31.970   0.939
67512W        W27015  41.377  38.442   1.803
67513W        W27016  42.875  26.208   4.247
67514W        W27017  32.492   9.151  14.908
67515W        W27018  16.291  15.821   3.239
67516W        W27019   3.797  36.981   0.267
67517W        W27020  22.187   1.479  12.063
67518W        W27021   2.364  10.269  13.486
67519W        W27022  43.509  16.190   4.132
67520W        W27023  22.731   4.388  14.456
67521W        W27024  12.274   8.387   0.947
67522W        W27025   1.830   9.261  13.438
67523W        W27026   7.237   6.379   4.177
67524W        W27027   4.344  10.832  12.408
67525W        W27028  31.090  41.960  14.798
67526W        W27029  25.548  26.697  13.896
67527W        W27030  35.061  10.309  14.293
67528W        W27031  19.612  43.296   0.394
67529W        W27032  42.450  30.966  11.897
67530W        W27033  38.513  41.472  14.352
67531W        W27034  10.750   0.294  13.349
67532W        W27035  24.591  14.313  12.437
67533W        W27036  30.544   3.215   5.119
67534W        W27037  38.903  15.645  11.459
67535W        W27038  26.556  44.389   1.266
67536W        W27039  14.708  26.701  13.467
67537W        W27040  10.208   5.273   4.697
67538W        W27041   0.922   1.839  11.390
67539W        W27042  18.775  10.799  11.420
67540W        W27043  14.264  22.611   3.204
67541W        W27044  20.209   5.352   0.944
67542W        W27045  19.191  27.064   2.308
67543W        W27046  41.913  36.876  14.393
67544W        W27047  32.091  12.687  12.879
67545W        W27048  39.317  29.490   0.936
67546W        W27049  34.425   7.191  10.587
67547W        W27050   7.797  41.832  11.038
67548W        W27051  33.953  20.093  11.063
67549W        W27052  11.197   5.249  13.865
67550W        W27053  26.618  38.407  13.888
67551W        W27054   8.838  10.821  11.379
67552W        W27055  23.106  17.636   1.439
67553W        W27056   8.898  31.059  11.424
67554W        W27057  37.866  17.685   0.942
67555W        W27058   1.437   6.876   1.408
67556W        W27059  33.910  17.296   0.879
67557W        W27060   7.224  38.822  13.030
67558W        W27061  32.041  19.050  13.349
67559W        W27062  24.630  28.948   0.382
67560W        W27063  13.762  29.490  13.517
67561W        W27064  17.573  15.118  11.125
67562W        W27065  11.817   4.832   2.792
67563W        W27066  44.007   2.748  13.480
67564W        W27067   6.201  21.542  12.898
67565W        W27068  36.540  28.546   2.324
67566W        W27069  24.994  13.193   3.651
67567W        W27070  43.012  24.206  12.910
67568W        W27071  20.089  19.639   0.825
67569W        W27072  25.562  42.346   0.403
67570W        W27073  18.060  39.322  13.899
67571W        W27074   4.889  34.071   3.346
67572W        W27075  38.401   4.350   4.220
67573W        W27076   3.748  30.955   1.724
67574W        W27077   9.270   3.835   1.324
67575W        W27078  31.980  37.840   0.733
67576W        W27079   6.763  15.122  13.377
67577W        W27080   9.339   9.241   0.727
67578W        W27081  32.905  31.920  10.600
67579W        W27082  38.038  25.545   4.175
67580W        W27083   3.329  23.644   1.725
67581W        W27084  35.020  37.859  11.050
67582W        W27085  36.380  24.022  10.439
67583W        W27086   9.373  39.504  11.562
67584W        W27087  21.149  14.588  14.780
67585W        W27088  26.148  29.436  11.982
67586W        W27089  22.185  10.322   1.397
67587W        W27090  17.255   2.728   2.877
67588W        W27091  11.737  42.325   0.842
67589W        W27092  23.695  12.727  12.410
67590W        W27093  27.464  28.514  12.364
67591W        W27094  36.485   9.345  13.525
67592W        W27095  18.781   1.890   4.750
67593W        W27096  31.977  33.030   1.421
67594W        W27097   6.283  34.465  11.030
67595W        W27098  27.943  23.604  13.338
67596W        W27099   9.373  40.890  11.893
67597W        W27100  42.317  12.163  12.577
67598W        W27101  31.556  43.832   4.829
67599W        W27102  10.296  34.445   2.375
67600W        W27103  44.324  39.322   4.832
67601W        W27104  33.450  11.838   2.687
67602W        W27105  18.078  15.700   3.164
67603W        W27106   9.651  18.286   3.823
67604W        W27107  26.528  31.154  14.375
67605W        W27108   6.888  28.504  14.512
67606W        W27109  17.635  43.885   4.303
67607W        W27110  42.936  27.056  13.037
67608W        W27111   5.766  34.890   0.364
67609W        W27112   8.711  13.197   2.838
67610W        W27113  24.167  34.001  14.412
67611W        W27114  18.549  35.076   2.726
67612W        W27115  15.711  12.792   5.189
67613W        W27116  31.907  44.379   1.724
67614W        W27117  22.665  17.201  10.511
67615W        W27118  38.012   4.730   2.898
67616W        W27119  26.603  33.132   0.453
67617W        W27120  29.011  15.605   4.267
67618W        W27121  35.884  26.484  11.937
67619W        W27122  38.968  33.002  11.920
67620W        W27123  35.400  35.099  12.943
67621W        W27124  10.335  33.478   1.277
67622W        W27125  15.765  37.023  13.821
67623W        W27126  16.671  18.152  12.558
67624W        W27127  27.684   9.789   1.807
67625W        W27128  43.865  42.964  12.481
67626W        W27129   2.328  29.544   3.305
67627W        W27130  21.227   1.466  14.329
67628W        W27131  19.608   5.732  14.930
67629W        W27132   0.743  42.318  12.392
67630W        W27133  12.281  32.120  11.577
67631W        W27134   4.833  25.039   0.908
67632W        W27135  44.786  29.488   0.430
67633W        W27136  30.570  24.129  12.377
67634W        W27137  28.021  22.012  12.378
67635W        W27138  13.829  25.024  14.488
67636W        W27139  16.678  32.914   2.307
67637W        W27140  17.614  14.590  11.401
67638W        W27141  37.391  44.289  12.491
67639W        W27142   2.775   4.248   2.198
67640W        W27143   7.324   5.386   2.689
67641W        W27144   5.233  24.720   3.693
67642W        W27145  21.087  28.616   2.224
67643W        W27146  23.184  20.604  10.500
67644W        W27147   0.303  17.762  12.384
67645W        W27148  30.636  10.679   4.707
67646W        W27149  34.867  11.137   1.439
67647W        W27150  34.020  28.444   4.268
67648W        W27151  17.261  26.168  12.968
67649W        W27152  22.105  43.507   3.671
67650W        W27153  32.990  12.693   0.329
67651W        W27154  15.111  23.695   3.348
67652W        W27155  24.166  36.544   1.861
67653W        W27156  12.744  38.488   2.712
67654W        W27157  22.647   4.429   3.270
67655W        W27158  33.991  11.341  13.018
67656W        W27159  36.077  31.476  14.331
67657W        W27160   6.410  20.745  11.416
67658W        W27161  30.565  32.622   0.459
67659W        W27162  14.773   8.690   4.211
67660W        W27163  15.745  36.899   3.175
67661W        W27164  24.624  31.412   4.827
67662W        W27165  43.514   1.852   4.652
67663W        W27166  34.982  43.422  10.536
67664W        W27167  18.627  15.783  10.637
67665W        W27168  33.981  17.663   1.761
67666W        W27169  39.422  19.209  10.613
67667W        W27170  12.345  19.612   4.252
67668W        W27171  11.294   5.922   3.274
67669W        W27172  26.570   6.372  12.929
67670W        W27173   4.807  42.342   2.355
67671W        W27174  19.169  12.692  12.045
67672W        W27175  25.039  24.480  11.381
67673W        W27176   5.398  37.457   1.921
67674W        W27177  34.989  37.007  13.395
67675W        W27178   6.704  37.551   0.454
67676W        W27179  42.899  22.681  14.301
67677W        W27180  43.407  15.142  14.012
67678W        W27181  17.299   4.268   3.786
67679W        W27182   5.791  12.690  13.062
67680W        W27183   7.711  39.489   3.170
67681W        W27184  21.252  44.809   2.858
67682W        W27185  27.676  28.571   5.797
67683W        W27186  32.940   4.311  12.087
67684W        W27187  37.937   2.301   1.308
67685W        W27188  41.029  22.117   4.636
67686W        W27189  23.617   0.397  14.005
67687W        W27190   8.362  31.572   3.870
67688W        W27191  11.791  38.557  10.481
67689W        W27192  15.178  40.312   3.779
67690W        W27193  17.797  39.376  12.533
67691W        W27194  30.521  25.217  12.481
67692W        W27195  18.585   8.160   2.806
67693W        W27196  35.487  23.998   3.274
67694W        W27197  34.563  29.467  13.420
67695W        W27198  38.858   3.393   5.296
67696W        W27199   1.275  30.026   1.888
67697W        W27200  26.688  30.002  14.897
67698W        W27201  11.728  36.538   4.809
67699W        W27202  36.464   3.233  14.763
67700W        W27203   4.791   0.939   3.210
67701W        W27204  40.895   7.887  11.915
67702W        W27205  12.718  41.037   1.837
67703W        W27206  34.417  26.688  13.419
67704W        W27207  30.434  42.865   1.933
67705W        W27208  26.546  23.241   2.257
67706W        W27209  32.442  22.684   2.774
67707W        W27210   7.721  17.146   4.150
67708W        W27211  35.420  27.651  14.009
67709W        W27212  13.172  29.669   1.388
67710W        W27213  37.578  32.491   1.312
67711W        W27214   6.856  27.130   0.952
67712W        W27215  20.121  23.003   4.294
67713W        W27216  36.968  11.347   2.704
67714W        W27217  18.755   2.348   2.877
67715W        W27218  12.775  38.061   3.328
67716W        W27219   7.729  40.354   2.232
67717W        W27220  35.505  25.680   1.254
67718W        W27221  33.573  26.680   2.404
67719W        W27222   7.298  11.748  13.003
67720W        W27223  21.749   9.755   4.270
67721W        W27224  43.885  15.659  10.940
67722W        W27225  29.136  23.178  13.529
67723W        W27226  37.000   0.251  14.973
67724W        W27227  43.792  13.799   0.823
67725W        W27228  35.387  15.127   0.833
67726W        W27229  38.477  31.049  11.575
67727W        W27230  43.403  18.627   1.726
67728W        W27231   9.215  40.976   0.446
67729W        W27232  22.523  11.852  11.086
67730W        W27233   7.327   2.735   4.136
67731W        W27234   2.779  26.543   2.878
67732W        W27235  23.079  41.423  11.056
67733W        W27236  17.276   6.845  13.507
67734W        W27237  42.305   0.794   0.411
67735W        W27238  43.362  32.510  10.519
67736W        W27239  39.843  33.567  14.436
67737W        W27240  28.931  35.558   0.746
67738W        W27241  31.468  34.438  11.920
67739W        W27242  38.072  28.444   2.845
67740W        W27243   5.209  36.534   4.338
67741W        W27244  34.866  36.923   4.292
67742W        W27245  27.525  37.874   2.894
67743W        W27246  28.009  10.341   9.982
67744W        W27247  19.617  23.046   2.293
67745W        W27248  33.558  21.142   0.771
67746W        W27249  12.137  21.190   0.389
67747W        W27250  14.829  13.129   4.724
67748W        W27251   1.426  36.546   2.230
67749W        W27252   5.758  13.270   3.642
67750W        W27253  36.993  21.518   4.354
67751W        W27254   7.725  36.436  11.535
67752W        W27255   1.483  25.006  13.506
67753W        W27256  23.699  39.417  12.478
67754W        W27257  34.081   8.295   4.799
67755W        W27258   0.433   9.763  10.568
67756W        W27259   8.180  28.457  14.513
67757W        W27260  23.004  23.032   1.252
67758W        W27261  22.085  40.881  12.974
67759W        W27262  44.998  25.696  11.609
67760W        W27263  35.029  16.229   1.850
67761W        W27264  30.937  28.533   0.377
67762W        W27265  26.476  13.121   4.699
67763W        W27266   2.464   8.733  10.454
67764W        W27267  27.529  25.175  12.000
67765W        W27268  25.973   3.257   1.368
67766W        W27269   3.932  34.449  13.807
67767W        W27270  27.584  32.615   2.671
67768W        W27271  34.914  19.253  12.574
67769W        W27272  28.987  40.517  11.880
67770W        W27273  19.224  19.196   4.674
67771W        W27274  38.821  28.971  12.449
67772W        W27275  24.532  31.137   0.879
67773W        W27276  44.313  27.171  11.932
67774W        W27277  25.992  40.859   4.822
67775W        W27278   5.395   6.798  12.053
67776W        W27279  41.527   2.331  12.477
67777W        W27280  18.699  33.015  11.477
67778W        W27281   2.739  32.889   4.800
67779W        W27282  27.088  37.552   0.781
67780W        W27283  36.527   2.957   2.681
67781W        W27284  43.779  11.867   4.166
67782W        W27285  21.745   8.191  14.813
67783W        W27286  29.516   8.783   5.228
67784W        W27287  33.949  12.168   2.766
67785W        W27288  23.556   9.652   1.732
67786W        W27289  12.713  33.494  12.025
67787W        W27290  41.997  24.030   1.346
67788W        W27291  21.226  15.601   0.314
67789W        W27292  29.496   6.271   4.288
67790W        W27293  14.175  21.145  11.536
67791W        W27294  31.919  43.876   3.185
67792W        W27295  17.189  17.280  12.468
67793W        W27296  40.842  32.447  13.310
67794W        W27297   5.230  23.706  14.797
67795W        W27298  44.406   1.414   4.715
67796W        W27299   6.829  38.928  11.601
67797W        W27300  23.228  43.843   9.999
67798W        W27301  27.650  18.060  11.589
67799W        W27302  22.601  35.995  11.433
67800W        W27303  28.606  24.152   4.291
67801W        W27304  22.553  37.520  14.898
67802W        W27305  22.593  21.065  10.504
67803W        W27306  40.461  14.227   0.937
67804W        W27307  13.274  17.129   5.274
67805W        W27308  18.682  34.462   1.757
67806W        W27309   7.827  19.069   9.943
67807W        W27310  41.968  26.561   0.729
67808W        W27311   4.813  27.135  10.153
67809W        W27312   8.823  33.527  10.481
67810W        W27313   8.245  14.233   5.628
67811W        W27314   6.816   3.395  13.809
67812W        W27315  30.476   6.265  13.486
67813W        W27316  39.540  15.195   3.828
67814W        W27317  15.247   4.313   0.797
67815W        W27318  41.420  44.759  14.349
67816W        W27319  21.593   7.861   1.766
67817W        W27320  18.099  21.130   2.292
67818W        W27321  34.400   5.787   1.334
67819W        W27322  13.315  12.337  14.838
67820W        W27323   2.315  24.079   5.094
67821W        W27324  26.204  31.467  11.492
67822W        W27325   6.905  39.022   4.654
67823W        W27326  43.407  38.840   1.405
67824W        W27327   6.751  42.848   3.339
67825W        W27328   5.880   4.354  13.444
67826W        W27329  42.468  24.074  14.870
67827W        W27330  37.545  40.476   1.822
67828W        W27331   1.919  32.475  12.437
67829W        W27332  43.318   6.748   9.607
67830W        W27333  35.964  11.193   2.745
67831W        W27334  13.642  34.052   0.390
67832W        W27335  35.402  26.621   2.689
67833W        W27336  39.839  29.573   3.656
67834W        W27337   4.208  31.479   3.222
67835W        W27338   3.344  11.798  11.053
67836W        W27339  34.911  22.516   0.408
67837W        W27340  36.094   6.858   4.214
67838W        W27341  23.515  23.691   1.279
67839W        W27342  22.705  34.984  11.499
67840W        W27343  29.570  44.273   2.890
67841W        W27344  14.265  10.337   1.298
67842W        W27345  42.809  21.056   1.758
67843W        W27346  18.617  23.234  13.855
67844W        W27347  18.584  31.000  10.473
67845W        W27348  35.550  10.165  10.105
67846W        W27349  18.697  28.162   0.776
67847W        W27350  23.173  25.993   3.647
67848W        W27351  44.263  29.608   1.362
67849W        W27352  39.820  44.842  11.379
67850W        W27353  41.432  31.030  12.478
67851W        W27354  13.730  44.317   0.428
67852W        W27355  33.427   8.741   1.756
67853W        W27356  30.025  41.007   3.847
67854W        W27357  27.614  36.883  14.996
67855W        W27358  11.631   8.850   2.836
67856W        W27359   0.784  12.652   2.844
67857W        W27360  19.057   2.354  14.372
67858W        W27361  12.832  15.713  13.875
67859W        W27362  14.601  17.574  13.964
67860W        W27363  36.919  35.546   2.314
67861W        W27364  23.123  44.367  10.459
67862W        W27365  33.517  34.464  10.640
67863W        W27366  42.500   3.261   0.884
67864W        W27367  28.011  20.598  12.403
67865W        W27368  37.494  15.790  10.009
67866W        W27369   2.770  17.076   2.366
67867W        W27370   3.424  20.232   4.264
67868W        W27371  13.260  43.983   1.790
67869W        W27372   9.299  10.338  13.828
67870W        W27373  34.934  36.387  12.059
67871W        W27374  38.490  31.636   3.323
67872W        W27375  12.849  33.410   0.432
67873W        W27376  22.022  37.061   3.683
67874W        W27377  40.921  42.325  11.063
67875W        W27378   5.307  24.656   2.869
67876W        W27379  41.502  16.078   1.242
67877W        W27380   5.705  29.106  13.966
67878W        W27381  39.314  38.564  12.394
67879W        W27382  10.723   6.768  11.437
67880W        W27383  14.204  32.467   0.756
67881W        W27384  15.728  10.737   0.255
67882W        W27385  20.570  33.093  10.975
67883W        W27386  21.541   7.185  11.424
67884W        W27387   4.809  31.490   1.698
67885W        W27388  22.037  11.330   0.273
67886W        W27389  27.676  12.698   3.632
67887W        W27390  39.054  14.738  14.413
67888W        W27391   4.848  22.527  14.317
67889W        W27392   8.797  19.160  13.408
67890W        W27393  36.593  29.616  12.922
67891W        W27394   9.737   2.934   1.734
67892W        W27395  44.370  35.599  12.340
67893W        W27396  15.789  33.476   1.807
67894W        W27397   7.849  26.462   5.194
67895W        W27398   5.347  19.097   3.682
67896W        W27399  30.961  25.037   0.832
67897W        W27400   9.258  12.337   0.341
67898W        W27401  33.463   6.716  14.413
67899W        W27402  23.685   1.246   3.355
67900W        W27403  26.558  28.517  10.149
67901W        W27404  16.229  16.288  12.355
67902W        W27405  14.664   0.867  13.826
67903W        W27406   2.852  42.856  13.523
67904W        W27407  36.032   1.969  11.525
67905W        W27408  12.348   9.390   1.259
67906W        W27409  27.480   0.832  14.928
67907W        W27410  22.245   0.449   3.330
67908W        W27411  15.713   4.228   4.201
67909W        W27412  19.613  35.947  13.026
67910W        W27413  19.606   5.437  13.507
67911W        W27414  28.951  18.267  11.921
67912W        W27415  28.987  12.210  10.101
67913W        W27416  13.636  19.651  14.497
67914W        W27417   9.678  22.204   4.247
67915W        W27418  30.591  30.056  12.072
67916W        W27419   3.251  26.557  11.928
67917W        W27420   0.967  44.289   3.145
67918W        W27421   3.451  16.160   4.709
67919W        W27422  21.031  40.906  14.925
67920W        W27423  23.175  17.111   1.841
67921W        W27424  31.569  39.853   5.174
67922W        W27425  39.433  20.650   1.235
67923W        W27426  19.723  27.071  12.576
67924W        W27427  22.556   6.848   2.382
67925W        W27428  35.018  11.683   3.360
67926W        W27429   8.868   8.809  13.922
67927W        W27430  12.174  26.462   0.909
67928W        W27431  24.981   9.332   0.786
67929W        W27432  30.596  27.605   1.328
67930W        W27433   6.302  21.182   2.763
67931W        W27434  13.609  25.695   2.270
67932W        W27435   8.362  24.609  12.084
67933W        W27436  24.165  14.615   1.770
67934W        W27437   9.833  21.249   3.295
67935W        W27438   3.907   2.779   2.252
67936W        W27439  33.026  42.877  10.451
67937W        W27440  16.790  16.186   2.662
67938W        W27441  25.680  26.988   2.715
67939W        W27442  44.412  32.115   0.879
67940W        W27443   1.246  34.983   0.257
67941W        W27444  34.432   7.682   1.342
67942W        W27445   8.774  28.089  10.949
67943W        W27446  10.759  29.657   4.674
67944W        W27447   3.315   7.869  11.528
67945W        W27448   4.285   7.666   2.312
67946W        W27449  23.153  25.566   3.242
67947W        W27450  15.582  42.339  14.404
67948W        W27451  34.596  13.606   0.938
67949W        W27452   9.781   0.798   2.295
67950W        W27453  10.359  34.371  13.428
67951W        W27454   0.492  32.520  14.998
67952W        W27455  26.592  22.180   4.136
67953W        W27456  11.310  37.064  13.363
67954W        W27457   4.304   1.449  13.034
67955W        W27458  29.011  37.473   2.678
67956W        W27459  32.484  25.696  11.123
67957W        W27460  26.015  30.956   4.260
67958W        W27461  24.128  18.053  10.081
67959W        W27462  17.644  40.960   0.870
67960W        W27463  28.127  29.960   0.449
67961W        W27464  42.972  43.805   0.922
67962W        W27465  17.781   8.391   4.644
67963W        W27466  40.425  41.989  10.507
67964W        W27467  18.631  44.778  11.425
67965W        W27468  17.773  42.283  10.939
67966W        W27469  34.547  11.144  14.315
67967W        W27470  42.344  23.674   1.414
67968W        W27471   9.865  23.536   0.917
67969W        W27472   3.217   8.711   1.358
67970W        W27473  34.095   1.450  11.412
67971W        W27474  24.225   5.777   0.787
67972W        W27475  37.446  24.009  11.590
67973W        W27476   1.414  15.221   0.296
67974W        W27477   4.444  20.185  13.371
67975W        W27478  11.635  42.888  12.830
67976W        W27479  28.176  43.294   4.262
67977W        W27480   0.774  40.340  13.029
67978W        W27481  31.937  39.940  11.048
67979W        W27482   1.741   9.177   1.328
67980W        W27483  33.108  10.688  14.494
67981W        W27484   0.354  27.558   2.369
67982W        W27485  20.714   2.786   0.905
67983W        W27486  37.551   6.418   1.450
67984W        W27487  31.052  31.973  12.576
67985W        W27488  35.034   1.293  12.939
67986W        W27489  13.162   8.684   0.798
67987W        W27490   9.317  41.809   2.892
67988W        W27491  20.189  19.067  11.027
67989W        W27492  41.340  22.143   1.794
67990W        W27493  43.441  22.106  13.348
67991W        W27494  39.893  27.500   3.718
67992W        W27495   8.278  20.102   2.315
67993W        W27496   6.899  12.697  10.543
67994W        W27497  42.851  20.711  13.330
67995W        W27498  26.517   9.702  13.361
67996W        W27499  29.153  26.553   4.169
67997W        W27500  25.627  23.527   1.887
67998W        W27501  12.172  14.774   5.280
67999W        W27502  40.543  42.337   3.250
68000W        W27503   6.319   1.927  12.914
68001W        W27504   7.342  33.415   4.665
68002W        W27505   1.299   0.462  13.320
68003W        W27506  12.235  44.288  14.793
68004W        W27507  33.057  17.709   1.852
68005W        W27508   0.262   8.347  14.495
68006W        W27509  36.877   5.223  12.878
68007W        W27510  42.381  15.274  12.050
68008W        W27511   5.263   0.807   0.910
68009W        W27512  12.623  24.151   3.174
68010W        W27513  29.467  14.670   4.174
68011W        W27514  16.786  26.160   0.396
68012W        W27515  22.568  42.866   4.742
68013W        W27516  26.148   2.231  14.343
68014W        W27517  11.245   0.755  12.422
68015W        W27518  28.031  28.628   2.686
68016W        W27519   3.425  36.053   4.333
68017W        W27520  11.800  34.018  11.092
68018W        W27521  13.173  32.403   2.885
68019W        W27522  39.971  38.914   3.296
68020W        W27523  17.660  20.146   4.129
68021W        W27524  38.555  39.862   4.210
68022W        W27525  43.269   1.936  11.115
68023W        W27526  16.084  36.951   3.765
68024W        W27527  44.961  34.865   9.998
68025W        W27528  14.760   1.936  13.326
68026W        W27529  35.044   8.163  13.822
68027W        W27530  15.248   4.886  12.394
68028W        W27531  24.713  32.135  13.448
68029W        W27532  10.810  16.216  13.520
68030W        W27533   8.832  14.232   3.271
68031W        W27534  33.419  34.987  14.968
68032W        W27535  13.200  31.959   0.326
68033W        W27536  18.277  19.096   0.243
68034W        W27537  16.127  27.967  12.853
68035W        W27538  17.158  31.938  12.054
68036W        W27539  13.261  43.960   3.369
68037W        W27540  26.091   4.406   2.371
68038W        W27541  37.920  33.123   1.860
68039W        W27542   0.764  12.622   4.257
68040W        W27543  37.448  38.856   3.206
68041W        W27544  35.479  31.952  14.776
68042W        W27545   8.784   7.837  11.545
68043W        W27546  43.516  28.466   0.294
68044W        W27547  27.565  15.170   9.510
68045W        W27548   2.951  18.181  11.932
68046W        W27549  34.614  28.668  11.523
68047W        W27550  42.015  26.154  10.530
68048W        W27551   2.758   3.382   1.729
68049W        W27552   3.244  27.511  11.493
68050W        W27553   8.665   7.749   4.693
68051W        W27554   6.677   5.816  11.102
68052W        W27555   8.354  10.744  10.618
68053W        W27556  13.157  10.350  11.052
68054W        W27557  14.272   0.360   4.310
68055W        W27558  10.718  20.667   0.479
68056W        W27559  42.821  14.211  13.512
68057W        W27560   5.802   4.272   1.829
68058W        W27561  12.703  31.061   4.346
68059W        W27562   5.704  30.631  12.909
68060W        W27563  33.909  14.647  13.030
68061W        W27564  17.702  29.050   1.403
68062W        W27565  24.495  27.640   1.816
68063W        W27566  43.796   9.361  10.977
68064W        W27567  34.908  21.620   0.778
68065W        W27568  22.224   7.295  12.940
68066W        W27569  23.140  18.715  13.316
68067W        W27570   0.383  39.505  10.903
68068W        W27571   2.848  41.460   2.876
68069W        W27572  35.979  18.270   2.372
68070W        W27573  15.637   0.443   5.190
68071W        W27574  37.357  44.912  14.494
68072W        W27575  21.130  15.236  13.903
68073W        W27576  31.153  37.576   3.187
68074W        W27577  13.270   6.217  12.861
68075W        W27578  14.621  12.203  11.097
68076W        W27579  25.676  19.162  12.877
68077W        W27580  26.521  36.950  11.060
68078W        W27581  13.798  12.121  10.465
68079W        W27582  15.617   9.845   0.788
68080W        W27583  28.124  27.009   3.751
68081W        W27584  39.555  14.160   2.736
68082W        W27585  28.966   7.219   4.241
68083W        W27586  23.133  32.886   0.313
68084W        W27587   8.167  30.949   3.813
68085W        W27588  13.796  37.383  12.530
68086W        W27589  30.437  44.503   0.922
68087W        W27590  11.206  35.541  11.976
68088W        W27591   8.806   3.444  11.883
68089W        W27592  41.966   2.812  11.538
68090W        W27593  29.547  17.784  14.374
68091W        W27594  14.651  37.425  13.415
68092W        W27595  30.074  37.033  12.377
68093W        W27596  13.164  29.521  10.072
68094W        W27597  30.077  11.328  10.120
68095W        W27598  10.333   9.815   1.217
68096W        W27599  17.084  38.487   0.770
68097W        W27600   3.223  35.102   5.139
68098W        W27601  11.691  23.026   1.225
68099W        W27602  43.273  20.067  13.519
68100W        W27603   4.348  40.434   3.184
68101W        W27604   8.340  12.792  14.483
68102W        W27605  14.096  22.711   1.751
68103W        W27606  10.382   8.167   1.367
68104W        W27607  41.818  14.600   2.739
68105W        W27608   1.960  14.710  13.367
68106W        W27609  12.134  37.392   4.276
68107W        W27610  24.713   3.779   5.240
68108W        W27611   5.806  44.411  14.795
68109W        W27612  42.513  12.321  13.380
68110W        W27613  13.805   5.791   3.193
68111W        W27614  34.581  44.859  14.900
68112W        W27615  39.503   0.357  12.842
68113W        W27616  22.186  20.088   0.775
68114W        W27617  30.597  25.120   4.697
68115W        W27618  29.085  26.034   3.657
68116W        W27619  29.024  39.946  14.896
68117W        W27620  17.737  36.381   3.298
68118W        W27621   0.448  40.045  11.042
68119W        W27622  14.686  39.450  11.590
68120W        W27623   3.422  39.514   0.758
68121W        W27624  39.848   5.325  14.299
68122W        W27625  25.069  32.448   1.694
68123W        W27626  37.901  40.407   0.318
68124W        W27627   6.828  34.986  14.295
68125W        W27628  42.422  27.963   0.879
68126W        W27629  12.165  10.360   2.264
68127W        W27630   1.910  16.807  10.539
68128W        W27631   0.260   4.259   4.126
68129W        W27632  37.447  38.007   2.761
68130W        W27633  26.585   6.729  12.879
68131W        W27634  24.666  25.962   4.113
68132W        W27635  43.508  27.617   3.821
68133W        W27636   1.476  26.091   4.197
68134W        W27637  15.757  23.194   0.929
68135W        W27638   8.748  16.252  12.839
68136W        W27639   5.386   9.823  14.460
68137W        W27640  18.246   6.788   2.296
68138W        W27641  38.503  32.928   1.701
68139W        W27642  39.489  39.934  12.852
68140W        W27643  37.497  35.092  11.067
68141W        W27644  36.069   7.905   2.707
68142W        W27645   2.936   7.666   3.791
68143W        W27646  16.088  21.622  14.020
68144W        W27647  42.423   9.878  12.396
68145W        W27648  38.562  30.061   1.319
68146W        W27649  32.483   5.248  13.541
68147W        W27650  20.764  18.711   0.428
68148W        W27651   1.286  21.105  11.549
68149W        W27652  21.640  25.000  13.792
68150W        W27653   7.368  16.708   4.201
68151W        W27654  26.021  17.273  13.466
68152W        W27655  40.424  44.812   0.838
68153W        W27656  44.326   9.204   0.398
68154W        W27657  43.883  14.193  14.356
68155W        W27658   0.489  11.201  14.850
68156W        W27659  12.624  15.761   2.723
68157W        W27660  27.976   0.402   4.134
68158W        W27661  23.144  30.638   3.785
68159W        W27662  36.986   3.448   3.170
68160W        W27663   6.741  10.237  11.021
68161W        W27664  25.181  41.372  10.971
68162W        W27665   5.265  15.266   0.413
68163W        W27666  23.516  30.517   0.857
68164W        W27667  19.222  28.956  12.549
68165W        W27668   9.286  38.571   3.728
68166W        W27669  35.552   0.380   4.355
68167W        W27670  34.591  16.567   4.208
68168W        W27671   3.269  20.632  13.024
68169W        W27672  12.141  43.514  14.864
68170W        W27673  17.616  29.026  11.030
68171W        W27674   9.387   6.917  13.392
68172W        W27675  38.410  32.098   0.285
68173W        W27676  10.706  40.023  14.451
68174W        W27677  21.738  39.901  13.915
68175W        W27678  11.621   1.400   2.688
68176W        W27679  20.141  29.098   4.153
68177W        W27680  18.220  38.920   1.806
68178W        W27681  23.659  25.614  12.355
68179W        W27682   4.751  30.909  12.418
68180W        W27683  14.183   7.267  11.004
68181W        W27684  30.638  41.438  14.385
68182W        W27685   6.243   3.397   1.804
68183W        W27686  27.520  34.873   3.210
68184W        W27687  25.638  12.287  10.620
68185W        W27688  17.585  36.475  10.609
68186W        W27689  34.381  37.383   2.251
68187W        W27690   2.956   0.380   2.411
68188W        W27691  13.348  21.039  10.118
68189W        W27692  11.156  28.120   2.867
68190W        W27693  10.189   7.765  11.927
68191W        W27694  44.344   2.434  13.331
68192W        W27695  16.593  12.744   0.737
68193W        W27696  17.085  42.307  10.471
68194W        W27697  30.083  39.345  11.021
68195W        W27698  27.141   4.357  11.107
68196W        W27699  15.264  19.092  13.009
68197W        W27700  36.551   5.832   1.351
68198W        W27701  41.340  26.678  14.452
68199W        W27702   2.732  21.037  11.048
68200W        W27703  19.075   8.818   2.322
68201W        W27704  33.012  30.037  11.489
68202W        W27705  31.898  44.816  11.543
68203W        W27706  37.562  25.972  11.864
68204W        W27707  11.753  27.477   1.357
68205W        W27708  19.698  10.362  10.947
68206W        W27709  12.262  42.360  14.827
68207W        W27710  11.738  20.235  14.287
68208W        W27711  11.234   9.376   0.872
68209W        W27712   7.399  44.282  12.539
68210W        W27713  17.117  23.060   4.806
68211W        W27714  37.501  17.709   4.272
68212W        W27715   9.753   8.783  13.360
68213W        W27716  34.611  43.865  10.468
68214W        W27717  14.302  43.860  10.570
68215W        W27718  24.505  41.946  13.464
68216W        W27719  21.621  36.955  12.926
68217W        W27720  12.220   1.884   2.293
68218W        W27721   4.912   9.728  13.056
68219W        W27722  36.931  42.351   2.375
68220W        W27723  28.162  36.946   0.744
68221W        W27724   5.327   3.767   3.377
68222W        W27725   4.298  42.393   1.770
68223W        W27726  35.864  44.977  10.409
68224W        W27727  31.930   1.390  12.864
68225W        W27728  10.173  44.773   3.199
68226W        W27729   0.338  29.118  12.403
68227W        W27730  13.169  23.522  11.926
68228W        W27731  24.081   5.225  14.397
68229W        W27732   3.793   2.367   9.489
68230W        W27733  39.532  20.575   0.343
68231W        W27734  20.133  18.169  10.422
68232W        W27735  34.589  44.931   4.240
68233W        W27736  32.575   0.780  13.023
68234W        W27737  16.083  25.551  14.337
68235W        W27738  42.305  20.229   0.731
68236W        W27739  32.062  17.284   5.774
68237W        W27740   3.281  29.591  12.517
68238W        W27741  30.616   0.256  10.946
68239W        W27742   8.751  25.033   0.315
68240W        W27743  34.476  36.581  13.917
68241W        W27744  38.325  18.200   2.733
68242W        W27745  33.463   4.731  10.560
68243W        W27746  12.819   7.714   1.860
68244W        W27747  18.610  18.147   4.142
68245W        W27748  42.329  40.498   0.745
68246W        W27749  11.853  36.506  10.891
68247W        W27750  15.661  27.182   4.744
68248W        W27751  35.058  14.208   3.236
68249W        W27752  40.887  42.793   3.343
68250W        W27753   4.430  27.549  10.099
68251W        W27754   5.362  16.102   3.833
68252W        W27755  12.854  30.153  13.797
68253W        W27756  33.086  12.359  14.981
68254W        W27757  28.539  30.006   5.297
68255W        W27758  28.099  14.723   1.752
68256W        W27759  16.638  36.944   1.375
68257W        W27760  28.655   7.391  14.452
68258W        W27761  20.546  17.086  13.328
68259W        W27762  38.973  40.347   3.192
68260W        W27763  40.030  13.246   3.329
68261W        W27764  16.128   4.337  10.938
68262W        W27765  26.109   0.900  14.865
68263W        W27766  20.714  40.405   1.411
68264W        W27767  28.100  28.026  14.350
68265W        W27768  31.492   0.746   2.685
68266W        W27769   5.229   9.263   0.732
68267W        W27770  35.007  17.642   3.741
68268W        W27771  15.688  44.448   3.691
68269W        W27772  34.875  38.497   1.809
68270W        W27773  35.010  34.414   1.859
68271W        W27774  38.939  19.632   3.277
68272W        W27775  30.951   6.192  12.449
68273W        W27776   6.769  34.567   0.872
68274W        W27777  22.096  35.386  11.389
68275W        W27778   0.794  10.848  11.035
68276W        W27779   5.731  23.151   4.680
68277W        W27780  27.684  13.734  14.889
68278W        W27781  17.791  28.624   2.873
68279W        W27782   8.749  41.394  11.380
68280W        W27783  39.391   8.388   4.671
68281W        W27784  25.080  38.856   0.433
68282W        W27785  30.471  44.882   3.298
68283W        W27786  10.267  36.876  12.427
68284W        W27787  14.679   0.804   2.215
68285W        W27788  35.998  14.777   1.800
68286W        W27789  26.027  40.035   1.290
68287W        W27790  29.431  18.560   3.163
68288W        W27791  42.437  42.418  10.545
68289W        W27792  12.768   8.206  12.044
68290W        W27793  26.135  32.899  13.313
68291W        W27794   7.861  21.095  14.815
68292W        W27795  21.661   3.307   3.729
68293W        W27796  43.857  34.605   0.919
68294W        W27797  15.663  21.123   3.284
68295W        W27798  34.559  25.097   0.446
68296W        W27799  39.896  27.643   2.392
68297W        W27800   8.829   9.249   1.386
68298W        W27801   3.311  14.644   2.742
68299W        W27802  35.389  15.591   1.285
68300W        W27803  38.955  17.715   0.265
68301W        W27804   3.342  14.821  14.818
68302W        W27805   8.304  16.690  13.025
68303W        W27806  24.092   9.149   1.446
68304W        W27807  24.057  33.388  14.329
68305W        W27808   0.264  29.037   4.605
68306W        W27809  19.100  19.162  14.938
68307W        W27810  32.928  38.331  14.311
68308W        W27811   5.847  40.428  11.857
68309W        W27812   2.734  33.438  14.961
68310W        W27813  43.480   6.786  13.443
68311W        W27814   5.293  25.034   2.386
68312W        W27815  37.406  40.833  10.888
68313W        W27816  10.360   8.260  13.898
68314W        W27817  20.581   0.870  11.543
68315W        W27818  41.938  25.704  11.516
68316W        W27819  20.694  23.112  12.522
68317W        W27820  43.779  15.708  14.000
68318W        W27821  44.383   9.170  12.847
68319W        W27822  43.423   8.207   1.444
68320W        W27823   5.292   4.854   3.358
68321W        W27824  39.499  10.747  11.448
68322W        W27825  41.008  19.599   0.818
68323W        W27826  14.718  39.033  12.078
68324W        W27827   1.467  24.076   0.770
68325W        W27828  36.033  35.503   1.228
68326W        W27829   6.730  31.900   3.201
68327W        W27830  26.605  35.457   2.265
68328W        W27831  23.605  43.953  13.374
68329W        W27832  10.353   1.304   3.703
68330W        W27833   5.274  35.047  10.892
68331W        W27834  22.021  14.209   2.385
68332W        W27835  27.948  36.997   0.454
68333W        W27836  39.833  16.074  11.988
68334W        W27837   3.749  36.048  11.059
68335W        W27838  30.592   0.766   4.767
68336W        W27839  43.844  18.107   3.197
68337W        W27840  26.170  28.518  12.925
68338W        W27841  29.456  10.766   4.138
68339W        W27842  18.137  16.754  12.513
68340W        W27843  44.484  27.656   2.208
68341W        W27844  28.612  23.032  10.621
68342W        W27845  42.487  20.194  14.965
68343W        W27846  35.570   5.842  11.587
68344W        W27847   1.271  22.027   2.830
68345W        W27848  11.807  30.458  11.009
68346W        W27849  24.164   9.314   1.786
68347W        W27850  29.560   8.172  12.970
68348W        W27851  13.343  29.138   4.713
68349W        W27852  23.692  32.452  13.513
68350W        W27853  11.260  24.595   4.629
68351W        W27854   3.221  18.738   0.735
68352W        W27855   0.420   9.369  11.014
68353W        W27856  39.539   1.338  10.440
68354W        W27857  28.583   3.875   3.266
68355W        W27858  16.199  17.561  11.122
68356W        W27859  22.105   3.812  13.927
68357W        W27860  37.051   6.244  13.355
68358W        W27861  39.963  14.331   2.199
68359W        W27862  12.151  38.520  11.992
68360W        W27863   2.278   6.425   5.290
68361W        W27864  38.328  21.614  10.437
68362W        W27865   9.862  24.188   0.845
68363W        W27866  12.201   0.751   4.612
68364W        W27867  21.171  41.406  12.015
68365W        W27868  42.943  18.710   9.606
68366W        W27869  29.986  19.652   3.227
68367W        W27870  25.599   6.202  12.891
68368W        W27871  27.118   5.755  12.095
68369W        W27872  39.903   9.329   4.281
68370W        W27873  12.727  42.479   3.366
68371W        W27874  43.272  42.937   1.258
68372W        W27875   5.719  30.458   3.166
68373W        W27876  44.788   8.235   2.267
68374W        W27877  16.762   7.720  13.901
68375W        W27878  33.068  11.775   2.387
68376W        W27879   2.898  36.564  10.408
68377W        W27880  22.132  13.110  13.829
68378W        W27881  19.120  36.538  13.794
68379W        W27882  25.055  22.565   3.854
68380W        W27883  20.721  33.110  14.346
68381W        W27884  13.715  10.816   2.663
68382W        W27885  22.595  37.965   4.610
68383W        W27886  35.359  24.505  11.047
68384W        W27887  35.069  17.690  11.977
68385W        W27888  21.251  34.886   3.252
68386W        W27889  29.131  30.553  12.579
68387W        W27890  22.252  31.462  12.055
68388W        W27891  28.086  15.282   1.773
68389W        W27892  14.590  43.008  12.044
68390W        W27893  31.078  15.162   1.847
68391W        W27894  25.183   8.692  14.023
68392W        W27895   1.917   6.312  12.426
68393W        W27896  37.373  27.461   4.279
68394W        W27897  26.463  30.082   2.294
68395W        W27898   2.334  23.736  10.639
68396W        W27899  44.436  21.667  11.045
68397W        W27900   0.859  42.949  14.909
68398W        W27901   6.213  15.204   5.698
68399W        W27902  25.988  38.470   0.806
68400W        W27903  28.474  44.796  14.971
68401W        W27904  42.321  23.234   3.634
68402W        W27905   0.461   3.342   4.165
68403W        W27906  21.170  32.619  13.014
68404W        W27907   1.252  19.114  13.403
68405W        W27908  43.773   9.212   2.409
68406W        W27909   4.928  39.366   0.287
68407W        W27910  44.416  22.117   9.937
68408W        W27911  22.602  30.132   1.230
68409W        W27912  14.168  29.939   0.730
68410W        W27913  13.713  18.573  11.981
68411W        W27914   3.390   4.783   4.653
68412W        W27915  31.984   5.357  13.954
68413W        W27916  12.769  23.628   0.378
68414W        W27917  14.654  28.147  14.308
68415W        W27918  37.496  18.642  14.503
68416W        W27919  44.796  44.835   3.644
68417W        W27920  38.386  26.177  10.410
68418W        W27921   9.280  27.491   4.831
68419W        W27922  24.136  28.929  11.995
68420W        W27923  37.913  24.688   2.786
68421W        W27924   2.449  15.167  12.490
68422W        W27925   3.221  36.504   2.751
68423W        W27926  21.702  15.221  11.918
68424W        W27927  14.204  36.059   3.705
68425W        W27928  31.423  10.792   2.272
68426W        W27929   5.710   9.365   4.823
68427W        W27930  25.027  43.350  11.857
68428W        W27931   3.933  39.984   2.365
68429W        W27932  35.880  31.125   2.839
68430W        W27933  36.578  11.810  10.580
68431W        W27934  23.540  44.395   9.633
68432W        W27935  22.510  21.690  10.636
68433W        W27936  38.515  12.766  12.361
68434W        W27937  38.546  19.115   4.273
68435W        W27938  20.125  33.543   4.125
68436W        W27939  39.442  27.042   3.664
68437W        W27940  39.418   3.325   4.286
68438W        W27941  40.006  43.966  14.830
68439W        W27942  38.834  14.182   4.245
68440W        W27943  20.271   8.730   3.659
68441W        W27944   0.850  28.449  11.052
68442W        W27945  44.759   7.831   2.829
68443W        W27946  36.479  28.152   0.833
68444W        W27947  34.546   0.449  14.916
68445W        W27948   8.209  40.926  14.318
68446W        W27949  26.100  18.581  14.891
68447W        W27950  40.879  36.863   0.395
68448W        W27951   2.382  13.302  12.070
68449W        W27952  20.589  43.494   2.897
68450W        W27953  35.493  31.554   1.859
68451W        W27954  12.275   0.386  14.962
68452W        W27955  38.324   9.318  14.934
68453W        W27956  39.496   1.375   3.725
68454W        W27957  21.122  30.023   1.873
68455W        W27958   1.775   0.368   0.359
68456W        W27959   6.786  34.530   4.282
68457W        W27960   7.868  29.489   4.268
68458W        W27961  18.761  33.922   3.823
68459W        W27962  41.853  37.547   1.796
68460W        W27963  40.438  19.176   1.928
68461W        W27964  12.673  33.571  12.383
68462W        W27965   0.964  11.181  12.938
68463W        W27966  12.337  37.896   1.722
68464W        W27967   3.339  32.915   3.806
68465W        W27968   6.193  36.574  14.871
68466W        W27969  40.351  10.661   1.295
68467W        W27970  43.854   2.921   4.185
68468W        W27971  29.593  44.282   5.226
68469W        W27972  33.429  33.435   2.204
68470W        W27973  42.912  13.336   2.343
68471W        W27974  43.914  19.576   0.750
68472W        W27975  11.784  23.583  11.386
68473W        W27976  31.956  42.437   2.214
68474W        W27977  32.628  27.192   2.845
68475W        W27978  29.506  17.102  12.550
68476W        W27979  23.002  14.810  11.592
68477W        W27980  17.074  17.114  12.073
68478W        W27981  41.424  35.536   4.125
68479W        W27982   7.706  30.973  12.033
68480W        W27983   6.333   5.751   4.257
68481W        W27984  18.075  35.922  10.906
68482W        W27985  36.373  43.982  13.535
68483W        W27986  34.433   9.289   1.861
68484W        W27987  33.624  20.713  13.062
68485W        W27988  18.609  38.008  14.778
68486W        W27989  10.360  25.545  13.929
68487W        W27990   1.921  34.036  11.405
68488W        W27991  31.135   6.199  14.286
68489W        W27992  22.224  40.397   4.786
68490W        W27993  15.626  37.426  14.471
68491W        W27994   6.318   9.385   2.854
68492W        W27995  31.064   0.421  14.497
68493W        W27996  27.126   3.723  10.890
68494W        W27997   7.802   7.379  11.960
68495W        W27998  11.791  11.170  13.514
68496W        W27999  31.064  28.534  12.068
68497W        W28000  29.962  18.713   3.800
68498W        W28001  20.582  43.987   0.803
68499W        W28002  41.007  24.224   2.408
68500W        W28003  24.528  28.506   2.686
68501W        W28004   1.248  25.040   0.426
68502W        W28005   0.753  25.524   3.346
68503W        W28006  40.338  17.184  11.900
68504W        W28007  13.698  34.102   3.214
68505W        W28008  36.960  40.314  12.963
68506W        W28009  17.754  21.022   2.845
68507W        W28010  34.119  38.411  11.006
68508W        W28011   8.311  28.181  13.805
68509W        W28012  33.082  20.199  11.452
68510W        W28013  28.647   0.970  12.533
68511W        W28014   3.381  14.322   4.265
68512W        W28015  19.682   5.819   1.817
68513W        W28016  36.578  25.163   1.934
68514W        W28017  42.990  44.274  12.423
68515W        W28018  44.952  37.378   3.867
68516W        W28019   7.781  41.836   2.343
68517W        W28020   8.169   8.825  11.506
68518W        W28021  33.017  39.005  11.612
68519W        W28022  12.131  13.826   0.382
68520W        W28023  22.628   7.805   2.871
68521W        W28024  12.237  43.997   2.718
68522W        W28025  36.529  24.178  12.360
68523W        W28026  43.353  20.137  11.974
68524W        W28027  31.538  42.518   4.120
68525W        W28028  13.236  40.879   4.645
68526W        W28029  33.603  28.125  11.477
68527W        W28030   1.854  36.591  14.423
68528W        W28031  36.580   2.362   4.333
68529W        W28032  34.613  37.354  12.360
68530W        W28033  43.907  24.524   2.871
68531W        W28034  27.974  39.356   3.712
68532W        W28035  43.468  18.234   5.165
68533W        W28036  19.609  29.544  13.957
68534W        W28037  21.067   3.893  13.903
68535W        W28038  32.078   0.923  10.491
68536W        W28039  14.125  11.261   4.694
68537W        W28040   3.756  17.743   4.247
68538W        W28041   3.818  33.489  14.960
68539W        W28042  24.141  37.563   1.857
68540W        W28043   3.413  28.036   1.244
68541W        W28044  34.904  14.767  11.022
68542W        W28045  25.002   5.205  14.398
68543W        W28046  23.184  43.933   3.710
68544W        W28047  33.889  21.745  14.304
68545W        W28048  16.303  25.694  14.775
68546W        W28049  44.877  19.714   3.165
68547W        W28050  42.031  16.171  12.957
68548W        W28051  19.197  19.145   3.286
68549W        W28052  16.268   1.339   1.420
68550W        W28053   9.669  15.256  13.514
68551W        W28054  12.732  18.262   1.210
68552W        W28055   3.361  37.337   4.220
68553W        W28056  38.536   8.782   0.785
68554W        W28057  44.458  34.410   3.231
68555W        W28058   0.929  22.025  14.785
68556W        W28059  44.436  37.033   0.418
68557W        W28060  43.848   5.379   2.201
68558W        W28061  37.379  31.009  10.645
68559W        W28062  23.668  38.005   1.729
68560W        W28063  25.007  23.190  12.417
68561W        W28064  42.407  36.554  13.482
68562W        W28065  44.968   0.309  13.329
68563W        W28066  20.054  36.588  13.314
68564W        W28067  28.135  25.217   0.429
68565W        W28068  21.216  39.019   3.321
68566W        W28069  37.442  42.928   0.904
68567W        W28070  26.102  30.943  13.052
68568W        W28071  11.626  28.661  13.922
68569W        W28072  29.002  16.200  14.437
68570W        W28073  36.484  33.438   3.843
68571W        W28074  12.121  16.711  14.337
68572W        W28075  14.287  25.208  14.454
68573W        W28076  32.076  21.042  12.927
68574W        W28077  17.063   3.763  14.998
68575W        W28078  33.073  29.661  13.531
68576W        W28079  34.004  18.095   3.836
68577W        W28080  15.199  28.934   3.671
68578W        W28081   2.799  23.718  13.060
68579W        W28082  31.479  22.577   3.249
68580W        W28083  15.716  35.472   4.788
68581W        W28084   6.243   5.883   0.768
68582W        W28085   5.836  14.279   2.823
68583W        W28086  19.608  17.284  13.865
68584W        W28087  11.745   3.869   0.760
68585W        W28088  33.019  28.484   3.284
68586W        W28089  41.316  12.841  14.287
68587W        W28090  10.265  22.183   9.920
68588W        W28091  13.326  14.772  13.354
68589W        W28092   9.324  11.302   3.195
68590W        W28093  15.295  27.092   0.837
68591W        W28094  18.717  11.707   4.631
68592W        W28095  29.578  29.969   0.319
68593W        W28096  43.397  23.644   4.833
68594W        W28097   4.205   2.351   4.183
68595W        W28098  23.036   3.283  11.057
68596W        W28099   7.353  39.930   3.307
68597W        W28100   0.292   6.331   1.410
68598W        W28101  26.017  40.501   0.849
68599W        W28102  26.992  38.481   3.225
68600W        W28103  32.020  14.681   3.340
68601W        W28104  18.255  32.979   1.875
68602W        W28105  13.692   5.708  10.420
68603W        W28106   6.231  30.424   9.951
68604W        W28107  38.855  11.728  14.818
68605W        W28108   2.354  22.702  11.484
68606W        W28109  12.703  10.366  13.547
68607W        W28110  33.503  22.170  14.396
68608W        W28111  37.579  34.883  14.836
68609W        W28112  44.266  37.971  14.913
68610W        W28113  35.062   9.861   1.376
68611W        W28114  32.912  25.158  11.000
68612W        W28115  15.298  15.822  13.820
68613W        W28116  16.145  29.993  14.500
68614W        W28117  35.869  18.241   4.177
68615W        W28118  10.734  23.691  13.450
68616W        W28119  11.295  26.981  11.102
68617W        W28120  24.723  27.619  14.497
68618W        W28121   5.842  26.204   0.830
68619W        W28122  17.204  15.632  11.083
68620W        W28123  32.130  41.298  10.110
68621W        W28124   1.882  44.370  13.800
68622W        W28125   6.781  14.796   1.407
68623W        W28126   5.808  22.596  11.067
68624W        W28127  39.432  21.066  13.489
68625W        W28128  34.897  40.902  11.965
68626W        W28129  10.251  20.540  12.917
68627W        W28130  44.467  20.531  10.988
68628W        W28131  30.019   2.842   1.845
68629W        W28132  10.238  23.109  14.860
68630W        W28133   2.415   2.777   5.135
68631W        W28134  25.544   4.238  12.956
68632W        W28135  11.823  21.103  13.364
68633W        W28136  33.447  36.868   0.246
68634W        W28137   3.890  16.255   0.898
68635W        W28138  23.042  15.689   0.318
68636W        W28139   9.662  29.165   3.307
68637W        W28140  21.568  18.611   1.367
68638W        W28141   9.262  32.476  12.915
68639W        W28142  13.228  14.116  12.888
68640W        W28143  23.005  37.954   2.406
68641W        W28144  31.527   5.203   0.902
68642W        W28145  40.305  26.099   1.413
68643W        W28146  13.731   3.430   0.961
68644W        W28147   7.231   1.255   4.815
68645W        W28148  11.136  10.317  10.930
68646W        W28149   6.811   6.421  14.281
68647W        W28150  12.221  21.611  10.447
68648W        W28151  20.117  38.965  11.902
68649W        W28152   0.860  37.066  14.408
68650W        W28153  42.985  40.524   1.309
68651W        W28154  27.976  23.607   3.708
68652W        W28155  11.864  13.147  11.019
68653W        W28156   2.932  31.097  12.045
68654W        W28157   4.774  40.909   4.303
68655W        W28158  26.157  26.579   2.207
68656W        W28159  42.430  23.139   1.695
68657W        W28160   8.887  11.812   3.313
68658W        W28161  34.589  38.507  14.405
68659W        W28162  40.956   7.246  14.408
68660W        W28163  43.513  13.238   2.813
68661W        W28164  39.911   4.810  14.919
68662W        W28165   6.208  41.865  13.429
68663W        W28166  23.601  30.096  11.949
68664W        W28167   1.453   9.817  11.119
68665W        W28168   5.196  22.588   4.822
68666W        W28169  17.137   9.723  10.466
68667W        W28170  41.298  40.387  12.095
68668W        W28171  34.982  34.092   3.174
68669W        W28172   4.261  34.087   1.281
68670W        W28173  24.683   5.894   0.471
68671W        W28174   4.801   1.292  13.375
68672W        W28175  28.038  19.590  12.428
68673W        W28176  39.389  14.824   1.694
68674W        W28177  24.051   9.267   3.705
68675W        W28178  26.999   2.879   1.779
68676W        W28179  32.548  24.999   0.463
68677W        W28180  13.341   2.923   4.768
68678W        W28181   8.166   8.186  11.563
68679W        W28182  42.511   6.706   5.580
68680W        W28183  30.136  42.506   2.865
68681W        W28184  28.036  23.151  10.904
68682W        W28185  22.168   9.804  13.423
68683W        W28186  29.582  27.472   1.312
68684W        W28187  24.110  37.039  12.471
68685W        W28188  29.083  28.528   3.745
68686W        W28189   5.828  24.152  13.976
68687W        W28190   6.357  15.677   1.835
68688W        W28191   9.286  18.763   2.393
68689W        W28192   6.836  43.372   3.852
68690W        W28193  16.215  11.749   0.865
68691W        W28194  12.292  12.656   1.385
68692W        W28195  20.524   2.767   1.412
68693W        W28196  37.060  36.965   2.382
68694W        W28197  37.397  22.715  13.401
68695W        W28198   0.812   1.432  11.081
68696W        W28199  17.569  20.173   1.417
68697W        W28200  25.162  31.441  12.521
68698W        W28201  23.096  14.638  12.933
68699W        W28202  36.429  24.716   0.800
68700W        W28203  33.516  27.971   0.459
68701W        W28204   6.835  21.128   2.690
68702W        W28205  17.581  25.516  11.118
68703W        W28206  24.483   2.916   3.781
68704W        W28207   0.937  27.539  14.460
68705W        W28208  17.289  17.199   3.195
68706W        W28209  31.562  37.551  13.884
68707W        W28210  40.437  23.686   4.688
68708W        W28211  17.712  32.433  13.968
68709W        W28212  12.262   2.956   3.182
68710W        W28213   5.304  13.709  11.434
68711W        W28214   3.392  29.535   2.318
68712W        W28215   3.392  31.085  13.795
68713W        W28216  27.520  25.202   3.321
68714W        W28217  16.717  19.629  11.440
68715W        W28218  15.289  35.523   9.475
68716W        W28219  25.121  32.113  10.420
68717W        W28220  31.437  20.132  12.017
68718W        W28221  37.960  20.153  13.478
68719W        W28222  34.529  34.429   1.241
68720W        W28223   1.765   0.363   1.295
68721W        W28224  20.080   2.390   2.807
68722W        W28225   8.746  13.790  13.409
68723W        W28226  25.078  34.074  12.895
68724W        W28227   6.861  42.947  10.560
68725W        W28228  12.619  20.241  14.763
68726W        W28229  44.765   3.317  13.824
68727W        W28230  17.184  14.253  14.437
68728W        W28231  37.838  31.955   4.125
68729W        W28232  44.947  43.822  11.490
68730W        W28233  22.611  28.033   0.292
68731W        W28234  43.420  30.639  14.974
68732W        W28235  34.484  18.626  14.878
68733W        W28236   4.338  29.462   4.693
68734W        W28237  20.624  34.553  10.993
68735W        W28238  34.424  15.730  11.972
68736W        W28239  28.533   7.714   0.472
68737W        W28240  29.547  35.926  12.087
68738W        W28241  41.906  17.115  10.581
68739W        W28242  24.701  41.804  12.353
68740W        W28243  18.655  11.209  11.058
68741W        W28244  18.561  36.977   4.280
68742W        W28245  29.617   8.375   1.396
68743W        W28246   2.340  15.791  11.373
68744W        W28247  17.288  44.475  14.903
68745W        W28248  18.085  36.980  14.969
68746W        W28249  25.682   8.297  12.561
68747W        W28250  12.628  16.735   4.186
68748W        W28251  44.419   7.671  13.371
68749W        W28252  19.610  13.156   0.387
68750W        W28253  28.957  32.422   2.769
68751W        W28254  10.876  11.282  14.377
68752W        W28255  44.502  41.500  14.382
68753W        W28256  21.188   4.860  10.138
68754W        W28257  32.500  32.988  12.399
68755W        W28258   4.260   6.869  13.388
68756W        W28259   6.869  19.192   3.257
68757W        W28260  44.000  34.539  10.918
68758W        W28261  19.196  18.748   1.240
68759W        W28262  37.016  29.123  13.894
68760W        W28263  17.636  26.542   1.376
68761W        W28264  32.985  35.878   4.165
68762W        W28265   1.466   8.824  12.078
68763W        W28266   8.198  28.664  11.897
68764W        W28267  13.694  42.434   0.395
68765W        W28268   7.813  30.590  14.283
68766W        W28269  16.618  22.129  13.999
68767W        W28270  29.518  33.941  11.095
68768W        W28271  32.446  30.467  14.003
68769W        W28272  22.540  14.768   0.855
68770W        W28273  15.737  40.801  12.882
68771W        W28274   9.645  41.424  14.816
68772W        W28275  37.516  31.122  11.039
68773W        W28276  22.177  41.500   1.856
68774W        W28277  15.251  33.602  12.880
68775W        W28278  16.196  40.862   2.888
68776W        W28279   2.298  34.048  14.304
68777W        W28280  13.807  38.516  13.958
68778W        W28281  13.809   4.798  11.051
68779W        W28282  13.790  35.991   0.965
68780W        W28283  15.714  18.607   1.349
68781W        W28284  34.389  38.972  11.064
68782W        W28285  15.226  41.399   1.323
68783W        W28286  10.846  43.321   0.400
68784W        W28287  31.967  22.673   2.345
68785W        W28288  40.048  42.959   3.638
68786W        W28289  12.823  12.137   2.894
68787W        W28290  20.712   4.901   1.263
68788W        W28291   8.225  38.855  11.013
68789W        W28292  21.087  19.198  13.889
68790W        W28293  21.237   9.214  11.029
68791W        W28294  44.836   1.844   2.413
68792W        W28295  15.325  22.101  10.644
68793W        W28296  12.781   1.277  13.999
68794W        W28297  16.725  34.012  14.500
68795W        W28298  28.084   7.824   0.444
68796W        W28299  11.193  36.539   4.308
68797W        W28300  35.588  38.069   4.313
68798W        W28301  22.144  27.667  14.299
68799W        W28302  42.357   6.878   1.873
68800W        W28303   0.309  22.121  13.814
68801W        W28304  26.177  11.816  11.462
68802W        W28305  36.904  12.229   3.704
68803W        W28306   9.678  19.543   1.289
68804W        W28307  19.674  11.664   3.645
68805W        W28308   1.417  37.966   0.480
68806W        W28309  31.975  28.474   4.255
68807W        W28310  12.632  34.387  13.854
68808W        W28311  19.047  29.636  14.410
68809W        W28312  32.482  20.203  13.383
68810W        W28313  27.134  21.198   1.398
68811W        W28314   9.770   4.227  11.562
68812W        W28315   2.729  38.428   3.742
68813W        W28316  15.132   9.752   1.375
68814W        W28317   1.288  30.416   5.144
68815W        W28318   2.403  37.345  13.880
68816W        W28319  16.237   6.724  13.420
68817W        W28320  22.629   3.372  13.487
68818W        W28321  38.867  22.696   2.706
68819W        W28322   8.824  21.717   0.846
68820W        W28323  16.767   6.217   0.246
68821W        W28324  37.345   1.417   2.770
68822W        W28325  20.571  12.840  12.454
68823W        W28326  25.559  15.766  14.989
68824W        W28327  14.595  18.607   4.747
68825W        W28328  36.049  16.299  11.862
68826W        W28329   1.769   2.800  11.911
68827W        W28330  23.570  43.503  10.915
68828W        W28331   9.848  26.953  11.397
68829W        W28332  14.696  44.783   4.733
68830W        W28333  40.926  39.533  12.549
68831W        W28334   3.816   6.197   3.806
68832W        W28335  17.785  43.433   0.386
68833W        W28336  32.916   5.805  10.977
68834W        W28337  35.007  15.730  10.621
68835W        W28338  31.028  15.094  14.305
68836W        W28339  33.395  11.704  12.893
68837W        W28340  41.458  32.585   4.269
68838W        W28341  42.483   5.754  12.001
68839W        W28342  44.312   3.783  10.590
68840W        W28343  44.424  21.593   3.692
68841W        W28344  43.843  22.555   4.191
68842W        W28345  11.830   4.254  13.464
68843W        W28346  23.720   8.161  14.280
68844W        W28347  21.193  36.993   2.270
68845W        W28348  17.265   7.803  13.989
68846W        W28349  18.791  23.537  14.026
68847W        W28350  32.065  24.981  13.425
68848W        W28351  10.239   9.794  11.511
68849W        W28352  14.136  36.999   4.789
68850W        W28353  29.016  24.692   0.264
68851W        W28354  32.887  21.045  12.887
68852W        W28355  11.310   2.854  11.888
68853W        W28356   5.236   9.718  10.406
68854W        W28357  24.015  40.505   1.740
68855W        W28358  40.830  25.709   2.304
68856W        W28359  21.561  14.144  13.445
68857W        W28360  39.490   5.421  14.837
68858W        W28361  29.942   9.872   0.920
68859W        W28362  35.931   1.385   3.310
68860W        W28363  28.959   1.965   1.280
68861W        W28364  40.535  40.834   1.761
68862W        W28365  27.459   7.279  12.379
68863W        W28366  16.768  11.180   3.294
68864W        W28367  27.452  29.656   3.732
68865W        W28368  15.202  36.384  13.365
68866W        W28369   8.295  32.134  10.418
68867W        W28370  33.457  43.409   2.695
68868W        W28371  37.365  29.066  12.958
68869W        W28372  42.783  10.777   4.644
68870W        W28373  39.007   0.749  13.857
68871W        W28374  26.048  34.441  12.362
68872W        W28375  21.170  22.676  11.991
68873W        W28376  42.435  36.864  13.484
68874W        W28377  41.395  42.317   3.231
68875W        W28378  22.111   9.765  13.814
68876W        W28379  13.342  13.114   2.256
68877W        W28380   0.882  24.142  12.342
68878W        W28381  37.002   1.772   0.462
68879W        W28382  36.471  43.433   1.309
68880W        W28383  38.983  35.387  14.895
68881W        W28384   0.940  31.949  12.894
68882W        W28385   5.852   9.372   3.726
68883W        W28386  25.160  44.772  11.898
68884W        W28387   7.675  21.102   4.811
68885W        W28388   4.419  11.251  12.551
68886W        W28389  33.913  27.041   1.221
68887W        W28390  23.600   1.349   3.715
68888W        W28391  18.060  41.950   3.746
68889W        W28392   6.374   4.318   2.880
68890W        W28393  40.445  25.161  14.942
68891W        W28394  35.038  33.092   3.244
68892W        W28395   8.837  43.839   3.825
68893W        W28396  11.652  21.189  14.477
68894W        W28397   2.947  22.574   2.199
68895W        W28398  42.778  36.933  11.092
68896W        W28399  34.912   6.887   3.795
68897W        W28400  28.964  30.135  12.558
68898W        W28401  41.017   1.828   0.468
68899W        W28402   2.469  17.765   3.171
68900W        W28403  15.188  36.494  12.046
68901W        W28404  25.207   5.303   0.357
68902W        W28405   4.809  14.196   0.318
68903W        W28406  43.825  39.008   4.818
68904W        W28407  40.002   6.259  10.611
68905W        W28408  23.150   5.846   4.330
68906W        W28409  16.164  18.574   4.340
68907W        W28410  10.378  37.985  14.822
68908W        W28411   7.206   0.916  13.814
68909W        W28412  34.971  44.426  13.510
68910W        W28413   2.421  23.673  11.999
68911W        W28414  32.932  40.927   3.221
68912W        W28415  14.188  31.130   3.826
68913W        W28416   5.733  10.820   4.768
68914W        W28417  28.604  22.090  10.608
68915W        W28418  17.190  31.433  12.521
68916W        W28419  26.544  12.265  13.403
68917W        W28420  44.903  13.115   4.783
68918W        W28421  12.124  24.688  14.282
68919W        W28422  22.670   6.832   2.862
68920W        W28423  27.076  37.549   4.624
68921W        W28424  15.102   8.703   0.852
68922W        W28425   2.449  36.048  13.894
68923W        W28426  10.163  42.422   5.294
68924W        W28427  26.034  33.888   0.252
68925W        W28428  42.915   6.775  11.109
68926W        W28429  33.115  32.467   2.713
68927W        W28430  37.345  42.463   1.223
68928W        W28431  27.536  34.969   4.192
68929W        W28432  23.138   0.340   1.775
68930W        W28433  22.075  14.729   3.247
68931W        W28434  21.192  21.256   2.769
68932W        W28435   4.749  38.466   0.792
68933W        W28436  35.889   4.409   1.739
68934W        W28437  34.467  29.618   1.827
68935W        W28438   6.188   5.872  10.418
68936W        W28439  41.839   7.909  14.902
68937W        W28440  33.429  18.205  13.988
68938W        W28441  36.557  27.041   4.136
68939W        W28442  42.460  33.917  12.030
68940W        W28443  33.902  37.496  13.958
68941W        W28444  33.096  20.149   4.291
68942W        W28445   4.224  12.160  13.971
68943W        W28446   1.843  40.999  13.525
68944W        W28447   4.719   4.915  11.008
68945W        W28448  40.851  28.947  12.489
68946W        W28449  31.953  31.114   2.178
68947W        W28450   3.819  33.122   3.643
68948W        W28451  44.895  22.549  11.981
68949W        W28452  40.012  34.375  10.888
68950W        W28453  24.201  23.508  12.944
68951W        W28454  43.000  34.511   4.123
68952W        W28455  35.020  20.649  14.349
68953W        W28456  19.252  11.818   0.902
68954W        W28457  43.449  27.101  14.911
68955W        W28458   8.160  16.309  10.014
68956W        W28459  24.583  11.266   1.446
68957W        W28460   9.223  31.978   2.415
68958W        W28461  21.033  35.954  10.586
68959W        W28462  40.892  23.063   4.636
68960W        W28463  35.584  18.260  13.318
68961W        W28464  11.138  10.878   4.275
68962W        W28465   6.830  37.502  12.441
68963W        W28466  13.199   9.345   1.316
68964W        W28467  15.305  34.418   0.928
68965W        W28468   2.467  24.117  12.345
68966W        W28469  32.486  18.641   2.386
68967W        W28470   2.956  43.859  11.021
68968W        W28471   2.463  13.246   2.234
68969W        W28472   9.720  17.634   3.664
68970W        W28473  10.347  39.534  12.948
68971W        W28474  19.541  29.993  12.843
68972W        W28475  11.810  12.840   2.787
68973W        W28476  43.504  33.045   0.396
68974W        W28477  36.922   7.805   0.309
68975W        W28478   9.882  43.357  13.801
68976W        W28479   7.846  42.370   0.397
68977W        W28480  15.271  41.859   2.325
68978W        W28481  33.591  20.136  14.494
68979W        W28482  28.661  19.276   0.339
68980W        W28483  35.886  41.521  11.512
68981W        W28484  25.597  31.420  11.601
68982W        W28485  18.062   4.210  10.952
68983W        W28486   4.925  31.628   1.391
68984W        W28487  39.969  42.790  11.932
68985W        W28488  17.294  36.404   4.305
68986W        W28489  40.999  36.046  13.452
68987W        W28490  30.090  21.189  13.511
68988W        W28491  10.373  16.279  12.366
68989W        W28492  32.477  35.556   4.602
68990W        W28493  15.601   2.385   3.736
68991W        W28494  31.053  20.631   4.248
68992W        W28495  38.484  17.290  12.448
68993W        W28496  24.012  41.924  11.906
68994W        W28497   5.247  30.083  12.505
68995W        W28498  15.097  42.389  13.037
68996W        W28499   1.329  22.502   1.442
68997W        W28500  28.585  44.337  14.287
68998W        W28501  36.025   0.383   1.772
68999W        W28502  25.651  20.183   4.670
69000W        W28503  39.542  13.688  10.483
69001W        W28504  42.976  25.663   0.412
69002W        W28505  26.625   8.747  14.004
69003W        W28506   1.409  10.673  14.457
69004W        W28507  24.494  38.372  14.993
69005W        W28508  20.245  38.054   1.870
69006W        W28509  44.837  28.471  11.892
69007W        W28510   2.323   2.313   4.116
69008W        W28511  13.236  15.781  13.368
69009W        W28512   1.853  24.006  12.071
69010W        W28513   2.955  23.081  10.586
69011W        W28514  11.265   9.185  13.862
69012W        W28515  33.877  22.092   2.689
69013W        W28516  28.565  21.601  13.481
69014W        W28517  33.004  29.024   1.425
69015W        W28518  28.589  35.926   0.363
69016W        W28519  33.012  40.029   0.358
69017W        W28520  19.117  31.561   3.322
69018W        W28521   5.890  23.502   4.175
69019W        W28522  29.425   1.740   1.717
69020W        W28523  23.158  19.606   2.771
69021W        W28524   8.893  26.514  12.893
69022W        W28525  10.783  39.993  10.431
69023W        W28526  20.084  29.577   2.785
69024W        W28527  40.452  28.527  14.922
69025W        W28528   6.915  41.405   0.385
69026W        W28529   8.328  29.094  10.892
69027W        W28530  23.508  26.468  10.609
69028W        W28531   6.888   1.250   0.800
69029W        W28532   7.679  35.953   1.439
69030W        W28533  37.336  33.086   3.857
69031W        W28534  35.106  34.413  10.509
69032W        W28535   5.224  42.784  13.324
69033W        W28536   7.687  43.772  11.441
69034W        W28537  21.175  44.505  11.875
69035W        W28538   3.926  42.379   2.399
69036W        W28539   8.254   3.411   3.657
69037W        W28540  34.602  21.580  11.431
69038W        W28541  20.038  20.699  12.924
69039W        W28542  38.824  35.462  13.308
69040W        W28543  42.516  13.791   2.777
69041W        W28544  40.832  11.307  13.933
69042W        W28545  11.163   6.838  10.605
69043W        W28546   4.268   6.418  13.845
69044W        W28547  37.517  26.027   1.247
69045W        W28548   1.927  16.795  11.041
69046W        W28549  27.098  34.415  13.797
69047W        W28550   9.749   5.870  12.927
69048W        W28551  13.123  26.696   1.307
69049W        W28552  37.483  17.615  11.950
69050W        W28553  23.668  31.579   0.788
69051W        W28554  30.054  40.494  14.890
69052W        W28555  22.051  42.342  14.464
69053W        W28556  11.840  39.558  11.050
69054W        W28557  12.840  37.413  14.841
69055W        W28558  29.598  16.101  13.843
69056W        W28559  33.995  28.457  13.024
69057W        W28560  33.018   1.304   2.185
69058W        W28561  32.588  13.148  11.882
69059W        W28562   4.360   8.742   4.660
69060W        W28563  21.064  19.176  12.372
69061W        W28564   5.823  34.046  10.530
69062W        W28565  39.944  41.452  11.975
69063W        W28566  25.121  24.678  14.478
69064W        W28567  24.980  24.683  12.420
69065W        W28568  29.546  14.180   1.405
69066W        W28569  20.706  40.964   1.252
69067W        W28570  33.092   2.383  10.982
69068W        W28571  34.116  14.121   9.578
69069W        W28572   6.772  36.352  12.949
69070W        W28573  13.811   2.460  10.988
69071W        W28574  25.996  31.438   0.743
69072W        W28575  34.003  20.053   2.388
69073W        W28576  42.456  33.520  14.373
69074W        W28577  41.980  18.701   4.667
69075W        W28578  37.914  40.371  13.064
69076W        W28579  36.382  28.570  11.946
69077W        W28580   8.707  30.446   0.964
69078W        W28581  15.185  14.702  14.395
69079W        W28582  31.000   7.669   2.717
69080W        W28583  16.749  21.077  14.296
69081W        W28584  27.962   8.899  12.381
69082W        W28585  42.972  12.821   4.804
69083W        W28586  41.949   1.416  11.416
69084W        W28587   0.267  26.591  12.090
69085W        W28588   8.339  30.557   4.784
69086W        W28589  26.495  21.175  12.528
69087W        W28590  23.717  36.377   0.406
69088W        W28591  39.927  17.656   1.818
69089W        W28592  42.342  25.116  12.381
69090W        W28593  16.075  38.470   4.764
69091W        W28594  12.245  25.108   1.898
69092W        W28595  18.703  23.564   3.355
69093W        W28596  32.885  38.524  14.908
69094W        W28597  12.787  40.033   0.944
69095W        W28598   3.801  31.939   5.236
69096W        W28599  17.278  41.326   0.286
69097W        W28600   3.419  32.913  14.409
69098W        W28601   7.669  21.655   0.310
69099W        W28602  20.146   5.763  10.606
69100W        W28603  28.614  12.611   1.908
69101W        W28604  22.075  28.598   2.407
69102W        W28605  18.759  20.622   3.703
69103W        W28606   0.852   9.679  13.917
69104W        W28607  26.159  21.737   0.403
69105W        W28608  39.969  25.552   2.761
69106W        W28609  42.505  17.797   0.288
69107W        W28610  41.002  13.717   2.227
69108W        W28611   0.450  30.930  11.876
69109W        W28612  16.196  22.561  10.613
69110W        W28613  23.080  17.105  10.911
69111W        W28614  17.697  41.502   1.797
69112W        W28615   4.790   7.395   4.232
69113W        W28616  37.364  27.687   1.383
69114W        W28617  26.608  36.481   3.797
69115W        W28618  17.753  41.859  13.020
69116W        W28619   7.226   1.877  14.283
69117W        W28620  27.465   2.456  13.929
69118W        W28621  33.619  18.687   2.814
69119W        W28622  44.755  13.195   1.783
69120W        W28623   5.794  14.177   0.331
69121W        W28624  37.564  43.508  11.085
69122W        W28625   9.730  17.716   2.788
69123W        W28626  41.838  33.437   1.226
69124W        W28627   8.349  15.310  10.440
69125W        W28628  30.955  43.827  10.498
69126W        W28629  33.431   8.857   3.657
69127W        W28630   2.322   8.838   1.925
69128W        W28631  28.515  31.486  11.400
69129W        W28632  11.766  31.470   0.281
69130W        W28633   7.803  16.723   4.336
69131W        W28634  11.346  39.560   0.347
69132W        W28635  39.460  36.557  11.930
69133W        W28636  34.902   6.704   0.399
69134W        W28637  11.136   8.321  11.476
69135W        W28638   0.459  41.512   1.773
69136W        W28639  15.280  34.028   2.266
69137W        W28640  16.694   3.745   1.370
69138W        W28641  28.948  14.303   2.353
69139W        W28642  31.414  29.932   1.805
69140W        W28643  13.329  39.421  10.566
69141W        W28644  38.526  39.314  14.821
69142W        W28645  17.737  14.220  13.508
69143W        W28646  30.461  11.182  10.534
69144W        W28647  23.178  39.039  14.768
69145W        W28648   6.776  21.539   1.728
69146W        W28649  10.778  10.143  11.863
69147W        W28650  25.070  17.235  12.530
69148W        W28651  15.327  12.814   2.806
69149W        W28652  19.641   0.299   4.171
69150W        W28653  41.896  31.121  10.551
69151W        W28654   7.343  38.407   2.211
69152W        W28655  22.610  27.978  11.010
69153W        W28656  26.559   4.449   1.380
69154W        W28657   4.335  40.824  12.939
69155W        W28658   2.280  14.186   5.254
69156W        W28659  42.284  14.151   4.201
69157W        W28660  13.601  15.757   2.337
69158W        W28661  23.729  21.548  13.369
69159W        W28662   5.436   4.417   1.329
69160W        W28663   7.269  37.582   3.669
69161W        W28664   9.349  10.870   0.968
69162W        W28665  14.638   7.411   1.359
69163W        W28666   6.703   6.801   0.343
69164W        W28667  23.597  10.789   1.272
69165W        W28668  38.835  24.641  10.472
69166W        W28669  37.845  43.393   3.821
69167W        W28670  33.479  39.418  11.414
69168W        W28671  19.724  29.135   1.444
69169W        W28672  33.470   7.828   0.299
69170W        W28673  27.065   6.335   4.709
69171W        W28674  28.681  14.217   4.279
69172W        W28675  24.536   1.397  11.385
69173W        W28676  27.503  33.970   4.690
69174W        W28677  24.505  37.568  14.910
69175W        W28678  39.521  42.434   1.387
69176W        W28679  37.078  21.237   2.393
69177W        W28680  31.135   0.266  12.082
69178W        W28681  15.236  19.729   3.250
69179W        W28682  37.032   6.203   0.482
69180W        W28683  20.533  39.893   3.789
69181W        W28684  26.974  20.241   0.253
69182W        W28685  43.446   5.265   3.164
69183W        W28686  36.922   8.888   0.264
69184W        W28687  32.518   2.737  12.997
69185W        W28688  23.227  44.426   5.093
69186W        W28689  24.014  21.180   2.217
69187W        W28690  22.726  36.590   3.640
69188W        W28691   6.182  12.358   4.146
69189W        W28692  22.998  13.235  14.333
69190W        W28693  17.214  16.261  12.540
69191W        W28694  28.068  28.051   0.938
69192W        W28695   4.256  26.970  14.884
69193W        W28696  26.576   2.953  10.938
69194W        W28697  15.740  25.605  14.412
69195W        W28698  37.940   9.819   4.337
69196W        W28699   3.768  16.229  13.418
69197W        W28700   2.877   5.861   1.733
69198W        W28701   5.430  41.417   2.354
69199W        W28702  15.233   7.820  14.471
69200W        W28703  15.723  10.146   4.213
69201W        W28704  34.481  33.555  13.827
69202W        W28705  31.120   8.835   4.715
69203W        W28706  34.019  27.184   2.777
69204W        W28707  39.888   9.330  14.776
69205W        W28708  14.742   4.866   3.715
69206W        W28709  43.325  12.357  11.981
69207W        W28710  11.743  40.414  11.379
69208W        W28711   4.804  19.220   2.817
69209W        W28712  34.991  43.375  14.278
69210W        W28713  32.949  14.188  13.403
69211W        W28714  27.134  34.610   4.716
69212W        W28715  40.348  21.067  13.808
69213W        W28716  16.131  31.900  13.820
69214W        W28717  24.494  14.796   0.338
69215W        W28718  36.854  12.689   2.900
69216W        W28719  34.950  35.506  13.315
69217W        W28720  40.505  40.384   1.728
69218W        W28721   1.777   3.332  13.874
69219W        W28722  21.111   8.688   3.220
69220W        W28723   0.817  24.045   4.323
69221W        W28724  21.219  28.563   0.301
69222W        W28725  41.464  35.488  13.972
69223W        W28726  25.989   8.663   3.306
69224W        W28727  33.072  12.261   2.410
69225W        W28728  17.161  21.148  14.865
69226W        W28729  24.563  21.226  13.847
69227W        W28730  31.997  29.566   0.858
69228W        W28731   0.775  32.554  14.487
69229W        W28732  41.016   2.319   0.276
69230W        W28733  17.605  43.290  10.640
69231W        W28734  15.680   7.710  11.018
69232W        W28735  40.364   0.349   1.390
69233W        W28736  34.542  36.091  11.405
69234W        W28737  29.933  20.196  11.563
69235W        W28738  24.722   4.920  13.416
69236W        W28739  28.649  12.798   2.898
69237W        W28740   9.799  19.147  14.380
69238W        W28741  34.944  26.966  12.946
69239W        W28742  15.221   3.840  12.520
69240W        W28743  40.957  16.209   3.217
69241W        W28744  32.444  43.937   2.835
69242W        W28745  24.026   2.249   3.276
69243W        W28746  30.632   5.700   1.321
69244W        W28747  24.190  30.601  13.823
69245W        W28748  17.096  12.808  13.014
69246W        W28749  24.539   4.348   3.209
69247W        W28750  34.083  34.559   5.204
69248W        W28751  39.498  13.126   0.374
69249W        W28752  30.546  30.462  11.601
69250W        W28753  38.965  39.521  13.898
69251W        W28754  21.756  29.138   1.330
69252W        W28755  32.000  18.165  13.025
69253W        W28756  43.397   4.805   3.158
69254W        W28757  29.666   5.432  13.828
69255W        W28758  12.675  17.652   3.871
69256W        W28759  10.318  34.484   1.311
69257W        W28760  36.951  30.064  12.426
69258W        W28761  35.561  24.680  10.587
69259W        W28762  42.862  29.002   2.761
69260W        W28763  26.475  43.481  13.876
69261W        W28764   4.884  23.077   4.600
69262W        W28765  26.647   2.852  14.898
69263W        W28766  28.146   6.353  12.988
69264W        W28767  44.833  12.797   2.855
69265W        W28768   6.699   4.226   1.430
69266W        W28769  37.899  31.514  12.464
69267W        W28770  39.446  35.031   3.826
69268W        W28771  28.037  37.469   4.315
69269W        W28772  13.308  21.076  12.928
69270W        W28773  27.459  21.536  10.546
69271W        W28774  14.735   8.876  13.526
69272W        W28775  12.141  38.824   1.282
69273W        W28776  35.567  43.830   0.808
69274W        W28777  17.774   8.257  14.507
69275W        W28778  31.054  43.891   3.724
69276W        W28779  27.196  12.178   0.830
69277W        W28780  14.599  39.957   2.192
69278W        W28781  38.872   7.758  14.358
69279W        W28782  15.134  36.981   3.697
69280W        W28783   6.409  12.203  12.506
69281W        W28784  28.590  25.652   4.763
69282W        W28785  30.156  21.642  12.427
69283W        W28786  26.134   2.732   2.745
69284W        W28787  17.556  42.304  11.855
69285W        W28788   8.204  18.247   1.901
69286W        W28789  38.943  34.590  11.868
69287W        W28790  33.937  12.145  10.528
69288W        W28791  29.143  43.455  14.853
69289W        W28792  12.823   7.389   2.875
69290W        W28793  19.678  28.934   3.641
69291W        W28794  36.391  31.110  11.533
69292W        W28795  22.166  19.693   1.374
69293W        W28796   9.858   4.413  11.003
69294W        W28797  40.937  23.694  13.328
69295W        W28798  22.045  40.844  13.489
69296W        W28799  39.048  14.292   9.979
69297W        W28800  25.504   7.815   5.097
69298W        W28801   9.751  27.059  14.364
69299W        W28802  25.169  10.819   1.787
69300W        W28803   9.273  26.974   1.935
69301W        W28804  20.636  34.614   2.179
69302W        W28805  18.689  38.329   4.323
69303W        W28806  28.099  12.775  13.962
69304W        W28807   1.909  10.644  12.067
69305W        W28808   2.425  18.656  13.805
69306W        W28809   1.291   3.778  13.001
69307W        W28810  35.550  32.471   3.644
69308W        W28811  38.367  30.436   4.706
69309W        W28812  15.121  35.024   3.634
69310W        W28813  12.304  24.602   0.327
69311W        W28814  10.145   8.879  10.478
69312W        W28815  26.003  13.727   1.885
69313W        W28816  12.813  19.166  13.387
69314W        W28817  32.102   6.351   1.863
69315W        W28818  18.755  12.725   2.218
69316W        W28819   9.888   5.894  14.897
69317W        W28820  15.248   1.370   0.319
69318W        W28821   8.354  15.173   3.181
69319W        W28822  18.671  31.562  13.990
69320W        W28823  10.370  19.541   0.368
69321W        W28824   8.746  19.703   0.353
69322W        W28825  34.411  43.306  12.526
69323W        W28826  20.160  14.644  14.952
69324W        W28827  35.978  31.416  13.975
69325W        W28828   1.274  21.522   1.238
69326W        W28829   2.472  44.288   1.789
69327W        W28830  17.181   2.361   0.848
69328W        W28831  44.304  37.985   3.820
69329W        W28832  16.137  23.127   4.165
69330W        W28833   1.919   0.798  13.397
69331W        W28834  10.145  10.316   3.697
69332W        W28835   1.756  23.658  10.145
69333W        W28836  20.180  42.461  10.617
69334W        W28837  43.348  26.534   3.204
69335W        W28838  13.184  34.031  13.416
69336W        W28839  17.712  25.712   1.821
69337W        W28840   3.360  22.180   0.814
69338W        W28841  16.809  36.916   3.819
69339W        W28842   8.197  21.536  13.470
69340W        W28843  34.554  36.083  12.495
69341W        W28844  15.236  15.625   2.270
69342W        W28845  12.118  36.851   4.353
69343W        W28846   7.406  20.530   2.718
69344W        W28847  12.222  26.537   4.123
69345W        W28848   5.887  12.321   2.208
69346W        W28849  34.893  27.655  10.596
69347W        W28850  10.828  28.156   3.750
69348W        W28851  36.031  10.189   3.703
69349W        W28852  14.133   7.382   4.773
69350W        W28853   3.807  29.135   1.796
69351W        W28854   0.284  29.933   1.423
69352W        W28855  32.430  43.299  11.954
69353W        W28856  41.447  21.672  11.565
69354W        W28857  17.126  10.761   2.815
69355W        W28858  44.841  12.323  13.927
69356W        W28859  17.253  16.121   4.699
69357W        W28860   2.753  33.966   2.734
69358W        W28861   6.278  33.483  14.946
69359W        W28862   5.368  33.063  10.607
69360W        W28863  28.982  31.966   1.382
69361W        W28864   6.335  13.318  11.021
69362W        W28865  34.033  14.134   2.731
69363W        W28866  43.793   4.764  13.492
69364W        W28867  36.853  15.203  11.952
69365W        W28868  36.375  11.177  10.407
69366W        W28869  42.803  18.561   4.273
69367W        W28870  43.344  32.522  12.071
69368W        W28871  18.622   3.886   2.318
69369W        W28872  28.140  29.046  11.570
69370W        W28873   7.680   5.251  12.877
69371W        W28874  22.182  17.601  11.083
69372W        W28875  21.568   1.958  12.885
69373W        W28876   4.845   7.348   3.705
69374W        W28877  30.438  27.511   3.754
69375W        W28878  35.027  23.600   2.767
69376W        W28879   4.813  27.107   1.779
69377W        W28880   0.491  25.991  11.917
69378W        W28881  43.390   8.789  11.063
69379W        W28882  30.054  30.468   2.225
69380W        W28883   5.305   9.689   2.237
69381W        W28884   4.911  25.623  10.582
69382W        W28885  40.423  36.926   3.814
69383W        W28886  16.737  16.106  12.919
69384W        W28887  35.920   7.363  11.436
69385W        W28888  42.854  29.088  12.051
69386W        W28889   0.877   8.772   4.281
69387W        W28890  22.026  37.030  13.042
69388W        W28891  43.954  44.970  10.487
69389W        W28892  16.591  36.916  14.982
69390W        W28893   2.866   2.377   2.411
69391W        W28894  10.790  22.513  10.966
69392W        W28895  23.986  16.186   2.293
69393W        W28896   7.885  38.827   2.858
69394W        W28897  35.006  25.677  11.896
69395W        W28898  37.548   7.316   1.878
69396W        W28899  23.109  34.542  11.908
69397W        W28900  36.592  26.534  14.909
69398W        W28901  15.120  31.620   4.691
69399W        W28902   9.690   1.394  13.308
69400W        W28903  38.390  19.177   2.397
69401W        W28904  22.189  18.554  12.971
69402W        W28905  29.960   0.774   0.770
69403W        W28906   3.415  31.111   0.382
69404W        W28907   6.328  40.513   4.782
69405W        W28908  11.323  31.011  11.961
69406W        W28909  34.961   1.838   3.668
69407W        W28910  26.141  11.361  12.508
69408W        W28911   4.218   4.431   0.900
69409W        W28912  20.558   5.899  11.404
69410W        W28913   4.444  38.035  13.364
69411W        W28914   4.711   7.173   1.407
69412W        W28915  10.837   9.691   3.167
69413W        W28916  42.031  19.271  14.788
69414W        W28917  14.293   1.270  11.956
69415W        W28918  30.623  44.910   4.150
69416W        W28919  19.585  42.864   0.957
69417W        W28920  23.657  39.036   1.731
69418W        W28921  26.638  40.350   3.311
69419W        W28922  22.070   0.489  12.837
69420W        W28923  10.855   6.892   2.816
69421W        W28924  15.656  15.815  13.429
69422W        W28925  23.003  30.002  13.906
69423W        W28926   9.190   3.816  12.990
69424W        W28927  42.467  26.698  12.459
69425W        W28928  43.876   2.449  14.848
69426W        W28929  27.502  22.188   1.397
69427W        W28930  37.988  22.636   4.315
69428W        W28931  35.993  26.491   5.174
69429W        W28932  20.270  10.835   2.728
69430W        W28933  21.223  21.644   4.681
69431W        W28934  20.668  15.289   0.395
69432W        W28935  23.074  13.189   4.637
69433W        W28936  24.609  43.790   4.657
69434W        W28937  43.454  26.976   3.173
69435W        W28938   1.434   9.733  12.508
69436W        W28939  44.432  16.238   2.390
69437W        W28940  32.928  19.238  13.948
69438W        W28941  18.554  42.383  10.597
69439W        W28942  40.966  18.088  11.456
69440W        W28943  20.641   3.806   1.865
69441W        W28944  33.123  30.462  12.512
69442W        W28945  19.678  24.548   3.731
69443W        W28946  16.308  23.555   4.157
69444W        W28947   0.425  32.133  12.037
69445W        W28948  41.837   6.804  12.464
69446W        W28949  11.759  43.904  13.409
69447W        W28950   3.787  11.271  13.982
69448W        W28951  36.398  40.004  11.873
69449W        W28952  19.607   6.794  12.008
69450W        W28953  37.411  31.479  11.866
69451W        W28954   8.870   5.402   0.355
69452W        W28955  43.011  36.932  11.467
69453W        W28956  21.735   6.243  12.879
69454W        W28957  38.390  33.422   1.880
69455W        W28958  38.894  32.613   0.268
69456W        W28959   5.400  31.409  10.915
69457W        W28960  18.603   7.209  12.865
69458W        W28961  27.559   5.779  10.561
69459W        W28962  33.625  21.130  14.023
69460W        W28963  11.836   0.442  13.001
69461W        W28964  17.245  17.597  12.982
69462W        W28965  19.217  33.061  13.513
69463W        W28966  41.457  28.058  14.438
69464W        W28967  10.268  39.316  10.620
69465W        W28968  10.725  44.304   1.876
69466W        W28969  26.567  31.462   4.810
69467W        W28970   1.399  34.508  12.460
69468W        W28971  28.594  25.064  12.871
69469W        W28972  37.013   6.871  12.977
69470W        W28973  18.076   7.678  11.594
69471W        W28974  18.288  44.906   2.852
69472W        W28975  37.910  37.835   2.338
69473W        W28976  15.762  35.507   2.688
69474W        W28977  40.958  11.365   4.296
69475W        W28978  43.514   8.706   3.295
69476W        W28979   9.372  14.756   2.822
69477W        W28980  24.167  44.280   2.194
69478W        W28981   9.689  11.649   0.957
69479W        W28982   7.341  28.127   2.298
69480W        W28983  17.789  20.108   1.869
69481W        W28984   7.714  17.793  14.759
69482W        W28985  32.404   6.892   4.193
69483W        W28986  35.039   5.326   4.335
69484W        W28987  16.213  25.036  10.915
69485W        W28988   3.387  44.358   2.375
69486W        W28989   3.215  40.404   0.900
69487W        W28990   5.308  44.930  11.092
69488W        W28991  12.148  27.047  14.888
69489W        W28992  22.218  26.698   4.718
69490W        W28993   4.716  41.869   1.811
69491W        W28994  13.829  28.541   3.854
69492W        W28995   1.852  33.462  11.890
69493W        W28996   7.829  13.333  12.502
69494W        W28997   8.275   8.293   4.181
69495W        W28998  44.278  23.061   1.423
69496W        W28999   1.363  12.814   0.910
69497W        W29000  10.746  25.557   3.637
69498W        W29001  20.200  11.269   2.417
69499W        W29002  38.464  29.140  11.927
69500W        W29003  37.436  37.069   2.365
69501W        W29004   0.436  12.666  14.412
69502W        W29005  11.853  17.127  12.071
69503W        W29006  21.145  31.593   4.818
69504W        W29007   6.198  36.919   1.275
69505W        W29008   1.397  23.013   0.435
69506W        W29009  28.085  38.972   5.152
69507W        W29010  29.078  43.446  13.832
69508W        W29011   8.295  23.495   3.868
69509W        W29012  37.391  11.745   1.372
69510W        W29013  14.209   6.831   4.670
69511W        W29014  16.686   8.848   3.743
69512W        W29015   5.276  16.186   0.905
69513W        W29016  42.359  16.668  12.452
69514W        W29017  20.726   1.950  13.900
69515W        W29018  20.135  19.095   3.862
69516W        W29019  18.250   0.888   0.270
69517W        W29020   7.775  24.618   2.375
69518W        W29021  19.739  12.315   0.260
69519W        W29022   4.250  44.794   0.744
69520W        W29023  10.293  42.295   2.852
69521W        W29024  33.107   4.789  13.013
69522W        W29025  30.448  32.526   3.379
69523W        W29026   5.879   1.448   1.787
69524W        W29027  20.607  40.880   2.667
69525W        W29028  38.359  36.558   1.338
69526W        W29029   8.337  14.337   0.775
69527W        W29030   0.743   1.295   1.868
69528W        W29031  22.595  16.216  11.564
69529W        W29032  15.237  38.931  10.091
69530W        W29033   8.406  35.024  10.111
69531W        W29034  13.661  25.199   3.780
69532W        W29035  11.802  41.823   4.253
69533W        W29036   8.271  42.793   3.374
69534W        W29037  30.646  26.061   4.816
69535W        W29038  29.657  10.790   3.668
69536W        W29039   9.706  12.683   4.765
69537W        W29040  35.418  12.149   2.849
69538W        W29041  20.240   0.919   9.977
69539W        W29042   5.809  27.070   4.152
69540W        W29043   9.846  37.451   5.274
69541W        W29044  39.837  31.137   2.180
69542W        W29045  18.235   9.168   3.305
69543W        W29046   7.387  29.488   2.357
69544W        W29047  40.012  42.954   4.192
69545W        W29048  32.122   1.425  11.866
69546W        W29049  30.657  19.770  10.475
69547W        W29050  22.089  43.462   1.791
69548W        W29051  36.895  39.914   2.248
69549W        W29052   9.358  16.603  13.501
69550W        W29053   2.409  14.318   3.656
69551W        W29054   6.402  22.534  12.489
69552W        W29055  26.507   8.855  11.395
69553W        W29056  19.100  21.223   1.353
69554W        W29057  31.539   5.714  12.346
69555W        W29058  33.984  15.127   2.241
69556W        W29059  13.750  36.014   1.229
69557W        W29060   8.216  31.999   1.708
69558W        W29061   4.227   2.404   3.294
69559W        W29062   1.835  24.006   3.750
69560W        W29063  33.078  22.208  13.345
69561W        W29064  14.272  27.601  14.361
69562W        W29065   7.410  42.481   1.713
69563W        W29066  42.314  39.350  10.508
69564W        W29067  31.898  26.601  13.841
69565W        W29068  22.740   5.195   4.765
69566W        W29069  17.585   2.378   2.848
69567W        W29070  35.020   4.861  14.823
69568W        W29071  24.153   3.386  14.275
69569W        W29072  22.234   0.311  11.107
69570W        W29073  33.004  43.934   0.417
69571W        W29074  14.195  26.054  14.960
69572W        W29075  38.394  26.104  12.931
69573W        W29076   8.382  20.714   0.422
69574W        W29077   5.806  28.158   0.261
69575W        W29078  17.596   9.274   1.891
69576W        W29079  20.631  33.056  12.510
69577W        W29080  36.575  24.004   4.275
69578W        W29081  30.637  20.065   0.276
69579W        W29082  24.610  24.534   1.923
69580W        W29083  11.169  14.803   3.336
69581W        W29084   1.930  33.906  10.527
69582W        W29085  27.144  21.208  11.391
69583W        W29086  13.714   9.699   1.927
69584W        W29087   8.823  24.502  13.480
69585W        W29088  21.550  44.776  10.955
69586W        W29089  38.949  32.885  14.450
69587W        W29090  42.430  43.970  12.463
69588W        W29091   7.669  19.627  13.932
69589W        W29092  12.234  18.704   0.738
69590W        W29093  27.602  40.337   0.342
69591W        W29094  43.425  19.712  12.428
69592W        W29095  40.385   0.874   0.773
69593W        W29096   4.911  29.461   4.811
69594W        W29097  39.853  40.513   0.850
69595W        W29098  34.049  35.532   4.655
69596W        W29099  14.640  36.845   1.215
69597W        W29100   9.798  37.996   0.874
69598W        W29101  32.108   8.790  11.599
69599W        W29102   2.791  43.895  14.394
69600W        W29103  31.056  25.492  14.483
69601W        W29104  28.951  21.249  14.007
69602W        W29105   9.737  20.615   3.676
69603W        W29106  22.563  40.902  14.969
69604W        W29107  33.548   7.676   2.419
69605W        W29108  22.070  23.496   0.739
69606W        W29109   6.778  44.432   0.449
69607W        W29110  39.954  32.033   1.776
69608W        W29111  26.689  30.592   3.773
69609W        W29112  22.591  33.387  10.037
69610W        W29113   7.295   2.853  11.928
69611W        W29114  10.231  14.832   5.762
69612W        W29115  33.076  18.114   0.417
69613W        W29116   8.170   7.306  14.870
69614W        W29117  42.817  39.937   3.833
69615W        W29118  22.080   4.817  14.315
69616W        W29119  39.373   9.187  13.398
69617W        W29120  23.065  24.077  14.928
69618W        W29121  26.565  44.435  11.876
69619W        W29122  32.095  22.024   3.199
69620W        W29123  30.552  26.207   1.451
69621W        W29124  23.183   4.382  12.042
69622W        W29125  26.052  30.999  13.885
69623W        W29126  29.532  15.224  11.078
69624W        W29127  43.868  18.602   5.087
69625W        W29128   3.931  15.318   1.276
69626W        W29129  34.884  34.443   2.681
69627W        W29130   4.939   7.788  14.310
69628W        W29131   4.418  23.492  14.995
69629W        W29132  33.911  37.462   3.153
69630W        W29133  25.512  24.637  10.437
69631W        W29134  39.874  25.037   4.184
69632W        W29135  23.094  28.956  12.555
69633W        W29136  44.875  14.203  14.758
69634W        W29137  34.089  37.537   0.440
69635W        W29138  21.524   3.891  12.919
69636W        W29139   0.398   7.309   3.190
69637W        W29140  16.787  16.656  12.876
69638W        W29141  20.700  29.647   4.612
69639W        W29142   1.240   9.390   4.828
69640W        W29143  41.992  14.698   1.924
69641W        W29144  21.589  20.147   0.250
69642W        W29145  25.071  25.993   0.330
69643W        W29146  15.800  25.670  12.938
69644W        W29147   4.359  19.122  14.352
69645W        W29148  32.419  36.079   0.730
69646W        W29149  10.308  12.329   3.197
69647W        W29150  16.575   6.913  14.964
69648W        W29151  17.781  24.722  14.815
69649W        W29152  35.505   3.937   2.349
69650W        W29153  32.578  19.752   0.293
69651W        W29154  30.612  31.496  14.325
69652W        W29155   0.948   2.364   5.176
69653W        W29156   4.833  12.742  13.888
69654W        W29157  18.227  23.606   3.157
69655W        W29158  39.895  42.335  11.459
69656W        W29159  39.405   3.762  11.541
69657W        W29160  23.056   5.711  11.413
69658W        W29161   3.851   5.305   2.825
69659W        W29162   1.772   8.302   0.808
69660W        W29163  44.971  23.569   9.460
69661W        W29164  33.888  43.983   1.334
69662W        W29165  35.066  10.711   2.201
69663W        W29166   1.861   8.669   2.206
69664W        W29167  20.076   5.813   2.271
69665W        W29168  11.315  39.015   2.713
69666W        W29169   9.771  19.596   0.283
69667W        W29170  43.771   7.304  10.535
69668W        W29171  34.390   2.737  11.510
69669W        W29172  44.412   7.785  10.640
69670W        W29173  41.486  23.509  10.925
69671W        W29174  22.733  15.238  14.486
69672W        W29175   4.386  33.008  10.941
69673W        W29176  11.261  19.605  11.571
69674W        W29177  26.133  44.799  12.566
69675W        W29178  38.871  42.426   1.359
69676W        W29179  22.508  17.214   9.956
69677W        W29180  27.099  19.207  13.414
69678W        W29181  17.776   7.300   4.630
69679W        W29182  19.609  40.483   1.358
69680W        W29183   3.802  37.379   0.395
69681W        W29184  36.547  44.970  10.467
69682W        W29185   0.840   0.980   2.409
69683W        W29186  24.179  19.128  13.394
69684W        W29187   4.389  37.949   3.230
69685W        W29188  30.907  40.006   2.194
69686W        W29189   6.252  14.249  14.280
69687W        W29190   2.847  39.546  11.939
69688W        W29191  26.973  34.937  12.507
69689W        W29192  25.965  16.264   3.789
69690W        W29193   2.325  41.293   2.401
69691W        W29194  32.083   4.740   2.818
69692W        W29195  14.787   2.888   4.213
69693W        W29196  39.870   9.854   0.417
69694W        W29197  28.984   1.376  11.560
69695W        W29198  31.115  43.315  10.450
69696W        W29199  32.556  16.748   4.720
69697W        W29200  24.581  28.023   0.791
69698W        W29201  37.536  17.302   3.243
69699W        W29202  33.446  21.691   3.154
69700W        W29203  19.557   2.924  12.930
69701W        W29204  27.944  31.128   0.934
69702W        W29205  13.727  23.069  11.596
69703W        W29206  37.406  39.028   1.424
69704W        W29207  12.712   3.261   4.768
69705W        W29208  19.130   9.849   0.285
69706W        W29209   1.799  38.457   3.833
69707W        W29210  21.695   0.332   1.327
69708W        W29211  22.551   4.892   2.286
69709W        W29212  24.182  14.121   2.273
69710W        W29213  32.419  22.531  12.530
69711W        W29214  16.187   0.307   1.779
69712W        W29215   0.960   8.329   0.757
69713W        W29216  22.061  22.559  10.489
69714W        W29217  22.078  33.416  10.434
69715W        W29218  40.415   4.834   3.828
69716W        W29219  11.245  42.372   4.296
69717W        W29220  21.035  44.835  11.373
69718W        W29221   8.658  43.466  12.555
69719W        W29222   5.881  40.810   2.294
69720W        W29223   7.195  34.100  11.119
69721W        W29224  21.145  20.722  12.915
69722W        W29225   2.377   5.290   1.274
69723W        W29226  44.808   0.858   3.319
69724W        W29227   5.899  35.574   1.858
69725W        W29228   1.378  44.880  10.435
69726W        W29229  40.483  12.821   2.394
69727W        W29230  42.820  26.052  13.312
69728W        W29231  12.733  36.490   0.810
69729W        W29232  25.557  21.131   1.393
69730W        W29233   2.746  31.001   1.934
69731W        W29234  25.652   1.783   1.348
69732W        W29235   4.843  17.292   3.301
69733W        W29236  44.345  26.075   4.682
69734W        W29237  31.953  16.166   2.333
69735W        W29238  44.764  24.068   4.606
69736W        W29239  16.162  17.691  13.841
69737W        W29240  27.618  34.578  13.316
69738W        W29241  31.134  29.113   1.777
69739W        W29242  20.115  34.965   3.241
69740W        W29243  42.306  28.049  10.962
69741W        W29244  34.402  42.426   4.627
69742W        W29245  31.969  41.302  14.018
69743W        W29246  28.517  42.438   2.291
69744W        W29247  14.786  41.917  12.001
69745W        W29248   7.907  14.255  13.958
69746W        W29249   2.308  14.672  11.452
69747W        W29250  21.192  29.101   4.700
69748W        W29251  35.913  31.150  14.874
69749W        W29252  32.501  18.736   4.273
69750W        W29253  32.499  21.686   0.893
69751W        W29254   9.225   0.799  11.020
69752W        W29255  38.394  21.039  10.955
69753W        W29256  16.710  32.476  13.993
69754W        W29257   0.403  13.636   3.211
69755W        W29258  35.922  36.014   2.276
69756W        W29259  25.702  11.316   1.450
69757W        W29260   8.797  11.252  13.514
69758W        W29261   4.923   3.265  11.089
69759W        W29262  14.635   7.816  13.391
69760W        W29263  20.181  27.571   2.869
69761W        W29264  41.964  40.894   2.663
69762W        W29265   9.868   6.382   2.309
69763W        W29266  14.637  28.166   3.709
69764W        W29267  18.567  35.554  11.505
69765W        W29268  28.982  27.449   0.391
69766W        W29269  32.138  32.118  13.831
69767W        W29270  16.120   6.320  14.513
69768W        W29271  25.189  34.084  14.788
69769W        W29272  32.439  32.415  14.930
69770W        W29273   3.953   3.329   9.922
69771W        W29274  22.204  30.149   1.384
69772W        W29275  19.652  18.638  12.832
69773W        W29276  14.699   4.865   4.164
69774W        W29277  44.834  36.887  14.303
69775W        W29278  11.732  19.055   1.899
69776W        W29279  16.148   7.276   0.931
69777W        W29280  12.135   9.855  13.038
69778W        W29281  22.117  43.454   0.260
69779W        W29282  18.113  17.725  10.488
69780W        W29283   4.834  35.978  12.930
69781W        W29284  41.850  37.336  13.963
69782W        W29285  18.214   9.744   1.882
69783W        W29286  37.000  12.303   1.268
69784W        W29287  31.064  34.448  13.063
69785W        W29288  25.581  15.791   4.714
69786W        W29289   0.804  29.011   3.223
69787W        W29290  34.041   5.869  11.608
69788W        W29291  25.143  42.373  11.076
69789W        W29292  13.708   3.437  11.613
69790W        W29293   8.848  16.222  14.807
69791W        W29294  16.652  27.450   0.782
69792W        W29295  21.571  35.885   4.236
69793W        W29296  17.246   8.830   1.781
69794W        W29297  32.122  19.654  13.337
69795W        W29298  43.765  21.128   4.785
69796W        W29299  39.470   3.321   4.722
69797W        W29300  13.133  39.002  10.511
69798W        W29301  22.095  20.600   2.225
69799W        W29302  21.584  39.553   0.355
69800W        W29303  13.799   5.802  11.121
69801W        W29304   7.890  12.823   5.125
69802W        W29305   7.713  36.417  10.973
69803W        W29306  39.849  14.681  10.977
69804W        W29307  17.775  41.038   2.233
69805W        W29308   4.421  11.137   2.390
69806W        W29309  29.151  15.625  10.555
69807W        W29310  13.199  16.192   4.161
69808W        W29311  23.082  33.557   3.159
69809W        W29312  38.975  35.062  11.000
69810W        W29313  42.017  15.150  14.482
69811W        W29314   8.888  37.424  14.960
69812W        W29315  42.286  19.180   5.694
69813W        W29316  43.297  11.760   0.887
69814W        W29317   0.817  42.816  11.418
69815W        W29318  38.333  35.519   3.277
69816W        W29319  11.682   4.735   2.192
69817W        W29320  39.347  18.571   1.217
69818W        W29321  33.027   2.386  12.564
69819W        W29322  39.060  30.475   1.332
69820W        W29323   1.738   9.703   0.844
69821W        W29324  23.006   4.716  11.529
69822W        W29325  43.798   4.249  10.993
69823W        W29326  13.182  20.222  12.436
69824W        W29327  11.350  32.955  12.058
69825W        W29328  35.063   3.849   2.201
69826W        W29329  32.933  32.514  14.473
69827W        W29330  38.565   4.331  12.909
69828W        W29331  17.685  19.641   0.313
69829W        W29332  10.152  30.522   3.236
69830W        W29333  39.453  27.599  13.972
69831W        W29334  31.087  22.592  13.974
69832W        W29335  13.836  24.997   2.728
69833W        W29336  36.081  43.497   2.681
69834W        W29337  23.562  19.689   0.749
69835W        W29338  15.758  13.283   3.782
69836W        W29339  35.097  37.511  14.863
69837W        W29340  11.826  13.114  11.455
69838W        W29341  20.544   5.387  14.330
69839W        W29342  20.653  18.633   4.124
69840W        W29343  32.485  20.621   0.740
69841W        W29344   3.827  42.311  11.860
69842W        W29345  16.087  40.997  14.021
69843W        W29346  14.207  39.517   1.896
69844W        W29347   7.763  37.028  13.543
69845W        W29348   2.405  38.488  14.288
69846W        W29349  37.943  16.249  13.052
69847W        W29350   2.343   4.781  12.445
69848W        W29351  31.447   3.783  11.570
69849W        W29352   7.376   8.728  12.409
69850W        W29353  10.818  10.284   1.400
69851W        W29354  19.545  31.014   3.313
69852W        W29355  34.501   7.291   1.233
69853W        W29356  11.733  31.590  14.497
69854W        W29357   9.313  42.401   1.255
69855W        W29358   8.348  34.943   3.370
69856W        W29359  36.521  42.991  11.939
69857W        W29360  38.053  18.578   3.765
69858W        W29361  19.630  19.117   1.841
69859W        W29362  26.150   0.473  10.498
69860W        W29363  39.499  24.987  14.432
69861W        W29364  15.636  27.979   1.428
69862W        W29365  28.045   6.242   2.760
69863W        W29366  38.063  19.122   1.373
69864W        W29367  24.211  38.454  11.428
69865W        W29368  33.470  37.872   5.269
69866W        W29369  15.285  17.731   1.376
69867W        W29370  30.971  40.803  14.347
69868W        W29371  32.906  44.985   0.261
69869W        W29372  42.859  24.086  13.419
69870W        W29373  19.173  34.863  10.571
69871W        W29374  34.515  29.988  14.354
69872W        W29375   7.871  39.392  13.377
69873W        W29376  44.780   9.218   1.746
69874W        W29377  28.937   1.892  14.982
69875W        W29378  22.222  26.538   0.271
69876W        W29379  14.819  31.408   3.372
69877W        W29380  35.021  43.357   3.298
69878W        W29381  43.907   3.460   0.768
69879W        W29382  43.276  41.314   3.324
69880W        W29383  22.620   8.860   1.866
69881W        W29384  44.450  16.084   5.254
69882W        W29385  20.741  41.010  11.486
69883W        W29386  17.720  30.148   4.275
69884W        W29387  33.578  13.129  13.489
69885W        W29388  36.458  23.068   4.274
69886W        W29389  17.296  16.747   2.415
69887W        W29390  27.183   6.694  11.899
69888W        W29391  35.366   5.757   1.878
69889W        W29392   4.720  21.702   2.864
69890W        W29393  25.161  38.447   1.893
69891W        W29394   1.858   1.318   1.803
69892W        W29395  20.144  39.001  14.926
69893W        W29396  28.593  36.446  13.891
69894W        W29397  36.980  14.758  11.121
69895W        W29398  36.029  27.039   3.246
69896W        W29399   2.284  24.611  10.018
69897W        W29400  17.797  43.364   1.933
69898W        W29401  40.454  16.143   4.297
69899W        W29402   5.253  15.149  10.983
69900W        W29403  24.696   3.887   4.639
69901W        W29404  44.480  29.116  13.339
69902W        W29405  15.806  32.505   9.627
69903W        W29406  27.027  38.358  14.499
69904W        W29407   7.755  31.501  11.610
69905W        W29408   3.219  27.508   1.930
69906W        W29409  23.707   1.256  11.569
69907W        W29410  40.479  16.697  12.862
69908W        W29411  34.532   7.906  14.443
69909W        W29412  12.138  27.449  11.593
69910W        W29413  22.038  24.650   4.271
69911W        W29414   7.207  24.720  10.957
69912W        W29415  11.213  10.757  13.460
69913W        W29416  39.414   4.809   9.489
69914W        W29417  29.660   6.369   4.774
69915W        W29418  18.214  30.024  11.056
69916W        W29419   6.748   9.699  12.365
69917W        W29420  41.900   7.807  12.476
69918W        W29421  15.248  33.583  10.932
69919W        W29422  36.532  21.217   4.608
69920W        W29423  37.020  15.813  11.571
69921W        W29424  41.860  29.945  10.498
69922W        W29425  22.099  32.619  12.380
69923W        W29426   7.409  24.059  14.762
69924W        W29427   1.759  27.964   4.150
69925W        W29428  42.296  17.105   3.758
69926W        W29429  16.090  30.473   1.217
69927W        W29430  21.709   4.351  10.625
69928W        W29431  20.552  42.810  11.539
69929W        W29432   3.237   7.300  12.090
69930W        W29433  10.264  20.110  14.767
69931W        W29434  32.132  32.997   4.295
69932W        W29435  21.737  29.942   3.652
69933W        W29436  13.690  28.681   0.360
69934W        W29437  11.645  30.023   4.679
69935W        W29438  33.040  28.515   0.906
69936W        W29439   2.249  28.143  13.376
69937W        W29440  15.801  37.988   2.408
69938W        W29441  23.652  43.859   0.296
69939W        W29442  34.431  14.807   9.642
69940W        W29443   4.908  11.166  11.018
69941W        W29444  42.449   5.301  12.382
69942W        W29445  12.769   7.906  12.828
69943W        W29446  28.071  44.780   0.338
69944W        W29447  23.524  17.728  10.415
69945W        W29448  26.003  24.549   2.378
69946W        W29449   2.392  37.551  14.932
69947W        W29450  19.044   8.160  14.931
69948W        W29451   0.753  39.351   4.291
69949W        W29452  35.082  44.442   3.828
69950W        W29453   7.754  19.077  14.281
69951W        W29454  27.983  21.683   3.844
69952W        W29455  35.895   3.393   0.395
69953W        W29456  15.764  31.994  11.881
69954W        W29457  19.131  25.013  10.453
69955W        W29458  34.961  10.707  10.630
69956W        W29459  24.177   9.366  12.453
69957W        W29460   1.748  28.162   0.337
69958W        W29461  41.016  33.042  13.428
69959W        W29462   7.249  28.102  13.006
69960W        W29463  14.748  44.924   0.357
69961W        W29464  26.008   5.387   0.267
69962W        W29465  41.982  17.295  14.459
69963W        W29466  35.431   2.327  13.379
69964W        W29467  18.740  25.522   3.344
69965W        W29468   4.345  36.436   4.294
69966W        W29469  13.622   3.419   4.168
69967W        W29470   2.334  34.943   1.260
69968W        W29471   1.804  44.806  14.984
69969W        W29472   5.789   5.803  13.006
69970W        W29473  13.188  37.835  10.920
69971W        W29474   2.450  24.091   3.334
69972W        W29475  39.906  37.896  11.425
69973W        W29476  21.181  36.073  14.430
69974W        W29477  13.690  39.931  13.900
69975W        W29478   1.256   1.331  14.872
69976W        W29479  35.860  42.009  10.628
69977W        W29480  12.832   8.887   3.278
69978W        W29481  41.006  37.446   2.673
69979W        W29482   8.843  10.745   3.248
69980W        W29483  22.550  32.127  11.873
69981W        W29484  14.620  24.106   3.708
69982W        W29485  28.005  16.783   3.272
69983W        W29486  38.008  22.686   4.837
69984W        W29487  27.130  26.583  10.075
69985W        W29488  38.069  41.006   3.853
69986W        W29489  33.877  12.730   0.769
69987W        W29490   0.476  22.097   0.462
69988W        W29491  12.255  29.510  12.409
69989W        W29492  21.171  10.787   3.380
69990W        W29493   7.332  33.019   3.192
69991W        W29494  12.211  21.113   3.331
69992W        W29495  22.727   6.845  11.891
69993W        W29496  18.136  31.478   4.656
69994W        W29497  34.040   4.916  10.545
69995W        W29498  26.488   1.799  11.099
69996W        W29499  32.539  30.056   2.781
69997W        W29500  16.803  11.693   3.857
69998W        W29501   5.923  26.518  14.025
69999W        W29502  44.969  11.724  11.856
70000W        W29503   1.386  36.091   3.249
70001W        W29504  40.305  34.051  10.541
70002W        W29505  24.557  37.416   1.379
70003W        W29506  38.999  40.342  10.062
70004W        W29507  33.884   1.423   1.438
70005W        W29508  16.756  39.906  10.633
70006W        W29509  17.619   5.798  13.346
70007W        W29510  37.473  22.614   3.694
70008W        W29511  26.622  12.243  11.932
70009W        W29512  44.505  18.081   1.797
70010W        W29513   0.486  38.521   4.124
70011W        W29514  17.214  14.191  13.061
70012W        W29515  31.951  40.509   4.286
70013W        W29516  30.075   1.402  11.129
70014W        W29517  17.074   6.785   2.891
70015W        W29518  30.077  28.578  10.504
70016W        W29519   0.875  14.835   0.793
70017W        W29520   5.260  27.642   3.159
70018W        W29521   0.944  33.917   4.149
70019W        W29522  43.303  28.067   2.213
70020W        W29523  10.713  41.003  10.501
70021W        W29524   9.249   3.729  11.883
70022W        W29525  32.465  34.030  14.997
70023W        W29526  30.112  22.598   1.746
70024W        W29527  39.553  30.044  14.883
70025W        W29528  29.515  20.583   0.748
70026W        W29529  32.607  37.544  11.476
70027W        W29530   5.351  10.874   3.309
70028W        W29531  26.645  30.138  12.061
70029W        W29532  22.008  21.106   3.214
70030W        W29533  13.326  43.973  10.486
70031W        W29534  35.549  15.253  13.442
70032W        W29535  24.033  13.333   0.461
70033W        W29536  32.015   6.703  13.411
70034W        W29537  13.216  24.576   1.701
70035W        W29538  28.066  19.617   5.292
70036W        W29539  27.679  33.388  11.570
70037W        W29540  32.886  16.707  11.042
70038W        W29541   3.300   9.378  13.797
70039W        W29542  39.998  25.975  14.791
70040W        W29543  12.611  21.243   3.796
70041W        W29544  43.455  23.551   0.835
70042W        W29545  29.614   1.769   0.365
70043W        W29546  37.998  20.257   0.427
70044W        W29547  25.680  24.180   0.924
70045W        W29548  14.772   4.353   1.788
70046W        W29549  25.146  41.860   4.606
70047W        W29550  37.442  37.531   2.367
70048W        W29551  36.863  27.989   4.690
70049W        W29552   7.285   8.324   4.672
70050W        W29553  29.074  17.797   1.730
70051W        W29554  10.660  27.114  10.440
70052W        W29555  23.656  33.389  12.562
70053W        W29556  11.697  12.730   2.316
70054W        W29557  14.117  41.363   2.764
70055W        W29558  28.565   9.191   0.764
70056W        W29559  27.674   9.177  11.612
70057W        W29560  18.739  12.786  10.075
70058W        W29561  43.912  33.541  14.856
70059W        W29562  34.558  13.310  11.489
70060W        W29563   3.837   1.465   4.622
70061W        W29564   9.339  44.459   0.859
70062W        W29565  23.226   3.883   4.682
70063W        W29566  20.765  31.608  11.391
70064W        W29567  33.494  19.111  14.303
70065W        W29568  19.642  43.866   1.267
70066W        W29569  29.538   3.227  11.019
70067W        W29570   2.865  20.053  12.023
70068W        W29571   6.715  40.826   4.169
70069W        W29572  27.032  10.749   3.668
70070W        W29573  14.114  17.261   3.851
70071W        W29574  12.209  31.418   0.410
70072W        W29575   2.386  42.027  12.369
70073W        W29576   5.800   0.860   2.387
70074W        W29577  25.619  28.136  10.121
70075W        W29578  37.512  41.823  11.103
70076W        W29579  38.369  16.704  14.854
70077W        W29580   9.287  40.023   1.845
70078W        W29581  28.066  24.545   3.239
70079W        W29582  18.241   9.765  11.539
70080W        W29583  18.771  34.612  11.394
70081W        W29584  11.675  42.312  10.476
70082W        W29585  35.428  21.138  11.452
70083W        W29586  39.402  36.362  11.390
70084W        W29587  17.580  27.662   4.755
70085W        W29588  35.025   9.341  13.911
70086W        W29589  21.525  10.777   3.704
70087W        W29590  42.849  35.468  11.095
70088W        W29591   6.267  43.293   5.101
70089W        W29592  29.453  33.952   1.266
70090W        W29593  34.956   1.826  11.523
70091W        W29594  33.039  18.776   4.254
70092W        W29595  36.090  12.763  13.512
70093W        W29596  40.472  21.579   0.277
70094W        W29597   9.798  41.507   4.606
70095W        W29598  44.395  12.676   4.160
70096W        W29599  10.820  36.020   3.747
70097W        W29600  40.359   3.343   0.744
70098W        W29601   8.900  19.145   2.218
70099W        W29602   6.264  18.109   5.201
70100W        W29603  18.075   8.260  14.404
70101W        W29604   2.461  29.020   2.313
70102W        W29605  37.470  40.883   1.320
70103W        W29606  33.432   4.839  10.056
70104W        W29607   6.392   7.751   1.830
70105W        W29608  31.994  37.060  12.438
70106W        W29609   6.763  33.507  12.080
70107W        W29610  18.646  14.189  12.435
70108W        W29611  20.524  29.526  14.376
70109W        W29612  14.835   8.373   4.649
70110W        W29613  13.687   6.697  13.995
70111W        W29614  23.208  34.494  13.483
70112W        W29615   0.773  38.016  11.901
70113W        W29616  16.750  18.660   4.764
70114W        W29617  17.131  20.568  14.387
70115W        W29618   4.224   7.416  14.951
70116W        W29619  32.989  28.146  10.425
70117W        W29620  18.681  38.860   4.305
70118W        W29621   9.204  25.605  12.376
70119W        W29622   1.928  16.135   0.931
70120W        W29623  26.655  17.701  12.911
70121W        W29624  29.587  40.487  14.771
70122W        W29625   9.840  13.618   2.229
70123W        W29626  17.129  16.232   1.906
70124W        W29627  14.102  18.657   5.292
70125W        W29628  40.834  28.582  11.450
70126W        W29629  34.499  23.151  14.479
70127W        W29630  26.195   8.264  10.506
70128W        W29631  20.680  12.836  12.944
70129W        W29632  21.520   8.718  11.898
70130W        W29633  12.253   1.278   4.663
70131W        W29634  25.693  26.084   4.738
70132W        W29635   5.297  10.214  13.001
70133W        W29636  30.461  27.640   1.784
70134W        W29637   3.853   8.817   5.174
70135W        W29638   9.837  10.865   0.283
70136W        W29639  41.477  10.794   3.195
70137W        W29640  24.980  31.461   2.407
70138W        W29641  31.957  35.026   2.415
70139W        W29642  44.914   4.784   1.383
70140W        W29643   0.969  21.017   3.204
70141W        W29644  22.568  19.573  11.024
70142W        W29645  29.076  22.246   4.760
70143W        W29646  26.084   3.417   1.740
70144W        W29647  10.851   8.764   4.693
70145W        W29648  18.554   0.435  10.936
70146W        W29649  38.341  43.955   2.683
70147W        W29650  42.289  31.113   4.315
70148W        W29651  42.309  24.566   3.189
70149W        W29652  21.256  16.704  11.594
70150W        W29653  34.471   2.891  12.073
70151W        W29654   7.741   4.225   0.808
70152W        W29655  37.895   4.723  13.917
70153W        W29656  10.675  38.463   2.868
70154W        W29657  24.563  25.065   2.892
70155W        W29658  43.801  30.994   0.729
70156W        W29659   7.392  42.916  13.390
70157W        W29660  36.867  26.670   2.875
70158W        W29661  24.542   8.391  12.570
70159W        W29662  19.757  39.015  10.565
70160W        W29663  20.627  44.935  12.912
70161W        W29664  43.946  24.078  13.964
70162W        W29665  21.600  25.032   1.872
70163W        W29666   7.338  29.628   4.260
70164W        W29667  16.282  37.079  11.890
70165W        W29668  25.053  17.775   4.163
70166W        W29669  11.665   3.808  10.939
70167W        W29670  44.465  12.702  10.088
70168W        W29671  43.790  19.235   4.819
70169W        W29672  16.170   4.724  13.326
70170W        W29673  28.081  18.766  11.513
70171W        W29674  20.060  42.908   3.351
70172W        W29675   6.359   7.286  14.501
70173W        W29676  35.060  13.651  12.524
70174W        W29677  30.147  31.039   4.834
70175W        W29678  34.603  35.571   4.324
70176W        W29679  39.038  43.348  14.838
70177W        W29680  40.514  23.239   4.221
70178W        W29681  30.634  28.085   9.976
70179W        W29682  30.963   0.295   0.739
70180W        W29683  41.901   8.326   4.817
70181W        W29684  38.533   3.779   5.185
70182W        W29685  11.273  34.868  11.045
70183W        W29686  19.051  16.245   4.287
70184W        W29687  10.330   6.763  10.422
70185W        W29688   1.786  34.441   1.743
70186W        W29689   1.929  14.738  11.580
70187W        W29690  28.993  39.357  12.406
70188W        W29691   5.879  38.457   3.784
70189W        W29692  32.594  18.766  11.419
70190W        W29693   0.293  33.989  10.960
70191W        W29694  40.855  31.124  13.950
70192W        W29695  43.845  25.592   1.706
70193W        W29696   3.319   0.940   2.887
70194W        W29697  43.935  36.865   0.781
70195W        W29698  34.059  38.902  14.789
70196W        W29699  22.702  41.022   0.790
70197W        W29700  40.533   2.418   1.363
70198W        W29701  35.062  41.909  10.965
70199W        W29702  34.475  17.664   3.298
70200W        W29703  34.883  16.298   3.629
70201W        W29704  37.087   2.456   4.702
70202W        W29705  37.033  16.301   1.868
70203W        W29706  27.670  22.239   1.832
70204W        W29707  23.089  42.862   4.295
70205W        W29708  17.679   1.899   0.897
70206W        W29709  27.622  25.018  14.393
70207W        W29710   8.207  26.627  11.086
70208W        W29711  34.970  43.486  12.422
70209W        W29712  28.534  42.294   4.135
70210W        W29713   7.829  34.039   3.857
70211W        W29714  39.541  10.161   0.324
70212W        W29715  27.457  43.299  14.414
70213W        W29716  11.305  13.832  14.888
70214W        W29717  37.571  36.998  14.811
70215W        W29718  18.646  11.293   4.137
70216W        W29719  26.200  29.972  12.029
70217W        W29720  24.510  43.389   4.219
70218W        W29721   0.978  25.136   4.131
70219W        W29722  44.872  10.289  10.514
70220W        W29723  40.315  26.099  14.281
70221W        W29724  44.955  39.929  12.847
70222W        W29725   9.698  22.539  10.535
70223W        W29726  16.146   5.693  14.975
70224W        W29727   7.326   7.369   0.360
70225W        W29728  19.106  42.456  14.356
70226W        W29729  23.148  24.157  11.932
70227W        W29730  33.955  12.131   0.413
70228W        W29731  10.660  44.915  10.493
70229W        W29732  11.686  17.103   0.802
70230W        W29733  10.683  23.627   4.260
70231W        W29734  13.168  13.646  12.862
70232W        W29735   5.360  10.856  11.565
70233W        W29736   0.449  40.819  13.539
70234W        W29737  11.335   2.471  14.506
70235W        W29738   8.246  22.735   4.797
70236W        W29739  36.858  35.057  14.387
70237W        W29740  37.991  21.684  12.931
70238W        W29741   3.359  24.710  10.946
70239W        W29742  39.374  38.344   3.386
70240W        W29743   1.883  37.946  13.036
70241W        W29744  21.136  17.761  12.496
70242W        W29745  40.390   9.709  10.469
70243W        W29746  30.973  34.947   5.602
70244W        W29747  30.151  40.427   0.900
70245W        W29748   2.259  34.515  10.151
70246W        W29749  32.546  21.061  13.948
70247W        W29750   0.276   7.692  12.857
70248W        W29751  22.502  35.431  13.941
70249W        W29752   1.781   6.838  13.542
70250W        W29753  25.590  13.222   0.899
70251W        W29754  38.837  13.752  13.965
70252W        W29755   8.795  24.719  12.518
70253W        W29756  34.904  28.599  14.912
70254W        W29757  41.399  10.842   4.329
70255W        W29758   6.184  27.983   4.796
70256W        W29759  28.535   0.807   1.439
70257W        W29760  23.538  42.346  14.776
70258W        W29761  16.653   2.380  14.781
70259W        W29762  28.458  42.426   3.371
70260W        W29763  36.469   2.358  12.465
70261W        W29764  16.272   3.249   0.822
70262W        W29765  27.598   3.292  12.916
70263W        W29766  37.949  19.135  14.419
70264W        W29767  43.896  40.545  12.050
70265W        W29768  39.442   6.736  13.927
70266W        W29769  12.256  33.107   3.326
70267W        W29770  25.521  25.488  11.106
70268W        W29771  13.125  22.163   4.116
70269W        W29772  22.555  44.311   3.710
70270W        W29773  23.666  16.087  14.956
70271W        W29774   9.327  14.201   4.240
70272W        W29775  32.447  38.835   4.350
70273W        W29776  30.129  23.671  13.484
70274W        W29777   8.307  33.537   4.199
70275W        W29778  25.113  11.274   2.857
70276W        W29779  34.420   9.189   3.830
70277W        W29780   5.304   5.826   3.780
70278W        W29781  25.502   8.692  13.469
70279W        W29782  39.037  25.070   3.661
70280W        W29783  42.946  24.029  12.464
70281W        W29784  15.763  25.193   3.307
70282W        W29785  12.818   1.455  12.907
70283W        W29786  25.492  21.138  10.047
70284W        W29787   0.810  18.166  12.982
70285W        W29788  13.198  16.798   2.717
70286W        W29789  28.186  22.644  11.054
70287W        W29790  38.529   9.168   3.825
70288W        W29791  31.477  20.539  14.916
70289W        W29792  20.264  39.473   4.752
70290W        W29793  18.097  10.853  13.344
70291W        W29794  34.396   8.897   2.746
70292W        W29795  13.705  35.538   4.131
70293W        W29796  25.118  38.405   4.178
70294W        W29797  15.172  26.620  11.535
70295W        W29798  20.077  34.467   1.753
70296W        W29799  32.582  35.029  13.484
70297W        W29800  12.750  31.153  11.893
70298W        W29801  41.295   3.268  10.607
70299W        W29802  25.493  18.258   2.717
70300W        W29803  39.936  24.556  11.558
70301W        W29804  39.895  11.716  12.836
70302W        W29805  34.421   6.849   4.200
70303W        W29806  17.145  10.878  13.383
70304W        W29807  22.657  25.545   0.840
70305W        W29808  33.949  22.707   3.364
70306W        W29809  31.042  40.543   4.322
70307W        W29810  22.075  35.528  12.537
70308W        W29811  11.258  39.426   0.821
70309W        W29812  42.883  36.053   1.915
70310W        W29813  20.250  31.965   2.402
70311W        W29814  15.089  31.549   3.295
70312W        W29815  39.948  37.041  10.469
70313W        W29816  33.425  29.531   1.227
70314W        W29817  24.562  35.954  13.481
70315W        W29818  12.121   0.346   0.787
70316W        W29819  23.216  26.193  11.903
70317W        W29820   4.316  21.585   2.740
70318W        W29821  41.350   1.399  11.423
70319W        W29822  33.066   3.417  14.286
70320W        W29823  33.458  17.088   0.249
70321W        W29824   9.711  10.139  11.574
70322W        W29825   1.381  14.326  11.544
70323W        W29826  40.456  22.007  14.401
70324W        W29827  32.542  39.536   9.922
70325W        W29828  18.551  37.394   2.178
70326W        W29829  12.181  28.577  13.524
70327W        W29830  13.638  17.147  12.989
70328W        W29831  24.042  41.411  14.415
70329W        W29832   6.384  43.390   0.846
70330W        W29833  29.968  13.701  11.981
70331W        W29834  10.663  11.228  10.484
70332W        W29835  24.982  23.128  13.490
70333W        W29836  30.492  35.051  12.478
70334W        W29837  20.560  39.028  11.539
70335W        W29838  31.556  40.961  12.442
70336W        W29839  42.355  18.647   1.847
70337W        W29840  40.882  14.275  11.599
70338W        W29841  33.912  21.159  13.947
70339W        W29842  15.690  34.588  11.998
70340W        W29843  32.532  41.981  14.976
70341W        W29844   7.374  40.508  11.431
70342W        W29845  35.106   9.663   0.342
70343W        W29846  35.987  41.850  13.500
70344W        W29847  26.514   6.850   4.750
70345W        W29848  20.047  37.053   0.790
70346W        W29849   1.879  14.794   4.149
70347W        W29850  37.566  32.519  10.437
70348W        W29851   7.213  42.388  13.503
70349W        W29852  41.908  36.527   3.680
70350W        W29853  43.354   0.819   4.236
70351W        W29854  10.843  22.652  11.381
70352W        W29855   2.348  37.502   5.131
70353W        W29856  37.453  43.980  13.816
70354W        W29857  30.433   6.742  11.902
70355W        W29858  21.119  24.130   0.443
70356W        W29859   1.402  36.063  14.479
70357W        W29860  23.679  14.232  14.371
70358W        W29861   5.800   1.975  11.419
70359W        W29862  16.283  14.807  10.494
70360W        W29863  16.149  26.139  11.418
70361W        W29864  44.482  32.995  13.848
70362W        W29865  35.909  11.258  14.366
70363W        W29866  12.855  36.072  12.018
70364W        W29867  31.638  24.006   2.829
70365W        W29868  24.582  25.147  14.408
70366W        W29869  34.392  29.954  12.383
70367W        W29870  23.526  43.409   2.767
70368W        W29871  39.884   1.460   0.410
70369W        W29872   5.906  17.749  11.496
70370W        W29873  19.563  30.121  12.048
70371W        W29874  12.706   6.745   1.743
70372W        W29875  36.421   6.714  12.021
70373W        W29876  42.337   8.694  12.405
70374W        W29877   2.868  16.696  10.636
70375W        W29878   1.874  26.529  12.517
70376W        W29879  34.113  40.887  14.280
70377W        W29880  42.811   5.798   0.740
70378W        W29881  31.602  34.490  11.569
70379W        W29882  13.299   2.341  14.306
70380W        W29883   0.314  31.540   1.219
70381W        W29884  35.024  42.411  10.964
70382W        W29885  12.242  43.834  12.473
70383W        W29886  16.225  14.704  12.024
70384W        W29887   7.369  36.396  13.794
70385W        W29888  11.708  21.072   1.903
70386W        W29889  24.493  23.513  14.417
70387W        W29890  42.451  30.126   3.262
70388W        W29891  15.156  34.995  11.879
70389W        W29892  41.015   7.909   0.310
70390W        W29893   5.193  24.492  11.531
70391W        W29894  28.658   1.454  13.818
70392W        W29895  14.329  15.243  11.605
70393W        W29896   6.904  33.397  11.487
70394W        W29897   2.908  14.178   2.663
70395W        W29898  32.588   2.333  14.803
70396W        W29899  40.506   7.387  12.349
70397W        W29900  44.777  42.876  11.881
70398W        W29901  28.073  14.640   4.320
70399W        W29902   2.802  21.123   2.863
70400W        W29903  15.652  14.763  11.441
70401W        W29904   1.932  12.348   1.824
70402W        W29905  28.504  33.484   0.243
70403W        W29906  40.941  20.166  13.016
70404W        W29907  19.587   4.282  12.983
70405W        W29908  20.573  37.478  11.569
70406W        W29909  25.026  43.387   0.947
70407W        W29910  42.454  32.488  13.918
70408W        W29911  27.691  29.970  12.489
70409W        W29912  24.173   5.369  12.443
70410W        W29913  35.090  20.103   4.139
70411W        W29914   9.810  42.820  12.935
70412W        W29915  44.911   2.338  12.916
70413W        W29916  44.771   7.689   4.605
70414W        W29917   3.351   2.411  11.930
70415W        W29918  12.789   0.859   4.117
70416W        W29919  17.673  34.376   0.870
70417W        W29920  19.249  12.825  13.445
70418W        W29921  25.536  44.981  14.950
70419W        W29922  13.774   7.769  11.432
70420W        W29923  32.439   6.277  13.875
70421W        W29924  18.613  35.003  14.275
70422W        W29925  12.281  15.648  10.554
70423W        W29926  36.499   0.989   4.186
70424W        W29927   0.301   3.445  11.489
70425W        W29928  10.260  26.971  10.930
70426W        W29929  43.789  17.208   2.335
70427W        W29930  29.970   1.435   4.697
70428W        W29931  29.993  30.481  12.476
70429W        W29932  15.737   5.815   3.663
70430W        W29933  21.547  27.162  10.508
70431W        W29934  22.062  20.133  11.437
70432W        W29935  31.955  16.081  14.309
70433W        W29936  41.386  21.211   3.340
70434W        W29937  25.031  37.037  11.501
70435W        W29938   4.914  31.016  14.767
70436W        W29939  28.465  24.676   1.210
70437W        W29940   1.752  36.841   4.647
70438W        W29941  35.591  13.129   4.678
70439W        W29942  44.840   4.753  13.489
70440W        W29943  25.101  15.261  14.919
70441W        W29944  20.123  24.114  13.918
70442W        W29945   5.308   6.773   1.272
70443W        W29946  17.767  33.112   3.301
70444W        W29947  32.898  14.297  13.887
70445W        W29948  19.595  17.775   3.321
70446W        W29949  20.114  41.901   1.725
70447W        W29950  35.441  42.927  13.795
70448W        W29951   0.955  28.113  12.498
70449W        W29952  28.159  32.043   1.348
70450W        W29953  31.034  12.314  11.573
70451W        W29954  17.173  40.834  10.460
70452W        W29955  11.354  14.322  14.364
70453W        W29956   5.900  38.032  13.492
70454W        W29957  26.025  13.217   0.412
70455W        W29958  27.550  16.618   2.406
70456W        W29959  36.569  10.648   1.901
70457W        W29960  31.485  42.994   2.220
70458W        W29961  20.666  24.109   1.785
70459W        W29962   9.165   9.845  13.955
70460W        W29963  32.404  10.233  10.929
70461W        W29964  22.548  31.139  14.468
70462W        W29965  18.086   5.398  14.773
70463W        W29966  37.472  20.698   3.170
70464W        W29967  20.065   5.281  12.441
70465W        W29968  16.127  19.741  12.887
70466W        W29969  21.079   1.442   4.750
70467W        W29970   9.381   2.949   0.348
70468W        W29971  18.226  25.700  11.518
70469W        W29972  33.494   0.380  12.859
70470W        W29973  33.904  18.102   1.211
70471W        W29974  14.687  26.611  14.389
70472W        W29975  23.590  41.904   1.887
70473W        W29976  28.121  16.190   3.235
70474W        W29977  28.018  43.380  12.495
70475W        W29978  26.003  36.006  11.002
70476W        W29979  16.631   6.907  10.601
70477W        W29980  17.245  44.863  12.550
70478W        W29981  24.204  38.849  12.947
70479W        W29982  28.162  12.688   9.471
70480W        W29983  15.695  16.110   1.779
70481W        W29984  31.558  24.106   3.863
70482W        W29985  31.630  18.629  11.996
70483W        W29986   9.265  17.187   1.920
70484W        W29987   3.779  10.755  12.349
70485W        W29988  12.636   5.823  11.556
70486W        W29989  39.415  35.012   1.926
70487W        W29990  34.929  37.895  14.816
70488W        W29991  34.525   2.280  14.510
70489W        W29992  43.407  30.985  14.818
70490W        W29993  34.868   6.892   0.870
70491W        W29994  43.989  19.643   0.429
70492W        W29995  30.552  30.956   3.347
70493W        W29996   1.954  42.899   3.326
70494W        W29997  19.544  43.337   1.796
70495W        W29998  16.125  31.114  11.928
70496W        W29999  20.752  12.831   2.186
70497W        W30000  25.592  40.997  14.393
70498W        W30001   0.483  33.039  13.055
70499W        W30002  28.990   7.206   4.779
70500W        W30003   2.368  20.229   4.653
70501W        W30004  38.564  43.956   4.608
70502W        W30005  15.184  22.018   1.926
70503W        W30006  19.626  36.584   5.135
70504W        W30007  17.680  32.014  12.946
70505W        W30008   2.427  30.964  13.442
70506W        W30009   5.355  31.111  12.842
70507W        W30010   0.946  18.238   1.821
70508W        W30011  19.759  25.534   2.311
70509W        W30012  38.935   6.714  14.922
70510W        W30013  44.006  21.706   0.858
70511W        W30014  33.448  32.905  14.475
70512W        W30015  20.089  16.164  10.942
70513W        W30016  28.572  29.507   1.383
70514W        W30017  25.193  32.618  13.798
70515W        W30018   0.463  36.843  14.274
70516W        W30019  41.425  43.900   1.818
70517W        W30020  44.850  13.161  13.992
70518W        W30021  32.524  44.003   3.788
70519W        W30022  25.540  43.885   1.373
70520W        W30023  24.165  15.766   1.274
70521W        W30024  29.617   7.706   2.235
70522W        W30025  16.291  37.443  10.421
70523W        W30026  10.184  33.611  12.838
70524W        W30027  35.471  38.839   4.797
70525W        W30028  40.347  37.962   1.266
70526W        W30029  13.318  12.133   2.825
70527W        W30030   1.376  17.683  12.937
70528W        W30031  26.614   7.767  10.963
70529W        W30032  40.038  43.411   2.791
70530W        W30033   3.263  31.116   1.365
70531W        W30034  40.029   5.863   3.227
70532W        W30035   1.271  11.628   4.149
70533W        W30036  19.588  10.663   4.117
70534W        W30037  31.585  14.166   2.847
70535W        W30038  24.199  32.916  13.824
70536W        W30039  15.696  11.291   4.129
70537W        W30040  27.189   9.795   4.806
70538W        W30041  44.810  12.208   3.275
70539W        W30042  27.450  25.646   2.331
70540W        W30043  16.186  41.809   1.904
70541W        W30044  20.525  39.395   3.300
70542W        W30045  24.203  24.031   0.873
70543W        W30046  11.223  32.596  13.503
70544W        W30047  18.636  27.641  11.063
70545W        W30048   5.203  38.465   3.701
70546W        W30049  18.713  37.397   0.822
70547W        W30050  20.614   0.449  11.874
70548W        W30051  29.617  16.709   2.367
70549W        W30052   1.392  37.440  13.325
70550W        W30053  22.586  32.978  12.937
70551W        W30054  32.045  20.622   3.355
70552W        W30055   1.389   9.777  12.090
70553W        W30056  35.478  33.420  10.419
70554W        W30057   0.477  38.905  10.444
70555W        W30058  37.349  43.839   2.221
70556W        W30059  14.637  42.950  10.153
70557W        W30060   3.931  39.836  11.611
70558W        W30061  30.638  25.102   9.481
70559W        W30062  15.622  44.500   5.306
70560W        W30063  36.999  34.102  13.940
70561W        W30064  40.448  25.099   5.165
70562W        W30065  36.956  23.105  12.506
70563W        W30066  18.222  28.626  11.021
70564W        W30067   2.318  44.427  14.987
70565W        W30068   3.307   2.781  10.002
70566W        W30069   6.848   8.674  13.941
70567W        W30070  33.511  26.505  14.358
70568W        W30071  34.402  29.479   2.839
70569W        W30072  37.442  20.652   2.782
70570W        W30073  27.110  39.005   2.300
70571W        W30074   7.745  11.625  13.908
70572W        W30075  44.329   0.742   4.668
70573W        W30076  27.971   8.240  11.907
70574W        W30077  21.688   5.311  14.874
70575W        W30078  18.544  20.194  14.811
70576W        W30079  15.207  40.821  12.415
70577W        W30080  16.117  19.150  11.123
70578W        W30081   7.884   3.263   0.325
70579W        W30082  26.700  42.902  12.869
70580W        W30083  12.153  41.369   2.292
70581W        W30084  11.299  44.831  11.514
70582W        W30085   7.257  30.046  10.583
70583W        W30086  16.788  34.377   3.867
70584W        W30087  10.377  44.479  10.579
70585W        W30088  16.162   3.910  12.000
70586W        W30089   0.295   5.289   4.755
70587W        W30090  14.618  15.310  11.050
70588W        W30091  37.374  10.267   3.736
70589W        W30092  38.920  32.521   3.225
70590W        W30093   3.840  41.872   3.767
70591W        W30094  10.320  18.575   2.684
70592W        W30095  31.444  34.369   3.869
70593W        W30096  12.669  19.755   4.742
70594W        W30097  12.246  22.674  13.908
70595W        W30098  31.648  41.041  14.804
70596W        W30099  33.038   7.785   1.432
70597W        W30100  32.050  11.816  14.838
70598W        W30101  44.767  23.553   4.152
70599W        W30102  15.252  34.078   5.180
70600W        W30103  19.073   1.732  11.894
70601W        W30104  22.689   8.205   4.321
70602W        W30105  31.646  19.144  11.468
70603W        W30106  17.165  41.814  12.885
70604W        W30107  25.473  35.547   0.820
70605W        W30108  44.309  35.953   4.608
70606W        W30109   2.747   2.804   0.287
70607W        W30110  41.907   6.768   0.729
70608W        W30111  38.920  21.719   2.704
70609W        W30112  24.141  24.667  10.558
70610W        W30113  10.860  37.443   3.287
70611W        W30114   8.358  34.553  10.434
70612W        W30115   9.216  14.175   1.322
70613W        W30116   5.817  41.894   1.749
70614W        W30117  44.499  12.170   0.392
70615W        W30118  23.045  25.534   0.421
70616W        W30119   8.854   8.179   2.251
70617W        W30120  15.170  34.493  14.890
70618W        W30121   2.433  38.432  11.371
70619W        W30122  37.877  41.381  12.930
70620W        W30123  14.613   6.196   2.412
70621W        W30124  29.560  23.172  12.477
70622W        W30125  12.788   1.748  12.459
70623W        W30126  29.092  31.473  12.074
70624W        W30127  25.031  41.372  12.053
70625W        W30128  29.014  35.852   4.184
70626W        W30129  40.347   5.871   1.221
70627W        W30130   6.332  16.251  13.840
70628W        W30131   4.237  37.457   3.815
70629W        W30132   5.779  24.600  13.919
70630W        W30133   2.299   4.934   1.740
70631W        W30134  41.505  40.989  12.980
70632W        W30135   8.279  15.293  13.892
70633W        W30136  19.572  35.101   3.710
70634W        W30137   3.930  15.606   1.703
70635W        W30138  15.701  15.286  11.858
70636W        W30139   0.447  15.156  10.512
70637W        W30140  11.245  30.071  14.789
70638W        W30141  36.397  20.621   2.677
70639W        W30142  43.906  11.814  13.851
70640W        W30143  41.938   4.746  14.026
70641W        W30144  33.549  39.044  14.914
70642W        W30145  26.054   0.324   9.468
70643W        W30146  27.518  22.087  11.422
70644W        W30147  20.230  12.834   0.332
70645W        W30148  28.628  33.534  11.033
70646W        W30149  35.896  25.593  12.428
70647W        W30150  42.959  15.640   0.765
70648W        W30151  31.558  22.645   1.915
70649W        W30152  43.917  39.475   3.156
70650W        W30153  34.518  42.359  13.920
70651W        W30154  25.055  29.606   4.155
70652W        W30155  22.105  44.798  14.305
70653W        W30156  32.529   3.906   3.160
70654W        W30157   7.837   0.923   3.797
70655W        W30158  22.613   2.748   4.322
70656W        W30159  14.748  34.538  13.396
70657W        W30160  11.670  18.557  14.990
70658W        W30161  42.997  15.601  10.408
70659W        W30162   1.338  38.836   0.361
70660W        W30163  25.211  13.824  12.483
70661W        W30164  38.831   2.829   4.601
70662W        W30165  18.579  44.920   1.236
70663W        W30166  35.072   8.717   3.352
70664W        W30167   6.425  17.669  12.412
70665W        W30168  10.260  42.417  13.902
70666W        W30169  33.587  19.180  14.775
70667W        W30170  16.574  13.289  12.001
70668W        W30171  38.352   1.382   4.201
70669W        W30172  28.646  29.017   0.734
70670W        W30173  19.217  17.286   0.297
70671W        W30174  37.854   0.418   2.823
70672W        W30175  13.817  36.456   4.281
70673W        W30176  18.294  34.387  10.499
70674W        W30177   2.885   4.880  11.597
70675W        W30178  32.002  21.032   2.413
70676W        W30179  23.108  24.558   0.266
70677W        W30180  18.731   1.298  10.574
70678W        W30181  22.204   2.781  13.833
70679W        W30182  39.064  44.915  14.884
70680W        W30183  17.236  28.931   4.325
70681W        W30184  28.076  39.861  12.923
70682W        W30185   4.265  17.200   1.816
70683W        W30186  39.858  21.022  14.778
70684W        W30187  38.352   6.747   5.150
70685W        W30188  27.119  13.740  14.443
70686W        W30189  28.090  38.567   5.587
70687W        W30190  34.375  14.683   3.681
70688W        W30191  25.643  23.108   3.351
70689W        W30192   2.274   1.336  11.374
70690W        W30193  18.237  37.440   0.934
70691W        W30194  26.070  17.664  14.941
70692W        W30195  27.178  42.365   4.355
70693W        W30196  41.873   8.242   4.210
70694W        W30197  33.920  43.507  12.944
70695W        W30198  42.795  35.868  12.990
70696W        W30199  36.987  16.805  12.406
70697W        W30200   9.191  44.878  11.097
70698W        W30201   4.751  23.521   3.337
70699W        W30202  32.113  44.268   1.435
70700W        W30203  44.895  42.024  12.475
70701W        W30204  27.569  36.077   1.267
70702W        W30205   2.301  35.483   4.619
70703W        W30206  23.051  18.088  10.565
70704W        W30207  17.168   6.184   0.926
70705W        W30208  36.564  34.062  14.283
70706W        W30209  25.002  15.106  12.848
70707W        W30210  15.647  34.107  12.978
70708W        W30211  24.143  24.548   3.683
70709W        W30212  22.714   7.864  12.576
70710W        W30213  37.034  41.032  12.488
70711W        W30214  38.563  24.617   4.776
70712W        W30215  39.027  33.051  12.966
70713W        W30216  44.869  36.401   2.765
70714W        W30217  33.878  26.682   5.284
70715W        W30218  35.991  15.725   4.728
70716W        W30219  34.919  41.925  14.456
70717W        W30220  37.991  26.126  11.057
70718W        W30221  33.924  40.998   0.435
70719W        W30222  31.081  10.663  12.950
70720W        W30223  13.741  41.410  11.480
70721W        W30224  16.748  29.561  14.465
70722W        W30225   9.261  16.081   5.710
70723W        W30226  14.752  20.201   3.228
70724W        W30227  10.344   1.834   3.775
70725W        W30228  44.848  14.593   3.748
70726W        W30229   7.713  42.810   5.200
70727W        W30230  24.723  17.591   3.747
70728W        W30231  39.467   0.409  11.939
70729W        W30232  23.041  43.303   2.216
70730W        W30233  28.569   5.323   0.914
70731W        W30234   3.343  29.627   3.829
70732W        W30235  19.039  15.235  13.021
70733W        W30236  33.081  23.686   2.663
70734W        W30237  42.996  29.517   1.329
70735W        W30238  22.179   3.837   3.288
70736W        W30239   2.798  41.507  11.030
70737W        W30240  22.046   9.677   0.928
70738W        W30241   6.412   4.426  10.457
70739W        W30242  13.225   1.735  14.385
70740W        W30243  44.916   9.755  13.531
70741W        W30244  21.017  19.715  10.502
70742W        W30245   6.427  35.497  14.315
70743W        W30246  25.548   4.370   0.343
70744W        W30247   2.409  14.152  14.800
70745W        W30248   3.438  36.037  11.444
70746W        W30249  37.851   5.817  13.429
70747W        W30250  28.184  40.904   3.716
70748W        W30251  22.724  28.962   5.239
70749W        W30252   5.426  28.128   3.841
70750W        W30253   3.387  38.887   3.737
70751W        W30254  38.854  17.269  12.025
70752W        W30255  43.846   3.902  12.441
70753W        W30256  13.672  36.016  13.339
70754W        W30257   1.304  23.101  14.838
70755W        W30258  34.373  18.285   4.703
70756W        W30259  15.784   2.788   0.389
70757W        W30260  36.847  39.395   3.227
70758W        W30261  26.537  34.943   4.703
70759W        W30262   3.282   4.267  11.529
70760W        W30263  43.363  23.237  12.967
70761W        W30264  10.303   7.373   0.832
70762W        W30265  42.018  39.414   1.429
70763W        W30266   2.804  15.814   2.357
70764W        W30267   1.942  39.447   2.770
70765W        W30268  36.075  22.072   4.231
70766W        W30269  23.012  32.122  11.109
70767W        W30270  34.421  28.480   2.788
70768W        W30271  26.040   0.362   4.771
70769W        W30272   0.468  16.733   0.320
70770W        W30273  10.793  42.331   2.814
70771W        W30274  36.391  30.064  11.515
70772W        W30275  44.808   9.181   0.243
70773W        W30276  15.598  32.470  11.905
70774W        W30277  36.939  44.383  10.991
70775W        W30278  38.852   3.715  12.081
70776W        W30279   4.784  43.800  13.023
70777W        W30280  24.135  33.564   3.769
70778W        W30281  39.932  44.439   4.637
70779W        W30282  27.082  35.484  10.444
70780W        W30283   4.378  44.774   4.130
70781W        W30284  41.931  35.915  13.899
70782W        W30285  22.511  42.423   4.831
70783W        W30286   4.764   8.273   4.770
70784W        W30287  21.525  24.194   2.819
70785W        W30288  34.883  20.054   3.303
70786W        W30289  12.260  29.025  14.861
70787W        W30290  22.668  37.576  11.897
70788W        W30291  11.689  38.501   4.126
70789W        W30292  28.651   2.240   2.247
70790W        W30293  38.474  20.548   3.795
70791W        W30294  40.352  25.011  13.967
70792W        W30295   9.886  10.749  10.610
70793W        W30296  41.821   4.414   3.318
70794W        W30297  27.494  30.044   3.326
70795W        W30298  33.989  19.636  10.609
70796W        W30299  14.654  10.383   2.721
70797W        W30300  42.481  16.099   4.343
70798W        W30301  41.397  33.905  11.892
70799W        W30302  30.998  28.114  14.807
70800W        W30303  14.675  40.377  14.924
70801W        W30304  24.588  44.428  13.479
70802W        W30305  15.223  24.555  13.061
70803W        W30306  36.589  37.356   1.701
70804W        W30307  39.466  23.225  12.953
70805W        W30308  21.568  39.355  11.906
70806W        W30309  14.132  39.434   2.178
70807W        W30310  24.200  22.186  10.555
70808W        W30311  10.341  37.533  10.434
70809W        W30312  36.367  40.331   2.254
70810W        W30313  21.093   4.402   1.695
70811W        W30314  17.715  41.502   3.734
70812W        W30315   4.706  17.104  12.411
70813W        W30316  27.642  19.595  12.503
70814W        W30317  14.255  32.435   5.699
70815W        W30318  33.478   1.413  12.975
70816W        W30319  26.668   7.815  14.998
70817W        W30320  44.310  31.910   0.466
70818W        W30321  18.144  15.240   4.315
70819W        W30322   1.973  26.462   3.334
70820W        W30323  15.192  32.047   4.686
70821W        W30324  43.843   4.706  12.420
70822W        W30325  16.698  32.914   3.648
70823W        W30326  35.877  34.595   3.301
70824W        W30327  34.949  36.403  14.371
70825W        W30328  10.815  17.216   4.761
70826W        W30329  24.598  43.869  14.481
70827W        W30330  31.643  15.098   0.373
70828W        W30331  30.930  22.513   1.377
70829W        W30332  14.738  43.915  13.503
70830W        W30333  15.754  35.431  12.921
70831W        W30334   7.798  19.621  12.372
70832W        W30335  14.312  44.342  12.418
70833W        W30336  27.020   7.804   0.330
70834W        W30337  25.551  16.580   0.729
70835W        W30338  32.055  43.953  10.050
70836W        W30339  11.719  13.127   3.842
70837W        W30340   2.275  28.111  13.987
70838W        W30341  23.585  23.124   3.299
70839W        W30342   4.732  20.582   1.758
70840W        W30343  19.633   0.850  11.376
70841W        W30344  24.198  43.275  12.426
70842W        W30345   4.297  11.289  14.870
70843W        W30346  26.175  35.582  12.410
70844W        W30347  19.656  22.727   1.717
70845W        W30348  21.215  43.867   0.379
70846W        W30349   8.715  18.739   0.839
70847W        W30350  38.927  43.844   1.811
70848W        W30351  38.388  28.042   1.916
70849W        W30352  35.053  25.574  14.441
70850W        W30353   0.401  27.171  11.964
70851W        W30354  28.935  28.006   4.179
70852W        W30355  12.316  19.757   3.719
70853W        W30356  24.205  27.569  14.975
70854W        W30357   5.716   4.824   2.740
70855W        W30358   1.881  36.896  10.505
70856W        W30359  20.602   7.665  12.553
70857W        W30360  13.727  40.805   3.352
70858W        W30361  21.616  18.130   4.745
70859W        W30362  39.377  22.093   0.437
70860W        W30363  21.081  41.963  12.886
70861W        W30364  41.884   8.211   0.293
70862W        W30365  30.920  26.994  13.889
70863W        W30366  27.604  22.150  14.310
70864W        W30367  40.531   2.383  11.051
70865W        W30368  26.963   9.284   3.715
70866W        W30369  33.894  32.117  11.936
70867W        W30370  37.421   2.344  14.800
70868W        W30371  43.765  41.488   2.364
70869W        W30372  34.958  20.269   2.678
70870W        W30373  28.476   9.330   0.413
70871W        W30374  19.775  22.671   4.173
70872W        W30375  44.431  37.562   2.807
70873W        W30376  29.952  11.766  13.312
70874W        W30377   4.927  43.892   0.452
70875W        W30378  19.264  11.315   0.855
70876W        W30379  30.499  40.510   0.742
70877W        W30380   6.766  31.459   1.408
70878W        W30381  18.686  25.573  11.933
70879W        W30382  18.684  25.077   1.778
70880W        W30383  22.101  11.169  14.350
70881W        W30384  29.971  20.140  14.902
70882W        W30385  22.236  43.958  14.382
70883W        W30386   8.186  35.523   1.833
70884W        W30387  42.788  21.195   3.338
70885W        W30388  36.474   4.357  10.559
70886W        W30389  15.249   0.907   2.769
70887W        W30390  10.778  26.482  13.934
70888W        W30391  16.202  19.072   0.956
70889W        W30392  42.421  20.544   1.929
70890W        W30393   4.707  11.321   1.235
70891W        W30394  35.442  30.481  11.107
70892W        W30395  33.947  15.772  13.343
70893W        W30396  34.070   4.886   3.716
70894W        W30397  18.102  29.487   3.253
70895W        W30398  39.053   8.292   1.323
70896W        W30399  13.318  40.469   3.344
70897W        W30400  13.653  33.905   4.172
70898W        W30401  39.464  10.817   1.847
70899W        W30402  18.094   8.336   0.786
70900W        W30403  23.241   5.753  14.781
70901W        W30404  41.467  30.603  13.328
70902W        W30405  18.286  18.784   1.744
70903W        W30406  40.306  16.714  14.471
70904W        W30407  43.892   8.784  10.615
70905W        W30408  31.058  38.990   1.429
70906W        W30409  26.613  20.131   0.264
70907W        W30410  12.198  31.564   2.868
70908W        W30411  14.181  26.168   0.353
70909W        W30412  10.326  38.518  10.456
70910W        W30413  31.434  34.534   2.249
70911W        W30414  18.192   9.883  14.480
70912W        W30415  32.593   4.857   4.324
70913W        W30416  34.586  18.760  10.975
70914W        W30417  36.036  33.113   1.225
70915W        W30418  37.059  43.311   0.874
70916W        W30419  41.312   5.841   3.766
70917W        W30420  30.473  30.537  13.796
70918W        W30421  43.966  42.463  13.941
70919W        W30422  14.709   8.805  14.406
70920W        W30423  20.764  44.325  10.464
70921W        W30424   7.769  32.044  13.812
70922W        W30425  40.538  39.490   3.710
70923W        W30426  29.464  43.414   4.136
70924W        W30427  28.541  32.119  11.890
70925W        W30428  43.501  25.672   1.223
70926W        W30429   5.229  10.716   0.863
70927W        W30430  23.669  44.755  11.872
70928W        W30431  38.501  19.278   1.880
70929W        W30432   3.877  13.333   2.198
70930W        W30433   1.308  38.965   1.425
70931W        W30434  35.565  44.457   1.333
70932W        W30435  25.174   4.406   2.789
70933W        W30436  32.907  11.810  14.860
70934W        W30437  31.079  29.996   3.211
70935W        W30438  30.432  22.546   1.322
70936W        W30439  18.108   1.268   0.415
70937W        W30440  20.662  27.013  12.916
70938W        W30441  28.104  38.535   9.533
70939W        W30442   1.476   2.744  12.061
70940W        W30443   9.325  13.242  14.962
70941W        W30444  38.470  34.542  13.874
70942W        W30445  37.048  37.409   2.860
70943W        W30446   2.392   6.235  14.765
70944W        W30447   0.354   7.356   1.822
70945W        W30448  31.510  10.286  14.357
70946W        W30449  33.971  20.253   4.321
70947W        W30450   9.652  27.099  12.996
70948W        W30451  36.571   9.294  12.829
70949W        W30452  11.862  37.836   0.365
70950W        W30453  40.016  36.849  13.015
70951W        W30454   4.290  38.378  14.357
70952W        W30455  32.123  35.512   1.922
70953W        W30456  40.048   5.873  13.454
70954W        W30457   3.743   7.867  11.092
70955W        W30458  10.755  30.617   2.688
70956W        W30459  44.353   5.812   2.385
70957W        W30460  25.658  39.975   3.180
70958W        W30461  20.633  10.327   1.413
70959W        W30462  14.286   9.315  10.982
70960W        W30463   2.335  29.474  13.384
70961W        W30464   4.381   7.205   0.358
70962W        W30465  41.809   0.941   4.629
70963W        W30466  31.438  24.081  11.490
70964W        W30467  27.450  37.979  14.428
70965W        W30468  38.388  13.770   3.824
70966W        W30469  35.959  10.300  10.509
70967W        W30470  22.198   3.800   4.189
70968W        W30471  12.315  39.482   0.301
70969W        W30472  13.230  11.777   0.954
70970W        W30473  44.371  22.554   2.249
70971W        W30474   7.848  22.201   2.672
70972W        W30475  42.301   8.734   0.777
70973W        W30476   7.331  25.968  11.976
70974W        W30477   8.218  37.882   4.326
70975W        W30478  34.948  22.513   4.250
70976W        W30479  37.490  30.422  10.050
70977W        W30480   9.373  18.789   4.816
70978W        W30481  27.996  20.679  10.029
70979W        W30482  21.674  22.050   4.818
70980W        W30483  35.520  40.388  14.005
70981W        W30484   3.892  27.134  10.063
70982W        W30485  38.012  25.976  11.939
70983W        W30486  41.365  23.082   3.190
70984W        W30487  29.939  25.593  12.887
70985W        W30488  21.563   3.410  12.948
70986W        W30489  21.236  38.850   2.846
70987W        W30490  10.823  43.301  14.923
70988W        W30491  30.054   8.279   0.950
70989W        W30492  11.235  12.687   2.684
70990W        W30493  28.186  43.794   0.263
70991W        W30494   2.822  12.804   4.325
70992W        W30495   0.419  15.603  11.474
70993W        W30496  43.295  11.775  11.991
70994W        W30497   2.335  24.996  11.044
70995W        W30498   3.419   6.413  11.067
70996W        W30499  17.790  26.025  12.829
70997W        W30500   0.382  27.948   3.273
70998W        W30501  23.623  37.933  13.037
70999W        W30502   0.889  16.288  11.082
71000W        W30503  10.353  16.141  11.964
71001W        W30504  16.203  29.653  14.421
71002W        W30505  11.746  36.011  13.842
71003W        W30506  44.471  31.048  10.032
71004W        W30507  30.486  22.715   0.740
71005W        W30508  27.975  30.598   5.217
71006W        W30509  37.371   2.746  13.398
71007W        W30510  14.162  14.607  10.512
71008W        W30511  21.260  10.687  11.948
71009W        W30512  38.945  19.084  12.484
71010W        W30513  24.547  32.053   4.263
71011W        W30514   9.212  43.961   3.851
71012W        W30515  32.040  24.052   2.662
71013W        W30516  14.267  42.493  12.578
71014W        W30517  28.575  13.172   2.790
71015W        W30518  23.039  18.208  12.574
71016W        W30519  44.868  13.331  10.966
71017W        W30520   8.827  23.179   3.848
71018W        W30521   6.284  24.009  10.566
71019W        W30522   5.399  11.326   4.341
71020W        W30523  33.903  38.841  13.316
71021W        W30524  13.213  15.581   3.241
71022W        W30525  27.943   6.923   3.340
71023W        W30526  40.521  43.976   1.369
71024W        W30527  18.650  39.391   2.772
71025W        W30528  34.097  16.720  14.921
71026W        W30529  17.133   9.319  13.013
71027W        W30530  18.613   1.947   1.877
71028W        W30531  12.621  40.878   4.627
71029W        W30532  15.246   6.272   1.362
71030W        W30533  44.443  38.488  14.005
71031W        W30534  17.775  20.150   3.646
71032W        W30535   5.328   7.834   2.346
71033W        W30536  26.499  19.105  11.570
71034W        W30537  32.990  43.904   1.795
71035W        W30538  32.460  44.341  12.351
71036W        W30539  38.914   0.411   1.704
71037W        W30540  32.085  32.887   0.772
71038W        W30541  44.494  37.384  13.870
71039W        W30542  23.527  33.968   2.187
71040W        W30543  36.510  12.203  13.963
71041W        W30544  16.750  14.699   3.178
71042W        W30545  36.974  32.435  10.486
71043W        W30546  41.474   3.277   1.714
71044W        W30547  33.461  11.199  14.761
71045W        W30548  19.277   4.828  12.850
71046W        W30549  39.477  44.979  11.548
71047W        W30550  23.182  14.817   3.258
71048W        W30551  44.486  35.907  10.129
71049W        W30552  28.119  13.301   1.428
71050W        W30553  20.031  43.963   2.852
71051W        W30554   0.946  29.993   9.922
71052W        W30555   5.893   0.781  12.543
71053W        W30556  30.537  21.097  13.873
71054W        W30557  23.109  32.601  14.416
71055W        W30558   9.712  44.991  14.801
71056W        W30559  19.768  29.496   5.292
71057W        W30560  22.505  42.420   0.945
71058W        W30561  18.056   4.743  12.402
71059W        W30562  37.937  33.622  10.600
71060W        W30563  19.179  36.842  12.867
71061W        W30564  36.859  25.662  13.056
71062W        W30565  19.684  27.493   0.446
71063W        W30566  20.173  34.560  12.341
71064W        W30567  41.505  27.668  12.873
71065W        W30568  19.244   2.348   4.219
71066W        W30569  35.561  19.120   0.752
71067W        W30570   8.660  17.171   4.143
71068W        W30571   9.657  44.825   2.799
71069W        W30572  39.860  40.914  12.451
71070W        W30573  18.161  21.742  12.085
71071W        W30574  18.554  34.048  11.469
71072W        W30575  33.430   7.834   0.927
71073W        W30576   3.885  27.676  13.897
71074W        W30577  23.511  37.024  12.881
71075W        W30578  13.341  38.469   0.852
71076W        W30579  35.485  17.082  12.510
71077W        W30580  16.112  14.280   5.312
71078W        W30581   2.845  34.415  14.868
71079W        W30582   7.185   1.343  13.419
71080W        W30583  22.221  25.067   2.228
71081W        W30584  16.759  22.210  10.615
71082W        W30585   0.288   1.317   3.162
71083W        W30586   8.333  33.510   1.394
71084W        W30587  40.446  38.073   4.344
71085W        W30588  19.280  28.622  14.793
71086W        W30589  16.259   7.290  10.460
71087W        W30590  36.905  42.363  12.575
71088W        W30591  39.422  13.611  14.778
71089W        W30592   5.345  23.179  13.994
71090W        W30593  35.506  22.607   2.344
71091W        W30594   2.320  15.690   1.854
71092W        W30595  15.644  30.996   0.318
71093W        W30596  28.478  21.726   1.871
71094W        W30597  39.049  23.713   2.265
71095W        W30598  24.108   7.359  14.770
71096W        W30599  40.850  41.317   3.758
71097W        W30600  11.207  18.689  14.802
71098W        W30601   7.784   0.847  11.602
71099W        W30602   4.864  27.982  12.505
71100W        W30603  26.543   5.787   4.655
71101W        W30604  29.944  22.115  12.431
71102W        W30605  15.290  29.029   2.208
71103W        W30606  41.948  15.681   4.613
71104W        W30607  38.367  31.486   1.875
71105W        W30608   2.800  33.502  10.440
71106W        W30609   6.229  12.164   2.676
71107W        W30610   0.354  22.566   2.781
71108W        W30611  35.438  11.237   0.965
71109W        W30612  44.502  16.288   0.290
71110W        W30613  23.098  36.995  12.445
71111W        W30614  28.970  31.415   1.220
71112W        W30615  27.677  15.578  13.897
71113W        W30616  16.676  28.051   1.221
71114W        W30617  34.878   5.741   2.298
71115W        W30618  27.957   2.810  11.401
71116W        W30619  28.534  35.858   1.215
71117W        W30620  37.003  42.294   4.276
71118W        W30621  28.595  22.038   2.715
71119W        W30622  43.475  17.170   4.743
71120W        W30623  34.377  18.265   2.798
71121W        W30624  35.960  35.018  11.610
71122W        W30625   4.794  23.600   0.940
71123W        W30626  39.900  13.178   0.733
71124W        W30627  24.632  39.951  11.552
71125W        W30628   0.445  21.143  13.826
71126W        W30629  16.285   1.947  11.513
71127W        W30630  23.232  16.308   1.840
71128W        W30631  43.426  38.883   2.732
71129W        W30632  16.732  36.068  12.344
71130W        W30633   0.947  26.048   0.257
71131W        W30634  37.493   2.801  12.988
71132W        W30635  34.931  28.522  10.960
71133W        W30636  40.427   5.249   0.471
71134W        W30637   1.401  14.671  13.888
71135W        W30638   9.841  37.490   4.264
71136W        W30639   7.364  29.038  11.978
71137W        W30640  14.115  21.708   1.265
71138W        W30641  12.296  36.465  10.944
71139W        W30642  21.697  31.000  11.429
71140W        W30643  17.271  27.992   2.244
71141W        W30644  28.939  43.941   1.719
71142W        W30645  40.396  43.386  11.032
71143W        W30646  33.478  20.059   2.830
71144W        W30647  19.595  23.128   2.764
71145W        W30648  24.494   5.207   2.319
71146W        W30649   2.306   0.283   3.241
71147W        W30650  44.369  37.029   5.093
71148W        W30651  37.862  18.278   9.953
71149W        W30652   6.184  30.427   0.778
71150W        W30653   5.867   6.761  12.469
71151W        W30654  37.455   8.804   0.763
71152W        W30655  28.581  41.917   2.418
71153W        W30656  41.443   6.248   3.385
71154W        W30657  32.938   6.236   1.814
71155W        W30658  12.725   8.886   4.334
71156W        W30659   8.755  43.273  11.057
71157W        W30660  17.218  27.567   1.808
71158W        W30661   4.721  38.420  13.495
71159W        W30662   1.975  39.387  14.336
71160W        W30663   2.241  10.835   1.381
71161W        W30664  23.019   7.900   0.803
71162W        W30665  38.464  36.926   4.247
71163W        W30666  32.109  14.276   2.270
71164W        W30667   9.297   1.851   5.264
71165W        W30668  27.628  24.529   3.770
71166W        W30669  32.976  39.878  13.937
71167W        W30670  34.972  27.015  12.363
71168W        W30671  40.036  27.679  10.572
71169W        W30672   3.948  27.959  10.532
71170W        W30673   0.815  25.150  11.108
71171W        W30674  19.228  12.715  12.947
71172W        W30675   1.482   5.416   1.865
71173W        W30676  23.023  30.011   4.802
71174W        W30677  13.679  18.610   4.309
71175W        W30678   6.754  33.934   1.299
71176W        W30679  34.960   2.893  12.433
71177W        W30680  19.226  12.612  11.532
71178W        W30681  36.529   1.748   1.813
71179W        W30682   2.352  17.246   1.823
71180W        W30683  19.222  33.517   2.401
71181W        W30684   4.722  34.608  11.544
71182W        W30685  21.515  32.124   0.413
71183W        W30686  24.707  27.132  13.963
71184W        W30687   6.332  42.321  10.420
71185W        W30688  34.980   1.262  14.296
71186W        W30689  31.593  31.515  12.491
71187W        W30690  11.298  10.219   3.846
71188W        W30691  31.063  32.545   4.316
71189W        W30692  12.648  26.183   3.819
71190W        W30693   5.879  44.478   3.368
71191W        W30694  21.027  41.037  11.060
71192W        W30695  32.925  31.428  11.886
71193W        W30696   1.845  31.958   1.858
71194W        W30697  14.601  36.534  11.540
71195W        W30698  36.939   4.818   3.354
71196W        W30699  31.518  40.534   4.603
71197W        W30700  28.444  30.585  13.930
71198W        W30701  16.800   4.738   1.742
71199W        W30702  18.291   9.252   1.449
71200W        W30703   8.248  44.952  12.561
71201W        W30704  18.745   3.735   2.699
71202W        W30705  13.168  13.627  13.947
71203W        W30706   8.720   7.680  13.015
71204W        W30707  23.239  18.197   2.747
71205W        W30708  22.704   3.403  11.572
71206W        W30709  33.096  12.231  11.462
71207W        W30710   7.280  34.542  12.955
71208W        W30711  40.510  12.617   0.732
71209W        W30712  36.538  29.083   3.677
71210W        W30713  12.149  22.164   0.441
71211W        W30714  34.386  16.688  12.850
71212W        W30715   6.875  20.196   3.777
71213W        W30716  24.506  13.249  10.510
71214W        W30717  12.231  11.701  14.815
71215W        W30718  16.681  29.666   0.340
71216W        W30719  42.892  27.518   3.382
71217W        W30720  27.183  16.159  12.348
71218W        W30721   8.233  40.041   3.360
71219W        W30722   1.927  20.082   3.657
71220W        W30723  40.923  25.213  10.940
71221W        W30724  28.613  24.094   4.710
71222W        W30725  42.291  37.381  12.379
71223W        W30726  44.285  24.983   3.781
71224W        W30727  29.564  17.082   2.781
71225W        W30728  36.853  27.074  13.327
71226W        W30729  43.355   2.893  11.962
71227W        W30730  26.673  28.933  13.422
71228W        W30731   3.864  25.581  12.367
71229W        W30732  27.010  35.549  14.395
71230W        W30733   1.297  39.043   4.215
71231W        W30734  30.420  21.027   0.311
71232W        W30735  28.134  32.903   4.170
71233W        W30736   1.803  17.150   1.716
71234W        W30737  10.224  29.938  14.949
71235W        W30738  43.798  12.772   0.274
71236W        W30739  35.571  12.247  13.468
71237W        W30740   5.816  33.875   2.804
71238W        W30741  19.576  16.240  13.312
71239W        W30742  30.491  12.220  11.467
71240W        W30743  42.469  34.920  14.000
71241W        W30744   7.731  31.608  14.294
71242W        W30745  39.541  25.659  10.478
71243W        W30746  25.650  12.688   4.748
71244W        W30747  25.586  10.367  11.486
71245W        W30748  23.064  34.493   2.902
71246W        W30749  15.762  13.157   3.190
71247W        W30750   2.407   2.905  14.966
71248W        W30751  12.194  44.407   3.652
71249W        W30752  21.228  15.083  14.904
71250W        W30753  28.035  36.858  13.467
71251W        W30754  22.183   1.871   1.727
71252W        W30755   1.246  43.809   3.276
71253W        W30756  26.652  23.595   0.764
71254W        W30757  35.364  42.002   4.794
71255W        W30758  10.840  16.672   1.294
71256W        W30759  37.988   5.797  12.559
71257W        W30760  42.930   2.834  11.576
71258W        W30761  31.567  24.138  14.823
71259W        W30762  43.887  22.225   4.630
71260W        W30763  28.127   9.787   4.140
71261W        W30764  36.514  38.551   0.914
71262W        W30765  15.649   4.335   0.318
71263W        W30766  41.967  39.496   4.157
71264W        W30767   7.680  42.867  12.902
71265W        W30768   1.786  21.681  12.400
71266W        W30769  38.530  44.360  11.080
71267W        W30770  29.973  31.489   1.294
71268W        W30771  23.545  24.562  12.960
71269W        W30772  33.019  28.094  11.470
71270W        W30773  44.003  37.910   3.674
71271W        W30774  20.103  19.137   4.824
71272W        W30775  35.563   5.279  11.037
71273W        W30776  24.494  33.503   1.405
71274W        W30777  21.253   8.378  11.377
71275W        W30778  24.051  21.675  13.354
71276W        W30779  23.203   6.907   1.303
71277W        W30780  14.797  24.978   4.742
71278W        W30781  31.122  26.137  12.420
71279W        W30782  11.790  28.965   0.399
71280W        W30783  37.906  28.639  14.838
71281W        W30784  29.478  20.562  14.853
71282W        W30785  36.040  43.907   1.771
71283W        W30786  18.126  11.159   2.310
71284W        W30787   8.688  39.053  14.862
71285W        W30788  30.948  11.346   1.771
71286W        W30789  36.570  14.163  12.909
71287W        W30790  30.618   6.320  14.792
71288W        W30791  14.319   2.834   1.403
71289W        W30792  44.289   3.726  13.872
71290W        W30793  43.779   4.388  11.451
71291W        W30794  33.877  13.778   3.745
71292W        W30795  14.641  33.405   2.694
71293W        W30796  12.642  13.743  12.462
71294W        W30797  11.687  14.118   4.137
71295W        W30798  24.594  20.094  11.024
71296W        W30799  39.460  29.116   2.680
71297W        W30800  14.169  36.482   2.323
71298W        W30801   8.654  37.376   4.607
71299W        W30802  37.375  19.214   1.397
71300W        W30803   6.301  29.921   2.797
71301W        W30804  41.966  16.211  12.520
71302W        W30805  21.528  26.069   1.897
71303W        W30806  40.413  31.949   5.191
71304W        W30807  43.959  33.905  11.564
71305W        W30808  28.610  24.708   4.715
71306W        W30809   9.254  28.958   2.354
71307W        W30810  34.560  15.214   3.751
71308W        W30811   7.202  41.302   1.212
71309W        W30812   4.402   8.878   4.215
71310W        W30813  43.413  39.057   9.932
71311W        W30814   0.819  43.335  13.799
71312W        W30815  13.342  21.255   4.780
71313W        W30816  32.115  39.919   0.311
71314W        W30817  27.029  11.780  11.603
71315W        W30818   3.361  29.565  14.924
71316W        W30819  31.573   8.726  11.034
71317W        W30820   9.363   8.232   2.693
71318W        W30821  42.875   3.233  13.367
71319W        W30822  38.560  27.660   4.114
71320W        W30823  18.722  15.724  13.319
71321W        W30824  26.129  44.338  11.469
71322W        W30825  33.107  36.041   2.887
71323W        W30826  32.536  30.596   3.242
71324W        W30827   0.447   1.411   0.931
71325W        W30828  25.633   6.347  11.005
71326W        W30829  14.127  40.361  14.308
71327W        W30830  33.979   8.766   2.814
71328W        W30831  18.257  39.974   1.823
71329W        W30832  43.372  10.288   1.438
71330W        W30833   7.394  38.450  11.021
71331W        W30834  18.634   5.300  12.992
71332W        W30835  42.337   5.775  14.467
71333W        W30836  33.456  27.623  10.440
71334W        W30837  36.098  12.754   4.318
71335W        W30838  28.043  16.578   1.330
71336W        W30839  39.019  11.246   1.296
71337W        W30840  35.404  28.557  14.876
71338W        W30841  42.849   7.304   5.165
71339W        W30842  11.351  43.797   3.842
71340W        W30843  26.106  16.140  13.457
71341W        W30844  33.946  21.083   5.245
71342W        W30845  28.453   6.288   0.399
71343W        W30846  29.170   9.787   3.301
71344W        W30847   6.229  20.178  13.961
71345W        W30848  43.844  16.645   4.617
71346W        W30849  17.576  33.913   4.272
71347W        W30850  19.579  23.603   1.313
71348W        W30851   2.432  20.729   0.404
71349W        W30852  29.455  43.452  13.437
71350W        W30853   9.773  16.184   9.950
71351W        W30854   2.268  10.233  13.053
71352W        W30855  38.408  32.459   3.238
71353W        W30856  13.252  20.193  13.926
71354W        W30857   6.256  12.318  13.461
71355W        W30858  20.028  19.593   3.146
71356W        W30859  21.151  38.897   4.118
71357W        W30860   9.210  38.956   2.888
71358W        W30861  28.992  44.825  14.948
71359W        W30862  43.896   4.876   1.935
71360W        W30863  38.442  40.471  12.020
71361W        W30864  26.546   3.947  11.990
71362W        W30865  11.677  18.748  10.904
71363W        W30866   6.677   6.345  14.924
71364W        W30867  44.432  16.800  11.570
71365W        W30868  24.090   0.899   4.156
71366W        W30869  27.128  36.400  10.508
71367W        W30870  43.823  17.587  10.099
71368W        W30871  36.403   1.964  11.606
71369W        W30872  10.818  14.722   1.905
71370W        W30873  16.153  35.422  12.537
71371W        W30874  40.418  28.078  14.436
71372W        W30875  31.111  22.244   1.342
71373W        W30876  10.223  35.027   9.594
71374W        W30877   6.387  38.535   2.302
71375W        W30878   3.913  18.220   4.610
71376W        W30879  25.977  15.784  13.378
71377W        W30880  10.780  15.751   0.429
71378W        W30881  38.522  32.056  10.584
71379W        W30882   1.412   6.687  11.062
71380W        W30883  32.033  35.861   5.289
71381W        W30884  21.667  34.943  12.571
71382W        W30885  26.020  38.038  11.084
71383W        W30886  34.555  27.666  10.975
71384W        W30887   0.374  42.512   2.825
71385W        W30888  12.229  26.112   0.281
71386W        W30889  32.991  32.938   2.798
71387W        W30890  12.679  27.188  13.492
71388W        W30891  21.153  38.469   2.395
71389W        W30892  33.504   0.771  13.368
71390W        W30893  28.671   4.440  11.586
71391W        W30894  33.987  10.286   2.371
71392W        W30895  20.230  25.029   5.187
71393W        W30896  41.441  25.098   0.256
71394W        W30897  38.935  16.201   0.943
71395W        W30898   0.937  21.263  12.054
71396W        W30899   7.882  17.736  10.495
71397W        W30900  21.123  39.939  14.875
71398W        W30901   1.937  21.259   3.161
71399W        W30902  38.053  10.874  11.466
71400W        W30903  12.242  14.661   3.235
71401W        W30904  18.752  41.482  10.523
71402W        W30905  33.019  35.379   2.891
71403W        W30906   7.415  39.412  13.838
71404W        W30907   2.302  10.697   4.276
71405W        W30908  15.697   8.767   9.936
71406W        W30909   0.264   4.919   1.429
71407W        W30910  12.178  38.407   3.764
71408W        W30911  26.638   6.387   3.203
71409W        W30912   1.438   1.348   1.263
71410W        W30913  17.073   4.846  10.530
71411W        W30914   4.215  25.606   3.230
71412W        W30915   6.204  28.144  12.391
71413W        W30916  28.106   2.442  14.939
71414W        W30917   5.244  26.044  11.518
71415W        W30918  42.444  39.553  11.428
71416W        W30919  15.243  12.614  14.350
71417W        W30920   9.812   8.782  11.438
71418W        W30921  41.013  11.369  10.477
71419W        W30922  41.842  25.619  14.787
71420W        W30923  43.822  43.306   4.658
71421W        W30924  23.036  30.659  12.903
71422W        W30925  42.007  21.252  12.975
71423W        W30926  20.608  39.000  13.021
71424W        W30927   7.716  33.118   4.252
71425W        W30928  26.579  38.827   1.832
71426W        W30929  35.028  38.326  12.354
71427W        W30930   0.942  35.444  11.556
71428W        W30931   9.774  19.644   0.951
71429W        W30932  44.938   0.987  11.466
71430W        W30933   3.344   6.184   5.293
71431W        W30934  29.089   8.784   2.403
71432W        W30935   1.789  38.413  12.089
71433W        W30936  14.691  16.098   3.704
71434W        W30937  28.067  18.552   2.219
71435W        W30938  37.943  31.065  12.402
71436W        W30939   4.861  28.612  13.818
71437W        W30940  33.444  14.195  13.909
71438W        W30941   2.468  31.002  13.917
71439W        W30942  10.366  25.652  11.597
71440W        W30943   1.274  12.196   3.347
71441W        W30944  44.303  38.510   2.887
71442W        W30945  27.670  20.716  10.432
71443W        W30946  38.072   6.864  13.997
71444W        W30947   3.717   4.736  10.932
71445W        W30948  18.239   3.246  14.809
71446W        W30949  12.324  36.510  12.966
71447W        W30950  17.613  31.968   2.379
71448W        W30951   9.236  25.087  13.480
71449W        W30952   3.921  38.538   3.328
71450W        W30953  16.111  22.603  11.953
71451W        W30954  14.113   2.933   4.776
71452W        W30955  25.688  16.747  11.933
71453W        W30956  43.789   2.759  10.897
71454W        W30957  36.349  26.108  13.317
71455W        W30958  25.609  14.244   0.407
71456W        W30959   4.286   7.895   2.721
71457W        W30960  35.571  35.885   5.217
71458W        W30961   0.348  34.476  12.865
71459W        W30962  19.629  12.665  14.428
71460W        W30963  25.011  35.018   5.085
71461W        W30964  14.672  18.053   5.175
71462W        W30965  31.607  44.977   1.731
71463W        W30966  13.178   6.388   4.198
71464W        W30967   9.276  16.289  14.974
71465W        W30968  12.128  41.407   4.266
71466W        W30969  22.692   4.703  12.489
71467W        W30970  25.589  28.477  12.893
71468W        W30971  42.815   6.225  11.593
71469W        W30972  10.859  19.741  12.862
71470W        W30973  18.791   9.329  13.792
71471W        W30974  28.094  22.193  12.896
71472W        W30975  30.927   9.661  13.530
71473W        W30976  42.967  18.239   5.166
71474W        W30977  29.553  11.803  13.873
71475W        W30978  33.529  15.092  14.277
71476W        W30979  24.592   1.743  14.855
71477W        W30980  21.627  34.588   3.303
71478W        W30981  40.501  40.414   1.393
71479W        W30982  26.057  38.986  10.553
71480W        W30983  42.396  35.371   2.229
71481W        W30984  18.741   5.830   1.783
71482W        W30985  21.683  44.802   3.741
71483W        W30986   5.258  29.068   0.382
71484W        W30987  18.226   7.263   2.678
71485W        W30988  18.581   8.361  13.873
71486W        W30989  20.125   6.887   3.791
71487W        W30990  36.385  42.362  11.956
71488W        W30991  17.616  33.112   2.834
71489W        W30992   8.400  34.409   1.223
71490W        W30993  26.204  37.512  10.525
71491W        W30994  26.096  32.941   2.849
71492W        W30995   2.370   6.815   4.248
71493W        W30996  20.137  21.205  13.800
71494W        W30997  23.670   4.876   0.395
71495W        W30998  13.695   7.855  14.319
71496W        W30999  20.174  13.163   2.215
71497W        W31000  18.156  18.109  14.447
71498W        W31001  31.910  23.516  12.528
71499W        W31002   0.300   5.837  12.502
71500W        W31003  26.075  41.525  11.514
71501W        W31004   7.377  40.967  14.946
71502W        W31005  42.795  37.949  12.917
71503W        W31006   4.279  22.090   1.741
71504W        W31007   1.261   7.731   1.798
71505W        W31008  30.621  16.295  13.319
71506W        W31009  28.558   5.398   2.210
71507W        W31010   5.762  39.895  13.492
71508W        W31011  43.443  19.207  13.538
71509W        W31012  37.887  10.294   0.911
71510W        W31013   0.255  37.894  14.295
71511W        W31014   7.294  16.700  13.954
71512W        W31015   3.864  24.002   0.731
71513W        W31016   5.813  32.093  13.853
71514W        W31017  22.733   8.814   4.637
71515W        W31018   6.860  33.102   3.654
71516W        W31019  36.061  36.365  12.912
71517W        W31020  26.700  14.144   2.389
71518W        W31021   3.729   9.254  14.855
71519W        W31022  31.552  22.183  14.972
71520W        W31023  43.306  17.725  12.963
71521W        W31024   9.730  44.790   0.869
71522W        W31025  43.434  14.117   0.849
71523W        W31026  22.529   1.847  14.919
71524W        W31027  34.911  27.468  13.821
71525W        W31028   3.715  19.116  14.980
71526W        W31029   1.850  24.523   2.790
71527W        W31030  21.065  11.660  11.427
71528W        W31031   0.941   7.256  12.446
71529W        W31032  39.499  40.046   1.804
71530W        W31033   5.848  25.136  13.909
71531W        W31034   3.352  15.199   1.806
71532W        W31035   8.244  11.260  13.022
71533W        W31036   6.339  20.126   4.166
71534W        W31037  39.485  41.324   3.861
71535W        W31038  24.198  27.673   3.256
71536W        W31039  19.255  22.076  10.934
71537W        W31040  11.690  37.060   4.829
71538W        W31041  40.049  20.550   2.736
71539W        W31042  33.515  38.951  12.082
71540W        W31043  15.702  32.441  10.108
71541W        W31044   0.427  23.003   2.798
71542W        W31045  44.409  18.172   5.174
71543W        W31046  14.777  25.550   3.792
71544W        W31047  28.642  24.131   1.835
71545W        W31048  24.218  27.005  12.478
71546W        W31049  31.949  26.061   3.798
71547W        W31050  26.699  31.149  14.763
71548W        W31051   4.241  10.382  13.886
71549W        W31052  28.634  27.633  12.077
71550W        W31053   3.385  12.117   0.267
71551W        W31054  31.005  13.842   0.788
71552W        W31055  44.957   1.321   4.268
71553W        W31056  28.929  39.954   5.259
71554W        W31057  10.643   8.223   3.376
71555W        W31058  23.082   3.895  12.930
71556W        W31059  36.089  43.827  14.406
71557W        W31060  11.211  33.419  12.386
71558W        W31061  12.147   3.326  11.129
71559W        W31062  10.341  19.092  13.898
71560W        W31063  13.828  43.380  14.425
71561W        W31064  38.331   9.675   2.402
71562W        W31065  30.631  39.497  14.454
71563W        W31066  37.487  31.490  10.906
71564W        W31067  37.974  29.062   2.419
71565W        W31068  40.535  11.371  13.310
71566W        W31069  39.000  30.463  14.900
71567W        W31070  19.092  43.292   2.321
71568W        W31071  11.363   6.296  14.921
71569W        W31072  15.117   1.441  14.287
71570W        W31073  11.164  38.984   1.451
71571W        W31074   5.805  38.433   4.762
71572W        W31075  38.552  14.607  10.970
71573W        W31076  27.966  13.296  13.908
71574W        W31077  23.718  16.144   4.781
71575W        W31078  14.714   0.275  11.523
71576W        W31079  26.069   2.923   2.278
71577W        W31080  32.022   0.791  14.408
71578W        W31081   3.419   5.803  13.994
71579W        W31082   7.776  20.165  11.383
71580W        W31083  39.423  22.630  13.960
71581W        W31084  44.299  41.469  12.872
71582W        W31085  28.580  24.999   4.327
71583W        W31086  26.584   2.943   4.767
71584W        W31087  13.217   6.867  13.862
71585W        W31088  41.916  23.509   3.740
71586W        W31089  12.788  12.308  13.038
71587W        W31090  17.124  16.746  13.357
71588W        W31091   1.251   3.876  13.351
71589W        W31092  28.056   6.395   0.399
71590W        W31093  10.322  10.350  11.054
71591W        W31094  24.130  27.108   4.621
71592W        W31095   1.285  35.382   4.236
71593W        W31096  17.078  10.144   0.243
71594W        W31097  20.133  29.946  12.003
71595W        W31098  32.595   4.401   4.263
71596W        W31099   5.205  19.270  14.449
71597W        W31100  23.498  21.576   2.374
71598W        W31101  34.373  21.739  12.368
71599W        W31102  37.357   3.886  11.102
71600W        W31103  14.779  26.550  12.909
71601W        W31104   0.250  35.501  10.448
71602W        W31105  16.795  33.883   2.244
71603W        W31106   6.898  25.045   2.677
71604W        W31107  30.977   7.847   3.799
71605W        W31108   9.758  25.187  12.915
71606W        W31109  10.286  18.558  14.026
71607W        W31110   7.322  33.035   4.312
71608W        W31111  21.737  34.973  14.494
71609W        W31112  41.044  35.997  12.387
71610W        W31113  16.165  12.190  11.926
71611W        W31114  39.502  25.582  14.336
71612W        W31115  40.461   3.346   1.930
71613W        W31116   5.406  12.732   1.336
71614W        W31117  14.633  18.694  14.307
71615W        W31118   3.869  23.995  10.887
71616W        W31119  20.659  39.483   3.754
71617W        W31120   9.751   2.406  13.442
71618W        W31121  19.062  13.771  13.987
71619W        W31122  11.747  33.531   0.264
71620W        W31123  39.530  21.512   0.813
71621W        W31124  31.040   3.448   2.183
71622W        W31125  34.878  28.502   0.854
71623W        W31126  35.068  33.025  11.457
71624W        W31127  20.270  11.670  12.422
71625W        W31128  39.342  19.236   2.244
71626W        W31129  38.885  15.590  13.056
71627W        W31130  31.073   9.340   0.955
71628W        W31131   3.715  20.249  14.762
71629W        W31132  39.844  12.712  12.405
71630W        W31133  41.812   1.966   5.109
71631W        W31134  39.397  33.909   4.622
71632W        W31135  36.880  30.469  10.590
71633W        W31136  21.103   6.887   4.649
71634W        W31137  40.861  29.117   2.719
71635W        W31138  16.688  37.506  13.949
71636W        W31139  14.719   1.437   3.299
71637W        W31140  24.636  38.378   1.411
71638W        W31141  33.984  43.423  12.421
71639W        W31142  32.632  41.517   0.364
71640W        W31143   4.447  19.273   4.176
71641W        W31144  32.897  29.638   1.900
71642W        W31145  18.196  24.057  13.410
71643W        W31146   3.751  12.357   2.206
71644W        W31147   2.814   9.789   2.318
71645W        W31148  39.962  22.650   0.355
71646W        W31149   4.252  11.720  14.872
71647W        W31150  12.240  39.021  14.508
71648W        W31151  26.005   2.256  14.856
71649W        W31152  42.791  32.004   0.261
71650W        W31153  36.584   0.475   4.775
71651W        W31154  18.694  28.495  10.455
71652W        W31155  35.459  12.203   4.132
71653W        W31156  11.272  44.434   0.424
71654W        W31157  38.538   9.702  11.454
71655W        W31158  17.136  12.136  12.912
71656W        W31159  27.529  42.330   3.800
71657W        W31160  30.502   0.977  13.423
71658W        W31161  28.956  34.000   0.445
71659W        W31162  37.454   9.217  10.138
71660W        W31163  14.602   9.713  12.418
71661W        W31164  44.823   0.883  12.341
71662W        W31165  20.762   4.393  13.889
71663W        W31166  15.086  43.479   3.725
71664W        W31167  30.987  13.175  12.930
71665W        W31168  25.967  34.570   0.357
71666W        W31169  29.639  19.170  12.503
71667W        W31170  27.008  33.892  13.990
71668W        W31171  22.528  23.571   3.826
71669W        W31172   2.389  34.866  13.007
71670W        W31173  24.995  34.904  12.902
71671W        W31174  15.779   8.216  14.832
71672W        W31175  20.234  36.883  14.956
71673W        W31176   8.291   4.319  13.495
71674W        W31177  18.156  27.179   1.727
71675W        W31178   0.805  18.074   2.822
71676W        W31179   6.890   4.404  10.586
71677W        W31180  43.782   3.325   3.769
71678W        W31181  19.756   7.753  14.852
71679W        W31182  35.882  11.205   0.960
71680W        W31183  22.571  12.681   3.689
71681W        W31184  13.716  40.961  13.538
71682W        W31185   9.777  32.114  11.459
71683W        W31186  15.103  12.231   0.352
71684W        W31187  28.592  13.607  13.026
71685W        W31188   8.859  31.105   1.240
71686W        W31189  35.915  24.645  13.904
71687W        W31190  41.027  37.087   4.214
71688W        W31191  43.441  44.400   2.320
71689W        W31192  12.119  42.486   2.736
71690W        W31193  43.358  31.569   3.248
71691W        W31194   1.262  40.026  12.909
71692W        W31195  41.491  43.300   2.836
71693W        W31196  29.164  31.482  10.978
71694W        W31197  37.079  13.137   2.352
71695W        W31198  11.275   4.375  13.897
71696W        W31199   8.165  12.700   1.344
71697W        W31200  33.601  44.001  11.860
71698W        W31201  37.562  19.079   2.219
71699W        W31202   6.716  10.252  10.575
71700W        W31203  33.123   8.263   0.441
71701W        W31204  12.227  20.673   4.643
71702W        W31205  27.066   6.350   1.259
71703W        W31206  24.151  41.319   4.713
71704W        W31207  29.042   7.314   2.290
71705W        W31208  12.132  34.898  11.603
71706W        W31209  44.389   1.282  14.862
71707W        W31210  13.820  30.126   3.870
71708W        W31211  40.840  24.680   1.898
71709W        W31212  24.976  34.035   3.830
71710W        W31213   3.420  34.062   3.765
71711W        W31214  36.558  36.076   3.279
71712W        W31215  22.244  38.328  11.127
71713W        W31216  20.534   3.407   2.713
71714W        W31217   9.186  26.168   1.717
71715W        W31218  19.770  14.604   4.769
71716W        W31219   8.284  16.661  14.446
71717W        W31220  33.967  13.286   5.720
71718W        W31221   2.439   8.700   0.300
71719W        W31222  30.122  10.160   4.303
71720W        W31223  26.163  26.592  11.506
71721W        W31224   6.213  25.159   3.674
71722W        W31225  40.921  30.958   3.846
71723W        W31226  39.504  20.705   2.224
71724W        W31227   4.207   3.257   1.718
71725W        W31228  39.955  12.308   2.696
71726W        W31229  13.336  31.512   2.701
71727W        W31230  34.408  32.511   3.630
71728W        W31231  44.988   6.788   3.152
71729W        W31232   2.349  25.195   4.294
71730W        W31233   8.347   3.840   4.747
71731W        W31234  23.048  44.385   0.861
71732W        W31235  32.041  41.943   1.818
71733W        W31236  36.884  20.185  11.028
71734W        W31237   5.861  34.404  10.418
71735W        W31238  34.370   8.350  12.019
71736W        W31239  23.523  19.556  12.078
71737W        W31240  27.652  21.198   3.329
71738W        W31241  34.492  12.673   4.722
71739W        W31242  18.705  42.881   0.438
71740W        W31243  18.624  32.485   1.721
71741W        W31244  40.004  26.611  12.840
71742W        W31245  42.942  43.332   4.272
71743W        W31246  16.263  33.895   9.923
71744W        W31247  12.704  39.333   1.445
71745W        W31248  35.438  36.476   3.211
71746W        W31249   6.258   7.782   4.627
71747W        W31250  12.285  25.065  12.966
71748W        W31251  12.146  38.926  10.609
71749W        W31252  14.159  20.677  12.988
71750W        W31253   3.839  12.240   4.341
71751W        W31254   0.274  20.188  13.524
71752W        W31255  21.189  21.514  12.950
71753W        W31256  17.764  28.481  13.834
71754W        W31257  19.603  29.052  11.561
71755W        W31258  29.425  22.046   0.777
71756W        W31259  35.960  35.600   2.821
71757W        W31260  36.516  43.440   1.882
71758W        W31261   4.812  39.905  14.414
71759W        W31262  14.695   0.494   1.917
71760W        W31263  44.830  26.558   5.172
71761W        W31264  35.552  23.052  12.400
71762W        W31265   2.903  21.573   1.361
71763W        W31266  16.795  31.422   4.345
71764W        W31267  27.484  40.452   2.343
71765W        W31268  17.171  27.150   3.329
71766W        W31269  39.456  11.204   0.426
71767W        W31270  24.031   7.800  14.277
71768W        W31271  14.287  11.304   3.773
71769W        W31272  12.661  23.224   2.187
71770W        W31273   8.697  10.747  14.470
71771W        W31274   4.942  22.547  11.550
71772W        W31275  35.937  26.122  10.961
71773W        W31276  21.262  42.847   2.340
71774W        W31277  33.516  12.774  14.031
71775W        W31278  36.927   6.911   2.767
71776W        W31279  27.036  15.625   0.888
71777W        W31280   3.318   2.407  13.409
71778W        W31281  30.982  41.006  13.314
71779W        W31282  22.563  30.417   2.279
71780W        W31283  28.653  35.981  10.564
71781W        W31284  25.635  37.516  12.508
71782W        W31285  15.314   9.750  14.287
71783W        W31286   2.785  19.677   3.692
71784W        W31287   9.264  20.732  13.915
71785W        W31288  44.353  25.113   4.629
71786W        W31289  32.032  35.583   0.385
71787W        W31290   2.467  29.142   1.830
71788W        W31291  22.070  31.432   0.765
71789W        W31292   4.846   1.974  10.921
71790W        W31293   9.835  43.909  14.864
71791W        W31294  39.849  34.871  14.314
71792W        W31295  40.417  18.214   1.388
71793W        W31296   7.232  21.731   4.616
71794W        W31297  30.415  23.638   0.900
71795W        W31298  18.133  11.229  10.539
71796W        W31299  23.204  29.614   4.217
71797W        W31300  16.214  25.709  11.054
71798W        W31301  17.120   3.377   1.328
71799W        W31302   6.906  38.924   0.411
71800W        W31303  32.496  12.208   0.884
71801W        W31304   6.411  26.557   0.333
71802W        W31305  20.138  35.938  14.512
71803W        W31306  44.321   1.848   0.356
71804W        W31307   6.712  21.646   2.258
71805W        W31308   3.739  14.221  13.962
71806W        W31309  25.552  31.526   1.239
71807W        W31310  35.108  33.600   4.148
71808W        W31311  24.032  43.368  13.330
71809W        W31312  36.516  11.370  10.922
71810W        W31313  19.146   9.800   1.360
71811W        W31314  12.265  41.982   2.852
71812W        W31315  37.491  44.308   1.855
71813W        W31316  23.514  18.091  13.542
71814W        W31317  23.675   7.214   0.878
71815W        W31318  42.507  16.163  11.856
71816W        W31319  19.664  28.665   1.738
71817W        W31320  27.473  30.077   2.316
71818W        W31321  39.914  29.453   3.171
71819W        W31322  26.603  24.092  10.967
71820W        W31323  36.973  38.370   2.803
71821W        W31324   3.270   2.750   1.320
71822W        W31325  37.461  17.063   4.778
71823W        W31326  44.284  16.580   0.950
71824W        W31327  10.244   0.843  10.995
71825W        W31328  23.004   8.309  11.885
71826W        W31329  20.671  27.507   4.330
71827W        W31330  36.513  37.355  14.430
71828W        W31331  27.517   0.899  12.090
71829W        W31332   1.945  19.576  11.552
71830W        W31333  15.710  16.796  11.385
71831W        W31334   6.712  24.181   2.363
71832W        W31335  20.549  33.944  14.016
71833W        W31336  37.041  38.026  14.862
71834W        W31337  33.062  40.856   4.266
71835W        W31338  34.406  26.180  11.871
71836W        W31339  32.616  36.358   2.832
71837W        W31340  44.884   6.693  10.902
71838W        W31341  14.209  25.973   2.702
71839W        W31342  36.443  20.714   0.270
71840W        W31343  12.255  12.158   3.787
71841W        W31344  43.413  27.461  12.835
71842W        W31345  28.443  34.001   0.458
71843W        W31346  14.650  23.521   3.222
71844W        W31347  39.314  12.809  14.504
71845W        W31348  30.118  26.963  11.871
71846W        W31349  16.711  32.554   3.291
71847W        W31350  21.083  31.042   0.929
71848W        W31351   7.320  14.174  10.529
71849W        W31352  13.255  26.534  10.132
71850W        W31353  31.634  39.338   5.716
71851W        W31354  25.599  22.508   9.954
71852W        W31355   6.737  37.493  14.905
71853W        W31356  28.540  12.160   0.819
71854W        W31357  36.067  30.654   0.734
71855W        W31358  33.035  44.762   2.882
71856W        W31359   0.912  15.250  12.561
71857W        W31360  37.403  24.626  14.997
71858W        W31361  10.383  36.043   4.326
71859W        W31362  25.144  18.253   0.456
71860W        W31363  42.858  31.059   4.137
71861W        W31364  44.375  31.498   1.299
71862W        W31365  34.555  34.510   3.235
71863W        W31366   3.911  31.604  11.913
71864W        W31367  15.146   0.833  14.910
71865W        W31368   5.414   2.457   1.845
71866W        W31369  11.735  41.504  10.638
71867W        W31370   6.779  43.008   4.806
71868W        W31371  37.948  35.103   2.188
71869W        W31372  22.576  12.642   4.821
71870W        W31373  10.275  38.947   4.632
71871W        W31374  11.298  25.215  10.415
71872W        W31375  16.625  28.460   1.321
71873W        W31376  39.509  20.061   1.865
71874W        W31377  26.668   0.449   1.266
71875W        W31378  35.008  43.809   2.742
71876W        W31379  27.468  39.515   0.892
71877W        W31380  27.682   7.759   0.783
71878W        W31381   9.196  42.518   0.438
71879W        W31382  10.154  41.414  14.991
71880W        W31383  10.855  14.698   4.148
71881W        W31384  22.727  14.730  14.304
71882W        W31385   6.221  14.637  12.457
71883W        W31386  38.455  13.628  12.877
71884W        W31387  41.452  26.594  13.443
71885W        W31388  13.328  25.980   0.342
71886W        W31389   8.862   9.249  13.838
71887W        W31390  27.160  25.146  13.930
71888W        W31391  12.715  39.526   2.261
71889W        W31392   8.210  14.729  13.327
71890W        W31393   8.685   4.205  14.925
71891W        W31394  16.318  16.240   4.765
71892W        W31395  24.155  23.695  11.496
71893W        W31396  10.150  33.482  14.436
71894W        W31397  44.382  23.107  12.342
71895W        W31398   6.735  43.424   1.298
71896W        W31399  33.607  31.906  12.344
71897W        W31400  44.943  23.712   4.839
71898W        W31401  13.811  14.688   1.261
71899W        W31402  24.558  20.165   0.768
71900W        W31403   7.186  33.965  11.477
71901W        W31404   8.189  27.018   0.961
71902W        W31405  11.795  38.839  10.005
71903W        W31406   9.827   3.783  11.574
71904W        W31407  11.292  30.659  11.553
71905W        W31408  37.495  20.691  13.918
71906W        W31409  33.417  34.922  11.465
71907W        W31410  10.634  33.025  14.009
71908W        W31411  20.616  31.910  12.830
71909W        W31412  13.249   2.278   2.247
71910W        W31413  23.736   1.969  13.054
71911W        W31414  34.378  34.028  10.500
71912W        W31415  14.118  38.886   1.796
71913W        W31416  10.863   5.384  14.323
71914W        W31417  36.466  19.641  12.343
71915W        W31418  23.997  39.012  14.865
71916W        W31419  11.798  35.030  12.852
71917W        W31420  33.539  11.249   3.367
71918W        W31421   7.406   4.418   3.771
71919W        W31422   0.273  31.082   3.358
71920W        W31423   3.354  10.228   1.870
71921W        W31424  42.366  17.563   0.865
71922W        W31425  15.235  30.961   0.919
71923W        W31426  22.709  12.355  14.998
71924W        W31427  20.111  20.193   1.431
71925W        W31428  13.152  20.568   0.315
71926W        W31429  36.011   7.830   1.257
71927W        W31430   5.253  28.577  11.474
71928W        W31431  42.012  40.453  14.295
71929W        W31432   6.795  32.025  13.397
71930W        W31433  22.020  38.935  11.939
71931W        W31434  44.906  32.622   1.357
71932W        W31435   6.405  42.869   0.917
71933W        W31436  42.406  22.674  13.346
71934W        W31437   4.449  16.154  10.562
71935W        W31438  45.000   2.239   4.224
71936W        W31439  34.552  13.700  13.390
71937W        W31440   8.794   1.439   4.262
71938W        W31441   4.903  36.579   4.645
71939W        W31442  14.819  14.234  13.538
71940W        W31443  28.131  43.815   2.322
71941W        W31444  44.389  17.744   5.713
71942W        W31445  27.677  31.963  13.539
71943W        W31446  34.446  25.590  11.961
71944W        W31447  15.717  11.245  10.939
71945W        W31448  14.313  32.920   0.320
71946W        W31449  38.839  12.202   2.886
71947W        W31450  37.505  42.989   2.248
71948W        W31451  17.305  15.235  14.031
71949W        W31452  25.567  43.817   2.364
71950W        W31453  22.671   3.234   1.866
71951W        W31454  27.123  36.436   2.179
71952W        W31455  44.360  12.231  13.043
71953W        W31456  11.657   5.820  14.435
71954W        W31457  21.216  17.613   2.853
71955W        W31458  24.539   9.881  12.394
71956W        W31459  25.117  35.886  12.950
71957W        W31460  19.177  24.712  11.508
71958W        W31461  12.274   9.696   0.285
71959W        W31462   9.647  27.651  13.054
71960W        W31463  21.582  37.834  14.984
71961W        W31464  28.458   7.892  11.992
71962W        W31465  42.777   5.383   9.491
71963W        W31466  21.604  44.846   4.754
71964W        W31467  12.721  42.443  14.274
71965W        W31468  29.060  32.553   3.710
71966W        W31469  38.865  20.651  12.957
71967W        W31470  18.551  38.564   2.318
71968W        W31471  23.072  39.931  12.048
71969W        W31472  37.026  36.082   2.205
71970W        W31473  32.524   9.285   2.835
71971W        W31474  17.167  19.163  14.368
71972W        W31475  13.625  13.281  13.011
71973W        W31476  37.357   8.170   0.273
71974W        W31477   8.295  36.589   2.663
71975W        W31478  31.075  31.045   1.280
71976W        W31479  12.703   4.710  10.443
71977W        W31480   5.295  21.022   4.656
71978W        W31481  14.801  35.420  10.957
71979W        W31482  13.121  22.574  11.082
71980W        W31483  39.346  38.017   2.382
71981W        W31484   5.841  28.580   4.685
71982W        W31485  37.835   2.863   2.247
71983W        W31486  14.318  34.087   5.179
71984W        W31487  24.033   8.256   4.619
71985W        W31488  11.734  18.706   5.117
71986W        W31489   2.900  16.787  14.842
71987W        W31490   6.711  39.366   0.905
71988W        W31491  43.481  19.083  12.989
71989W        W31492   5.919  15.276  11.501
71990W        W31493  18.254  36.961  13.817
71991W        W31494  33.917  44.292   9.967
71992W        W31495  19.131  24.561  12.566
71993W        W31496  21.061  24.702   3.848
71994W        W31497  18.146  16.082  11.590
71995W        W31498  10.641  20.582  12.938
71996W        W31499  21.176  24.670  13.025
71997W        W31500  35.871  17.109   4.352
71998W        W31501  27.464  13.736   2.755
71999W        W31502  10.305  40.011  10.901
72000W        W31503  29.630  43.329   0.429
72001W        W31504  16.691  29.569   0.808
72002W        W31505  22.177  29.608   0.856
72003W        W31506  15.240   5.343  11.909
72004W        W31507  28.009  40.380   5.123
72005W        W31508  23.499  33.023  14.997
72006W        W31509  17.611  19.585  13.534
72007W        W31510   5.746  43.270  10.424
72008W        W31511  38.900  21.033   2.722
72009W        W31512  11.161  24.707   2.814
72010W        W31513  10.307   8.374  10.599
72011W        W31514  23.573  18.683  10.979
72012W        W31515  36.495  10.860  14.844
72013W        W31516   0.265   0.792   0.354
72014W        W31517  24.613  15.752  12.928
72015W        W31518  19.127  27.502  12.873
72016W        W31519  25.158  23.067   2.338
72017W        W31520  30.989  11.806   3.342
72018W        W31521  39.530  32.547  13.442
72019W        W31522  38.949   0.874   9.944
72020W        W31523  14.623   9.224  11.536
72021W        W31524  33.547  31.572   0.387
72022W        W31525  11.280   4.908   4.600
72023W        W31526  30.093  37.889   4.185
72024W        W31527   7.384  43.421   1.711
72025W        W31528  37.076  36.984  11.921
72026W        W31529   0.268  33.481  12.981
72027W        W31530   3.381   1.964   1.299
72028W        W31531  21.645  15.096  13.505
72029W        W31532  11.209  14.136  12.433
72030W        W31533   1.261  41.802   1.766
72031W        W31534  36.892  12.322   1.863
72032W        W31535  20.529  37.921   2.368
72033W        W31536   3.864  10.819   3.767
72034W        W31537  39.506  43.781  12.012
72035W        W31538  18.146  18.551  13.814
72036W        W31539  14.108  26.628   4.719
72037W        W31540  17.565  16.200   0.341
72038W        W31541   5.916   7.177  11.374
72039W        W31542  41.412   2.749   0.921
72040W        W31543  35.021  32.132  14.827
72041W        W31544  19.203  29.477   1.884
72042W        W31545  29.072   1.885   4.791
72043W        W31546  33.015  34.898  10.961
72044W        W31547  33.422  41.425   1.814
72045W        W31548  36.355  38.436   3.772
72046W        W31549  12.346   9.821   2.407
72047W        W31550  16.579  25.170   1.401
72048W        W31551   2.930  14.594   1.299
72049W        W31552  43.277   4.816  13.422
72050W        W31553  26.600  14.618   4.308
72051W        W31554   1.781  43.961  12.346
72052W        W31555  40.415  30.930  11.469
72053W        W31556  14.134   6.191  10.938
72054W        W31557  24.037  23.173   3.195
72055W        W31558  30.048  33.531  11.891
72056W        W31559  41.404  38.976  12.367
72057W        W31560  30.912  28.579   5.267
72058W        W31561  13.688  24.598  14.483
72059W        W31562  26.034  30.644   0.356
72060W        W31563   0.269   0.781   0.944
72061W        W31564  41.466  33.111   0.443
72062W        W31565  21.222   3.771  13.523
72063W        W31566  22.108  18.082   0.353
72064W        W31567  28.052  24.015   3.836
72065W        W31568   1.851  40.007  14.990
72066W        W31569  43.991  22.116   0.749
72067W        W31570  35.547  10.728   0.298
72068W        W31571  31.579  21.548   3.383
72069W        W31572  43.805   6.689  10.937
72070W        W31573  40.816  11.766  13.459
72071W        W31574  36.353   9.727   1.826
72072W        W31575   4.340   9.250  11.528
72073W        W31576  31.127  11.660   2.748
72074W        W31577  38.002  10.341   2.894
72075W        W31578   0.805  30.092   1.274
72076W        W31579  34.455  20.688  13.045
72077W        W31580  43.280  42.960   2.751
72078W        W31581  37.487   7.262  14.943
72079W        W31582  13.279  37.003   0.909
72080W        W31583  37.424  13.178   3.286
72081W        W31584  33.032   7.271   0.759
72082W        W31585   8.368  16.798   3.198
72083W        W31586   7.855  43.294  14.465
72084W        W31587  10.157  31.102  14.467
72085W        W31588  44.924  35.578  10.563
72086W        W31589   5.863   0.840   4.353
72087W        W31590   4.435  15.312   0.416
72088W        W31591  20.156   7.818  12.457
72089W        W31592  28.641   1.422   4.688
72090W        W31593  31.475  28.615   5.162
72091W        W31594  44.305  22.208   4.722
72092W        W31595  18.578  20.708  13.379
72093W        W31596  34.978  39.883   4.631
72094W        W31597  12.269  17.567   3.197
72095W        W31598  16.716   2.407   4.631
72096W        W31599  15.322  41.315  11.874
72097W        W31600  33.059  34.877   2.684
72098W        W31601   1.405  20.530   0.370
72099W        W31602  13.134   8.772   0.293
72100W        W31603  10.638  16.693  12.521
72101W        W31604  39.977  24.073  13.857
72102W        W31605  19.112   6.803   4.617
72103W        W31606   2.387  35.965  10.639
72104W        W31607  20.740  22.139   4.266
72105W        W31608  15.804  37.979  11.440
72106W        W31609  35.046  25.515   0.792
72107W        W31610  28.988  30.562   1.360
72108W        W31611  43.284   7.202  12.469
72109W        W31612  35.370  29.125   3.251
72110W        W31613  15.701  39.407   4.736
72111W        W31614  23.598  16.231  12.866
72112W        W31615  21.137  17.706   1.429
72113W        W31616  25.699  30.567   2.366
72114W        W31617  31.902   9.240  11.501
72115W        W31618  29.486  44.934  13.909
72116W        W31619  34.437  44.843  14.416
72117W        W31620  20.718  37.033  10.988
72118W        W31621  38.427  13.160   2.299
72119W        W31622  26.970  25.181  11.961
72120W        W31623   6.239  18.657   1.753
72121W        W31624   7.362   6.759   3.864
72122W        W31625   3.353  44.878   3.157
72123W        W31626  33.025  10.284   4.808
72124W        W31627  33.461  34.047   0.293
72125W        W31628   4.359   5.362   4.335
72126W        W31629  10.164  17.663   3.741
72127W        W31630  17.184  33.447   5.278
72128W        W31631   9.844   0.393   1.244
72129W        W31632   6.738  37.996   2.247
72130W        W31633  30.612  38.853   3.273
72131W        W31634  27.110  31.507   3.832
72132W        W31635  33.460   6.308   3.224
72133W        W31636  31.521  26.023  14.274
72134W        W31637  33.603   3.319  10.630
72135W        W31638  12.664   6.920  12.030
72136W        W31639   5.357  35.381   3.769
72137W        W31640  31.101   0.979   9.926
72138W        W31641  20.199  29.580   1.402
72139W        W31642  12.161  24.187   0.836
72140W        W31643  22.556  37.936  11.918
72141W        W31644   4.426  10.847   0.342
72142W        W31645  18.240  38.385   0.465
72143W        W31646  13.113  23.552   1.237
72144W        W31647  17.262  25.115  10.568
72145W        W31648  16.801  19.232   4.657
72146W        W31649  42.346   7.886   4.824
72147W        W31650   3.794  33.119   1.216
72148W        W31651  14.197  35.456  13.975
72149W        W31652  12.680  37.436   4.243
72150W        W31653  24.072  19.580  11.900
72151W        W31654   3.325  29.424  12.875
72152W        W31655  12.850  30.492   2.295
72153W        W31656   8.192   4.881   1.920
72154W        W31657   7.801   1.740   2.370
72155W        W31658   6.248  33.996   3.835
72156W        W31659  29.128  16.763  12.903
72157W        W31660  15.756   7.889   4.721
72158W        W31661  17.234  39.814  13.047
72159W        W31662  20.258  31.121  12.355
72160W        W31663   3.905  39.045   1.804
72161W        W31664  23.638  31.547  12.342
72162W        W31665   7.695  43.855  14.813
72163W        W31666  28.649  15.740   0.884
72164W        W31667  35.066  12.848  13.977
72165W        W31668   0.379   6.205  11.059
72166W        W31669  32.924  43.945  12.095
72167W        W31670  19.761  22.508   1.369
72168W        W31671  12.811   5.704   2.299
72169W        W31672  28.462  11.146   1.909
72170W        W31673  30.967  19.209  12.974
72171W        W31674  40.019  27.124  14.936
72172W        W31675   2.915  36.502   3.185
72173W        W31676   4.726  37.383   1.847
72174W        W31677  17.570  24.000  10.900
72175W        W31678   9.889  19.181   2.284
72176W        W31679  17.772   4.219  13.406
72177W        W31680   1.429  36.078   1.820
72178W        W31681  26.566  29.961   2.894
72179W        W31682  35.544   9.785   4.763
72180W        W31683   4.909   1.413   4.240
72181W        W31684  24.698   6.703   1.366
72182W        W31685   2.364  20.720   5.295
72183W        W31686  12.234  34.512   2.315
72184W        W31687   3.242  10.790  14.503
72185W        W31688  21.037  27.655   2.301
72186W        W31689   5.410  10.199  12.000
72187W        W31690  35.026   3.808   1.405
72188W        W31691  14.769  24.681  10.512
72189W        W31692  21.097  37.428  10.580
72190W        W31693   9.667  34.487  12.525
72191W        W31694  30.033  14.118  12.869
72192W        W31695  37.378  38.479  13.908
72193W        W31696  27.673  27.674  12.953
72194W        W31697  44.988  21.716  14.286
72195W        W31698  37.552  33.051   4.705
72196W        W31699  34.479  28.156   3.313
72197W        W31700   5.814  35.362  14.385
72198W        W31701  37.846  19.241   0.905
72199W        W31702  13.634   1.437  11.508
72200W        W31703  10.776  27.608   2.664
72201W        W31704  14.824  19.533  12.955
72202W        W31705  43.891   7.829   3.311
72203W        W31706   2.920  38.442  14.444
72204W        W31707  22.532   9.223  12.886
72205W        W31708   7.842  38.522   4.124
72206W        W31709   9.680   2.258  14.831
72207W        W31710  38.378  41.373  14.984
72208W        W31711  40.006  17.086  12.509
72209W        W31712  38.057   1.276   2.776
72210W        W31713   4.923  33.416  11.987
72211W        W31714  12.703  14.593  10.599
72212W        W31715  38.935  32.052  12.880
72213W        W31716  36.368   4.838   3.356
72214W        W31717  41.978  30.476  14.840
72215W        W31718   9.694  42.359   3.637
72216W        W31719  11.781  24.711   4.188
72217W        W31720  18.161  35.421   3.326
72218W        W31721  15.321  22.720  11.908
72219W        W31722  34.983  12.181  13.365
72220W        W31723  43.972   1.874  13.364
72221W        W31724  13.129  19.215   4.263
72222W        W31725  19.669  35.893   4.346
72223W        W31726  25.090  15.717   0.246
72224W        W31727  21.253   4.882  11.114
72225W        W31728  44.962  21.515  12.561
72226W        W31729  39.812  31.115  13.986
72227W        W31730  37.853  23.675   0.809
72228W        W31731  14.710  31.150   2.269
72229W        W31732  38.520  38.508   2.832
72230W        W31733  36.412  15.609   0.420
72231W        W31734   6.854  33.962  13.942
72232W        W31735  12.642  16.155  10.552
72233W        W31736   1.468  33.096  12.429
72234W        W31737  44.409  17.564  11.102
72235W        W31738  34.062  38.541  13.881
72236W        W31739  34.107   2.246   0.855
72237W        W31740  21.137  24.492  10.960
72238W        W31741  44.358  40.381   2.884
72239W        W31742  36.475   0.459  11.508
72240W        W31743  28.146   6.748  14.388
72241W        W31744   8.836  27.527   2.325
72242W        W31745  44.475  11.797  14.864
72243W        W31746  28.086  28.027  12.077
72244W        W31747  39.418  28.159  12.394
72245W        W31748   2.395  16.233  13.910
72246W        W31749   4.377  31.100   3.823
72247W        W31750  11.837  32.083   4.151
72248W        W31751  37.889  32.025  12.416
72249W        W31752  39.494  26.486   4.697
72250W        W31753  30.630  36.015   2.369
72251W        W31754  22.571  27.131  11.002
72252W        W31755  43.923   8.336  14.874
72253W        W31756   2.952  28.549   1.297
72254W        W31757  25.503   0.272   1.210
72255W        W31758   7.212  38.938  12.492
72256W        W31759  26.141  39.037  10.153
72257W        W31760   6.427   2.870   0.930
72258W        W31761  25.482  38.509  11.941
72259W        W31762   1.419  14.330  13.524
72260W        W31763  24.982  23.606   0.420
72261W        W31764  16.219   4.316  14.817
72262W        W31765  33.931  25.095  11.465
72263W        W31766  22.058  29.660  12.495
72264W        W31767   6.342  28.163   1.822
72265W        W31768   4.904  12.808   4.344
72266W        W31769  36.929  34.558  13.020
72267W        W31770   2.426  31.477  12.065
72268W        W31771  38.856  10.873  14.872
72269W        W31772   3.867  24.132   2.800
72270W        W31773  14.289  23.493  12.355
72271W        W31774   2.781  20.678  12.905
72272W        W31775  39.432   0.434  10.949
72273W        W31776  38.485  12.846  10.620
72274W        W31777  38.462  37.535  10.433
72275W        W31778  39.877  26.526   2.271
72276W        W31779   0.326   6.302   3.639
72277W        W31780  25.558  40.512   2.732
72278W        W31781  37.945  13.136   3.151
72279W        W31782  38.488  30.550  12.420
72280W        W31783   5.885  42.316  13.806
72281W        W31784  26.172  27.535   0.778
72282W        W31785  43.437  27.084   5.698
72283W        W31786  24.224   2.465   4.209
72284W        W31787  35.056  14.745  13.055
72285W        W31788  16.731  23.216   2.316
72286W        W31789  37.012  38.512  14.028
72287W        W31790   7.793  39.557  10.413
72288W        W31791   2.244  33.978   1.853
72289W        W31792  37.380  10.849  13.345
72290W        W31793   6.203  35.896  11.409
72291W        W31794  28.126  28.035   5.288
72292W        W31795  10.676  34.980  14.934
72293W        W31796  21.690  12.842  12.853
72294W        W31797  20.595  15.631   3.781
72295W        W31798   1.742   0.946  12.432
72296W        W31799   9.390  30.097   4.645
72297W        W31800  13.826   6.874  13.435
72298W        W31801  30.511  32.964  10.916
72299W        W31802  41.868  26.068   2.690
72300W        W31803  42.842  43.289  14.990
72301W        W31804   0.777   6.716  13.806
72302W        W31805  42.366  44.852   3.681
72303W        W31806  39.933  39.886   4.151
72304W        W31807  18.713   2.277  12.855
72305W        W31808   9.780  34.403   2.862
72306W        W31809  35.471  18.734   1.742
72307W        W31810  32.943  24.064   0.268
72308W        W31811  43.845   1.436  12.085
72309W        W31812  10.152  19.280   0.329
72310W        W31813   7.865  27.195  12.340
72311W        W31814  42.410  15.165  10.968
72312W        W31815  18.722  17.172  13.847
72313W        W31816  27.527  34.608   0.364
72314W        W31817  43.373   5.861  13.872
72315W        W31818  33.505  13.233   5.667
72316W        W31819  14.758  34.561  13.916
72317W        W31820  16.653   8.683   0.421
72318W        W31821  28.942   2.307   0.925
72319W        W31822  16.194  16.209   1.432
72320W        W31823  17.245  33.488   2.270
72321W        W31824  43.424   2.828   4.251
72322W        W31825  31.603  31.054   3.313
72323W        W31826   4.708  23.605   9.922
72324W        W31827  15.776  34.017   3.316
72325W        W31828  25.076  43.003  13.374
72326W        W31829  26.983   3.442  14.929
72327W        W31830  28.109   9.241  13.874
72328W        W31831   0.477  28.067  11.998
72329W        W31832  23.570  18.741   1.401
72330W        W31833  28.980  41.483   1.267
72331W        W31834   6.381   8.892   1.894
72332W        W31835  30.926  33.422   3.209
72333W        W31836  23.236  22.063  10.494
72334W        W31837  10.274  12.248   1.309
72335W        W31838  27.178  37.425   1.813
72336W        W31839  20.224  31.034   1.413
72337W        W31840  19.138  23.522   0.959
72338W        W31841  20.729  10.825  10.484
72339W        W31842   3.272  22.747   2.265
72340W        W31843  12.343  18.649  14.419
72341W        W31844  35.941   6.769  14.373
72342W        W31845  34.055  17.172   4.125
72343W        W31846   9.286  41.931   1.330
72344W        W31847  24.189  13.818  13.059
72345W        W31848  11.230  30.458  11.916
72346W        W31849  20.028  14.202   3.296
72347W        W31850   7.352  24.002  10.411
72348W        W31851  38.399  37.990   4.264
72349W        W31852   7.206  21.164   0.459
72350W        W31853   6.411   7.247   0.345
72351W        W31854  27.600  39.405  13.425
72352W        W31855   4.406  30.931   0.422
72353W        W31856   3.311  42.841   1.725
72354W        W31857  33.527  44.806   4.642
72355W        W31858   4.779  32.953   0.841
72356W        W31859  35.930  17.775  14.468
72357W        W31860  21.226  30.582  10.898
72358W        W31861  27.473  26.053  10.028
72359W        W31862  24.151  43.331   2.332
72360W        W31863  34.931   8.802  14.994
72361W        W31864  41.502   8.256  13.975
72362W        W31865  22.092  18.199  10.532
72363W        W31866  35.432  36.349   2.851
72364W        W31867   4.317  21.590  11.876
72365W        W31868  38.970   0.248  13.431
72366W        W31869  18.628  36.912   2.365
72367W        W31870  32.004   1.354   1.896
72368W        W31871  44.291   9.822   1.315
72369W        W31872  18.096  33.898   3.658
72370W        W31873  25.692  21.600   3.636
72371W        W31874  29.150  39.395  14.844
72372W        W31875  32.962  11.167  13.868
72373W        W31876  24.013  20.043  11.868
72374W        W31877  40.511   0.409   3.245
72375W        W31878   3.789  41.326   3.824
72376W        W31879  32.125  28.045  10.584
72377W        W31880  29.038  42.003   4.116
72378W        W31881   6.271  15.807   5.090
72379W        W31882  28.043   9.717   0.332
72380W        W31883  43.906  34.380  13.541
72381W        W31884  19.088  44.771   3.725
72382W        W31885  36.500   0.394  12.091
72383W        W31886   4.858   7.686   3.675
72384W        W31887  10.166  20.618   1.325
72385W        W31888   9.663  27.674  10.926
72386W        W31889  14.821  39.014   4.716
72387W        W31890  25.669  42.485  14.487
72388W        W31891  37.080  31.026  12.955
72389W        W31892  19.255  17.247   4.828
72390W        W31893  30.151  28.526   0.474
72391W        W31894  42.827  11.791   1.443
72392W        W31895   5.928   9.728   0.394
72393W        W31896   0.932  13.679   2.310
72394W        W31897   1.368  36.981  12.935
72395W        W31898   9.720  36.571  10.022
72396W        W31899  26.003  12.809  11.433
72397W        W31900  28.611  26.676   3.230
72398W        W31901   5.353   1.251   1.358
72399W        W31902  16.668  34.410   2.206
72400W        W31903  14.741   1.838  12.413
72401W        W31904   5.834  37.891  14.498
72402W        W31905  42.844  39.829  12.550
72403W        W31906   2.926   4.852   1.787
72404W        W31907  39.973  18.193   1.795
72405W        W31908   2.795  22.689  12.080
72406W        W31909  17.246  16.126   0.769
72407W        W31910  30.974  15.198   0.270
72408W        W31911   9.831  14.188  12.866
72409W        W31912   8.866  33.053   1.881
72410W        W31913   5.307  44.262   0.243
72411W        W31914   6.797  37.898   0.271
72412W        W31915   0.870  38.378  14.381
72413W        W31916  30.593  11.788   9.634
72414W        W31917  16.309  30.094   1.775
72415W        W31918  19.591  42.990  14.016
72416W        W31919  13.125   4.884   4.176
72417W        W31920   1.888  33.923  12.825
72418W        W31921  28.002   4.210   4.221
72419W        W31922  31.088  13.633   2.248
72420W        W31923  30.987   8.678   2.818
72421W        W31924  16.264  15.088   2.331
72422W        W31925  24.619  11.253   3.383
72423W        W31926  13.629  36.370   2.875
72424W        W31927  42.401  17.566   1.714
72425W        W31928  42.367   5.268   0.285
72426W        W31929  30.018  10.852  10.983
72427W        W31930  36.460  15.241   0.375
72428W        W31931  43.886  28.947   3.285
72429W        W31932  31.031  13.149   2.309
72430W        W31933  17.571  17.798  12.548
72431W        W31934  37.846  42.520   0.884
72432W        W31935  34.461  12.785   3.673
72433W        W31936  29.133  23.663  12.835
72434W        W31937  23.118  36.452   1.789
72435W        W31938  27.147  35.918  13.059
72436W        W31939  30.134  11.202   9.475
72437W        W31940  30.008   3.322  13.536
72438W        W31941  43.870  33.460  11.477
72439W        W31942   1.847  14.330  10.426
72440W        W31943  10.638  14.141   4.309
72441W        W31944  38.972   4.273  14.909
72442W        W31945  42.292  29.936   2.327
72443W        W31946  22.626  11.837   2.327
72444W        W31947  36.981  36.499  14.414
72445W        W31948  11.861  37.061  14.439
72446W        W31949  18.730  44.471   5.098
72447W        W31950  31.475   2.951   3.764
72448W        W31951  12.696  38.534  13.375
72449W        W31952  30.149  24.082   1.709
72450W        W31953  29.960  27.627   2.184
72451W        W31954  32.472  30.630  12.832
72452W        W31955  41.386  36.420  14.884
72453W        W31956  32.447  43.825   4.804
72454W        W31957  38.443  17.634   0.434
72455W        W31958  35.566  36.857   3.275
72456W        W31959  28.526   6.689  11.871
72457W        W31960  40.878   6.389  14.923
72458W        W31961  20.728  10.381   5.103
72459W        W31962  25.508  26.985   0.834
72460W        W31963  19.714  43.804  13.942
72461W        W31964  28.951  28.558  13.808
72462W        W31965  43.438  13.820   1.910
72463W        W31966  40.380   8.727  12.377
72464W        W31967  33.967  19.110  12.042
72465W        W31968  31.139   8.657  11.115
72466W        W31969  33.509  44.458  13.531
72467W        W31970   2.724  37.088  12.009
72468W        W31971  14.289  29.601   0.805
72469W        W31972   1.930  42.435  12.956
72470W        W31973  13.294   4.431  13.041
72471W        W31974  27.958  44.771  14.958
72472W        W31975   7.406  17.195   4.298
72473W        W31976   3.820  41.981   4.148
72474W        W31977  36.501  36.002   2.748
72475W        W31978   9.736  28.053  12.400
72476W        W31979  10.239  30.049  11.935
72477W        W31980  22.241  44.483  12.553
72478W        W31981   0.779  39.048  13.974
72479W        W31982  26.055  10.845  12.094
72480W        W31983  10.754   3.258  12.524
72481W        W31984   3.865  23.655  14.324
72482W        W31985  28.137  42.392  13.792
72483W        W31986  18.096  42.923   1.719
72484W        W31987   3.810  38.834   3.800
72485W        W31988   7.267   9.828   2.810
72486W        W31989  12.118  10.661   3.316
72487W        W31990  30.920   8.866  13.429
72488W        W31991  41.408  34.472   3.381
72489W        W31992   7.899  41.320   0.926
72490W        W31993  27.091   7.172   1.729
72491W        W31994  39.514  17.112  11.958
72492W        W31995  30.041  23.199   4.733
72493W        W31996  41.975  40.048   4.610
72494W        W31997  21.716  31.639  14.946
72495W        W31998  13.346  12.622   4.650
72496W        W31999  30.000  31.494  12.532
72497W        W32000   3.374  17.763   3.777
72498W        W32001  27.106  43.990   3.771
72499W        W32002   9.716   1.895   1.370
72500W        W32003  36.563  41.412   4.286
72501W        W32004   0.880  44.968  10.571
72502W        W32005   9.666   1.955  13.952
72503W        W32006   9.334  41.910  10.407
72504W        W32007  12.656  40.919  14.407
72505W        W32008   5.229  16.119   3.344
72506W        W32009  16.268  31.643  13.435
72507W        W32010   1.446  33.399   0.449
72508W        W32011  13.324  11.252   0.448
72509W        W32012  40.798  31.100   1.319
72510W        W32013   4.824  44.789  14.846
72511W        W32014  33.602  30.481   4.721
72512W        W32015  21.248  39.053   3.646
72513W        W32016  24.136  26.682   3.241
72514W        W32017  14.293  39.540   0.346
72515W        W32018  25.712  35.095   3.305
72516W        W32019  44.885   3.942   2.329
72517W        W32020   1.949  42.345   9.460
72518W        W32021   2.359   8.726   2.804
72519W        W32022  37.369  27.998   1.867
72520W        W32023  40.343   7.864  11.382
72521W        W32024  18.695  32.946   1.851
72522W        W32025  21.734  27.597  12.894
72523W        W32026  10.267  16.678   4.134
72524W        W32027  34.943   0.905  13.858
72525W        W32028  32.598   4.266  14.374
72526W        W32029   7.806  34.931  13.447
72527W        W32030  33.552  23.496  11.109
72528W        W32031  38.384  36.986  13.424
72529W        W32032   5.387  31.464   0.787
72530W        W32033   8.178  32.983  14.960
72531W        W32034   4.753  27.050   1.330
72532W        W32035  28.108  11.710   3.170
72533W        W32036  18.091   3.256  13.840
72534W        W32037   4.256   4.248   3.246
72535W        W32038   9.188  25.618   1.915
72536W        W32039   3.916  30.502  13.421
72537W        W32040  43.987  24.561  11.101
72538W        W32041  16.701   4.759  13.459
72539W        W32042  22.186   3.925  14.965
72540W        W32043   1.780  25.032   3.771
72541W        W32044   4.362  16.644  12.033
72542W        W32045  42.982  15.123   1.800
72543W        W32046   2.933  42.431   1.376
72544W        W32047  31.108  41.044   2.387
72545W        W32048  23.630  27.092   0.956
72546W        W32049  25.629  16.096   4.257
72547W        W32050  42.376  32.017  11.864
72548W        W32051   4.391   1.948  12.375
72549W        W32052  11.364  37.470  12.973
72550W        W32053  28.563  38.854  11.014
72551W        W32054  17.696  22.998  12.979
72552W        W32055  12.659  40.350  10.516
72553W        W32056  20.642  27.042   2.682
72554W        W32057  19.131   3.284   1.847
72555W        W32058  33.549  25.632  12.003
72556W        W32059  41.851  10.357  13.991
72557W        W32060   7.886  32.129   2.236
72558W        W32061  17.304   4.360   1.350
72559W        W32062   8.732  35.073   0.400
72560W        W32063   9.301  11.206   1.717
72561W        W32064  27.448  40.921   0.299
72562W        W32065  41.301  16.187   0.389
72563W        W32066  14.655  21.052   1.434
72564W        W32067   9.262  33.997   2.900
72565W        W32068  30.598  33.077  12.897
72566W        W32069  43.990  16.238  11.039
72567W        W32070  31.939   2.397  11.868
72568W        W32071  38.901  12.747  10.009
72569W        W32072  25.552  23.149  13.366
72570W        W32073  14.316  24.653   1.907
72571W        W32074  26.629  37.007   3.729
72572W        W32075   7.819  17.069   0.776
72573W        W32076   0.408   1.394  11.396
72574W        W32077  18.203  14.166  13.920
72575W        W32078  17.761   9.161  11.111
72576W        W32079  37.894  37.353   4.615
72577W        W32080  42.423  40.035   1.820
72578W        W32081  36.929  33.583  13.514
72579W        W32082  25.507  25.021   4.265
72580W        W32083  31.075  41.041  13.036
72581W        W32084  11.759  13.684   3.863
72582W        W32085  18.135  44.949   4.346
72583W        W32086  11.231   8.223  12.455
72584W        W32087  13.606   9.342   4.236
72585W        W32088  26.063  10.176  11.092
72586W        W32089   1.275  25.709   3.711
72587W        W32090   4.443  18.577   2.315
72588W        W32091   8.751  26.663  13.887
72589W        W32092  13.167  33.529  14.853
72590W        W32093   4.357  28.611   1.767
72591W        W32094  35.425   1.345  13.842
72592W        W32095  31.442  17.076  14.275
72593W        W32096  14.322  19.051   4.319
72594W        W32097  38.360  16.189  11.407
72595W        W32098  11.197  38.528  11.986
72596W        W32099   8.889  33.527  14.436
72597W        W32100  15.253  35.522  14.004
72598W        W32101   1.303  40.380   0.828
72599W        W32102  21.136  16.139   1.699
72600W        W32103  43.278  24.079   4.609
72601W        W32104  15.265   0.870   3.679
72602W        W32105  33.127  30.440  12.978
72603W        W32106  36.566  40.951  13.965
72604W        W32107  36.513  19.593   2.796
72605W        W32108  32.110  36.969  13.385
72606W        W32109  33.096  43.409   1.410
72607W        W32110   6.722  25.010   1.441
72608W        W32111   3.388  33.479   2.342
72609W        W32112  41.313  19.261   2.303
72610W        W32113  18.617  35.984   0.383
72611W        W32114  14.291  29.139  13.888
72612W        W32115  38.949  19.146  13.896
72613W        W32116  22.726   9.257   1.238
72614W        W32117  28.669  43.440   1.399
72615W        W32118   8.715  37.063   1.302
72616W        W32119  12.305  40.858   4.114
72617W        W32120  12.158   4.354   1.249
72618W        W32121  29.110  17.096   1.374
72619W        W32122  42.333  19.190  11.067
72620W        W32123   4.820  42.847   4.250
72621W        W32124  42.487  19.678   1.930
72622W        W32125  10.741  33.387   0.727
72623W        W32126  32.533   9.780   3.798
72624W        W32127  42.898  20.597   4.803
72625W        W32128  29.475  18.663   2.233
72626W        W32129  30.659   4.223  13.805
72627W        W32130  42.846   7.203  14.460
72628W        W32131  27.465   2.828  10.422
72629W        W32132   5.404   0.874   4.769
72630W        W32133  15.708  12.723  14.789
72631W        W32134  36.553  27.109  10.434
72632W        W32135  44.496  32.398  13.537
72633W        W32136  21.672  34.987  10.424
72634W        W32137  30.565   8.378   4.189
72635W        W32138  18.061  17.700   0.418
72636W        W32139   7.371  43.846  13.384
72637W        W32140  14.695  12.805   3.149
72638W        W32141   8.237  44.308   0.313
72639W        W32142  16.302  39.958  11.911
72640W        W32143   1.387   0.337  12.940
72641W        W32144  20.613  32.984  13.504
72642W        W32145  31.601  32.544   4.276
72643W        W32146  17.246   9.293   1.698
72644W        W32147  37.494  31.069  13.520
72645W        W32148  16.602  23.133   4.760
72646W        W32149  34.941   6.769  12.538
72647W        W32150  26.020  13.744  10.934
72648W        W32151  29.625   3.404   0.834
72649W        W32152  36.395  10.294  12.412
72650W        W32153  16.234   9.674  11.041
72651W        W32154  26.082  17.797  13.805
72652W        W32155  40.050  16.288  14.436
72653W        W32156  33.579  22.570  11.580
72654W        W32157  12.681  39.399  13.938
72655W        W32158  33.909  43.978  11.537
72656W        W32159  13.167  18.638   2.403
72657W        W32160   2.374  32.006   4.672
72658W        W32161  23.030  40.332  11.078
72659W        W32162  14.155  32.452  13.904
72660W        W32163  35.483   7.391  14.497
72661W        W32164  19.104  44.880   2.230
72662W        W32165  38.355  41.849   2.883
72663W        W32166  28.452  22.998  13.522
72664W        W32167  16.637  43.882  10.409
72665W        W32168   2.820  39.352   1.239
72666W        W32169  26.029  20.570   3.180
72667W        W32170  44.395  12.684  14.456
72668W        W32171  27.488   3.280   3.150
72669W        W32172   4.800  34.606   1.228
72670W        W32173  25.027   2.784  13.903
72671W        W32174  35.444  26.585   0.461
72672W        W32175  42.875  27.009   1.840
72673W        W32176  24.076  34.875   3.194
72674W        W32177   8.308  29.451   4.209
72675W        W32178   1.310   2.472  14.365
72676W        W32179  30.656  44.415  12.580
72677W        W32180  15.325   6.194  14.892
72678W        W32181   8.360  16.244   0.953
72679W        W32182   9.884  13.719  14.363
72680W        W32183  39.465  14.182   1.760
72681W        W32184  14.159  39.894   1.230
72682W        W32185  36.564  21.043  14.920
72683W        W32186  19.212  42.818   5.103
72684W        W32187  16.106  23.691   2.861
72685W        W32188  43.392  29.426   3.365
72686W        W32189   9.647   3.241   2.778
72687W        W32190  27.596  17.682   1.927
72688W        W32191  34.057  24.072  13.960
72689W        W32192  33.481  16.580  12.504
72690W        W32193  17.652  38.364   3.321
72691W        W32194  40.866  28.455  10.450
72692W        W32195  15.176  34.431  11.543
72693W        W32196  16.274  40.483   4.817
72694W        W32197  39.003  26.152  14.297
72695W        W32198   0.307  33.565   1.320
72696W        W32199  43.399  35.020  10.935
72697W        W32200  33.406  41.429   0.907
72698W        W32201  18.718  21.043  13.794
72699W        W32202   9.843  35.988  13.017
72700W        W32203   6.848  19.756   4.756
72701W        W32204  20.149  16.149   0.455
72702W        W32205  34.441  20.659  11.977
72703W        W32206  31.488   8.351   0.809
72704W        W32207  36.471  10.786  13.403
72705W        W32208  21.668  32.467  11.552
72706W        W32209  28.168  29.104  14.376
72707W        W32210  17.178  35.536   0.964
72708W        W32211  39.836   0.355  12.466
72709W        W32212   5.729   9.836   4.807
72710W        W32213   3.815   3.310   2.752
72711W        W32214   3.905  44.758  14.831
72712W        W32215  28.022  34.569  12.912
72713W        W32216  44.295  43.466   0.948
72714W        W32217  31.909  29.970  10.431
72715W        W32218  30.910  42.375  13.836
72716W        W32219  42.906   3.459   5.204
72717W        W32220  24.533  25.600  13.938
72718W        W32221  22.661  39.977  10.157
72719W        W32222  15.123  21.083  12.867
72720W        W32223  32.417   3.816   0.758
72721W        W32224  25.494   0.361  13.978
72722W        W32225  20.077  16.233  14.455
72723W        W32226  13.743  10.680   1.367
72724W        W32227  26.122  40.358  14.468
72725W        W32228  18.653  31.984   4.721
72726W        W32229  17.603  35.562  12.066
72727W        W32230   1.471  31.555  11.009
72728W        W32231  35.969  43.361   4.165
72729W        W32232  29.641  12.806   0.963
72730W        W32233  24.192   6.762  13.421
72731W        W32234   2.298  27.061   0.287
72732W        W32235  32.062  21.219  13.893
72733W        W32236  40.836  10.375   0.368
72734W        W32237  18.618   0.875   1.934
72735W        W32238  35.091  42.917  14.853
72736W        W32239  25.212  33.478  10.980
72737W        W32240  26.123   9.838  13.374
72738W        W32241  13.667  23.519   2.837
72739W        W32242  20.060  41.832   1.295
72740W        W32243  15.756  31.419  12.365
72741W        W32244  30.578  24.068   0.931
72742W        W32245  26.700  32.414   4.304
72743W        W32246   8.748  26.684   3.702
72744W        W32247  37.062  14.772   4.819
72745W        W32248  13.759   3.294   0.452
72746W        W32249  20.106  32.896  14.802
72747W        W32250  16.255  16.650   0.878
72748W        W32251  17.628  42.338   3.646
72749W        W32252  27.099  42.397  12.954
72750W        W32253  20.045   1.385   4.262
72751W        W32254  12.621  20.719  12.509
72752W        W32255  27.540   8.359  10.581
72753W        W32256  40.988  16.094   4.265
72754W        W32257  33.975  13.280   0.361
72755W        W32258  23.022  16.142   3.769
72756W        W32259  36.967   3.239  12.847
72757W        W32260  30.088  35.560   0.370
72758W        W32261  40.538  37.516  14.934
72759W        W32262  33.128  37.958  10.004
72760W        W32263   0.268  37.343  11.379
72761W        W32264  36.061  13.627   3.858
72762W        W32265  39.426   5.437   2.213
72763W        W32266  37.999  27.141   2.726
72764W        W32267   4.877  22.631  11.075
72765W        W32268  40.918   8.336  11.598
72766W        W32269   2.273  33.620   0.963
72767W        W32270  42.837  38.359  11.477
72768W        W32271  15.303  28.434  13.388
72769W        W32272  27.158   5.711   1.451
72770W        W32273  27.142  11.364   1.230
72771W        W32274  29.650  12.176   4.631
72772W        W32275  24.157  40.872   3.224
72773W        W32276   8.869  38.984  11.480
72774W        W32277  23.666   0.789  11.565
72775W        W32278  31.123  20.170   3.788
72776W        W32279   4.819  30.490   1.844
72777W        W32280  32.428   0.364  13.370
72778W        W32281   8.692   8.217  14.495
72779W        W32282  25.531  44.417   2.811
72780W        W32283  37.497   6.824  11.885
72781W        W32284   3.812   0.929   2.680
72782W        W32285  42.287  38.985  14.401
72783W        W32286  13.715  10.861  11.947
72784W        W32287  12.705   1.456   4.708
72785W        W32288   2.429  41.512   1.897
72786W        W32289  17.273   9.379  14.960
72787W        W32290  41.792  11.839  11.443
72788W        W32291  30.427  14.256  11.936
72789W        W32292  20.137  16.183   2.223
72790W        W32293  16.683  20.744  14.331
72791W        W32294   5.426  20.617   4.213
72792W        W32295  43.388  41.893  11.603
72793W        W32296  34.489  23.542  11.117
72794W        W32297  36.009  14.107   5.258
72795W        W32298   1.404  10.849   2.796
72796W        W32299  38.834   6.806   1.387
72797W        W32300   3.777   9.649  14.791
72798W        W32301   2.868  32.025  10.106
72799W        W32302  12.227  11.711   1.327
72800W        W32303  33.125  34.034   2.251
72801W        W32304   5.776  19.710  14.923
72802W        W32305  25.116  11.661  10.969
72803W        W32306  40.507   8.334   9.993
72804W        W32307  27.558  37.851   4.659
72805W        W32308  11.749  33.883  14.933
72806W        W32309  33.911   1.813   3.381
72807W        W32310   6.302  26.612  14.824
72808W        W32311  40.859  38.326  11.527
72809W        W32312   3.290   3.337   0.899
72810W        W32313  28.673  22.220  10.999
72811W        W32314  10.239  17.173   2.845
72812W        W32315  22.619  35.556  14.452
72813W        W32316  42.926  27.620  11.082
72814W        W32317  34.104  21.048  10.911
72815W        W32318   5.711  17.628  11.087
72816W        W32319   1.859  44.308   0.799
72817W        W32320  42.496  41.793  11.092
72818W        W32321  17.226   0.743  14.417
72819W        W32322   6.284  31.554   3.821
72820W        W32323   3.447   5.883   3.347
72821W        W32324   2.330  32.071   2.179
72822W        W32325  39.876  16.629  12.498
72823W        W32326  15.193   3.356   2.204
72824W        W32327  14.662  21.512  14.412
72825W        W32328  27.096  21.021  13.440
72826W        W32329  18.200  28.090  13.910
72827W        W32330  41.839  24.642   2.852
72828W        W32331  27.517  41.972   3.630
72829W        W32332  34.884  36.583   1.340
72830W        W32333  14.239  11.666  12.953
72831W        W32334  15.117  35.507  14.933
72832W        W32335  43.360  20.701   5.256
72833W        W32336  37.022  19.687  14.481
72834W        W32337  25.607   8.243  13.524
72835W        W32338  44.484  37.487  10.633
72836W        W32339  35.937  42.291  11.037
72837W        W32340  29.654   8.736  11.867
72838W        W32341  18.106  32.070   2.302
72839W        W32342  10.176  42.816   0.447
72840W        W32343  25.191  35.457   0.253
72841W        W32344  39.557  17.730  10.571
72842W        W32345  32.905   1.734   1.853
72843W        W32346  15.317  24.109  13.387
72844W        W32347  38.413  31.988  13.928
72845W        W32348   5.703  38.408  10.566
72846W        W32349  40.511  13.695   4.786
72847W        W32350  40.858  12.717   1.721
72848W        W32351  44.366   1.291   0.325
72849W        W32352  18.133   2.435  13.405
72850W        W32353  20.260  35.864  13.845
72851W        W32354  43.788  25.074   4.235
72852W        W32355  36.903  24.720   3.351
72853W        W32356  15.796   2.735  11.870
72854W        W32357  23.135  28.624  13.795
72855W        W32358  33.096   5.930   1.448
72856W        W32359  11.310  25.108   1.898
72857W        W32360  24.665  44.433  10.627
72858W        W32361  10.381  27.476   3.303
72859W        W32362   1.466   0.364   4.266
72860W        W32363  29.622  35.544  11.553
72861W        W32364  42.931   0.479  12.553
72862W        W32365  13.607  28.980   2.336
72863W        W32366  21.713  32.916   3.659
72864W        W32367  27.658  38.354   2.384
72865W        W32368  21.193  22.632  14.786
72866W        W32369  42.316  21.081   1.694
72867W        W32370   7.186  36.844  11.381
72868W        W32371  17.638  35.935  10.525
72869W        W32372   5.437  10.380  13.512
72870W        W32373  15.709  36.040   2.669
72871W        W32374  14.226  12.306  12.525
72872W        W32375  32.633  19.066  12.079
72873W        W32376   9.886  29.484   0.340
72874W        W32377  28.161  34.052  14.937
72875W        W32378  23.059   9.163   4.731
72876W        W32379  44.938  44.333  14.858
72877W        W32380  21.260  24.029   2.880
72878W        W32381  26.590   9.884  13.840
72879W        W32382  23.691  41.313   0.321
72880W        W32383  22.064  44.335  14.933
72881W        W32384  16.268   8.196   1.254
72882W        W32385  40.007  15.216  12.900
72883W        W32386  27.098  28.122  14.759
72884W        W32387  21.235  23.547  11.000
72885W        W32388  20.160   6.831   1.252
72886W        W32389  38.009  43.505  11.871
72887W        W32390  33.073  44.464   4.294
72888W        W32391  21.164  24.723  12.488
72889W        W32392  13.118  17.261  12.957
72890W        W32393   4.942  38.991   5.270
72891W        W32394   1.302  12.621   1.348
72892W        W32395  28.041  24.685   0.922
72893W        W32396  20.145  17.770   0.310
72894W        W32397  37.487   0.464   4.188
72895W        W32398   0.445  31.056   2.866
72896W        W32399   0.384   8.782  11.092
72897W        W32400  42.456  12.767  11.882
72898W        W32401  28.554  36.451   9.482
72899W        W32402   6.368  11.794   5.114
72900W        W32403  11.844  27.571   2.373
72901W        W32404   9.355  14.770   2.220
72902W        W32405   9.856  35.592   1.823
72903W        W32406   3.222  19.589  12.079
72904W        W32407  25.597  44.343   0.961
72905W        W32408  26.061  39.321  11.039
72906W        W32409  25.048  36.538   4.665
72907W        W32410   7.875  44.984   2.901
72908W        W32411   6.373  21.521  11.542
72909W        W32412  32.904  13.803  12.535
72910W        W32413  37.420  31.590   3.317
72911W        W32414   9.169  27.497  13.821
72912W        W32415  21.041  37.023  11.572
72913W        W32416  36.431   9.645   0.262
72914W        W32417  44.932  26.960   1.448
72915W        W32418  28.002  28.635  12.404
72916W        W32419  39.997   3.247   2.895
72917W        W32420  32.441  18.732   0.739
72918W        W32421  32.985  32.572   2.290
72919W        W32422  19.141  23.167  14.032
72920W        W32423  13.144  14.700  14.793
72921W        W32424  22.065  29.960  11.124
72922W        W32425  24.153  27.957  12.911
72923W        W32426  30.103  33.040   2.678
72924W        W32427  24.210  43.825   4.118
72925W        W32428   1.344   6.245   4.274
72926W        W32429  29.098   4.313  12.408
72927W        W32430  39.932  16.198  13.505
72928W        W32431   3.785  26.575   3.253
72929W        W32432  15.638  18.717  13.476
72930W        W32433  29.528  15.282   0.443
72931W        W32434  22.563  32.536  10.126
72932W        W32435  28.450  34.435   2.776
72933W        W32436   8.251  16.218   9.669
72934W        W32437   9.152  22.091   2.663
72935W        W32438   8.901  33.903   1.407
72936W        W32439   8.170  18.052  11.575
72937W        W32440  32.602  10.309   2.215
72938W        W32441  23.495  36.086  12.859
72939W        W32442   1.257  16.568  14.427
72940W        W32443  24.151  32.629  14.493
72941W        W32444  19.709  20.546   4.246
72942W        W32445  36.444  19.723   1.893
72943W        W32446  42.821  34.940  11.963
72944W        W32447  30.985  18.705   1.799
72945W        W32448  35.375   9.394   3.195
72946W        W32449   9.876  12.232   4.277
72947W        W32450  33.972  40.902  11.111
72948W        W32451  22.062  19.670   3.295
72949W        W32452  36.481  34.088   1.403
72950W        W32453  41.035   1.433  14.387
72951W        W32454  27.608  18.263  14.790
72952W        W32455   1.422  28.524  11.597
72953W        W32456   9.717   7.235   0.396
72954W        W32457  26.583  31.939   0.758
72955W        W32458   5.417  24.509  10.586
72956W        W32459  35.883  38.442  12.926
72957W        W32460  23.185  27.518   3.749
72958W        W32461   2.289  33.581  10.907
72959W        W32462  38.865  26.695  10.153
72960W        W32463  32.532  27.650   3.234
72961W        W32464  24.224  34.963  13.375
72962W        W32465  37.882   2.447  12.432
72963W        W32466  41.943  19.689   0.371
72964W        W32467  13.351  32.616   1.761
72965W        W32468  34.520  18.119   3.166
72966W        W32469   6.907  18.112  14.442
72967W        W32470  36.093   4.790  11.524
72968W        W32471  37.867   4.868   2.283
72969W        W32472   4.409  23.673   2.741
72970W        W32473  13.226  33.430   1.799
72971W        W32474  36.575   1.384   0.884
72972W        W32475  23.204  27.175  11.562
72973W        W32476  18.694   3.857  14.000
72974W        W32477   8.743  31.986   5.743
72975W        W32478  37.450  14.721  10.605
72976W        W32479  41.030  31.580   1.910
72977W        W32480  42.342  20.619   4.302
72978W        W32481  32.449   4.817  10.039
72979W        W32482  40.948  23.101   4.149
72980W        W32483   4.850  21.662   2.367
72981W        W32484  25.641  42.321  10.583
72982W        W32485  34.992   8.680  10.559
72983W        W32486   7.868  27.519   1.306
72984W        W32487   7.252   4.263  14.322
72985W        W32488  16.591  28.966  13.431
72986W        W32489  17.669  37.940   3.378
72987W        W32490  17.292  34.463  12.086
72988W        W32491  29.512  11.343  12.051
72989W        W32492  31.562   9.209   4.216
72990W        W32493  31.644  18.743  11.403
72991W        W32494  10.163  12.196  13.025
72992W        W32495  17.068  44.270  12.830
72993W        W32496  40.350  35.365  14.495
72994W        W32497  18.240   7.172  14.895
72995W        W32498  16.628  33.005   1.287
72996W        W32499  12.638  14.674   3.175
72997W        W32500  37.884  22.711  11.509
72998W        W32501   4.844  36.964  12.900
72999W        W32502   9.328  17.735  14.328
73000W        W32503   1.892  14.257   1.311
73001W        W32504   8.265  28.510   3.266
73002W        W32505  20.709  24.627   3.852
73003W        W32506  15.762  30.924  11.049
73004W        W32507  28.942  43.004   1.312
73005W        W32508  12.273  23.604  10.456
73006W        W32509  27.020  11.233   1.713
73007W        W32510  28.944  30.916   2.681
73008W        W32511  26.681   6.310  12.072
73009W        W32512  28.611  35.032   1.360
73010W        W32513  22.077   7.729  12.422
73011W        W32514  33.388  40.497   0.730
73012W        W32515  25.714  35.062  12.493
73013W        W32516   3.349  24.708  10.023
73014W        W32517  19.662   2.451  13.541
73015W        W32518  18.174  13.185   4.755
73016W        W32519  31.516  34.985   1.752
73017W        W32520  16.188  42.325  11.609
73018W        W32521   5.797  16.683   4.721
73019W        W32522   8.229  38.411  12.922
73020W        W32523  13.731  30.501  13.819
73021W        W32524   6.877  29.067  13.827
73022W        W32525  28.667  33.889  11.383
73023W        W32526   7.860  39.036  10.940
73024W        W32527  43.919  35.575   3.312
73025W        W32528  31.103  37.433  12.540
73026W        W32529  14.650  17.745  10.916
73027W        W32530  16.129   5.691  10.918
73028W        W32531  33.517   9.242   2.718
73029W        W32532  39.034   0.748  13.433
73030W        W32533  22.719  36.422   2.234
73031W        W32534   2.384  30.437   2.210
73032W        W32535  15.284  12.157  10.910
73033W        W32536   8.720  16.800   2.718
73034W        W32537  39.816   3.853  11.881
73035W        W32538  37.501   9.263  13.331
73036W        W32539   0.355  41.509  12.519
73037W        W32540  15.782  17.584  13.926
73038W        W32541   0.443  39.389   2.752
73039W        W32542  27.037  25.164  10.553
73040W        W32543  14.186  27.181   2.184
73041W        W32544  27.600  33.004   2.708
73042W        W32545   2.788   9.328   1.431
73043W        W32546  41.852  12.116   3.745
73044W        W32547  35.509  20.115   0.780
73045W        W32548   7.273  39.425  13.441
73046W        W32549  19.650  17.720  11.936
73047W        W32550  32.941  17.708   4.740
73048W        W32551  37.944  25.501   0.341
73049W        W32552  21.165  29.539   4.605
73050W        W32553  41.486  42.978   4.176
73051W        W32554  24.200  38.842   2.370
73052W        W32555  12.743   1.733  11.915
73053W        W32556  29.439  21.100  13.387
73054W        W32557  13.811  17.175  13.957
73055W        W32558  42.928   5.832  11.373
73056W        W32559  27.951  31.637   2.383
73057W        W32560  32.127  21.017  11.392
73058W        W32561  28.933  14.823  10.507
73059W        W32562   2.924   5.207  10.449
73060W        W32563  19.646  27.605  14.479
73061W        W32564   5.751  15.247   9.659
73062W        W32565  20.723  20.554  10.508
73063W        W32566   0.810  31.005  14.368
73064W        W32567  41.437  40.868  12.059
73065W        W32568  32.567  39.009  12.853
73066W        W32569  35.541  11.643  10.440
73067W        W32570   7.729  32.081   0.391
73068W        W32571  35.999  15.214   2.662
73069W        W32572   8.206  16.613   4.331
73070W        W32573  17.609   5.251   1.395
73071W        W32574  36.495  40.529  14.810
73072W        W32575  43.011  44.914  11.562
73073W        W32576  41.958  40.485  13.402
73074W        W32577  16.569   0.358   0.849
73075W        W32578   5.728  26.654  14.296
73076W        W32579  27.982  13.748   0.858
73077W        W32580  21.651  12.152   0.947
73078W        W32581  23.726  43.403   0.476
73079W        W32582   5.313  38.068   3.659
73080W        W32583  35.925  29.160   2.239
73081W        W32584  27.052  26.993   2.379
73082W        W32585  31.553  23.730  12.556
73083W        W32586  38.829  36.876  12.473
73084W        W32587  13.690  25.985  14.463
73085W        W32588   9.379  22.503  12.448
73086W        W32589  10.708  12.164  12.877
73087W        W32590   6.385  32.617  11.372
73088W        W32591  38.883  22.740   0.730
73089W        W32592   2.919  16.609  13.524
73090W        W32593   6.374  43.984   2.395
73091W        W32594  30.070  38.386   1.272
73092W        W32595  37.055  29.564   1.235
73093W        W32596   4.721   8.392   3.767
73094W        W32597  21.179  27.060   2.787
73095W        W32598  12.148  30.491   9.922
73096W        W32599  42.472  31.942  14.831
73097W        W32600  18.759  26.643   3.803
73098W        W32601  18.625  35.888  13.825
73099W        W32602   9.318  31.485   0.413
73100W        W32603  36.346  37.908  14.310
73101W        W32604  44.875  29.588  12.964
73102W        W32605  43.481  39.471   0.431
73103W        W32606   6.782   5.399  12.420
73104W        W32607  24.121  26.680   0.838
73105W        W32608  40.804  41.513   3.210
73106W        W32609  13.350   4.805  12.380
73107W        W32610   0.982  44.882   1.439
73108W        W32611  12.794  15.612  14.817
73109W        W32612   4.321  44.879   2.809
73110W        W32613  28.516  26.699  12.436
73111W        W32614   7.195   4.857  14.501
73112W        W32615  28.172   0.905   0.786
73113W        W32616  29.042   6.769   3.775
73114W        W32617   1.396  44.336  12.053
73115W        W32618  24.001  21.617  14.460
73116W        W32619  15.714  43.493  14.343
73117W        W32620  38.902  32.401  10.976
73118W        W32621  42.831  27.509  14.388
73119W        W32622  42.283   8.301  13.314
73120W        W32623  28.048  18.073   1.728
73121W        W32624  29.628  20.194   2.857
73122W        W32625  37.998   1.838  13.431
73123W        W32626  14.803  18.226   2.268
73124W        W32627  36.582  44.326   3.724
73125W        W32628  18.583  22.146   4.757
73126W        W32629  39.896  44.775  14.780
73127W        W32630   5.870  16.784   1.886
73128W        W32631   6.853  42.359   0.434
73129W        W32632  23.993  32.529  14.921
73130W        W32633  15.324  24.711   1.788
73131W        W32634  12.645  32.930   0.424
73132W        W32635  42.311  29.958  14.901
73133W        W32636  27.161  17.077   3.164
73134W        W32637  35.012  27.573   0.934
73135W        W32638  14.266  34.501  11.039
73136W        W32639   0.802  13.220  14.831
73137W        W32640  27.086  27.013   9.580
73138W        W32641  36.913   5.701  14.478
73139W        W32642  26.207  32.915  12.470
73140W        W32643  34.571  24.584  14.904
73141W        W32644  14.257  41.951   3.783
73142W        W32645  24.485  35.030   2.854
73143W        W32646  33.956  27.608   1.893
73144W        W32647  18.741  12.640   0.434
73145W        W32648  29.068   0.831   3.345
73146W        W32649  16.209  44.338  13.980
73147W        W32650  39.808   3.335  13.816
73148W        W32651  30.145  13.146   3.168
73149W        W32652  43.881  28.446   2.759
73150W        W32653   8.655  23.989   1.243
73151W        W32654   1.300  21.752   1.817
73152W        W32655  25.534  37.989   4.317
73153W        W32656  30.650  17.296   4.167
73154W        W32657   6.728  22.157  13.383
73155W        W32658  12.672  43.018   0.752
73156W        W32659  43.310  18.179   9.930
73157W        W32660   0.285  12.660  13.889
73158W        W32661  22.556  20.234   1.433
73159W        W32662  37.839  14.133   3.148
73160W        W32663  24.206  37.456   1.357
73161W        W32664   5.346   3.926  13.390
73162W        W32665  42.325  26.059   3.204
73163W        W32666  13.285  30.574  12.539
73164W        W32667  17.664  31.417   4.789
73165W        W32668  34.888  24.063  13.907
73166W        W32669  17.675  30.526  11.387
73167W        W32670  39.930  18.151   2.759
73168W        W32671  35.494   6.258  10.412
73169W        W32672  14.766  39.373   0.898
73170W        W32673   4.828  35.976   0.292
73171W        W32674  16.702  30.461  10.988
73172W        W32675  28.980   8.294  13.875
73173W        W32676  26.526  11.162  14.370
73174W        W32677  34.435  10.174  11.985
73175W        W32678   1.815  21.241   3.763
73176W        W32679  36.867  31.994   1.821
73177W        W32680  41.364  12.342   1.696
73178W        W32681  16.636  17.079   3.177
73179W        W32682  28.561  33.546   0.893
73180W        W32683  35.937   2.811  12.995
73181W        W32684   9.184  19.073   0.288
73182W        W32685  14.232  41.941  11.402
73183W        W32686   0.293   0.757  12.471
73184W        W32687  21.670  20.527  13.347
73185W        W32688  33.563  42.850  14.789
73186W        W32689  31.043  17.758  11.579
73187W        W32690  25.471  37.944   4.819
73188W        W32691  18.690   7.408   0.431
73189W        W32692  28.090  27.195   5.687
73190W        W32693  12.270   7.680   0.457
73191W        W32694  34.432  22.165   0.738
73192W        W32695  25.676  34.898   2.198
73193W        W32696  20.043  42.834   1.791
73194W        W32697  34.938   5.415   3.251
73195W        W32698  43.795   5.889   2.679
73196W        W32699  22.019   6.257  12.922
73197W        W32700  20.066   8.400  10.448
73198W        W32701   7.853   3.272  12.918
73199W        W32702  17.269  36.500  11.943
73200W        W32703   5.346   5.703   0.875
73201W        W32704  31.565  14.331  10.944
73202W        W32705  12.298  36.367  11.480
73203W        W32706  39.900   8.229  11.398
73204W        W32707  42.863  31.538  11.384
73205W        W32708  11.856  14.620   2.353
73206W        W32709  26.111  43.330   4.648
73207W        W32710  26.562  10.849   4.767
73208W        W32711  16.278  37.011  13.794
73209W        W32712  28.599  30.121   2.195
73210W        W32713  18.204   6.385  11.068
73211W        W32714  14.223  25.124   0.930
73212W        W32715  32.065  35.959  13.364
73213W        W32716  19.269  27.628  10.994
73214W        W32717  11.172  30.983  14.804
73215W        W32718   5.272   8.181  14.358
73216W        W32719  16.178   6.312  10.442
73217W        W32720   0.948  36.976  10.029
73218W        W32721   6.297  16.140  12.964
73219W        W32722   0.353  19.552   2.696
73220W        W32723  25.543  17.796   0.736
73221W        W32724  39.832   3.295  14.974
73222W        W32725  30.944  12.289  11.971
73223W        W32726  16.157  21.547  11.997
73224W        W32727  40.357  21.036   1.725
73225W        W32728  39.485  32.973  12.031
73226W        W32729  10.697  22.220   4.191
73227W        W32730  42.453  41.377  11.997
73228W        W32731  43.014  44.349  11.456
73229W        W32732  19.176  14.201  10.519
73230W        W32733  17.092  40.052   0.936
73231W        W32734  44.331  37.486   1.819
73232W        W32735  17.068  21.193   3.352
73233W        W32736   6.326  36.554  13.885
73234W        W32737  31.429  39.437   0.342
73235W        W32738  16.579  14.160   4.650
73236W        W32739  33.533  11.357  14.504
73237W        W32740   7.230  27.490  14.932
73238W        W32741  21.530  13.191  12.092
73239W        W32742  20.699  20.083   2.183
73240W        W32743  17.617   0.302   2.352
73241W        W32744   1.289  35.014  13.532
73242W        W32745  34.925  29.939   0.918
73243W        W32746   8.766   3.943  13.430
73244W        W32747  36.064  29.571   0.827
73245W        W32748   7.394   7.271   1.920
73246W        W32749  20.617   4.260   4.754
73247W        W32750  21.713  34.403  13.425
73248W        W32751  14.098   5.797  11.881
73249W        W32752  37.047   6.806   4.819
73250W        W32753  40.525  41.022  13.900
73251W        W32754  26.699  27.486   1.728
73252W        W32755  32.123   3.904  13.833
73253W        W32756   1.964  41.857   2.355
73254W        W32757  39.035   3.861  13.035
73255W        W32758  33.973  36.528   1.934
73256W        W32759  21.634  14.244   0.929
73257W        W32760  32.433  30.471  10.528
73258W        W32761  19.140  22.618   4.179
73259W        W32762  27.083  16.586   0.384
73260W        W32763   1.739   2.873   1.791
73261W        W32764  39.324  32.979   3.679
73262W        W32765  27.690   1.284   3.378
73263W        W32766  39.899   4.207  10.463
73264W        W32767  41.922   1.774   4.204
73265W        W32768  10.152  41.811  13.527
73266W        W32769   8.812  10.368   1.749
73267W        W32770   6.201  41.823  11.508
73268W        W32771  32.902  25.686   1.750
73269W        W32772   9.336  33.418  10.985
73270W        W32773   6.694   9.676   4.228
73271W        W32774  39.455   5.235  13.053
73272W        W32775  22.591  32.393  11.008
73273W        W32776  26.457  29.113  14.277
73274W        W32777  20.580  35.022   4.603
73275W        W32778  13.118  40.459   4.171
73276W        W32779  31.549  22.580  12.032
73277W        W32780  11.145  38.034   2.310
73278W        W32781   1.334  30.648   3.301
73279W        W32782  28.079  34.066   1.797
73280W        W32783   4.778  16.737   4.315
73281W        W32784  10.151  13.767   1.824
73282W        W32785  38.883   7.194   2.399
73283W        W32786  15.639  13.668  13.433
73284W        W32787  12.132  12.755  14.473
73285W        W32788  14.227   0.891  14.513
73286W        W32789   3.453  40.994   2.338
73287W        W32790  11.310   9.193  14.500
73288W        W32791  33.447  37.922   4.123
73289W        W32792  44.863   9.193  13.410
73290W        W32793  16.731  36.846  11.012
73291W        W32794   5.400  36.843  11.572
73292W        W32795  12.829   1.303   1.371
73293W        W32796   2.348  22.209   2.208
73294W        W32797  44.389  13.124   3.721
73295W        W32798   8.731   3.868   0.453
73296W        W32799  12.358  22.737  13.347
73297W        W32800  41.818  36.889  12.863
73298W        W32801  31.099  40.304  11.939
73299W        W32802   4.732  20.527   4.806
73300W        W32803   0.492  41.843   1.866
73301W        W32804  16.233  27.004   4.689
73302W        W32805  23.178   4.449  13.538
73303W        W32806  38.060  18.256   0.811
73304W        W32807   2.770   7.369   4.144
73305W        W32808   7.296  14.223   0.316
73306W        W32809   1.474  26.021   3.820
73307W        W32810   0.424   0.485  13.315
73308W        W32811  31.574  11.693  13.479
73309W        W32812  39.063  36.893  12.897
73310W        W32813  19.176  41.534   4.699
73311W        W32814  18.636  39.396  12.349
73312W        W32815  15.131  12.626  12.925
73313W        W32816  33.993  30.461   1.795
73314W        W32817  33.533  33.922  14.401
73315W        W32818  22.695  29.957   3.754
73316W        W32819  29.923  19.166   3.631
73317W        W32820  21.732  10.785  13.540
73318W        W32821  29.956  30.468   4.197
73319W        W32822  31.128  39.007   3.859
73320W        W32823  37.573  28.483  10.520
73321W        W32824  17.619   2.275   3.302
73322W        W32825  13.252  15.722   0.889
73323W        W32826  34.542   5.697   2.221
73324W        W32827  27.942  33.484   4.243
73325W        W32828   9.302  23.003  13.312
73326W        W32829  35.061  41.943  11.885
73327W        W32830   8.816  26.528  10.897
73328W        W32831  30.939  14.825   1.873
73329W        W32832  19.278   8.836  10.510
73330W        W32833  26.637  44.861  14.015
73331W        W32834  35.593  25.591   0.835
73332W        W32835  28.048  18.705  14.335
73333W        W32836   3.240  41.923  12.398
73334W        W32837  15.788  23.212   2.273
73335W        W32838  44.419  22.118   0.734
73336W        W32839  20.681  35.032  14.009
73337W        W32840  25.198  30.155  14.438
73338W        W32841  11.296  27.080   3.669
73339W        W32842  15.187   5.324  12.927
73340W        W32843  19.203  23.517  14.828
73341W        W32844   6.247  21.722   2.196
73342W        W32845   3.947   3.229  14.803
73343W        W32846  41.032  16.083  13.476
73344W        W32847  27.561  38.531   0.741
73345W        W32848  16.088  26.049  12.924
73346W        W32849  25.542  14.770   1.343
73347W        W32850   8.368   7.316   0.372
73348W        W32851  42.444   8.749   5.242
73349W        W32852  21.620   8.664  13.981
73350W        W32853   5.209  12.207  14.450
73351W        W32854  26.169  25.641  11.986
73352W        W32855   8.769   5.905  12.551
73353W        W32856  42.831  28.074  11.439
73354W        W32857   7.251  43.294  14.356
73355W        W32858   3.404  35.365   4.181
73356W        W32859  38.544  10.642   0.306
73357W        W32860  30.652   7.411  14.468
73358W        W32861  29.549   7.181   4.706
73359W        W32862  14.765  36.518  14.377
73360W        W32863  19.190  44.956   0.474
73361W        W32864  36.387  29.092   2.831
73362W        W32865  32.617  37.563   9.940
73363W        W32866  15.678  19.093   4.339
73364W        W32867   1.895  29.647   0.942
73365W        W32868  41.338  27.637  13.337
73366W        W32869  44.428  40.882   1.715
73367W        W32870  39.050  42.336   3.231
73368W        W32871  18.657   6.265   1.235
73369W        W32872  44.464  42.290  10.963
73370W        W32873  23.663   6.687  11.935
73371W        W32874  14.153  44.881  10.437
73372W        W32875  12.804   6.355  12.000
73373W        W32876  28.065   2.274  10.925
73374W        W32877  34.455  23.008   3.278
73375W        W32878  39.863  19.089   3.652
73376W        W32879   3.944  42.952   0.746
73377W        W32880  38.536   3.868   9.949
73378W        W32881  14.656   5.330  12.868
73379W        W32882  14.140  25.076  13.920
73380W        W32883  15.665  24.181   3.222
73381W        W32884   4.746   7.202   2.829
73382W        W32885  14.244  20.649  11.071
73383W        W32886  28.169  20.174  12.452
73384W        W32887  14.279  40.817  10.447
73385W        W32888  34.518  34.996   0.352
73386W        W32889  18.161  37.856  11.542
73387W        W32890  10.341  33.595   0.298
73388W        W32891   6.737  40.304  10.419
73389W        W32892  21.043  42.352  12.980
73390W        W32893  31.419  10.285   1.251
73391W        W32894  37.395   5.699   3.349
73392W        W32895   4.891   1.731   1.821
73393W        W32896  33.044  16.172   9.668
73394W        W32897  34.602  22.620  14.003
73395W        W32898   4.781  16.770   2.388
73396W        W32899  17.124  38.823   0.742
73397W        W32900  17.084  13.294   3.825
73398W        W32901  38.556  14.103   3.323
73399W        W32902  37.983  40.984  12.865
73400W        W32903  14.723  10.732   3.258
73401W        W32904  38.473   3.392  10.063
73402W        W32905  41.040  17.740  11.408
73403W        W32906  13.663  14.174  10.981
73404W        W32907  11.336  36.587  13.060
73405W        W32908  24.524  34.872   1.882
73406W        W32909   5.415  19.276  12.495
73407W        W32910   2.750   6.250  11.474
73408W        W32911  25.211  24.635  12.871
73409W        W32912  15.111   2.772   4.617
73410W        W32913   7.238  43.385  14.845
73411W        W32914  43.307  11.699  13.970
73412W        W32915   7.909   9.364  14.940
73413W        W32916   0.930   5.239  13.795
73414W        W32917  10.784  43.411  13.432
73415W        W32918  33.108  29.157   1.881
73416W        W32919   0.944  23.559  12.354
73417W        W32920  42.368   2.802  12.887
73418W        W32921  25.114  19.725  12.010
73419W        W32922  23.070  37.487   1.326
73420W        W32923  39.443  23.496   2.230
73421W        W32924  43.917  32.969   0.435
73422W        W32925  33.385   8.285   3.688
73423W        W32926  20.064   3.945  12.824
73424W        W32927  30.974  12.127   1.349
73425W        W32928   4.708   5.349  11.414
73426W        W32929  20.081  22.699   2.291
73427W        W32930  38.027  39.991   1.333
73428W        W32931  44.872  34.961   4.149
73429W        W32932   2.935  12.252  14.348
73430W        W32933  31.510  27.119   0.898
73431W        W32934   9.287  26.563  11.914
73432W        W32935  38.339  29.140   3.820
73433W        W32936  33.881  16.219   4.160
73434W        W32937  26.118   7.390  14.320
73435W        W32938  36.052  38.859  10.624
73436W        W32939  34.962  14.270   2.753
73437W        W32940   4.877  21.729   1.921
73438W        W32941  26.031  33.013  14.336
73439W        W32942  39.024   8.774   0.286
73440W        W32943  41.487  17.673  12.027
73441W        W32944  28.153  16.254  11.033
73442W        W32945  36.417  33.400  10.991
73443W        W32946   5.261  29.568   1.385
73444W        W32947  35.884  13.257   2.849
73445W        W32948  29.559  34.462  13.405
73446W        W32949  31.904  22.501   2.822
73447W        W32950  36.350  20.041  12.917
73448W        W32951  30.992  23.711   1.399
73449W        W32952  26.186   3.775  11.983
73450W        W32953  21.654  16.665  12.046
73451W        W32954  36.469  21.106   0.464
73452W        W32955  23.648  28.147  13.406
73453W        W32956  22.078  16.662   4.256
73454W        W32957  40.410   0.902  13.465
73455W        W32958  36.915  18.654  13.536
73456W        W32959  14.114  39.989  11.996
73457W        W32960  44.885  43.892   3.648
73458W        W32961  42.815  12.812  13.794
73459W        W32962  25.113  22.517  11.488
73460W        W32963  26.040  41.918  10.463
73461W        W32964  30.130   8.189   0.382
73462W        W32965  29.156  25.079  13.483
73463W        W32966  43.425  24.224   2.225
73464W        W32967  32.920  29.113  13.993
73465W        W32968  34.591  29.532  14.956
73466W        W32969  39.428  20.674   2.900
73467W        W32970   6.848  40.928   1.928
73468W        W32971  21.220  25.650  14.398
73469W        W32972   6.322  20.190  14.322
73470W        W32973  21.645  19.208  12.557
73471W        W32974  20.161   5.779  13.063
73472W        W32975   0.970  25.598  13.802
73473W        W32976  23.652  44.392   1.886
73474W        W32977   9.725  25.493  13.820
73475W        W32978  21.090  41.480  12.404
73476W        W32979  40.358  38.068  14.765
73477W        W32980  11.198   7.410  11.051
73478W        W32981  32.900  37.078   1.277
73479W        W32982  40.866  10.321  14.784
73480W        W32983  12.658  12.802   2.841
73481W        W32984  15.096  30.566   4.673
73482W        W32985  29.429   8.688  12.549
73483W        W32986  39.854   1.811   4.636
73484W        W32987  19.232   8.183  11.069
73485W        W32988   3.404  23.534   3.348
73486W        W32989  24.068   0.752  10.901
73487W        W32990   3.759  20.726  10.621
73488W        W32991  12.164   4.895   4.640
73489W        W32992   7.771  44.869  11.544
73490W        W32993  14.663   4.943  12.467
73491W        W32994  21.523  26.054   3.708
73492W        W32995  19.086  23.608  13.480
73493W        W32996   3.824  12.284   3.761
73494W        W32997  35.100  41.983  13.452
73495W        W32998  21.189  17.714  12.005
73496W        W32999  16.204  21.616   3.657
73497W        W33000   7.208  39.866   2.728
73498W        W33001  21.559  44.418  10.583
73499W        W33002  38.500  25.531   0.834
73500W        W33003   2.339  41.442   4.125
73501W        W33004  24.527   6.793   0.314
73502W        W33005  27.656   2.405   1.868
73503W        W33006  43.295   3.278  11.883
73504W        W33007  26.603   9.837  12.936
73505W        W33008  37.034   8.733  11.377
73506W        W33009  36.446  31.559  10.503
73507W        W33010  34.042  29.507  11.007
73508W        W33011  44.288  25.092   4.333
73509W        W33012  27.954  20.261   1.834
73510W        W33013  25.670  23.020  12.975
73511W        W33014  32.917  32.956  13.494
73512W        W33015  13.257  21.160  14.811
73513W        W33016  40.981  28.942  11.892
73514W        W33017  17.723  37.535  11.596
73515W        W33018  42.314  35.903  13.962
73516W        W33019   4.244   6.911   3.859
73517W        W33020   6.262  31.446   1.821
73518W        W33021  14.804  25.712   2.827
73519W        W33022   0.782   0.915  13.859
73520W        W33023  17.132  11.149   0.427
73521W        W33024  23.234   5.762  12.383
73522W        W33025  36.417   9.374   2.206
73523W        W33026  19.705  11.678   2.334
73524W        W33027   7.411  34.535  13.398
73525W        W33028  41.387  32.896   3.195
73526W        W33029  34.405   6.741  12.945
73527W        W33030   9.178  40.357  14.942
73528W        W33031  19.677  22.620  12.522
73529W        W33032  14.610   6.393   1.844
73530W        W33033  28.165   2.936  14.371
73531W        W33034  41.341  18.185  10.445
73532W        W33035  10.231   2.805  13.372
73533W        W33036  21.688  36.030  14.380
73534W        W33037   0.914  10.845   4.301
73535W        W33038  38.904  34.045   1.444
73536W        W33039  11.812  43.466   0.383
73537W        W33040   3.364  25.523  11.430
73538W        W33041  39.480  25.026   0.459
73539W        W33042  31.568  29.542   5.081
73540W        W33043  34.496  26.141   2.309
73541W        W33044  35.103  29.525   4.777
73542W        W33045  32.480  10.754  14.406
73543W        W33046  39.890   3.916   4.607
73544W        W33047  22.173   2.937  10.587
73545W        W33048  25.148  25.122  13.327
73546W        W33049  15.613   8.266   2.343
73547W        W33050  40.816  11.704  10.460
73548W        W33051  13.680  39.977   0.850
73549W        W33052   6.703  28.507   0.802
73550W        W33053  36.366  44.335  13.954
73551W        W33054  44.799  23.020   0.289
73552W        W33055  29.167  24.548  14.886
73553W        W33056  16.297  32.909   2.775
73554W        W33057  12.683  10.682   3.832
73555W        W33058  17.235  23.093  13.461
73556W        W33059   4.850  39.817  11.491
73557W        W33060   1.934  10.805   1.697
73558W        W33061  40.441  23.533  13.909
73559W        W33062  23.692  41.373   2.294
73560W        W33063   7.261  40.911  11.434
73561W        W33064  30.606  23.186  14.408
73562W        W33065  18.161   6.680  14.514
73563W        W33066  32.555  26.017   1.788
73564W        W33067  21.621  21.020  13.510
73565W        W33068  16.150   8.331   3.258
73566W        W33069  20.601   4.943   2.392
73567W        W33070  20.217  39.435  12.977
73568W        W33071  24.609  41.434  10.630
73569W        W33072  26.538   4.362   1.921
73570W        W33073  16.198   6.689   4.778
73571W        W33074  22.675  12.346   3.754
73572W        W33075  31.017  21.688   4.751
73573W        W33076  12.845  18.566   3.842
73574W        W33077   7.393  24.053  13.873
73575W        W33078  19.606  34.935   1.895
73576W        W33079  12.176  25.546  11.052
73577W        W33080  15.283   3.399  12.355
73578W        W33081  10.758  32.570   2.331
73579W        W33082  17.781  11.283   4.122
73580W        W33083  34.914  35.462  13.957
73581W        W33084  14.672  37.899  13.039
73582W        W33085  30.557  23.620   5.316
73583W        W33086  33.965  34.614  11.395
73584W        W33087  10.763  36.533   3.657
73585W        W33088  26.977  37.037  12.455
73586W        W33089  44.260  32.004   1.896
73587W        W33090  19.713   5.285   3.246
73588W        W33091  24.217   8.896   2.335
73589W        W33092  37.906  38.044   2.775
73590W        W33093  35.498   8.388  12.439
73591W        W33094  43.289   6.283   4.792
73592W        W33095   3.428  14.202   2.273
73593W        W33096   1.870  42.935   0.872
73594W        W33097  26.495  32.630  13.062
73595W        W33098  16.697  19.607  11.858
73596W        W33099  38.469  42.847   0.944
73597W        W33100  40.504   2.299  14.762
73598W        W33101  35.532  22.201   3.862
73599W        W33102  43.894  16.160   0.763
73600W        W33103   1.326  20.234  12.527
73601W        W33104  14.263  34.489  11.517
73602W        W33105  15.101  17.257  11.387
73603W        W33106  37.546   3.718  13.967
73604W        W33107  30.117   7.677  11.991
73605W        W33108  41.027  41.329   4.673
73606W        W33109  13.136  36.025  14.934
73607W        W33110  42.999   4.817   0.315
73608W        W33111  38.936  17.292  13.369
73609W        W33112   6.691  35.536  12.879
73610W        W33113  41.414  15.195  14.964
73611W        W33114  26.127  39.826   1.829
73612W        W33115  11.254  16.145   0.453
73613W        W33116   5.396  19.110   4.815
73614W        W33117  17.283  41.423   4.305
73615W        W33118  43.853  17.198  12.854
73616W        W33119  23.996  18.295   2.409
73617W        W33120  25.059  44.962  13.820
73618W        W33121  35.468  16.207   1.379
73619W        W33122  23.716  38.514  13.851
73620W        W33123   7.336   2.270  12.907
73621W        W33124  30.530  41.430   1.869
73622W        W33125   8.845  34.911   0.753
73623W        W33126  26.586   8.713   2.182
73624W        W33127   6.232   7.258   2.810
73625W        W33128  26.679   9.281   4.143
73626W        W33129  13.201  35.377   4.305
73627W        W33130  35.590  44.966   0.755
73628W        W33131  28.003  11.689  14.811
73629W        W33132  44.972  29.113  10.504
73630W        W33133  17.578  43.423  11.893
73631W        W33134   9.768  31.051  11.461
73632W        W33135  35.870  36.360   3.854
73633W        W33136   3.817  30.084  13.882
73634W        W33137  11.269   4.387  12.874
73635W        W33138  33.482  37.378   0.962
73636W        W33139  42.281  41.497   1.272
73637W        W33140   9.158  10.757  12.578
73638W        W33141  28.046  26.137   0.771
73639W        W33142   3.722  24.019   3.823
73640W        W33143  14.701  33.578   1.282
73641W        W33144  40.957  43.956   4.284
73642W        W33145  13.752  19.065   2.729
73643W        W33146  39.555  36.510   4.729
73644W        W33147  36.056  36.089   3.254
73645W        W33148  17.226  18.268  11.986
73646W        W33149  43.856   5.832  10.464
73647W        W33150  21.749  18.560   4.698
73648W        W33151  23.165   7.309   0.443
73649W        W33152  13.728  12.174  12.438
73650W        W33153   4.364  13.738   4.336
73651W        W33154  25.689  24.605   1.384
73652W        W33155  25.649   0.926  13.437
73653W        W33156   0.431  30.566  10.445
73654W        W33157   9.865   9.794  11.041
73655W        W33158  19.733  19.730   0.288
73656W        W33159  42.487   7.294   0.447
73657W        W33160  15.607  21.715   2.238
73658W        W33161  37.518   8.709  14.491
73659W        W33162  33.117   8.287  12.926
73660W        W33163  28.976  15.144   4.140
73661W        W33164  37.417  33.905   4.292
73662W        W33165   2.464  20.562   4.348
73663W        W33166   0.799  36.397   1.751
73664W        W33167  43.474   9.196  14.924
73665W        W33168  36.454  13.738   2.699
73666W        W33169  10.255  41.838  11.113
73667W        W33170   7.279   5.435   4.691
73668W        W33171  13.125  26.471  13.012
73669W        W33172  35.952  19.633   2.837
73670W        W33173  22.076  11.740   2.823
73671W        W33174  14.763   7.214   0.471
73672W        W33175   5.733  16.259   3.186
73673W        W33176   8.259  33.978   0.368
73674W        W33177   3.742  41.524  13.016
73675W        W33178   6.399  25.969  10.447
73676W        W33179  36.399  32.908   0.447
73677W        W33180  27.987   9.304  13.399
73678W        W33181  41.935  16.230  13.830
73679W        W33182   5.337  18.782  10.523
73680W        W33183  16.285   1.468   0.788
73681W        W33184   1.414  20.567  11.377
73682W        W33185   8.834  14.806   1.874
73683W        W33186  17.718  28.143  14.343
73684W        W33187  32.932  40.492  13.371
73685W        W33188  44.975  24.637  14.972
73686W        W33189   5.751  34.075  14.276
73687W        W33190  21.662  38.019   1.349
73688W        W33191  20.566  42.895  13.946
73689W        W33192  33.880  43.361  14.916
73690W        W33193  40.807  14.717  11.576
73691W        W33194  29.973  34.977   0.329
73692W        W33195   1.945   1.248  10.558
73693W        W33196  16.779   7.863   2.240
73694W        W33197  20.665  25.967   1.756
73695W        W33198  40.374  34.894   2.803
73696W        W33199  24.654  10.703  14.503
73697W        W33200   5.827  28.181  12.461
73698W        W33201  38.471  17.265   1.882
73699W        W33202  10.139  35.408   0.769
73700W        W33203  11.660  24.998   1.750
73701W        W33204  38.838  31.404  12.490
73702W        W33205   5.354  22.541   0.778
73703W        W33206  21.235  36.394   0.872
73704W        W33207   8.657  37.064  13.852
73705W        W33208  24.673  42.373  11.990
73706W        W33209  43.488  16.152   3.207
73707W        W33210  34.912  38.037   4.627
73708W        W33211  40.838  41.919  13.326
73709W        W33212  11.859   4.433  11.965
73710W        W33213  26.074   3.444   0.427
73711W        W33214  13.212  43.357  11.982
73712W        W33215  31.574  43.446   0.310
73713W        W33216  36.486  27.953   1.282
73714W        W33217   5.895  13.796   2.266
73715W        W33218  10.748   0.381   3.670
73716W        W33219  43.946  27.674   1.291
73717W        W33220  12.744  19.593  12.390
73718W        W33221   5.207   6.709  11.580
73719W        W33222  40.947  32.088   1.882
73720W        W33223   4.400  29.020  13.819
73721W        W33224  33.032  25.569   2.722
73722W        W33225  16.210  10.350  14.399
73723W        W33226  41.974  38.048  10.478
73724W        W33227  31.409  24.105  13.952
73725W        W33228  40.403  38.075  12.493
73726W        W33229  38.947  19.778  10.476
73727W        W33230  19.152  10.702   0.750
73728W        W33231  28.014  39.955  14.761
73729W        W33232  22.058  17.559  12.877
73730W        W33233  41.982  11.809   4.123
73731W        W33234   0.460  35.030   0.299
73732W        W33235  22.557  10.357  12.000
73733W        W33236  37.997  29.497  13.504
73734W        W33237   9.238   3.417  14.429
73735W        W33238  31.478  17.196  10.518
73736W        W33239   1.319  18.701   2.835
73737W        W33240   1.406  20.651  10.103
73738W        W33241  28.076  40.797  10.963
73739W        W33242   9.388  10.279  11.026
73740W        W33243   4.234   1.780  13.959
73741W        W33244   3.255  27.587  13.318
73742W        W33245  34.964  11.158  11.105
73743W        W33246  14.615  43.900  11.929
73744W        W33247  27.564  40.347  14.479
73745W        W33248  23.133  41.452  14.472
73746W        W33249  36.922  18.087   2.294
73747W        W33250  14.300  42.281  12.997
73748W        W33251  10.370  29.001  11.483
73749W        W33252  23.077   8.871  14.935
73750W        W33253  37.560   5.834  14.891
73751W        W33254   2.433  38.451  12.075
73752W        W33255   6.395  36.067   2.706
73753W        W33256   8.311  12.623  11.103
73754W        W33257   8.285   5.844   3.293
73755W        W33258  18.679  33.110  13.939
73756W        W33259  38.958   1.478   0.362
73757W        W33260  40.960  30.447  13.023
73758W        W33261  23.640  44.998  10.091
73759W        W33262  43.317  15.599   0.265
73760W        W33263   6.388  42.012   4.296
73761W        W33264  37.486  11.159   2.755
73762W        W33265  38.464  44.820  11.107
73763W        W33266  32.557  26.029  11.113
73764W        W33267  28.536  21.122   4.717
73765W        W33268  24.076   7.411   5.214
73766W        W33269  27.142   0.283   4.173
73767W        W33270  34.062  34.866  14.364
73768W        W33271  30.416  41.027   2.850
73769W        W33272  13.728   5.285   0.769
73770W        W33273  13.165   5.891  14.982
73771W        W33274   9.876  23.059   2.225
73772W        W33275  37.423  14.317   0.353
73773W        W33276  12.830   8.671   1.810
73774W        W33277  19.689  23.032   0.416
73775W        W33278  41.324   6.421  12.824
73776W        W33279  14.657  28.158   4.767
73777W        W33280  24.571  15.191  14.275
73778W        W33281  38.491  19.723  13.539
73779W        W33282  42.943  14.134   9.999
73780W        W33283  30.973   8.278  12.424
73781W        W33284  14.316  23.639   0.950
73782W        W33285  42.951   9.214  12.565
73783W        W33286  33.067  12.670  11.929
73784W        W33287  17.614  43.982  11.039
73785W        W33288  22.097  28.538   1.898
73786W        W33289  18.091   3.307   3.284
73787W        W33290  40.995  26.058   2.712
73788W        W33291  22.169   5.279   3.367
73789W        W33292   5.311  17.133   3.853
73790W        W33293   3.865  44.856  13.842
73791W        W33294  38.565  18.593  12.980
73792W        W33295  38.958  41.417  14.330
73793W        W33296   5.773  24.149   3.669
73794W        W33297   6.918  34.866   1.739
73795W        W33298  30.488  18.103  10.419
73796W        W33299   1.476   0.865   1.701
73797W        W33300  43.371  17.765  12.367
73798W        W33301   1.440  34.981   1.350
73799W        W33302  12.234  44.837  13.956
73800W        W33303  28.979  29.480  14.846
73801W        W33304  26.082  21.236   2.706
73802W        W33305  32.033   1.332   3.147
73803W        W33306  12.821   4.301  13.881
73804W        W33307  28.511  24.992  13.954
73805W        W33308  18.122  31.131   0.263
73806W        W33309   7.262   4.346  11.499
73807W        W33310  39.998  24.215   0.737
73808W        W33311  25.134  44.478   1.880
73809W        W33312  42.334  16.638   3.678
73810W        W33313  37.886  34.878   4.252
73811W        W33314  30.146  12.807   1.806
73812W        W33315  23.129  13.781   1.771
73813W        W33316  14.660  27.056   1.868
73814W        W33317  31.150   1.974  10.084
73815W        W33318  32.994   3.272  10.945
73816W        W33319  13.773  15.282   4.258
73817W        W33320  19.763  27.177   2.262
73818W        W33321  38.460  22.566   2.213
73819W        W33322  19.540   4.879   4.815
73820W        W33323  13.795  21.162  10.050
73821W        W33324  31.482  30.949   1.916
73822W        W33325  26.125  20.097  11.401
73823W        W33326  12.297  37.463  10.146
73824W        W33327  32.512  26.998  13.915
73825W        W33328  23.550  43.913  13.988
73826W        W33329  17.145  35.433   4.635
73827W        W33330  43.293  39.518   1.319
73828W        W33331  44.792  42.975   2.309
73829W        W33332  31.528  15.083  11.567
73830W        W33333   4.779   5.905   1.252
73831W        W33334  39.412  33.911   4.254
73832W        W33335  25.674  29.496  14.284
73833W        W33336  28.465  25.170  13.311
73834W        W33337  21.585  26.133  11.379
73835W        W33338  25.988  16.242  13.969
73836W        W33339   8.731  26.474  10.567
73837W        W33340  19.198   8.284   0.399
73838W        W33341  20.166   6.811  12.054
73839W        W33342   2.834  40.359  10.944
73840W        W33343  10.272  25.116  14.833
73841W        W33344   8.365   5.868  12.891
73842W        W33345  13.162   7.355  10.069
73843W        W33346   9.278  29.512   0.464
73844W        W33347  37.346   1.787   4.599
73845W        W33348  26.982  44.950  13.806
73846W        W33349  36.897   4.859   2.795
73847W        W33350  38.397  13.698  12.020
73848W        W33351  42.972  20.086  12.959
73849W        W33352   7.315   2.773   3.291
73850W        W33353  11.737  31.464  14.846
73851W        W33354  35.087  13.140   0.894
73852W        W33355  29.563  10.307  10.104
73853W        W33356  26.599   9.805  14.460
73854W        W33357  24.611  39.051  12.942
73855W        W33358   0.861  18.182   4.611
73856W        W33359  21.564  18.746  12.450
73857W        W33360   2.911  30.014   0.260
73858W        W33361  29.523  18.052   1.214
73859W        W33362  16.193  11.372   4.263
73860W        W33363  39.975  37.567  11.031
73861W        W33364  29.088  32.020   3.216
73862W        W33365  31.595  18.701   3.780
73863W        W33366  42.974  42.972  11.862
73864W        W33367  31.504  31.978  14.985
73865W        W33368  43.982  33.568   4.705
73866W        W33369   8.402  15.324   2.852
73867W        W33370  41.879   6.749   1.219
73868W        W33371  23.571  22.041   1.375
73869W        W33372   5.403  26.142   4.261
73870W        W33373  14.696   5.844  12.930
73871W        W33374  38.353  35.444  11.040
73872W        W33375  21.213   2.732   2.296
73873W        W33376  36.398  42.828  12.415
73874W        W33377  41.302   5.934  14.878
73875W        W33378  42.367   2.345  14.931
73876W        W33379   9.788  40.957  11.878
73877W        W33380  22.655  15.647   0.919
73878W        W33381  38.443  12.738  14.485
73879W        W33382  30.023  25.213  14.948
73880W        W33383  44.926  30.475  12.453
73881W        W33384   6.189  16.138  11.607
73882W        W33385  29.579  19.576   0.339
73883W        W33386   0.271  12.856   0.421
73884W        W33387  39.492  20.765  13.406
73885W        W33388  29.439  42.493   0.355
73886W        W33389  20.037   6.370  13.352
73887W        W33390  36.590   1.861  14.372
73888W        W33391  36.965  39.963  10.437
73889W        W33392  23.643  30.439   2.834
73890W        W33393  10.871  28.184  13.981
73891W        W33394  42.497  37.936   0.791
73892W        W33395  34.554  29.065   3.293
73893W        W33396  40.377   5.281  12.380
73894W        W33397  39.438   2.806   0.777
73895W        W33398  19.571  18.242   2.388
73896W        W33399  26.546  28.937   4.813
73897W        W33400  42.880  31.465  14.298
73898W        W33401  15.724  39.444  11.990
73899W        W33402  36.085  16.677  12.390
73900W        W33403  43.971  10.162   1.227
73901W        W33404  26.102  32.422  13.799
73902W        W33405   8.306   1.273   2.285
73903W        W33406   0.422  38.451   2.392
73904W        W33407  20.274  19.726  12.825
73905W        W33408   2.736  38.536  10.937
73906W        W33409  11.708  28.502  14.972
73907W        W33410  42.354   4.428  14.864
73908W        W33411  39.059  10.238  11.603
73909W        W33412  25.566  28.972   1.726
73910W        W33413  23.595   5.298  10.157
73911W        W33414  28.149  27.953   1.300
73912W        W33415  28.140  16.618  13.867
73913W        W33416  22.604  42.286  13.353
73914W        W33417   6.385   7.772   0.957
73915W        W33418   9.208  28.662  12.988
73916W        W33419  27.046  29.505   3.378
73917W        W33420  13.302  20.056  11.482
73918W        W33421  37.029  24.659   3.761
73919W        W33422  24.014  26.061  12.459
73920W        W33423  24.144  29.520   2.848
73921W        W33424   7.345  14.752  12.929
73922W        W33425  22.535  41.520   0.944
73923W        W33426  24.176  18.091   0.887
73924W        W33427   7.673   3.827   3.674
73925W        W33428  29.145  37.362   0.417
73926W        W33429  32.132  11.370   1.282
73927W        W33430  19.699  13.222  13.323
73928W        W33431   1.807  19.574   2.296
73929W        W33432  23.185  12.747  11.430
73930W        W33433   8.854  30.030  14.016
73931W        W33434   7.730   3.238  14.414
73932W        W33435  40.520  22.061   3.651
73933W        W33436  21.566  32.996  11.529
73934W        W33437  22.596  44.449  11.035
73935W        W33438  40.834  44.812  12.827
73936W        W33439  15.693  34.520   3.267
73937W        W33440  29.645  34.558  12.861
73938W        W33441   3.746   6.717  10.444
73939W        W33442   8.751   7.407   4.301
73940W        W33443   2.813  28.123  12.972
73941W        W33444   9.263   8.381  13.377
73942W        W33445  33.624  25.986  11.399
73943W        W33446   4.773  20.160   4.283
73944W        W33447  19.153  21.030  14.388
73945W        W33448  28.982  12.814   3.645
73946W        W33449   5.246  44.007  14.485
73947W        W33450  42.028  16.625  11.443
73948W        W33451  20.120  40.810  14.796
73949W        W33452  25.587  32.484   0.422
73950W        W33453  20.145   1.386  11.391
73951W        W33454  17.579  34.059  13.378
73952W        W33455  20.115  23.655  12.543
73953W        W33456  37.986   3.916  13.999
73954W        W33457  34.542   6.299  13.019
73955W        W33458   5.842  26.189  12.858
73956W        W33459  11.690  16.151   4.835
73957W        W33460  35.416  34.980   2.223
73958W        W33461   5.916  36.500  14.306
73959W        W33462   2.275  41.862  11.470
73960W        W33463  10.740  44.479   4.276
73961W        W33464  11.168  10.637  13.945
73962W        W33465  42.468  13.262  14.339
73963W        W33466  19.270  37.831  13.829
73964W        W33467  10.794   5.705  12.347
73965W        W33468  44.450  28.070   3.375
73966W        W33469  14.196  27.594   1.748
73967W        W33470   2.329  22.122   1.930
73968W        W33471  29.486   9.195   4.140
73969W        W33472  28.954   4.419  11.395
73970W        W33473  23.057  16.141   2.679
73971W        W33474  35.552  42.402  11.058
73972W        W33475  20.531  38.389  13.429
73973W        W33476  33.542  31.424  11.403
73974W        W33477  17.731   9.249   3.805
73975W        W33478  20.563  34.419  12.065
73976W        W33479  22.688   8.860  13.347
73977W        W33480  15.727  27.672  12.924
73978W        W33481  24.680  16.198   2.711
73979W        W33482   0.256   4.814   1.713
73980W        W33483  26.140  37.049  13.982
73981W        W33484  23.175  31.462   1.370
73982W        W33485  17.151  11.149   3.168
73983W        W33486  24.525  14.245   1.908
73984W        W33487   2.456  39.851   3.782
73985W        W33488  14.607   1.335  12.019
73986W        W33489  24.623  41.840   0.890
73987W        W33490  31.417  20.628  14.504
73988W        W33491  44.268   8.187  11.044
73989W        W33492  10.803   7.308   2.250
73990W        W33493  31.569  29.118  11.927
73991W        W33494  42.013  31.077  13.858
73992W        W33495  33.574  32.487  13.393
73993W        W33496  42.453   6.826  12.862
73994W        W33497  42.943  13.278  11.446
73995W        W33498  33.892  29.613   4.336
73996W        W33499   0.777  30.128   3.211
73997W        W33500  33.044  42.457   1.428
73998W        W33501  23.649   1.914   3.333
73999W        W33502  15.162  16.243   2.359
74000W        W33503  26.080  34.873  12.493
74001W        W33504  40.423  14.736  14.907
74002W        W33505  37.087  37.871  12.934
74003W        W33506   4.926   9.352  13.063
74004W        W33507  28.645  36.580   2.277
74005W        W33508  36.013  29.016  14.920
74006W        W33509  16.605  42.791  12.360
74007W        W33510   6.219  11.222  12.460
74008W        W33511   4.349   6.909  11.976
74009W        W33512   8.261  19.576   2.739
74010W        W33513  20.635  27.643  10.633
74011W        W33514  43.355  34.924  12.086
74012W        W33515   4.329   8.218   1.795
74013W        W33516  10.310  18.226   0.896
74014W        W33517  19.285  33.017   2.411
74015W        W33518  19.597  18.143  11.039
74016W        W33519  20.551  19.071  12.069
74017W        W33520  13.762  31.985  12.537
74018W        W33521   5.348  22.208   1.272
74019W        W33522  23.597  39.953  10.975
74020W        W33523  10.336  44.425  11.091
74021W        W33524  10.643  16.151  13.814
74022W        W33525  30.153  40.857   1.325
74023W        W33526  36.863  19.238  13.022
74024W        W33527  35.597  43.296  13.048
74025W        W33528  27.559   5.251   1.270
74026W        W33529  26.004  20.190  12.567
74027W        W33530  39.837  20.729  14.514
74028W        W33531  18.087  25.714   1.352
74029W        W33532  28.137   6.418  12.477
74030W        W33533   1.398  10.696  13.860
74031W        W33534  42.449  19.668   2.227
74032W        W33535  40.336  41.478   1.900
74033W        W33536  35.463  25.153  10.927
74034W        W33537  37.441  20.262  11.975
74035W        W33538  38.055  33.548  14.498
74036W        W33539  21.251   0.818  11.074
74037W        W33540  36.585  28.572   0.460
74038W        W33541  13.300  10.201  12.917
74039W        W33542  21.755  19.669  11.585
74040W        W33543   8.812  35.937  14.845
74041W        W33544  33.523  41.030   0.772
74042W        W33545  41.818  15.283  10.508
74043W        W33546  10.873   8.698  13.408
74044W        W33547  40.845  18.785  12.907
74045W        W33548  12.808  35.972  14.761
74046W        W33549   2.829  27.669   1.734
74047W        W33550  41.033   3.218   2.791
74048W        W33551  17.759  31.059   2.736
74049W        W33552  23.201  30.643   0.784
74050W        W33553  41.857  20.743   3.243
74051W        W33554  16.787  38.467   3.857
74052W        W33555  10.240   2.428   1.887
74053W        W33556   3.396   8.264  12.464
74054W        W33557  42.350  35.029  11.955
74055W        W33558  36.465  10.875   1.359
74056W        W33559   4.291  42.955   1.892
74057W        W33560  13.224  29.026  10.029
74058W        W33561  40.379  23.514   0.739
74059W        W33562  34.019   0.333  14.972
74060W        W33563  26.535  14.340   1.746
74061W        W33564  22.063  36.362   2.857
74062W        W33565  13.809  23.642   3.255
74063W        W33566  29.488  31.953   0.811
74064W        W33567   7.703  11.762  11.563
74065W        W33568  24.210  30.648   0.295
74066W        W33569  18.720  42.354   2.894
74067W        W33570   9.151  20.062  13.532
74068W        W33571  14.197  18.733  12.980
74069W        W33572  23.077  41.375  12.888
74070W        W33573   6.387  35.543   3.787
74071W        W33574  21.570   0.743  10.002
74072W        W33575  37.511  40.034   4.281
74073W        W33576  36.054  15.223   1.748
74074W        W33577  28.048  27.610   1.417
74075W        W33578  33.510  34.491   4.136
74076W        W33579  22.533  36.971  13.889
74077W        W33580  29.651  28.552  12.403
74078W        W33581  21.161  22.733  14.001
74079W        W33582  34.876  27.189   3.345
74080W        W33583  43.847  11.651  12.860
74081W        W33584  30.027   1.303   1.296
74082W        W33585  26.629  35.434   0.268
74083W        W33586   8.858  12.362  10.518
74084W        W33587  41.460  29.005  12.562
74085W        W33588  20.040  34.539   0.379
74086W        W33589  21.043   7.825   5.126
74087W        W33590  25.579  36.983   4.271
74088W        W33591  34.895  30.107   4.780
74089W        W33592  15.242  10.324   4.154
74090W        W33593  18.165  34.565   2.869
74091W        W33594  43.813  31.535   3.636
74092W        W33595  13.840  37.843   4.316
74093W        W33596  41.441  35.952   2.732
74094W        W33597  31.462  33.469  13.056
74095W        W33598  43.994  10.844  12.408
74096W        W33599   6.887  27.453  13.887
74097W        W33600  39.053  27.540  12.023
74098W        W33601  43.842   3.344   2.897
74099W        W33602  39.537   8.796  10.422
74100W        W33603   1.875  44.762  12.966
74101W        W33604  34.885  41.843   3.834
74102W        W33605  34.079  14.628   0.245
74103W        W33606   4.399  28.970   2.220
74104W        W33607  42.906  19.546  14.508
74105W        W33608  25.524   9.154  10.466
74106W        W33609  11.371  33.973  14.403
74107W        W33610  35.429  41.317  13.538
74108W        W33611   7.364  27.090   0.742
74109W        W33612  39.512  41.793  10.461
74110W        W33613  10.785  14.322   1.719
74111W        W33614  42.813   2.780   4.700
74112W        W33615  17.216  13.104   2.701
74113W        W33616  44.428  12.667  12.036
74114W        W33617  17.125  40.536  14.309
74115W        W33618  36.029   0.361   4.815
74116W        W33619   3.764  42.024   4.753
74117W        W33620  37.416  12.258  12.081
74118W        W33621  22.521  39.990   0.758
74119W        W33622  17.271  12.707  11.523
74120W        W33623   9.281  30.476  13.964
74121W        W33624  27.482   9.778  11.118
74122W        W33625   2.753  42.946  12.485
74123W        W33626  12.677  39.858   3.690
74124W        W33627  12.846  10.263   1.216
74125W        W33628  24.618   8.854   0.464
74126W        W33629  37.890   3.347   1.216
74127W        W33630  39.028  40.805  12.989
74128W        W33631  25.014   7.405  12.552
74129W        W33632  10.318  17.757   0.319
74130W        W33633  42.997  19.687   1.297
74131W        W33634  34.545   8.682   0.267
74132W        W33635  12.140   1.238   4.279
74133W        W33636   5.407  43.782  13.524
74134W        W33637  28.514  35.519   1.874
74135W        W33638  22.684  12.783  14.432
74136W        W33639   7.718   5.892  11.532
74137W        W33640  29.491   3.341  10.542
74138W        W33641  18.208  32.531   1.787
74139W        W33642  13.140  27.996  10.898
74140W        W33643  17.618  26.995   1.222
74141W        W33644  26.965   4.795  14.869
74142W        W33645  35.581  20.530   4.661
74143W        W33646  41.489  33.527   0.899
74144W        W33647  29.034   7.191   0.808
74145W        W33648  26.147  28.470  13.847
74146W        W33649   0.902  24.057   4.775
74147W        W33650  28.136  41.893  10.964
74148W        W33651   7.364  33.544  14.954
74149W        W33652  19.113  24.083   4.237
74150W        W33653  11.741   5.361   3.257
74151W        W33654  41.860   5.272  14.434
74152W        W33655  35.459   3.314  10.981
74153W        W33656  15.100  27.116  10.522
74154W        W33657  32.072  26.675  12.042
74155W        W33658  31.520  20.556   0.381
74156W        W33659   2.954  42.029  11.114
74157W        W33660  19.204  41.443   2.670
74158W        W33661  41.910  26.525   5.135
74159W        W33662  27.161  40.486   2.398
74160W        W33663  21.733  37.032   3.254
74161W        W33664   3.782  16.654  13.892
74162W        W33665  25.113  25.618  14.512
74163W        W33666  17.168  44.335  14.338
74164W        W33667  41.311  32.617  12.874
74165W        W33668  33.039  16.161  13.849
74166W        W33669   4.765  16.772  12.388
74167W        W33670  11.788  22.715   1.729
74168W        W33671  19.594   2.471   0.854
74169W        W33672  11.758  37.915   0.918
74170W        W33673  39.048  10.850   4.663
74171W        W33674   6.707  23.564   0.302
74172W        W33675   3.315  23.170  11.402
74173W        W33676  26.637  36.410   2.319
74174W        W33677  28.123  10.185  12.425
74175W        W33678  43.808  41.450  14.967
74176W        W33679  17.150  42.483   0.404
74177W        W33680  14.122  38.328  12.049
74178W        W33681   8.834  32.461   1.735
74179W        W33682  20.669   8.714   1.711
74180W        W33683  15.132  16.099  12.048
74181W        W33684  38.469  36.389   2.664
74182W        W33685  41.022  22.601  12.347
74183W        W33686  42.297  43.885   0.902
74184W        W33687  18.274  42.315   4.821
74185W        W33688  23.037  20.681   4.165
74186W        W33689  10.359  21.125   2.686
74187W        W33690   5.245  38.390  14.300
74188W        W33691   6.213  10.216  13.411
74189W        W33692  43.287  39.049  12.471
74190W        W33693  12.226  41.387   1.389
74191W        W33694  33.936  27.045  11.070
74192W        W33695   2.909  38.358   1.215
74193W        W33696  13.215  22.596   4.606
74194W        W33697  11.852  36.551  14.345
74195W        W33698  21.620  18.675   4.304
74196W        W33699  41.397  34.380  13.536
74197W        W33700  35.958  12.340  13.468
74198W        W33701  24.582  33.587   0.813
74199W        W33702  15.228  37.993   0.247
74200W        W33703  18.747  23.169   3.704
74201W        W33704  37.519  26.577  14.430
74202W        W33705  17.657  36.935  11.053
74203W        W33706  10.189  35.462  13.030
74204W        W33707  23.134   3.232  14.934
74205W        W33708  37.866  34.070   4.797
74206W        W33709  21.250  15.090   3.684
74207W        W33710  10.637  13.630  11.532
74208W        W33711  41.307   5.388   5.665
74209W        W33712  28.592  22.641   4.654
74210W        W33713   4.906  42.830   9.446
74211W        W33714  26.189  30.095  12.981
74212W        W33715   5.754  27.619   4.784
74213W        W33716  10.199  21.563  11.562
74214W        W33717  37.524  42.470  14.500
74215W        W33718  37.027  33.101   3.723
74216W        W33719  23.731   0.835  13.875
74217W        W33720  21.554   4.441   3.683
74218W        W33721   3.349  42.919  13.441
74219W        W33722  21.664  19.728  13.338
74220W        W33723  29.970  15.103  11.111
74221W        W33724  22.178  18.779   2.731
74222W        W33725  12.774  17.576  12.091
74223W        W33726  37.544  10.179   5.111
74224W        W33727   6.262  24.069  11.587
74225W        W33728  44.260   3.816   3.205
74226W        W33729  35.582   6.332  12.058
74227W        W33730   3.330  39.822  13.952
74228W        W33731  42.409  40.000   3.287
74229W        W33732  15.713   3.389   1.859
74230W        W33733  25.622  11.813   9.946
74231W        W33734  22.026  44.994  13.935
74232W        W33735  24.616  15.271   0.750
74233W        W33736  29.655  19.125  13.884
74234W        W33737  34.011  29.470  13.011
74235W        W33738  36.093  14.669  12.894
74236W        W33739   6.383  40.928  14.280
74237W        W33740  18.272  21.688  10.464
74238W        W33741  33.415  34.992   3.209
74239W        W33742  39.997   8.394   3.279
74240W        W33743   3.758  18.101  12.891
74241W        W33744  35.009  32.504  12.496
74242W        W33745  41.979  44.986  13.810
74243W        W33746   4.826  20.152  10.431
74244W        W33747  29.669  20.760   3.629
74245W        W33748  37.076  21.609  13.917
74246W        W33749   8.748  29.114  11.495
74247W        W33750  15.323  33.441  10.506
74248W        W33751   5.797  14.690   1.761
74249W        W33752  41.823   4.755  12.000
74250W        W33753  30.102  28.943  11.076
74251W        W33754   7.350  35.579  14.965
74252W        W33755  36.360  13.246   0.917
74253W        W33756   1.286  11.322   0.352
74254W        W33757  20.173  28.091  10.425
74255W        W33758  34.884  39.873   2.891
74256W        W33759  19.566   9.783   0.248
74257W        W33760  20.219  11.270  14.770
74258W        W33761  21.185  41.832  11.451
74259W        W33762  31.023  41.305   0.314
74260W        W33763  43.464  38.950   0.336
74261W        W33764  34.047  43.313  14.479
74262W        W33765   0.760   9.203   0.954
74263W        W33766  27.064  41.446  13.472
74264W        W33767  42.441  27.629  11.440
74265W        W33768  18.683  25.549  11.004
74266W        W33769   4.914   7.322  13.517
74267W        W33770  26.517   7.339   4.650
74268W        W33771  39.990   8.219   4.781
74269W        W33772  23.718  42.893   0.334
74270W        W33773   7.190  14.780  14.335
74271W        W33774  33.065  11.253   2.333
74272W        W33775  34.008  26.081   1.810
74273W        W33776  38.554  15.116  11.099
74274W        W33777  22.601  43.312   0.752
74275W        W33778   2.733   0.390  13.475
74276W        W33779  41.950  12.159   4.726
74277W        W33780  33.550  25.206   9.990
74278W        W33781  11.159   8.677  13.816
74279W        W33782  30.648  29.031   0.251
74280W        W33783   1.793  12.721   4.822
74281W        W33784   8.884  33.079  13.379
74282W        W33785  26.534  10.272  14.770
74283W        W33786   7.842  16.203  13.877
74284W        W33787  30.993  42.943  12.881
74285W        W33788  16.247   4.867   1.791
74286W        W33789   1.934  26.504   1.752
74287W        W33790   2.468   6.731  10.586
74288W        W33791  38.394   2.921  13.315
74289W        W33792  28.540  24.228  12.937
74290W        W33793  20.119   1.932  13.405
74291W        W33794  21.041  14.763   3.271
74292W        W33795  33.099  30.644   2.750
74293W        W33796   4.392   0.883   4.328
74294W        W33797  35.577   0.800  13.346
74295W        W33798   8.307   9.198  13.547
74296W        W33799  33.587  32.904   1.443
74297W        W33800  21.712  14.192  11.050
74298W        W33801  12.274  10.745  11.031
74299W        W33802   5.813  24.077  11.076
74300W        W33803  40.359  15.641   0.268
74301W        W33804  41.349  40.906  10.559
74302W        W33805  10.282  34.051  12.447
74303W        W33806  28.454  40.954   3.223
74304W        W33807   9.231  24.650  14.445
74305W        W33808  23.654  11.295   4.751
74306W        W33809  43.297  17.196   3.263
74307W        W33810  42.444  36.906   1.718
74308W        W33811  21.184  32.917  12.937
74309W        W33812  33.556  25.039   3.273
74310W        W33813   3.281  38.566   4.677
74311W        W33814  34.429  37.909   0.308
74312W        W33815  35.926  16.810   4.115
74313W        W33816  20.703  32.036  13.548
74314W        W33817  44.412  10.677  10.068
74315W        W33818  14.168   8.798  14.952
74316W        W33819  27.520  44.463   1.335
74317W        W33820  44.287  42.480   1.896
74318W        W33821  14.177  40.309   1.428
74319W        W33822  44.799   5.226  14.401
74320W        W33823  18.237  18.240  12.989
74321W        W33824  25.496   4.934   3.692
74322W        W33825  24.172  44.445   1.855
74323W        W33826  41.440  23.703  14.988
74324W        W33827  29.016  20.179   3.219
74325W        W33828   9.322   6.258  10.642
74326W        W33829  24.117  25.169  11.046
74327W        W33830   2.438  32.906  13.453
74328W        W33831  39.831   6.346  13.031
74329W        W33832  38.046  16.129   1.432
74330W        W33833  44.937  38.327   2.227
74331W        W33834  39.559  22.094   2.713
74332W        W33835  31.089  30.439  14.758
74333W        W33836  33.956   0.457  14.302
74334W        W33837   2.737  27.564   2.772
74335W        W33838  36.433  25.678   2.231
74336W        W33839  34.537  31.536   3.670
74337W        W33840  14.757  35.970   3.769
74338W        W33841  21.567  15.751  13.492
74339W        W33842  42.793  35.979   0.889
74340W        W33843   5.321  12.716  14.987
74341W        W33844  38.371  27.137  10.893
74342W        W33845  34.057  31.506  13.059
74343W        W33846   6.259  21.524  14.933
74344W        W33847  40.889   5.713  13.868
74345W        W33848  16.236  37.831   4.739
74346W        W33849  21.110  24.659  14.980
74347W        W33850  38.440  34.978  12.018
74348W        W33851  30.910  17.783   5.803
74349W        W33852  27.520  34.518  11.026
74350W        W33853  29.000   5.388  11.084
74351W        W33854  31.903  31.428  13.311
74352W        W33855  18.205   6.279   4.718
74353W        W33856  17.650  33.914  14.315
74354W        W33857   9.302  24.988  11.490
74355W        W33858  31.470  19.143  14.935
74356W        W33859  35.967  22.728   2.820
74357W        W33860  13.691  22.013   4.208
74358W        W33861  29.069  23.491  10.955
74359W        W33862   6.406  36.856   0.371
74360W        W33863   9.835  29.991  10.521
74361W        W33864  17.710  11.786  14.766
74362W        W33865  12.660   6.693   4.663
74363W        W33866   9.880  32.041  13.915
74364W        W33867  32.893  17.792   4.307
74365W        W33868  36.996  31.960   1.267
74366W        W33869  24.040  40.015   3.238
74367W        W33870  40.807  25.193   0.296
74368W        W33871  28.590  39.362   0.345
74369W        W33872  21.522  24.561  13.901
74370W        W33873   6.216  44.282  12.839
74371W        W33874  39.062  16.114  11.871
74372W        W33875   4.309   1.291   2.210
74373W        W33876  27.481  26.013  12.477
74374W        W33877  43.446  33.077  13.030
74375W        W33878  44.450  27.468   0.354
74376W        W33879  15.794  43.954   0.453
74377W        W33880   1.884   8.889  14.458
74378W        W33881   5.374   8.303  13.941
74379W        W33882  30.083  36.431   9.471
74380W        W33883  43.918  44.485   1.245
74381W        W33884  31.474   4.226   1.300
74382W        W33885  22.060  27.057  12.426
74383W        W33886  33.594  10.825  10.571
74384W        W33887  13.174   6.791  13.015
74385W        W33888  38.025  40.951   4.317
74386W        W33889  38.457  22.554   0.737
74387W        W33890  29.588  42.886   1.746
74388W        W33891   4.445  11.860  13.918
74389W        W33892  40.837  38.882   4.746
74390W        W33893  29.933  26.679  14.816
74391W        W33894   9.178  40.383  14.490
74392W        W33895  26.669  24.125  12.074
74393W        W33896  44.871   1.378  13.456
74394W        W33897  37.507  39.876   4.751
74395W        W33898  29.951  11.135   0.294
74396W        W33899  40.471  32.589   2.662
74397W        W33900  28.607  27.123   1.815
74398W        W33901  43.772  11.361  11.488
74399W        W33902  22.251  13.284   0.822
74400W        W33903  32.116  24.688   4.645
74401W        W33904  20.550  32.569  13.049
74402W        W33905  15.215   1.337   1.435
74403W        W33906  14.731  35.973   4.658
74404W        W33907  28.656  22.226  12.462
74405W        W33908  24.624  34.556   2.760
74406W        W33909  33.130   1.334   4.232
74407W        W33910  42.972  32.633   3.307
74408W        W33911  42.471  33.042   3.364
74409W        W33912   2.880   3.722   2.378
74410W        W33913  14.784   1.349   1.846
74411W        W33914  28.062  11.212  12.972
74412W        W33915  43.500  25.095   1.413
74413W        W33916  36.386  40.919  12.396
74414W        W33917  19.549  39.821   0.875
74415W        W33918  28.171  10.212   5.098
74416W        W33919  43.363   4.280   3.215
74417W        W33920  37.910  35.516   3.261
74418W        W33921  16.707  20.638  13.847
74419W        W33922  18.077  20.739  13.428
74420W        W33923   1.949  36.989   3.740
74421W        W33924  29.544  40.507   3.379
74422W        W33925  12.832   0.833   2.771
74423W        W33926   1.833  22.583  11.097
74424W        W33927   8.298  28.582   2.802
74425W        W33928  42.330   6.721  10.058
74426W        W33929   4.699  35.903  13.963
74427W        W33930  40.427  15.272   2.866
74428W        W33931  40.466  39.499  14.982
74429W        W33932   8.347  40.435   4.300
74430W        W33933  28.175  21.756  12.402
74431W        W33934  22.203   7.899   2.240
74432W        W33935  38.406  34.077  13.056
74433W        W33936  41.517  39.016  14.011
74434W        W33937  20.673  38.975  10.419
74435W        W33938  44.844  21.572   2.808
74436W        W33939   1.930  19.184  13.433
74437W        W33940  35.958  23.581   1.213
74438W        W33941  36.016  28.633   3.718
74439W        W33942  39.374  33.564  10.077
74440W        W33943   9.213  25.075  13.867
74441W        W33944  10.174  24.545  12.390
74442W        W33945   2.264  30.635   1.860
74443W        W33946   0.281  10.200  10.505
74444W        W33947  28.093   7.674  13.947
74445W        W33948   3.308  40.488  10.432
74446W        W33949  18.090  21.194  13.980
74447W        W33950  44.001  28.463  13.347
74448W        W33951   3.757  22.586   3.348
74449W        W33952  38.883  38.520   3.825
74450W        W33953  40.451  14.629   3.147
74451W        W33954  14.207  37.973  12.073
74452W        W33955  29.593   4.741  14.307
74453W        W33956  23.998   0.326  10.887
74454W        W33957  16.240  10.824  12.379
74455W        W33958   0.380  32.539  10.957
74456W        W33959  34.017   6.233   0.855
74457W        W33960   9.265  29.584  11.416
74458W        W33961  32.119  39.939   2.349
74459W        W33962  24.697  35.088   3.278
74460W        W33963  10.179  20.663  10.951
74461W        W33964  16.711   4.711   0.293
74462W        W33965  26.560  12.312  10.556
74463W        W33966  21.113  21.139   0.939
74464W        W33967  24.119  10.638  12.957
74465W        W33968  41.385   3.391  13.944
74466W        W33969  15.147  39.391   0.778
74467W        W33970   0.415  16.165  11.866
74468W        W33971  39.450  28.009   1.336
74469W        W33972  15.203  32.132   2.837
74470W        W33973  10.233  35.893   2.303
74471W        W33974  12.855  23.523  11.375
74472W        W33975  17.597  19.205   1.272
74473W        W33976  39.322  37.567  11.449
74474W        W33977  10.149  26.465   3.204
74475W        W33978   7.252  17.268   1.700
74476W        W33979  42.877  15.679  10.999
74477W        W33980   4.390  15.137  10.624
74478W        W33981  42.994  22.049   0.451
74479W        W33982  31.060  24.524  14.808
74480W        W33983  41.012  21.148   0.847
74481W        W33984   2.801  19.187   2.377
74482W        W33985   5.697   9.734  12.572
74483W        W33986  38.009   4.346  11.979
74484W        W33987   1.266  10.654  10.929
74485W        W33988  34.493  23.055  14.933
74486W        W33989  44.323  40.827  14.444
74487W        W33990   8.758  27.503  11.399
74488W        W33991  44.984   2.260   4.670
74489W        W33992  31.150   3.734  12.930
74490W        W33993  34.997  40.050  13.984
74491W        W33994   1.362  16.790  10.905
74492W        W33995  18.279  42.330   0.915
74493W        W33996  13.832  21.721   4.630
74494W        W33997  35.563  28.976  13.487
74495W        W33998   0.481  36.574   0.333
74496W        W33999   6.793  13.240  13.413
74497W        W34000  17.150  39.967   4.639
74498W        W34001  30.097  11.796  13.049
74499W        W34002  24.724  44.796  10.061
74500W        W34003  14.238  16.263   1.448
74501W        W34004  34.508   8.275  10.944
74502W        W34005  38.383  30.963  11.873
74503W        W34006  11.273   4.803   1.864
74504W        W34007  38.393  33.381  11.114
74505W        W34008   3.912   8.887   4.140
74506W        W34009  18.291  14.166   0.873
74507W        W34010  19.591  16.738  13.393
74508W        W34011  15.605  42.809   3.157
74509W        W34012  23.568  40.422  12.905
74510W        W34013  22.514  36.053  14.905
74511W        W34014   7.887  40.497   0.364
74512W        W34015   6.907  24.125  13.886
74513W        W34016  32.439  36.426   0.820
74514W        W34017  22.521   4.305  12.573
74515W        W34018  32.551  42.502  12.045
74516W        W34019  23.043  35.377   0.821
74517W        W34020  25.580  38.527   0.336
74518W        W34021  17.575  16.583   2.791
74519W        W34022  29.060  37.540  12.972
74520W        W34023   8.210  13.287   0.934
74521W        W34024  13.833  12.775   2.780
74522W        W34025  42.844  30.442  14.493
74523W        W34026  44.304  17.133  14.799
74524W        W34027  42.993  10.793  12.944
74525W        W34028  36.899  10.241  14.781
74526W        W34029   4.795  24.632  12.566
74527W        W34030   5.289  30.546  13.352
74528W        W34031  14.813  27.465  14.898
74529W        W34032   0.953  11.799  14.415
74530W        W34033  28.075  30.533  10.124
74531W        W34034  32.894  17.300   1.394
74532W        W34035  38.861   3.898  11.120
74533W        W34036  43.894  11.642   2.726
74534W        W34037  36.987  14.304  11.559
74535W        W34038  25.471  34.968  13.328
74536W        W34039   8.898  13.755   2.855
74537W        W34040  26.540  20.613  12.832
74538W        W34041  32.123   0.465  11.542
74539W        W34042  31.427  22.680  12.416
74540W        W34043   9.846  13.606  10.996
74541W        W34044   1.386   8.684   0.950
74542W        W34045   7.687  14.658  12.035
74543W        W34046  31.123   6.863  14.864
74544W        W34047  36.587  19.278  14.454
74545W        W34048  22.206  14.718   4.137
74546W        W34049   1.470  44.823   0.817
74547W        W34050  37.432  31.637  12.878
74548W        W34051  44.006  41.038   2.313
74549W        W34052  33.455  42.301  14.297
74550W        W34053  28.040  23.550   3.147
74551W        W34054   3.291   8.884  14.429
74552W        W34055   2.728  41.901   9.956
74553W        W34056  31.634  20.720  11.379
74554W        W34057  20.160  34.472   2.868
74555W        W34058  11.834  31.074   0.738
74556W        W34059  16.672   6.677  11.607
74557W        W34060  31.940  16.684  10.100
74558W        W34061  34.083   4.743  14.404
74559W        W34062  16.778   7.762  11.411
74560W        W34063  39.012  30.094  11.456
74561W        W34064  28.009  29.989  13.330
74562W        W34065   8.702  41.912  12.007
74563W        W34066   6.368  38.347   0.336
74564W        W34067   8.769  17.264  14.433
74565W        W34068  20.053   6.316   3.358
74566W        W34069  24.514  24.010  10.563
74567W        W34070   7.363  10.728   2.377
74568W        W34071  32.627   8.348   3.816
74569W        W34072   1.427  30.111  14.905
74570W        W34073  11.797  33.900   1.333
74571W        W34074  31.475   4.333  11.475
74572W        W34075   4.923  10.790  14.300
74573W        W34076  32.404  29.594  13.016
74574W        W34077  13.247   2.305  13.548
74575W        W34078   7.390   5.405   3.286
74576W        W34079  26.091   5.431  14.900
74577W        W34080  29.982  43.999  11.961
74578W        W34081  33.921  13.111   4.711
74579W        W34082  10.650  38.505  13.350
74580W        W34083  34.015  27.534  10.486
74581W        W34084  40.334  34.077  12.092
74582W        W34085   5.239   3.886  12.086
74583W        W34086   2.799  43.981  12.998
74584W        W34087   3.845  32.394  13.822
74585W        W34088  21.113  29.451  14.944
74586W        W34089  36.990  11.642   4.775
74587W        W34090  12.773   5.371  10.949
74588W        W34091  37.396  31.507   1.264
74589W        W34092  40.031  27.100  11.082
74590W        W34093   7.799  30.150   1.294
74591W        W34094   3.928  10.324  10.106
74592W        W34095  12.794  32.908  10.444
74593W        W34096  23.210  19.738  12.955
74594W        W34097  21.731  11.229  11.597
74595W        W34098   6.880  21.151   4.181
74596W        W34099  21.700   9.373  14.920
74597W        W34100   8.803  35.934  14.423
74598W        W34101  39.930  33.998   4.270
74599W        W34102  34.484  33.558  14.878
74600W        W34103  11.222  22.741  11.924
74601W        W34104   3.790  11.327   4.123
74602W        W34105  21.030  20.081  13.011
74603W        W34106   7.228  20.525   4.648
74604W        W34107  42.922   4.206  13.024
74605W        W34108  43.017  27.537   3.724
74606W        W34109  15.663  39.831   0.864
74607W        W34110  37.869  29.007  10.487
74608W        W34111  26.606  16.753  13.017
74609W        W34112  33.393  44.973   0.471
74610W        W34113   4.446  36.880   2.287
74611W        W34114  11.770  21.044  11.919
74612W        W34115  13.115   1.944   5.322
74613W        W34116  33.553   6.780  12.433
74614W        W34117  13.245  41.955   2.741
74615W        W34118  43.991   8.854   4.230
74616W        W34119  34.940  11.765  12.974
74617W        W34120  40.443  35.528   0.803
74618W        W34121  40.378  18.109   0.839
74619W        W34122  41.937   2.902  14.416
74620W        W34123   2.376  15.791  12.096
74621W        W34124   6.366  14.798   1.279
74622W        W34125   5.858  27.636   4.234
74623W        W34126   9.186  36.044   2.358
74624W        W34127  26.163  30.461  10.547
74625W        W34128  34.004  18.548   2.857
74626W        W34129  41.467  31.044  13.909
74627W        W34130  38.542  35.103   1.432
74628W        W34131   2.426   1.283  12.343
74629W        W34132   1.861  15.256  10.960
74630W        W34133  40.435   1.358  11.038
74631W        W34134  24.549   2.825  12.007
74632W        W34135  27.661  29.944   9.572
74633W        W34136  43.454   1.802  10.450
74634W        W34137  33.543   8.397   2.688
74635W        W34138   8.690   6.281   2.309
74636W        W34139  39.891  19.160  12.350
74637W        W34140  15.644   8.770   2.371
74638W        W34141   6.341  18.776   4.177
74639W        W34142  16.803  25.561   1.920
74640W        W34143  18.218   9.384   2.813
74641W        W34144   4.315  25.133  11.015
74642W        W34145   3.809  38.505  12.571
74643W        W34146  15.615   6.308   4.173
74644W        W34147   4.940   6.698  11.506
74645W        W34148  34.481  11.683  12.513
74646W        W34149  18.203   4.910  11.399
74647W        W34150  19.564  30.479  12.984
74648W        W34151   9.382   0.848   3.751
74649W        W34152   7.795  14.816  12.495
74650W        W34153  26.090  10.782   0.327
74651W        W34154  13.599  13.131   2.691
74652W        W34155  23.598  32.046  12.524
74653W        W34156  34.547   5.411   4.618
74654W        W34157  15.698  23.080  14.952
74655W        W34158   8.866  11.224  11.023
74656W        W34159  21.256  42.022   0.947
74657W        W34160   3.806  26.065  13.882
74658W        W34161  33.494  14.810  11.034
74659W        W34162   7.841  42.966  11.985
74660W        W34163  23.195  13.685  12.579
74661W        W34164  27.516  35.865   1.882
74662W        W34165  27.521   6.209  11.119
74663W        W34166  24.046  41.934   3.727
74664W        W34167   0.809  36.515  14.447
74665W        W34168  38.851   8.660   0.875
74666W        W34169  19.750  35.480   2.863
74667W        W34170   3.386  40.410   4.124
74668W        W34171  28.042  11.264  10.065
74669W        W34172  17.800  19.614  14.835
74670W        W34173  29.597  10.346  14.885
74671W        W34174  20.739   1.297   0.892
74672W        W34175  39.937  31.639  14.489
74673W        W34176  25.013   8.849   0.919
74674W        W34177   4.888  29.655  14.023
74675W        W34178  10.770  20.161   3.864
74676W        W34179  30.969   1.749  12.029
74677W        W34180  14.254  12.215  11.976
74678W        W34181  36.916   3.248   0.292
74679W        W34182   2.430  37.435   2.183
74680W        W34183  31.100  34.545  12.429
74681W        W34184   8.391   0.317   0.882
74682W        W34185   6.923   8.837   2.190
74683W        W34186  11.771  10.813   1.253
74684W        W34187  43.913  11.684  10.921
74685W        W34188  11.743  27.456  13.832
74686W        W34189  39.399  28.510  10.466
74687W        W34190  26.542   5.826   2.241
74688W        W34191   6.829  17.653   1.828
74689W        W34192  42.915  32.537   0.254
74690W        W34193  28.555  11.743   4.269
74691W        W34194  18.604  41.989  10.931
74692W        W34195  26.653  18.193   0.829
74693W        W34196  27.541  14.593   0.375
74694W        W34197  12.648  23.514  13.394
74695W        W34198  26.195  20.666   0.297
74696W        W34199  38.490  40.353  11.091
74697W        W34200  26.646   2.410   3.366
74698W        W34201  35.068  11.706   2.850
74699W        W34202   1.258  26.962   4.646
74700W        W34203  36.043   2.931   3.266
74701W        W34204  37.548  12.359  10.913
74702W        W34205  38.463  39.512   0.406
74703W        W34206  34.093  23.083   2.198
74704W        W34207  30.488  32.015   3.630
74705W        W34208  15.754  41.412   2.759
74706W        W34209  36.857  25.096   0.926
74707W        W34210  24.507   9.644   1.330
74708W        W34211  18.699  32.128   3.377
74709W        W34212  27.999  14.120  10.017
74710W        W34213  28.482  36.966  10.067
74711W        W34214   5.346  15.628   1.448
74712W        W34215   6.828  36.888  14.976
74713W        W34216  38.567  33.495   4.214
74714W        W34217  44.296  27.671  12.356
74715W        W34218  26.140  30.491   4.633
74716W        W34219  14.322  33.563  12.834
74717W        W34220  26.998  35.407   3.346
74718W        W34221  28.184  15.578   3.636
74719W        W34222   7.787  11.868  10.981
74720W        W34223  35.937  38.909   2.826
74721W        W34224  14.137  44.498   0.727
74722W        W34225  23.589  22.642  14.916
74723W        W34226  42.439  21.243  11.891
74724W        W34227  19.102  14.749  12.401
74725W        W34228  29.525  28.500  11.111
74726W        W34229   7.362  29.476  14.862
74727W        W34230  10.653  34.505  11.380
74728W        W34231  29.004   2.462   2.330
74729W        W34232  34.605  16.286   0.860
74730W        W34233  13.653  37.502  13.939
74731W        W34234  32.592  14.253  11.885
74732W        W34235  38.903  41.426  11.585
74733W        W34236  33.497  32.977   0.445
74734W        W34237  38.482  41.495  11.401
74735W        W34238  32.094  22.515  13.523
74736W        W34239   5.737  44.304   2.715
74737W        W34240  39.030  38.468  10.089
74738W        W34241  20.044  37.489   2.298
74739W        W34242  19.236  44.800   4.635
74740W        W34243  13.149  28.631   1.363
74741W        W34244  43.798  42.478   3.226
74742W        W34245  29.656  40.471   5.291
74743W        W34246  29.620   0.451  10.497
74744W        W34247  35.467  14.308   5.125
74745W        W34248  10.820  12.642   2.857
74746W        W34249  43.425  34.435  12.353
74747W        W34250  44.825  24.535   3.287
74748W        W34251  31.019  15.219  13.377
74749W        W34252  22.248  36.519  10.582
74750W        W34253  15.111  16.312   1.344
74751W        W34254   7.711  30.430   2.749
74752W        W34255   5.787  30.911   1.880
74753W        W34256   2.381  23.155  11.558
74754W        W34257   5.772   3.774   3.775
74755W        W34258   5.695  39.052   3.854
74756W        W34259   7.315  39.913  11.493
74757W        W34260  42.789   7.261  14.841
74758W        W34261  31.963  10.146  14.905
74759W        W34262  17.763  41.876  14.797
74760W        W34263  12.781   2.237   2.294
74761W        W34264  29.996  24.999   4.801
74762W        W34265  33.972  43.439  10.461
74763W        W34266  18.758  41.472   1.229
74764W        W34267  10.848   0.329  14.346
74765W        W34268  22.166   8.843   2.794
74766W        W34269  37.394  16.622  12.859
74767W        W34270   3.346   6.349   0.743
74768W        W34271  19.281  12.210   1.886
74769W        W34272   4.410  16.122  13.831
74770W        W34273   0.383  39.997  14.788
74771W        W34274  10.285  21.523   2.377
74772W        W34275  39.815  38.926  11.071
74773W        W34276  24.211   8.406   3.811
74774W        W34277  26.182  19.540  13.039
74775W        W34278   6.723  26.996  12.543
74776W        W34279  18.076  24.021  14.295
74777W        W34280  15.790  43.315  12.367
74778W        W34281  12.137   8.274   1.841
74779W        W34282  33.987  17.193   3.178
74780W        W34283  30.938  20.064  14.854
74781W        W34284  36.929  38.462   3.186
74782W        W34285   2.825   9.708  13.948
74783W        W34286  31.930  40.837  12.865
74784W        W34287  27.984  20.692  12.991
74785W        W34288  39.497  31.469   1.343
74786W        W34289  13.797  27.501  13.908
74787W        W34290  21.552   4.942  13.947
74788W        W34291  31.018  29.010  10.570
74789W        W34292   5.305  42.944   3.279
74790W        W34293  43.965  25.689  12.983
74791W        W34294  10.208  29.103   0.372
74792W        W34295   8.704  21.017   5.133
74793W        W34296  39.361   6.797   5.109
74794W        W34297  35.448  31.518   0.760
74795W        W34298   8.894  20.065   1.353
74796W        W34299   1.361  22.528   4.693
74797W        W34300  20.675  20.037   4.140
74798W        W34301  25.705  27.666   4.637
74799W        W34302  15.590  33.514   0.833
74800W        W34303   7.197  40.494   0.766
74801W        W34304  12.274  13.221  11.087
74802W        W34305  22.707  38.349   0.351
74803W        W34306  25.095   2.745  12.851
74804W        W34307  13.246   1.942   3.317
74805W        W34308  31.628   8.691  14.802
74806W        W34309  23.728   5.303  11.539
74807W        W34310  36.575  10.819   3.154
74808W        W34311  16.130  33.493  14.461
74809W        W34312  10.165  37.999  10.493
74810W        W34313  15.580  14.667   3.868
74811W        W34314  29.579  41.912  10.572
74812W        W34315   7.690  28.463  11.987
74813W        W34316  11.290  43.775   2.243
74814W        W34317  35.084  35.484   0.884
74815W        W34318  22.587  19.210  11.473
74816W        W34319  28.157  23.699  12.444
74817W        W34320  15.251  30.636   3.853
74818W        W34321  37.081  33.611  11.426
74819W        W34322  11.296  15.302  14.907
74820W        W34323  34.410  24.066  13.526
74821W        W34324  12.784  35.382  14.340
74822W        W34325  15.236   1.309   0.750
74823W        W34326  31.939  21.110   4.661
74824W        W34327  41.955  23.126  11.089
74825W        W34328  35.059  35.399   4.343
74826W        W34329  30.042  11.334   5.735
74827W        W34330  12.836   2.353   0.315
74828W        W34331  28.613   1.395  10.486
74829W        W34332   4.293  30.083  14.762
74830W        W34333   5.193  20.533  12.500
74831W        W34334  38.549  44.869   1.857
74832W        W34335  38.872  35.865   4.249
74833W        W34336  19.101  41.966   0.339
74834W        W34337  21.589  35.048  13.408
74835W        W34338  19.234  34.934  11.519
74836W        W34339  10.647   9.835  11.459
74837W        W34340  19.115   2.936   0.738
74838W        W34341   2.846  21.540  11.917
74839W        W34342  25.699  26.518   3.793
74840W        W34343  43.303  22.245  12.847
74841W        W34344   8.180  30.962  14.782
74842W        W34345  23.593  30.119   1.797
74843W        W34346  34.088  36.415  10.631
74844W        W34347  34.045  28.985   0.941
74845W        W34348  23.072  41.873   2.897
74846W        W34349  10.307   1.881  13.488
74847W        W34350  40.512  18.664   3.186
74848W        W34351  22.108  30.635  13.383
74849W        W34352  44.842  13.667   3.824
74850W        W34353   4.317   5.724  13.815
74851W        W34354  28.453  20.582  14.424
74852W        W34355  41.370  36.413   4.602
74853W        W34356  32.597  37.357  10.534
74854W        W34357  32.542  34.373  11.567
74855W        W34358   0.359  16.787  11.948
74856W        W34359  38.020  28.126  13.856
74857W        W34360  37.438  20.206  12.989
74858W        W34361  43.509  40.522   3.178
74859W        W34362   4.704   1.816  14.017
74860W        W34363  24.151   2.924  10.461
74861W        W34364  30.566  44.496  13.431
74862W        W34365  24.205  20.711  13.383
74863W        W34366  36.553  41.345   3.346
74864W        W34367  21.619  32.047   3.335
74865W        W34368   9.222  16.269   2.199
74866W        W34369  29.661  13.736  14.785
74867W        W34370  12.819   4.411  11.432
74868W        W34371  20.689   3.904   3.852
74869W        W34372  34.539  37.980   3.387
74870W        W34373  16.813  17.103   1.366
74871W        W34374  38.515  21.550   1.697
74872W        W34375  40.981  18.766  13.461
74873W        W34376  42.920  22.574  11.474
74874W        W34377  19.572  19.762   2.782
74875W        W34378  25.972  44.494  11.984
74876W        W34379  14.277  37.872   1.210
74877W        W34380   6.694  17.686  14.307
74878W        W34381  41.520  35.886   3.677
74879W        W34382  11.257  14.827  12.365
74880W        W34383  13.614   6.280   3.780
74881W        W34384  34.405  39.892   2.369
74882W        W34385   1.349  13.683  11.376
74883W        W34386  41.936  23.998  14.311
74884W        W34387  12.751  29.647  14.803
74885W        W34388  28.147  14.766  12.364
74886W        W34389  41.944  11.250   0.770
74887W        W34390  19.538  19.180  10.416
74888W        W34391  21.553  43.467  14.965
74889W        W34392  15.759   7.787  14.807
74890W        W34393  30.130  39.472   1.776
74891W        W34394  32.919  12.657  10.957
74892W        W34395  38.028  11.818   4.782
74893W        W34396  43.787  42.527   1.787
74894W        W34397  17.135  32.925   2.399
74895W        W34398   0.868   1.348   3.338
74896W        W34399   8.711  27.643   1.376
74897W        W34400  19.228  21.100  11.994
74898W        W34401  25.713  22.709  11.124
74899W        W34402  24.009  41.427  12.444
74900W        W34403  28.435  34.117   1.700
74901W        W34404  17.188   8.714   4.821
74902W        W34405  14.673  23.200  14.028
74903W        W34406   0.809   2.255  12.036
74904W        W34407  39.038  37.839  13.486
74905W        W34408  14.788  32.422  10.128
74906W        W34409   4.393   1.792  14.305
74907W        W34410  43.290  35.092  12.390
74908W        W34411  10.671   0.853  10.561
74909W        W34412  43.913  41.972  14.855
74910W        W34413  17.772  39.830  13.018
74911W        W34414   6.908   7.253  14.908
74912W        W34415  15.779  40.320  10.962
74913W        W34416   1.784   9.332  12.581
74914W        W34417  24.531  35.858   4.598
74915W        W34418  32.587  27.006  14.766
74916W        W34419  43.793  25.030  10.572
74917W        W34420   8.800  44.500   5.180
74918W        W34421  43.409  41.915  13.871
74919W        W34422   1.460  15.720   4.167
74920W        W34423  28.093  33.897   2.703
74921W        W34424  32.046  27.541   0.318
74922W        W34425  30.488  34.932   2.247
74923W        W34426  40.428  43.832  13.815
74924W        W34427  14.813  31.571  12.557
74925W        W34428  38.513   4.429  14.897
74926W        W34429   6.246  32.551  13.364
74927W        W34430  26.588   6.694  11.599
74928W        W34431  39.322  13.265   1.706
74929W        W34432  21.756  16.178   4.250
74930W        W34433  12.760  21.232  13.875
74931W        W34434  31.619  35.014  13.807
74932W        W34435   1.396   4.446  12.938
74933W        W34436  23.005  27.195   2.387
74934W        W34437  38.996  21.713   0.752
74935W        W34438  15.173   7.362   2.408
74936W        W34439   9.372   2.395  10.957
74937W        W34440   1.239   2.766  14.479
74938W        W34441  24.543  27.961  13.920
74939W        W34442  19.556  22.513   5.244
74940W        W34443   1.895   7.178   0.409
74941W        W34444  15.606  26.058   1.861
74942W        W34445  40.397  44.008  11.483
74943W        W34446  42.967  28.436  14.424
74944W        W34447  38.569   7.326  12.449
74945W        W34448  16.077   4.357  12.070
74946W        W34449  24.603   5.325   4.230
74947W        W34450  41.928  10.699  11.983
74948W        W34451  18.576  28.162  14.772
74949W        W34452  35.964  26.532   3.243
74950W        W34453  22.117  34.519  14.835
74951W        W34454  32.131   8.765   0.808
74952W        W34455  30.072  36.443   5.636
74953W        W34456  32.021   8.237   4.265
74954W        W34457  37.942  27.592  11.391
74955W        W34458  21.085  20.569  11.529
74956W        W34459  44.938   3.785  14.012
74957W        W34460  34.068   0.892  14.002
74958W        W34461  37.518  17.110   0.323
74959W        W34462  25.979  38.421   3.765
74960W        W34463  11.246  29.127  11.028
74961W        W34464  17.649  27.063  13.513
74962W        W34465   9.857  15.782   3.354
74963W        W34466  38.420  43.014  13.028
74964W        W34467  13.125  24.575   3.380
74965W        W34468   1.337   9.281   2.379
74966W        W34469  21.675  19.688   5.271
74967W        W34470  32.958  21.542   4.141
74968W        W34471  15.186  36.433  14.917
74969W        W34472  36.011  34.501   1.220
74970W        W34473   9.861   8.378  13.415
74971W        W34474  35.365  13.626   4.691
74972W        W34475  36.425  15.139  11.501
74973W        W34476  12.194  22.114  11.981
74974W        W34477  23.536  34.585  12.998
74975W        W34478  26.469  11.342   2.365
74976W        W34479   8.775  14.254  14.809
74977W        W34480  12.690  19.068   1.721
74978W        W34481  33.887  34.869  12.395
74979W        W34482  42.462  35.917  14.473
74980W        W34483  32.079   8.679  14.302
74981W        W34484  29.549  17.755  12.968
74982W        W34485   5.389  42.457  14.857
74983W        W34486  35.378  31.143   1.252
74984W        W34487  42.355   5.799   0.342
74985W        W34488   9.303   6.198  10.954
74986W        W34489  24.157  26.191  11.108
74987W        W34490  32.992   0.485   4.250
74988W        W34491  20.110  38.422   2.798
74989W        W34492  31.578  19.689   1.729
74990W        W34493  25.505  37.840  10.437
74991W        W34494  33.543   4.275   4.776
74992W        W34495  36.913  40.007   0.454
74993W        W34496  19.265  34.956  14.953
74994W        W34497  26.632   5.895  13.049
74995W        W34498   4.246  13.687   4.813
74996W        W34499  39.515  19.082  11.045
74997W        W34500   6.679   7.316  13.028
74998W        W34501   9.158  42.507  13.353
74999W        W34502   8.743  33.944   4.172
75000W        W34503  29.593   7.290   9.988
75001W        W34504  40.955  19.686   4.672
75002W        W34505  38.010  15.785  12.059
75003W        W34506   2.749  42.810  14.834
75004W        W34507  12.175  10.677  11.901
75005W        W34508   1.928  12.199   3.237
75006W        W34509   3.764  16.771   2.717
75007W        W34510  22.195  14.608  11.496
75008W        W34511   2.299  32.943  12.830
75009W        W34512   3.247  37.074   3.826
75010W        W34513  37.438  26.459   0.870
75011W        W34514   4.277  13.149   0.762
75012W        W34515  12.119  41.788   4.785
75013W        W34516  20.693  26.520  11.991
75014W        W34517  17.305   7.219   3.715
75015W        W34518   5.911  21.632   3.159
75016W        W34519  31.447  40.344  14.934
75017W        W34520  17.172  17.123   4.617
75018W        W34521  25.163   4.798  14.434
75019W        W34522  16.652   4.770  10.426
75020W        W34523  39.343  20.065   3.770
75021W        W34524  36.094  30.057  14.900
75022W        W34525  25.013  18.626   4.765
75023W        W34526   9.688  43.325  11.054
75024W        W34527   5.288  34.042   0.891
75025W        W34528  37.478  11.626   4.705
75026W        W34529   2.755  40.412  11.384
75027W        W34530  29.925   2.813  13.449
75028W        W34531  18.176  42.299   4.280
75029W        W34532  28.470  26.154  11.897
75030W        W34533   2.341  38.929  13.839
75031W        W34534  21.169  23.725   4.351
75032W        W34535  38.330  44.347   2.813
75033W        W34536   3.398  17.072  11.970
75034W        W34537  38.567   3.795   9.621
75035W        W34538  32.900  14.120   9.924
75036W        W34539  33.490  20.700  11.429
75037W        W34540  42.895  19.178  14.360
75038W        W34541  38.375   1.972  14.804
75039W        W34542  33.131  13.761   9.600
75040W        W34543   3.752  40.440  14.448
75041W        W34544  33.991   5.389   1.357
75042W        W34545  10.147  28.625   2.189
75043W        W34546  11.841  41.005   0.945
75044W        W34547  12.625   1.952   0.413
75045W        W34548  17.679  19.688   2.674
75046W        W34549  18.638  23.079   4.165
75047W        W34550   0.383   8.657   3.734
75048W        W34551   2.326  10.165  10.013
75049W        W34552  42.460   3.452   2.339
75050W        W34553  35.448  25.696   4.677
75051W        W34554  38.411  10.325  11.054
75052W        W34555  28.051  35.041   3.352
75053W        W34556  32.910  19.255   0.326
75054W        W34557   7.189  42.331   4.199
75055W        W34558   6.212  36.410  13.439
75056W        W34559  13.795  12.631  11.099
75057W        W34560   0.478  44.991   3.232
75058W        W34561   6.202  39.906  13.969
75059W        W34562  42.523  37.421  12.893
75060W        W34563  14.733  24.700   1.897
75061W        W34564  35.080  20.716   2.327
75062W        W34565  34.390  38.042   0.915
75063W        W34566  32.921  44.262  13.332
75064W        W34567   1.412  42.819   0.726
75065W        W34568  39.490   0.955   1.886
75066W        W34569  24.990  26.071  11.537
75067W        W34570  20.661  15.803   2.778
75068W        W34571  42.423  27.654   2.389
75069W        W34572  28.663  31.601   4.154
75070W        W34573  12.138  23.690   4.783
75071W        W34574   8.808  12.292   5.087
75072W        W34575  38.478  44.418  14.417
75073W        W34576  10.253  30.427  13.327
75074W        W34577  39.434   7.699   1.744
75075W        W34578  18.618  22.044   0.344
75076W        W34579  42.859  18.689  12.057
75077W        W34580  13.343   4.737   3.296
75078W        W34581  43.851  42.829  10.082
75079W        W34582  35.362   4.349  12.998
75080W        W34583  37.353  34.580   1.787
75081W        W34584  35.893  25.605   2.796
75082W        W34585  40.331  17.231   2.317
75083W        W34586  27.622  16.267  12.552
75084W        W34587  20.109   4.925  11.506
75085W        W34588  21.513  26.472  11.609
75086W        W34589  20.578   0.923   4.690
75087W        W34590  32.630  36.060  10.931
75088W        W34591  22.134  24.074   4.171
75089W        W34592  29.454  34.542   3.332
75090W        W34593  43.944  27.074   0.884
75091W        W34594  36.965  15.197   3.146
75092W        W34595  29.591  28.476   2.399
75093W        W34596   1.758   9.315   0.365
75094W        W34597  26.106  41.490   3.865
75095W        W34598  11.863  27.993   2.207
75096W        W34599  13.662  25.969   1.747
75097W        W34600  23.568  30.074   3.225
75098W        W34601  10.295   4.320   1.429
75099W        W34602  37.867  33.955  11.035
75100W        W34603  12.634  37.918  13.939
75101W        W34604  15.579  17.583  14.340
75102W        W34605   4.898  13.745  13.528
75103W        W34606  41.886  29.067   1.811
75104W        W34607  15.582  24.623   0.827
75105W        W34608  35.922   7.743  10.054
75106W        W34609  18.175  25.991   0.293
75107W        W34610   8.886   3.325   3.339
75108W        W34611  16.755  24.615  12.866
75109W        W34612   3.344   8.216  13.997
75110W        W34613  18.584  20.525  11.432
75111W        W34614  26.696  13.207  14.984
75112W        W34615   6.823  34.534  13.843
75113W        W34616   9.259  32.579   3.302
75114W        W34617  22.507   8.774  11.981
75115W        W34618   2.921  15.161   2.763
75116W        W34619  26.592  22.122  12.446
75117W        W34620  31.439   7.679  14.837
75118W        W34621   9.773  33.960  12.950
75119W        W34622  18.778  35.517   2.852
75120W        W34623  21.705  10.282   2.400
75121W        W34624   6.687  18.127   1.899
75122W        W34625  40.352   6.819  12.345
75123W        W34626  15.606  31.976   2.378
75124W        W34627  16.157  40.913   3.153
75125W        W34628  37.923   5.244  11.044
75126W        W34629   8.694  26.610  11.937
75127W        W34630   5.747  42.945  11.493
75128W        W34631  34.934  26.664   9.950
75129W        W34632  19.759  30.970  12.972
75130W        W34633   7.736  11.769   0.836
75131W        W34634  14.137  14.714  14.359
75132W        W34635  40.937  19.753  11.612
75133W        W34636  18.111   4.371   0.445
75134W        W34637  27.619  28.987  10.450
75135W        W34638  41.789  32.465   1.726
75136W        W34639  17.677  28.521   1.246
75137W        W34640  44.961  29.032  14.496
75138W        W34641  16.211  36.541   2.211
75139W        W34642  42.521  43.337   1.860
75140W        W34643   9.820   2.282   4.832
75141W        W34644  21.710  32.579   0.290
75142W        W34645   1.808  26.168   5.111
75143W        W34646  13.687   1.328  11.899
75144W        W34647  38.822  23.055  14.793
75145W        W34648  40.358  27.950  12.910
75146W        W34649  27.194   4.411  14.369
75147W        W34650   2.400  31.558   9.566
75148W        W34651  24.991  35.574  12.575
75149W        W34652  20.067  35.581  11.577
75150W        W34653  10.760  34.601  10.552
75151W        W34654  27.162  38.843  14.480
75152W        W34655  24.024  39.344  13.420
75153W        W34656  14.702  28.179   1.805
75154W        W34657  39.902  36.525  14.959
75155W        W34658  33.120  42.941   3.279
75156W        W34659  43.016  17.606  14.826
75157W        W34660   2.735  31.027   4.200
75158W        W34661   2.420  37.557  12.546
75159W        W34662  11.781  25.553  10.892
75160W        W34663  29.962   5.313  13.386
75161W        W34664   4.350  22.199   2.180
75162W        W34665   7.820  41.338   0.404
75163W        W34666  30.006  27.093  14.992
75164W        W34667  10.767   8.189   0.324
75165W        W34668  44.495   6.195   0.301
75166W        W34669  18.187  24.504  13.477
75167W        W34670  40.997  28.013   2.893
75168W        W34671  20.189   6.399   4.623
75169W        W34672  31.066  40.049   4.764
75170W        W34673   7.268  15.222  14.376
75171W        W34674  19.536  44.348  11.940
75172W        W34675  22.190   0.409  12.067
75173W        W34676  38.979  26.535   0.448
75174W        W34677  25.652  33.875   3.306
75175W        W34678  17.754  40.535   2.690
75176W        W34679  13.217  13.815  11.566
75177W        W34680  36.484   0.250   2.704
75178W        W34681  44.293  22.714  12.485
75179W        W34682  30.138  41.535   1.218
75180W        W34683   6.223   1.451   2.239
75181W        W34684   4.397  36.465  11.934
75182W        W34685  32.501  44.345   4.225
75183W        W34686   8.730  36.379  14.827
75184W        W34687  19.606  11.313   2.838
75185W        W34688  43.928  31.524  11.610
75186W        W34689   3.254  24.527   4.279
75187W        W34690   2.745   8.865  13.816
75188W        W34691   9.847  33.950   4.352
75189W        W34692  35.874   9.661  11.050
75190W        W34693  39.011  32.533  13.038
75191W        W34694  18.155   5.252  14.505
75192W        W34695  43.928  41.939   3.331
75193W        W34696  26.482  14.706  14.357
75194W        W34697  10.744  19.548  11.501
75195W        W34698  19.254   6.798  12.932
75196W        W34699  30.141  42.031  11.987
75197W        W34700   3.384  26.122   5.173
75198W        W34701  36.358   9.225   4.600
75199W        W34702  19.234  37.050   3.697
75200W        W34703  14.291  30.925   5.264
75201W        W34704  42.949   7.689   4.801
75202W        W34705  15.292  18.219  10.921
75203W        W34706   3.342  16.306  13.820
75204W        W34707   5.694  33.884   3.683
75205W        W34708  43.825   3.907  14.412
75206W        W34709  14.211  14.094  13.949
75207W        W34710  22.671  30.142  13.518
75208W        W34711   8.207  42.526   1.885
75209W        W34712  35.968   5.889  11.448
75210W        W34713  16.576  40.013  13.028
75211W        W34714  37.934  38.918  12.924
75212W        W34715  19.748   0.458   2.415
75213W        W34716  23.731  41.406   2.838
75214W        W34717   0.330   2.233  14.848
75215W        W34718   6.889  44.492   1.925
75216W        W34719  24.643  37.402   4.131
75217W        W34720  35.554  44.461   2.775
75218W        W34721   5.344  23.150   2.346
75219W        W34722  34.440  32.915  12.990
75220W        W34723  27.994  40.999  13.849
75221W        W34724   0.936  13.240  12.942
75222W        W34725  38.019  40.450  13.858
75223W        W34726  36.996  35.432   0.896
75224W        W34727  24.121  16.662  11.102
75225W        W34728  30.551  39.450   4.134
75226W        W34729  37.874  11.624   2.241
75227W        W34730  17.651   0.852  12.062
75228W        W34731  24.193  39.400   1.351
75229W        W34732  36.848   9.216  13.512
75230W        W34733  40.937  15.090   0.283
75231W        W34734   7.313  35.966   1.749
75232W        W34735  43.852  31.566   2.682
75233W        W34736  17.784  42.927  14.771
75234W        W34737   2.820  13.763  12.466
75235W        W34738  35.871  24.214  10.528
75236W        W34739  29.635  39.514   1.267
75237W        W34740  15.809  43.003  11.553
75238W        W34741  42.808  35.102   0.752
75239W        W34742   8.674  18.203  11.906
75240W        W34743   9.772  37.394  11.405
75241W        W34744  19.762   6.850  10.508
75242W        W34745  41.019  30.534   2.876
75243W        W34746  37.569   1.381  13.852
75244W        W34747   0.796  15.590  11.083
75245W        W34748  34.490  29.448  11.960
75246W        W34749  43.955  26.104  12.909
75247W        W34750  41.466   2.801  13.037
75248W        W34751  30.982  39.467  11.475
75249W        W34752   8.247  22.561  11.064
75250W        W34753  39.924  44.276  13.517
75251W        W34754  21.017   0.867  10.537
75252W        W34755  24.085   6.862   2.236
75253W        W34756   8.818   3.400  11.394
75254W        W34757  34.115  16.692   2.417
75255W        W34758   1.910   5.330   0.356
75256W        W34759  41.789   8.339   2.356
75257W        W34760  44.905  23.240   0.749
75258W        W34761  34.913  25.690   0.405
75259W        W34762  28.096  30.550   1.791
75260W        W34763  32.529  25.173  13.360
75261W        W34764  41.349  23.645  14.372
75262W        W34765  23.010  11.327  11.126
75263W        W34766  22.248   8.674  11.118
75264W        W34767   9.238  43.465  11.567
75265W        W34768  35.865   2.782  11.373
75266W        W34769  35.068  16.594   2.181
75267W        W34770  20.681  35.395  14.356
75268W        W34771   0.888  11.685   1.769
75269W        W34772   1.869  23.187   4.206
75270W        W34773   8.239  35.963   4.672
75271W        W34774  17.178  38.384  13.799
75272W        W34775  13.204  34.966   2.363
75273W        W34776  34.523  28.564   4.163
75274W        W34777  32.045   3.800  10.584
75275W        W34778  10.870   4.286  13.060
75276W        W34779  33.504  42.484   1.261
75277W        W34780  35.045  13.637  12.031
75278W        W34781  13.324  16.599   3.829
75279W        W34782   2.340  24.514   2.399
75280W        W34783  32.480  21.578   4.251
75281W        W34784  21.708  21.593   1.395
75282W        W34785  11.373  29.024  14.445
75283W        W34786  39.908  34.085  12.391
75284W        W34787  26.586   1.278  11.478
75285W        W34788  36.536  40.518  13.542
75286W        W34789  25.989  37.555  14.500
75287W        W34790  23.576  32.054  11.420
75288W        W34791  41.360  28.013  11.444
75289W        W34792  41.960  27.941   0.278
75290W        W34793  10.331  11.817  11.059
75291W        W34794  44.869   5.917   4.305
75292W        W34795  16.740  16.584   1.371
75293W        W34796   2.929  38.048   2.362
75294W        W34797  33.076  32.515  10.426
75295W        W34798   4.916  39.493  14.900
75296W        W34799   8.849  30.908   0.429
75297W        W34800   5.725  28.673  10.473
75298W        W34801  43.322  36.857   3.841
75299W        W34802  39.930  22.526  12.480
75300W        W34803   6.304  24.692   3.728
75301W        W34804   9.292  13.640   1.860
75302W        W34805  43.331  36.845   1.378
75303W        W34806  24.615   5.769   1.437
75304W        W34807  12.314  27.044  12.005
75305W        W34808  34.459   7.267  12.357
75306W        W34809  34.473  25.582  11.562
75307W        W34810  43.389  35.588   2.200
75308W        W34811  37.004  17.583  12.450
75309W        W34812  35.520  44.364   2.253
75310W        W34813   8.383   3.287   0.438
75311W        W34814  34.496  26.046  10.442
75312W        W34815   5.794   5.752   0.457
75313W        W34816  44.317  14.180   0.260
75314W        W34817  16.253  30.500   2.786
75315W        W34818  42.970  26.561   0.811
75316W        W34819  39.526  38.473   4.224
75317W        W34820  28.170   3.912   3.163
75318W        W34821  30.553   3.418  11.541
75319W        W34822  10.819  11.808  13.883
75320W        W34823  23.509  14.723  11.412
75321W        W34824  18.619  44.470  10.574
75322W        W34825  13.634  21.240  12.843
75323W        W34826  14.335  31.952  11.579
75324W        W34827  29.627  11.352  12.539
75325W        W34828  16.813  28.180   4.637
75326W        W34829  12.807  20.141  12.854
75327W        W34830  41.923  27.999   4.693
75328W        W34831  31.986   2.345  12.560
75329W        W34832   5.813  23.992  13.388
75330W        W34833  18.249  19.556   3.334
75331W        W34834  41.494  42.835  13.908
75332W        W34835   1.401  28.629  14.451
75333W        W34836  22.698  39.894  10.525
75334W        W34837  10.150  41.402  12.577
75335W        W34838   0.255   4.744  14.421
75336W        W34839  44.393  17.286   0.278
75337W        W34840  32.604   7.818   4.335
75338W        W34841  12.151  18.590   3.202
75339W        W34842  38.376  13.662   1.404
75340W        W34843  44.907   4.781   2.690
75341W        W34844  17.758  10.637   0.866
75342W        W34845  20.201  35.913   3.223
75343W        W34846  36.436  33.451   4.633
75344W        W34847  30.528  10.793  10.081
75345W        W34848  22.065  39.047   3.661
75346W        W34849  30.559  38.025  12.906
75347W        W34850  12.244  25.216   0.800
75348W        W34851  35.466  24.711   2.328
75349W        W34852  33.092  13.234   9.656
75350W        W34853  24.094  43.948   9.598
75351W        W34854  34.997  36.591  11.039
75352W        W34855  35.951  15.172   1.241
75353W        W34856  43.859  27.659   3.684
75354W        W34857  12.296  32.543  14.007
75355W        W34858  18.285   2.238  14.959
75356W        W34859  19.591  14.207   3.756
75357W        W34860   7.763  24.148   1.366
75358W        W34861   8.900   3.386   1.751
75359W        W34862  43.874  31.912  11.479
75360W        W34863  28.179  27.174   3.329
75361W        W34864  44.959  15.238   0.913
75362W        W34865  15.793   1.845   3.158
75363W        W34866   3.399  30.099  14.407
75364W        W34867  31.596  14.113   0.938
75365W        W34868   0.791  44.825   4.710
75366W        W34869  15.293  25.678  14.781
75367W        W34870  11.848  41.789  12.976
75368W        W34871  12.346   1.974  10.936
75369W        W34872  35.887   1.884   2.333
75370W        W34873  22.107  26.134  13.472
75371W        W34874  28.163  43.982  13.845
75372W        W34875  39.464   3.948   1.375
75373W        W34876   9.798  24.039   3.383
75374W        W34877   3.376  28.175   4.140
75375W        W34878   7.257  13.340   3.670
75376W        W34879  38.418  39.862   0.434
75377W        W34880  29.520   8.365   4.114
75378W        W34881   8.391  31.583  11.464
75379W        W34882   6.258  30.130   1.247
75380W        W34883  32.116  34.514   3.665
75381W        W34884  26.207  30.534   1.258
75382W        W34885  18.132   1.267  11.035
75383W        W34886  36.433  25.645   2.716
75384W        W34887  41.396   9.183   2.801
75385W        W34888  42.915  36.036   4.224
75386W        W34889   2.934  30.004   5.764
75387W        W34890   4.740  31.082  12.007
75388W        W34891   2.385  14.715  13.981
75389W        W34892  34.500  36.071   2.418
75390W        W34893  25.481  10.707  12.961
75391W        W34894  17.669  19.078   0.473
75392W        W34895  37.439  42.829   2.894
75393W        W34896  19.587  28.017   0.802
75394W        W34897  34.557  40.876  14.861
75395W        W34898  23.145  15.228   2.257
75396W        W34899  20.145  44.809   4.245
75397W        W34900  23.554  15.315  13.967
75398W        W34901  18.077  33.024  14.852
75399W        W34902  23.016   5.851   0.838
75400W        W34903   0.886   2.387  10.926
75401W        W34904  43.273  32.105  10.626
75402W        W34905  12.287  20.190  14.376
75403W        W34906  13.722  40.018  14.823
75404W        W34907  21.115   1.918   4.703
75405W        W34908  16.209  11.665   4.810
75406W        W34909  23.168  25.538  10.436
75407W        W34910  32.097  20.040   0.384
75408W        W34911  37.387  12.630   0.447
75409W        W34912  18.089  28.065  14.814
75410W        W34913  15.588  39.474   2.180
75411W        W34914  39.037  22.134  12.025
75412W        W34915   4.449  40.342  13.053
75413W        W34916  30.145  11.271   4.767
75414W        W34917   1.948  35.059   4.248
75415W        W34918  17.704  19.753   4.708
75416W        W34919  37.346   1.326  11.400
75417W        W34920  40.023  27.950  10.903
75418W        W34921  14.161  22.138  12.538
75419W        W34922  12.298  20.717  12.991
75420W        W34923   1.834  27.980   1.711
75421W        W34924  28.595   1.881   0.750
75422W        W34925   3.282  14.134  11.468
75423W        W34926  40.952   3.731  12.415
75424W        W34927  16.271  31.025   4.746
75425W        W34928  16.713  28.519  14.859
75426W        W34929  30.548  25.653  12.881
75427W        W34930  20.204  34.923  11.590
75428W        W34931   2.946  24.505  11.014
75429W        W34932  39.036  24.591  13.526
75430W        W34933  17.666  18.650  13.382
75431W        W34934  20.110  30.108  11.046
75432W        W34935   4.333  23.677   0.360
75433W        W34936  24.103  12.714   0.847
75434W        W34937  13.327   6.850   3.757
75435W        W34938  32.477  28.585  14.955
75436W        W34939  26.677   8.219   0.804
75437W        W34940  20.150  32.960  11.592
75438W        W34941  31.104  44.974  13.026
75439W        W34942   9.781  29.005  10.491
75440W        W34943  24.648  12.706  12.461
75441W        W34944  32.991   9.184  14.939
75442W        W34945  14.739   1.427  13.485
75443W        W34946  23.728  44.321  11.501
75444W        W34947  11.686  16.716   2.784
75445W        W34948  23.163  15.115  14.342
75446W        W34949  31.107  42.425   3.785
75447W        W34950   6.422   4.248   3.645
75448W        W34951  19.720  33.943  14.961
75449W        W34952   5.917  17.105   2.195
75450W        W34953   3.364  24.083  10.564
75451W        W34954  25.579   3.747   2.360
75452W        W34955  21.103  13.627  14.350
75453W        W34956  14.246  43.381   3.302
75454W        W34957  37.923  37.869  10.985
75455W        W34958  43.340  35.421   0.951
75456W        W34959   3.438  40.450   5.141
75457W        W34960   3.313  29.138   1.332
75458W        W34961  41.345  38.440   3.710
75459W        W34962   0.744   5.338   3.280
75460W        W34963  32.077   4.740   0.391
75461W        W34964  36.009  41.930  13.890
75462W        W34965  29.573  18.711   1.413
75463W        W34966  41.320   0.760  11.425
75464W        W34967  40.899  10.841  10.495
75465W        W34968  10.328  15.589   1.804
75466W        W34969  35.456   2.899  13.442
75467W        W34970  19.613  29.166  14.277
75468W        W34971  25.965  22.574   2.282
75469W        W34972   6.895  19.208  10.427
75470W        W34973  22.617  21.748  14.022
75471W        W34974   7.755  16.081  12.371
75472W        W34975  40.846  39.407   2.774
75473W        W34976   3.316   5.257  12.511
75474W        W34977  34.100  22.112  11.116
75475W        W34978  44.307  41.012  12.383
75476W        W34979   2.349  33.080   4.832
75477W        W34980   5.367  15.193  10.077
75478W        W34981  31.967   8.261   3.287
75479W        W34982  32.118   0.905  14.962
75480W        W34983  42.347  20.637  11.954
75481W        W34984   1.808   0.297  14.284
75482W        W34985  12.259  21.146  11.604
75483W        W34986  27.062  19.172  14.920
75484W        W34987  28.462  30.604   4.179
75485W        W34988  41.386  44.465   1.417
75486W        W34989  13.266   3.907   1.726
75487W        W34990   8.222  29.605  12.022
75488W        W34991  21.257  43.326   4.232
75489W        W34992  25.645   9.830   1.733
75490W        W34993  11.359  39.340   4.623
75491W        W34994  13.290  21.692  12.858
75492W        W34995   4.374   0.897   3.317
75493W        W34996  15.748   4.234   1.785
75494W        W34997  14.749  19.570  11.069
75495W        W34998  39.465  12.228   4.685
75496W        W34999   8.238  36.469   3.727
75497W        W35000   0.271   4.916  12.979
75498W        W35001  36.998  28.434   0.911
75499W        W35002  23.101  41.537  13.379
75500W        W35003   9.791  10.812   4.665
75501W        W35004   2.438  31.966   1.357
75502W        W35005  16.176  28.667   4.606
75503W        W35006  39.522   9.255   2.386
75504W        W35007   1.288  21.077  11.874
75505W        W35008   0.278  31.442   4.619
75506W        W35009  21.558  17.797  14.504
75507W        W35010  20.056  12.664  13.434
75508W        W35011  12.620  39.879   0.466
75509W        W35012  24.148   9.823   2.197
75510W        W35013  16.091  22.014   3.361
75511W        W35014  12.641  21.619   4.794
75512W        W35015  40.401   7.670   5.125
75513W        W35016   5.845   7.845   2.368
75514W        W35017  36.022  37.964   2.696
75515W        W35018  14.312  24.509  10.892
75516W        W35019  36.004  38.935  12.494
75517W        W35020  38.454   8.397  12.451
75518W        W35021  43.835  11.141   4.157
75519W        W35022  18.790   9.772   0.283
75520W        W35023  10.313   9.817  10.432
75521W        W35024  18.080  41.018   2.334
75522W        W35025   7.872   1.280  14.490
75523W        W35026   8.845  38.043  14.950
75524W        W35027  39.538  36.896  13.832
75525W        W35028  26.656  11.173   0.889
75526W        W35029  10.790  18.107  13.452
75527W        W35030  34.978  13.771   4.798
75528W        W35031  43.313  32.521   0.903
75529W        W35032  40.901  30.071  10.995
75530W        W35033  28.585  17.107   1.289
75531W        W35034   8.854  44.985  14.786
75532W        W35035   3.257  14.172   1.317
75533W        W35036  16.278  14.214   1.379
75534W        W35037  30.086   3.305   3.776
75535W        W35038  22.018  42.781   0.322
75536W        W35039  40.901  25.139  13.539
75537W        W35040  32.139  43.375  14.397
75538W        W35041   5.376  13.736   2.364
75539W        W35042  11.311  27.140   2.339
75540W        W35043  31.535   3.820   2.263
75541W        W35044   5.324  41.293  10.075
75542W        W35045  21.520  43.830  13.888
75543W        W35046  16.311  30.544   3.702
75544W        W35047   2.885  32.079  14.297
75545W        W35048   3.326  26.995   2.672
75546W        W35049  36.875   7.665  14.865
75547W        W35050  40.975   0.469  12.045
75548W        W35051  20.092  33.977   0.266
75549W        W35052   8.859  37.893  11.878
75550W        W35053  19.122  25.505  14.796
75551W        W35054  14.712   7.801  11.471
75552W        W35055   4.371   9.337  10.555
75553W        W35056  36.573  29.594  14.368
75554W        W35057   1.322  40.002  10.478
75555W        W35058  26.671  37.026  13.047
75556W        W35059  23.181   4.239  14.024
75557W        W35060   0.349  25.580   4.785
75558W        W35061  41.832  31.645  11.862
75559W        W35062  35.499   7.171   2.726
75560W        W35063   6.296  42.945  12.040
75561W        W35064  40.454  26.111   3.281
75562W        W35065  42.345  44.857  11.873
75563W        W35066  23.076   2.857  13.806
75564W        W35067   8.401  11.845  11.055
75565W        W35068  19.677  28.956  12.444
75566W        W35069  30.059   0.853  10.447
75567W        W35070  13.845  29.574  14.444
75568W        W35071   1.941  32.921   2.786
75569W        W35072  23.620   8.208   3.382
75570W        W35073  44.308  22.062  12.433
75571W        W35074   8.162  43.516   0.953
75572W        W35075  29.447  16.162   4.158
75573W        W35076  20.252  16.606   2.870
75574W        W35077  41.001   1.965  11.605
75575W        W35078   0.898  14.673  11.958
75576W        W35079   5.371  33.956  11.952
75577W        W35080  30.124  28.624  14.426
75578W        W35081  36.941  38.043   2.370
75579W        W35082  31.582  12.262   1.358
75580W        W35083  26.477  14.594   0.755
75581W        W35084  21.543   7.686   2.272
75582W        W35085  41.991  31.087  12.975
75583W        W35086  25.095  40.373   1.853
75584W        W35087  37.936  43.838   2.756
75585W        W35088  11.794  24.538  10.611
75586W        W35089  41.402  35.466   2.868
75587W        W35090  39.354  36.486   2.312
75588W        W35091  36.519  16.298  14.446
75589W        W35092  30.428  38.345   1.785
75590W        W35093  27.969  31.422   4.264
75591W        W35094  37.003  35.895  13.059
75592W        W35095  20.686  43.362  11.412
75593W        W35096  34.882  10.380  10.943
75594W        W35097  16.602  44.860  11.439
75595W        W35098  32.134   9.310  11.861
75596W        W35099  39.988   4.791  13.402
75597W        W35100  30.951  39.548  13.390
75598W        W35101  29.501   7.341  12.363
75599W        W35102  27.946   2.347   1.724
75600W        W35103  29.094  16.188  12.459
75601W        W35104  20.179  44.500   3.798
75602W        W35105  29.050   9.649   1.832
75603W        W35106  11.828  27.972   5.303
75604W        W35107  14.123  20.129  12.354
75605W        W35108  38.038  41.432  13.438
75606W        W35109  21.202  24.996   3.685
75607W        W35110  29.563  10.285  11.567
75608W        W35111  29.593  39.342   3.823
75609W        W35112  38.363  28.560   4.767
75610W        W35113  42.353   8.755   0.404
75611W        W35114  15.719  26.016  11.980
75612W        W35115  26.638  17.645   2.889
75613W        W35116   4.305   2.310  10.615
75614W        W35117  11.224  42.934   0.435
75615W        W35118  39.832  25.104  14.321
75616W        W35119  44.260   6.887  11.063
75617W        W35120  16.708  36.349   1.707
75618W        W35121  28.569  38.403   2.785
75619W        W35122  12.813  23.628  10.548
75620W        W35123  42.316  29.967   4.707
75621W        W35124  28.102  39.944  11.967
75622W        W35125  40.986  30.526  13.517
75623W        W35126  13.170  33.995  12.940
75624W        W35127   0.823  30.619  10.415
75625W        W35128   7.341  39.518   2.804
75626W        W35129  29.010   5.253   0.457
75627W        W35130   5.326  25.674   3.293
75628W        W35131  27.498  37.429   1.809
75629W        W35132  19.202   4.347  13.028
75630W        W35133  21.188  14.259   3.382
75631W        W35134  20.155  43.018   2.351
75632W        W35135  26.608   8.192  11.609
75633W        W35136  25.196  42.442  11.538
75634W        W35137   7.320   3.303  13.426
75635W        W35138  43.911  18.264   2.692
75636W        W35139  12.738  19.744   0.246
75637W        W35140   5.397   4.380  13.993
75638W        W35141  34.510   3.751  13.920
75639W        W35142   8.659  22.047   0.322
75640W        W35143  13.230  25.468   0.269
75641W        W35144  21.621  24.520   3.341
75642W        W35145  23.597  21.698   3.363
75643W        W35146  18.549  34.017  10.916
75644W        W35147  40.536  39.374  12.526
75645W        W35148  24.013  33.952   2.729
75646W        W35149  42.961  23.518  11.054
75647W        W35150  26.565   0.898   1.389
75648W        W35151   1.272  44.285   9.957
75649W        W35152  12.310  30.144  12.397
75650W        W35153  30.425   4.445   0.906
75651W        W35154  14.234  29.078   2.826
75652W        W35155  41.391  18.218   2.753
75653W        W35156  12.255  36.059  11.947
75654W        W35157  32.570  31.055   0.289
75655W        W35158  33.113  41.364  12.827
75656W        W35159  42.875  11.799  11.468
75657W        W35160   3.284  40.362  14.507
75658W        W35161   7.390  44.935  11.941
75659W        W35162  43.918  44.863   1.290
75660W        W35163   3.232  42.893   2.359
75661W        W35164  44.819  24.632  12.941
75662W        W35165  30.439  44.775   1.367
75663W        W35166  11.306  28.653  13.008
75664W        W35167   1.316   0.882  13.447
75665W        W35168  31.490  44.488  12.993
75666W        W35169   7.689   2.774   1.259
75667W        W35170  33.954  27.652   4.753
75668W        W35171  31.972   7.239   2.736
75669W        W35172  21.033  14.641   0.782
75670W        W35173  41.007   9.832  13.960
75671W        W35174  22.053  20.642  11.963
75672W        W35175  42.418   9.739   1.775
75673W        W35176  30.432  25.679   5.147
75674W        W35177  11.170  30.034  14.327
75675W        W35178  13.750   6.713  11.070
75676W        W35179  33.021  42.516  13.044
75677W        W35180  19.677  42.511  11.410
75678W        W35181   3.362  28.617  13.814
75679W        W35182  16.580  18.586  12.982
75680W        W35183  10.166  23.515   2.363
75681W        W35184  18.088  24.057  12.009
75682W        W35185   6.219  41.882   0.280
75683W        W35186  19.137   3.912  10.533
75684W        W35187  39.337   2.373  10.942
75685W        W35188  25.512  41.488   1.358
75686W        W35189  17.061  19.612   3.739
75687W        W35190  27.492  35.491   4.805
75688W        W35191  32.601   2.287  13.044
75689W        W35192  19.168  25.173  12.403
75690W        W35193  20.183  11.819   0.778
75691W        W35194   4.410  25.027   2.677
75692W        W35195  31.606  21.106   9.935
75693W        W35196  31.993  10.355  10.510
75694W        W35197  40.871  39.848  14.893
75695W        W35198  44.496  40.335  10.025
75696W        W35199  20.171  14.127  14.443
75697W        W35200  15.127  12.268   2.895
75698W        W35201  12.322   3.319  14.274
75699W        W35202  30.645  42.810   4.790
75700W        W35203   0.760  12.627  11.035
75701W        W35204  23.659   4.845  14.937
75702W        W35205  17.114   2.321  14.952
75703W        W35206  21.643  15.269   1.856
75704W        W35207  30.504  41.471  13.834
75705W        W35208   8.341  41.306  14.792
75706W        W35209  11.632  11.628  14.844
75707W        W35210  21.263   4.863   2.396
75708W        W35211   5.835  43.872  11.001
75709W        W35212  29.594  32.456  13.927
75710W        W35213  27.064  35.564  13.830
75711W        W35214   3.261  43.318   1.314
75712W        W35215  32.055  40.031  12.500
75713W        W35216  12.751  37.540   2.197
75714W        W35217  27.581  40.032   1.295
75715W        W35218  42.965  28.015   4.292
75716W        W35219   7.897  42.295   1.808
75717W        W35220  21.226  12.222  11.099
75718W        W35221  41.801  22.168  11.594
75719W        W35222  37.087  10.635   1.792
75720W        W35223  27.166  25.597  10.640
75721W        W35224  34.012  22.230  12.484
75722W        W35225   8.171  35.902   1.820
75723W        W35226  15.786  39.455   0.897
75724W        W35227  26.494  42.483  12.568
75725W        W35228  43.881   0.313  14.492
75726W        W35229  26.143  12.288  12.849
75727W        W35230  20.068   7.830  14.909
75728W        W35231  44.493  10.681   2.723
75729W        W35232  35.390  10.774   4.639
75730W        W35233  37.463   5.823   2.413
75731W        W35234  43.832  30.080   0.442
75732W        W35235  17.177  35.420  10.024
75733W        W35236  44.993  13.254  14.795
75734W        W35237   6.243  29.588  12.861
75735W        W35238  28.633   6.325   1.373
75736W        W35239  15.304   1.253  12.079
75737W        W35240  22.201  19.734  12.993
75738W        W35241  23.702  19.554  13.052
75739W        W35242   3.304  21.722   0.457
75740W        W35243   7.234   0.288  13.454
75741W        W35244  31.036  29.115  14.491
75742W        W35245  43.304  34.497   1.882
75743W        W35246  29.438   2.966  11.066
75744W        W35247  39.434  25.603  11.010
75745W        W35248  35.546   2.726   4.711
75746W        W35249  44.449  36.867  14.359
75747W        W35250  20.587  12.150   0.735
75748W        W35251  22.567   2.878  12.026
75749W        W35252   0.374   0.767  12.854
75750W        W35253  26.994  35.378   1.376
75751W        W35254  44.879  24.081   2.182
75752W        W35255  21.668  14.160   3.765
75753W        W35256   7.798  37.507  11.882
75754W        W35257  28.457   9.247  13.343
75755W        W35258  29.016  39.052  11.101
75756W        W35259  24.102   9.153  14.426
75757W        W35260  39.362  23.177  14.932
75758W        W35261  40.047  34.520   2.827
75759W        W35262  40.926  28.936   1.236
75760W        W35263  30.454  34.874  12.971
75761W        W35264  28.089   4.741   0.310
75762W        W35265   4.718  44.390   5.258
75763W        W35266  44.379  32.445  14.432
75764W        W35267  24.546   9.665   0.799
75765W        W35268  27.948  44.485   3.676
75766W        W35269  12.788  44.788  10.467
75767W        W35270  24.639  16.127   1.916
75768W        W35271  15.187  11.218  14.430
75769W        W35272  39.959   2.436   2.800
75770W        W35273  19.121   6.383   1.889
75771W        W35274  33.015  29.065  10.949
75772W        W35275   1.911   1.769  11.507
75773W        W35276  18.196  13.649  14.858
75774W        W35277  30.475  17.746   0.765
75775W        W35278   9.389  33.577  12.409
75776W        W35279  37.436   4.250  13.422
75777W        W35280  32.891   9.711   0.315
75778W        W35281  33.443  34.985   3.666
75779W        W35282  12.656  14.743   0.783
75780W        W35283  37.426  42.366   4.658
75781W        W35284  16.297  13.327  10.990
75782W        W35285  27.500   6.848  14.798
75783W        W35286  28.069  19.614   2.695
75784W        W35287  36.419   5.273   4.288
75785W        W35288   3.455   9.859   3.367
75786W        W35289  42.453  44.853  14.785
75787W        W35290   4.778  10.775  11.041
75788W        W35291  30.579  44.802   4.834
75789W        W35292  40.813   5.827  12.356
75790W        W35293  41.844   0.377   1.400
75791W        W35294  29.636  41.020   2.759
75792W        W35295  39.041  12.174  13.968
75793W        W35296  37.545  40.500   3.340
75794W        W35297   4.737  39.988   3.245
75795W        W35298  35.891   0.823  13.495
75796W        W35299  42.359  27.031   1.775
75797W        W35300  41.849  34.055  14.974
75798W        W35301  42.830  26.611   4.337
75799W        W35302   3.802   7.719   4.214
75800W        W35303   3.344  24.624   2.255
75801W        W35304  31.559  39.928   2.807
75802W        W35305   6.248  29.550   0.395
75803W        W35306  42.960  35.076  10.528
75804W        W35307  11.702  37.407  14.854
75805W        W35308  35.540  27.061   3.376
75806W        W35309  22.225   8.781  14.827
75807W        W35310   4.713  18.602  11.470
75808W        W35311   3.223  34.516   3.226
75809W        W35312  44.482  42.822  14.374
75810W        W35313  44.492   7.223   4.658
75811W        W35314   0.447  34.586   1.385
75812W        W35315  30.943  26.019   5.634
75813W        W35316  40.398   2.432  11.876
75814W        W35317  42.885  24.173   0.756
75815W        W35318   4.894  23.600   0.402
75816W        W35319  12.770  11.263   2.891
75817W        W35320   5.217  16.627   2.836
75818W        W35321   9.352  44.966  13.487
75819W        W35322  20.063  17.752   1.743
75820W        W35323  21.213  39.404   2.302
75821W        W35324  34.434   2.335  11.083
75822W        W35325  29.060  14.819  11.020
75823W        W35326  18.782   9.335  12.368
75824W        W35327   6.376  30.441  12.352
75825W        W35328   9.751  40.977   0.791
75826W        W35329  14.631   5.727  11.520
75827W        W35330   8.891  35.410   4.122
75828W        W35331  44.004  29.945  14.790
75829W        W35332  30.482  17.061  10.425
75830W        W35333  44.756  34.371   1.838
75831W        W35334  19.744  41.511   1.276
75832W        W35335  34.884  41.525  12.520
75833W        W35336   7.247  15.651  12.398
75834W        W35337   7.760  44.987  13.510
75835W        W35338  31.492  41.512   0.942
75836W        W35339  38.564  28.456  13.544
75837W        W35340  42.893  35.894   2.312
75838W        W35341   5.748  34.074   1.899
75839W        W35342  42.289  18.226  10.897
75840W        W35343  13.183   2.907  13.361
75841W        W35344  18.228  22.202  14.975
75842W        W35345  17.073  17.756  11.939
75843W        W35346  33.915  36.903  12.911
75844W        W35347  30.470   9.769   1.376
75845W        W35348  33.056   8.755  14.005
75846W        W35349   0.905  34.507   4.276
75847W        W35350  38.472   6.843   1.797
75848W        W35351  29.050  33.931   1.909
75849W        W35352   5.738  26.110  11.128
75850W        W35353  26.091  35.551   2.324
75851W        W35354  24.548  12.617  10.579
75852W        W35355  19.086  14.318   0.420
75853W        W35356  28.557   6.191  11.493
75854W        W35357   4.844  17.282  13.327
75855W        W35358  17.140  26.182  10.927
75856W        W35359   2.304  37.859   2.402
75857W        W35360  22.182  23.568   3.196
75858W        W35361  12.124  14.239   3.339
75859W        W35362   8.317  28.453   0.749
75860W        W35363  32.453  35.466   3.342
75861W        W35364  42.391  16.310  14.350
75862W        W35365   4.434  14.590  14.017
75863W        W35366  40.864   6.233   2.360
75864W        W35367   1.939  28.545  13.446
75865W        W35368   2.759  34.097   0.864
75866W        W35369  16.239  36.885  13.445
75867W        W35370   5.884   1.322  11.415
75868W        W35371  17.695  17.278  10.948
75869W        W35372  17.169   2.771   1.926
75870W        W35373  27.137   2.948  13.051
75871W        W35374  16.192  40.389  10.937
75872W        W35375  15.287  33.878  14.474
75873W        W35376   5.216  28.177  14.324
75874W        W35377   3.738  16.795  11.498
75875W        W35378  30.581   0.390   0.787
75876W        W35379   0.872  44.899   3.692
75877W        W35380  17.647  23.187  14.305
75878W        W35381   8.319  14.203  14.985
75879W        W35382  12.701  12.671  12.419
75880W        W35383  15.811  39.411   4.265
75881W        W35384  22.555  21.605   0.957
75882W        W35385  25.555  26.158   0.444
75883W        W35386   0.345  22.093  10.041
75884W        W35387  36.934   5.710  10.019
75885W        W35388   5.309  35.368  10.553
75886W        W35389  19.720   4.442   3.660
75887W        W35390  41.033  13.174   3.151
75888W        W35391  38.338  18.719  10.900
75889W        W35392  15.290  23.647  13.474
75890W        W35393  14.128  10.808  14.952
75891W        W35394  24.200  22.703  12.925
75892W        W35395  20.082   5.874   4.297
75893W        W35396   1.291  14.224  13.860
75894W        W35397  26.509  11.188   1.289
75895W        W35398   9.249  42.468   4.769
75896W        W35399   1.812  10.215  12.930
75897W        W35400  24.997  27.655  10.428
75898W        W35401  39.329  13.720   1.873
75899W        W35402  33.390  32.052   0.303
75900W        W35403  20.150   1.373  13.949
75901W        W35404  26.984  11.235  13.790
75902W        W35405  22.179  20.749  14.892
75903W        W35406  18.115   6.876  12.563
75904W        W35407  37.849  28.152   1.267
75905W        W35408  18.554  11.722  13.481
75906W        W35409  23.509   6.731  11.391
75907W        W35410   6.229   2.880   2.223
75908W        W35411  34.068  14.309   0.425
75909W        W35412  24.030  24.061   5.100
75910W        W35413  40.940  14.713   2.213
75911W        W35414  35.508  38.384  10.569
75912W        W35415   6.381  41.038   4.633
75913W        W35416  31.991   5.882  12.508
75914W        W35417  20.627  43.302   2.340
75915W        W35418  17.139  19.637   3.350
75916W        W35419  17.267  37.354  14.015
75917W        W35420   3.364  20.723  12.041
75918W        W35421  32.909   3.765   0.936
75919W        W35422   1.749  43.275  12.958
75920W        W35423  20.660  11.679  14.952
75921W        W35424  34.380  21.728   1.251
75922W        W35425  25.172  42.979  12.937
75923W        W35426  40.354  42.804   1.221
75924W        W35427  36.510  33.011   2.339
75925W        W35428  24.187   1.905   5.596
75926W        W35429  10.246  32.025   1.809
75927W        W35430  21.552  19.275   4.741
75928W        W35431  27.630  44.782  13.494
75929W        W35432  44.352  31.038  11.920
75930W        W35433  12.701   0.279  11.516
75931W        W35434  11.186  30.474   0.323
75932W        W35435  41.466  17.185   0.915
75933W        W35436  33.538  28.676  11.124
75934W        W35437  27.076  27.483   4.688
75935W        W35438  18.159   5.903   3.762
75936W        W35439  26.518  27.126   2.272
75937W        W35440  26.602  28.002   4.144
75938W        W35441  27.965  22.706  12.534
75939W        W35442  36.532  28.004  11.066
75940W        W35443  38.542   1.911  13.532
75941W        W35444  36.067  19.093  13.332
75942W        W35445  31.922  14.213   1.896
75943W        W35446  17.153  13.321   4.147
75944W        W35447  37.384  38.328   0.357
75945W        W35448  27.123  12.717   4.691
75946W        W35449  40.806  18.134  13.850
75947W        W35450  14.262  39.448  11.087
75948W        W35451  23.198   4.943   4.776
75949W        W35452  17.697  27.103   2.759
75950W        W35453  15.159  10.789   0.797
75951W        W35454  23.647  30.967   4.188
75952W        W35455   6.691  35.902   4.262
75953W        W35456  12.252  39.351   1.777
75954W        W35457  19.152  38.974   1.439
75955W        W35458  32.935   7.290   3.286
75956W        W35459  39.875  39.997  11.944
75957W        W35460  26.497  24.077   4.775
75958W        W35461  18.598  39.392  10.537
75959W        W35462  43.865  20.555  13.014
75960W        W35463  13.193   1.293   2.402
75961W        W35464  31.933  25.058   4.165
75962W        W35465  17.221   5.257   2.286
75963W        W35466  40.837  32.987  14.888
75964W        W35467  12.144  24.541   1.839
75965W        W35468  44.001  20.200  14.809
75966W        W35469  39.495   2.305  12.011
75967W        W35470   3.404  31.934  11.031
75968W        W35471   9.389  33.909   3.330
75969W        W35472  31.004  36.542  13.855
75970W        W35473  17.590  15.643  13.054
75971W        W35474  44.976  21.141   0.332
75972W        W35475  33.058  42.291  10.608
75973W        W35476  22.030  21.586   0.742
75974W        W35477  13.315  31.010   4.128
75975W        W35478   0.923   4.703  12.389
75976W        W35479  31.991  17.593  11.532
75977W        W35480   5.905  40.380  12.497
75978W        W35481   1.327  43.005  14.425
75979W        W35482   6.240  41.473   3.364
75980W        W35483   1.797   2.271  14.780
75981W        W35484  26.650  17.627   3.668
75982W        W35485  18.584  39.349  12.059
75983W        W35486   3.249  34.089  14.925
75984W        W35487  12.720  25.675  14.841
75985W        W35488  31.601  25.629   3.767
75986W        W35489   7.263  37.034  12.056
75987W        W35490  26.520  26.568   2.300
75988W        W35491   8.772  21.535   4.783
75989W        W35492   3.797  17.784  11.558
75990W        W35493  35.034  21.253  13.359
75991W        W35494  11.304  28.592  14.953
75992W        W35495   7.693  27.512  10.950
75993W        W35496   3.422  28.439  10.926
75994W        W35497  10.299   8.253  14.867
75995W        W35498   0.986  18.652  14.896
75996W        W35499   2.387  28.450   0.837
75997W        W35500  30.962  44.383   1.837
75998W        W35501   9.757  42.489  12.895
75999W        W35502  35.958  44.338  14.475
76000W        W35503  11.168  23.230  13.015
76001W        W35504  18.747  14.214  13.375
76002W        W35505   2.742  10.255   4.215
76003W        W35506  35.045  25.125   0.322
76004W        W35507  30.519  30.480  14.837
76005W        W35508  33.116  18.106  13.021
76006W        W35509  27.687  40.407  14.006
76007W        W35510  24.676  32.894   2.691
76008W        W35511   1.292  15.278   1.866
76009W        W35512  24.690  18.629   3.827
76010W        W35513  31.138  15.723   0.403
76011W        W35514  28.040  30.592  12.475
76012W        W35515  31.010  26.670   0.940
76013W        W35516  18.198  26.605  10.030
76014W        W35517  38.062  25.497  11.512
76015W        W35518  32.424  15.816  11.528
76016W        W35519  29.143   1.768  10.534
76017W        W35520  43.434  12.699  11.102
76018W        W35521  34.894   7.680  10.433
76019W        W35522  39.330  44.938  11.086
76020W        W35523  43.476  40.975  14.903
76021W        W35524  11.341  21.083  13.938
76022W        W35525  10.764  17.286  12.488
76023W        W35526  35.905   5.398  11.417
76024W        W35527   8.310  43.858  11.077
76025W        W35528   5.714  13.269  13.307
76026W        W35529  41.856   8.766  11.076
76027W        W35530  35.068  36.522   3.784
76028W        W35531   6.395  21.169   0.829
76029W        W35532  17.214  31.470   2.201
76030W        W35533  33.423  27.045   3.292
76031W        W35534  17.576  38.872   1.817
76032W        W35535   6.845  31.601  12.431
76033W        W35536  31.643  28.125  14.773
76034W        W35537  44.359  10.336   3.165
76035W        W35538   6.698  25.655  10.968
76036W        W35539   4.910   5.716   2.682
76037W        W35540  31.917   5.809  13.327
76038W        W35541  18.552   5.783  14.792
76039W        W35542  11.245  16.301  11.533
76040W        W35543   6.265  35.565   2.388
76041W        W35544  18.214  13.757  12.042
76042W        W35545  11.300  12.350  12.536
76043W        W35546  26.535  36.844   4.709
76044W        W35547  34.006  13.272  12.968
76045W        W35548  15.083   2.791   4.189
76046W        W35549  28.548   9.385  13.862
76047W        W35550  19.062  11.180   2.835
76048W        W35551  27.011  40.847   1.723
76049W        W35552  23.604  27.487   2.785
76050W        W35553  29.647  23.202   0.740
76051W        W35554  34.076  34.466  10.908
76052W        W35555   2.266  27.169   0.867
76053W        W35556  43.952  19.086  12.395
76054W        W35557  11.141  28.940  13.984
76055W        W35558  42.801  12.835  12.069
76056W        W35559   5.399  19.258  12.987
76057W        W35560  12.705  16.705   2.416
76058W        W35561   0.762  16.245  11.940
76059W        W35562  15.720  31.594  11.607
76060W        W35563   9.668   6.731   2.663
76061W        W35564  37.986  33.453   1.316
76062W        W35565  21.064   9.878  10.512
76063W        W35566  33.939  24.721  14.834
76064W        W35567  20.227  21.228   2.180
76065W        W35568  10.300   2.860   1.853
76066W        W35569  36.552  31.499   2.866
76067W        W35570   2.276  16.628  11.575
76068W        W35571  40.931  27.102  12.364
76069W        W35572  17.596  43.271  14.827
76070W        W35573  44.983  25.522   3.691
76071W        W35574  31.513  21.185  14.887
76072W        W35575  33.922  13.808   0.251
76073W        W35576   8.246  43.848  13.326
76074W        W35577  33.581  34.929  12.424
76075W        W35578  25.652   5.334   0.894
76076W        W35579  37.874  29.136  12.517
76077W        W35580  21.247  10.198   1.337
76078W        W35581  13.808  14.315   0.252
76079W        W35582  16.288  33.981  11.950
76080W        W35583   3.955  10.298  11.565
76081W        W35584  28.132   9.239  14.901
76082W        W35585  40.342   0.398   4.698
76083W        W35586  23.195  25.665  10.941
76084W        W35587  31.611  14.132  13.542
76085W        W35588  26.182  11.166   4.182
76086W        W35589  18.069  36.481  11.409
76087W        W35590  40.519  19.060   0.445
76088W        W35591  16.115  31.581   3.783
76089W        W35592  10.327  23.492  14.811
76090W        W35593   8.166  19.048  14.406
76091W        W35594  25.476  30.924  11.049
76092W        W35595  23.020   5.883  13.001
76093W        W35596  22.608   7.827  11.408
76094W        W35597  18.129   1.409   2.898
76095W        W35598  22.593   3.281   4.219
76096W        W35599  28.056  38.027  14.419
76097W        W35600   0.294  31.136  14.981
76098W        W35601  35.493  31.037  13.895
76099W        W35602  16.261  16.164   3.858
76100W        W35603  23.557  44.963   1.730
76101W        W35604  41.382   7.253  12.444
76102W        W35605   5.768  31.557  10.447
76103W        W35606  10.787  19.589   0.480
76104W        W35607  17.263  26.964  10.991
76105W        W35608   0.922  25.142  14.377
76106W        W35609   6.378  14.261  11.107
76107W        W35610  29.501  10.349   3.715
76108W        W35611  12.245  25.112  12.077
76109W        W35612  43.353  30.008   4.740
76110W        W35613  24.584  10.809  12.968
76111W        W35614  34.522   0.790   0.933
76112W        W35615  21.637  23.043   3.215
76113W        W35616   1.425  21.642   4.714
76114W        W35617  43.962   2.435  11.091
76115W        W35618  39.342   4.913   1.935
76116W        W35619   0.858  30.604   3.351
76117W        W35620  44.916  28.070   5.190
76118W        W35621  40.381  34.531  14.327
76119W        W35622  15.577  37.037   1.764
76120W        W35623  15.785   4.889   4.350
76121W        W35624   0.300  18.624   1.723
76122W        W35625  25.971  18.582   0.325
76123W        W35626  43.440   0.873  10.016
76124W        W35627  16.176  25.613   1.812
76125W        W35628   0.788  13.817   4.667
76126W        W35629  12.259  13.771   1.930
76127W        W35630  15.708   6.784  13.062
76128W        W35631  19.190   5.348  11.558
76129W        W35632  16.728  16.802  11.569
76130W        W35633  13.126  36.571   0.260
76131W        W35634  28.172   9.313  10.464
76132W        W35635  29.054   1.738   2.720
76133W        W35636  10.165   5.408   0.260
76134W        W35637  44.845  34.955  14.984
76135W        W35638  35.406  25.046  13.893
76136W        W35639  41.861   0.949  11.108
76137W        W35640  18.117  22.223   4.340
76138NA+    NA+35641  40.989   5.232  12.841
76139NA+    NA+35642  10.742   4.258   1.856
76140NA+    NA+35643  44.901   0.420   1.275
76141NA+    NA+35644   2.345   3.858   3.160
76142NA+    NA+35645  37.496  18.749   5.141
76143NA+    NA+35646  24.615  25.085   1.421
76144NA+    NA+35647  41.817  15.184   2.837
76145NA+    NA+35648  11.334  20.178  13.395
76146NA+    NA+35649   1.271  37.083   1.841
76147NA+    NA+35650  29.518  35.954   0.465
76148NA+    NA+35651  22.615   8.346   0.402
76149NA+    NA+35652   0.743  10.671  10.596
76150NA+    NA+35653  24.566  37.491   3.681
76151NA+    NA+35654   8.208  22.252  11.532
76152NA+    NA+35655   5.335   1.359  13.981
76153NA+    NA+35656  37.512  41.458  14.907
76154NA+    NA+35657  21.527  35.956   2.238
76155NA+    NA+35658  11.302  29.585   5.156
76156NA+    NA+35659  13.319  27.968   4.240
76157NA+    NA+35660  22.719  26.958  12.565
76158NA+    NA+35661  38.515  38.330   0.782
76159NA+    NA+35662  44.384  18.233  11.025
76160NA+    NA+35663  43.957  31.061  14.449
76161NA+    NA+35664   4.294  35.545  12.419
76162NA+    NA+35665   1.732  23.674   2.188
76163NA+    NA+35666  35.981   5.828   2.818
76164NA+    NA+35667  17.302   2.441  10.433
76165NA+    NA+35668  21.558  22.008  14.456
76166NA+    NA+35669   7.716  34.007  11.896
76167NA+    NA+35670   9.719  17.578   1.806
76168NA+    NA+35671  23.715  24.685  10.487
76169NA+    NA+35672  43.400  15.735  14.391
76170NA+    NA+35673  28.465   2.344  13.029
76171NA+    NA+35674  10.201  17.608   4.218
76172NA+    NA+35675  20.272  19.118   0.956
76173NA+    NA+35676  15.684   7.241   2.859
76174NA+    NA+35677  31.124  37.833   3.156
76175NA+    NA+35678  33.381  11.720  14.371
76176NA+    NA+35679  43.410  41.326  14.770
76177NA+    NA+35680  32.011  35.397   2.287
76178NA+    NA+35681  16.723  40.327  14.360
76179NA+    NA+35682   6.851  28.135   3.675
76180NA+    NA+35683  12.771  32.957  11.995
76181NA+    NA+35684  17.288  26.577   2.413
76182NA+    NA+35685   6.811   2.780  11.081
76183NA+    NA+35686  24.662  24.538   4.120
76184NA+    NA+35687  44.904  28.163   2.349
76185NA+    NA+35688  41.874  25.970  13.515
76186NA+    NA+35689  18.779  37.342  14.019
76187NA+    NA+35690   8.212  35.016  13.330
76188NA+    NA+35691  36.549  37.070  14.389
76189NA+    NA+35692   0.751  25.175  13.520
76190NA+    NA+35693  14.219   8.817   5.299
76191NA+    NA+35694   5.423  29.527   0.461
76192NA+    NA+35695  33.458  26.663   1.266
76193NA+    NA+35696  22.160  40.878   4.688
76194NA+    NA+35697   0.952  28.522   4.731
76195NA+    NA+35698  20.065  19.207   0.430
76196NA+    NA+35699  35.955  30.476  14.780
76197NA+    NA+35700  19.257  11.636   1.784
76198NA+    NA+35701  14.180  14.285   2.244
76199NA+    NA+35702  25.613  11.177   4.267
76200NA+    NA+35703   4.447  11.209   0.830
76201NA+    NA+35704  31.094   9.848  13.021
76202NA+    NA+35705  43.373  25.562  11.451
76203NA+    NA+35706   2.721  28.003   9.467
76204NA+    NA+35707  43.940  33.921   1.728
76205NA+    NA+35708  19.246  31.488  13.023
76206NA+    NA+35709  24.660  29.101   3.169
76207NA+    NA+35710  28.549  30.575   1.269
76208NA+    NA+35711  14.830   8.811   2.667
76209NA+    NA+35712   2.411  21.585  11.990
76210NA+    NA+35713  20.537   0.383  14.024
76211NA+    NA+35714  31.982  21.570   0.792
76212NA+    NA+35715  41.320  19.229  14.871
76213NA+    NA+35716  10.642  39.032   3.311
76214NA+    NA+35717  25.067  31.527  11.437
76215NA+    NA+35718  39.492   4.361   5.726
76216NA+    NA+35719  37.035  28.438   1.247
76217NA+    NA+35720  29.918   4.941   1.874
76218NA+    NA+35721  30.461  11.272  12.431
76219NA+    NA+35722  19.056  17.110  14.505
76220NA+    NA+35723  44.352  40.439   1.406
76221NA+    NA+35724  32.062  20.050   3.197
76222NA+    NA+35725  28.468   9.368  14.927
76223NA+    NA+35726   7.240  29.014  13.478
76224NA+    NA+35727  25.081  14.789   0.912
76225NA+    NA+35728  25.469  40.937   0.302
76226NA+    NA+35729  11.632  36.403   1.756
76227NA+    NA+35730  23.728  15.621   2.350
76228NA+    NA+35731  21.252  32.611  13.546
76229NA+    NA+35732  14.640   6.731  11.507
76230NA+    NA+35733  38.354  22.138   3.231
76231NA+    NA+35734  13.645   5.239   4.691
76232NA+    NA+35735  15.108  28.009   2.201
76233NA+    NA+35736  27.643  37.026  13.053
76234NA+    NA+35737   8.186  43.774   0.773
76235NA+    NA+35738  11.270   6.854   0.417
76236NA+    NA+35739  11.345   2.229  11.546
76237NA+    NA+35740  36.935  31.425  14.898
76238NA+    NA+35741  20.162   6.280  10.158
76239NA+    NA+35742  32.395  27.163   0.337
76240NA+    NA+35743  17.738  11.842   3.643
76241NA+    NA+35744   3.733   3.717   3.692
76242NA+    NA+35745  14.278  26.693  10.426
76243NA+    NA+35746   1.817  31.578   3.203
76244NA+    NA+35747   2.962   4.785  11.896
76245NA+    NA+35748   7.215   1.377   3.724
76246NA+    NA+35749  42.941  25.500  12.457
76247NA+    NA+35750  41.012  33.572  12.918
76248NA+    NA+35751  36.994  13.626   3.830
76249NA+    NA+35752  21.055  30.547   0.896
76250NA+    NA+35753  18.682  10.730  12.842
76251NA+    NA+35754  28.116  14.233   1.442
76252NA+    NA+35755  33.410   5.295   1.774
76253NA+    NA+35756  14.316  35.474  11.599
76254NA+    NA+35757  31.589  27.528   0.941
76255NA+    NA+35758  39.346  12.845   2.832
76256NA+    NA+35759  27.659  13.222   4.245
76257NA+    NA+35760   7.751  42.815  14.785
76258NA+    NA+35761   1.476  31.586  11.863
76259NA+    NA+35762  31.908  19.708  11.948
76260NA+    NA+35763  19.173  18.072   4.666
76261NA+    NA+35764  36.862  15.778   4.622
76262NA+    NA+35765  14.218   3.302  10.093
76263NA+    NA+35766   6.763  29.640   2.195
76264NA+    NA+35767  10.737  13.147  11.563
76265NA+    NA+35768  23.192  29.039  10.898
76266NA+    NA+35769   9.809  40.878   3.673
76267NA+    NA+35770  39.375  37.903   4.294
76268NA+    NA+35771  21.125   7.413   2.417
76269NA+    NA+35772   1.763  21.689   4.652
76270NA+    NA+35773  37.930  33.532   1.784
76271NA+    NA+35774  18.215   0.494  13.004
76272NA+    NA+35775  35.026   0.988   0.828
76273NA+    NA+35776  20.568  26.578   4.790
76274NA+    NA+35777   6.322  10.256  10.417
76275NA+    NA+35778  24.533  15.745  14.490
76276NA+    NA+35779  44.324  16.622  14.382
76277NA+    NA+35780  36.904  43.779   3.337
76278NA+    NA+35781  41.796  32.557   2.303
76279NA+    NA+35782  11.803  22.634  11.547
76280NA+    NA+35783  14.200   4.386  14.400
76281NA+    NA+35784  28.606  28.084   1.847
76282NA+    NA+35785  44.983   3.264  10.947
76283NA+    NA+35786  11.185   1.299   3.168
76284NA+    NA+35787  16.709  44.433  11.525
76285NA+    NA+35788  36.859   4.404   3.309
76286NA+    NA+35789   7.286   6.698  14.379
76287NA+    NA+35790  28.094   5.262  12.080
76288NA+    NA+35791  30.087  43.851   3.855
76289NA+    NA+35792  17.201  33.537  12.936
76290NA+    NA+35793  23.114   5.268  10.970
76291NA+    NA+35794  23.993   2.431  14.934
76292NA+    NA+35795  40.522  11.850  11.503
76293NA+    NA+35796  11.239  21.550   2.207
76294NA+    NA+35797   2.767  27.547  13.977
76295NA+    NA+35798   8.740   4.849   4.631
76296NA+    NA+35799   3.298   1.752   4.299
76297NA+    NA+35800  21.103  36.091   3.324
76298NA+    NA+35801  15.742   8.815   3.381
76299NA+    NA+35802  25.486   8.706   0.754
76300NA+    NA+35803  42.449   9.846  11.534
76301NA+    NA+35804  29.594  34.073   2.358
76302NA+    NA+35805   8.799  31.432   4.724
76303NA+    NA+35806  15.695  18.703  10.444
76304NA+    NA+35807   7.241   6.351   0.960
76305NA+    NA+35808  32.493  21.141   2.829
76306NA+    NA+35809   6.283   1.925   3.864
76307NA+    NA+35810   0.456  43.013   3.674
76308NA+    NA+35811  23.591  22.209  13.796
76309NA+    NA+35812  25.064  13.330   1.910
76310NA+    NA+35813   2.295  21.245   5.174
76311NA+    NA+35814  15.105  11.323  11.906
76312NA+    NA+35815  21.743  15.214  14.334
76313NA+    NA+35816   5.711  26.951  13.901
76314NA+    NA+35817   6.365   6.203  12.905
76315NA+    NA+35818  40.905  16.718  10.598
76316NA+    NA+35819   5.435   1.483   4.199
76317NA+    NA+35820  37.460  10.752  12.076
76318NA+    NA+35821  41.469   9.786  10.433
76319NA+    NA+35822  43.330  18.135  11.968
76320NA+    NA+35823  36.002   7.873   0.793
76321NA+    NA+35824  18.765  37.411  12.965
76322NA+    NA+35825  34.909  30.656  14.765
76323NA+    NA+35826  41.035  36.492  14.477
76324NA+    NA+35827  36.859  27.611  14.276
76325NA+    NA+35828  15.586  12.782  11.100
76326NA+    NA+35829  20.647  33.394   2.352
76327NA+    NA+35830  28.943  24.521  13.040
76328NA+    NA+35831   8.206  10.201   3.332
76329NA+    NA+35832   8.329  20.116  11.865
76330NA+    NA+35833  21.155  24.562  11.969
76331NA+    NA+35834  17.571   7.374  10.932
76332NA+    NA+35835  22.075  10.354   2.816
76333NA+    NA+35836   1.814  28.477   5.678
76334NA+    NA+35837  25.004   8.344   3.374
76335NA+    NA+35838  41.478  10.651   0.280
76336NA+    NA+35839  41.967  26.672   1.282
76337NA+    NA+35840  24.117   7.315   1.428
76338NA+    NA+35841  26.654   3.375   1.796
76339NA+    NA+35842  28.934  35.861   2.803
76340NA+    NA+35843  38.912  26.041  11.856
76341NA+    NA+35844  41.420  36.528  11.070
76342NA+    NA+35845  27.499  32.474  14.923
76343NA+    NA+35846  39.958  16.647  10.987
76344NA+    NA+35847  39.550  38.428   2.891
76345NA+    NA+35848   9.817  31.506  13.884
76346NA+    NA+35849   7.335  12.735   9.989
76347NA+    NA+35850  40.330  41.464  11.444
76348NA+    NA+35851  18.711  31.552   0.315
76349NA+    NA+35852   5.759   6.901  14.843
76350NA+    NA+35853   6.345   8.178   0.880
76351NA+    NA+35854  37.898  35.492   0.446
76352NA+    NA+35855  21.716  29.435  14.357
76353NA+    NA+35856  44.005   2.369   4.292
76354NA+    NA+35857  36.420   9.338   0.360
76355NA+    NA+35858  38.885  23.154   0.825
76356NA+    NA+35859  24.642  14.316   0.946
76357NA+    NA+35860  36.958   9.758  12.504
76358NA+    NA+35861  14.624  21.186  13.014
76359NA+    NA+35862  29.170   9.261  14.845
76360NA+    NA+35863  26.478  13.734   2.836
76361NA+    NA+35864  38.397  31.948   3.355
76362NA+    NA+35865  10.372  20.042  11.606
76363NA+    NA+35866  13.255  41.899   1.922
76364NA+    NA+35867  22.026  15.264   1.211
76365NA+    NA+35868  26.463   2.960  10.559
76366NA+    NA+35869  19.061  33.942   1.801
76367NA+    NA+35870  12.340   0.330   3.334
76368NA+    NA+35871  11.868  23.592  10.100
76369NA+    NA+35872  41.942  22.075   2.246
76370NA+    NA+35873  11.153  31.477   3.156
76371NA+    NA+35874  31.467  10.700   5.304
76372NA+    NA+35875  20.208  21.691  13.357
76373NA+    NA+35876   5.278  19.683   4.284
76374NA+    NA+35877  10.171  11.806   1.445
76375NA+    NA+35878  21.563  33.007  12.894
76376NA+    NA+35879   2.814  21.676   3.702
76377NA+    NA+35880   9.163  13.349   2.191
76378NA+    NA+35881  19.690  43.404   3.684
76379NA+    NA+35882  24.709   4.919   0.457
76380NA+    NA+35883  19.757  20.267   3.341
76381NA+    NA+35884   3.935   4.252  13.334
76382NA+    NA+35885  39.875  15.264  14.913
76383NA+    NA+35886  23.004   2.781   4.620
76384NA+    NA+35887  31.556  35.987   9.588
76385NA+    NA+35888  37.989  20.195   0.830
76386NA+    NA+35889  42.354   9.240   3.340
76387NA+    NA+35890  36.947  37.830   0.397
76388NA+    NA+35891  23.026  23.198  13.351
76389NA+    NA+35892  35.519   4.815  10.981
76390NA+    NA+35893  12.641   9.874   2.765
76391NA+    NA+35894  14.270  28.435  12.920
76392NA+    NA+35895  33.074  18.590   3.214
76393NA+    NA+35896  15.144  33.007  12.970
76394NA+    NA+35897  44.437  36.883  11.533
76395NA+    NA+35898  22.202  33.403   0.297
76396NA+    NA+35899  25.169   1.857  10.633
76397NA+    NA+35900  19.715  15.820   1.447
76398NA+    NA+35901  12.347  33.087   1.247
76399NA+    NA+35902  36.947   3.860  10.509
76400NA+    NA+35903  16.728  17.766   1.759
76401NA+    NA+35904   9.353  41.294  14.953
76402NA+    NA+35905  28.503  40.357   4.122
76403NA+    NA+35906  37.839  36.950  10.472
76404NA+    NA+35907  32.021   0.802  11.971
76405NA+    NA+35908  42.349  44.952  13.483
76406NA+    NA+35909  32.100  15.324   0.467
76407NA+    NA+35910  30.030  29.071   1.225
76408NA+    NA+35911  33.564  17.654   2.240
76409NA+    NA+35912   4.287  39.393  11.877
76410NA+    NA+35913  38.529  19.591   2.317
76411NA+    NA+35914   1.953   3.436   0.835
76412NA+    NA+35915  30.958  41.993  13.308
76413NA+    NA+35916   9.848  38.338  13.871
76414NA+    NA+35917   4.216  40.473  14.392
76415NA+    NA+35918  43.451  14.681  10.497
76416NA+    NA+35919  17.122  16.615  13.903
76417NA+    NA+35920  13.632   6.826  11.387
76418NA+    NA+35921  18.083  31.101   1.911
76419NA+    NA+35922  17.748  13.724  11.425
76420NA+    NA+35923  29.566   2.316  12.925
76421NA+    NA+35924  29.030   5.749  10.511
76422NA+    NA+35925  38.388  35.100   1.707
76423NA+    NA+35926  40.382  16.656   0.321
76424NA+    NA+35927   6.717  39.468  14.415
76425NA+    NA+35928  10.655  13.105  12.949
76426NA+    NA+35929  16.626  20.538   0.453
76427NA+    NA+35930  15.812   4.412  10.472
76428NA+    NA+35931  34.046   8.844  12.404
76429NA+    NA+35932  30.912  32.561   4.644
76430NA+    NA+35933   4.773   8.228  13.308
76431NA+    NA+35934  24.551  22.065   0.425
76432NA+    NA+35935   5.223  12.689  13.383
76433NA+    NA+35936  34.586  26.601  13.007
76434NA+    NA+35937   4.290  17.703   2.819
76435NA+    NA+35938  23.722  15.209  10.632
76436NA+    NA+35939  36.558  30.491  11.961
76437NA+    NA+35940  26.176   0.898   1.851
76438NA+    NA+35941  11.270  21.627   3.789
76439NA+    NA+35942  39.873  21.044  13.916
76440NA+    NA+35943  26.554   9.352   0.362
76441NA+    NA+35944  26.990  32.929   1.849
76442NA+    NA+35945  29.606  33.981  13.917
76443NA+    NA+35946   1.307  31.068  11.918
76444NA+    NA+35947   4.265  27.529   4.643
76445NA+    NA+35948  17.143  11.297  12.402
76446NA+    NA+35949  33.585  34.105  12.887
76447NA+    NA+35950  23.723  27.650   0.964
76448NA+    NA+35951  13.139  22.202  13.366
76449NA+    NA+35952  11.780  15.783  12.916
76450NA+    NA+35953  13.746  38.395   1.706
76451NA+    NA+35954  37.956  24.193   2.278
76452NA+    NA+35955   7.898   1.770  10.501
76453NA+    NA+35956  11.767  43.913   0.433
76454NA+    NA+35957   5.872  23.241  10.572
76455NA+    NA+35958   8.300  29.942  13.309
76456NA+    NA+35959  16.125   9.174   4.239
76457NA+    NA+35960   3.249  35.574   3.672
76458NA+    NA+35961  13.320  39.898   2.830
76459NA+    NA+35962  33.430  44.004   0.878
76460NA+    NA+35963  16.572  28.062  11.580
76461NA+    NA+35964  18.191   2.240  14.479
76462NA+    NA+35965  38.845  31.475  13.815
76463NA+    NA+35966  40.834  35.526  11.542
76464NA+    NA+35967  17.731   8.164  12.573
76465NA+    NA+35968  13.184  32.998  10.417
76466NA+    NA+35969  10.361   7.406   2.739
76467NA+    NA+35970   2.416  28.964   0.875
76468NA+    NA+35971  39.810  19.284  13.320
76469NA+    NA+35972  40.855  17.278   3.696
76470NA+    NA+35973  37.033  38.859  14.374
76471NA+    NA+35974   8.696  14.651   0.441
76472NA+    NA+35975  26.615   6.370  12.513
76473NA+    NA+35976  17.754  24.659   4.299
76474NA+    NA+35977   8.817   3.939  10.601
76475NA+    NA+35978  18.150   0.369   1.312
76476NA+    NA+35979  34.609   1.256  11.495
76477NA+    NA+35980  34.453  15.295   2.215
76478NA+    NA+35981   0.754  38.839   5.198
76479NA+    NA+35982  30.436   4.848   2.353
76480NA+    NA+35983  38.960  22.241   1.319
76481NA+    NA+35984  22.545  15.213   0.251
76482NA+    NA+35985  43.010   1.961  10.916
76483NA+    NA+35986  24.095  40.945  14.024
76484NA+    NA+35987   0.772  35.871   3.662
76485NA+    NA+35988  15.745  27.623   4.695
76486NA+    NA+35989   5.760  44.765  12.478
76487NA+    NA+35990  31.959  33.428  10.497
76488NA+    NA+35991  42.805  36.487  11.090
76489NA+    NA+35992  29.613  11.662   3.338
76490NA+    NA+35993   4.703  17.194  12.948
76491NA+    NA+35994  17.618  43.349  12.393
76492NA+    NA+35995  38.466  30.598  13.468
76493NA+    NA+35996  31.494  19.642   5.207
76494NA+    NA+35997  26.591   8.813  11.992
76495NA+    NA+35998  31.975  26.114  13.529
76496NA+    NA+35999  28.596  32.034  13.875
76497NA+    NA+36000   7.810  33.384  11.945
76498NA+    NA+36001  44.872  29.656  11.503
76499NA+    NA+36002  44.778  41.855   0.823
76500NA+    NA+36003  10.681  44.847   3.669
76501NA+    NA+36004   1.460  24.117  12.526
76502NA+    NA+36005  27.489   0.303  10.123
76503NA+    NA+36006  31.584   9.677  12.005
76504NA+    NA+36007  17.141  17.143   0.418
76505NA+    NA+36008  40.363  15.614  14.913
76506NA+    NA+36009   8.303  31.409  14.937
76507NA+    NA+36010  21.089   1.850   1.898
76508NA+    NA+36011  25.009  22.251  11.438
76509NA+    NA+36012  32.453  40.310  10.619
76510NA+    NA+36013  29.009   2.828   2.693
76511NA+    NA+36014  22.169  19.043   2.902
76512NA+    NA+36015   0.461  22.087   1.719
76513NA+    NA+36016  26.145  30.538   2.704
76514NA+    NA+36017   8.194  16.760   9.942
76515NA+    NA+36018  39.991  41.821  14.762
76516NA+    NA+36019   2.393   6.372   2.337
76517NA+    NA+36020  33.433  32.954  13.440
76518NA+    NA+36021  16.724   1.470   3.658
76519NA+    NA+36022   7.876  35.911  12.037
76520NA+    NA+36023  23.237  25.496  14.769
76521NA+    NA+36024   0.439  19.059   0.763
76522NA+    NA+36025  16.617  35.421   4.790
76523NA+    NA+36026  15.672  21.154   4.679
76524NA+    NA+36027  38.441  10.735   3.320
76525NA+    NA+36028  16.689  21.134   0.834
76526NA+    NA+36029  19.150  13.164  10.961
76527NA+    NA+36030  17.624   2.468  12.884
76528NA+    NA+36031  28.676   8.248  14.773
76529NA+    NA+36032  11.818  11.637  11.541
76530NA+    NA+36033   3.264   0.407  11.928
76531NA+    NA+36034  35.478  34.566   0.775
76532NA+    NA+36035  19.720   8.856  14.312
76533NA+    NA+36036  22.701  28.564   2.854
76534NA+    NA+36037  30.104   6.258   3.334
76535NA+    NA+36038   5.430   5.432   2.206
76536NA+    NA+36039   4.253  10.798  10.991
76537NA+    NA+36040  13.316  34.559  13.395
76538NA+    NA+36041   2.298   6.819   2.325
76539NA+    NA+36042  27.691  28.114  12.426
76540NA+    NA+36043  16.263  29.982   1.377
76541NA+    NA+36044  22.153  29.483  11.553
76542NA+    NA+36045  28.980  13.170  13.464
76543NA+    NA+36046  34.947   9.311  12.901
76544NA+    NA+36047  38.060   0.845  14.390
76545NA+    NA+36048  38.484   9.765   0.283
76546NA+    NA+36049  16.258  31.153   2.277
76547NA+    NA+36050   6.699  29.082  12.503
76548NA+    NA+36051  33.418  31.592   3.840
76549NA+    NA+36052  42.412  30.427  10.498
76550NA+    NA+36053   6.195  34.477   4.253
76551NA+    NA+36054  37.027  10.849  12.533
76552NA+    NA+36055  26.151  33.925   3.261
76553NA+    NA+36056  43.988   7.675   2.760
76554NA+    NA+36057  26.678  15.156   2.719
76555NA+    NA+36058  30.971  28.149   2.333
76556NA+    NA+36059  32.465   8.861  11.507
76557NA+    NA+36060  11.822  15.193  11.025
76558NA+    NA+36061  41.958  15.192   3.338
76559NA+    NA+36062  24.063   0.353   1.830
76560NA+    NA+36063   1.478  25.567  13.025
76561NA+    NA+36064   4.889  18.068  14.352
76562NA+    NA+36065   4.748  25.050  10.031
76563NA+    NA+36066   0.388   7.356  11.077
76564NA+    NA+36067   5.825  30.140  11.907
76565NA+    NA+36068   9.838  33.576   3.234
76566NA+    NA+36069   0.907   5.864  13.873
76567NA+    NA+36070  20.753  38.503   0.953
76568NA+    NA+36071  24.675  31.992  13.011
76569NA+    NA+36072  22.080   4.838   0.481
76570NA+    NA+36073  27.671  22.584   3.326
76571NA+    NA+36074  36.080   1.363   1.297
76572NA+    NA+36075  36.479   3.352   5.084
76573NA+    NA+36076   3.363  23.550  11.907
76574NA+    NA+36077  22.618  23.610  14.806
76575NA+    NA+36078   8.763   1.391  11.004
76576NA+    NA+36079  36.411  26.188   2.388
76577NA+    NA+36080  38.862  34.398   1.368
76578NA+    NA+36081  33.117  23.598   4.184
76579NA+    NA+36082  10.251   9.184   4.733
76580NA+    NA+36083  23.206   1.863   1.260
76581NA+    NA+36084   8.329  34.542   3.729
76582NA+    NA+36085  11.302   2.730  14.294
76583NA+    NA+36086  26.645   7.864   2.261
76584NA+    NA+36087  32.429  40.029  13.460
76585NA+    NA+36088  40.905  21.249  14.819
76586NA+    NA+36089  32.106   8.900   4.600
76587NA+    NA+36090  29.933  19.137  11.994
76588NA+    NA+36091  35.051  39.854  10.484
76589NA+    NA+36092  25.638  31.556   3.726
76590NA+    NA+36093  37.368  16.780   2.206
76591NA+    NA+36094   7.882  30.559  11.875
76592NA+    NA+36095  11.319  15.749  12.558
76593NA+    NA+36096  15.113  38.549  14.865
76594NA+    NA+36097  14.632  16.755   2.384
76595NA+    NA+36098  20.764   0.289   5.696
76596NA+    NA+36099   7.295   6.233  11.048
76597NA+    NA+36100  22.248  43.405   0.777
76598NA+    NA+36101   1.291  10.228  11.578
76599NA+    NA+36102  38.499  14.175   2.717
76600NA+    NA+36103  44.284  16.248   1.399
76601NA+    NA+36104   6.276   4.828  11.013
76602NA+    NA+36105  35.989   4.254  14.912
76603NA+    NA+36106  44.468  17.131  10.561
76604NA+    NA+36107   8.262   2.888   4.176
76605NA+    NA+36108  36.095  34.378  13.338
76606NA+    NA+36109  20.656   5.338   2.400
76607NA+    NA+36110  19.649   8.702  13.914
76608NA+    NA+36111  15.146  37.486   0.869
76609NA+    NA+36112  23.091  32.026   4.769
76610NA+    NA+36113  40.029   3.288   3.687
76611NA+    NA+36114  41.516  21.018   1.216
76612NA+    NA+36115   0.955  34.065   4.634
76613NA+    NA+36116  20.720  10.636   0.350
76614NA+    NA+36117  15.262  28.025   4.180
76615NA+    NA+36118  22.704  27.991   2.692
76616NA+    NA+36119  15.290  12.760  11.033
76617NA+    NA+36120  37.572  39.529  12.928
76618NA+    NA+36121  35.423   8.383  14.309
76619NA+    NA+36122  12.138   3.837   1.726
76620NA+    NA+36123   3.891  21.567   2.243
76621NA+    NA+36124   3.853  21.258   3.631
76622NA+    NA+36125  28.930  18.268  11.090
76623NA+    NA+36126   8.819  16.106  13.391
76624NA+    NA+36127   4.429  37.041  13.328
76625NA+    NA+36128  42.933  11.199  11.089
76626NA+    NA+36129  33.480  14.736   1.934
76627NA+    NA+36130  19.737  15.233  10.434
76628NA+    NA+36131   1.277  39.820  13.926
76629NA+    NA+36132  11.251  29.019  12.457
76630NA+    NA+36133  22.048  27.620  10.532
76631NA+    NA+36134  16.199  21.169   0.281
76632NA+    NA+36135  15.307   0.931  10.448
76633NA+    NA+36136  16.208   5.710  13.999
76634NA+    NA+36137  27.140   3.755  13.334
76635NA+    NA+36138  41.374   2.307  11.515
76636NA+    NA+36139  10.656  41.819   0.354
76637NA+    NA+36140   3.273  18.134   3.172
76638NA+    NA+36141  44.306  25.663   0.243
76639NA+    NA+36142  23.636  38.545  12.929
76640NA+    NA+36143  13.298  18.060   0.380
76641NA+    NA+36144  10.692  27.077   0.255
76642NA+    NA+36145  44.922  33.006  13.834
76643NA+    NA+36146  30.559  25.617   3.718
76644NA+    NA+36147  34.118  26.112  13.893
76645NA+    NA+36148  43.339  43.312  13.430
76646NA+    NA+36149  23.546  39.492   4.233
76647NA+    NA+36150  10.830   2.841  11.481
76648NA+    NA+36151  16.608  15.276   4.793
76649NA+    NA+36152  29.468  43.430   0.879
76650NA+    NA+36153  35.045  37.928  13.376
76651NA+    NA+36154  31.569  23.229  14.919
76652NA+    NA+36155  37.937  26.066  11.383
76653NA+    NA+36156  30.066  24.499  12.410
76654NA+    NA+36157  25.704  37.048   2.233
76655NA+    NA+36158  15.091  35.880  12.554
76656NA+    NA+36159   1.474   4.303  12.572
76657NA+    NA+36160  17.571  30.015   3.160
76658NA+    NA+36161  15.769  21.540  11.581
76659NA+    NA+36162  35.893  20.110  12.949
76660NA+    NA+36163   7.753  15.280  14.988
76661NA+    NA+36164   7.823  41.407  10.153
76662NA+    NA+36165  13.776   7.861  13.519
76663NA+    NA+36166  15.662  32.600  12.954
76664NA+    NA+36167  25.029  19.100  10.527
76665NA+    NA+36168   3.264  21.184   1.772
76666NA+    NA+36169  30.080  28.605   3.730
76667NA+    NA+36170   0.248   9.383  10.467
76668NA+    NA+36171   4.246  12.340  13.049
76669NA+    NA+36172  40.401  12.292   3.162
76670NA+    NA+36173   5.708  26.121  14.279
76671NA+    NA+36174  11.257  36.346   0.929
76672NA+    NA+36175   6.745  16.670  14.978
76673NA+    NA+36176  19.633  20.693   1.276
76674NA+    NA+36177   4.924  40.936  10.560
76675NA+    NA+36178  40.053  25.974   2.758
76676NA+    NA+36179  37.949  26.963   4.806
76677NA+    NA+36180  39.031  29.649  14.781
76678NA+    NA+36181  13.174  23.554   4.648
76679NA+    NA+36182  21.587  39.815  14.881
76680NA+    NA+36183   3.799  25.506  12.084
76681NA+    NA+36184  15.159  36.013  14.014
76682NA+    NA+36185  25.636  14.784   3.680
76683NA+    NA+36186  35.004  12.341   4.791
76684NA+    NA+36187   5.744  40.426  13.334
76685NA+    NA+36188   7.252  39.010  14.511
76686NA+    NA+36189  43.796  34.104  13.529
76687NA+    NA+36190  25.202  15.733  12.038
76688NA+    NA+36191  27.103  40.852   4.638
76689NA+    NA+36192  29.536  22.519  11.023
76690NA+    NA+36193  15.658  38.438   4.355
76691NA+    NA+36194  29.932  30.413   0.746
76692NA+    NA+36195  31.498  21.535   1.417
76693NA+    NA+36196   8.350  36.393   4.735
76694NA+    NA+36197  44.861  37.045   1.271
76695NA+    NA+36198  34.969  18.642  14.841
76696NA+    NA+36199  18.259  41.013   3.172
76697NA+    NA+36200  29.485  21.642   4.128
76698NA+    NA+36201   4.322  40.323  11.497
76699NA+    NA+36202  20.235  29.464  11.987
76700NA+    NA+36203  41.414   0.493  11.593
76701NA+    NA+36204  31.993  44.823   4.260
76702NA+    NA+36205  34.435  26.554   0.277
76703NA+    NA+36206   5.264   4.712  12.580
76704NA+    NA+36207   4.439  27.615   3.308
76705NA+    NA+36208   0.909  15.671  13.313
76706NA+    NA+36209   4.874  10.863   2.768
76707NA+    NA+36210   0.321   0.792  10.598
76708NA+    NA+36211  18.585  39.040   0.382
76709NA+    NA+36212  24.622  31.524  14.304
76710NA+    NA+36213  19.562  37.847  13.881
76711NA+    NA+36214  31.956   9.772   3.630
76712NA+    NA+36215  23.517  27.026  13.353
76713NA+    NA+36216  19.774  32.038   4.227
76714NA+    NA+36217  31.936  36.520   3.222
76715NA+    NA+36218  15.106  21.099  12.454
76716NA+    NA+36219  19.162  36.439   1.845
76717NA+    NA+36220  37.574  26.018   1.701
76718NA+    NA+36221  33.403   5.812  10.033
76719NA+    NA+36222  36.979  43.819  11.524
76720NA+    NA+36223  37.911  27.463   3.638
76721NA+    NA+36224  12.167   8.755   1.236
76722NA+    NA+36225   9.345  34.589  14.448
76723NA+    NA+36226  31.542  35.024  10.941
76724NA+    NA+36227  19.121   9.772  12.016
76725NA+    NA+36228  33.389  43.280   3.239
76726NA+    NA+36229   8.374  11.809   0.746
76727NA+    NA+36230  26.623   0.856   5.585
76728NA+    NA+36231  14.816  11.740   4.736
76729NA+    NA+36232  17.244  13.153  14.353
76730NA+    NA+36233   0.969  19.154   3.346
76731NA+    NA+36234  14.741  14.284  10.567
76732NA+    NA+36235   8.843  28.469  14.959
76733NA+    NA+36236   2.455  35.873  11.474
76734NA+    NA+36237  39.058  36.960  14.930
76735NA+    NA+36238  34.051  25.035  11.021
76736NA+    NA+36239  15.163  26.463   3.777
76737NA+    NA+36240  27.036  29.451   0.301
76738NA+    NA+36241  19.687  34.080   1.743
76739NA+    NA+36242  23.155  23.188  14.761
76740NA+    NA+36243  23.618  10.795  13.050
76741NA+    NA+36244   9.782  37.530   2.278
76742NA+    NA+36245  34.561  38.426   3.175
76743NA+    NA+36246  31.465  44.448   1.847
76744NA+    NA+36247  22.580  18.653  13.894
76745NA+    NA+36248  20.243  30.517   3.325
76746NA+    NA+36249   5.430  12.204   2.895
76747NA+    NA+36250  22.101  39.528   1.731
76748NA+    NA+36251   9.850  37.966  12.397
76749NA+    NA+36252  35.029  38.407   9.458
76750NA+    NA+36253  10.197   2.420   2.716
76751NA+    NA+36254  31.946   4.275   2.334
76752NA+    NA+36255   4.897   7.840  11.475
76753NA+    NA+36256  30.003  27.093   0.329
76754NA+    NA+36257   5.247  28.532   9.660
76755NA+    NA+36258  16.657  12.217  14.855
76756NA+    NA+36259  15.231   7.284  12.569
76757NA+    NA+36260   7.667  29.956   3.285
76758NA+    NA+36261  34.921   7.240   4.283
76759NA+    NA+36262  26.139  39.350  13.890
76760NA+    NA+36263  29.085  32.580   1.697
76761NA+    NA+36264  34.373   0.922   4.797
76762NA+    NA+36265  15.096   2.241   4.222
76763NA+    NA+36266  11.134  30.478   4.752
76764NA+    NA+36267  30.552   7.370   0.380
76765NA+    NA+36268  40.024  12.269   4.781
76766NA+    NA+36269   8.264  32.482   1.919
76767NA+    NA+36270  35.066  40.327   1.404
76768NA+    NA+36271  14.127  19.657   4.813
76769NA+    NA+36272  11.826  12.158  12.462
76770NA+    NA+36273  25.491  23.990   0.407
76771NA+    NA+36274  40.849  44.769  13.383
76772NA+    NA+36275  42.777  32.978  12.398
76773NA+    NA+36276  28.612  13.137   9.934
76774NA+    NA+36277  17.744  32.029  11.470
76775NA+    NA+36278   3.844  39.486   3.711
76776NA+    NA+36279  15.088  18.184   2.858
76777NA+    NA+36280  22.747  37.500   3.377
76778NA+    NA+36281  27.058  17.251  14.881
76779NA+    NA+36282  27.518  21.231   2.893
76780NA+    NA+36283  31.564  37.975   1.295
76781NA+    NA+36284  44.478  27.512   1.363
76782NA+    NA+36285   2.924  11.322   1.384
76783NA+    NA+36286  43.357  22.611   3.227
76784NA+    NA+36287   9.658  23.733   2.741
76785NA+    NA+36288  18.275   7.272  12.953
76786NA+    NA+36289  12.683   3.871  12.061
76787NA+    NA+36290   0.810  16.287   2.734
76788NA+    NA+36291  26.997  30.552   2.277
76789NA+    NA+36292  36.031  31.556   1.379
76790NA+    NA+36293  41.006  36.940  10.587
76791NA+    NA+36294  30.654   2.304   4.808
76792NA+    NA+36295  35.994  27.982   0.303
76793NA+    NA+36296   6.227  43.020   2.667
76794NA+    NA+36297  14.168   4.442   1.774
76795NA+    NA+36298  14.597  12.328   0.737
76796NA+    NA+36299  14.306  20.591  12.456
76797NA+    NA+36300  37.421   4.388  11.420
76798NA+    NA+36301  42.458  25.657  14.986
76799NA+    NA+36302  21.704  35.383   4.817
76800NA+    NA+36303  25.028  36.999   2.787
76801NA+    NA+36304  33.411   0.369  12.015
76802NA+    NA+36305  27.610   8.729  12.491
76803NA+    NA+36306  42.824   0.822   3.865
76804NA+    NA+36307  35.373   7.773  13.939
76805NA+    NA+36308   8.741  33.570   5.308
76806NA+    NA+36309   1.776   0.859   1.217
76807NA+    NA+36310   7.824  18.734  14.901
76808NA+    NA+36311  10.695  44.998   2.661
76809NA+    NA+36312  34.049  40.797   4.328
76810NA+    NA+36313  28.999  12.794  12.510
76811NA+    NA+36314  11.344  25.490   2.758
76812NA+    NA+36315  28.101  36.994  11.963
76813NA+    NA+36316  38.821  12.856   1.365
76814NA+    NA+36317  36.427  30.140  13.967
76815NA+    NA+36318  27.078  29.163  12.836
76816NA+    NA+36319  29.629   2.849  13.501
76817NA+    NA+36320  13.217   8.176  11.493
76818NA+    NA+36321  24.606   9.839   0.257
76819NA+    NA+36322  14.791  12.835   4.199
76820NA+    NA+36323   6.782  21.674   0.787
76821NA+    NA+36324  44.908   0.762  11.984
76822NA+    NA+36325   1.457  24.996  11.582
76823NA+    NA+36326  32.996  19.215  11.087
76824NA+    NA+36327  20.219  26.635  11.601
76825NA+    NA+36328   9.749  30.044  14.939
76826NA+    NA+36329   5.427  22.681  10.904
76827NA+    NA+36330   9.796  18.192   1.770
76828NA+    NA+36331  23.537   0.434  10.895
76829NA+    NA+36332  14.131  12.670   4.639
76830NA+    NA+36333  35.985  33.450   0.914
76831NA+    NA+36334  20.715  21.595   1.865
76832NA+    NA+36335  43.989  22.640   5.133
76833NA+    NA+36336   7.889  29.647  13.875
76834NA+    NA+36337  35.473  15.219   4.281
76835NA+    NA+36338  28.527  13.804  13.501
76836NA+    NA+36339   5.714  20.629   4.168
76837NA+    NA+36340  41.960  30.498  12.960
76838NA+    NA+36341   5.851   6.697   2.225
76839NA+    NA+36342   5.903  10.236   3.336
76840NA+    NA+36343  32.535  39.860  14.873
76841NA+    NA+36344   3.834   1.853  14.769
76842NA+    NA+36345  26.649  14.226  11.107
76843NA+    NA+36346  19.162  35.952  14.509
76844NA+    NA+36347   2.832   1.758   0.922
76845NA+    NA+36348  41.523   1.840  13.930
76846NA+    NA+36349  22.156  19.129   2.368
76847NA+    NA+36350   5.868  35.601  13.342
76848NA+    NA+36351  18.681  28.674   2.874
76849NA+    NA+36352  22.675  42.520   1.851
76850NA+    NA+36353  43.433  11.146  14.436
76851NA+    NA+36354  36.495   5.352  11.604
76852NA+    NA+36355   4.237  43.928  11.895
76853NA+    NA+36356  21.691  16.267   3.684
76854NA+    NA+36357   4.429   2.347  14.402
76855NA+    NA+36358   5.243  32.983   0.426
76856NA+    NA+36359  17.174  24.091   1.766
76857NA+    NA+36360  28.960   5.309  12.047
76858NA+    NA+36361   7.767  15.719  13.995
76859NA+    NA+36362  33.959  42.779  11.981
76860NA+    NA+36363  19.133   9.325   4.213
76861NA+    NA+36364  13.814  15.636   2.863
76862NA+    NA+36365  30.606   9.189  13.544
76863NA+    NA+36366  24.620  10.781   4.696
76864NA+    NA+36367  32.012  13.347  14.420
76865NA+    NA+36368  12.646  28.618  12.530
76866NA+    NA+36369  25.109  40.438  13.500
76867NA+    NA+36370  36.884  17.575  13.375
76868NA+    NA+36371  27.071  26.149  10.437
76869NA+    NA+36372  14.770  28.973   0.383
76870NA+    NA+36373  19.754  26.625   2.781
76871NA+    NA+36374  29.116  19.266  13.956
76872NA+    NA+36375  37.999  42.326   3.164
76873NA+    NA+36376  43.932  14.099   2.250
76874NA+    NA+36377   9.859  10.784  11.390
76875NA+    NA+36378  31.113  23.631   2.383
76876NA+    NA+36379  11.755  28.169   1.347
76877NA+    NA+36380  12.230  18.680  11.988
76878NA+    NA+36381  16.193  27.685   4.183
76879NA+    NA+36382   2.950  26.145  10.965
76880NA+    NA+36383   1.785  19.112  10.437
76881NA+    NA+36384  16.755  36.908   0.401
76882NA+    NA+36385   0.301  24.705   5.779
76883NA+    NA+36386  28.995   5.434   1.232
76884NA+    NA+36387  12.639  15.160  12.903
76885NA+    NA+36388  38.979  13.208  14.834
76886NA+    NA+36389  14.787  23.702  11.856
76887NA+    NA+36390   3.230  42.393  13.521
76888NA+    NA+36391  39.489  29.980   3.673
76889NA+    NA+36392  30.503  29.983   3.324
76890NA+    NA+36393  43.971  30.462  11.535
76891NA+    NA+36394  27.074  28.137  10.641
76892NA+    NA+36395  30.919  16.289   4.706
76893NA+    NA+36396   6.894  22.621  10.998
76894NA+    NA+36397  32.395  28.470  10.982
76895NA+    NA+36398   6.406  39.928  13.008
76896NA+    NA+36399   3.228   5.898  12.984
76897NA+    NA+36400  43.457  15.588   1.231
76898NA+    NA+36401  30.416  44.297  11.031
76899NA+    NA+36402   8.703  27.115   3.201
76900NA+    NA+36403   2.231  10.820  12.415
76901NA+    NA+36404  34.078   9.805   4.312
76902NA+    NA+36405  39.975  30.046   0.461
76903NA+    NA+36406  22.577  28.975   1.825
76904NA+    NA+36407  43.510  16.117   4.657
76905NA+    NA+36408   9.752  37.905  13.365
76906NA+    NA+36409  18.213   7.856  10.629
76907NA+    NA+36410  24.680  36.470  14.904
76908NA+    NA+36411  28.032  27.457   0.294
76909NA+    NA+36412   4.771   6.326   1.249
76910NA+    NA+36413   0.965  44.989   0.468
76911NA+    NA+36414  14.717  31.415  13.330
76912NA+    NA+36415  43.868  43.915  11.591
76913NA+    NA+36416   7.309   4.722  11.103
76914NA+    NA+36417   5.741  43.813  10.431
76915NA+    NA+36418  21.745  16.287   4.634
76916NA+    NA+36419  35.944  26.661  13.981
76917NA+    NA+36420  28.466   2.967  11.888
76918NA+    NA+36421  20.159  44.870  14.772
76919NA+    NA+36422  36.949   7.342   1.307
76920NA+    NA+36423  13.155   4.937  10.888
76921NA+    NA+36424  17.692   0.431  10.411
76922NA+    NA+36425  14.712  13.207  14.917
76923NA+    NA+36426  14.793  43.790  14.810
76924NA+    NA+36427  13.349  14.778   2.226
76925NA+    NA+36428  26.485  33.586  11.919
76926NA+    NA+36429  17.600  21.147   0.892
76927NA+    NA+36430  32.098  44.876   4.650
76928NA+    NA+36431  40.829  11.239  11.090
76929NA+    NA+36432  14.279  29.066   1.775
76930NA+    NA+36433  43.825  10.761   3.150
76931NA+    NA+36434   3.938  23.588   2.719
76932NA+    NA+36435  10.268  26.512  13.387
76933NA+    NA+36436  19.190  26.598  10.502
76934NA+    NA+36437  25.600   6.854   4.276
76935NA+    NA+36438  44.451   7.354   3.318
76936NA+    NA+36439  21.746  15.134   0.792
76937NA+    NA+36440  23.581  32.502  11.561
76938NA+    NA+36441   5.277  34.023   2.180
76939NA+    NA+36442  33.584   5.399  10.042
76940NA+    NA+36443  43.389  28.528   4.770
76941NA+    NA+36444  42.836  27.110   1.321
76942NA+    NA+36445   1.355  34.478   2.351
76943NA+    NA+36446   1.346  23.639   0.293
76944NA+    NA+36447   7.747  22.674  13.399
76945NA+    NA+36448  15.107  25.042   3.843
76946NA+    NA+36449  35.508   4.301  11.372
76947NA+    NA+36450  11.172   2.298  12.572
76948NA+    NA+36451   1.882  19.113  13.993
76949NA+    NA+36452   3.907  11.261  10.560
76950NA+    NA+36453  17.241  24.501  14.490
76951NA+    NA+36454  21.251  26.630  11.955
76952NA+    NA+36455  34.454   2.428   1.932
76953NA+    NA+36456   8.377  37.870   1.920
76954NA+    NA+36457  20.694  23.030  14.002
76955NA+    NA+36458  27.681   5.195   2.866
76956NA+    NA+36459  15.152  31.479  14.420
76957NA+    NA+36460  24.010  34.445  10.615
76958NA+    NA+36461   8.668  13.617   1.347
76959NA+    NA+36462  23.704  35.002   1.310
76960NA+    NA+36463  18.056   5.691   2.892
76961NA+    NA+36464  21.119   9.314  13.952
76962NA+    NA+36465  18.754  34.415   0.249
76963NA+    NA+36466  26.022  27.078  12.035
76964NA+    NA+36467   2.874  14.788   3.212
76965NA+    NA+36468  13.205  19.132   4.634
76966NA+    NA+36469  24.177  35.882   5.225
76967NA+    NA+36470  13.230  44.386  13.391
76968NA+    NA+36471   5.431  16.773  11.061
76969NA+    NA+36472  34.026  25.181  11.938
76970NA+    NA+36473   2.348  17.209   0.472
76971NA+    NA+36474  30.012  42.011   0.286
76972NA+    NA+36475  44.834   1.737   3.745
76973NA+    NA+36476  43.905  34.001   1.304
76974NA+    NA+36477  27.960  39.866   0.339
76975NA+    NA+36478  20.602  16.681  13.419
76976NA+    NA+36479  44.314   5.770  11.492
76977NA+    NA+36480   1.902  29.595  10.976
76978NA+    NA+36481  41.487  30.105  12.857
76979NA+    NA+36482  12.318   7.415   1.815
76980NA+    NA+36483  19.092   0.277   1.714
76981NA+    NA+36484   5.897  12.697   1.892
76982NA+    NA+36485   9.811  41.998  12.924
76983NA+    NA+36486  30.658  16.191   3.313
76984NA+    NA+36487   9.181   1.238   1.351
76985NA+    NA+36488  33.412  36.023  12.937
76986NA+    NA+36489   7.904  10.176  11.948
76987NA+    NA+36490   8.301   4.714   4.282
76988NA+    NA+36491  23.206  14.274   4.759
76989NA+    NA+36492  20.523   2.449   0.444
76990NA+    NA+36493  36.457  19.112  12.901
76991NA+    NA+36494   2.922  25.577  10.974
76992NA+    NA+36495  39.980  34.101  11.891
76993NA+    NA+36496  36.401  40.446   4.347
76994NA+    NA+36497  23.124   3.774  14.872
76995NA+    NA+36498  25.637  39.924   3.828
76996NA+    NA+36499   2.278  42.342  12.411
76997NA+    NA+36500  32.041   4.824  13.389
76998NA+    NA+36501  42.815  44.499   1.769
76999NA+    NA+36502  34.098  16.282   2.856
77000NA+    NA+36503  24.095  11.343   4.667
77001NA+    NA+36504  38.834  20.087   0.461
77002NA+    NA+36505  28.602   7.228   3.198
77003NA+    NA+36506   2.857   4.223  11.064
77004NA+    NA+36507   8.291   9.886   3.721
77005NA+    NA+36508  24.523  15.151   3.387
77006NA+    NA+36509  14.147  40.530  13.524
77007NA+    NA+36510  34.524  29.565   2.187
77008NA+    NA+36511  22.168   2.736   2.410
77009NA+    NA+36512   0.981  30.651   0.327
77010NA+    NA+36513  22.537   8.735  12.946
77011NA+    NA+36514  18.077  33.934  10.983
77012NA+    NA+36515   5.807  44.395   4.185
77013NA+    NA+36516   0.806  40.547  10.889
77014NA+    NA+36517   1.469  10.332   1.329
77015NA+    NA+36518   2.924   6.702   4.658
77016NA+    NA+36519  24.092   0.260   3.648
77017NA+    NA+36520  11.128   3.401   2.854
77018NA+    NA+36521   5.359  11.654  12.835
77019NA+    NA+36522  28.454  37.028  10.458
77020NA+    NA+36523   2.919  42.831   3.669
77021NA+    NA+36524   1.362  27.647   0.849
77022NA+    NA+36525   0.283  44.269   4.614
77023NA+    NA+36526  22.236  23.225  11.045
77024NA+    NA+36527  18.686   7.302  10.136
77025NA+    NA+36528  39.466  30.497  13.898
77026NA+    NA+36529  12.696   8.826   2.752
77027NA+    NA+36530  13.609   5.887  13.478
77028NA+    NA+36531   8.348  34.594   5.287
77029NA+    NA+36532  28.660  13.230  14.974
77030NA+    NA+36533   1.459  42.967  11.983
77031NA+    NA+36534   1.266  24.149   2.348
77032NA+    NA+36535  41.913  39.396   3.198
77033NA+    NA+36536   4.780  13.806   2.868
77034NA+    NA+36537  30.487  29.507   4.776
77035NA+    NA+36538  38.894  13.113   1.394
77036NA+    NA+36539  39.501   9.675  10.581
77037NA+    NA+36540  27.016  25.556  13.862
77038NA+    NA+36541  11.334  16.773  10.412
77039NA+    NA+36542  16.614  34.371  12.027
77040NA+    NA+36543  35.107   0.428  11.126
77041NA+    NA+36544  42.377  33.030   0.864
77042NA+    NA+36545  42.892  25.008   4.696
77043NA+    NA+36546  30.919  25.162  10.025
77044NA+    NA+36547   1.863   1.755  12.466
77045NA+    NA+36548  24.167  39.352  11.426
77046NA+    NA+36549  34.975  30.583  10.631
77047NA+    NA+36550  31.530   3.320   0.921
77048NA+    NA+36551  34.070   9.336   1.711
77049NA+    NA+36552  38.072  10.177  12.830
77050NA+    NA+36553  44.777  40.510  13.005
77051NA+    NA+36554   7.327  32.108  10.615
77052NA+    NA+36555  27.636  35.364   0.431
77053NA+    NA+36556  13.185  16.135   4.762
77054NA+    NA+36557  31.521  37.341  14.293
77055NA+    NA+36558  39.421  21.093  10.632
77056NA+    NA+36559   1.904   9.736   4.823
77057NA+    NA+36560   5.263  14.812  10.566
77058NA+    NA+36561  10.812  28.111  12.048
77059NA+    NA+36562  21.211  15.615   3.308
77060NA+    NA+36563  18.593  21.549  10.569
77061NA+    NA+36564  13.218  27.689   2.671
77062NA+    NA+36565   3.230   6.248   2.866
77063NA+    NA+36566  21.687  33.448  13.531
77064NA+    NA+36567  13.189  12.795  10.465
77065NA+    NA+36568  23.094  22.115   1.417
77066NA+    NA+36569  40.392   8.260  14.455
77067NA+    NA+36570  41.363  35.381   3.346
77068NA+    NA+36571  28.931  23.051  14.504
77069NA+    NA+36572  36.486   1.320   1.294
77070NA+    NA+36573  28.050  39.928   3.185
77071NA+    NA+36574  14.779  42.969   1.795
77072NA+    NA+36575   7.710  25.574  13.440
77073NA+    NA+36576  34.987  19.617   5.142
77074NA+    NA+36577  30.045  12.330  12.005
77075NA+    NA+36578  16.618  23.072  11.511
77076NA+    NA+36579  33.577  36.011  12.526
77077NA+    NA+36580  27.083  16.755   0.895
77078NA+    NA+36581  36.043  37.401   1.786
77079NA+    NA+36582   9.224  15.599   2.830
77080NA+    NA+36583  27.154  29.030   4.804
77081NA+    NA+36584   6.720  17.743   0.295
77082NA+    NA+36585   6.882  11.815   4.763
77083NA+    NA+36586  29.559  11.177   0.728
77084NA+    NA+36587  13.177  34.058  11.980
77085NA+    NA+36588  34.520   6.284  12.376
77086NA+    NA+36589  17.801  17.569   3.310
77087NA+    NA+36590  14.750  36.947   1.708
77088NA+    NA+36591  32.569  32.625   1.772
77089NA+    NA+36592   0.978   9.301  13.329
77090NA+    NA+36593  28.180  26.629  10.413
77091NA+    NA+36594  32.977  25.209   4.288
77092NA+    NA+36595  12.673  43.506   3.781
77093NA+    NA+36596  21.028  32.939   3.300
77094NA+    NA+36597  31.069  22.092  12.560
77095NA+    NA+36598  29.014  14.105   3.770
77096NA+    NA+36599  37.012  21.129   1.243
77097NA+    NA+36600  34.546  37.497  12.852
77098NA+    NA+36601   3.266   5.426   3.857
77099NA+    NA+36602  29.609   0.947  11.962
77100NA+    NA+36603  35.388  36.563  13.998
77101NA+    NA+36604  27.070  21.518  14.298
77102NA+    NA+36605   2.857   4.704  13.452
77103NA+    NA+36606   9.766   3.228  10.561
77104NA+    NA+36607  16.734   5.383   0.417
77105NA+    NA+36608  15.768  38.889   0.446
77106NA+    NA+36609  21.594  12.178  12.870
77107NA+    NA+36610  16.160  11.744   2.418
77108NA+    NA+36611   9.351  21.118  14.498
77109NA+    NA+36612   7.712  28.111   3.859
77110NA+    NA+36613  43.328  39.464  14.482
77111NA+    NA+36614  19.127  18.713   3.646
77112NA+    NA+36615  44.819   1.411  14.465
77113NA+    NA+36616  44.390  23.654   4.606
77114NA+    NA+36617   9.336  25.662  11.550
77115NA+    NA+36618  30.084   6.785   3.697
77116NA+    NA+36619  39.984  33.542  13.535
77117NA+    NA+36620  20.213   5.783   1.712
77118NA+    NA+36621  13.193   5.302  12.367
77119NA+    NA+36622   8.873  35.058  11.399
77120NA+    NA+36623  18.283  24.152   0.774
77121NA+    NA+36624  39.348   7.343  12.935
77122NA+    NA+36625  36.556  40.021  12.850
77123NA+    NA+36626  19.177   5.345  10.628
77124NA+    NA+36627  41.965  25.040   4.328
77125NA+    NA+36628  33.421  14.701  11.933
77126NA+    NA+36629   6.205  32.010  14.902
77127NA+    NA+36630  28.985  16.199   3.149
77128NA+    NA+36631  15.231  11.301  13.908
77129NA+    NA+36632  17.285  25.603   3.859
77130NA+    NA+36633  40.509  23.198  14.329
77131NA+    NA+36634  17.303  42.335  13.046
77132NA+    NA+36635  40.533   3.890   0.737
77133NA+    NA+36636  35.994  33.927  12.044
77134NA+    NA+36637  22.099  43.825  13.901
77135NA+    NA+36638  20.698  21.591   0.415
77136NA+    NA+36639   3.426  30.590   1.787
77137NA+    NA+36640  33.020  11.730   2.860
77138NA+    NA+36641  16.256  40.374   2.863
77139NA+    NA+36642  14.664  10.764  14.939
77140NA+    NA+36643  29.961  24.097   3.760
77141NA+    NA+36644  15.326  12.279   3.855
77142NA+    NA+36645   6.906   5.736  10.505
77143NA+    NA+36646  28.435  33.045  10.570
77144NA+    NA+36647  17.110  22.699  13.338
77145NA+    NA+36648  12.783   5.725  12.513
77146NA+    NA+36649  28.579  16.668  14.995
77147NA+    NA+36650  20.738  42.777   1.274
77148NA+    NA+36651   1.302  23.683   1.763
77149NA+    NA+36652  35.025   2.286  10.547
77150NA+    NA+36653  26.618  43.823  14.892
77151NA+    NA+36654  21.027  34.996  13.817
77152NA+    NA+36655  13.170  28.533  13.452
77153NA+    NA+36656  17.244   3.416  10.579
77154NA+    NA+36657  31.585   3.341  12.508
77155NA+    NA+36658   0.251  41.347   3.164
77156NA+    NA+36659  28.115  14.824   2.313
77157NA+    NA+36660  12.313  13.749  13.049
77158NA+    NA+36661  11.228  22.693  13.446
77159NA+    NA+36662  10.747  17.295  10.923
77160NA+    NA+36663  21.112  13.792  13.922
77161NA+    NA+36664  11.779  12.730   3.306
77162NA+    NA+36665   2.309  28.970  13.414
77163NA+    NA+36666  21.682  22.094  13.868
77164NA+    NA+36667   0.382  33.547  11.032
77165NA+    NA+36668   5.749   3.435  13.840
77166NA+    NA+36669  14.335  20.617   3.840
77167NA+    NA+36670  12.749  20.567  11.523
77168NA+    NA+36671  43.005   9.176  13.539
77169NA+    NA+36672  44.823  22.587  13.454
77170NA+    NA+36673  22.733  23.178  10.625
77171NA+    NA+36674  30.036  16.278  14.430
77172NA+    NA+36675  20.145  31.081  11.608
77173NA+    NA+36676  40.486  23.550   3.362
77174NA+    NA+36677  38.458  32.603  13.393
77175NA+    NA+36678  14.631  39.840  12.945
77176NA+    NA+36679  26.565   5.725  11.039
77177NA+    NA+36680  21.566  21.139   1.384
77178NA+    NA+36681   0.252  27.592   0.729
77179NA+    NA+36682  39.861  32.010   3.168
77180NA+    NA+36683  40.469  18.780  11.073
77181NA+    NA+36684  41.791  10.797   4.162
77182NA+    NA+36685  28.137  10.741   1.306
77183NA+    NA+36686  33.429  29.466   4.683
77184NA+    NA+36687  21.712  23.730   5.264
77185NA+    NA+36688  42.369  21.666  12.037
77186NA+    NA+36689  20.040  15.732   2.243
77187NA+    NA+36690   3.221  36.562  13.967
77188NA+    NA+36691  43.797   1.880   2.853
77189NA+    NA+36692  13.610  10.858  13.435
77190NA+    NA+36693  36.520  19.707   3.160
77191NA+    NA+36694   9.389  25.976   0.317
77192NA+    NA+36695  10.662  41.347  14.390
77193NA+    NA+36696  42.933  15.109  11.519
77194NA+    NA+36697  12.159  28.006   0.928
77195NA+    NA+36698  38.917  21.020  12.872
77196NA+    NA+36699   7.180   6.324   1.831
77197NA+    NA+36700  33.954  34.580   0.877
77198NA+    NA+36701  14.598  37.582   9.923
77199NA+    NA+36702   7.773  36.393  13.909
77200NA+    NA+36703  33.114  29.430  12.565
77201NA+    NA+36704  24.578  13.123  13.497
77202NA+    NA+36705  12.845  25.065   2.803
77203NA+    NA+36706   0.833   1.976  13.022
77204NA+    NA+36707  12.304  30.142   1.757
77205NA+    NA+36708  16.737  35.004  10.482
77206NA+    NA+36709  18.166   8.334  11.105
77207NA+    NA+36710  40.488  24.180   2.201
77208NA+    NA+36711  41.388  26.459   0.944
77209NA+    NA+36712  36.961  21.130   0.770
77210NA+    NA+36713  32.996   5.253  13.894
77211NA+    NA+36714  28.490  24.506  12.563
77212NA+    NA+36715   1.813  38.500   1.708
77213NA+    NA+36716   9.289  13.737   0.443
77214NA+    NA+36717   5.751  33.542   2.191
77215NA+    NA+36718  33.387  44.999   3.371
77216NA+    NA+36719  40.948  11.625   4.272
77217NA+    NA+36720  31.147  44.870  13.474
77218NA+    NA+36721  44.504  28.505  13.060
77219NA+    NA+36722  38.383  37.080   3.213
77220NA+    NA+36723  26.478  33.395  10.451
77221NA+    NA+36724  23.073  29.141   3.238
77222NA+    NA+36725   9.250  19.268  13.922
77223NA+    NA+36726  14.804  15.798  14.351
77224NA+    NA+36727  36.930  36.421  10.951
77225NA+    NA+36728  16.135  17.646  12.973
77226NA+    NA+36729  24.141   4.360   3.777
77227NA+    NA+36730  13.828  13.746  14.808
77228NA+    NA+36731  15.097   9.266  14.841
77229NA+    NA+36732  12.200  19.737   3.261
77230NA+    NA+36733  44.815   3.454   2.189
77231NA+    NA+36734   9.185   0.376   1.430
77232NA+    NA+36735  24.644   7.721  14.844
77233NA+    NA+36736  10.839  42.013   1.855
77234NA+    NA+36737  29.151  18.558   4.329
77235NA+    NA+36738   8.724  22.568  10.604
77236NA+    NA+36739  27.181  32.012   2.310
77237NA+    NA+36740   6.722   7.799   2.814
77238NA+    NA+36741  15.093  33.509  14.368
77239NA+    NA+36742   4.220  27.485  14.287
77240NA+    NA+36743  31.522  41.880  10.512
77241NA+    NA+36744  29.517  12.136  11.558
77242NA+    NA+36745  37.836  35.580   4.819
77243NA+    NA+36746   7.781  11.801   5.094
77244NA+    NA+36747   8.188  20.191  14.447
77245NA+    NA+36748  11.705   2.916  11.479
77246NA+    NA+36749  14.669  40.836  10.629
77247NA+    NA+36750  10.306  20.597   0.363
77248NA+    NA+36751  31.618   5.880   0.780
77249NA+    NA+36752   6.247  32.618   3.300
77250NA+    NA+36753  34.442  18.254  13.926
77251NA+    NA+36754   8.343  22.515  11.604
77252NA+    NA+36755  34.112  37.432  14.502
77253NA+    NA+36756  39.026   8.179  11.457
77254NA+    NA+36757   2.362  40.947  10.447
77255NA+    NA+36758  22.535  24.593  12.860
77256NA+    NA+36759   6.351  12.116  11.021
77257NA+    NA+36760  36.371  28.485  10.414
77258NA+    NA+36761   4.899  41.425   4.256
77259NA+    NA+36762  27.598  12.323   9.924
77260NA+    NA+36763  27.619  39.984   2.734
77261NA+    NA+36764  40.824  38.338   2.856
77262NA+    NA+36765  40.516   3.871  11.047
77263NA+    NA+36766  20.734  10.276  14.316
77264NA+    NA+36767   4.865  38.426  11.405
77265NA+    NA+36768  42.461  13.217  13.502
77266NA+    NA+36769  28.001  32.600  14.502
77267NA+    NA+36770  10.706  16.185   1.879
77268NA+    NA+36771   4.280  43.896  12.913
77269NA+    NA+36772  30.658  17.199  11.489
77270NA+    NA+36773   9.750   8.879   1.407
77271NA+    NA+36774  30.089  39.347   4.214
77272NA+    NA+36775  36.476   6.864   4.742
77273NA+    NA+36776   3.898  17.193   4.205
77274NA+    NA+36777  23.032  19.258  13.441
77275NA+    NA+36778  30.949  16.586  11.467
77276NA+    NA+36779   4.745   0.403   0.920
77277NA+    NA+36780   3.227  21.116  10.590
77278NA+    NA+36781   2.871  14.616  12.989
77279NA+    NA+36782  42.027  28.576   2.739
77280NA+    NA+36783  20.594  30.107   4.838
77281NA+    NA+36784  28.434  14.304  14.006
77282NA+    NA+36785  13.113  22.528   0.923
77283NA+    NA+36786  14.765  13.254   0.361
77284NA+    NA+36787  31.061   8.663   4.354
77285NA+    NA+36788  40.356   9.793   4.231
77286NA+    NA+36789  35.388  44.835  11.042
77287NA+    NA+36790   1.866  31.599  13.876
77288NA+    NA+36791   1.350   8.304  10.971
77289NA+    NA+36792  22.008   8.796   4.602
77290NA+    NA+36793  23.559  18.646   0.457
77291NA+    NA+36794   2.469  39.932  12.975
77292NA+    NA+36795  30.485  36.964  13.889
77293NA+    NA+36796  30.038   2.253   3.219
77294NA+    NA+36797  44.884  27.154   2.788
77295NA+    NA+36798  32.141  42.455   1.310
77296NA+    NA+36799  18.776  31.972   1.305
77297NA+    NA+36800  43.011  28.612  10.094
77298NA+    NA+36801  11.255  18.673   4.318
77299NA+    NA+36802  31.604  10.697   4.601
77300NA+    NA+36803  12.290   4.301  13.530
77301NA+    NA+36804  27.116  26.472   2.815
77302NA+    NA+36805  18.203  25.140   2.865
77303NA+    NA+36806  35.885   1.336   0.961
77304NA+    NA+36807  42.908  31.934  11.053
77305NA+    NA+36808   6.379  10.843   9.992
77306NA+    NA+36809  23.630  44.964  14.447
77307NA+    NA+36810  14.743  13.810  11.537
77308NA+    NA+36811  33.462   2.382  13.986
77309NA+    NA+36812  26.136  24.163  11.957
77310NA+    NA+36813  39.955  30.161  14.421
77311NA+    NA+36814  21.229  17.796   1.789
77312NA+    NA+36815  38.418  10.716  12.928
77313NA+    NA+36816   3.256  26.696   2.831
77314NA+    NA+36817   9.360   5.395  14.932
77315NA+    NA+36818  34.947  39.468   1.714
77316NA+    NA+36819  18.634  40.045   4.783
77317NA+    NA+36820  44.377  31.917   2.368
77318NA+    NA+36821  21.717   3.894   0.345
77319NA+    NA+36822  12.134  24.087   1.305
77320NA+    NA+36823  25.518  13.246   4.195
77321NA+    NA+36824  43.419  13.240   0.332
77322NA+    NA+36825   8.690  20.066  10.498
77323NA+    NA+36826  12.347  35.106   2.277
77324NA+    NA+36827   7.276  34.464  14.972
77325NA+    NA+36828  44.502  38.368  12.909
77326NA+    NA+36829   6.711  43.967   1.255
77327NA+    NA+36830  22.137  27.527   0.264
77328NA+    NA+36831  42.029  14.278   3.715
77329NA+    NA+36832   0.438  36.569  14.831
77330NA+    NA+36833  10.145  34.969   3.647
77331NA+    NA+36834  15.193  43.881  12.068
77332NA+    NA+36835  34.458  39.420   2.267
77333NA+    NA+36836  35.417  17.594   0.935
77334NA+    NA+36837   1.426  15.307   4.247
77335NA+    NA+36838  21.228  40.943   0.952
77336NA+    NA+36839  42.366   2.373  11.951
77337NA+    NA+36840  14.178  29.578   3.686
77338NA+    NA+36841  38.884  21.756  12.484
77339NA+    NA+36842  36.575  23.184  13.439
77340NA+    NA+36843  22.718  26.595   0.762
77341NA+    NA+36844  23.722  34.474   2.352
77342NA+    NA+36845  28.954  19.093  11.400
77343NA+    NA+36846   2.417  31.595   0.874
77344NA+    NA+36847  39.979  24.502  14.867
77345NA+    NA+36848   3.735  25.581  13.888
77346NA+    NA+36849   9.882   5.414   3.764
77347NA+    NA+36850  27.538  19.260   4.640
77348NA+    NA+36851  35.436  26.469   0.771
77349NA+    NA+36852  18.665  17.558   2.837
77350NA+    NA+36853  42.969  17.658  12.847
77351NA+    NA+36854  20.272  25.638  13.367
77352NA+    NA+36855  10.146  18.144   2.247
77353NA+    NA+36856  42.888  17.121   5.175
77354NA+    NA+36857  36.986   8.797  14.808
77355NA+    NA+36858  27.955  38.552  13.059
77356NA+    NA+36859  21.566   9.737  14.009
77357NA+    NA+36860   5.359  44.776  12.360
77358NA+    NA+36861   9.763  41.318  13.931
77359NA+    NA+36862  38.533  43.406  13.416
77360NA+    NA+36863  28.610  26.090  14.766
77361NA+    NA+36864   6.379  29.999   0.840
77362NA+    NA+36865  20.086  14.152  11.098
77363NA+    NA+36866  33.615  30.035  13.339
77364NA+    NA+36867  17.599  18.728  12.440
77365NA+    NA+36868   5.244   0.875   1.278
77366NA+    NA+36869  35.593  17.264   0.380
77367NA+    NA+36870   8.246  32.900  13.944
77368NA+    NA+36871  13.825  23.138   4.346
77369NA+    NA+36872  23.984  36.348  12.969
77370NA+    NA+36873  24.991  19.206   1.742
77371NA+    NA+36874   8.705   3.932  13.792
77372NA+    NA+36875  26.629   3.397   0.884
77373NA+    NA+36876   7.693  21.066   9.959
77374NA+    NA+36877   8.297  44.445  13.978
77375NA+    NA+36878  18.755  44.974   1.720
77376NA+    NA+36879  27.189   5.872  12.508
77377NA+    NA+36880  16.194  39.318   4.265
77378NA+    NA+36881   7.888  28.463   1.821
77379NA+    NA+36882   9.346   9.841  13.030
77380NA+    NA+36883  14.279  16.758  14.010
77381NA+    NA+36884  32.422  22.237   4.669
77382NA+    NA+36885  33.445  18.208   3.285
77383NA+    NA+36886  20.765  41.836   4.230
77384NA+    NA+36887  27.189  38.333   4.245
77385NA+    NA+36888  16.759  42.359  13.035
77386NA+    NA+36889  17.266   9.232  11.529
77387NA+    NA+36890  39.330   7.205   1.266
77388NA+    NA+36891  14.331  21.548  13.389
77389NA+    NA+36892  13.246   0.962   2.707
77390NA+    NA+36893   7.342   7.175  11.012
77391NA+    NA+36894  19.109  14.246   0.890
77392NA+    NA+36895  28.951   5.788  11.372
77393NA+    NA+36896  18.776  44.989   2.789
77394NA+    NA+36897  20.532  21.621   2.663
77395NA+    NA+36898  44.462  22.661   4.795
77396NA+    NA+36899  26.080  15.163  13.830
77397NA+    NA+36900  24.666  38.932  13.879
77398NA+    NA+36901  36.416  14.226   3.171
77399NA+    NA+36902  22.698  36.476  14.474
77400NA+    NA+36903  11.359  11.300   4.173
77401NA+    NA+36904   9.816   5.311  14.333
77402NA+    NA+36905  35.879   0.770  10.635
77403NA+    NA+36906   2.740  39.426   4.311
77404NA+    NA+36907   1.451  11.160   4.276
77405NA+    NA+36908  41.787   1.835  12.839
77406NA+    NA+36909   9.170   1.859  13.059
77407NA+    NA+36910  12.748   1.736  14.809
77408NA+    NA+36911  32.406   2.955   1.220
77409NA+    NA+36912  41.895  10.311  13.463
77410NA+    NA+36913  21.625   9.289   1.397
77411NA+    NA+36914   7.231  40.303  13.344
77412NA+    NA+36915   6.793   5.831   3.299
77413NA+    NA+36916   5.744   1.857   1.785
77414NA+    NA+36917  16.666  28.574  13.442
77415NA+    NA+36918   7.181  39.472   1.706
77416NA+    NA+36919  32.495  10.345   4.182
77417NA+    NA+36920   9.235   1.902  13.543
77418NA+    NA+36921  38.909  43.315  11.003
77419NA+    NA+36922  18.659  33.504  11.041
77420NA+    NA+36923  18.590  18.781   4.813
77421NA+    NA+36924  34.472  16.218  14.795
77422NA+    NA+36925  17.642  12.618  13.309
77423NA+    NA+36926  44.275  28.084   0.857
77424NA+    NA+36927  11.826  43.906   1.779
77425NA+    NA+36928   1.923   9.881   4.128
77426NA+    NA+36929  22.652   0.315   0.943
77427NA+    NA+36930  31.478  31.985   1.311
77428NA+    NA+36931  26.137  33.577  12.458
77429NA+    NA+36932  30.973  12.356   3.231
77430NA+    NA+36933  14.671  22.226  14.830
77431NA+    NA+36934   6.184   4.728  14.821
77432NA+    NA+36935  41.320  22.601   4.129
77433NA+    NA+36936  10.201  35.436  14.480
77434NA+    NA+36937  44.784  25.590  13.354
77435NA+    NA+36938   9.761  42.032  13.977
77436NA+    NA+36939  42.482  15.124   2.848
77437NA+    NA+36940  35.077  37.462   2.718
77438NA+    NA+36941  32.486   4.374   3.861
77439NA+    NA+36942   5.337  12.297   4.222
77440NA+    NA+36943  36.545   5.200   1.399
77441NA+    NA+36944  25.185  41.028   3.795
77442NA+    NA+36945  13.203   9.742   4.783
77443NA+    NA+36946  35.510   8.757  10.425
77444NA+    NA+36947  20.176   3.358  13.057
77445NA+    NA+36948   7.293   5.298   1.252
77446NA+    NA+36949  33.432  30.478  10.594
77447NA+    NA+36950  30.972  35.574  14.350
77448NA+    NA+36951  21.553   9.319  11.397
77449NA+    NA+36952  42.471  22.740  12.398
77450NA+    NA+36953  25.120   5.850  11.060
77451NA+    NA+36954  29.546  28.560  10.610
77452NA+    NA+36955  27.632   1.346   2.704
77453NA+    NA+36956  10.636  40.933   2.304
77454NA+    NA+36957  26.155  19.105  13.006
77455NA+    NA+36958  17.245  20.081   4.721
77456NA+    NA+36959  41.976  33.584  10.581
77457NA+    NA+36960   7.714  44.271  11.483
77458NA+    NA+36961  33.440  26.985   4.264
77459NA+    NA+36962   2.366  26.502   0.478
77460NA+    NA+36963  29.616   2.228   0.875
77461NA+    NA+36964   8.282  26.126   2.276
77462NA+    NA+36965  17.256   8.867  10.156
77463NA+    NA+36966  34.387  25.007  14.431
77464NA+    NA+36967  38.569   0.931   2.347
77465NA+    NA+36968  27.634  42.890  14.889
77466NA+    NA+36969  35.971  42.864  10.111
77467NA+    NA+36970  10.209   4.242   1.838
77468NA+    NA+36971   2.428  36.017   3.235
77469NA+    NA+36972  44.993   9.742  11.956
77470NA+    NA+36973  36.430   5.891  14.355
77471NA+    NA+36974  36.856  33.993  10.641
77472NA+    NA+36975   0.312   0.760   3.265
77473NA+    NA+36976  27.055  24.037  14.511
77474NA+    NA+36977  18.060  34.109  12.438
77475NA+    NA+36978  33.886   6.860   4.774
77476NA+    NA+36979   8.255  30.514   2.250
77477NA+    NA+36980  33.124  21.743   3.299
77478NA+    NA+36981  26.468   4.434  14.393
77479NA+    NA+36982  32.516  26.953  14.279
77480NA+    NA+36983   6.338  27.446  14.767
77481NA+    NA+36984  37.031  25.639   3.372
77482NA+    NA+36985  39.907  31.047   1.732
77483NA+    NA+36986  37.444  27.523  12.942
77484NA+    NA+36987  10.682   1.363   1.892
77485NA+    NA+36988  32.433  16.607  12.428
77486NA+    NA+36989  29.935  10.688  14.843
77487NA+    NA+36990  42.338   7.803   2.236
77488NA+    NA+36991  27.015   7.268  11.421
77489NA+    NA+36992  29.542  26.650  14.504
77490NA+    NA+36993  32.458  24.707   1.425
77491NA+    NA+36994  27.968  44.815   2.805
77492NA+    NA+36995  42.390  12.771  13.982
77493NA+    NA+36996  32.557  22.563  10.149
77494NA+    NA+36997  30.477  35.878  12.014
77495NA+    NA+36998  17.625  15.191   2.345
77496NA+    NA+36999  24.582  22.624  14.873
77497NA+    NA+37000  21.619  35.464  14.494
77498NA+    NA+37001  31.487  20.720   4.135
77499NA+    NA+37002  39.391   5.697   5.262
77500NA+    NA+37003  34.027  44.953   0.804
77501NA+    NA+37004  11.714  18.789  11.383
77502NA+    NA+37005  25.617  41.478   4.613
77503NA+    NA+37006  42.330  28.535  11.942
77504NA+    NA+37007   0.421   4.823  11.040
77505NA+    NA+37008  33.593  22.060  12.445
77506NA+    NA+37009  13.310  37.911   4.122
77507NA+    NA+37010  35.910  21.042  14.899
77508NA+    NA+37011  43.822  15.733  12.019
77509NA+    NA+37012  31.118   2.731   0.321
77510NA+    NA+37013  16.290  28.496   1.401
77511NA+    NA+37014  25.010   2.318  14.996
77512NA+    NA+37015  14.265  38.940   2.850
77513NA+    NA+37016  34.579  24.053  13.844
77514NA+    NA+37017  36.098  10.281  12.058
77515NA+    NA+37018  41.439  28.130   5.231
77516NA+    NA+37019   4.905  29.949  12.374
77517NA+    NA+37020  10.188  10.286   3.174
77518NA+    NA+37021   6.882  41.022  14.382
77519NA+    NA+37022  12.756  29.529   1.862
77520NA+    NA+37023   7.324  19.169   1.871
77521NA+    NA+37024  44.913  41.388  11.012
77522NA+    NA+37025  26.143  18.598   1.232
77523NA+    NA+37026  23.208  16.261  11.906
77524NA+    NA+37027  42.290  38.836  13.947
77525NA+    NA+37028  33.582  27.086   0.481
77526NA+    NA+37029  18.276  19.132  11.479
77527NA+    NA+37030  43.869  43.439   1.303
77528NA+    NA+37031  20.763  42.021   1.896
77529NA+    NA+37032  14.691  15.595   1.363
77530NA+    NA+37033  15.632  40.433  10.403
77531NA+    NA+37034  21.166   1.406   3.281
77532NA+    NA+37035  31.414  24.533  14.322
77533NA+    NA+37036  13.686  40.437  14.001
77534NA+    NA+37037  18.132  14.635   1.299
77535NA+    NA+37038   8.864   6.235   1.406
77536NA+    NA+37039  43.515  30.502   5.253
77537NA+    NA+37040   5.269  26.694   9.972
77538NA+    NA+37041  32.463  30.475   5.094
77539NA+    NA+37042  40.415   1.274   2.740
77540NA+    NA+37043  20.683  12.170  13.991
77541NA+    NA+37044  16.100  27.069   1.769
77542NA+    NA+37045   9.275   0.325  11.440
77543NA+    NA+37046   0.796  27.188  12.440
77544NA+    NA+37047  12.173  32.038   1.440
77545NA+    NA+37048  40.894  34.488   4.245
77546NA+    NA+37049   2.433  18.271  10.034
77547NA+    NA+37050   0.837   1.834   9.984
77548NA+    NA+37051   2.872  42.454   2.865
77549NA+    NA+37052  25.626  20.120  13.899
77550NA+    NA+37053  40.950  18.229  12.852
77551NA+    NA+37054  12.257  10.844   1.744
77552NA+    NA+37055   8.205  26.534   2.351
77553NA+    NA+37056  24.639  20.641   4.353
77554NA+    NA+37057  13.168  26.688   0.749
77555NA+    NA+37058   8.669  37.352   1.241
77556NA+    NA+37059  40.472  12.195  13.540
77557NA+    NA+37060  34.994   8.349  11.463
77558NA+    NA+37061  43.317  41.998   0.796
77559NA+    NA+37062  14.170  44.365  13.916
77560NA+    NA+37063  12.823  16.115   4.320
77561NA+    NA+37064   6.348  39.822   4.260
77562NA+    NA+37065   5.695  32.451  12.022
77563NA+    NA+37066  29.988  24.512   4.738
77564NA+    NA+37067  14.830   6.695   1.293
77565NA+    NA+37068  40.500  20.732  12.915
77566NA+    NA+37069  31.037  30.085   1.229
77567NA+    NA+37070   1.835   8.770  12.553
77568NA+    NA+37071  36.024  40.447   3.191
77569NA+    NA+37072  34.572   7.382  14.339
77570NA+    NA+37073  34.887  21.140  12.524
77571NA+    NA+37074  42.398  30.979  12.992
77572NA+    NA+37075  36.057   9.317   1.213
77573NA+    NA+37076  30.522  19.227   1.387
77574NA+    NA+37077  13.624  22.699   4.716
77575NA+    NA+37078  14.148  11.320  13.922
77576NA+    NA+37079   2.848  40.324   1.235
77577NA+    NA+37080  13.119  40.798   4.226
77578NA+    NA+37081  41.317   9.790  12.003
77579NA+    NA+37082   2.822  15.630  12.386
77580NA+    NA+37083  24.158  34.516   3.225
77581NA+    NA+37084  40.448  40.332   0.279
77582NA+    NA+37085  10.153  12.224  10.498
77583NA+    NA+37086  33.565  31.991   3.289
77584NA+    NA+37087   7.294   1.854   2.805
77585NA+    NA+37088  44.947  30.490   9.930
77586NA+    NA+37089  35.423   8.236   0.449
77587NA+    NA+37090  14.218  19.657  10.424
77588NA+    NA+37091  37.831  30.908   3.331
77589NA+    NA+37092  38.440   7.229  12.021
77590NA+    NA+37093  11.274  33.458  13.403
77591NA+    NA+37094  25.558  42.281   2.408
77592NA+    NA+37095  29.518  29.657  13.438
77593NA+    NA+37096  25.675  24.571  12.084
77594NA+    NA+37097  20.170  40.542   2.747
77595NA+    NA+37098  14.765  23.733   3.810
77596NA+    NA+37099  38.922   6.426  12.365
77597NA+    NA+37100  31.006  21.734   1.730
77598NA+    NA+37101  36.386  18.094  10.902
77599NA+    NA+37102   2.916  43.491  13.393
77600NA+    NA+37103  20.639   7.371  11.087
77601NA+    NA+37104   2.381   8.232   4.150
77602NA+    NA+37105  27.005  14.813  14.344
77603NA+    NA+37106   2.778  16.105   0.368
77604NA+    NA+37107  30.465   2.412   1.235
77605NA+    NA+37108  30.994  16.595   2.339
77606NA+    NA+37109  26.637  30.622   0.403
77607NA+    NA+37110   9.340  11.780  12.977
77608NA+    NA+37111   2.249  13.703   4.730
77609NA+    NA+37112  38.560  10.695   4.631
77610NA+    NA+37113  14.740  32.480  10.614
77611NA+    NA+37114  24.552  38.011  14.487
77612NA+    NA+37115  12.332   3.353   4.778
77613NA+    NA+37116  33.507  21.139   2.733
77614NA+    NA+37117   2.272  43.998   2.834
77615NA+    NA+37118   9.186  23.521   2.331
77616NA+    NA+37119  38.553  29.950   0.896
77617NA+    NA+37120   4.443  42.985  12.579
77618NA+    NA+37121  35.406  37.505   0.460
77619NA+    NA+37122  43.409  42.969  11.506
77620NA+    NA+37123  38.969   6.737  12.051
77621NA+    NA+37124  38.850   0.484  14.433
77622NA+    NA+37125  15.767  44.001   3.841
77623NA+    NA+37126  33.552  13.634  11.892
77624NA+    NA+37127  11.161  40.006   2.823
77625NA+    NA+37128   9.839   3.762  11.032
77626NA+    NA+37129   0.251  33.996   2.884
77627NA+    NA+37130  18.131  26.614   2.704
77628NA+    NA+37131  14.763  22.679  12.443
77629NA+    NA+37132  35.865  40.311  10.450
77630NA+    NA+37133  30.969  26.100   1.344
77631NA+    NA+37134  19.735  33.965   1.242
77632NA+    NA+37135  33.531  37.945  11.486
77633NA+    NA+37136  12.772  24.636   0.443
77634NA+    NA+37137  36.438  34.562  12.828
77635NA+    NA+37138   6.740   1.291  13.345
77636NA+    NA+37139  34.504  38.524  13.993
77637NA+    NA+37140  32.412  10.289  12.381
77638NA+    NA+37141   5.794  35.554   2.259
77639NA+    NA+37142  11.786  10.679   1.738
77640NA+    NA+37143  42.861  11.838   2.224
77641NA+    NA+37144  34.407  43.868   1.823
77642NA+    NA+37145  12.204  40.406  14.952
77643NA+    NA+37146   4.226  43.007   2.871
77644NA+    NA+37147   6.869  32.483  14.939
77645NA+    NA+37148  43.403   6.900   2.774
77646NA+    NA+37149  22.531  27.088  14.371
77647NA+    NA+37150  31.079  34.577   9.987
77648NA+    NA+37151  25.990  36.368  13.498
77649NA+    NA+37152  37.501  20.219   3.379
77650NA+    NA+37153  38.400  33.953  12.091
77651NA+    NA+37154   4.319  39.910  12.979
77652NA+    NA+37155  27.165   2.353   9.439
77653NA+    NA+37156  26.490  28.136  12.830
77654NA+    NA+37157  14.786   3.392  13.992
77655NA+    NA+37158  38.966   9.884   0.899
77656NA+    NA+37159  13.124  21.579   1.756
77657NA+    NA+37160  37.976   1.752  10.057
77658NA+    NA+37161  17.629  13.140  13.510
77659NA+    NA+37162   6.328  13.132  11.436
77660NA+    NA+37163  10.767   5.709  11.934
77661NA+    NA+37164  41.900  12.764  12.058
77662NA+    NA+37165  36.861  35.971  10.513
77663NA+    NA+37166  22.012  43.934  12.419
77664NA+    NA+37167   0.984  41.878  11.588
77665NA+    NA+37168  43.349   8.828   0.245
77666NA+    NA+37169   8.322   6.789  12.960
77667NA+    NA+37170   1.272  38.530  13.499
77668NA+    NA+37171  36.002   6.706   3.809
77669NA+    NA+37172   2.804   2.725   2.788
77670NA+    NA+37173   7.264   9.348   2.702
77671NA+    NA+37174  21.530   5.876  12.402
77672NA+    NA+37175  25.634  33.087   1.854
77673NA+    NA+37176  11.254  27.459   1.258
77674NA+    NA+37177  42.946  36.420   3.336
77675NA+    NA+37178   6.398  37.038   4.293
77676NA+    NA+37179  44.983  26.116  11.611
77677NA+    NA+37180  31.570  27.626   3.250
77678NA+    NA+37181   2.247   8.824   1.268
77679NA+    NA+37182   8.747  32.066   1.928
77680NA+    NA+37183  42.929  20.044  10.131
77681NA+    NA+37184  35.945  42.818   2.346
77682NA+    NA+37185   9.313  42.421  14.936
77683NA+    NA+37186  38.359   4.782   1.289
77684NA+    NA+37187  10.173  26.119  13.043
77685NA+    NA+37188  30.444  36.875   0.968
77686NA+    NA+37189   7.757  13.759   3.206
77687NA+    NA+37190  18.630  20.109  10.917
77688NA+    NA+37191   2.276  18.135  14.508
77689NA+    NA+37192  44.447  41.532   3.824
77690NA+    NA+37193  41.861  30.954   0.280
77691NA+    NA+37194  18.562  11.725  14.515
77692NA+    NA+37195  15.585  39.923  10.102
77693NA+    NA+37196  44.802  35.374   1.298
77694NA+    NA+37197   9.696  24.146  12.571
77695NA+    NA+37198  41.525  19.258   4.190
77696NA+    NA+37199  29.108  44.892  12.984
77697NA+    NA+37200  13.213  23.697  11.110
77698NA+    NA+37201   0.477  21.179  13.498
77699NA+    NA+37202  34.081   6.193  13.429
77700NA+    NA+37203   0.953  14.797   4.118
77701NA+    NA+37204   3.458  43.350  13.502
77702NA+    NA+37205  14.606  42.983   3.857
77703NA+    NA+37206  44.287  19.772  12.388
77704NA+    NA+37207   8.238  28.989   1.842
77705NA+    NA+37208  38.018  35.539   1.353
77706NA+    NA+37209  20.272  17.586  13.033
77707NA+    NA+37210  30.111   9.813  11.914
77708NA+    NA+37211  28.572   0.434  11.499
77709NA+    NA+37212  33.888  18.124   4.261
77710NA+    NA+37213  25.533   1.882  11.979
77711NA+    NA+37214  11.629  35.363   4.718
77712NA+    NA+37215  16.584  28.978   1.352
77713NA+    NA+37216  26.570  32.605  12.529
77714NA+    NA+37217  15.648  28.132  12.070
77715NA+    NA+37218   8.346  16.115   3.847
77716NA+    NA+37219  21.709  22.618  13.375
77717NA+    NA+37220  18.063  27.014   4.130
77718NA+    NA+37221  33.013  37.544  14.399
77719NA+    NA+37222   6.223  30.598   4.354
77720NA+    NA+37223  24.520  23.569  13.354
77721NA+    NA+37224   4.354   4.927  10.045
77722NA+    NA+37225  20.070   5.262  14.788
77723NA+    NA+37226   0.319   0.354  14.455
77724NA+    NA+37227   8.701  40.515  13.010
77725NA+    NA+37228  11.831  10.810   3.673
77726NA+    NA+37229  17.576  35.557  13.433
77727NA+    NA+37230  26.623  22.655   1.436
77728NA+    NA+37231  34.401  20.227   3.256
77729NA+    NA+37232  22.147  21.077   2.393
77730NA+    NA+37233  25.984   3.749  11.402
77731NA+    NA+37234  28.582  38.495  11.904
77732NA+    NA+37235  11.281  10.206   4.709
77733NA+    NA+37236  37.079  22.088   0.272
77734NA+    NA+37237  24.724  35.920   0.302
77735NA+    NA+37238  27.445  43.988  11.884
77736NA+    NA+37239  19.138   9.335   4.771
77737NA+    NA+37240  23.188  23.707   0.308
77738NA+    NA+37241  28.141  20.198  12.996
77739NA+    NA+37242  11.848   0.944  13.005
77740NA+    NA+37243  12.794  42.363  12.557
77741NA+    NA+37244   6.725  27.658   1.859
77742NA+    NA+37245  36.854  42.869  13.445
77743NA+    NA+37246  15.815  33.466  14.346
77744NA+    NA+37247  16.303  11.180  11.881
77745NA+    NA+37248  30.137  11.712  14.492
77746NA+    NA+37249  37.888  22.152  10.990
77747NA+    NA+37250  44.460   2.725  10.138
77748NA+    NA+37251  19.053  28.088  12.950
77749NA+    NA+37252   3.848  30.431  11.936
77750NA+    NA+37253   1.947   5.803   1.220
77751NA+    NA+37254   9.814  38.541   1.274
77752NA+    NA+37255  36.510   0.313  13.381
77753NA+    NA+37256   2.739  41.928  13.796
77754NA+    NA+37257  29.950  27.641   3.175
77755NA+    NA+37258  27.064   1.832  13.307
77756NA+    NA+37259   4.209  24.686  11.928
77757NA+    NA+37260   0.339  43.863   3.852
77758NA+    NA+37261  21.717  33.610   2.721
77759NA+    NA+37262  15.181  41.816   4.640
77760NA+    NA+37263   0.301   6.764  11.943
77761NA+    NA+37264  16.684  38.061   1.852
77762NA+    NA+37265   0.777  15.766   4.783
77763NA+    NA+37266  40.462   1.274  14.455
77764NA+    NA+37267  38.065  17.729   0.368
77765NA+    NA+37268  36.893  35.884  10.946
77766NA+    NA+37269  19.147  19.645  12.462
77767NA+    NA+37270  12.200  31.917   2.330
77768NA+    NA+37271  14.310  11.844   0.856
77769NA+    NA+37272  43.006  15.611  14.355
77770NA+    NA+37273  29.154  16.705  11.562
77771NA+    NA+37274  26.657  40.521  12.423
77772NA+    NA+37275  14.108  23.500  10.444
77773NA+    NA+37276  41.341  36.968   0.932
77774NA+    NA+37277  34.563   1.966   3.762
77775NA+    NA+37278  38.471  31.049   3.657
77776NA+    NA+37279  30.067   4.374   2.896
77777NA+    NA+37280  36.041  13.255  14.287
77778NA+    NA+37281  13.163  28.168   2.184
77779NA+    NA+37282  32.506   2.954  13.908
77780NA+    NA+37283   5.231  36.872   2.814
77781NA+    NA+37284  20.630  28.588  13.883
77782NA+    NA+37285  26.464   6.381   0.726
77783NA+    NA+37286   3.866  39.942   3.185
77784NA+    NA+37287  15.684   0.439   4.149
77785NA+    NA+37288   8.781   7.887   5.215
77786NA+    NA+37289  26.046  37.976  13.474
77787NA+    NA+37290  11.756  22.660   3.376
77788NA+    NA+37291  24.585  28.177  14.439
77789NA+    NA+37292   8.186  20.727  12.077
77790NA+    NA+37293  19.565  28.447   1.312
77791NA+    NA+37294  16.665  40.964   2.775
77792NA+    NA+37295  32.583   9.377  12.952
77793NA+    NA+37296  42.809   3.876  14.027
77794NA+    NA+37297  39.065  31.629  12.904
77795NA+    NA+37298  30.961  22.103  12.004
77796NA+    NA+37299   8.199  18.220   3.292
77797NA+    NA+37300  20.115   8.245   2.729
77798NA+    NA+37301  22.016   5.815  14.006
77799NA+    NA+37302  11.786  30.548  10.605
77800NA+    NA+37303   9.683   6.876   3.236
77801NA+    NA+37304  12.809  40.540  13.796
77802NA+    NA+37305  15.120  28.505   2.325
77803NA+    NA+37306  36.944  35.067   1.277
77804NA+    NA+37307  43.449  24.077  11.407
77805NA+    NA+37308  26.995  13.761  13.532
77806NA+    NA+37309  11.251  19.575   3.313
77807NA+    NA+37310  13.133  25.162  12.577
77808NA+    NA+37311   1.423   5.832   4.250
77809NA+    NA+37312  24.577  29.963   1.423
77810NA+    NA+37313  39.470  36.064   4.767
77811NA+    NA+37314  44.384   3.231   4.199
77812NA+    NA+37315   9.387  24.494  11.458
77813NA+    NA+37316  16.247   5.687   0.418
77814NA+    NA+37317   2.938  42.348   4.830
77815NA+    NA+37318  25.994  34.942   4.650
77816NA+    NA+37319  38.511  36.522   2.315
77817NA+    NA+37320   7.347  27.972   3.745
77818NA+    NA+37321  34.505  22.157   0.451
77819NA+    NA+37322  33.131  32.599  14.955
77820NA+    NA+37323  40.432  12.771  10.548
77821NA+    NA+37324  31.426   8.814   2.683
77822NA+    NA+37325   4.925  16.676  11.882
77823NA+    NA+37326   5.888  42.795   1.353
77824NA+    NA+37327  30.165  33.613  14.280
77825NA+    NA+37328   1.755  39.926  12.077
77826NA+    NA+37329  41.821   8.336   2.734
77827NA+    NA+37330  12.713   8.354   1.896
77828NA+    NA+37331  26.530  37.069   3.285
77829NA+    NA+37332  21.540   6.829   2.206
77830NA+    NA+37333  20.035  16.741   0.426
77831NA+    NA+37334   3.750  38.442   1.888
77832NA+    NA+37335  32.052   1.833   4.715
77833NA+    NA+37336  44.772  26.141   3.165
77834NA+    NA+37337  19.592  33.400   5.102
77835NA+    NA+37338   8.746  34.489   4.746
77836NA+    NA+37339  35.886  18.644   0.302
77837NA+    NA+37340  14.296   9.271  13.933
77838NA+    NA+37341  10.180  44.881  11.117
77839NA+    NA+37342  21.716   1.294  14.827
77840NA+    NA+37343  40.861  28.994   0.356
77841NA+    NA+37344   3.215  20.713  10.441
77842NA+    NA+37345  10.369  10.704   4.786
77843NA+    NA+37346  43.357  18.219   3.657
77844NA+    NA+37347  25.710  31.102  13.976
77845NA+    NA+37348  36.450  38.375  14.863
77846NA+    NA+37349  43.857  36.423  10.507
77847NA+    NA+37350  22.083  12.353   4.333
77848NA+    NA+37351  12.627   0.942  13.812
77849NA+    NA+37352  15.106  24.134   2.375
77850NA+    NA+37353  12.180  21.642   0.811
77851NA+    NA+37354  14.323  41.962   4.216
77852NA+    NA+37355  24.081  26.686   1.260
77853NA+    NA+37356  44.496  31.619   4.350
77854NA+    NA+37357   2.932   1.346  11.562
77855NA+    NA+37358  27.960   7.767   2.721
77856NA+    NA+37359  15.276  19.568   2.780
77857NA+    NA+37360  14.760  39.345   2.334
77858NA+    NA+37361  21.522  29.631   2.189
77859NA+    NA+37362  24.006  32.910  14.847
77860NA+    NA+37363   7.284   7.410  13.799
77861NA+    NA+37364  31.481  38.032  11.006
77862NA+    NA+37365  16.148  43.499  14.789
77863NA+    NA+37366  44.323   0.439  14.420
77864NA+    NA+37367   0.884  31.984  14.411
77865NA+    NA+37368  29.597  13.302  14.463
77866NA+    NA+37369  44.500  14.673   0.303
77867NA+    NA+37370  21.519   4.303  11.109
77868NA+    NA+37371  16.162  24.175   3.273
77869NA+    NA+37372  32.036  11.250  13.940
77870NA+    NA+37373  37.581   0.748  12.898
77871NA+    NA+37374  24.127   0.861   3.636
77872NA+    NA+37375  22.695   7.334  12.089
77873NA+    NA+37376  37.931   9.381   5.111
77874NA+    NA+37377  23.618   4.750  12.477
77875NA+    NA+37378   4.341  30.594  13.505
77876NA+    NA+37379  20.746  37.582   2.311
77877NA+    NA+37380   5.413  44.771  14.779
77878NA+    NA+37381  40.902   8.848  13.932
77879NA+    NA+37382  26.699  12.795  10.602
77880NA+    NA+37383   0.486  33.442   2.186
77881NA+    NA+37384  39.936  44.455  14.772
77882NA+    NA+37385   7.767   6.189   3.274
77883NA+    NA+37386  40.337  17.792   2.257
77884NA+    NA+37387  22.623  39.471  11.012
77885NA+    NA+37388  24.582  18.272   0.750
77886NA+    NA+37389  19.193  36.022   3.685
77887NA+    NA+37390  20.274  21.142   1.409
77888NA+    NA+37391  11.283   6.883   2.737
77889NA+    NA+37392   2.730   2.229   1.305
77890NA+    NA+37393  11.728  13.684   0.818
77891NA+    NA+37394   9.287  12.343  14.870
77892NA+    NA+37395   3.904  29.952   2.814
77893NA+    NA+37396  30.091  12.199  14.875
77894NA+    NA+37397  22.055  21.054   1.262
77895NA+    NA+37398  16.307  12.785  12.476
77896NA+    NA+37399  29.549  21.520   1.350
77897NA+    NA+37400  34.610  21.035   2.815
77898NA+    NA+37401  24.107  10.187  13.343
77899NA+    NA+37402  42.000  31.954   3.353
77900NA+    NA+37403  16.566   4.833  12.968
77901NA+    NA+37404  42.845   2.799   1.330
77902NA+    NA+37405  23.180  40.489   4.832
77903NA+    NA+37406   7.286  33.888   2.227
77904NA+    NA+37407  12.320   9.762   4.753
77905NA+    NA+37408   8.685  25.090  14.344
77906NA+    NA+37409  14.308  16.656  10.961
77907NA+    NA+37410  18.653   0.775   4.258
77908NA+    NA+37411  13.648  25.688  11.035
77909NA+    NA+37412  38.941  36.913  13.432
77910NA+    NA+37413  19.588   9.713   4.243
77911NA+    NA+37414  35.377  37.560  12.075
77912NA+    NA+37415  37.956  11.841  14.006
77913NA+    NA+37416  25.964  41.367   0.410
77914NA+    NA+37417  14.803  37.538  11.543
77915NA+    NA+37418   1.309  39.503  12.402
77916NA+    NA+37419  15.253  15.161  14.839
77917NA+    NA+37420  10.675   0.763   4.687
77918NA+    NA+37421   8.322  26.963   3.157
77919NA+    NA+37422  35.568  13.262  13.526
77920NA+    NA+37423  21.598   6.219   0.351
77921NA+    NA+37424  13.217   0.450   4.202
77922NA+    NA+37425  10.198   5.271  11.988
77923NA+    NA+37426   6.725  30.104  13.064
77924NA+    NA+37427  37.922  29.966  11.451
77925NA+    NA+37428  11.362   6.193   4.205
77926NA+    NA+37429  11.838  38.415  13.832
77927NA+    NA+37430   0.802  24.205  13.891
77928NA+    NA+37431  23.604  24.579   4.785
77929NA+    NA+37432  14.300  18.056  13.462
77930NA+    NA+37433  43.475  17.298   2.217
77931NA+    NA+37434  10.353  26.577   4.323
77932NA+    NA+37435  21.151   0.266   2.406
77933NA+    NA+37436  39.466  29.530   1.721
77934NA+    NA+37437  12.127  10.148   0.854
77935NA+    NA+37438   0.871  24.717   2.373
77936NA+    NA+37439  11.798  11.245  10.624
77937NA+    NA+37440  35.922  25.033  14.299
77938NA+    NA+37441   8.777  35.888   3.251
77939NA+    NA+37442  24.538  14.688   2.840
77940NA+    NA+37443   2.312   9.867   3.659
77941NA+    NA+37444  24.484  28.498  11.477
77942NA+    NA+37445   4.282  25.119  12.484
77943NA+    NA+37446  29.068  38.018  12.049
77944NA+    NA+37447   6.883  22.566   4.347
77945NA+    NA+37448  41.510  32.956  14.472
77946NA+    NA+37449  17.694   0.968   2.206
77947NA+    NA+37450   5.348  44.869  13.527
77948NA+    NA+37451  17.717  12.779  14.984
77949NA+    NA+37452  11.710  38.501   3.145
77950NA+    NA+37453   0.757  43.285  12.890
77951NA+    NA+37454  41.295  37.349   0.912
77952NA+    NA+37455  29.467  15.228   2.333
77953NA+    NA+37456   8.879  31.916   0.291
77954CL-    CL-37457  16.306  12.155  11.413
77955CL-    CL-37458  30.534  14.154   1.235
77956CL-    CL-37459  40.321  32.077  10.451
77957CL-    CL-37460  39.501   2.433   0.330
77958CL-    CL-37461  23.506  19.199   1.321
77959CL-    CL-37462   5.773  44.386  10.593
77960CL-    CL-37463   9.670   2.281   1.742
77961CL-    CL-37464  37.038  44.828   4.203
77962CL-    CL-37465  44.435  32.001  11.946
77963CL-    CL-37466   2.730  35.957   2.216
77964CL-    CL-37467  44.390   8.888  10.614
77965CL-    CL-37468  17.155  30.519  14.857
77966CL-    CL-37469  42.030   4.277   4.623
77967CL-    CL-37470  27.453   1.756  14.296
77968CL-    CL-37471  42.470  15.294   1.235
77969CL-    CL-37472  38.378  24.021  14.395
77970CL-    CL-37473  34.595   8.823  14.491
77971CL-    CL-37474  31.580   4.857  10.424
77972CL-    CL-37475  24.182   0.758   4.829
77973CL-    CL-37476  31.925  23.712  11.507
77974CL-    CL-37477  34.056  28.625  11.120
77975CL-    CL-37478   6.190  41.297  14.443
77976CL-    CL-37479  36.444   0.293  14.423
77977CL-    CL-37480  22.232   0.484   5.630
77978CL-    CL-37481  19.245  38.828  11.543
77979CL-    CL-37482  11.210  15.097   1.448
77980CL-    CL-37483  25.496  30.647   1.900
77981CL-    CL-37484   9.720  35.516  11.995
77982CL-    CL-37485  12.743  15.223   0.307
77983CL-    CL-37486   0.435  44.857  13.949
77984CL-    CL-37487  24.103   7.306  14.284
77985CL-    CL-37488  17.230  21.521  13.398
77986CL-    CL-37489  17.193  44.280  10.451
77987CL-    CL-37490   8.264  36.049  14.918
77988CL-    CL-37491  19.732  34.018  10.933
77989CL-    CL-37492   5.266   0.920  11.516
77990CL-    CL-37493   3.902  31.936   2.720
77991CL-    CL-37494  19.058   0.297   3.353
77992CL-    CL-37495  31.905  37.553  11.952
77993CL-    CL-37496  12.833  39.857  14.440
77994CL-    CL-37497  39.463  12.138  13.531
77995CL-    CL-37498  13.264  11.720  12.477
77996CL-    CL-37499  40.471  31.611   1.753
77997CL-    CL-37500  12.323  40.807  14.768
77998CL-    CL-37501  17.609   9.385   1.274
77999CL-    CL-37502  39.839  31.141   4.354
78000CL-    CL-37503  18.186  27.173  13.049
78001CL-    CL-37504   0.831   9.834  10.555
78002CL-    CL-37505   9.204  32.141  11.972
78003CL-    CL-37506  32.562  31.023  13.390
78004CL-    CL-37507   9.234  24.016  14.384
78005CL-    CL-37508  43.768  32.954   3.854
78006CL-    CL-37509  11.835  16.096   3.683
78007CL-    CL-37510   6.692   0.786  12.853
78008CL-    CL-37511  21.544  32.142   4.331
78009CL-    CL-37512  33.887  14.239   4.604
78010CL-    CL-37513  44.448  44.407   1.857
78011CL-    CL-37514  39.833  14.623  13.895
78012CL-    CL-37515  39.858  30.122  10.911
78013CL-    CL-37516   7.766  44.977   4.221
78014CL-    CL-37517  20.154  24.979   0.298
78015CL-    CL-37518  11.134  19.221  14.940
78016CL-    CL-37519   2.748  43.343   2.197
78017CL-    CL-37520  22.545  29.020  10.591
78018CL-    CL-37521  16.640  39.961  13.949
78019CL-    CL-37522  40.999  20.642   4.182
78020CL-    CL-37523  14.808  15.125   1.429
78021CL-    CL-37524  26.124  41.432  11.063
78022CL-    CL-37525  24.519  25.655  14.872
78023CL-    CL-37526  24.499  22.570  14.510
78024CL-    CL-37527   3.264  25.551   4.162
78025CL-    CL-37528   1.768  25.534  11.605
78026CL-    CL-37529  25.607  22.046   3.321
78027CL-    CL-37530  35.423  24.626  14.020
78028CL-    CL-37531  30.580   8.855  11.454
78029CL-    CL-37532   5.211  40.979  12.947
78030CL-    CL-37533   3.833  44.804  12.430
78031CL-    CL-37534  16.793  23.121  12.370
78032CL-    CL-37535  18.068  25.520   4.804
78033CL-    CL-37536  30.422  17.069   4.699
78034CL-    CL-37537  26.004  39.913   2.190
78035CL-    CL-37538   3.348  33.066   0.304
78036CL-    CL-37539  32.912   3.307  11.396
78037CL-    CL-37540  23.708  36.454  11.516
78038CL-    CL-37541   5.757  13.317  11.434
78039CL-    CL-37542   5.846   6.726   4.796
78040CL-    CL-37543   7.408   7.797   2.290
78041CL-    CL-37544  28.459  34.031   3.719
78042CL-    CL-37545  33.922  18.125  12.508
78043CL-    CL-37546  41.382  40.439   3.804
78044CL-    CL-37547  20.618  35.439  13.533
78045CL-    CL-37548  29.585  16.701  12.835
78046CL-    CL-37549  28.121  16.096  12.016
78047CL-    CL-37550  29.641  26.651  11.919
78048CL-    CL-37551  18.052   0.807   1.881
78049CL-    CL-37552   2.373   7.291  10.508
78050CL-    CL-37553  17.594  13.114   4.237
78051CL-    CL-37554  28.158  20.195  13.527
78052CL-    CL-37555   6.367  20.743  11.934
78053CL-    CL-37556  42.871   7.246  13.539
78054CL-    CL-37557   9.234  24.573   0.886
78055CL-    CL-37558  21.035  27.070   1.782
78056CL-    CL-37559  12.274  10.165   3.653
78057CL-    CL-37560  18.702  27.614  14.860
78058CL-    CL-37561   6.271  35.548  10.467
78059CL-    CL-37562  43.847  17.257  14.310
78060CL-    CL-37563  30.573  38.350   1.359
78061CL-    CL-37564  23.726  39.524   0.769
78062CL-    CL-37565  18.772  12.700  12.370
78063CL-    CL-37566   8.390  15.283   2.403
78064CL-    CL-37567   0.419   3.740  14.844
78065CL-    CL-37568  38.520  25.664   3.376
78066CL-    CL-37569   3.392  35.905   1.879
78067CL-    CL-37570  21.677  10.637   4.233
78068CL-    CL-37571  16.178   8.875   1.364
78069CL-    CL-37572  31.918  32.571   2.384
78070CL-    CL-37573   2.778  25.698  11.413
78071CL-    CL-37574  42.426  19.221   1.851
78072CL-    CL-37575  24.145  26.521  12.470
78073CL-    CL-37576  40.539  43.017  14.462
78074CL-    CL-37577  42.406  15.594   1.717
78075CL-    CL-37578   8.253   2.895   2.404
78076CL-    CL-37579  38.432   3.782  11.002
78077CL-    CL-37580   0.845   2.362   4.832
78078CL-    CL-37581   0.820   0.984  11.574
78079CL-    CL-37582  10.211  34.423   0.746
78080CL-    CL-37583  14.766  32.915   4.734
78081CL-    CL-37584  43.904   4.908   3.244
78082CL-    CL-37585  43.270  12.824   4.211
78083CL-    CL-37586  29.114  44.986  11.602
78084CL-    CL-37587  21.523  38.921   2.764
78085CL-    CL-37588   5.204  39.484  13.469
78086CL-    CL-37589  36.366  25.045  10.998
78087CL-    CL-37590  34.488  28.655   0.457
78088CL-    CL-37591  21.635   1.354  14.303
78089CL-    CL-37592  33.128  38.521  12.049
78090CL-    CL-37593  35.098  39.446   5.284
78091CL-    CL-37594   0.764   8.832   9.930
78092CL-    CL-37595  31.027  29.597   1.831
78093CL-    CL-37596  16.250   4.258  10.492
78094CL-    CL-37597  30.495  41.419  12.880
78095CL-    CL-37598  22.056  35.374  14.327
78096CL-    CL-37599   8.719  25.020   3.176
78097CL-    CL-37600   2.316  42.510   3.684
78098CL-    CL-37601  20.600  43.771   2.870
78099CL-    CL-37602  13.106   5.431   0.421
78100CL-    CL-37603  19.662  43.868  13.058
78101CL-    CL-37604  10.869  20.530  14.919
78102CL-    CL-37605  26.143   5.395  10.449
78103CL-    CL-37606  25.203  26.633  12.954
78104CL-    CL-37607  40.922  12.775  14.312
78105CL-    CL-37608  18.654  10.786  10.416
78106CL-    CL-37609  16.710   4.254   4.688
78107CL-    CL-37610  21.192  26.106  10.124
78108CL-    CL-37611  42.953   7.381  11.943
78109CL-    CL-37612  34.579   9.777   1.709
78110CL-    CL-37613  29.624  19.749  13.024
78111CL-    CL-37614  35.855  40.919   0.432
78112CL-    CL-37615  26.155  41.810   0.314
78113CL-    CL-37616   1.883  17.692  12.911
78114CL-    CL-37617  23.009  39.363  13.058
78115CL-    CL-37618  14.729   6.754  10.439
78116CL-    CL-37619  33.517   0.427   0.443
78117CL-    CL-37620  23.551  23.206  11.015
78118CL-    CL-37621  36.555  14.146  10.473
78119CL-    CL-37622  26.583  20.763   1.356
78120CL-    CL-37623  10.732  28.602  11.068
78121CL-    CL-37624   9.810  20.701  10.521
78122CL-    CL-37625  40.540  44.306   1.823
78123CL-    CL-37626   8.777  24.534   0.316
78124CL-    CL-37627  39.552  13.283  12.004
78125CL-    CL-37628   0.782  40.009  12.038
78126CL-    CL-37629   1.456   7.252   0.965
78127CL-    CL-37630   8.381   4.307  13.041
78128CL-    CL-37631  23.572  33.997  14.300
78129CL-    CL-37632  44.006  10.253   3.648
78130CL-    CL-37633  42.020  26.500   1.721
78131CL-    CL-37634  30.962   2.460  10.443
78132CL-    CL-37635  30.494  41.516  11.585
78133CL-    CL-37636  20.044   5.340  13.435
78134CL-    CL-37637  15.692  13.695   0.840
78135CL-    CL-37638  25.983  19.602  10.420
78136CL-    CL-37639  10.372  37.919  12.554
78137CL-    CL-37640  10.167  42.959  12.557
78138CL-    CL-37641  40.822  16.121  10.924
78139CL-    CL-37642  13.265  21.558   0.731
78140CL-    CL-37643  23.663   2.307   3.740
78141CL-    CL-37644  38.501  19.729   1.212
78142CL-    CL-37645  29.521  16.763  13.466
78143CL-    CL-37646  44.422  35.874  13.316
78144CL-    CL-37647   0.478   3.320   0.307
78145CL-    CL-37648  32.028  22.673  12.342
78146CL-    CL-37649  35.918  44.501  10.955
78147CL-    CL-37650  11.132  22.028  14.910
78148CL-    CL-37651  35.092  44.913   0.941
78149CL-    CL-37652  31.506  34.917  14.834
78150CL-    CL-37653  31.979   3.302  11.864
78151CL-    CL-37654  22.578  40.991  12.917
78152CL-    CL-37655   9.266  35.368   3.306
78153CL-    CL-37656  38.367  32.531  10.419
78154CL-    CL-37657   0.407  20.127  13.911
78155CL-    CL-37658   7.242  44.791   3.776
78156CL-    CL-37659  11.131  15.135  11.434
78157CL-    CL-37660  11.242  20.729   0.336
78158CL-    CL-37661  26.509  14.262   4.604
78159CL-    CL-37662  40.853   7.877  13.879
78160CL-    CL-37663  26.613   1.964   1.869
78161CL-    CL-37664   1.405  18.051  12.032
78162CL-    CL-37665  29.033  17.286   2.304
78163CL-    CL-37666  20.597  40.401  14.918
78164CL-    CL-37667   9.655  25.065   2.716
78165CL-    CL-37668  33.987   1.337  14.886
78166CL-    CL-37669   2.263   5.913   3.672
78167CL-    CL-37670   5.917  44.816  14.278
78168CL-    CL-37671   6.342  12.725  13.016
78169CL-    CL-37672  33.975  13.145  13.501
78170CL-    CL-37673  36.423  19.752  10.937
78171CL-    CL-37674  32.897  15.753   3.232
78172CL-    CL-37675   7.377  23.227   1.747
78173CL-    CL-37676  40.882  38.460  14.941
78174CL-    CL-37677  31.959   4.806   4.623
78175CL-    CL-37678  19.091  31.039  14.991
78176CL-    CL-37679  26.699  27.991   3.199
78177CL-    CL-37680  27.031  21.553   3.699
78178CL-    CL-37681  17.135  29.454  10.906
78179CL-    CL-37682  33.950  36.350   2.325
78180CL-    CL-37683  36.459  33.530  12.365
78181CL-    CL-37684   5.721  14.251   1.726
78182CL-    CL-37685  32.047  32.520  11.586
78183CL-    CL-37686  35.454  42.911   4.676
78184CL-    CL-37687  40.916   2.830   3.214
78185CL-    CL-37688   5.205   0.824   3.801
78186CL-    CL-37689  10.337  21.692  14.863
78187CL-    CL-37690  27.972  44.877  13.849
78188CL-    CL-37691  40.511  20.598   3.807
78189CL-    CL-37692  22.052  30.639  11.541
78190CL-    CL-37693  16.315  15.203   2.719
78191CL-    CL-37694  13.150  36.071   5.242
78192CL-    CL-37695   3.757  31.581  12.918
78193CL-    CL-37696  12.180   7.382  14.847
78194CL-    CL-37697  31.523  25.645   0.795
78195CL-    CL-37698  26.513  12.792   1.753
78196CL-    CL-37699   1.416   0.393  13.994
78197CL-    CL-37700   3.710   7.174  11.064
78198CL-    CL-37701  42.814  26.657   1.444
78199CL-    CL-37702   9.800  10.255   1.354
78200CL-    CL-37703   5.877  23.680   1.843
78201CL-    CL-37704  15.261  23.641  14.025
78202CL-    CL-37705   8.172  43.852   3.260
78203CL-    CL-37706  11.810  18.135   3.270
78204CL-    CL-37707   4.917  37.463   9.921
78205CL-    CL-37708  36.849  24.621   0.422
78206CL-    CL-37709  18.089   4.282  10.410
78207CL-    CL-37710  21.129  11.231   2.378
78208CL-    CL-37711  13.790  44.334  12.537
78209CL-    CL-37712  14.118  43.331   2.766
78210CL-    CL-37713  21.720   3.877  12.073
78211CL-    CL-37714  40.878  23.110  14.499
78212CL-    CL-37715  26.018  36.530  10.620
78213CL-    CL-37716  27.123  41.848  14.777
78214CL-    CL-37717  22.745  30.089  11.536
78215CL-    CL-37718  28.122  36.588   3.706
78216CL-    CL-37719  18.764  38.459   1.229
78217CL-    CL-37720  33.980  25.018   2.341
78218CL-    CL-37721  31.086  29.657  12.904
78219CL-    CL-37722  17.674  43.827  13.323
78220CL-    CL-37723  14.767  34.982   0.386
78221CL-    CL-37724  44.475   8.700  14.367
78222CL-    CL-37725  18.209  33.528   4.294
78223CL-    CL-37726  16.721   2.294   4.146
78224CL-    CL-37727  23.652  23.534  11.496
78225CL-    CL-37728   1.349   9.756  12.906
78226CL-    CL-37729  20.144  43.368  14.875
78227CL-    CL-37730  37.546  30.162   3.268
78228CL-    CL-37731  16.683  14.650  13.321
78229CL-    CL-37732  20.690  38.001  12.438
78230CL-    CL-37733  16.787  18.574   2.214
78231CL-    CL-37734  31.915  34.987  12.389
78232CL-    CL-37735  21.542  21.671   1.834
78233CL-    CL-37736  29.558  19.560   2.213
78234CL-    CL-37737   2.886   2.469  11.021
78235CL-    CL-37738  29.976  23.732  10.152
78236CL-    CL-37739  42.319  17.574   2.341
78237CL-    CL-37740  35.023  43.281  11.004
78238CL-    CL-37741   0.944  42.506  14.800
78239CL-    CL-37742  37.366  10.702   0.803
78240CL-    CL-37743   6.358  41.316   2.820
78241CL-    CL-37744  43.363  29.071  14.903
78242CL-    CL-37745  11.131  19.652   1.242
78243CL-    CL-37746  27.045  38.021  11.058
78244CL-    CL-37747  29.996  35.861   3.386
78245CL-    CL-37748  17.106  33.489   4.141
78246CL-    CL-37749   0.371  34.014   0.372
78247CL-    CL-37750  33.073  27.197  14.992
78248CL-    CL-37751  26.702  38.505   1.931
78249CL-    CL-37752  40.861  25.060  12.033
78250CL-    CL-37753   6.276  12.158   3.708
78251CL-    CL-37754  37.005  25.546  10.597
78252CL-    CL-37755  43.999  41.529  10.512
78253CL-    CL-37756   3.929  28.056   2.360
78254CL-    CL-37757  34.457  37.939  14.891
78255CL-    CL-37758  38.535  32.484   2.825
78256CL-    CL-37759  34.485  13.314  13.982
78257CL-    CL-37760   6.290  29.655   3.249
78258CL-    CL-37761  32.554  33.612  11.603
78259CL-    CL-37762  39.986   7.218  13.003
78260CL-    CL-37763  12.788   2.962   1.711
78261CL-    CL-37764  14.102  38.003  10.522
78262CL-    CL-37765  17.301  25.962  14.380
78263CL-    CL-37766  30.104   0.988   4.745
78264CL-    CL-37767  24.163  30.022   0.893
78265CL-    CL-37768  22.038  44.908  12.339
78266CL-    CL-37769  19.145  29.062  12.892
78267CL-    CL-37770  35.936  41.867   4.118
78268CL-    CL-37771  23.079   2.251   3.299
78269CL-    CL-37772  26.123  25.621   0.436
78270CL-    CL-37773  31.989  38.538  11.469
78271CL-    CL-37774  27.555  33.040  14.766
78272CL-    CL-37775  43.891  33.061   4.624
78273CL-    CL-37776  18.619  39.891  14.797
78274CL-    CL-37777   3.448  19.085   2.846
78275CL-    CL-37778  37.543  44.301   0.895
78276CL-    CL-37779   6.232  25.061   5.100
78277CL-    CL-37780  16.291  18.100  12.830
78278CL-    CL-37781   5.719  14.611  10.533
78279CL-    CL-37782  22.598  36.577   4.199
78280CL-    CL-37783  34.874  35.473  10.108
78281CL-    CL-37784  41.337  34.489  11.547
78282CL-    CL-37785   7.763  27.020  11.486
78283CL-    CL-37786  22.735  29.515   2.707
78284CL-    CL-37787  33.556  31.496  11.083
78285CL-    CL-37788  23.525  12.277   1.879
78286CL-    CL-37789  10.871  31.051  12.475
78287CL-    CL-37790   9.711  44.971   4.308
78288CL-    CL-37791  31.434  35.859  13.975
78289CL-    CL-37792   3.897   1.898   3.244
78290CL-    CL-37793  14.226  13.326   0.451
78291CL-    CL-37794  34.881  19.214   1.275
78292CL-    CL-37795  25.195  22.088  14.504
78293CL-    CL-37796   2.820  29.606   1.745
78294CL-    CL-37797  28.969   1.307   2.720
78295CL-    CL-37798  30.649   4.416   4.623
78296CL-    CL-37799  16.296  30.535   3.219
78297CL-    CL-37800   0.448  19.668  14.392
78298CL-    CL-37801  38.484  11.287  13.388
78299CL-    CL-37802  40.839  31.579   2.400
78300CL-    CL-37803  28.441  37.024   2.322
78301CL-    CL-37804   6.380  23.181  13.899
78302CL-    CL-37805  30.073  10.726  10.128
78303CL-    CL-37806  13.671  24.633   1.317
78304CL-    CL-37807  10.717  15.701  12.559
78305CL-    CL-37808  25.165   7.390  13.357
78306CL-    CL-37809  25.501  30.641  13.425
78307CL-    CL-37810  29.005   7.728  11.554
78308CL-    CL-37811  32.413  14.158  11.049
78309CL-    CL-37812  20.633  26.463   1.921
78310CL-    CL-37813  11.357  12.170  11.905
78311CL-    CL-37814  26.047  15.206   2.808
78312CL-    CL-37815  21.232  44.947   0.789
78313CL-    CL-37816  43.972   5.413  12.529
78314CL-    CL-37817  20.178  43.475  14.383
78315CL-    CL-37818  36.911  10.853  13.900
78316CL-    CL-37819  31.099  42.471  11.570
78317CL-    CL-37820  15.301  24.557  10.964
78318CL-    CL-37821   4.326   5.864   4.330
78319CL-    CL-37822  35.379  28.504   1.427
78320CL-    CL-37823  26.585  17.149   1.435
78321CL-    CL-37824  24.141   0.744  12.351
78322CL-    CL-37825   8.773  31.488   2.739
78323CL-    CL-37826  25.168  17.715   1.226
78324CL-    CL-37827   6.848   9.203   1.907
78325CL-    CL-37828  34.894  44.462   3.246
78326CL-    CL-37829  14.819  32.917  12.389
78327CL-    CL-37830   2.860  44.308   3.779
78328CL-    CL-37831  16.569  29.998  12.932
78329CL-    CL-37832   9.694  15.207  14.957
78330CL-    CL-37833  12.351  21.531   3.835
78331CL-    CL-37834  17.188  17.728  10.501
78332CL-    CL-37835  44.940  22.685  14.444
78333CL-    CL-37836  42.506  17.749   1.302
78334CL-    CL-37837  42.371  41.483   4.727
78335CL-    CL-37838  20.230   7.668   4.228
78336CL-    CL-37839  43.854   7.404  11.371
78337CL-    CL-37840  18.164  29.487  14.922
78338CL-    CL-37841  38.993  10.730   3.375
78339CL-    CL-37842  41.812  32.621   2.687
78340CL-    CL-37843  15.267  35.865  13.522
78341CL-    CL-37844  20.088  37.986  14.454
78342CL-    CL-37845  42.305  25.006  12.920
78343CL-    CL-37846   5.793  33.033   4.655
78344CL-    CL-37847  29.652  34.467   5.290
78345CL-    CL-37848  26.158  16.217  11.935
78346CL-    CL-37849  12.769   8.873  14.797
78347CL-    CL-37850  11.311  38.559  11.602
78348CL-    CL-37851  40.021  23.045  14.412
78349CL-    CL-37852   9.288  27.495   0.348
78350CL-    CL-37853  30.487  27.644   0.875
78351CL-    CL-37854  21.205  33.006   0.732
78352CL-    CL-37855  33.883  31.153  12.535
78353CL-    CL-37856  40.949  13.787  12.396
78354CL-    CL-37857  44.940  29.040  13.480
78355CL-    CL-37858  34.493  37.024   0.359
78356CL-    CL-37859   1.447  18.178   4.624
78357CL-    CL-37860  14.248  25.578   1.803
78358CL-    CL-37861  16.716  25.638  13.316
78359CL-    CL-37862  38.359  36.990  12.397
78360CL-    CL-37863   0.381  28.649  14.350
78361CL-    CL-37864  17.136  12.751   1.874
78362CL-    CL-37865  27.572  33.430   4.188
78363CL-    CL-37866  32.542  23.552  13.817
78364CL-    CL-37867  24.065  36.555  11.034
78365CL-    CL-37868  41.988   9.818  13.969
78366CL-    CL-37869  26.681  35.961   1.825
78367CL-    CL-37870  44.914  17.292   3.175
78368CL-    CL-37871  11.836  30.433  14.498
78369CL-    CL-37872  17.176  44.933  14.816
78370CL-    CL-37873  13.603   6.195  11.873
78371CL-    CL-37874  25.053  16.144  14.911
78372CL-    CL-37875  36.914   2.813  12.433
78373CL-    CL-37876   4.714  41.484  11.473
78374CL-    CL-37877  30.500  35.413   1.304
78375CL-    CL-37878  16.792   6.809  14.335
78376CL-    CL-37879  31.529  11.135   3.633
78377CL-    CL-37880  17.256  19.134  13.807
78378CL-    CL-37881  21.234  28.520   4.757
78379CL-    CL-37882  14.171  38.461   1.281
78380CL-    CL-37883  43.979  32.019  13.505
78381CL-    CL-37884  27.070  20.539  12.439
78382CL-    CL-37885   2.738  20.736  14.470
78383CL-    CL-37886  24.117  26.971  11.918
78384CL-    CL-37887   0.481  12.713   0.860
78385CL-    CL-37888  31.996  22.151  11.476
78386CL-    CL-37889   5.891  17.098  13.885
78387CL-    CL-37890  16.153  27.136   1.369
78388CL-    CL-37891  26.204  34.908  11.578
78389CL-    CL-37892  26.207  14.731  13.967
78390CL-    CL-37893  40.823  28.053  10.900
78391CL-    CL-37894   4.435  38.874  13.832
78392CL-    CL-37895   6.737  36.516   2.317
78393CL-    CL-37896  23.116  28.934   1.918
78394CL-    CL-37897   7.844  12.352  11.414
78395CL-    CL-37898  23.204  23.702   1.443
78396CL-    CL-37899  12.302  15.087   4.340
78397CL-    CL-37900  20.195  42.473   1.284
78398CL-    CL-37901   1.466   1.805   1.858
78399CL-    CL-37902  24.099  25.087  11.979
78400CL-    CL-37903  30.094   0.974   2.267
78401CL-    CL-37904  17.257  26.012  14.990
78402CL-    CL-37905  35.431   2.429   2.309
78403CL-    CL-37906  26.128  23.549   3.376
78404CL-    CL-37907  36.548  26.660  14.509
78405CL-    CL-37908  29.588   2.777   2.308
78406CL-    CL-37909   5.423  40.351   0.358
78407CL-    CL-37910   3.215  25.214   0.277
78408CL-    CL-37911  19.777  29.547  11.592
78409CL-    CL-37912  27.056  19.127   2.404
78410CL-    CL-37913   5.373  26.581  13.508
78411CL-    CL-37914  15.095  42.345  13.849
78412CL-    CL-37915  26.111  35.391   1.323
78413CL-    CL-37916  35.931  29.152   2.773
78414CL-    CL-37917  38.924  39.373  10.160
78415CL-    CL-37918  39.837  15.192   0.419
78416CL-    CL-37919   8.318  27.080  10.544
78417CL-    CL-37920  36.930  13.229  13.499
78418CL-    CL-37921  22.089  14.835  13.441
78419CL-    CL-37922  36.415  24.161   3.232
78420CL-    CL-37923  33.383  34.451   3.386
78421CL-    CL-37924  43.851  43.001   3.750
78422CL-    CL-37925  19.081   7.890  14.923
78423CL-    CL-37926  27.159   5.705  11.486
78424CL-    CL-37927  18.782   1.436   2.194
78425CL-    CL-37928  26.647  26.174  13.510
78426CL-    CL-37929  23.539  19.779  11.044
78427CL-    CL-37930  19.764  21.073  13.446
78428CL-    CL-37931  24.521  20.742   3.293
78429CL-    CL-37932  37.340  14.223  13.881
78430CL-    CL-37933  27.580  19.232  14.022
78431CL-    CL-37934  41.529  15.650  11.064
78432CL-    CL-37935  16.225   1.932   4.253
78433CL-    CL-37936  25.679  38.547  14.292
78434CL-    CL-37937  33.902  10.768   3.198
78435CL-    CL-37938  25.663  13.804   3.237
78436CL-    CL-37939   5.416   7.269   2.743
78437CL-    CL-37940  17.709   0.327   4.214
78438CL-    CL-37941  33.464  41.301  13.453
78439CL-    CL-37942  40.852  28.664  14.901
78440CL-    CL-37943  42.802  29.565  10.635
78441CL-    CL-37944   0.461  33.453   0.359
78442CL-    CL-37945   8.360   8.306   2.799
78443CL-    CL-37946  24.627  38.547  13.016
78444CL-    CL-37947  34.937  24.199   4.178
78445CL-    CL-37948  19.175   7.346  12.068
78446CL-    CL-37949  30.094  36.410   2.861
78447CL-    CL-37950  17.670   9.887   2.224
78448CL-    CL-37951  18.111   8.841  12.834
78449CL-    CL-37952   4.907  18.679   2.674
78450CL-    CL-37953  29.546  42.986   4.123
78451CL-    CL-37954  25.627   6.725  12.974
78452CL-    CL-37955  25.159  32.403   4.227
78453CL-    CL-37956  17.190  10.729   0.387
78454CL-    CL-37957  31.011  35.523  11.045
78455CL-    CL-37958   0.969  20.239  11.450
78456CL-    CL-37959  16.236  25.061  14.027
78457CL-    CL-37960   0.368  44.964  12.358
78458CL-    CL-37961  16.728  13.771  14.965
78459CL-    CL-37962  43.421  32.077   3.170
78460CL-    CL-37963   2.383  30.129   3.241
78461CL-    CL-37964   8.725  17.194   3.200
78462CL-    CL-37965  34.406  23.079   0.431
78463CL-    CL-37966  44.893  36.589  12.524
78464CL-    CL-37967  24.109  13.639  14.831
78465CL-    CL-37968   5.299  42.889   2.722
78466CL-    CL-37969  33.597   1.309   0.314
78467CL-    CL-37970  34.083  21.031   1.331
78468CL-    CL-37971   9.890  44.957   1.934
78469CL-    CL-37972  19.637  29.656   0.857
78470CL-    CL-37973  43.938  35.993   1.812
78471CL-    CL-37974  19.736   3.716  10.486
78472CL-    CL-37975  42.788  36.917  14.418
78473CL-    CL-37976   8.725   0.354   1.780
78474CL-    CL-37977  18.153  43.970  13.039
78475CL-    CL-37978  26.967   6.715  13.906
78476CL-    CL-37979  34.555  34.499   0.729
78477CL-    CL-37980   5.898  32.073  12.086
78478CL-    CL-37981  10.653   3.923  12.922
78479CL-    CL-37982  29.995  18.094  13.389
78480CL-    CL-37983  36.041  34.983  14.427
78481CL-    CL-37984  44.758  17.086   4.797
78482CL-    CL-37985  13.321   1.459   2.715
78483CL-    CL-37986  36.565  38.904   0.377
78484CL-    CL-37987  20.186   0.296   5.138
78485CL-    CL-37988   1.374   8.748   1.845
78486CL-    CL-37989  26.644  44.312  11.568
78487CL-    CL-37990   4.820  22.666  10.554
78488CL-    CL-37991   1.942   1.352   4.655
78489CL-    CL-37992  27.590  27.121   2.894
78490CL-    CL-37993  17.596  18.079   0.896
78491CL-    CL-37994  39.404  33.046   1.217
78492CL-    CL-37995   5.701  40.303   0.310
78493CL-    CL-37996   9.745  28.077  12.875
78494CL-    CL-37997  10.637  12.802  12.831
78495CL-    CL-37998  28.600   5.772   2.223
78496CL-    CL-37999  36.911  18.193   0.267
78497CL-    CL-38000  18.294  38.550   3.778
78498CL-    CL-38001   4.888   4.420   3.686
78499CL-    CL-38002  18.591  33.925   0.474
78500CL-    CL-38003   3.728  15.633   3.371
78501CL-    CL-38004  30.444   2.227  12.496
78502CL-    CL-38005  15.176  39.332  11.012
78503CL-    CL-38006   8.814  32.503  14.764
78504CL-    CL-38007  39.448   6.841   1.227
78505CL-    CL-38008  25.486  23.710   0.365
78506CL-    CL-38009   9.769  17.145   2.717
78507CL-    CL-38010   8.285  41.350   0.944
78508CL-    CL-38011  37.030   8.661   2.233
78509CL-    CL-38012  29.607   1.843   0.811
78510CL-    CL-38013  31.480  12.242  10.582
78511CL-    CL-38014  42.016   4.322  10.507
78512CL-    CL-38015  16.305  14.334   2.369
78513CL-    CL-38016  29.089  43.829   1.349
78514CL-    CL-38017   4.380  28.933   2.692
78515CL-    CL-38018  33.935  33.031   2.223
78516CL-    CL-38019  13.702   2.735   0.385
78517CL-    CL-38020  12.684  32.132   1.859
78518CL-    CL-38021   3.317  19.679  12.441
78519CL-    CL-38022  39.347  36.965   0.763
78520CL-    CL-38023  29.111  35.858   4.717
78521CL-    CL-38024  44.968  35.925   0.324
78522CL-    CL-38025   8.841  13.209   0.469
78523CL-    CL-38026   1.931  27.049  14.295
78524CL-    CL-38027  35.395  42.021   2.670
78525CL-    CL-38028  36.854  11.280  11.021
78526CL-    CL-38029  25.554  20.235  12.555
78527CL-    CL-38030  36.098  37.422  14.384
78528CL-    CL-38031  11.294  33.033  14.453
78529CL-    CL-38032  30.053   6.262   3.859
78530CL-    CL-38033   5.733   4.379   0.457
78531CL-    CL-38034  31.012  12.848   5.307
78532CL-    CL-38035  21.680   0.278   9.974
78533CL-    CL-38036  35.110  32.027   4.785
78534CL-    CL-38037  43.960   2.771   0.796
78535CL-    CL-38038  38.945   3.721   5.628
78536CL-    CL-38039  30.528  15.813   0.455
78537CL-    CL-38040  13.124  12.719   4.118
78538CL-    CL-38041  28.057  13.683   3.174
78539CL-    CL-38042  37.402  37.377  10.965
78540CL-    CL-38043  24.037  41.417  13.336
78541CL-    CL-38044  14.102  13.603   0.916
78542CL-    CL-38045  40.999   0.426   4.222
78543CL-    CL-38046   6.769  44.316   4.672
78544CL-    CL-38047  32.431  26.011  12.368
78545CL-    CL-38048   7.410  14.245   1.424
78546CL-    CL-38049  20.652  37.428   4.793
78547CL-    CL-38050  11.678  36.372  11.541
78548CL-    CL-38051   1.829  32.460   3.346
78549CL-    CL-38052  41.532  26.139  11.960
78550CL-    CL-38053   9.704   2.845   3.213
78551CL-    CL-38054   8.382  33.520   3.775
78552CL-    CL-38055  38.550   1.463  11.992
78553CL-    CL-38056   7.886   3.267   4.343
78554CL-    CL-38057  39.912  32.044   1.251
78555CL-    CL-38058  10.361  22.074  14.318
78556CL-    CL-38059   6.252   2.232   1.909
78557CL-    CL-38060  44.377  34.563   0.299
78558CL-    CL-38061  31.945  11.805  10.924
78559CL-    CL-38062  33.515  31.426  10.123
78560CL-    CL-38063  31.987  20.055   1.250
78561CL-    CL-38064  35.948   2.292   3.338
78562CL-    CL-38065  33.976  38.051  14.836
78563CL-    CL-38066  31.032  13.262  13.830
78564CL-    CL-38067  36.880  24.065   2.719
78565CL-    CL-38068   2.278  19.725  10.523
78566CL-    CL-38069  37.407  36.435  11.021
78567CL-    CL-38070  28.982  36.015  13.502
78568CL-    CL-38071  10.716  10.774   2.354
78569CL-    CL-38072   6.806   0.457   2.785
78570CL-    CL-38073  11.248  22.112   2.843
78571CL-    CL-38074  20.707  18.619   1.391
78572CL-    CL-38075  25.638  39.036   2.192
78573CL-    CL-38076  21.115  32.022   1.776
78574CL-    CL-38077  43.315   6.727  11.465
78575CL-    CL-38078  24.043  21.563   3.829
78576CL-    CL-38079  37.520  13.776  14.313
78577CL-    CL-38080   1.241  36.001  14.784
78578CL-    CL-38081  22.555  36.532  14.016
78579CL-    CL-38082  23.657  39.438  11.955
78580CL-    CL-38083  15.691  28.099  13.405
78581CL-    CL-38084   5.833  24.551  14.347
78582CL-    CL-38085  23.670  36.422  14.309
78583CL-    CL-38086  15.822  26.497  11.455
78584CL-    CL-38087  21.565  43.003  11.077
78585CL-    CL-38088  32.088   2.285  14.935
78586CL-    CL-38089   4.820  15.820   2.676
78587CL-    CL-38090  44.270  25.081  13.903
78588CL-    CL-38091  38.479  22.699   0.254
78589CL-    CL-38092  16.163  10.315  12.537
78590CL-    CL-38093  14.313  24.169  12.442
78591CL-    CL-38094   3.793  36.035   0.476
78592CL-    CL-38095  14.653  30.080  10.961
78593CL-    CL-38096   4.442   9.158  13.478
78594CL-    CL-38097  25.972  40.369   4.315
78595CL-    CL-38098  33.422  17.064   3.301
78596CL-    CL-38099  13.319  22.727  14.845
78597CL-    CL-38100   4.248  40.995   4.249
78598CL-    CL-38101  36.564   2.259   1.931
78599CL-    CL-38102  10.300  12.758   5.134
78600CL-    CL-38103  32.626  17.285   3.210
78601CL-    CL-38104  20.591   8.392  13.961
78602CL-    CL-38105  22.064  22.216   2.251
78603CL-    CL-38106   1.825   6.870   0.453
78604CL-    CL-38107  13.192  11.712   4.341
78605CL-    CL-38108   9.652  42.364  11.007
78606CL-    CL-38109  34.881  14.108  10.534
78607CL-    CL-38110   4.736  14.772  10.890
78608CL-    CL-38111   3.756  38.340   2.347
78609CL-    CL-38112  17.685   9.345  11.451
78610CL-    CL-38113   9.203  43.358   1.259
78611CL-    CL-38114   0.979  32.956   1.865
78612CL-    CL-38115   7.311  11.240   4.721
78613CL-    CL-38116   1.237   3.846  10.430
78614CL-    CL-38117  31.929  20.701   3.806
78615CL-    CL-38118   2.735  35.427   1.808
78616CL-    CL-38119  10.205  39.893  13.793
78617CL-    CL-38120  34.978   9.719  13.459
78618CL-    CL-38121   1.456   9.347  13.325
78619CL-    CL-38122  28.520  38.917  13.352
78620CL-    CL-38123  39.474  31.500  12.945
78621CL-    CL-38124  29.504  36.462   0.378
78622CL-    CL-38125  18.727  12.286   1.239
78623CL-    CL-38126  21.240  12.124  11.929
78624CL-    CL-38127  14.105   5.916  11.550
78625CL-    CL-38128  25.586  16.657   1.699
78626CL-    CL-38129  26.560  15.237  11.532
78627CL-    CL-38130  33.517   1.818   2.227
78628CL-    CL-38131  36.092  41.933  11.531
78629CL-    CL-38132  13.135  30.154   1.247
78630CL-    CL-38133  36.093   8.749  10.454
78631CL-    CL-38134  27.965  17.672  12.352
78632CL-    CL-38135  36.919  28.052  14.025
78633CL-    CL-38136  23.702  18.188   2.298
78634CL-    CL-38137   2.926  31.012   9.493
78635CL-    CL-38138  43.283  36.554   0.877
78636CL-    CL-38139  24.506  32.566   1.372
78637CL-    CL-38140   9.350  30.420  14.874
78638CL-    CL-38141  23.578  39.530  11.096
78639CL-    CL-38142  18.741  21.538   1.255
78640CL-    CL-38143  12.754   5.796  13.338
78641CL-    CL-38144  44.769  27.050   3.699
78642CL-    CL-38145  42.946  37.010  11.960
78643CL-    CL-38146  12.759  36.366  10.618
78644CL-    CL-38147  12.719  40.052   4.149
78645CL-    CL-38148  17.089  26.160   2.776
78646CL-    CL-38149   2.449  40.423  10.531
78647CL-    CL-38150  31.040   3.883  13.923
78648CL-    CL-38151  44.963  20.235  13.931
78649CL-    CL-38152  20.125  32.012  10.965
78650CL-    CL-38153  36.512  29.062   0.480
78651CL-    CL-38154  16.566  27.447   1.418
78652CL-    CL-38155   1.873  12.746  14.441
78653CL-    CL-38156  43.811  17.289   1.279
78654CL-    CL-38157  21.108  44.997   2.277
78655CL-    CL-38158  33.981   9.848  13.379
78656CL-    CL-38159  25.139  20.142   0.297
78657CL-    CL-38160  30.988  19.727  13.351
78658CL-    CL-38161   9.238   2.304  12.964
78659CL-    CL-38162  42.995  27.945   2.768
78660CL-    CL-38163   2.284  12.856   0.821
78661CL-    CL-38164   1.842  25.111  12.054
78662CL-    CL-38165  20.721  39.496  13.904
78663CL-    CL-38166  28.011  36.929   5.276
78664CL-    CL-38167  29.521  19.094   0.783
78665CL-    CL-38168   8.679  23.111   1.225
78666CL-    CL-38169  17.792  11.808   1.717
78667CL-    CL-38170  44.774  43.494   1.344
78668CL-    CL-38171   2.378  18.097   4.203
78669CL-    CL-38172  26.464  15.672  13.339
78670CL-    CL-38173  43.423  27.633  10.578
78671CL-    CL-38174  18.187  15.120   2.770
78672CL-    CL-38175  35.568  44.358   3.834
78673CL-    CL-38176  43.835  17.687   2.274
78674CL-    CL-38177  36.531  26.063  12.065
78675CL-    CL-38178  21.175  18.686   3.842
78676CL-    CL-38179  34.108   3.398   0.773
78677CL-    CL-38180  44.410   7.705   3.703
78678CL-    CL-38181   0.935   3.244  13.032
78679CL-    CL-38182  32.940  23.635  10.490
78680CL-    CL-38183  27.951  17.726   4.145
78681CL-    CL-38184  44.793   9.692  11.071
78682CL-    CL-38185  37.959   4.730  14.286
78683CL-    CL-38186  18.185  17.702  14.422
78684CL-    CL-38187  12.189  31.914   0.763
78685CL-    CL-38188  33.559  23.642  11.888
78686CL-    CL-38189  37.450  36.559   3.199
78687CL-    CL-38190   2.773  30.507   4.225
78688CL-    CL-38191  29.669  13.667  12.539
78689CL-    CL-38192  17.758  23.118   3.692
78690CL-    CL-38193  22.085  25.479   0.872
78691CL-    CL-38194  29.653   1.734   3.758
78692CL-    CL-38195  29.479  11.742  12.559
78693CL-    CL-38196  33.567  31.569  14.473
78694CL-    CL-38197  38.867   4.420  12.983
78695CL-    CL-38198  42.030  30.077   2.213
78696CL-    CL-38199  38.524   3.787   2.313
78697CL-    CL-38200  16.189  10.205  14.783
78698CL-    CL-38201  23.090   2.752   2.407
78699CL-    CL-38202  30.579  28.120   4.777
78700CL-    CL-38203  43.015  42.862   0.967
78701CL-    CL-38204   7.802   4.874  10.073
78702CL-    CL-38205  30.498  41.954  11.379
78703CL-    CL-38206  44.823  24.165  12.498
78704CL-    CL-38207   3.885  43.410   0.328
78705CL-    CL-38208  42.452  22.065  12.848
78706CL-    CL-38209  16.198   9.284  10.994
78707CL-    CL-38210   0.427  27.008   1.757
78708CL-    CL-38211   1.433  42.902   3.271
78709CL-    CL-38212  39.810  29.665  10.602
78710CL-    CL-38213  29.124  42.415   2.202
78711CL-    CL-38214  18.658  17.758   3.850
78712CL-    CL-38215  12.767  12.851  12.829
78713CL-    CL-38216  34.376  37.420   9.978
78714CL-    CL-38217  39.005  39.540   4.612
78715CL-    CL-38218  34.969  44.334   0.408
78716CL-    CL-38219  34.570  22.070  13.914
78717CL-    CL-38220   7.211  13.698   4.257
78718CL-    CL-38221   3.422  40.881  10.893
78719CL-    CL-38222  30.530  33.479  11.882
78720CL-    CL-38223  17.248  21.197  12.892
78721CL-    CL-38224   6.731   0.352   0.296
78722CL-    CL-38225  32.041  38.535   1.350
78723CL-    CL-38226  23.586  33.968  13.923
78724CL-    CL-38227   4.929  24.178   2.886
78725CL-    CL-38228  34.968  27.099   4.238
78726CL-    CL-38229  26.176  21.658  13.519
78727CL-    CL-38230   4.207   5.436   0.799
78728CL-    CL-38231  30.589   0.266  13.975
78729CL-    CL-38232  14.738   5.857   1.238
78730CL-    CL-38233   0.831  16.705   3.216
78731CL-    CL-38234  20.536  36.490   4.757
78732CL-    CL-38235   4.219  23.146  13.024
78733CL-    CL-38236  38.039  34.065  13.832
78734CL-    CL-38237   2.366   0.753  13.041
78735CL-    CL-38238  10.185  43.365  14.800
78736CL-    CL-38239  22.660  11.339  14.781
78737CL-    CL-38240  38.955  11.828  10.424
78738CL-    CL-38241  33.473  10.217   0.851
78739CL-    CL-38242  26.956   7.330   0.295
78740CL-    CL-38243  14.128  41.344  11.867
78741CL-    CL-38244   0.881  31.122   2.223
78742CL-    CL-38245  24.164  40.374  13.487
78743CL-    CL-38246   2.862  21.666   1.845
78744CL-    CL-38247  31.630  20.690   1.784
78745CL-    CL-38248  39.346  28.064  13.005
78746CL-    CL-38249   5.846  18.196   5.108
78747CL-    CL-38250  36.574   8.692   4.253
78748CL-    CL-38251  17.726  34.385  12.053
78749CL-    CL-38252   1.251  19.557  14.342
78750CL-    CL-38253   4.375   3.932  13.864
78751CL-    CL-38254  44.894   0.315  11.417
78752CL-    CL-38255  38.341  19.265  14.793
78753CL-    CL-38256  25.144  10.829   0.279
78754CL-    CL-38257   7.233  19.090  12.848
78755CL-    CL-38258  33.495  33.044   0.775
78756CL-    CL-38259  36.471  14.716   2.352
78757CL-    CL-38260  31.138  31.925  12.008
78758CL-    CL-38261  40.971  29.620  14.893
78759CL-    CL-38262  39.362  41.335  13.485
78760CL-    CL-38263   4.437  10.222  11.961
78761CL-    CL-38264  38.499  23.681   0.292
78762CL-    CL-38265  36.905  19.237  13.995
78763CL-    CL-38266  23.184  24.603  12.356
78764CL-    CL-38267  20.654  30.483   2.395
78765CL-    CL-38268  11.206   7.278  12.566
78766CL-    CL-38269  30.510  38.481  10.472
78767CL-    CL-38270  34.425  29.980  11.378
78768CL-    CL-38271  34.573  32.907  14.368
78769CL-    CL-38272  11.762  23.170  10.578
78770CL-    CL-38273  33.021  41.440   4.784
78771CL-    CL-38274  41.889  21.025   3.364
78772CL-    CL-38275  14.138  36.535  11.466
78773CL-    CL-38276  38.071  36.077   0.912
78774CL-    CL-38277   5.200  34.956   1.875
78775CL-    CL-38278  12.204  11.771   4.705
78776CL-    CL-38279   0.383  27.987   1.340
78777CL-    CL-38280  25.152  22.538   1.820
78778CL-    CL-38281  30.034  19.138   0.811
78779CL-    CL-38282  35.369  23.050  13.367
78780CL-    CL-38283  14.238   6.782  13.504
78781CL-    CL-38284  30.073  29.498  12.946
78782CL-    CL-38285  24.595  37.456   1.828
78783CL-    CL-38286  38.955   3.882   1.330
78784CL-    CL-38287   1.795   8.353  13.038
78785CL-    CL-38288   4.218  14.597   1.826
78786CL-    CL-38289  16.702  32.619   2.746
78787CL-    CL-38290  33.472  32.006  11.613
78788CL-    CL-38291  38.965   5.784   2.764
78789CL-    CL-38292  21.195  16.618   4.321
78790CL-    CL-38293  29.471  23.504  11.414
78791CL-    CL-38294  41.896  18.116   2.221
78792CL-    CL-38295  20.534  15.292  11.988
78793CL-    CL-38296  28.039  43.431   3.858
78794CL-    CL-38297  31.997   0.985   4.329
78795CL-    CL-38298   2.952   1.451  12.397
78796CL-    CL-38299  17.112  34.894   3.696
78797CL-    CL-38300  28.540  30.044  10.085
78798CL-    CL-38301   7.187  28.650   2.286
78799CL-    CL-38302  42.850  31.439   3.749
78800CL-    CL-38303  14.806  16.720  12.390
78801CL-    CL-38304  38.414  32.043  11.893
78802CL-    CL-38305   4.433  31.528   1.248
78803CL-    CL-38306  11.739  17.662  13.496
78804CL-    CL-38307  10.855  21.580   1.895
78805CL-    CL-38308  35.360  21.720  13.972
78806CL-    CL-38309   8.361  43.359  11.964
78807CL-    CL-38310  21.735  11.828  13.022
78808CL-    CL-38311  29.597  40.885  11.057
78809CL-    CL-38312   0.806  40.934  13.984
78810CL-    CL-38313  24.674   5.928  10.565
78811CL-    CL-38314  26.652  31.984   1.823
78812CL-    CL-38315   7.794  24.560   2.759
78813CL-    CL-38316  27.965  39.509   4.647
78814CL-    CL-38317  43.020  14.328  11.389
78815CL-    CL-38318  38.528  40.904   2.245
78816CL-    CL-38319  26.015  37.561   0.820
78817CL-    CL-38320  29.128  28.452  13.403
78818CL-    CL-38321  16.131   2.747  14.761
78819CL-    CL-38322  20.073  23.721  14.802
78820CL-    CL-38323  22.532  31.615  12.857
78821CL-    CL-38324  35.532  30.966  11.862
78822CL-    CL-38325  43.926   5.394   2.747
78823CL-    CL-38326  16.662  41.370  10.909
78824CL-    CL-38327  19.618  41.922  13.426
78825CL-    CL-38328  36.454  36.083   9.922
78826CL-    CL-38329   2.317  42.897   0.303
78827CL-    CL-38330  31.095  17.104   0.336
78828CL-    CL-38331  20.175  42.914   0.752
78829CL-    CL-38332  40.884  29.597   3.262
78830CL-    CL-38333  30.533   0.976  11.901
78831CL-    CL-38334   5.304   8.887   3.327
78832CL-    CL-38335  18.701  38.446   2.699
78833CL-    CL-38336  21.111  44.367   0.326
78834CL-    CL-38337  26.511   7.324   3.205
78835CL-    CL-38338  31.909  34.545  14.846
78836CL-    CL-38339  13.748  10.787  14.980
78837CL-    CL-38340  23.547  22.157   0.403
78838CL-    CL-38341   3.788   1.298  10.957
78839CL-    CL-38342  21.517  11.359   0.243
78840CL-    CL-38343   3.741  35.858   4.146
78841CL-    CL-38344  41.965   2.834  11.919
78842CL-    CL-38345  16.228  24.223  14.845
78843CL-    CL-38346   8.293   0.935   0.748
78844CL-    CL-38347  17.109  39.902  11.555
78845CL-    CL-38348  16.652  24.995  13.879
78846CL-    CL-38349  31.969  17.790   3.387
78847CL-    CL-38350  31.418   8.365   4.323
78848CL-    CL-38351  38.972  30.568  12.986
78849CL-    CL-38352  44.348  13.738   3.308
78850CL-    CL-38353  24.130  27.634   2.218
78851CL-    CL-38354  31.610   1.355   2.705
78852CL-    CL-38355  42.825  13.155  10.558
78853CL-    CL-38356  43.435  14.242  14.477
78854CL-    CL-38357   0.785  20.242   1.281
78855CL-    CL-38358   0.918  16.735  14.360
78856CL-    CL-38359  14.820  34.893   3.844
78857CL-    CL-38360  18.283  19.717   1.300
78858CL-    CL-38361  30.121  34.511  13.441
78859CL-    CL-38362   8.680  13.235  13.964
78860CL-    CL-38363  12.312  22.038  13.313
78861CL-    CL-38364  26.683  31.600   1.359
78862CL-    CL-38365  14.816  39.325   4.797
78863CL-    CL-38366  15.678  18.706   4.267
78864CL-    CL-38367  14.832  39.046  11.606
78865CL-    CL-38368  37.987   3.460   1.889
78866CL-    CL-38369  41.385   3.753  12.514
78867CL-    CL-38370  44.841  10.190  10.980
78868CL-    CL-38371  37.457  22.102  13.817
78869CL-    CL-38372  18.679   3.309  12.971
78870CL-    CL-38373  12.834  41.450   0.245
78871CL-    CL-38374  13.129  21.044  14.466
78872CL-    CL-38375  41.877  19.213  10.148
78873CL-    CL-38376  19.172   7.174   2.688
78874CL-    CL-38377   9.162  16.142   1.744
78875CL-    CL-38378   2.832  35.473  11.598
78876CL-    CL-38379  31.550   2.761   1.386
78877CL-    CL-38380  43.990  20.199   1.348
78878CL-    CL-38381  12.673  27.983  10.544
78879CL-    CL-38382  22.174   5.420   4.604
78880CL-    CL-38383  27.484  38.342   4.330
78881CL-    CL-38384  36.448   1.752   4.125
78882CL-    CL-38385   2.839  34.961   4.770
78883CL-    CL-38386  30.489   5.854  12.555
78884CL-    CL-38387  11.145  22.051   1.407
78885CL-    CL-38388  12.782   6.214   4.187
78886CL-    CL-38389   2.402  28.066  12.017
78887CL-    CL-38390  10.314  31.461   3.758
78888CL-    CL-38391  23.018  35.440   3.180
78889CL-    CL-38392  43.450  22.606   4.228
78890CL-    CL-38393  36.083  32.412   4.621
78891CL-    CL-38394  28.036  34.986  14.467
78892CL-    CL-38395   0.968  38.934  10.111
78893CL-    CL-38396  11.786  30.157  10.450
78894CL-    CL-38397  22.040   7.743  10.916
78895CL-    CL-38398  16.292  23.644   0.431
78896CL-    CL-38399   7.319  41.954   1.321
78897CL-    CL-38400  35.904  36.084  11.115
78898CL-    CL-38401  24.587  44.394   3.281
78899CL-    CL-38402  32.433   1.411  14.378
78900CL-    CL-38403  29.031  42.515  13.490
78901CL-    CL-38404  39.546  43.824  11.449
78902CL-    CL-38405  21.098  12.297  14.371
78903CL-    CL-38406  26.126  39.333  14.419
78904CL-    CL-38407   1.758  40.533  13.316
78905CL-    CL-38408  20.176   7.844  13.906
78906CL-    CL-38409  10.785   6.284   3.775
78907CL-    CL-38410  38.927  15.782   4.267
78908CL-    CL-38411  33.117  30.993   0.402
78909CL-    CL-38412  23.043  22.531  10.496
78910CL-    CL-38413   3.726  34.544  10.951
78911CL-    CL-38414   2.813  30.464   2.771
78912CL-    CL-38415  17.195  11.697   0.795
78913CL-    CL-38416   7.772  13.781   1.227
78914CL-    CL-38417  19.621  15.167  14.794
78915CL-    CL-38418   3.914  43.765   0.418
78916CL-    CL-38419  37.053  34.532   1.395
78917CL-    CL-38420  23.509   8.220  13.975
78918CL-    CL-38421   6.923  32.061   0.906
78919CL-    CL-38422  17.257  23.543   2.255
78920CL-    CL-38423  35.423   0.959   0.293
78921CL-    CL-38424  32.001  15.747   2.833
78922CL-    CL-38425  41.023   2.376   4.603
78923CL-    CL-38426  10.138  12.725   1.722
78924CL-    CL-38427  35.358  17.567   4.758
78925CL-    CL-38428  18.290  25.143   3.730
78926CL-    CL-38429  28.107  16.287   9.563
78927CL-    CL-38430   9.233  44.823  12.923
78928CL-    CL-38431  30.122  26.583   2.809
78929CL-    CL-38432   5.916  13.717  11.024
78930CL-    CL-38433  28.065  41.336   5.191
78931CL-    CL-38434  13.201  16.712   3.362
78932CL-    CL-38435  40.984  27.690  12.985
78933CL-    CL-38436  32.585  41.962   2.308
78934CL-    CL-38437  17.124  39.015   2.263
78935CL-    CL-38438  29.975   1.789   2.841
78936CL-    CL-38439  15.724  10.275   1.234
78937CL-    CL-38440  21.205   6.711  14.949
78938CL-    CL-38441  43.867  34.599   4.297
78939CL-    CL-38442  37.955  35.058  13.887
78940CL-    CL-38443   7.691  32.908   4.731
78941CL-    CL-38444   5.393  36.464   0.774
78942CL-    CL-38445  24.070  39.808   3.711
78943CL-    CL-38446   3.422  32.435  12.949
78944CL-    CL-38447   9.369   1.385  11.986
78945CL-    CL-38448   4.894  33.994  10.462
78946CL-    CL-38449  20.151   6.305  12.091
78947CL-    CL-38450  38.379  42.291   1.762
78948CL-    CL-38451  44.484  32.087   3.690
78949CL-    CL-38452  35.590   2.853  12.993
78950CL-    CL-38453  26.043  14.115   4.149
78951CL-    CL-38454  23.688  10.656   3.221
78952CL-    CL-38455  34.428  35.387   2.182
78953CL-    CL-38456  21.181  38.513  10.113
78954CL-    CL-38457  15.244  23.604   1.439
78955CL-    CL-38458  33.052  24.053   3.329
78956CL-    CL-38459  27.653  22.605   2.820
78957CL-    CL-38460  26.130  42.813  12.854
78958CL-    CL-38461  27.476  11.149  11.882
78959CL-    CL-38462   1.738   5.357  12.920
78960CL-    CL-38463  18.231  23.655  13.359
78961CL-    CL-38464  25.599  18.206   4.608
78962CL-    CL-38465  25.168  17.591  11.999
78963CL-    CL-38466  16.122  24.627  14.809
78964CL-    CL-38467  40.375  30.006  11.010
78965CL-    CL-38468  30.054  17.184   1.279
78966CL-    CL-38469   9.353  39.461   3.372
78967CL-    CL-38470  12.119  18.684   4.257
78968CL-    CL-38471   5.341  33.391  13.420
78969CL-    CL-38472  35.533  33.395   1.334
78970CL-    CL-38473   1.770  36.495   1.444
78971CL-    CL-38474   5.726  12.170  13.896
78972CL-    CL-38475  23.723  12.790  14.386
78973CL-    CL-38476  16.089   3.377  10.504
78974CL-    CL-38477  20.203  39.999  10.421
78975CL-    CL-38478  24.582  31.110   4.163
78976CL-    CL-38479  27.610  34.910  14.351
78977CL-    CL-38480  31.520   1.322   1.290
78978CL-    CL-38481   0.262   8.216  10.643
78979CL-    CL-38482   1.405  13.310   3.170
78980CL-    CL-38483  32.058  21.751   2.324
78981CL-    CL-38484  12.649  30.521   5.213
78982CL-    CL-38485  20.526  14.592   1.810
78983CL-    CL-38486   2.453  32.529  14.783
78984CL-    CL-38487  44.494   7.734  14.910
78985CL-    CL-38488  34.581  38.488   2.756
78986CL-    CL-38489  43.345  35.969  14.360
78987CL-    CL-38490  32.960  31.557  11.052
78988CL-    CL-38491  18.772   6.801  13.395
78989CL-    CL-38492  22.125  42.447   2.218
78990CL-    CL-38493  40.967   5.859  12.060
78991CL-    CL-38494   0.775  33.417   0.460
78992CL-    CL-38495  35.109  19.069  10.486
78993CL-    CL-38496  23.097  42.407  13.398
78994CL-    CL-38497  24.590  43.515  10.972
78995CL-    CL-38498  16.794   7.387  14.433
78996CL-    CL-38499  41.981  40.391   1.337
78997CL-    CL-38500  13.211  17.577  12.436
78998CL-    CL-38501  34.075   9.845   2.186
78999CL-    CL-38502   7.302  14.727  13.382
79000CL-    CL-38503  37.399  25.567   2.702
79001CL-    CL-38504  11.305  19.236  12.389
79002CL-    CL-38505  14.696   2.904  11.984
79003CL-    CL-38506  26.566  37.982  13.509
79004CL-    CL-38507  27.515  19.568   3.178
79005CL-    CL-38508  44.456  22.221   3.164
79006CL-    CL-38509  12.181  43.803   4.630
79007CL-    CL-38510  25.638  41.475   2.698
79008CL-    CL-38511  12.644  39.990  10.544
79009CL-    CL-38512  22.607  12.293   2.675
79010CL-    CL-38513   7.811   6.912   4.338
79011CL-    CL-38514   8.682  40.038   1.359
79012CL-    CL-38515  43.006  18.283  10.431
79013CL-    CL-38516  42.801  28.500   2.793
79014CL-    CL-38517  16.640  22.237   1.274
79015CL-    CL-38518  34.585  15.767   0.780
79016CL-    CL-38519  16.277  35.486  11.015
79017CL-    CL-38520  29.552   5.311   2.810
79018CL-    CL-38521  28.470  33.954   2.290
79019CL-    CL-38522  24.545  37.570  13.046
79020CL-    CL-38523   5.877  23.105   3.821
79021CL-    CL-38524  13.836  23.126   3.146
79022CL-    CL-38525  14.686  12.353  14.481
79023CL-    CL-38526  44.764  23.172   3.695
79024CL-    CL-38527   1.869  15.213  14.352
79025CL-    CL-38528  37.006  25.470  14.823
79026CL-    CL-38529  22.651  37.850  14.802
79027CL-    CL-38530   3.919  38.440   3.748
79028CL-    CL-38531  29.078  42.415   4.766
79029CL-    CL-38532  34.973  44.820   4.712
79030CL-    CL-38533  40.048   2.370  10.508
79031CL-    CL-38534  14.166  35.386  14.875
79032CL-    CL-38535  40.486  23.642  11.406
79033CL-    CL-38536  11.642  40.885   4.330
79034CL-    CL-38537  14.723  25.617  10.958
79035CL-    CL-38538  20.645  33.613   3.648
79036CL-    CL-38539  39.334   1.736  11.071
79037CL-    CL-38540  17.589   4.248   1.908
79038CL-    CL-38541   3.406  27.007  13.452
79039CL-    CL-38542  41.302  23.574   2.179
79040CL-    CL-38543  17.123  37.086   4.150
79041CL-    CL-38544  36.972  32.992   0.909
79042CL-    CL-38545   9.252  16.741   3.231
79043CL-    CL-38546  39.318  30.564   0.903
79044CL-    CL-38547  26.581  31.981  10.545
79045CL-    CL-38548  44.403  18.756  12.005
79046CL-    CL-38549  23.512  40.800  12.026
79047CL-    CL-38550  27.020  25.063   2.781
79048CL-    CL-38551  42.810  24.651   1.275
79049CL-    CL-38552   0.442  33.921  12.524
79050CL-    CL-38553  19.049   5.192  14.999
79051CL-    CL-38554  31.097  38.336  14.316
79052CL-    CL-38555  42.953   9.843   4.715
79053CL-    CL-38556  36.462  36.573  13.841
79054CL-    CL-38557  31.583  36.509   1.778
79055CL-    CL-38558  28.546  14.109   1.884
79056CL-    CL-38559  11.184  39.353  12.026
79057CL-    CL-38560  41.795  13.837   3.272
79058CL-    CL-38561  44.422   3.721   1.731
79059CL-    CL-38562  23.660  20.090   4.653
79060CL-    CL-38563  29.970  15.731   2.714
79061CL-    CL-38564  40.536   1.944  11.490
79062CL-    CL-38565  23.495  25.634  12.009
79063CL-    CL-38566  27.517  37.579   3.732
79064CL-    CL-38567  27.579  12.822  13.528
79065CL-    CL-38568  19.605  26.028  12.379
79066CL-    CL-38569  11.169  30.634   3.779
79067CL-    CL-38570   0.280   7.882   4.340
79068CL-    CL-38571  25.042  26.623   5.218
79069CL-    CL-38572   9.242  32.455  10.407
79070CL-    CL-38573  16.587   6.682   2.811
79071CL-    CL-38574  27.650  14.796   0.898
79072CL-    CL-38575  22.014  41.337   2.201
79073CL-    CL-38576  14.115  31.106  10.412
79074CL-    CL-38577  32.566  43.800  10.594
79075CL-    CL-38578  13.135  23.019  14.793
79076CL-    CL-38579  13.814   4.874  12.984
79077CL-    CL-38580  16.279  28.063  13.826
79078CL-    CL-38581  44.304  31.562  14.515
79079CL-    CL-38582  22.570  44.419   1.786
79080CL-    CL-38583  19.244   2.420   0.318
79081CL-    CL-38584  42.441  32.552  11.907
79082CL-    CL-38585   9.201  11.679   1.777
79083CL-    CL-38586  28.173  29.935   3.689
79084CL-    CL-38587  17.759  14.647   4.809
79085CL-    CL-38588   7.336  26.483   2.202
79086CL-    CL-38589  20.591  37.084   4.708
79087CL-    CL-38590   7.834  11.316  11.553
79088CL-    CL-38591  24.167  11.321   3.295
79089CL-    CL-38592  11.340  28.091   0.386
79090CL-    CL-38593  25.611  10.150  13.860
79091CL-    CL-38594  28.567  33.997  12.444
79092CL-    CL-38595  17.637  26.171  12.352
79093CL-    CL-38596  18.681  35.958   2.220
79094CL-    CL-38597   2.283   0.893   3.311
79095CL-    CL-38598  15.140  21.689  14.944
79096CL-    CL-38599  22.033  15.085   2.393
79097CL-    CL-38600  12.231  21.045  13.467
79098CL-    CL-38601  14.820  18.113  14.808
79099CL-    CL-38602   0.970  37.987   1.885
79100CL-    CL-38603   3.233  25.983  11.952
79101CL-    CL-38604  34.867  19.712   4.336
79102CL-    CL-38605  29.127  44.887   2.768
79103CL-    CL-38606  32.470  31.981  12.578
79104CL-    CL-38607  34.461  18.211   0.446
79105CL-    CL-38608  17.564  14.201   4.698
79106CL-    CL-38609  40.053   7.893  13.461
79107CL-    CL-38610  25.146  18.691   3.685
79108CL-    CL-38611   1.464  25.670  12.494
79109CL-    CL-38612  43.285   3.792  11.456
79110CL-    CL-38613   4.243  21.697   1.372
79111CL-    CL-38614  34.906  31.517   4.669
79112CL-    CL-38615  16.244  27.963   2.837
79113CL-    CL-38616  36.572  38.002  14.943
79114CL-    CL-38617  43.791  34.406   1.859
79115CL-    CL-38618  14.726   1.952  10.920
79116CL-    CL-38619  34.892  24.114   0.376
79117CL-    CL-38620  23.653  37.041  10.956
79118CL-    CL-38621  40.469  42.984   1.893
79119CL-    CL-38622   3.881   9.690  14.453
79120CL-    CL-38623  17.758   2.397  14.497
79121CL-    CL-38624  42.908   9.724   1.752
79122CL-    CL-38625  30.426   4.286   3.717
79123CL-    CL-38626  24.035  35.513   2.742
79124CL-    CL-38627  15.169  37.912  11.581
79125CL-    CL-38628  12.201  24.192  10.907
79126CL-    CL-38629  16.771  27.099   2.330
79127CL-    CL-38630  37.982   6.793  10.455
79128CL-    CL-38631  40.886  17.646  13.834
79129CL-    CL-38632  36.041   1.802  13.443
79130CL-    CL-38633   2.955  10.269  10.921
79131CL-    CL-38634   2.753   7.394  11.062
79132CL-    CL-38635  19.699  12.215   4.251
79133CL-    CL-38636   3.893   9.860  13.515
79134CL-    CL-38637  16.569  36.586  12.844
79135CL-    CL-38638   3.814  26.200   4.244
79136CL-    CL-38639  42.417  40.363   0.404
79137CL-    CL-38640   9.857  43.336  12.357
79138CL-    CL-38641  42.488   7.253  12.018
79139CL-    CL-38642  18.578  38.445  14.514
79140CL-    CL-38643  30.090  34.108  14.460
79141CL-    CL-38644  32.930   6.408  13.495
79142CL-    CL-38645  37.872  24.525   4.825
79143CL-    CL-38646  34.079  28.452   0.368
79144CL-    CL-38647  18.223  10.654   4.640
79145CL-    CL-38648  37.833  24.487   4.312
79146CL-    CL-38649  37.459  37.579  11.896
79147CL-    CL-38650   6.749  16.137   4.205
79148CL-    CL-38651   7.764  44.392  10.932
79149CL-    CL-38652  21.076  14.636  13.478
79150CL-    CL-38653   4.760  12.803  12.921
79151CL-    CL-38654  44.917   5.815  13.794
79152CL-    CL-38655  14.627  29.536   0.287
79153CL-    CL-38656   0.836  16.652   2.300
79154CL-    CL-38657   3.260  32.494   4.616
79155CL-    CL-38658  44.431  42.389  13.483
79156CL-    CL-38659  21.530   0.893   0.320
79157CL-    CL-38660  20.756   3.729  14.444
79158CL-    CL-38661   6.333  34.064  14.767
79159CL-    CL-38662  18.264   0.492  13.343
79160CL-    CL-38663  22.543  19.211  13.059
79161CL-    CL-38664   2.899   5.789   0.294
79162CL-    CL-38665  15.722  34.442  10.129
79163CL-    CL-38666  43.987  26.693   3.204
79164CL-    CL-38667  41.399  43.511   4.172
79165CL-    CL-38668  32.611  38.073  13.002
79166CL-    CL-38669   3.262  18.580  12.001
79167CL-    CL-38670  40.402  43.365  10.482
79168CL-    CL-38671  15.125   4.230  11.895
79169CL-    CL-38672  25.518  26.674  10.415
79170CL-    CL-38673  44.398  27.125  14.783
79171CL-    CL-38674  21.196  15.722   0.936
79172CL-    CL-38675  22.707  28.560  11.414
79173CL-    CL-38676  26.063  29.939   0.280
79174CL-    CL-38677  41.338   9.355   2.307
79175CL-    CL-38678  13.628  25.081   1.851
79176CL-    CL-38679  36.395  27.010   3.262
79177CL-    CL-38680   1.348   3.716   0.864
79178CL-    CL-38681  17.136  42.287  11.877
79179CL-    CL-38682  22.204  38.855   1.862
79180CL-    CL-38683  23.579   7.177   3.800
79181CL-    CL-38684  26.587  42.779  14.880
79182CL-    CL-38685  12.246  13.753   2.391
79183CL-    CL-38686  38.934  19.186  14.456
79184CL-    CL-38687  29.034   1.392   0.876
79185CL-    CL-38688  40.974  23.664   4.777
79186CL-    CL-38689  38.560  38.050  11.458
79187CL-    CL-38690  20.606  30.912  11.519
79188CL-    CL-38691  27.450  11.250  13.462
79189CL-    CL-38692  40.051  14.702  11.469
79190CL-    CL-38693  13.779  27.519   0.343
79191CL-    CL-38694  35.948   5.246   2.327
79192CL-    CL-38695  27.016  40.459  13.340
79193CL-    CL-38696  28.120  37.044  12.509
79194CL-    CL-38697  14.823  35.075   0.848
79195CL-    CL-38698   5.237   8.863  13.931
79196CL-    CL-38699  34.603  26.094  14.974
79197CL-    CL-38700  32.404  33.034  11.584
79198CL-    CL-38701  32.965  32.982  14.023
79199CL-    CL-38702   6.706  38.427  13.516
79200CL-    CL-38703  21.581   4.750   1.819
79201CL-    CL-38704  14.258  42.286   2.247
79202CL-    CL-38705  25.105  38.026   0.955
79203CL-    CL-38706  16.149  29.035  13.505
79204CL-    CL-38707  15.238  14.833   0.909
79205CL-    CL-38708  23.209   3.461   0.450
79206CL-    CL-38709  35.399  13.776   2.243
79207CL-    CL-38710  20.620  42.319  13.488
79208CL-    CL-38711  43.392  25.537   0.402
79209CL-    CL-38712  20.150   7.413  10.495
79210CL-    CL-38713  10.871   9.304  11.028
79211CL-    CL-38714  34.419  29.985  11.995
79212CL-    CL-38715  36.514  39.964   3.236
79213CL-    CL-38716  28.599  21.257  11.098
79214CL-    CL-38717   4.899   6.897  13.915
79215CL-    CL-38718   3.717  38.370   4.838
79216CL-    CL-38719   3.828  24.196   1.241
79217CL-    CL-38720  39.830   7.293   2.687
79218CL-    CL-38721  30.511   2.471   4.204
79219CL-    CL-38722  41.959  38.507  13.539
79220CL-    CL-38723   0.745  32.987  10.938
79221CL-    CL-38724   8.181  13.212   1.414
79222CL-    CL-38725   2.293  20.605   0.797
79223CL-    CL-38726  32.411  41.491  14.779
79224CL-    CL-38727  42.298  18.687  11.120
79225CL-    CL-38728  36.432  20.258  10.424
79226CL-    CL-38729  11.777  44.997  14.824
79227CL-    CL-38730  14.611  40.531   4.146
79228CL-    CL-38731  24.677   1.752   1.362
79229CL-    CL-38732   3.286  11.745   4.258
79230CL-    CL-38733   8.874  29.585  10.549
79231CL-    CL-38734   8.272   9.297  13.954
79232CL-    CL-38735  36.421  18.170  12.891
79233CL-    CL-38736  29.137  23.194   4.196
79234CL-    CL-38737  20.067  16.084  11.488
79235CL-    CL-38738  14.233  27.041  13.541
79236CL-    CL-38739  37.969  44.001  12.432
79237CL-    CL-38740   0.780  43.794  13.394
79238CL-    CL-38741  29.171  29.100  10.898
79239CL-    CL-38742   2.471   5.337   0.800
79240CL-    CL-38743  43.803  29.158  12.522
79241CL-    CL-38744  19.269  12.300  13.470
79242CL-    CL-38745  40.814   0.874  13.834
79243CL-    CL-38746  24.708  19.642  12.947
79244CL-    CL-38747  35.594  27.689  10.525
79245CL-    CL-38748  17.634  19.604   3.738
79246CL-    CL-38749   9.395  14.108  13.054
79247CL-    CL-38750   5.383   9.367  12.019
79248CL-    CL-38751   4.437  43.490   0.479
79249CL-    CL-38752  44.979  14.185   1.362
79250CL-    CL-38753  27.174   9.786   0.242
79251CL-    CL-38754   5.330  22.202  11.552
79252CL-    CL-38755  33.447   6.373   1.266
79253CL-    CL-38756  43.433   8.264  13.913
79254CL-    CL-38757  18.112  25.161   4.124
79255CL-    CL-38758  15.315  14.667  13.032
79256CL-    CL-38759  41.321  27.993  12.367
79257CL-    CL-38760  33.472  25.683  12.485
79258CL-    CL-38761  13.274  29.082   0.954
79259CL-    CL-38762  35.503  31.421   3.296
79260CL-    CL-38763  16.295  22.189   4.223
79261CL-    CL-38764  20.273  16.723  13.794
79262CL-    CL-38765   1.848  24.489   3.723
79263CL-    CL-38766   8.698  13.234  12.075
79264CL-    CL-38767  28.006  10.814  11.573
79265CL-    CL-38768  40.017  29.147   2.874
79266CL-    CL-38769   5.268  38.908  14.404
79267CL-    CL-38770  23.734  12.735   1.756
79268CL-    CL-38771  33.556   2.759   3.830
79269CL-    CL-38772  17.662   9.753  11.977
79270CL-    CL-38773  24.026  38.495   1.757
79271CL-    CL-38774  19.059  43.825  10.955
79272CL-    CL-38775  41.392  38.020   3.784
79273CL-    CL-38776  27.993  23.540  11.375
79274CL-    CL-38777   1.373   0.937  13.960
79275CL-    CL-38778   6.259  40.968   4.136
79276CL-    CL-38779  28.984  38.361  10.425
79277CL-    CL-38780  23.650  44.808   2.732
79278CL-    CL-38781  37.416  23.144  12.996
79279CL-    CL-38782   9.821  19.208  12.419
79280CL-    CL-38783  22.173  33.957   4.605
79281CL-    CL-38784  11.162  27.100   0.773
79282CL-    CL-38785  39.476  20.736   3.849
79283CL-    CL-38786  35.009  39.043   2.819
79284CL-    CL-38787  17.689  28.992   0.883
79285CL-    CL-38788  16.588  21.117   1.281
79286CL-    CL-38789   0.277  20.690   3.170
79287CL-    CL-38790  42.024  20.528  14.011
79288CL-    CL-38791  25.652  35.565  14.390
79289CL-    CL-38792  41.817   3.311   4.228
79290CL-    CL-38793  26.037   8.395  13.972
79291CL-    CL-38794  37.880  26.472  10.980
79292CL-    CL-38795  44.778  26.204  10.502
79293CL-    CL-38796  28.119  36.400   1.892
79294CL-    CL-38797  35.420  43.430   4.809
79295CL-    CL-38798  22.095  38.886  14.878
79296CL-    CL-38799   8.303  32.132   4.163
79297CL-    CL-38800  44.385   3.335  11.913
79298CL-    CL-38801   0.765  41.450  12.981
79299CL-    CL-38802  41.855   4.267  11.372
79300CL-    CL-38803  44.415  28.618  14.839
79301CL-    CL-38804  23.546   1.404   2.703
79302CL-    CL-38805  30.107  13.813  13.035
79303CL-    CL-38806  39.431   2.871  14.410
79304CL-    CL-38807  33.912  14.095  10.151
79305CL-    CL-38808  10.726  39.431  11.539
79306CL-    CL-38809  37.478  42.485  10.621
79307CL-    CL-38810  41.404  15.643   5.223
79308CL-    CL-38811  11.133   2.259   4.834
79309CL-    CL-38812  26.578   9.722  11.023
79310CL-    CL-38813  42.848  17.253  11.954
79311CL-    CL-38814  22.640  13.736   4.119
79312CL-    CL-38815  35.432  10.680   3.378
79313CL-    CL-38816   2.448  22.248  12.360
79314CL-    CL-38817  18.068  44.275  14.464
79315CL-    CL-38818   7.342   3.944   0.825
79316CL-    CL-38819  39.037   6.818   0.917
79317CL-    CL-38820  21.057  40.478   2.233
79318CL-    CL-38821  36.482  21.733   1.259
79319CL-    CL-38822   3.389  28.032   0.326
79320CL-    CL-38823  27.598  34.390   2.673
79321CL-    CL-38824   0.273  17.704   1.857
79322CL-    CL-38825  24.046  21.652  11.512
79323CL-    CL-38826  17.175  44.828  11.112
79324CL-    CL-38827   9.812  32.485   4.786
79325CL-    CL-38828  19.572   0.958  13.903
79326CL-    CL-38829  14.314  39.834  12.937
79327CL-    CL-38830  44.499  19.551  13.422
79328CL-    CL-38831   4.930  24.184  12.087
79329CL-    CL-38832  28.055  21.025  10.604
79330CL-    CL-38833   3.236  18.751   2.271
79331CL-    CL-38834  29.980   5.429   3.712
79332CL-    CL-38835  30.582  25.586   9.457
79333CL-    CL-38836  19.629   7.329   0.472
79334CL-    CL-38837  24.487  10.303   2.356
79335CL-    CL-38838  16.229  26.966  10.529
79336CL-    CL-38839  35.506  20.680   4.299
79337CL-    CL-38840   0.292  38.910   4.608
79338CL-    CL-38841  11.347  25.144  12.470
79339CL-    CL-38842  10.633  43.500   4.683
79340CL-    CL-38843   8.334   4.829   3.714
79341CL-    CL-38844  33.394   0.267   2.333
79342CL-    CL-38845   9.204   0.898  13.904
79343CL-    CL-38846  36.981  42.980   4.329
79344CL-    CL-38847  10.705   0.270   0.310
79345CL-    CL-38848  27.507  38.443  13.319
79346CL-    CL-38849   6.734  21.074  13.952
79347CL-    CL-38850  18.194   8.807  14.782
79348CL-    CL-38851  35.031  34.083   0.776
79349CL-    CL-38852  38.942  17.227   0.946
79350CL-    CL-38853  29.618  36.063  12.374
79351CL-    CL-38854   5.907   5.264  13.329
79352CL-    CL-38855  35.918  36.503   2.790
79353CL-    CL-38856   0.853  44.314  14.302
79354CL-    CL-38857  41.994  11.627   1.730
79355CL-    CL-38858  13.756  11.711  10.575
79356CL-    CL-38859  35.960  42.477   2.872
79357CL-    CL-38860   6.265  22.244  11.468
79358CL-    CL-38861  39.870  25.179  10.635
79359CL-    CL-38862  10.262  23.223   4.331
79360CL-    CL-38863  28.930  15.813   0.743
79361CL-    CL-38864  19.693  14.633  11.977
79362CL-    CL-38865  27.109   0.855   4.820
79363CL-    CL-38866   5.807   6.317   0.263
79364CL-    CL-38867  15.814  35.548  10.500
79365CL-    CL-38868  42.457  31.510   3.237
79366CL-    CL-38869   3.733  38.499  10.910
79367CL-    CL-38870  38.542  13.330   3.765
79368CL-    CL-38871   2.770  15.820  12.037
79369CL-    CL-38872  31.583  23.005  13.390
79370CL-    CL-38873  20.591  37.979  11.455
79371CL-    CL-38874  18.157   6.241  13.029
79372CL-    CL-38875  12.626  33.002  13.536
79373CL-    CL-38876   1.427  25.033   3.729
79374CL-    CL-38877   3.937  15.175  12.432
79375CL-    CL-38878  41.362  18.648   4.620
79376CL-    CL-38879  43.484  26.543  14.825
79377CL-    CL-38880  12.773  28.602   2.317
79378CL-    CL-38881  36.581  27.500  10.549
79379CL-    CL-38882  44.790  15.623   4.663
79380CL-    CL-38883  16.682   9.364  12.550
79381CL-    CL-38884  13.718  15.254  14.288
79382CL-    CL-38885  37.907  20.670   3.281
79383CL-    CL-38886  29.938  24.029   4.612
79384CL-    CL-38887   6.892   1.848   1.398
79385CL-    CL-38888  17.744  39.461   0.452
79386CL-    CL-38889  10.737   7.197  14.489
79387CL-    CL-38890   1.782  40.806   2.814
79388CL-    CL-38891  12.171   8.660  14.479
79389CL-    CL-38892  35.072  25.136   2.717
79390CL-    CL-38893  41.824  42.777  11.973
79391CL-    CL-38894  19.201  33.572  14.780
79392CL-    CL-38895   8.200  22.519   1.396
79393CL-    CL-38896   5.290   4.224  11.457
79394CL-    CL-38897  35.536  18.768  11.540
79395CL-    CL-38898   3.421  10.337  13.489
79396CL-    CL-38899  34.090  24.070  11.882
79397CL-    CL-38900   2.305  41.418   3.330
79398CL-    CL-38901   3.230   2.773   4.334
79399CL-    CL-38902  26.184  19.089  11.509
79400CL-    CL-38903  18.546  30.531  10.411
79401CL-    CL-38904  33.916   0.409   2.233
79402CL-    CL-38905  42.396   8.662  11.391
79403CL-    CL-38906   8.256  43.891  14.442
79404CL-    CL-38907  22.156  27.985  14.921
79405CL-    CL-38908  44.454  12.153   2.182
79406CL-    CL-38909  29.568  41.859   2.664
79407CL-    CL-38910  27.649  23.055   4.820
79408CL-    CL-38911  41.879   0.307   2.878
79409CL-    CL-38912   0.820  10.689  13.503
79410CL-    CL-38913  43.011   2.307  14.890
79411CL-    CL-38914   4.287   6.915   1.856
79412CL-    CL-38915  15.669  33.902   9.933
79413CL-    CL-38916  21.728  22.997   0.410
79414CL-    CL-38917  24.123  44.351  13.536
79415CL-    CL-38918  27.140   0.849  12.417
79416CL-    CL-38919  10.766  12.362   1.798
79417CL-    CL-38920  13.766   0.857  11.982
79418CL-    CL-38921  42.927   1.886   0.794
79419CL-    CL-38922  15.099  21.549   3.698
79420CL-    CL-38923  42.941  30.461  10.600
79421CL-    CL-38924   5.699  19.138   4.827
79422CL-    CL-38925  23.629   9.200  14.390
79423CL-    CL-38926  18.254   6.303   0.943
79424CL-    CL-38927  14.245  24.989  11.892
79425CL-    CL-38928  22.696  16.789   2.674
79426CL-    CL-38929  32.900  25.105  12.856
79427CL-    CL-38930   5.688  38.536  12.063
79428CL-    CL-38931  41.399  11.203   3.382
79429CL-    CL-38932  37.907  31.627  11.391
79430CL-    CL-38933  10.297   6.771   4.642
79431CL-    CL-38934  41.349  19.242  13.890
79432CL-    CL-38935  34.392  16.812  13.341
79433CL-    CL-38936   3.389  24.669  10.477
79434CL-    CL-38937  25.079   0.790   3.229
79435CL-    CL-38938  27.026   2.913  13.969
79436CL-    CL-38939  41.797  39.366  10.908
79437CL-    CL-38940  44.373  44.321  10.104
79438CL-    CL-38941  28.013  40.861  12.466
79439CL-    CL-38942  42.990  35.399   4.626
79440CL-    CL-38943   5.388   2.800   3.699
79441CL-    CL-38944  20.138   5.689   3.170
79442CL-    CL-38945  22.235  14.158   1.234
79443CL-    CL-38946  16.088   1.891  11.075
79444CL-    CL-38947  11.772  33.969  13.460
79445CL-    CL-38948  16.624  44.942   0.312
79446CL-    CL-38949  36.927  34.915  13.311
79447CL-    CL-38950  38.909  44.908   2.346
79448CL-    CL-38951  28.014  24.561  14.308
79449CL-    CL-38952  37.013  21.635   1.914
79450CL-    CL-38953  17.672   9.205   4.334
79451CL-    CL-38954  16.200   7.868  12.931
79452CL-    CL-38955  43.363  12.764   2.742
79453CL-    CL-38956  29.533  27.025   2.694
79454CL-    CL-38957   2.864  12.286   4.618
79455CL-    CL-38958  15.650  44.791  11.935
79456CL-    CL-38959   8.298  15.193   1.332
79457CL-    CL-38960   0.803   6.383   3.170
79458CL-    CL-38961  13.606  23.566  13.816
79459CL-    CL-38962  27.973  42.323   3.316
79460CL-    CL-38963  21.260   3.427   2.851
79461CL-    CL-38964  42.945   0.959   2.249
79462CL-    CL-38965  34.535  36.927  13.346
79463CL-    CL-38966   3.906   7.811  11.862
79464CL-    CL-38967  10.687   3.941   1.321
79465CL-    CL-38968  24.494  14.182  13.841
79466CL-    CL-38969  41.895   7.353  13.977
79467CL-    CL-38970  21.214   6.811  12.520
79468CL-    CL-38971  43.005   9.830  11.886
79469CL-    CL-38972  25.622  17.238  11.465
79470CL-    CL-38973   0.297  25.583   1.877
79471CL-    CL-38974  12.802  28.505   0.810
79472CL-    CL-38975  36.403  13.168   4.276
79473CL-    CL-38976  38.925  12.709  12.370
79474CL-    CL-38977  18.249  33.537  11.115
79475CL-    CL-38978  14.283  41.387  10.613
79476CL-    CL-38979  26.170  36.034  13.848
79477CL-    CL-38980  42.946  41.381  10.967
79478CL-    CL-38981  30.962  11.319   4.265
79479CL-    CL-38982  11.164  25.009   2.903
79480CL-    CL-38983  17.756  30.147   2.667
79481CL-    CL-38984   2.832  17.232   3.343
79482CL-    CL-38985  37.349   7.693   4.628
79483CL-    CL-38986  13.196   4.744  11.926
79484CL-    CL-38987  26.650  33.387   1.858
79485CL-    CL-38988  23.161   6.831   3.658
79486CL-    CL-38989  13.191   5.204   3.782
79487CL-    CL-38990  30.592  22.561   0.482
79488CL-    CL-38991   2.930  23.657  10.458
79489CL-    CL-38992  35.938  22.688  14.326
79490CL-    CL-38993  39.917  38.951  11.455
79491CL-    CL-38994  40.310   1.946   9.930
79492CL-    CL-38995  26.661  35.955  11.437
79493CL-    CL-38996  42.954  34.046  11.860
79494CL-    CL-38997  27.988  25.573   3.743
79495CL-    CL-38998  38.941   4.807   1.828
79496CL-    CL-38999  16.279  37.055  10.420
79497CL-    CL-39000   2.364   4.772  14.943
79498CL-    CL-39001  27.624   8.681   0.258
79499CL-    CL-39002  29.140  13.730  12.409
79500CL-    CL-39003  30.625  34.029  14.382
79501CL-    CL-39004  36.958   1.892  12.063
79502CL-    CL-39005  18.116  23.514  12.012
79503CL-    CL-39006  36.421   2.920  11.888
79504CL-    CL-39007  16.100  20.195   0.806
79505CL-    CL-39008  17.276  30.653   2.808
79506CL-    CL-39009  17.188  19.071  10.425
79507CL-    CL-39010  23.174  43.816  10.913
79508CL-    CL-39011   5.289  39.820   2.823
79509CL-    CL-39012   3.460  25.054  14.845
79510CL-    CL-39013  21.255  19.132   2.886
79511CL-    CL-39014  36.500  30.973   1.769
79512CL-    CL-39015   1.354  26.013   0.855
79513CL-    CL-39016  16.612  44.483   3.857
79514CL-    CL-39017  29.622  37.408   0.399
79515CL-    CL-39018   4.939  15.210  10.435
79516CL-    CL-39019   8.790  41.970   3.636
79517CL-    CL-39020  42.326  33.937  13.022
79518CL-    CL-39021  34.961  10.853   0.904
79519CL-    CL-39022   2.777  32.544   1.816
79520CL-    CL-39023  35.518  23.117  13.969
79521CL-    CL-39024  41.925  22.563   4.199
79522CL-    CL-39025  40.012  37.083  13.989
79523CL-    CL-39026  12.216   5.706   0.452
79524CL-    CL-39027  16.285  38.037   1.717
79525CL-    CL-39028  33.453  32.949  10.963
79526CL-    CL-39029  14.608  30.992   3.837
79527CL-    CL-39030  31.936  13.671  13.492
79528CL-    CL-39031  19.238  19.253   1.877
79529CL-    CL-39032   7.176  35.544   3.284
79530CL-    CL-39033  18.602  39.456   1.793
79531CL-    CL-39034  16.274   4.709  13.814
79532CL-    CL-39035  32.433  18.558   3.821
79533CL-    CL-39036  18.618  36.381   3.274
79534CL-    CL-39037  26.601  38.880  10.418
79535CL-    CL-39038   3.381  12.801  14.298
79536CL-    CL-39039   7.700  29.978  12.388
79537CL-    CL-39040  32.488  37.834   2.855
79538CL-    CL-39041  34.513  19.687   1.853
79539CL-    CL-39042   8.328  34.564  12.891
79540CL-    CL-39043  11.336  32.959   1.292
79541CL-    CL-39044  17.556  35.055  14.820
79542CL-    CL-39045  27.649  10.169  12.011
79543CL-    CL-39046  16.635  40.321  11.577
79544CL-    CL-39047  33.022  27.606  12.989
79545CL-    CL-39048   3.223  30.156   9.570
79546CL-    CL-39049  19.082  33.951  12.485
79547CL-    CL-39050  24.485  34.867  13.322
79548CL-    CL-39051  44.485  19.679   1.805
79549CL-    CL-39052  26.690  20.037   3.665
79550CL-    CL-39053  38.037  25.586  10.565
79551CL-    CL-39054  40.342  28.094  11.941
79552CL-    CL-39055   4.723  12.177   4.775
79553CL-    CL-39056  24.580  40.519   2.664
79554CL-    CL-39057  28.495  44.409  13.958
79555CL-    CL-39058   4.736  32.913  13.483
79556CL-    CL-39059  34.510  16.292   2.275
79557CL-    CL-39060  25.474  20.166  10.997
79558CL-    CL-39061  23.198  22.694   1.785
79559CL-    CL-39062  44.960   9.226   3.371
79560CL-    CL-39063   6.841   1.394   4.704
79561CL-    CL-39064  24.659  14.791  10.987
79562CL-    CL-39065  44.469  15.174   1.877
79563CL-    CL-39066  40.506  28.571   4.607
79564CL-    CL-39067  33.531  24.704  10.966
79565CL-    CL-39068  34.422   2.780  12.994
79566CL-    CL-39069   3.446  37.919   1.728
79567CL-    CL-39070  23.578  16.211   4.186
79568CL-    CL-39071  19.748   4.787  13.836
79569CL-    CL-39072  44.277  44.385  14.485
79570CL-    CL-39073  26.038  28.478   2.275
79571CL-    CL-39074  30.432  24.725   0.962
79572CL-    CL-39075  12.132  17.641   3.801
79573CL-    CL-39076   1.467  22.739   4.199
79574CL-    CL-39077  22.739  31.948   5.118
79575CL-    CL-39078  35.044  11.770  14.503
79576CL-    CL-39079  25.482  14.660   0.852
79577CL-    CL-39080  17.288  12.717   0.893
79578CL-    CL-39081  44.992  26.513  10.602
79579CL-    CL-39082  22.097   5.333   3.780
79580CL-    CL-39083  34.468  20.703   0.261
79581CL-    CL-39084  23.984   8.815   0.766
79582CL-    CL-39085  43.404  15.637  11.393
79583CL-    CL-39086  15.606  27.042  14.506
79584CL-    CL-39087  25.694  24.024   3.803
79585CL-    CL-39088  24.017  27.955  11.543
79586CL-    CL-39089  16.141  41.497   4.773
79587CL-    CL-39090  16.597  31.923  11.871
79588CL-    CL-39091   9.816  19.757  10.575
79589CL-    CL-39092   5.378  23.662   3.680
79590CL-    CL-39093  34.039  24.686   3.787
79591CL-    CL-39094  31.067  29.044   5.732
79592CL-    CL-39095  22.659  26.519  12.442
79593CL-    CL-39096  29.041  36.348   5.271
79594CL-    CL-39097   2.927   1.779   2.892
79595CL-    CL-39098   6.695  13.737   0.365
79596CL-    CL-39099  20.257  32.902   0.964
79597CL-    CL-39100   9.324  37.495  10.579
79598CL-    CL-39101  13.650  34.049  14.510
79599CL-    CL-39102   7.378  24.643  10.611
79600CL-    CL-39103  28.560  32.906   4.776
79601CL-    CL-39104  43.370  25.970   2.282
79602CL-    CL-39105  39.502  13.340   3.865
79603CL-    CL-39106  29.014   2.890   2.243
79604CL-    CL-39107   0.257  23.634   4.188
79605CL-    CL-39108  21.070  37.510  11.863
79606CL-    CL-39109  23.489  10.803  12.565
79607CL-    CL-39110  30.023   3.929   3.364
79608CL-    CL-39111   9.347  42.820  10.599
79609CL-    CL-39112   8.849  21.610   1.339
79610CL-    CL-39113  36.052  30.104  14.443
79611CL-    CL-39114  33.001  34.532   4.771
79612CL-    CL-39115  19.759   5.928  13.830
79613CL-    CL-39116  32.558  29.081  13.905
79614CL-    CL-39117  25.150  40.040  13.413
79615CL-    CL-39118  22.537  30.910   4.298
79616CL-    CL-39119  22.687  24.615  13.868
79617CL-    CL-39120  37.467  17.108  11.094
79618CL-    CL-39121  27.672  14.110   5.278
79619CL-    CL-39122  17.219  31.084  14.826
79620CL-    CL-39123  31.908  10.172   4.630
79621CL-    CL-39124  16.775  44.355  10.556
79622CL-    CL-39125  24.121  23.616   4.738
79623CL-    CL-39126   4.318  32.886   3.291
79624CL-    CL-39127   0.354  25.147  10.138
79625CL-    CL-39128  39.828  21.032  11.897
79626CL-    CL-39129  31.125  42.498  14.301
79627CL-    CL-39130  28.063  11.796   4.204
79628CL-    CL-39131  10.638  27.465   2.340
79629CL-    CL-39132  41.409  14.809  12.913
79630CL-    CL-39133  22.717   2.788  14.471
79631CL-    CL-39134   6.257  22.216   4.337
79632CL-    CL-39135  41.351  18.731   0.897
79633CL-    CL-39136  38.925  17.765  12.913
79634CL-    CL-39137  11.834  21.250   0.313
79635CL-    CL-39138   3.950  19.777   2.309
79636CL-    CL-39139  11.203   3.315   0.336
79637CL-    CL-39140  33.979  21.028  11.988
79638CL-    CL-39141  26.645  19.627  12.091
79639CL-    CL-39142   4.317  27.654  11.377
79640CL-    CL-39143   8.244  34.988  12.027
79641CL-    CL-39144  14.810  41.333  11.993
79642CL-    CL-39145  20.058  25.577   3.380
79643CL-    CL-39146  35.494  25.191   2.202
79644CL-    CL-39147  11.208  16.746   2.248
79645CL-    CL-39148  33.880  18.184   4.629
79646CL-    CL-39149  26.084  43.838   3.210
79647CL-    CL-39150  10.795  42.780   4.794
79648CL-    CL-39151  13.713  38.352   0.283
79649CL-    CL-39152  27.461  22.230   0.363
79650CL-    CL-39153  16.658   9.687  14.399
79651CL-    CL-39154   4.769  41.314  12.920
79652CL-    CL-39155   0.830   3.365  10.018
79653CL-    CL-39156  35.027  36.450  12.865
79654CL-    CL-39157  17.556  39.884   4.132
79655CL-    CL-39158  13.222  35.583   0.896
79656CL-    CL-39159  42.820  17.666  13.374
79657CL-    CL-39160   7.857  18.289  11.394
79658CL-    CL-39161  15.767   6.921  14.393
79659CL-    CL-39162  22.584  22.123  11.038
79660CL-    CL-39163  36.079  31.152   4.702
79661CL-    CL-39164  18.250  29.456   1.428
79662CL-    CL-39165  33.428  30.528   4.152
79663CL-    CL-39166  44.008  25.107  13.029
79664CL-    CL-39167  13.198  29.953  13.064
79665CL-    CL-39168  17.133   9.201   2.257
79666CL-    CL-39169  17.167  34.478   3.259
79667CL-    CL-39170  26.128  23.095   2.244
79668CL-    CL-39171  36.391  16.180  13.838
79669CL-    CL-39172  13.217  44.924  14.790
79670CL-    CL-39173  38.916   0.962   2.802
79671CL-    CL-39174  22.736  17.723  10.042
79672CL-    CL-39175  23.028   1.437  14.803
79673CL-    CL-39176  13.293   4.294  11.072
79674CL-    CL-39177  32.135   9.292  14.283
79675CL-    CL-39178  29.948  28.594  12.458
79676CL-    CL-39179  40.852  21.067   3.764
79677CL-    CL-39180  44.908  12.324   0.754
79678CL-    CL-39181   7.740  25.691   1.291
79679CL-    CL-39182   1.943   5.351   4.128
79680CL-    CL-39183  16.740  35.464   4.141
79681CL-    CL-39184  42.446  30.565  14.882
79682CL-    CL-39185  33.909   2.419  12.475
79683CL-    CL-39186  26.686  36.046  12.831
79684CL-    CL-39187  22.202  12.641   1.772
79685CL-    CL-39188   6.358  17.715   4.255
79686CL-    CL-39189   7.389  15.107   2.839
79687CL-    CL-39190   0.959   0.939   5.288
79688CL-    CL-39191   6.411  14.651  10.128
79689CL-    CL-39192   2.295  27.088  13.368
79690CL-    CL-39193   5.370  18.067  12.394
79691CL-    CL-39194  21.709  12.330  14.336
79692CL-    CL-39195  34.047  13.601   3.278
79693CL-    CL-39196  40.043  22.686   1.837
79694CL-    CL-39197  26.555  35.470  14.305
79695CL-    CL-39198  30.005  18.113   2.822
79696CL-    CL-39199  42.475   5.297   5.250
79697CL-    CL-39200  27.482  30.966  10.966
79698CL-    CL-39201  35.596  10.146  12.078
79699CL-    CL-39202  11.234   3.933   0.960
79700CL-    CL-39203   2.761   5.714  14.865
79701CL-    CL-39204  20.171  40.898   3.825
79702CL-    CL-39205   3.362  17.653   2.740
79703CL-    CL-39206  38.994  36.396   1.923
79704CL-    CL-39207  30.130  16.652  14.320
79705CL-    CL-39208  31.065  36.060   2.302
79706CL-    CL-39209   0.809  20.237  14.003
79707CL-    CL-39210  40.033  35.056   2.692
79708CL-    CL-39211  20.220  14.764   1.400
79709CL-    CL-39212  40.042  32.515  13.472
79710CL-    CL-39213  13.825   5.933  14.340
79711CL-    CL-39214  20.662  26.041   4.187
79712CL-    CL-39215  44.497  15.688  10.974
79713CL-    CL-39216  14.652  22.733   0.968
79714CL-    CL-39217  38.483   7.779   1.700
79715CL-    CL-39218   1.840  38.852  11.087
79716CL-    CL-39219  44.368  18.126   1.295
79717CL-    CL-39220  26.986  28.564   0.925
79718CL-    CL-39221   4.749  12.762   0.258
79719CL-    CL-39222   4.408  24.718  14.320
79720CL-    CL-39223  29.643  35.539  12.417
79721CL-    CL-39224  25.186  26.082  12.974
79722CL-    CL-39225  36.544  16.777  10.438
79723CL-    CL-39226   6.328  11.225  10.629
79724CL-    CL-39227   4.234  37.514   4.196
79725CL-    CL-39228  27.668  17.201   0.746
79726CL-    CL-39229   7.679  13.818  13.844
79727CL-    CL-39230  43.985   7.706  10.411
79728CL-    CL-39231  35.931   1.315   2.333
79729CL-    CL-39232  36.494  21.065  10.963
79730CL-    CL-39233   0.342  32.968  14.422
79731CL-    CL-39234  14.135  22.145  11.007
79732CL-    CL-39235  36.526   2.227   0.462
79733CL-    CL-39236   7.750  28.981  12.957
79734CL-    CL-39237  12.267  15.240   0.875
79735CL-    CL-39238  21.601   0.822   1.701
79736CL-    CL-39239   9.285  39.004  10.618
79737CL-    CL-39240  33.939  29.023  10.407
79738CL-    CL-39241  28.153  30.019  10.998
79739CL-    CL-39242  15.769   5.857  14.970
79740CL-    CL-39243  34.492  35.952   0.389
79741CL-    CL-39244  12.321  22.044   3.790
79742CL-    CL-39245  10.374  44.387  11.509
79743CL-    CL-39246  35.859   6.354  10.982
79744CL-    CL-39247  34.581  27.005   4.228
79745CL-    CL-39248  28.961  39.400  11.612
79746CL-    CL-39249  21.520  18.231   2.395
79747CL-    CL-39250  17.721  39.039  14.314
79748CL-    CL-39251  29.154   7.365  12.993
79749CL-    CL-39252   2.310   2.338   3.219
79750CL-    CL-39253  20.654   0.259   9.532
79751CL-    CL-39254  27.193   7.777  12.531
79752CL-    CL-39255  12.718   7.717  11.553
79753CL-    CL-39256  41.533  19.137  14.445
79754CL-    CL-39257  23.141  15.678  12.993
79755CL-    CL-39258  29.477  21.119   3.162
79756CL-    CL-39259  23.611   2.728   1.898
79757CL-    CL-39260  19.777  26.011  13.799
79758CL-    CL-39261  19.647  30.501  14.923
79759CL-    CL-39262  41.883  41.844   4.739
79760CL-    CL-39263   1.420  41.923   3.221
79761CL-    CL-39264   7.807  29.062  10.949
79762CL-    CL-39265  33.588  11.750  10.436
79763CL-    CL-39266  38.964  30.055   2.732
79764CL-    CL-39267  25.983  13.205   2.827
79765CL-    CL-39268  26.610  17.126   2.303
79766CL-    CL-39269  43.857   1.422   1.341
79767CL-    CL-39270  14.751   6.403   2.695
79768CL-    CL-39271   1.920   7.845  11.946
79769CL-    CL-39272  37.447  14.724  12.534
  45.00000  45.00000  15.00000   0.00000   0.00000   0.00000   0.00000   0.00000   0.00000

